/*--------------------------------*- C++ -*----------------------------------*\
| =========                 |                                                 |
| \\      /  F ield         | OpenFOAM: The Open Source CFD Toolbox           |
|  \\    /   O peration     | Version:  4.x                                   |
|   \\  /    A nd           | Web:      www.OpenFOAM.org                      |
|    \\/     M anipulation  |                                                 |
\*---------------------------------------------------------------------------*/
FoamFile
{
    version     2.0;
    format      ascii;
    class       volScalarField;
    location    "7000";
    object      CO;
}
// * * * * * * * * * * * * * * * * * * * * * * * * * * * * * * * * * * * * * //

dimensions      [0 0 0 0 0 0 0];

internalField   nonuniform List<scalar> 
1174
(
0.3999971194
0.3999949694
0.3999919331
0.3999879726
0.3999831301
0.3999775129
0.3999712708
0.3999645744
0.3999575962
0.3999504988
0.3999434323
0.3999365562
0.3999301523
0.3999251206
0.3999950982
0.3999916498
0.3999870575
0.3999814281
0.399974956
0.3999678767
0.3999604293
0.3999528311
0.3999452653
0.3999378779
0.3999307838
0.3999240941
0.399918022
0.3999133354
0.3999906317
0.3999845322
0.3999769858
0.3999684185
0.3999592914
0.3999500181
0.3999409259
0.3999322479
0.3999241316
0.3999166573
0.3999098588
0.3999037562
0.3998984463
0.3998944709
0.3999840835
0.3999746034
0.3999637215
0.3999522349
0.3999408073
0.3999299153
0.3999198562
0.3999107828
0.3999027428
0.3998957147
0.3998896373
0.3998844412
0.3998801169
0.3998769876
0.3999794053
0.3999680681
0.3999557032
0.3999431827
0.3999311371
0.3999199684
0.3999098951
0.3999010009
0.399893278
0.3998866615
0.3998810566
0.3998763648
0.3998725405
0.3998698194
0.3999840836
0.3999746036
0.3999637217
0.3999522352
0.3999408077
0.3999299158
0.3999198567
0.3999107834
0.3999027436
0.3998957155
0.3998896382
0.3998844421
0.3998801179
0.3998769886
0.3999906318
0.3999845324
0.3999769861
0.3999684189
0.3999592919
0.3999500187
0.3999409267
0.3999322487
0.3999241326
0.3999166585
0.3999098601
0.3999037576
0.3998984478
0.3998944726
0.3999950984
0.3999916499
0.3999870577
0.3999814284
0.3999749564
0.3999678773
0.39996043
0.3999528319
0.3999452664
0.3999378791
0.3999307852
0.3999240957
0.3999180238
0.3999133373
0.3999971195
0.3999949695
0.3999919333
0.3999879728
0.3999831304
0.3999775133
0.3999712714
0.3999645751
0.3999575971
0.3999504999
0.3999434336
0.3999365578
0.3999301541
0.3999251226
0.3999974264
0.3999950983
0.3999916498
0.3999870576
0.3999814282
0.3999749561
0.3999678768
0.3999604294
0.3999528312
0.3999452654
0.399937878
0.3999307839
0.3999240942
0.3999180221
0.3999133355
0.3999905387
0.3999844793
0.3999770911
0.399968819
0.3999601094
0.3999513379
0.399942784
0.3999346344
0.399926999
0.3999199317
0.3999134521
0.3999075769
0.3999024093
0.3998985055
0.3999790612
0.3999672804
0.3999544781
0.3999417389
0.3999298054
0.3999190816
0.3999097137
0.3999016813
0.3998948729
0.3998891378
0.3998843206
0.3998802867
0.3998769728
0.3998745896
0.3999586505
0.3999390528
0.3999204235
0.3999041569
0.3998907382
0.3998801013
0.399871913
0.3998657525
0.3998612071
0.3998579144
0.3998555752
0.3998539517
0.3998528639
0.3998522144
0.3999393817
0.3999157966
0.3998958233
0.3998799853
0.3998679662
0.399859152
0.3998528903
0.3998485958
0.3998457832
0.3998440665
0.3998431453
0.3998427866
0.3998427971
0.3998429707
0.3999586511
0.3999390535
0.3999204244
0.3999041579
0.3998907393
0.3998801024
0.3998719142
0.3998657537
0.3998612083
0.3998579157
0.3998555765
0.3998539531
0.3998528653
0.3998522158
0.3999790618
0.399967281
0.3999544788
0.3999417398
0.3999298064
0.3999190828
0.3999097151
0.3999016829
0.3998948746
0.3998891397
0.3998843225
0.3998802888
0.3998769749
0.3998745918
0.3999905391
0.3999844796
0.3999770915
0.3999688195
0.39996011
0.3999513387
0.3999427851
0.3999346357
0.3999270005
0.3999199334
0.399913454
0.399907579
0.3999024116
0.399898508
0.3999950984
0.39999165
0.3999870577
0.3999814285
0.3999749565
0.3999678775
0.3999604302
0.3999528323
0.3999452668
0.3999378796
0.3999307858
0.3999240963
0.3999180245
0.3999133381
0.3999950172
0.3999906319
0.3999845324
0.399976986
0.3999684188
0.3999592916
0.3999500183
0.3999409262
0.3999322481
0.3999241319
0.3999166576
0.399909859
0.3999037564
0.3998984465
0.3998944711
0.3999885746
0.3999790614
0.3999672806
0.3999544783
0.3999417391
0.3999298055
0.3999190817
0.3999097139
0.3999016815
0.3998948731
0.399889138
0.3998843208
0.3998802869
0.3998769729
0.3998745897
0.3999451361
0.399920269
0.3998977593
0.3998793108
0.3998652729
0.3998552377
0.3998484888
0.3998442653
0.3998418891
0.3998408092
0.3998406016
0.3998409479
0.3998415923
0.3998422408
0.3998696332
0.3998276189
0.3997986561
0.3997815699
0.3997735534
0.3997717778
0.3997739612
0.3997784504
0.3997841247
0.3997902595
0.3997964028
0.3998022643
0.3998075681
0.3998116309
0.3997706852
0.3997288766
0.399710949
0.3997078188
0.3997129975
0.3997223998
0.399733605
0.399745236
0.3997565422
0.3997671393
0.3997768493
0.3997855844
0.3997931827
0.3997988659
0.3998696357
0.3998276214
0.3997986585
0.3997815723
0.3997735557
0.3997717801
0.3997739633
0.3997784525
0.3997841267
0.3997902615
0.3997964047
0.3998022662
0.39980757
0.3998116327
0.3999451378
0.3999202706
0.3998977611
0.3998793128
0.3998652751
0.3998552402
0.3998484915
0.399844268
0.3998418919
0.3998408121
0.3998406046
0.3998409508
0.3998415952
0.3998422438
0.3999790618
0.3999672811
0.3999544791
0.3999417402
0.3999298069
0.3999190834
0.3999097159
0.3999016838
0.3998948756
0.3998891408
0.3998843237
0.39988029
0.3998769762
0.3998745931
0.3999906319
0.3999845325
0.3999769863
0.3999684192
0.3999592924
0.3999500194
0.3999409276
0.3999322499
0.399924134
0.39991666
0.3999098618
0.3999037594
0.3998984498
0.3998944747
0.3999913968
0.3999840839
0.3999746039
0.399963722
0.3999522355
0.3999408079
0.3999299159
0.3999198568
0.3999107834
0.3999027434
0.3998957153
0.3998896379
0.3998844417
0.3998801174
0.3998769881
0.3999766809
0.3999586514
0.3999390537
0.3999204245
0.3999041579
0.3998907391
0.3998801021
0.3998719138
0.3998657532
0.3998612077
0.399857915
0.3998555757
0.3998539522
0.3998528644
0.3998522149
0.3999209162
0.3998696346
0.3998276202
0.3997986571
0.3997815708
0.3997735542
0.3997717784
0.3997739616
0.3997784508
0.399784125
0.3997902598
0.399796403
0.3998022646
0.3998075683
0.3998116311
0.3996106474
0.3995577013
0.3995489359
0.3995641152
0.3995899868
0.3996190688
0.3996475672
0.3996737897
0.3996971532
0.3997176177
0.3997353758
0.3997506616
0.3997635051
0.3997728876
0.3991021161
0.3991683888
0.3992703517
0.3993681566
0.3994512826
0.3995191026
0.3995738137
0.3996180095
0.3996539519
0.3996834341
0.399707818
0.3997280782
0.3997446729
0.3997566006
0.3996106551
0.3995577068
0.3995489406
0.3995641195
0.3995899909
0.3996190725
0.3996475707
0.3996737929
0.3996971562
0.3997176205
0.3997353784
0.399750664
0.3997635074
0.3997728899
0.3998696355
0.399827622
0.3997986598
0.3997815741
0.3997735579
0.3997717824
0.3997739658
0.399778455
0.3997841292
0.3997902639
0.399796407
0.3998022685
0.3998075722
0.3998116349
0.3999586511
0.3999390538
0.3999204252
0.3999041592
0.399890741
0.3998801045
0.3998719166
0.3998657564
0.3998612112
0.3998579186
0.3998555796
0.3998539562
0.3998528684
0.399852219
0.3999840836
0.3999746037
0.3999637222
0.399952236
0.3999408089
0.3999299173
0.3999198587
0.3999107857
0.3999027462
0.3998957184
0.3998896413
0.3998844455
0.3998801214
0.3998769924
0.3999886788
0.3999794058
0.3999680687
0.3999557039
0.3999431834
0.3999311378
0.3999199692
0.3999098959
0.3999010016
0.3998932787
0.3998866623
0.3998810573
0.3998763654
0.3998725411
0.39986982
0.3999642595
0.3999393827
0.3999157978
0.3998958246
0.3998799865
0.3998679674
0.3998591531
0.3998528913
0.3998485967
0.3998457841
0.3998440673
0.399843146
0.3998427873
0.3998427978
0.3998429713
0.3998449509
0.3997706869
0.3997288786
0.3997109508
0.3997078204
0.3997129988
0.399722401
0.399733606
0.3997452369
0.3997565429
0.39976714
0.3997768499
0.399785585
0.3997931833
0.3997988664
0.3991926564
0.3991021222
0.3991683927
0.3992703545
0.3993681586
0.399451284
0.3995191038
0.3995738147
0.3996180103
0.3996539526
0.3996834346
0.3997078184
0.3997280786
0.3997446733
0.399756601
0.396911772
0.3980254904
0.3986425161
0.3990038619
0.3992277231
0.3993741833
0.3994749507
0.3995474288
0.3996015626
0.3996432692
0.3996762012
0.3997026408
0.3997237665
0.3997387161
0.3991021152
0.3991683956
0.3992703601
0.3993681647
0.3994512899
0.3995191091
0.3995738195
0.3996180146
0.3996539565
0.3996834382
0.3997078217
0.3997280816
0.3997446761
0.3997566036
0.3997706847
0.3997288793
0.3997109536
0.3997078244
0.3997130035
0.399722406
0.3997336111
0.399745242
0.3997565479
0.3997671447
0.3997768545
0.3997855895
0.3997931876
0.3997988706
0.3999393817
0.3999157976
0.3998958253
0.3998799882
0.3998679698
0.3998591562
0.3998528948
0.3998486006
0.3998457882
0.3998440716
0.3998431505
0.3998427918
0.3998428024
0.399842976
0.3999794053
0.3999680684
0.399955704
0.3999431841
0.399931139
0.3999199709
0.3999098982
0.3999010045
0.399893282
0.3998866659
0.3998810613
0.3998763697
0.3998725457
0.3998698248
0.3999913968
0.399984084
0.399974604
0.3999637223
0.3999522358
0.3999408083
0.3999299164
0.3999198574
0.3999107841
0.3999027443
0.3998957162
0.3998896389
0.3998844428
0.3998801186
0.3998769893
0.3999766812
0.3999586519
0.3999390545
0.3999204254
0.399904159
0.3998907404
0.3998801035
0.3998719152
0.3998657547
0.3998612093
0.3998579166
0.3998555774
0.3998539539
0.3998528661
0.3998522166
0.3999209191
0.3998696375
0.3998276233
0.3997986603
0.399781574
0.3997735573
0.3997717815
0.3997739646
0.3997784537
0.3997841278
0.3997902625
0.3997964056
0.399802267
0.3998075707
0.3998116335
0.3997294722
0.3996106597
0.3995577108
0.3995489439
0.3995641222
0.3995899931
0.3996190744
0.3996475723
0.3996737943
0.3996971574
0.3997176215
0.3997353793
0.3997506649
0.3997635082
0.3997728906
0.3991926545
0.3991021223
0.3991684006
0.3992703639
0.3993681676
0.3994512922
0.399519111
0.3995738211
0.3996180159
0.3996539576
0.3996834391
0.3997078225
0.3997280823
0.3997446767
0.3997566042
0.3997294705
0.3996106605
0.3995577135
0.3995489476
0.3995641264
0.3995899974
0.3996190786
0.3996475762
0.399673798
0.3996971608
0.3997176248
0.3997353823
0.3997506677
0.3997635108
0.3997728932
0.3998696334
0.3998276223
0.3997986615
0.3997815767
0.3997735609
0.3997717856
0.399773969
0.3997784582
0.3997841323
0.399790267
0.39979641
0.3998022713
0.3998075749
0.3998116376
0.3999586503
0.3999390536
0.3999204255
0.3999041599
0.3998907421
0.3998801059
0.3998719182
0.3998657581
0.399861213
0.3998579205
0.3998555815
0.3998539582
0.3998528705
0.3998522211
0.3999840834
0.3999746036
0.3999637222
0.3999522362
0.3999408093
0.399929918
0.3999198595
0.3999107867
0.3999027474
0.3998957198
0.3998896427
0.399884447
0.399880123
0.399876994
0.3999950173
0.3999906321
0.3999845328
0.3999769865
0.3999684194
0.3999592924
0.3999500193
0.3999409273
0.3999322494
0.3999241334
0.3999166592
0.3999098609
0.3999037583
0.3998984486
0.3998944733
0.3999885752
0.3999790622
0.3999672816
0.3999544795
0.3999417406
0.3999298072
0.3999190836
0.3999097159
0.3999016838
0.3998948755
0.3998891405
0.3998843234
0.3998802896
0.3998769757
0.3998745926
0.3999688482
0.3999451388
0.3999202717
0.3998977623
0.399879314
0.3998652763
0.3998552413
0.3998484925
0.3998442691
0.3998418929
0.399840813
0.3998406055
0.3998409517
0.3998415961
0.3998422446
0.3999209189
0.3998696377
0.3998276242
0.3997986618
0.399781576
0.3997735596
0.399771784
0.3997739672
0.3997784563
0.3997841304
0.399790265
0.399796408
0.3998022694
0.3998075731
0.3998116358
0.3998449502
0.3997706884
0.3997288824
0.3997109562
0.3997078266
0.3997130054
0.3997224076
0.3997336125
0.3997452432
0.399756549
0.3997671457
0.3997768554
0.3997855902
0.3997931883
0.3997988713
0.3999209192
0.3998696385
0.3998276255
0.3997986637
0.3997815782
0.399773562
0.3997717865
0.3997739698
0.3997784588
0.3997841328
0.3997902674
0.3997964104
0.3998022717
0.3998075753
0.3998116379
0.3999688473
0.3999451381
0.3999202718
0.3998977631
0.3998793156
0.3998652785
0.399855244
0.3998484955
0.3998442723
0.3998418963
0.3998408165
0.3998406089
0.3998409552
0.3998415995
0.3998422481
0.3999790612
0.3999672811
0.3999544795
0.3999417411
0.3999298083
0.3999190852
0.399909718
0.3999016863
0.3998948783
0.3998891436
0.3998843267
0.3998802932
0.3998769794
0.3998745965
0.3999906316
0.3999845324
0.3999769864
0.3999684196
0.3999592931
0.3999500204
0.3999409289
0.3999322514
0.3999241358
0.3999166621
0.3999098641
0.3999037619
0.3998984525
0.3998944775
0.3999974265
0.3999950985
0.3999916501
0.399987058
0.3999814287
0.3999749568
0.3999678778
0.3999604305
0.3999528325
0.399945267
0.3999378798
0.3999307859
0.3999240965
0.3999180246
0.3999133381
0.3999949538
0.3999905393
0.3999844799
0.399977092
0.3999688201
0.3999601106
0.3999513393
0.3999427858
0.3999346364
0.3999270012
0.3999199342
0.3999134548
0.3999075798
0.3999024124
0.3998985088
0.3999885752
0.3999790622
0.3999672817
0.3999544797
0.3999417409
0.3999298077
0.3999190843
0.3999097167
0.3999016847
0.3998948765
0.3998891416
0.3998843245
0.3998802908
0.399876977
0.3998745939
0.3999766811
0.399958652
0.3999390549
0.3999204264
0.3999041603
0.3998907422
0.3998801057
0.3998719177
0.3998657575
0.3998612122
0.3998579196
0.3998555805
0.3998539571
0.3998528693
0.3998522199
0.3999642593
0.3999393832
0.3999157992
0.3998958269
0.3998799897
0.3998679712
0.3998591574
0.3998528959
0.3998486017
0.3998457892
0.3998440725
0.3998431513
0.3998427926
0.3998428031
0.3998429767
0.3999766813
0.3999586523
0.3999390555
0.3999204271
0.3999041613
0.3998907434
0.399880107
0.3998719191
0.399865759
0.3998612138
0.3998579213
0.3998555822
0.3998539588
0.399852871
0.3998522216
0.3999885752
0.3999790623
0.3999672819
0.3999544803
0.3999417418
0.399929809
0.3999190858
0.3999097185
0.3999016867
0.3998948787
0.399889144
0.3998843271
0.3998802935
0.3998769797
0.3998745968
0.3999949537
0.3999905391
0.3999844799
0.3999770921
0.3999688205
0.3999601113
0.3999513404
0.3999427872
0.3999346382
0.3999270033
0.3999199365
0.3999134574
0.3999075826
0.3999024155
0.399898512
0.3999950983
0.39999165
0.3999870579
0.3999814289
0.3999749572
0.3999678785
0.3999604316
0.399952834
0.3999452688
0.399937882
0.3999307885
0.3999240993
0.3999180278
0.3999133416
0.3999985021
0.3999971196
0.3999949697
0.3999919335
0.3999879731
0.3999831307
0.3999775137
0.3999712718
0.3999645756
0.3999575977
0.3999505006
0.3999434343
0.3999365585
0.3999301548
0.3999251234
0.3999974265
0.3999950985
0.3999916502
0.399987058
0.3999814288
0.3999749569
0.3999678779
0.3999604308
0.3999528329
0.3999452674
0.3999378803
0.3999307865
0.3999240971
0.3999180253
0.3999133389
0.3999950173
0.3999906321
0.3999845328
0.3999769867
0.3999684197
0.399959293
0.39995002
0.3999409283
0.3999322506
0.3999241347
0.3999166607
0.3999098625
0.3999037602
0.3998984506
0.3998944754
0.3999913967
0.3999840841
0.3999746043
0.3999637229
0.3999522368
0.3999408097
0.3999299182
0.3999198596
0.3999107866
0.3999027471
0.3998957193
0.3998896422
0.3998844463
0.3998801223
0.3998769932
0.3999886787
0.399979406
0.3999680692
0.3999557049
0.3999431851
0.3999311401
0.399919972
0.3999098992
0.3999010055
0.399893283
0.3998866669
0.3998810622
0.3998763706
0.3998725465
0.3998698256
0.3999913968
0.3999840842
0.3999746045
0.3999637232
0.3999522373
0.3999408104
0.399929919
0.3999198605
0.3999107877
0.3999027482
0.3998957206
0.3998896435
0.3998844477
0.3998801237
0.3998769947
0.3999950173
0.3999906322
0.399984533
0.399976987
0.3999684202
0.3999592937
0.399950021
0.3999409295
0.399932252
0.3999241363
0.3999166626
0.3999098645
0.3999037623
0.3998984529
0.3998944779
0.3999974265
0.3999950985
0.3999916502
0.3999870581
0.3999814291
0.3999749574
0.3999678787
0.3999604317
0.3999528341
0.399945269
0.3999378821
0.3999307886
0.3999240994
0.3999180279
0.3999133417
0.399998502
0.3999971195
0.3999949696
0.3999919335
0.3999879732
0.399983131
0.3999775142
0.3999712726
0.3999645767
0.3999575991
0.3999505023
0.3999434364
0.3999365609
0.3999301576
0.3999251265
)
;

boundaryField
{
    top
    {
        type            zeroGradient;
    }
    bottom
    {
        type            zeroGradient;
    }
    side-walls
    {
        type            zeroGradient;
    }
    inlet
    {
        type            zeroGradient;
    }
    outlet
    {
        type            zeroGradient;
    }
    procBoundary1to0
    {
        type            processor;
        value           nonuniform List<scalar> 
97
(
0.399998502
0.399998502
0.3999974265
0.3999950174
0.399991397
0.3999886792
0.3999913971
0.3999950175
0.3999974266
0.3999985021
0.3999988025
0.3999949536
0.3999949536
0.3999949536
0.3999885752
0.3999766817
0.3999642609
0.3999766822
0.3999885757
0.399994954
0.3999974266
0.3999977117
0.3999948863
0.3999688471
0.3999688471
0.3999688471
0.3999209202
0.3998449591
0.3999209229
0.3999688497
0.3999885757
0.3999950175
0.3999961126
0.3999899022
0.3999681676
0.399729469
0.399729469
0.399729469
0.399192709
0.3997294856
0.3999209227
0.3999766821
0.3999913971
0.3999949701
0.3999851967
0.3999440088
0.399780863
0.3947885649
0.3947885649
0.3947885649
0.3991927047
0.3991927047
0.3998449582
0.3999642609
0.3999886791
0.3999961126
0.3999899022
0.3999681672
0.399904946
0.3997808594
0.3999049476
0.3999209172
0.3999209172
0.3999209172
0.3999766812
0.3999913969
0.3999977117
0.3999948863
0.3999866023
0.3999681671
0.3999440081
0.3999681674
0.3999866025
0.3999885747
0.3999885747
0.3999885747
0.3999950173
0.3999988025
0.3999976891
0.3999948862
0.3999899021
0.3999851966
0.3999899022
0.3999948863
0.3999976891
0.3999974264
0.3999974264
0.3999974264
0.3999992961
0.3999988025
0.3999977117
0.3999961126
0.3999949701
0.3999961126
0.3999977117
0.3999988025
0.3999992961
)
;
    }
}


// ************************************************************************* //
