/*--------------------------------*- C++ -*----------------------------------*\
| =========                 |                                                 |
| \\      /  F ield         | OpenFOAM: The Open Source CFD Toolbox           |
|  \\    /   O peration     | Version:  4.x                                   |
|   \\  /    A nd           | Web:      www.OpenFOAM.org                      |
|    \\/     M anipulation  |                                                 |
\*---------------------------------------------------------------------------*/
FoamFile
{
    version     2.0;
    format      ascii;
    class       volScalarField;
    location    "7000";
    object      Cpv;
}
// * * * * * * * * * * * * * * * * * * * * * * * * * * * * * * * * * * * * * //

dimensions      [0 2 -2 -1 0 0 0];

internalField   nonuniform List<scalar> 
1174
(
1210.460085
1210.460263
1210.460519
1210.460849
1210.461246
1210.461707
1210.462194
1210.462747
1210.463314
1210.463906
1210.464495
1210.465034
1210.465558
1210.465957
1210.460898
1210.461168
1210.461574
1210.462048
1210.462579
1210.463134
1210.463731
1210.464357
1210.464965
1210.46555
1210.466124
1210.466656
1210.467154
1210.467529
1210.460418
1210.46089
1210.461503
1210.462194
1210.462941
1210.463691
1210.464437
1210.465145
1210.465808
1210.466411
1210.466977
1210.467443
1210.467862
1210.468178
1210.460613
1210.46138
1210.462257
1210.463178
1210.464092
1210.464962
1210.465784
1210.466511
1210.467146
1210.467709
1210.468208
1210.468637
1210.468991
1210.46923
1210.461004
1210.461882
1210.462905
1210.463933
1210.46492
1210.465812
1210.466674
1210.467391
1210.468002
1210.468531
1210.46896
1210.469382
1210.469672
1210.469925
1210.461069
1210.461852
1210.462735
1210.463658
1210.464594
1210.465478
1210.466295
1210.467023
1210.467673
1210.468223
1210.468705
1210.469154
1210.469496
1210.469734
1210.460811
1210.461306
1210.461913
1210.4626
1210.46336
1210.464102
1210.46485
1210.465542
1210.466221
1210.466814
1210.467347
1210.467824
1210.46822
1210.468563
1210.460204
1210.46048
1210.460853
1210.461297
1210.461834
1210.462416
1210.463018
1210.463633
1210.464231
1210.464829
1210.465386
1210.465933
1210.466439
1210.466823
1210.460092
1210.460253
1210.460513
1210.460822
1210.461199
1210.461658
1210.462153
1210.46271
1210.463268
1210.463815
1210.464397
1210.464967
1210.465481
1210.465896
1210.460206
1210.460408
1210.460683
1210.46107
1210.461524
1210.462058
1210.462645
1210.463243
1210.463853
1210.46446
1210.465084
1210.465646
1210.466198
1210.466688
1210.467057
1210.459371
1210.459882
1210.460468
1210.461157
1210.461872
1210.462571
1210.463264
1210.463921
1210.464516
1210.465092
1210.465576
1210.466072
1210.466484
1210.466791
1210.460759
1210.461709
1210.462779
1210.463836
1210.464816
1210.465691
1210.466461
1210.46711
1210.467658
1210.468105
1210.468493
1210.468806
1210.469085
1210.469258
1210.463588
1210.465188
1210.46669
1210.467998
1210.469082
1210.469943
1210.470619
1210.471122
1210.471472
1210.471763
1210.471947
1210.472087
1210.472159
1210.472205
1210.465801
1210.467731
1210.469343
1210.470613
1210.471565
1210.472285
1210.472797
1210.47315
1210.473378
1210.473512
1210.473587
1210.473604
1210.473627
1210.473591
1210.463376
1210.464918
1210.466427
1210.46772
1210.468809
1210.469663
1210.470331
1210.470839
1210.47122
1210.471496
1210.471693
1210.47183
1210.471919
1210.471993
1210.461269
1210.46221
1210.463248
1210.464311
1210.465292
1210.46616
1210.466924
1210.467553
1210.468126
1210.468594
1210.469018
1210.469308
1210.469581
1210.469767
1210.461269
1210.461742
1210.462351
1210.463037
1210.463756
1210.464451
1210.465127
1210.465805
1210.466427
1210.466979
1210.46752
1210.46797
1210.468366
1210.468684
1210.460336
1210.460606
1210.46096
1210.461426
1210.461945
1210.462511
1210.463123
1210.463749
1210.464376
1210.464991
1210.465589
1210.466127
1210.466646
1210.467055
1210.460389
1210.46076
1210.461252
1210.461867
1210.462568
1210.463291
1210.464058
1210.464797
1210.465487
1210.466178
1210.466773
1210.467319
1210.467829
1210.468259
1210.468567
1210.461646
1210.462403
1210.463349
1210.464392
1210.465428
1210.466371
1210.467237
1210.467998
1210.468657
1210.469205
1210.469667
1210.470036
1210.470362
1210.470628
1210.470842
1210.464518
1210.466545
1210.468368
1210.469878
1210.471049
1210.471843
1210.472392
1210.47273
1210.472919
1210.473011
1210.473032
1210.473021
1210.472971
1210.47294
1210.471034
1210.474434
1210.476787
1210.47816
1210.478811
1210.478953
1210.478793
1210.478443
1210.477984
1210.477477
1210.476976
1210.4765
1210.476087
1210.475761
1210.479062
1210.482432
1210.483869
1210.484104
1210.483707
1210.482956
1210.482039
1210.481077
1210.480169
1210.479352
1210.47858
1210.477858
1210.477254
1210.476798
1210.469788
1210.473162
1210.475485
1210.476886
1210.477545
1210.47769
1210.477545
1210.477177
1210.476723
1210.476232
1210.475737
1210.475236
1210.47482
1210.474488
1210.464057
1210.466081
1210.467917
1210.469415
1210.470547
1210.471345
1210.471899
1210.472245
1210.472418
1210.472512
1210.472518
1210.472512
1210.472464
1210.472392
1210.460812
1210.461786
1210.462818
1210.46386
1210.464788
1210.465651
1210.466416
1210.467043
1210.467592
1210.468056
1210.46845
1210.46878
1210.469062
1210.469259
1210.460143
1210.460632
1210.461231
1210.461939
1210.462666
1210.463422
1210.464164
1210.464879
1210.465524
1210.466124
1210.466641
1210.467121
1210.467555
1210.467863
1210.459945
1210.460542
1210.461304
1210.462182
1210.463113
1210.46404
1210.464943
1210.465758
1210.466506
1210.46714
1210.467703
1210.468191
1210.468622
1210.468971
1210.46925
1210.461107
1210.462586
1210.464148
1210.465652
1210.466935
1210.468025
1210.468897
1210.46956
1210.470053
1210.470436
1210.470704
1210.470895
1210.471062
1210.47112
1210.471184
1210.465818
1210.469953
1210.473359
1210.475722
1210.477104
1210.477734
1210.47787
1210.477713
1210.477358
1210.476866
1210.476369
1210.475871
1210.47541
1210.474967
1210.474631
1210.492018
1210.496269
1210.497006
1210.495765
1210.493672
1210.491321
1210.488994
1210.486873
1210.484986
1210.483307
1210.481895
1210.480655
1210.479598
1210.478841
1210.531173
1210.525844
1210.51759
1210.509679
1210.502942
1210.497456
1210.493018
1210.489449
1210.486543
1210.484145
1210.482183
1210.480559
1210.479247
1210.478274
1210.490892
1210.495179
1210.495892
1210.494651
1210.492538
1210.490178
1210.487885
1210.485764
1210.483856
1210.482195
1210.480755
1210.479508
1210.478455
1210.477694
1210.46988
1210.473287
1210.475661
1210.477053
1210.477724
1210.477879
1210.47771
1210.477373
1210.476909
1210.476394
1210.475896
1210.475449
1210.475018
1210.474698
1210.463705
1210.465301
1210.466815
1210.468135
1210.46924
1210.470065
1210.470731
1210.471221
1210.47159
1210.471859
1210.472029
1210.472202
1210.472293
1210.472333
1210.460588
1210.461346
1210.462224
1210.463131
1210.464053
1210.464933
1210.465739
1210.466465
1210.467131
1210.467708
1210.468214
1210.468632
1210.468969
1210.469225
1210.460819
1210.461592
1210.462511
1210.463485
1210.464518
1210.465504
1210.466409
1210.467243
1210.467982
1210.468621
1210.46916
1210.469623
1210.470002
1210.470315
1210.470541
1210.462596
1210.464615
1210.466521
1210.468171
1210.469437
1210.470389
1210.471092
1210.471602
1210.471957
1210.472194
1210.472324
1210.472399
1210.472424
1210.472421
1210.472415
1210.472835
1210.478864
1210.482248
1210.483672
1210.48394
1210.483546
1210.482771
1210.48185
1210.480895
1210.479968
1210.47909
1210.478298
1210.477597
1210.476987
1210.476519
1210.524101
1210.531443
1210.526049
1210.517785
1210.509866
1210.503156
1210.497669
1210.493235
1210.489638
1210.486724
1210.484363
1210.482371
1210.48074
1210.479396
1210.478419
1210.03088
1209.940489
1209.890197
1209.860551
1209.841998
1209.829696
1209.821063
1209.81473
1209.809881
1209.806031
1209.802864
1209.800234
1209.798053
1209.796348
1210.531699
1210.526338
1210.518084
1210.510191
1210.503464
1210.49796
1210.493531
1210.489967
1210.487068
1210.484684
1210.4827
1210.481068
1210.479698
1210.478728
1210.478612
1210.481989
1210.483472
1210.483736
1210.483325
1210.482551
1210.48166
1210.480701
1210.479758
1210.47891
1210.478121
1210.477387
1210.476802
1210.476324
1210.46449
1210.466429
1210.468027
1210.469274
1210.470243
1210.470965
1210.471464
1210.471832
1210.472051
1210.472168
1210.472268
1210.472297
1210.472287
1210.472248
1210.461378
1210.462322
1210.463328
1210.464322
1210.465306
1210.466205
1210.467023
1210.467763
1210.468375
1210.468903
1210.469371
1210.469751
1210.470047
1210.470255
1210.461571
1210.462158
1210.462926
1210.46381
1210.464735
1210.465674
1210.466548
1210.467351
1210.468077
1210.468692
1210.469263
1210.46976
1210.470198
1210.470551
1210.470808
1210.461481
1210.462938
1210.464539
1210.466051
1210.467379
1210.468449
1210.469315
1210.469965
1210.470476
1210.470839
1210.471121
1210.471298
1210.471431
1210.471512
1210.471598
1210.465963
1210.470117
1210.473518
1210.475861
1210.477233
1210.477859
1210.478022
1210.477838
1210.477461
1210.477001
1210.476505
1210.476034
1210.475582
1210.47514
1210.474822
1210.481518
1210.491137
1210.495421
1210.496134
1210.494904
1210.492829
1210.490472
1210.488183
1210.486071
1210.484162
1210.482473
1210.481071
1210.479815
1210.478799
1210.478062
1210.525748
1210.53305
1210.527668
1210.519421
1210.511525
1210.504802
1210.49929
1210.494866
1210.491272
1210.488338
1210.485959
1210.484005
1210.482316
1210.480969
1210.479991
1210.481092
1210.490727
1210.495029
1210.495739
1210.494513
1210.492441
1210.490106
1210.487789
1210.485678
1210.483798
1210.482122
1210.480671
1210.479465
1210.478433
1210.477682
1210.470356
1210.473747
1210.476095
1210.477466
1210.478134
1210.478254
1210.478068
1210.477712
1210.477252
1210.476784
1210.4763
1210.475818
1210.475374
1210.47506
1210.464081
1210.465658
1210.467136
1210.468454
1210.469512
1210.470385
1210.471055
1210.471555
1210.471898
1210.472171
1210.472378
1210.472512
1210.472627
1210.472654
1210.460967
1210.461746
1210.46265
1210.463566
1210.464482
1210.465335
1210.466156
1210.466878
1210.467504
1210.468087
1210.468567
1210.468977
1210.469355
1210.469617
1210.460192
1210.460551
1210.461046
1210.461648
1210.462328
1210.46305
1210.463813
1210.464559
1210.465263
1210.465928
1210.466525
1210.467078
1210.467552
1210.468006
1210.468318
1210.459944
1210.460712
1210.46167
1210.462725
1210.463758
1210.464757
1210.465591
1210.466383
1210.467058
1210.467597
1210.468064
1210.468464
1210.468781
1210.469032
1210.469206
1210.462623
1210.464557
1210.466566
1210.468382
1210.469903
1210.471046
1210.471847
1210.472393
1210.472764
1210.472955
1210.473045
1210.473057
1210.473007
1210.472963
1210.472924
1210.466252
1210.470406
1210.473815
1210.476182
1210.477567
1210.478203
1210.478354
1210.478199
1210.477855
1210.477391
1210.476858
1210.476354
1210.475872
1210.475446
1210.475128
1210.473023
1210.479041
1210.482428
1210.483885
1210.484134
1210.483714
1210.482968
1210.482046
1210.481106
1210.480203
1210.479321
1210.478531
1210.477827
1210.477201
1210.476735
1210.466084
1210.470236
1210.47364
1210.475999
1210.477392
1210.478048
1210.478185
1210.478029
1210.477676
1210.477213
1210.47672
1210.476235
1210.475759
1210.475301
1210.474946
1210.462023
1210.463931
1210.465919
1210.467746
1210.469238
1210.470354
1210.471167
1210.471706
1210.472043
1210.472246
1210.47233
1210.472342
1210.472297
1210.472233
1210.472154
1210.461558
1210.462513
1210.463562
1210.464597
1210.465579
1210.466441
1210.467173
1210.467814
1210.46837
1210.468824
1210.469215
1210.469533
1210.469768
1210.469998
1210.460077
1210.460583
1210.46118
1210.461879
1210.462603
1210.463356
1210.464094
1210.464807
1210.465468
1210.466071
1210.466621
1210.467099
1210.467533
1210.467867
1210.460188
1210.460384
1210.460648
1210.46103
1210.461496
1210.462004
1210.462568
1210.463179
1210.463774
1210.464383
1210.464998
1210.465574
1210.466128
1210.466611
1210.466982
1210.459873
1210.460212
1210.460717
1210.461294
1210.461961
1210.462643
1210.463357
1210.464046
1210.464687
1210.465306
1210.465868
1210.466423
1210.466856
1210.467285
1210.467588
1210.460361
1210.461125
1210.462056
1210.463062
1210.464084
1210.465027
1210.46592
1210.466684
1210.467368
1210.467915
1210.468385
1210.46878
1210.469131
1210.469413
1210.469584
1210.4621
1210.463569
1210.465142
1210.466648
1210.467954
1210.469072
1210.469921
1210.470563
1210.471071
1210.471433
1210.471704
1210.471904
1210.472012
1210.472102
1210.472151
1210.462817
1210.464832
1210.466729
1210.468329
1210.469624
1210.470592
1210.471303
1210.471814
1210.472154
1210.47238
1210.472524
1210.472603
1210.472652
1210.472653
1210.472632
1210.461832
1210.463294
1210.464861
1210.466386
1210.467705
1210.468779
1210.469662
1210.470317
1210.470798
1210.471153
1210.471435
1210.471621
1210.47174
1210.471826
1210.471871
1210.459487
1210.460261
1210.461214
1210.462248
1210.463241
1210.464204
1210.465054
1210.465825
1210.466495
1210.467036
1210.467497
1210.467876
1210.468213
1210.468486
1210.468718
1210.458904
1210.459275
1210.459764
1210.460362
1210.461038
1210.461739
1210.46244
1210.463127
1210.463775
1210.464373
1210.464934
1210.465462
1210.465921
1210.466332
1210.466634
1210.459945
1210.460231
1210.460615
1210.461065
1210.461578
1210.462169
1210.462742
1210.463351
1210.463924
1210.46453
1210.465113
1210.465657
1210.466146
1210.466524
1210.459295
1210.459424
1210.459593
1210.459841
1210.460159
1210.460541
1210.461005
1210.46149
1210.46202
1210.46259
1210.463158
1210.463732
1210.464296
1210.464802
1210.465231
1210.460309
1210.460471
1210.460753
1210.461116
1210.461589
1210.462138
1210.462715
1210.463307
1210.463909
1210.46453
1210.465116
1210.465662
1210.466211
1210.466696
1210.467085
1210.460124
1210.460473
1210.460956
1210.461579
1210.46226
1210.462998
1210.463746
1210.46447
1210.465181
1210.465825
1210.46642
1210.466966
1210.467461
1210.46789
1210.468201
1210.460363
1210.46096
1210.461719
1210.462617
1210.463562
1210.464463
1210.465345
1210.466137
1210.466854
1210.467496
1210.468078
1210.468575
1210.468978
1210.469306
1210.469553
1210.460362
1210.461102
1210.462015
1210.463037
1210.464056
1210.465036
1210.465957
1210.466783
1210.467506
1210.46811
1210.468665
1210.46914
1210.469513
1210.46983
1210.470055
1210.460008
1210.460604
1210.461374
1210.462261
1210.463176
1210.464111
1210.464982
1210.465773
1210.466508
1210.46716
1210.467732
1210.468231
1210.468651
1210.46901
1210.469248
1210.460156
1210.460519
1210.461028
1210.461631
1210.462315
1210.463055
1210.4638
1210.464532
1210.465227
1210.465876
1210.466477
1210.467029
1210.467556
1210.467992
1210.468299
1210.46044
1210.460631
1210.460916
1210.461278
1210.461702
1210.462238
1210.462818
1210.463403
1210.464028
1210.464645
1210.465243
1210.465823
1210.466358
1210.46683
1210.467189
1210.45965
1210.459761
1210.459933
1210.460188
1210.460515
1210.460914
1210.461366
1210.46188
1210.462421
1210.462992
1210.463561
1210.464142
1210.464688
1210.465215
1210.465622
)
;

boundaryField
{
    top
    {
        type            calculated;
        value           nonuniform List<scalar> 
127
(
1210.45965
1210.460092
1210.460336
1210.460143
1210.460588
1210.461378
1210.460967
1210.460077
1210.459945
1210.459761
1210.460253
1210.460606
1210.460632
1210.461346
1210.462322
1210.461746
1210.460583
1210.460231
1210.459933
1210.460513
1210.46096
1210.461231
1210.462224
1210.463328
1210.46265
1210.46118
1210.460615
1210.460188
1210.460822
1210.461426
1210.461939
1210.463131
1210.464322
1210.463566
1210.461879
1210.461065
1210.460515
1210.461199
1210.461945
1210.462666
1210.464053
1210.465306
1210.464482
1210.462603
1210.461578
1210.460914
1210.461658
1210.462511
1210.463422
1210.464933
1210.466205
1210.465335
1210.463356
1210.462169
1210.461366
1210.462153
1210.463123
1210.464164
1210.465739
1210.467023
1210.466156
1210.464094
1210.462742
1210.46188
1210.46271
1210.463749
1210.464879
1210.466465
1210.467763
1210.466878
1210.464807
1210.463351
1210.462421
1210.463268
1210.464376
1210.465524
1210.467131
1210.468375
1210.467504
1210.465468
1210.463924
1210.462992
1210.463815
1210.464991
1210.466124
1210.467708
1210.468903
1210.468087
1210.466071
1210.46453
1210.463561
1210.464397
1210.465589
1210.466641
1210.468214
1210.469371
1210.468567
1210.466621
1210.465113
1210.464142
1210.464967
1210.466127
1210.467121
1210.468632
1210.469751
1210.468977
1210.467099
1210.465657
1210.464688
1210.465481
1210.466646
1210.467555
1210.468969
1210.470047
1210.469355
1210.467533
1210.466146
1210.465215
1210.465896
1210.467055
1210.467863
1210.469225
1210.470255
1210.469617
1210.467867
1210.466524
1210.465622
)
;
    }
    bottom
    {
        type            calculated;
        value           nonuniform List<scalar> 
134
(
1210.460206
1210.460389
1210.459945
1210.460819
1210.461571
1210.460192
1210.460188
1210.459295
1210.460085
1210.460408
1210.46076
1210.460542
1210.461592
1210.462158
1210.460551
1210.460384
1210.459424
1210.460263
1210.460683
1210.461252
1210.461304
1210.462511
1210.462926
1210.461046
1210.460648
1210.459593
1210.460519
1210.46107
1210.461867
1210.462182
1210.463485
1210.46381
1210.461648
1210.46103
1210.459841
1210.460849
1210.461524
1210.462568
1210.463113
1210.464518
1210.464735
1210.462328
1210.461496
1210.460159
1210.461246
1210.462058
1210.463291
1210.46404
1210.465504
1210.465674
1210.46305
1210.462004
1210.460541
1210.461707
1210.462645
1210.464058
1210.464943
1210.466409
1210.466548
1210.463813
1210.462568
1210.461005
1210.462194
1210.463243
1210.464797
1210.465758
1210.467243
1210.467351
1210.464559
1210.463179
1210.46149
1210.462747
1210.463853
1210.465487
1210.466506
1210.467982
1210.468077
1210.465263
1210.463774
1210.46202
1210.463314
1210.46446
1210.466178
1210.46714
1210.468621
1210.468692
1210.465928
1210.464383
1210.46259
1210.463906
1210.465084
1210.466773
1210.467703
1210.46916
1210.469263
1210.466525
1210.464998
1210.463158
1210.464495
1210.465646
1210.467319
1210.468191
1210.469623
1210.46976
1210.467078
1210.465574
1210.463732
1210.465034
1210.466198
1210.467829
1210.468622
1210.470002
1210.470198
1210.467552
1210.466128
1210.464296
1210.465558
1210.466688
1210.468259
1210.468971
1210.470315
1210.470551
1210.468006
1210.466611
1210.464802
1210.465957
1210.467057
1210.468567
1210.46925
1210.470541
1210.470808
1210.468318
1210.466982
1210.465231
)
;
    }
    side-walls
    {
        type            calculated;
        value           nonuniform List<scalar> 
261
(
1210.460085
1210.460898
1210.460418
1210.460613
1210.461004
1210.461069
1210.460811
1210.460204
1210.460092
1210.460263
1210.461168
1210.46089
1210.46138
1210.461882
1210.461852
1210.461306
1210.46048
1210.460253
1210.460519
1210.461574
1210.461503
1210.462257
1210.462905
1210.462735
1210.461913
1210.460853
1210.460513
1210.460849
1210.462048
1210.462194
1210.463178
1210.463933
1210.463658
1210.4626
1210.461297
1210.460822
1210.461246
1210.462579
1210.462941
1210.464092
1210.46492
1210.464594
1210.46336
1210.461834
1210.461199
1210.461707
1210.463134
1210.463691
1210.464962
1210.465812
1210.465478
1210.464102
1210.462416
1210.461658
1210.462194
1210.463731
1210.464437
1210.465784
1210.466674
1210.466295
1210.46485
1210.463018
1210.462153
1210.462747
1210.464357
1210.465145
1210.466511
1210.467391
1210.467023
1210.465542
1210.463633
1210.46271
1210.463314
1210.464965
1210.465808
1210.467146
1210.468002
1210.467673
1210.466221
1210.464231
1210.463268
1210.463906
1210.46555
1210.466411
1210.467709
1210.468531
1210.468223
1210.466814
1210.464829
1210.463815
1210.464495
1210.466124
1210.466977
1210.468208
1210.46896
1210.468705
1210.467347
1210.465386
1210.464397
1210.465034
1210.466656
1210.467443
1210.468637
1210.469382
1210.469154
1210.467824
1210.465933
1210.464967
1210.465558
1210.467154
1210.467862
1210.468991
1210.469672
1210.469496
1210.46822
1210.466439
1210.465481
1210.465957
1210.467529
1210.468178
1210.46923
1210.469925
1210.469734
1210.468563
1210.466823
1210.465896
1210.459295
1210.460309
1210.460124
1210.460363
1210.460362
1210.460008
1210.460156
1210.46044
1210.45965
1210.459424
1210.460471
1210.460473
1210.46096
1210.461102
1210.460604
1210.460519
1210.460631
1210.459761
1210.459593
1210.460753
1210.460956
1210.461719
1210.462015
1210.461374
1210.461028
1210.460916
1210.459933
1210.459841
1210.461116
1210.461579
1210.462617
1210.463037
1210.462261
1210.461631
1210.461278
1210.460188
1210.460159
1210.461589
1210.46226
1210.463562
1210.464056
1210.463176
1210.462315
1210.461702
1210.460515
1210.460541
1210.462138
1210.462998
1210.464463
1210.465036
1210.464111
1210.463055
1210.462238
1210.460914
1210.461005
1210.462715
1210.463746
1210.465345
1210.465957
1210.464982
1210.4638
1210.462818
1210.461366
1210.46149
1210.463307
1210.46447
1210.466137
1210.466783
1210.465773
1210.464532
1210.463403
1210.46188
1210.46202
1210.463909
1210.465181
1210.466854
1210.467506
1210.466508
1210.465227
1210.464028
1210.462421
1210.46259
1210.46453
1210.465825
1210.467496
1210.46811
1210.46716
1210.465876
1210.464645
1210.462992
1210.463158
1210.465116
1210.46642
1210.468078
1210.468665
1210.467732
1210.466477
1210.465243
1210.463561
1210.463732
1210.465662
1210.466966
1210.468575
1210.46914
1210.468231
1210.467029
1210.465823
1210.464142
1210.464296
1210.466211
1210.467461
1210.468978
1210.469513
1210.468651
1210.467556
1210.466358
1210.464688
1210.464802
1210.466696
1210.46789
1210.469306
1210.46983
1210.46901
1210.467992
1210.46683
1210.465215
1210.465231
1210.467085
1210.468201
1210.469553
1210.470055
1210.469248
1210.468299
1210.467189
1210.465622
)
;
    }
    inlet
    {
        type            calculated;
        value           nonuniform 0();
    }
    outlet
    {
        type            calculated;
        value           nonuniform List<scalar> 
81
(
1210.465957
1210.467529
1210.468178
1210.46923
1210.469925
1210.469734
1210.468563
1210.466823
1210.465896
1210.467057
1210.466791
1210.469258
1210.472205
1210.473591
1210.471993
1210.469767
1210.468684
1210.467055
1210.468567
1210.470842
1210.47294
1210.475761
1210.476798
1210.474488
1210.472392
1210.469259
1210.467863
1210.46925
1210.471184
1210.474631
1210.478841
1210.478274
1210.477694
1210.474698
1210.472333
1210.469225
1210.470541
1210.472415
1210.476519
1210.478419
1209.796348
1210.478728
1210.476324
1210.472248
1210.470255
1210.470808
1210.471598
1210.474822
1210.478062
1210.479991
1210.477682
1210.47506
1210.472654
1210.469617
1210.468318
1210.469206
1210.472924
1210.475128
1210.476735
1210.474946
1210.472154
1210.469998
1210.467867
1210.466982
1210.467588
1210.469584
1210.472151
1210.472632
1210.471871
1210.468718
1210.466634
1210.466524
1210.465231
1210.467085
1210.468201
1210.469553
1210.470055
1210.469248
1210.468299
1210.467189
1210.465622
)
;
    }
    procBoundary1to0
    {
        type            processor;
        value           nonuniform List<scalar> 
97
(
1210.459973
1210.459973
1210.460724
1210.46006
1210.460032
1210.460256
1210.460466
1210.46046
1210.46003
1210.460012
1210.460086
1210.459012
1210.459012
1210.459012
1210.459983
1210.462126
1210.463813
1210.461934
1210.460488
1210.46093
1210.46017
1210.460188
1210.461146
1210.462573
1210.462573
1210.462573
1210.466851
1210.473063
1210.465632
1210.462134
1210.460026
1210.459759
1210.459566
1210.460035
1210.461993
1210.482412
1210.482412
1210.482412
1210.52384
1210.481266
1210.465757
1210.462269
1210.459999
1210.460275
1210.460893
1210.464823
1210.476866
1210.202
1210.202
1210.202
1210.524374
1210.524374
1210.472595
1210.462513
1210.460633
1210.461227
1210.46041
1210.462143
1210.46733
1210.478523
1210.466892
1210.466216
1210.466216
1210.466216
1210.46263
1210.460402
1210.459958
1210.459396
1210.461199
1210.462435
1210.464996
1210.462258
1210.460591
1210.460799
1210.460799
1210.460799
1210.459722
1210.460108
1210.459641
1210.459858
1210.461036
1210.461099
1210.460768
1210.458961
1210.458694
1210.459772
1210.459772
1210.459772
1210.459248
1210.460201
1210.459904
1210.460012
1210.459836
1210.459632
1210.459965
1210.460328
1210.459574
)
;
    }
}


// ************************************************************************* //
