/*--------------------------------*- C++ -*----------------------------------*\
| =========                 |                                                 |
| \\      /  F ield         | OpenFOAM: The Open Source CFD Toolbox           |
|  \\    /   O peration     | Version:  4.x                                   |
|   \\  /    A nd           | Web:      www.OpenFOAM.org                      |
|    \\/     M anipulation  |                                                 |
\*---------------------------------------------------------------------------*/
FoamFile
{
    version     2.0;
    format      ascii;
    class       volScalarField;
    location    "7000";
    object      molarConc;
}
// * * * * * * * * * * * * * * * * * * * * * * * * * * * * * * * * * * * * * //

dimensions      [0 -3 0 0 1 0 0];

internalField   nonuniform List<scalar> 
1174
(
9.963273021
9.963272779
9.963272217
9.963271667
9.963271378
9.963271014
9.963271957
9.963271332
9.963271218
9.963270245
9.963269238
9.963270199
9.963269889
9.963270341
9.963237312
9.963237796
9.9632359
9.963234882
9.963234481
9.96323544
9.963235714
9.963235068
9.963235294
9.963236006
9.963235986
9.96323649
9.963236076
9.963236327
9.963283517
9.96328472
9.963284537
9.963284637
9.963284144
9.963284123
9.963283535
9.963283224
9.963282853
9.963282935
9.963282053
9.963283557
9.963284166
9.963284489
9.963301885
9.963301869
9.963302021
9.963302485
9.963303018
9.963303636
9.963303157
9.963303508
9.963304397
9.963304653
9.963304278
9.963303799
9.963303565
9.963304335
9.963301217
9.963303302
9.963302048
9.963301215
9.963300487
9.96330111
9.963298487
9.963298625
9.963299413
9.963299713
9.963301088
9.963298743
9.96329979
9.963298014
9.963276853
9.963275955
9.963275803
9.963276123
9.963275449
9.963275273
9.963275059
9.96327538
9.963275406
9.963276449
9.963276956
9.963275366
9.96327584
9.963276661
9.963261946
9.963261865
9.963261996
9.96326235
9.963261133
9.963261566
9.963260872
9.96326141
9.963260195
9.963260778
9.963261751
9.963262644
9.963264471
9.963263326
9.963275441
9.963275572
9.963275527
9.963276143
9.963275386
9.963274836
9.963274886
9.963274854
9.963275606
9.963275593
9.963276503
9.963276148
9.963275332
9.963275108
9.963272599
9.963273348
9.963272519
9.963273124
9.96327397
9.963273668
9.963274213
9.963273377
9.963273706
9.963275203
9.963274658
9.963273895
9.963274088
9.963273638
9.963265017
9.963264241
9.96326444
9.963263582
9.963263678
9.963263078
9.963262292
9.963262503
9.963262748
9.963263011
9.963261577
9.963262209
9.963261645
9.963261708
9.963262252
9.96334144
9.963340285
9.963340932
9.963339813
9.963339219
9.963339782
9.963339747
9.96333985
9.963341078
9.963340833
9.96334304
9.963341929
9.963342267
9.963342736
9.9633162
9.963316343
9.963314427
9.963312938
9.963312118
9.963311675
9.96331103
9.963311049
9.963311191
9.963312111
9.963312208
9.963312972
9.963312363
9.963313435
9.963251471
9.963250609
9.963250853
9.963251276
9.963251345
9.96325129
9.96325054
9.963250262
9.963251252
9.963249918
9.963250211
9.963249714
9.963250603
9.963251005
9.963215465
9.963214214
9.96321441
9.963214951
9.963216055
9.963215704
9.963215414
9.963215106
9.963215065
9.963215356
9.963215298
9.963216005
9.963214678
9.963215903
9.963263114
9.963265453
9.963265285
9.963266539
9.96326633
9.963266668
9.963266327
9.963265804
9.963265088
9.963264535
9.963264154
9.963263845
9.96326381
9.963262613
9.963288154
9.963288816
9.963288676
9.963286861
9.963285967
9.963285928
9.963285558
9.963286705
9.963285508
9.963285288
9.96328336
9.963285356
9.963285087
9.963285472
9.963237192
9.963238121
9.963237501
9.963236536
9.963235749
9.963236523
9.963237411
9.963236376
9.963236137
9.963237171
9.963236247
9.963237667
9.963238856
9.963238739
9.963268168
9.963268663
9.963269605
9.963269033
9.963269297
9.963269649
9.963269113
9.963268469
9.963267627
9.963266697
9.963265355
9.963265489
9.963263974
9.96326236
9.963265643
9.963264758
9.963264797
9.963264565
9.963264072
9.96326493
9.963263969
9.963263765
9.963264425
9.963262545
9.963263064
9.963263287
9.963262399
9.963262335
9.963263074
9.963225226
9.963225892
9.963226269
9.963225814
9.963225509
9.963226703
9.96322677
9.963226576
9.963226072
9.963226238
9.963226344
9.963227469
9.963227491
9.963227646
9.963226445
9.963260396
9.963259508
9.963259357
9.963258337
9.963256401
9.963257368
9.963257188
9.963257369
9.963257551
9.963257333
9.963257119
9.9632562
9.963256074
9.963254914
9.963237789
9.963237664
9.963237057
9.96323751
9.96323742
9.963237513
9.963236602
9.963235889
9.963235953
9.963236526
9.963236806
9.963236938
9.963236028
9.963235909
9.963236303
9.963236853
9.963237593
9.9632386
9.963237392
9.963236903
9.963237514
9.963238735
9.963238401
9.963236236
9.963235505
9.963236416
9.963235875
9.963235635
9.963306253
9.963307501
9.963308532
9.963307495
9.963306887
9.963306825
9.963305145
9.963305439
9.963305142
9.96330493
9.963304824
9.963306301
9.963305599
9.963305811
9.963285716
9.963284982
9.963284112
9.96328376
9.963283917
9.963284689
9.963284232
9.963284014
9.963285066
9.963284682
9.963285286
9.963284089
9.963283925
9.963284993
9.963313296
9.96331211
9.963312282
9.963311595
9.963313674
9.963313871
9.963313449
9.96331469
9.963314791
9.963314798
9.963314563
9.963314378
9.963313609
9.963313381
9.963298652
9.963298863
9.963299496
9.963298657
9.963299239
9.963298911
9.963298564
9.963297837
9.963298465
9.963298694
9.963300479
9.963301233
9.96330099
9.963301756
9.963306103
9.963305808
9.963306046
9.963306164
9.963306021
9.9633059
9.963304664
9.963304601
9.963303817
9.963304719
9.963305017
9.963305191
9.963304619
9.963304664
9.963303234
9.963307615
9.963306487
9.963307707
9.963307831
9.963309612
9.963309389
9.963308736
9.963308662
9.963308986
9.963308127
9.963308036
9.963307971
9.963306028
9.963307678
9.963307066
9.963296534
9.963297186
9.96329667
9.963295528
9.963295511
9.963296541
9.963296966
9.963295893
9.963295466
9.963297316
9.963297399
9.963297468
9.963296788
9.963297588
9.963297992
9.963235374
9.963237052
9.963235524
9.963236309
9.963236374
9.963236351
9.963237627
9.963237685
9.963237614
9.963238931
9.963237663
9.963237867
9.963238907
9.963238819
9.96334299
9.963341471
9.963342052
9.963342252
9.963343196
9.963343355
9.963344152
9.963343916
9.963343941
9.963344728
9.963344208
9.963343436
9.963341807
9.963342323
9.963297165
9.963296874
9.963296641
9.963297458
9.963298609
9.963299127
9.963298495
9.963298555
9.963299635
9.96329998
9.963300248
9.963300847
9.963301694
9.963301835
9.963301159
9.963300643
9.963298848
9.963298279
9.96329704
9.963296424
9.963296018
9.963294645
9.963294928
9.963295968
9.963296052
9.963294614
9.963294719
9.963294292
9.963244997
9.963244415
9.963243988
9.963243701
9.9632426
9.963244565
9.963244322
9.963244816
9.963244706
9.963244595
9.963245673
9.9632434
9.963243222
9.963243898
9.963303258
9.963303725
9.963303831
9.963305025
9.963305173
9.963305221
9.963305622
9.963306056
9.963305168
9.963304712
9.963303927
9.963304027
9.963304719
9.963304578
9.963270166
9.963268924
9.963268761
9.9632702
9.963269095
9.963268418
9.963268307
9.963267271
9.96326619
9.963265402
9.963265176
9.963264633
9.963264682
9.963264487
9.963264193
9.963281039
9.963280622
9.963280654
9.963278755
9.963279556
9.963280638
9.963281179
9.963281014
9.963280615
9.963280073
9.963280555
9.963280583
9.963280788
9.963280915
9.963280478
9.963248452
9.963247158
9.963246956
9.963248359
9.96324755
9.963246228
9.963247056
9.963247937
9.963248739
9.963249445
9.963250647
9.963251039
9.963250717
9.963250527
9.963250961
9.963329352
9.963328104
9.963330151
9.96333134
9.963331995
9.963331396
9.963331609
9.963332202
9.963333559
9.963334003
9.963332769
9.96333389
9.963333488
9.963333664
9.963334319
10.00056968
10.00060178
10.00063131
10.00065927
10.00068689
10.00071399
10.00074194
10.00076882
10.00079548
10.00082233
10.00085051
10.00087792
10.00090425
10.00093174
9.963314128
9.963314243
9.963314843
9.963314102
9.963314421
9.963315624
9.963315926
9.963315422
9.963315085
9.963315106
9.963315793
9.963315483
9.963317036
9.963317373
9.963261
9.963261177
9.963259361
9.96325873
9.963258349
9.963259087
9.963258327
9.963259337
9.963260966
9.963260482
9.963260712
9.963262227
9.963260605
9.96326164
9.963287488
9.963285714
9.963286671
9.963288481
9.963288642
9.963288149
9.963288544
9.963287454
9.963287914
9.963289095
9.9632877
9.963287739
9.963288234
9.963289613
9.963280631
9.963279132
9.963278815
9.963279819
9.963279288
9.96327948
9.963279345
9.963278159
9.963278863
9.963279245
9.963278481
9.96327843
9.963279189
9.963279843
9.963216783
9.963217033
9.963216957
9.963216747
9.963216921
9.963216145
9.963216507
9.963217078
9.963217529
9.963219447
9.963219293
9.963219012
9.963218025
9.963217897
9.963217685
9.963287094
9.963287142
9.96328624
9.963285929
9.963285241
9.963286084
9.96328575
9.963286412
9.963285755
9.963285981
9.963285165
9.96328581
9.963285714
9.96328615
9.963284284
9.963288551
9.963288164
9.963287941
9.963287905
9.9632884
9.963289642
9.963288584
9.963289021
9.963289825
9.963289884
9.963289876
9.963288479
9.963287285
9.963288053
9.96328749
9.963284386
9.963283707
9.963283525
9.963283344
9.963283496
9.9632826
9.963282946
9.963282114
9.963281727
9.963282801
9.963284707
9.963282864
9.963283984
9.963282784
9.963281592
9.963238895
9.963239879
9.963241166
9.963241398
9.963240816
9.963240946
9.963242563
9.963242612
9.963243759
9.963245322
9.963245053
9.963244123
9.963246921
9.963247198
9.963247957
9.963307814
9.963306201
9.963305046
9.963305015
9.963304964
9.96330391
9.963303041
9.963303746
9.963303257
9.963302804
9.963303977
9.963304813
9.963303168
9.963302854
9.963302457
9.963275071
9.963275367
9.963275044
9.963275591
9.96327449
9.9632758
9.963276361
9.963275973
9.963276086
9.963274515
9.963273833
9.963274295
9.963275165
9.963274343
9.963224367
9.963224804
9.963226325
9.963226186
9.963227692
9.96322695
9.963226529
9.963226435
9.963227799
9.963227415
9.963226483
9.963226325
9.963224835
9.963226275
9.96328246
9.96328179
9.963280456
9.963281136
9.963281568
9.963283087
9.963282675
9.963283344
9.963284694
9.963283844
9.963284514
9.963285059
9.963283521
9.963283009
9.963276442
9.963276237
9.963276137
9.963276567
9.963277284
9.963278164
9.963277461
9.963276867
9.963276749
9.963276276
9.963276692
9.963276489
9.963277588
9.963276233
9.963276784
9.96331868
9.963318759
9.96331846
9.963317362
9.963317226
9.963315358
9.963317168
9.963315289
9.963313877
9.963314532
9.963314351
9.963313805
9.963314324
9.96331523
9.96331631
9.963259182
9.963258229
9.963258323
9.963258573
9.963256965
9.963256541
9.963257079
9.963257111
9.963255474
9.963255587
9.963255415
9.963255715
9.963256943
9.963256463
9.963255769
9.963272667
9.963272277
9.963271636
9.963270246
9.963270079
9.963270716
9.963270367
9.963269185
9.963268157
9.963268475
9.963270492
9.963270924
9.963271375
9.963271227
9.963270644
9.96323818
9.963237404
9.96323704
9.963236631
9.963236866
9.963236975
9.963236209
9.963237082
9.96323707
9.96323649
9.963237878
9.96323818
9.963238042
9.963238697
9.963239102
9.963281929
9.963281617
9.963281196
9.963280288
9.963279621
9.963279222
9.963279618
9.963278473
9.963277944
9.963278225
9.963278057
9.963277409
9.963277539
9.963279178
9.963280649
9.96329214
9.963292635
9.963293869
9.963293468
9.963293473
9.96329449
9.963294407
9.963294813
9.963295068
9.963294499
9.963294644
9.963294947
9.963295867
9.96329655
9.963298004
9.9632723
9.963272161
9.963271408
9.96327115
9.963270198
9.963270498
9.963271855
9.963272323
9.963272037
9.963272616
9.963272508
9.963272975
9.963274802
9.963272734
9.963302232
9.963301543
9.963302285
9.963301959
9.963302691
9.963302527
9.963302358
9.963301738
9.963301504
9.963301577
9.963301588
9.963302425
9.96330216
9.963301501
9.963265983
9.963265529
9.963266396
9.963265776
9.96326517
9.963266036
9.963266483
9.963266016
9.963267101
9.963267247
9.963266279
9.963266137
9.963265464
9.963265908
9.963266357
9.963294279
9.963295276
9.963294449
9.963295531
9.963295661
9.963296869
9.963296641
9.963296778
9.963297773
9.963297676
9.963298209
9.963296535
9.963298848
9.963298253
9.963298943
9.963295813
9.96329609
9.963297243
9.963298852
9.9632993
9.963300504
9.963299093
9.963298746
9.963296856
9.963297055
9.963296716
9.963296437
9.963295072
9.963294297
9.963295491
9.96325308
9.963252461
9.963253096
9.963253129
9.963253653
9.963251814
9.96325246
9.963253566
9.963253055
9.963253352
9.963253073
9.963252505
9.963253825
9.963253694
9.96325391
9.963268888
9.963268689
9.963269211
9.963270062
9.963269255
9.963269451
9.963269551
9.963269335
9.96326971
9.963269847
9.963269546
9.963269328
9.963268205
9.963268134
9.963268533
9.963267795
9.963267598
9.963268544
9.9632675
9.963267307
9.963267912
9.963266656
9.963267069
9.963268007
9.963268713
9.963267845
9.963268028
9.963268747
9.963268862
9.963269259
9.963343789
9.96334352
9.963343517
9.963343544
9.963345599
9.963345683
9.963346635
9.963345906
9.963344778
9.9633453
9.963345487
9.963346087
9.963345485
9.963345223
9.963343069
9.963347511
9.963346693
9.96334678
9.963346746
9.963346338
9.963346498
9.963346978
9.963347228
9.963347823
9.963348884
9.963349494
9.963349254
9.963350148
9.963350564
9.963351321
9.963289659
9.963289273
9.963288587
9.96328889
9.963289411
9.963288406
9.963290023
9.963290289
9.96329244
9.963291981
9.96329147
9.963291324
9.9632914
9.963291496
9.963310243
9.963309311
9.963309566
9.963309456
9.963309546
9.963310108
9.963309529
9.963310641
9.963311254
9.963310967
9.963311267
9.96331117
9.963310699
9.963311365
9.963310161
9.963259342
9.96326075
9.96326059
9.963261059
9.963260101
9.963258702
9.963258405
9.963259015
9.963259676
9.963259155
9.963259826
9.963261351
9.96326088
9.963261205
9.963260668
9.963280172
9.963280477
9.963281044
9.963280354
9.963281023
9.963280991
9.96328109
9.963281742
9.963281226
9.963281883
9.963282425
9.963282622
9.963282556
9.963282596
9.963283146
9.963283127
9.963282809
9.963283248
9.963282248
9.963281357
9.963282623
9.963282569
9.963283734
9.963284674
9.963285122
9.963284373
9.963284072
9.963285021
9.963286218
9.963286532
9.963295293
9.96329581
9.963296025
9.963294814
9.963294456
9.963294104
9.963293143
9.963292514
9.963292283
9.963293399
9.963292341
9.963291128
9.96329151
9.96329108
9.963290815
9.96330263
9.963302393
9.963302178
9.963301808
9.963302577
9.963301972
9.963302512
9.963303712
9.96330367
9.963303546
9.963303355
9.963302969
9.963302967
9.963302468
9.963303318
9.96327844
9.96327797
9.963277102
9.963277489
9.963277999
9.963277855
9.963278144
9.963278296
9.963278693
9.963279093
9.963279277
9.963279141
9.963277332
9.963276977
9.963277764
9.96325211
9.963251979
9.963251658
9.963252157
9.963253874
9.963253191
9.963252739
9.963253716
9.96325312
9.963252819
9.963252799
9.963252442
9.963252818
9.96325387
9.963254926
9.963290733
9.963290816
9.963290873
9.963290403
9.963289987
9.963289571
9.963289708
9.963289185
9.963289224
9.963288896
9.963289127
9.963288606
9.963289155
9.963288657
9.963288679
)
;

boundaryField
{
    top
    {
        type            calculated;
        value           nonuniform List<scalar> 
127
(
9.963290733
9.963272599
9.963268168
9.963298652
9.963303258
9.963280631
9.96328246
9.963302232
9.963289659
9.963290816
9.963273348
9.963268663
9.963298863
9.963303725
9.963279132
9.96328179
9.963301543
9.963289273
9.963290873
9.963272519
9.963269605
9.963299496
9.963303831
9.963278815
9.963280456
9.963302285
9.963288587
9.963290403
9.963273124
9.963269033
9.963298657
9.963305025
9.963279819
9.963281136
9.963301959
9.96328889
9.963289987
9.96327397
9.963269297
9.963299239
9.963305173
9.963279288
9.963281568
9.963302691
9.963289411
9.963289571
9.963273668
9.963269649
9.963298911
9.963305221
9.96327948
9.963283087
9.963302527
9.963288406
9.963289708
9.963274213
9.963269113
9.963298564
9.963305622
9.963279345
9.963282675
9.963302358
9.963290023
9.963289185
9.963273377
9.963268469
9.963297837
9.963306056
9.963278159
9.963283344
9.963301738
9.963290289
9.963289224
9.963273706
9.963267627
9.963298465
9.963305168
9.963278863
9.963284694
9.963301504
9.96329244
9.963288896
9.963275203
9.963266697
9.963298694
9.963304712
9.963279245
9.963283844
9.963301577
9.963291981
9.963289127
9.963274658
9.963265355
9.963300479
9.963303927
9.963278481
9.963284514
9.963301588
9.96329147
9.963288606
9.963273895
9.963265489
9.963301233
9.963304027
9.96327843
9.963285059
9.963302425
9.963291324
9.963289155
9.963274088
9.963263974
9.96330099
9.963304719
9.963279189
9.963283521
9.96330216
9.9632914
9.963288657
9.963273638
9.96326236
9.963301756
9.963304578
9.963279843
9.963283009
9.963301501
9.963291496
9.963288679
)
;
    }
    bottom
    {
        type            calculated;
        value           nonuniform List<scalar> 
134
(
9.963265017
9.963265643
9.963306103
9.963270166
9.963216783
9.963276442
9.963265983
9.963310243
9.963273021
9.963264241
9.963264758
9.963305808
9.963268924
9.963217033
9.963276237
9.963265529
9.963309311
9.963272779
9.96326444
9.963264797
9.963306046
9.963268761
9.963216957
9.963276137
9.963266396
9.963309566
9.963272217
9.963263582
9.963264565
9.963306164
9.9632702
9.963216747
9.963276567
9.963265776
9.963309456
9.963271667
9.963263678
9.963264072
9.963306021
9.963269095
9.963216921
9.963277284
9.96326517
9.963309546
9.963271378
9.963263078
9.96326493
9.9633059
9.963268418
9.963216145
9.963278164
9.963266036
9.963310108
9.963271014
9.963262292
9.963263969
9.963304664
9.963268307
9.963216507
9.963277461
9.963266483
9.963309529
9.963271957
9.963262503
9.963263765
9.963304601
9.963267271
9.963217078
9.963276867
9.963266016
9.963310641
9.963271332
9.963262748
9.963264425
9.963303817
9.96326619
9.963217529
9.963276749
9.963267101
9.963311254
9.963271218
9.963263011
9.963262545
9.963304719
9.963265402
9.963219447
9.963276276
9.963267247
9.963310967
9.963270245
9.963261577
9.963263064
9.963305017
9.963265176
9.963219293
9.963276692
9.963266279
9.963311267
9.963269238
9.963262209
9.963263287
9.963305191
9.963264633
9.963219012
9.963276489
9.963266137
9.96331117
9.963270199
9.963261645
9.963262399
9.963304619
9.963264682
9.963218025
9.963277588
9.963265464
9.963310699
9.963269889
9.963261708
9.963262335
9.963304664
9.963264487
9.963217897
9.963276233
9.963265908
9.963311365
9.963270341
9.963262252
9.963263074
9.963303234
9.963264193
9.963217685
9.963276784
9.963266357
9.963310161
)
;
    }
    side-walls
    {
        type            calculated;
        value           nonuniform List<scalar> 
261
(
9.963273021
9.963237312
9.963283517
9.963301885
9.963301217
9.963276853
9.963261946
9.963275441
9.963272599
9.963272779
9.963237796
9.96328472
9.963301869
9.963303302
9.963275955
9.963261865
9.963275572
9.963273348
9.963272217
9.9632359
9.963284537
9.963302021
9.963302048
9.963275803
9.963261996
9.963275527
9.963272519
9.963271667
9.963234882
9.963284637
9.963302485
9.963301215
9.963276123
9.96326235
9.963276143
9.963273124
9.963271378
9.963234481
9.963284144
9.963303018
9.963300487
9.963275449
9.963261133
9.963275386
9.96327397
9.963271014
9.96323544
9.963284123
9.963303636
9.96330111
9.963275273
9.963261566
9.963274836
9.963273668
9.963271957
9.963235714
9.963283535
9.963303157
9.963298487
9.963275059
9.963260872
9.963274886
9.963274213
9.963271332
9.963235068
9.963283224
9.963303508
9.963298625
9.96327538
9.96326141
9.963274854
9.963273377
9.963271218
9.963235294
9.963282853
9.963304397
9.963299413
9.963275406
9.963260195
9.963275606
9.963273706
9.963270245
9.963236006
9.963282935
9.963304653
9.963299713
9.963276449
9.963260778
9.963275593
9.963275203
9.963269238
9.963235986
9.963282053
9.963304278
9.963301088
9.963276956
9.963261751
9.963276503
9.963274658
9.963270199
9.96323649
9.963283557
9.963303799
9.963298743
9.963275366
9.963262644
9.963276148
9.963273895
9.963269889
9.963236076
9.963284166
9.963303565
9.96329979
9.96327584
9.963264471
9.963275332
9.963274088
9.963270341
9.963236327
9.963284489
9.963304335
9.963298014
9.963276661
9.963263326
9.963275108
9.963273638
9.963310243
9.963259342
9.963280172
9.963283127
9.963295293
9.96330263
9.96327844
9.96325211
9.963290733
9.963309311
9.96326075
9.963280477
9.963282809
9.96329581
9.963302393
9.96327797
9.963251979
9.963290816
9.963309566
9.96326059
9.963281044
9.963283248
9.963296025
9.963302178
9.963277102
9.963251658
9.963290873
9.963309456
9.963261059
9.963280354
9.963282248
9.963294814
9.963301808
9.963277489
9.963252157
9.963290403
9.963309546
9.963260101
9.963281023
9.963281357
9.963294456
9.963302577
9.963277999
9.963253874
9.963289987
9.963310108
9.963258702
9.963280991
9.963282623
9.963294104
9.963301972
9.963277855
9.963253191
9.963289571
9.963309529
9.963258405
9.96328109
9.963282569
9.963293143
9.963302512
9.963278144
9.963252739
9.963289708
9.963310641
9.963259015
9.963281742
9.963283734
9.963292514
9.963303712
9.963278296
9.963253716
9.963289185
9.963311254
9.963259676
9.963281226
9.963284674
9.963292283
9.96330367
9.963278693
9.96325312
9.963289224
9.963310967
9.963259155
9.963281883
9.963285122
9.963293399
9.963303546
9.963279093
9.963252819
9.963288896
9.963311267
9.963259826
9.963282425
9.963284373
9.963292341
9.963303355
9.963279277
9.963252799
9.963289127
9.96331117
9.963261351
9.963282622
9.963284072
9.963291128
9.963302969
9.963279141
9.963252442
9.963288606
9.963310699
9.96326088
9.963282556
9.963285021
9.96329151
9.963302967
9.963277332
9.963252818
9.963289155
9.963311365
9.963261205
9.963282596
9.963286218
9.96329108
9.963302468
9.963276977
9.96325387
9.963288657
9.963310161
9.963260668
9.963283146
9.963286532
9.963290815
9.963303318
9.963277764
9.963254926
9.963288679
)
;
    }
    inlet
    {
        type            calculated;
        value           nonuniform 0();
    }
    outlet
    {
        type            calculated;
        value           nonuniform List<scalar> 
81
(
9.963270341
9.963236327
9.963284489
9.963304335
9.963298014
9.963276661
9.963263326
9.963275108
9.963273638
9.963262252
9.963342736
9.963313435
9.963251005
9.963215903
9.963262613
9.963285472
9.963238739
9.96326236
9.963263074
9.963226445
9.963254914
9.963235909
9.963235635
9.963305811
9.963284993
9.963313381
9.963301756
9.963303234
9.963307066
9.963297992
9.963238819
9.963342323
9.963301835
9.963294292
9.963243898
9.963304578
9.963264193
9.963280478
9.963250961
9.963334319
10.00093174
9.963317373
9.96326164
9.963289613
9.963279843
9.963217685
9.963284284
9.96328749
9.963281592
9.963247957
9.963302457
9.963274343
9.963226275
9.963283009
9.963276784
9.96331631
9.963255769
9.963270644
9.963239102
9.963280649
9.963298004
9.963272734
9.963301501
9.963266357
9.963298943
9.963295491
9.96325391
9.963268533
9.963269259
9.963343069
9.963351321
9.963291496
9.963310161
9.963260668
9.963283146
9.963286532
9.963290815
9.963303318
9.963277764
9.963254926
9.963288679
)
;
    }
    procBoundary1to0
    {
        type            processor;
        value           nonuniform List<scalar> 
97
(
9.963273016
9.963273016
9.963236512
9.963283718
9.96330133
9.963301105
9.963277508
9.963261735
9.963274672
9.963270881
9.963265477
9.963341554
9.963341554
9.963341554
9.963316552
9.963251681
9.963214149
9.963262214
9.963288784
9.963236205
9.96326695
9.963264722
9.963224638
9.963261908
9.963261908
9.963261908
9.963239755
9.963235897
9.963306715
9.963286026
9.963314192
9.963300238
9.963305986
9.963307816
9.963296785
9.963235286
9.963235286
9.963235286
9.963343189
9.963298088
9.96329987
9.963243822
9.96330314
9.963272083
9.963281581
9.96324864
9.963311616
10.00057285
10.00057285
10.00057285
9.963313915
9.963313915
9.963261592
9.96328554
9.963280369
9.963214773
9.963287176
9.963288561
9.963284383
9.963220689
9.963308466
9.963274702
9.963274702
9.963274702
9.96322399
9.96328101
9.963277337
9.963320777
9.963258511
9.963272529
9.963239155
9.963282227
9.963291913
9.963271742
9.963271742
9.963271742
9.963302256
9.963264248
9.963294852
9.963295413
9.963252813
9.963270248
9.963267536
9.963344645
9.963346887
9.963288809
9.963288809
9.963288809
9.963309303
9.963259128
9.963280302
9.96328149
9.963296214
9.96330233
9.963276939
9.963252184
9.963291389
)
;
    }
}


// ************************************************************************* //
