/*--------------------------------*- C++ -*----------------------------------*\
| =========                 |                                                 |
| \\      /  F ield         | OpenFOAM: The Open Source CFD Toolbox           |
|  \\    /   O peration     | Version:  4.x                                   |
|   \\  /    A nd           | Web:      www.OpenFOAM.org                      |
|    \\/     M anipulation  |                                                 |
\*---------------------------------------------------------------------------*/
FoamFile
{
    version     2.0;
    format      ascii;
    class       volScalarField;
    location    "7000";
    object      N2;
}
// * * * * * * * * * * * * * * * * * * * * * * * * * * * * * * * * * * * * * //

dimensions      [0 0 0 0 0 0 0];

internalField   nonuniform List<scalar> 
1174
(
0.5999991945
0.5999985939
0.5999977456
0.5999966391
0.5999952861
0.5999937166
0.5999919724
0.599990101
0.5999881507
0.599986167
0.5999841916
0.5999822693
0.5999804788
0.5999790718
0.5999986299
0.5999976665
0.5999963837
0.599994811
0.5999930028
0.5999910248
0.5999889438
0.5999868204
0.5999847059
0.5999826409
0.5999806577
0.5999787873
0.5999770893
0.5999757787
0.5999973823
0.5999956786
0.5999935706
0.5999911774
0.5999886276
0.5999860367
0.5999834961
0.5999810708
0.5999788023
0.5999767128
0.5999748119
0.5999731052
0.59997162
0.5999705079
0.5999955535
0.5999929058
0.5999898664
0.5999866578
0.5999834654
0.5999804221
0.5999776113
0.5999750754
0.5999728279
0.5999708628
0.5999691631
0.5999677094
0.5999664993
0.5999656234
0.5999942473
0.599991081
0.5999876275
0.5999841301
0.599980765
0.5999776444
0.5999748294
0.5999723435
0.5999701845
0.5999683343
0.5999667664
0.5999654536
0.599964383
0.5999636212
0.5999955536
0.5999929059
0.5999898666
0.599986658
0.5999834657
0.5999804226
0.5999776118
0.5999750761
0.5999728287
0.5999708637
0.5999691641
0.5999677105
0.5999665004
0.5999656246
0.5999973824
0.5999956787
0.5999935709
0.5999911777
0.599988628
0.5999860372
0.5999834968
0.5999810718
0.5999788034
0.5999767141
0.5999748134
0.5999731069
0.5999716218
0.5999705099
0.59999863
0.5999976667
0.5999963838
0.5999948112
0.5999930031
0.5999910253
0.5999889444
0.5999868213
0.599984707
0.5999826422
0.5999806593
0.5999787891
0.5999770914
0.5999757809
0.5999991946
0.5999985939
0.5999977457
0.5999966392
0.5999952863
0.5999937169
0.5999919729
0.5999901017
0.5999881517
0.5999861682
0.5999841932
0.5999822711
0.5999804809
0.5999790743
0.5999992803
0.59999863
0.5999976666
0.5999963838
0.5999948111
0.5999930029
0.5999910249
0.5999889439
0.5999868205
0.599984706
0.599982641
0.5999806578
0.5999787874
0.5999770894
0.5999757787
0.5999973562
0.5999956638
0.5999936001
0.5999912893
0.5999888561
0.5999864053
0.599984015
0.5999817374
0.5999796032
0.5999776274
0.5999758156
0.5999741725
0.599972727
0.5999716349
0.5999941507
0.5999908606
0.5999872849
0.5999837265
0.5999803927
0.5999773964
0.5999747784
0.5999725332
0.5999706295
0.5999690255
0.5999676777
0.5999665485
0.5999656206
0.5999649531
0.5999884513
0.5999829786
0.5999777757
0.599973232
0.5999694831
0.5999665106
0.5999642216
0.5999624987
0.5999612266
0.5999603043
0.5999596482
0.5999591921
0.5999588856
0.5999587023
0.5999830721
0.599976486
0.5999709076
0.5999664832
0.5999631248
0.599960661
0.5999589097
0.5999577076
0.5999569193
0.5999564369
0.5999561768
0.5999560737
0.5999560739
0.5999561204
0.5999884518
0.5999829791
0.5999777763
0.5999732328
0.599969484
0.5999665116
0.5999642227
0.5999624999
0.5999612279
0.5999603057
0.5999596497
0.5999591936
0.5999588872
0.5999587039
0.5999941511
0.5999908611
0.5999872855
0.5999837273
0.5999803937
0.5999773976
0.5999747798
0.5999725348
0.5999706314
0.5999690275
0.5999676799
0.5999665509
0.599965623
0.5999649557
0.5999973565
0.599995664
0.5999936004
0.5999912897
0.5999888567
0.5999864061
0.5999840162
0.5999817388
0.5999796049
0.5999776294
0.5999758178
0.5999741749
0.5999727297
0.5999716379
0.59999863
0.5999976667
0.5999963839
0.5999948113
0.5999930033
0.5999910255
0.5999889447
0.5999868216
0.5999847074
0.5999826428
0.5999806599
0.5999787898
0.5999770922
0.5999757819
0.5999986074
0.5999973825
0.5999956789
0.5999935709
0.5999911777
0.5999886279
0.599986037
0.5999834963
0.5999810711
0.5999788026
0.5999767131
0.5999748122
0.5999731055
0.5999716202
0.5999705081
0.5999968078
0.599994151
0.5999908609
0.5999872852
0.5999837268
0.599980393
0.5999773966
0.5999747787
0.5999725334
0.5999706298
0.5999690257
0.5999676778
0.5999665487
0.5999656207
0.5999649533
0.5999846769
0.5999777332
0.599971447
0.599966294
0.599962372
0.5999595673
0.59995768
0.5999564977
0.5999558312
0.5999555267
0.5999554658
0.5999555596
0.5999557369
0.599955916
0.5999635966
0.5999518655
0.5999437769
0.5999390034
0.5999367616
0.5999362622
0.5999368682
0.5999381181
0.599939699
0.5999414087
0.5999431209
0.5999447546
0.5999462328
0.5999473653
0.5999359768
0.599924302
0.5999192926
0.5999184141
0.5999198554
0.599922476
0.5999256004
0.5999288439
0.5999319971
0.5999349525
0.5999376604
0.5999400964
0.5999422153
0.5999438002
0.5999635985
0.5999518673
0.5999437788
0.5999390054
0.5999367638
0.5999362645
0.5999368706
0.5999381205
0.5999397014
0.5999414111
0.5999431232
0.5999447569
0.5999462351
0.5999473676
0.5999846782
0.5999777344
0.5999714484
0.5999662957
0.5999623741
0.5999595698
0.5999576828
0.5999565008
0.5999558345
0.5999555301
0.5999554693
0.5999555631
0.5999557404
0.5999559196
0.5999941511
0.5999908611
0.5999872857
0.5999837277
0.5999803942
0.5999773983
0.5999747808
0.5999725359
0.5999706326
0.5999690289
0.5999676813
0.5999665524
0.5999656246
0.5999649574
0.5999973824
0.5999956788
0.599993571
0.5999911781
0.5999886286
0.599986038
0.5999834978
0.599981073
0.5999788049
0.5999767159
0.5999748154
0.5999731091
0.5999716242
0.5999705124
0.5999975963
0.599995554
0.5999929063
0.5999898669
0.5999866584
0.599983466
0.5999804228
0.5999776119
0.599975076
0.5999728285
0.5999708634
0.5999691636
0.5999677099
0.5999664998
0.5999656239
0.5999934867
0.5999884523
0.5999829795
0.5999777766
0.5999732328
0.5999694839
0.5999665113
0.5999642223
0.5999624993
0.5999612272
0.5999603049
0.5999596488
0.5999591925
0.5999588861
0.5999587027
0.5999779152
0.5999635983
0.5999518668
0.5999437779
0.5999390042
0.5999367624
0.5999362628
0.5999368687
0.5999381186
0.5999396994
0.599941409
0.5999431212
0.5999447549
0.5999462331
0.5999473656
0.599891295
0.5998765129
0.5998740611
0.5998782932
0.5998855105
0.5998936245
0.5999015762
0.5999088931
0.5999154122
0.5999211224
0.5999260773
0.5999303422
0.5999339256
0.5999365435
0.5997493581
0.5997678467
0.5997962986
0.5998235923
0.5998467903
0.5998657171
0.5998809856
0.5998933196
0.5999033501
0.5999115777
0.5999183823
0.5999240359
0.5999286666
0.5999319952
0.5998913013
0.5998765176
0.5998740656
0.5998782978
0.599885515
0.5998936289
0.5999015805
0.5999088971
0.599915416
0.599921126
0.5999260807
0.5999303454
0.5999339287
0.5999365465
0.5999635983
0.5999518679
0.5999437802
0.5999390075
0.5999367664
0.5999362674
0.5999368735
0.5999381235
0.5999397044
0.5999414141
0.5999431261
0.5999447597
0.5999462379
0.5999473703
0.5999884517
0.5999829794
0.5999777772
0.5999732342
0.599969486
0.5999665141
0.5999642256
0.5999625031
0.5999612314
0.5999603094
0.5999596535
0.5999591975
0.5999588912
0.5999587079
0.5999955535
0.599992906
0.599989867
0.5999866589
0.599983467
0.5999804244
0.5999776141
0.5999750788
0.5999728319
0.5999708672
0.5999691679
0.5999677146
0.5999665049
0.5999656293
0.5999968373
0.5999942478
0.5999910816
0.5999876282
0.5999841308
0.5999807658
0.5999776452
0.5999748303
0.5999723443
0.5999701853
0.5999683351
0.5999667672
0.5999654543
0.5999643838
0.5999636219
0.5999900191
0.5999830732
0.5999764872
0.5999709088
0.5999664845
0.599963126
0.5999606621
0.5999589107
0.5999577086
0.5999569202
0.5999564378
0.5999561776
0.5999560745
0.5999560747
0.5999561211
0.5999567121
0.5999359795
0.5999243044
0.5999192948
0.599918416
0.5999198569
0.5999224774
0.5999256016
0.599928845
0.599931998
0.5999349533
0.5999376612
0.5999400971
0.5999422159
0.5999438008
0.5997746401
0.599749366
0.5997678514
0.5997963019
0.5998235945
0.5998467919
0.5998657184
0.5998809867
0.5998933205
0.5999033509
0.5999115783
0.5999183828
0.5999240364
0.5999286671
0.5999319956
0.5991380276
0.5994488564
0.5996210624
0.5997219107
0.5997843885
0.5998252645
0.5998533879
0.599873616
0.5998887243
0.5999003641
0.5999095548
0.5999169335
0.5999228291
0.5999270013
0.5997493576
0.5997678532
0.5997963077
0.5998236015
0.5998467989
0.5998657249
0.5998809927
0.5998933259
0.5999033558
0.5999115828
0.5999183869
0.5999240403
0.5999286707
0.599931999
0.5999359762
0.5999243046
0.5999192978
0.5999184207
0.5999198627
0.5999224836
0.599925608
0.5999288513
0.5999320042
0.5999349594
0.5999376671
0.5999401028
0.5999422215
0.5999438063
0.5999830719
0.5999764868
0.5999709097
0.5999664864
0.5999631289
0.5999606658
0.5999589151
0.5999577134
0.5999569253
0.5999564432
0.5999561832
0.5999560802
0.5999560805
0.599956127
0.5999942471
0.5999910812
0.5999876282
0.5999841316
0.5999807672
0.5999776474
0.5999748331
0.5999723478
0.5999701894
0.5999683397
0.5999667723
0.5999654598
0.5999643895
0.599963628
0.5999975963
0.5999955541
0.5999929065
0.5999898672
0.5999866588
0.5999834665
0.5999804234
0.5999776127
0.5999750769
0.5999728296
0.5999708646
0.599969165
0.5999677114
0.5999665013
0.5999656255
0.599993487
0.5999884528
0.5999829802
0.5999777775
0.599973234
0.5999694852
0.5999665128
0.5999642239
0.599962501
0.599961229
0.5999603067
0.5999596507
0.5999591945
0.5999588881
0.5999587048
0.5999779182
0.5999636011
0.5999518698
0.5999437811
0.5999390075
0.5999367658
0.5999362663
0.5999368721
0.5999381219
0.5999397027
0.5999414122
0.5999431243
0.5999447579
0.599946236
0.5999473685
0.5999244754
0.599891308
0.5998765227
0.5998740697
0.5998783011
0.5998855177
0.5998936312
0.5999015823
0.5999088987
0.5999154173
0.5999211271
0.5999260817
0.5999303463
0.5999339295
0.5999365473
0.5997746409
0.5997493675
0.5997678595
0.5997963119
0.5998236045
0.5998468012
0.5998657267
0.599880994
0.599893327
0.5999033567
0.5999115836
0.5999183876
0.5999240409
0.5999286712
0.5999319995
0.5999244733
0.5998913081
0.5998765254
0.5998740741
0.5998783063
0.5998855231
0.5998936365
0.5999015874
0.5999089035
0.5999154219
0.5999211314
0.5999260856
0.59993035
0.599933933
0.5999365507
0.5999635966
0.5999518689
0.5999437828
0.599939011
0.5999367704
0.5999362715
0.5999368778
0.5999381277
0.5999397085
0.599941418
0.5999431299
0.5999447634
0.5999462414
0.5999473738
0.599988451
0.5999829794
0.5999777778
0.5999732354
0.5999694876
0.5999665161
0.5999642278
0.5999625055
0.5999612339
0.5999603119
0.5999596561
0.5999592001
0.5999588938
0.5999587106
0.5999955533
0.599992906
0.5999898672
0.5999866593
0.5999834677
0.5999804254
0.5999776153
0.5999750803
0.5999728335
0.599970869
0.5999691699
0.5999677167
0.599966507
0.5999656316
0.5999986075
0.5999973827
0.5999956791
0.5999935714
0.5999911783
0.5999886287
0.599986038
0.5999834976
0.5999810726
0.5999788043
0.599976715
0.5999748143
0.5999731078
0.5999716227
0.5999705108
0.5999968083
0.5999941517
0.5999908618
0.5999872864
0.5999837282
0.5999803947
0.5999773986
0.5999747809
0.5999725359
0.5999706324
0.5999690286
0.5999676809
0.5999665519
0.599965624
0.5999649567
0.5999912996
0.5999846797
0.599977736
0.59997145
0.5999662973
0.5999623757
0.5999595713
0.5999576842
0.5999565021
0.5999558358
0.5999555313
0.5999554704
0.5999555642
0.5999557415
0.5999559206
0.599977918
0.5999636015
0.599951871
0.5999437831
0.5999390101
0.5999367687
0.5999362694
0.5999368754
0.5999381252
0.5999397059
0.5999414154
0.5999431274
0.5999447609
0.5999462389
0.5999473713
0.5999567119
0.5999359815
0.599924309
0.5999193013
0.5999184236
0.5999198651
0.5999224856
0.5999256097
0.5999288528
0.5999320055
0.5999349605
0.599937668
0.5999401037
0.5999422223
0.599943807
0.5999779182
0.5999636022
0.5999518725
0.5999437853
0.5999390128
0.5999367717
0.5999362726
0.5999368787
0.5999381285
0.5999397091
0.5999414185
0.5999431304
0.5999447638
0.5999462418
0.5999473741
0.5999912986
0.5999846789
0.5999777361
0.5999714511
0.5999662994
0.5999623785
0.5999595747
0.5999576881
0.5999565063
0.5999558401
0.5999555357
0.5999554749
0.5999555687
0.599955746
0.5999559252
0.5999941507
0.5999908613
0.5999872865
0.5999837291
0.5999803962
0.5999774008
0.5999747837
0.5999725392
0.5999706362
0.5999690327
0.5999676853
0.5999665565
0.5999656289
0.5999649617
0.5999973822
0.5999956788
0.5999935713
0.5999911787
0.5999886295
0.5999860394
0.5999834996
0.5999810752
0.5999788074
0.5999767187
0.5999748184
0.5999731124
0.5999716277
0.5999705161
0.5999992804
0.5999986302
0.5999976669
0.5999963842
0.5999948117
0.5999930036
0.5999910259
0.5999889451
0.599986822
0.5999847077
0.599982643
0.5999806601
0.59997879
0.5999770922
0.5999757818
0.5999985898
0.5999973568
0.5999956644
0.5999936009
0.5999912904
0.5999888574
0.5999864069
0.599984017
0.5999817397
0.5999796058
0.5999776303
0.5999758188
0.5999741759
0.5999727307
0.5999716389
0.5999968083
0.5999941518
0.599990862
0.5999872867
0.5999837287
0.5999803954
0.5999773995
0.5999747819
0.5999725371
0.5999706337
0.59996903
0.5999676824
0.5999665535
0.5999656257
0.5999649584
0.599993487
0.599988453
0.5999829809
0.5999777788
0.5999732359
0.5999694876
0.5999665157
0.5999642271
0.5999625045
0.5999612327
0.5999603106
0.5999596547
0.5999591986
0.5999588922
0.599958709
0.599990019
0.5999830739
0.599976489
0.5999709117
0.5999664884
0.5999631307
0.5999606675
0.5999589166
0.5999577148
0.5999569266
0.5999564444
0.5999561843
0.5999560812
0.5999560814
0.5999561279
0.5999934871
0.5999884533
0.5999829815
0.5999777797
0.599973237
0.5999694891
0.5999665173
0.599964229
0.5999625065
0.5999612348
0.5999603128
0.5999596569
0.5999592008
0.5999588945
0.5999587112
0.5999968082
0.5999941518
0.5999908622
0.5999872873
0.5999837298
0.5999803968
0.5999774014
0.5999747842
0.5999725397
0.5999706366
0.5999690331
0.5999676856
0.5999665569
0.5999656292
0.599964962
0.5999985895
0.5999973566
0.5999956644
0.5999936011
0.5999912909
0.5999888583
0.5999864083
0.5999840188
0.5999817419
0.5999796084
0.5999776333
0.5999758221
0.5999741795
0.5999727346
0.599971643
0.5999986299
0.5999976667
0.5999963841
0.5999948119
0.5999930042
0.5999910268
0.5999889464
0.5999868238
0.59998471
0.5999826458
0.5999806633
0.5999787936
0.5999770963
0.5999757863
0.5999995809
0.5999991947
0.5999985941
0.5999977459
0.5999966395
0.5999952867
0.5999937174
0.5999919734
0.5999901023
0.5999881524
0.5999861689
0.5999841939
0.599982272
0.5999804818
0.5999790752
0.5999992804
0.5999986302
0.5999976669
0.5999963842
0.5999948118
0.5999930038
0.5999910261
0.5999889454
0.5999868224
0.5999847082
0.5999826436
0.5999806608
0.5999787907
0.5999770931
0.5999757829
0.5999986075
0.5999973827
0.5999956793
0.5999935716
0.5999911788
0.5999886293
0.5999860389
0.5999834988
0.599981074
0.5999788059
0.5999767169
0.5999748164
0.5999731101
0.5999716252
0.5999705134
0.5999975963
0.5999955542
0.5999929068
0.5999898679
0.5999866599
0.5999834681
0.5999804256
0.5999776153
0.59997508
0.599972833
0.5999708684
0.5999691691
0.5999677158
0.5999665059
0.5999656304
0.5999968373
0.599994248
0.5999910823
0.5999876295
0.5999841329
0.5999807685
0.5999776487
0.5999748344
0.5999723491
0.5999701906
0.5999683408
0.5999667734
0.5999654608
0.5999643905
0.599963629
0.5999975963
0.5999955543
0.5999929071
0.5999898683
0.5999866605
0.5999834689
0.5999804265
0.5999776164
0.5999750813
0.5999728345
0.59997087
0.5999691708
0.5999677175
0.5999665078
0.5999656323
0.5999986075
0.5999973828
0.5999956794
0.599993572
0.5999911794
0.5999886302
0.59998604
0.5999835002
0.5999810758
0.599978808
0.5999767192
0.5999748189
0.5999731128
0.5999716281
0.5999705166
0.5999992804
0.5999986301
0.599997667
0.5999963844
0.5999948121
0.5999930044
0.599991027
0.5999889466
0.599986824
0.5999847102
0.599982646
0.5999806635
0.5999787938
0.5999770965
0.5999757865
0.5999995809
0.5999991946
0.599998594
0.5999977459
0.5999966397
0.5999952871
0.5999937181
0.5999919744
0.5999901037
0.5999881542
0.5999861712
0.5999841966
0.5999822751
0.5999804854
0.5999790792
)
;

boundaryField
{
    top
    {
        type            zeroGradient;
    }
    bottom
    {
        type            zeroGradient;
    }
    side-walls
    {
        type            zeroGradient;
    }
    inlet
    {
        type            zeroGradient;
    }
    outlet
    {
        type            zeroGradient;
    }
    procBoundary1to0
    {
        type            processor;
        value           nonuniform List<scalar> 
97
(
0.5999995809
0.5999995809
0.5999992804
0.5999986076
0.5999975966
0.5999968378
0.5999975967
0.5999986077
0.5999992805
0.599999581
0.5999996649
0.5999985895
0.5999985895
0.5999985895
0.5999968083
0.5999934877
0.599990021
0.5999934881
0.5999968088
0.59999859
0.5999992805
0.5999993602
0.5999985711
0.5999912986
0.5999912986
0.5999912986
0.59997792
0.5999567225
0.5999779225
0.5999913012
0.5999968088
0.5999986077
0.5999989136
0.5999971793
0.5999911109
0.5999244747
0.5999244747
0.5999244747
0.5997747117
0.599924492
0.5999779223
0.5999934881
0.5999975966
0.5999985945
0.5999958654
0.5999843664
0.5999388301
0.5985459219
0.5985459219
0.5985459219
0.599774708
0.599774708
0.5999567216
0.5999900208
0.5999968377
0.5999989135
0.5999971792
0.5999911102
0.5999734605
0.5999388266
0.5999734626
0.5999779163
0.5999779163
0.5999779163
0.5999934872
0.5999975964
0.5999993602
0.599998571
0.5999962576
0.5999911101
0.5999843659
0.5999911105
0.5999962578
0.5999968078
0.5999968078
0.5999968078
0.5999986074
0.5999996649
0.5999993539
0.599998571
0.5999971791
0.5999958653
0.5999971792
0.5999985711
0.5999993539
0.5999992803
0.5999992803
0.5999992803
0.5999998028
0.5999996649
0.5999993602
0.5999989135
0.5999985945
0.5999989136
0.5999993602
0.5999996649
0.5999998028
)
;
    }
}


// ************************************************************************* //
