/*--------------------------------*- C++ -*----------------------------------*\
| =========                 |                                                 |
| \\      /  F ield         | OpenFOAM: The Open Source CFD Toolbox           |
|  \\    /   O peration     | Version:  4.x                                   |
|   \\  /    A nd           | Web:      www.OpenFOAM.org                      |
|    \\/     M anipulation  |                                                 |
\*---------------------------------------------------------------------------*/
FoamFile
{
    version     2.0;
    format      ascii;
    class       surfaceScalarField;
    location    "7000";
    object      phi;
}
// * * * * * * * * * * * * * * * * * * * * * * * * * * * * * * * * * * * * * //

dimensions      [1 0 -1 0 0 0 0];

internalField   nonuniform List<scalar> 
3172
(
9.475493563e-06
-1.166446321e-11
-1.165006585e-11
9.475518329e-06
-1.183671074e-11
-1.11656349e-11
9.475535047e-06
-8.492035618e-12
-7.913536122e-12
9.475547501e-06
-5.580356503e-12
-5.229657944e-12
9.475553679e-06
-4.585596025e-12
-2.491607378e-12
9.475559977e-06
-1.213991493e-12
-6.291850201e-13
9.475560286e-06
-2.458701028e-12
2.896897546e-13
9.475559558e-06
-6.362248065e-13
1.934488485e-13
9.475558548e-06
1.15802883e-12
-4.956741215e-13
9.475553909e-06
1.646055941e-12
1.799707227e-12
9.475552025e-06
1.959613867e-12
2.952574539e-12
9.475544575e-06
2.133248026e-12
2.14995593e-12
9.475540267e-06
4.244618445e-12
3.514903612e-12
3.336751042e-12
3.507424313e-12
9.47547004e-06
-2.240897793e-11
-1.151878426e-11
9.475495772e-06
-2.27465457e-11
-1.633793661e-11
9.475510702e-06
-1.349763748e-11
-1.015311755e-11
9.475518072e-06
-9.701616694e-12
-5.371979765e-12
9.475524146e-06
-5.058927531e-12
-1.314006532e-12
9.475522919e-06
-2.272816235e-12
-1.143506325e-12
9.475524402e-06
1.164600549e-12
1.487567948e-12
9.475522449e-06
1.485415291e-12
1.511286657e-12
9.475519162e-06
2.002769791e-12
4.653220324e-13
9.47551529e-06
2.635856146e-12
2.348497826e-12
9.475511645e-06
4.950042155e-12
1.806845105e-12
9.475508225e-06
3.78898487e-12
2.373165378e-12
9.475500736e-06
4.139362196e-12
2.648177838e-12
3.755154412e-12
4.425486484e-12
9.475542193e-06
-1.760337537e-11
-2.444458416e-11
9.475567252e-06
-1.89479778e-11
-2.501510449e-11
9.475575505e-06
-1.152752244e-11
-1.260624949e-11
9.475577813e-06
-4.804120941e-12
-2.949645871e-12
9.475574436e-06
-3.097639978e-12
1.447384116e-12
9.475568604e-06
-1.571116295e-12
4.120356389e-12
9.475563226e-06
1.146010203e-12
4.518648546e-12
9.475558648e-06
2.445070301e-12
5.839410051e-12
9.475555131e-06
2.800872157e-12
2.63271642e-12
9.475550807e-06
2.245472273e-12
3.33901558e-12
9.475546061e-06
1.644564047e-12
1.996284669e-12
9.475543527e-06
3.391236684e-12
2.729332133e-12
9.475538986e-06
4.564905562e-12
3.88610232e-12
4.737464715e-12
3.53684642e-12
9.475572565e-06
-9.535184006e-12
-7.932969039e-12
9.475594391e-06
-5.633365904e-12
-2.881033634e-11
9.475598576e-06
-2.045603653e-12
-1.059269485e-11
9.475596047e-06
8.839260682e-13
1.318646077e-12
9.475588219e-06
1.15035176e-12
4.200811746e-12
9.475580788e-06
1.25978283e-12
7.080993894e-12
9.475575671e-06
1.475112925e-12
6.498264528e-12
9.475568319e-06
4.021388856e-13
6.767891803e-12
9.475564758e-06
1.15951054e-12
5.498010438e-12
9.475562502e-06
8.810538381e-13
5.453882616e-12
9.475558746e-06
3.972110379e-13
4.951263847e-12
9.475555536e-06
2.081302907e-12
4.159472614e-12
9.475553124e-06
2.541017611e-12
5.371074034e-12
3.654508285e-12
4.723032373e-12
9.475619193e-06
1.15383091e-11
-1.449122282e-12
9.475616359e-06
9.36556181e-12
-1.407868006e-11
9.475605591e-06
4.142718177e-12
4.788186749e-12
9.475592692e-06
2.34988179e-12
1.246649553e-11
9.475581097e-06
2.387107293e-12
1.155052377e-11
9.47557243e-06
1.617899218e-12
1.185827058e-11
9.475565554e-06
1.823843129e-12
8.696516434e-12
9.475560114e-06
9.433523417e-13
9.017175393e-12
9.475555313e-06
-7.897871155e-13
6.061724719e-12
9.475552825e-06
-6.41153083e-13
5.681671371e-12
9.475553453e-06
1.476969127e-12
4.793897364e-12
9.475549908e-06
-3.354292966e-13
3.356040022e-12
9.475548075e-06
1.420538933e-13
4.990232341e-12
-1.508732771e-12
5.296298395e-12
9.475549375e-06
1.794909723e-11
-9.023011802e-12
9.475567655e-06
1.86644559e-11
-3.14090663e-11
9.475571884e-06
1.179823529e-11
-1.120312181e-11
9.475567195e-06
5.504713256e-12
-1.032614549e-12
9.475558955e-06
3.493889504e-12
3.62516066e-12
9.475554658e-06
2.148950026e-12
7.012376315e-12
9.475544981e-06
-1.30632508e-12
5.710173481e-12
9.475540587e-06
-2.079713679e-13
6.496311893e-12
9.475535686e-06
-2.212628326e-12
6.210573307e-12
9.475535216e-06
-2.291632361e-12
6.21680247e-12
9.475532224e-06
-3.217315032e-12
4.50986543e-12
9.475530492e-06
-3.961132081e-12
4.599766607e-12
9.475526612e-06
-5.077121392e-12
4.634409547e-12
-3.542516083e-12
4.547522619e-12
9.475520161e-06
2.309670588e-11
-2.582271478e-11
9.475544904e-06
2.286767019e-11
-2.640428071e-11
9.475552102e-06
1.342768909e-11
-1.375442721e-11
9.475554096e-06
7.283446596e-12
-6.450297783e-12
9.47555128e-06
4.117768152e-12
-9.415219332e-13
9.475545484e-06
2.144507855e-12
1.978464501e-12
9.475541425e-06
4.410055247e-13
4.054104071e-12
9.475535214e-06
-1.678125253e-12
3.682924017e-12
9.475531317e-06
-1.601372217e-12
4.323638096e-12
9.475526721e-06
-2.603949891e-12
4.681313668e-12
9.475526319e-06
-4.401635146e-12
4.944811189e-12
9.475523522e-06
-5.720343259e-12
3.286212837e-12
9.475520472e-06
-5.603393214e-12
5.648213562e-12
-4.136364216e-12
4.237629032e-12
9.475504917e-06
1.314953252e-11
-1.358301921e-11
9.475529288e-06
1.182992157e-11
-1.734239714e-11
9.475545622e-06
8.310696821e-12
-1.157355381e-11
9.475556134e-06
5.631523175e-12
-6.339477031e-12
9.475561067e-06
4.191783592e-12
-3.882227099e-12
9.475560677e-06
1.937877363e-12
3.895213086e-14
9.475558426e-06
-3.21925985e-13
1.34977702e-12
9.475556419e-06
5.990455476e-13
2.4671146e-12
9.475554384e-06
-2.966014011e-13
2.913755641e-12
9.475549891e-06
-1.331276948e-12
2.67533493e-12
9.475548642e-06
-1.043045425e-12
3.710796059e-12
9.475544885e-06
-1.69426276e-12
3.791068829e-12
9.475537699e-06
-3.486067546e-12
4.752171647e-12
-2.635806734e-12
3.2257885e-12
9.475490177e-06
-1.258518503e-11
9.475517266e-06
-1.395994483e-11
9.475533689e-06
-8.928752178e-12
9.475548365e-06
-5.882881625e-12
9.475555572e-06
-4.00786759e-12
9.475559861e-06
-2.36369276e-12
9.475561947e-06
-9.969705981e-14
9.475560159e-06
4.29208666e-13
9.475558462e-06
1.634917888e-12
9.475556408e-06
2.708653735e-12
9.475552927e-06
3.597850924e-12
9.475549403e-06
4.261662311e-12
9.475544028e-06
4.081673943e-12
3.243106775e-12
9.475471967e-06
-5.658607779e-11
9.475495505e-06
-1.105886584e-11
-2.143142173e-11
9.475521521e-06
-1.640544217e-11
-2.111633694e-11
9.475535999e-06
-1.223104968e-11
-1.508465556e-11
9.475545148e-06
-5.807321563e-12
-7.349597675e-12
9.475547794e-06
-2.950502145e-12
-5.379405757e-12
9.47555116e-06
-9.789800548e-13
-1.989772715e-12
9.475546125e-06
-9.223265823e-13
-6.741520519e-13
9.475545434e-06
2.094878006e-12
8.203270001e-13
9.475542806e-06
2.550509165e-12
2.347937139e-12
9.475539065e-06
2.847119026e-12
2.667504111e-12
9.475535026e-06
2.460445814e-12
3.505431421e-12
9.475530796e-06
3.470014515e-12
3.841239064e-12
9.475525727e-06
4.168807852e-12
5.708581752e-12
4.481802707e-12
6.259862244e-12
9.475582293e-06
-2.054875859e-11
-2.200590376e-11
9.475608237e-06
-2.680697754e-11
-2.687814038e-11
9.475619226e-06
-1.573871595e-11
-1.467880077e-11
9.475621094e-06
-7.981191881e-12
-8.195567401e-12
9.475619112e-06
-2.956681094e-12
-3.361965389e-12
9.475617928e-06
2.487381297e-12
1.568981322e-13
9.475614877e-06
4.205692844e-12
2.599942869e-12
9.475611405e-06
5.566675404e-12
3.248413147e-12
9.475609262e-06
5.080418867e-12
2.761961533e-12
9.47560505e-06
5.29333129e-12
2.570343558e-12
9.475604673e-06
7.014510048e-12
5.174999199e-12
9.475600759e-06
5.064003661e-12
4.451590724e-12
9.475598184e-06
6.419318943e-12
6.645198447e-12
5.137250501e-12
6.342466155e-12
9.475603433e-06
-9.911716264e-12
-3.745145153e-11
9.475614817e-06
-2.200930074e-11
-4.047790726e-11
9.475609342e-06
-1.048003983e-11
-1.37517825e-11
9.475597308e-06
-2.603224522e-12
-5.509814978e-13
9.475586681e-06
-2.535460815e-14
5.749975484e-12
9.475577632e-06
2.23712835e-12
7.854124796e-12
9.475573325e-06
2.856345812e-12
8.388339209e-12
9.475567704e-06
3.800354804e-12
7.063230184e-12
9.475568894e-06
5.16524806e-12
7.040424994e-12
9.475564902e-06
4.337621816e-12
6.434424074e-12
9.475565398e-06
4.931643239e-12
6.073244079e-12
9.475564572e-06
4.504231647e-12
5.882852651e-12
9.475563408e-06
6.289385945e-12
7.890509166e-12
4.192243539e-12
6.909231251e-12
9.47554774e-06
7.91233666e-12
2.833706563e-11
9.475549403e-06
-5.265960305e-12
-4.869074692e-11
9.475539358e-06
6.716204041e-13
-9.783773557e-12
9.475523493e-06
2.955007892e-12
9.256345338e-12
9.475511516e-06
2.945466771e-12
1.406056828e-11
9.475502625e-06
3.481657849e-12
1.53513676e-11
9.475501763e-06
3.535340413e-12
1.499526244e-11
9.475498e-06
2.33085059e-12
1.131305057e-11
9.475497474e-06
2.983084422e-12
1.009231967e-11
9.475496432e-06
1.812513903e-12
7.363904692e-12
9.475497946e-06
7.925708857e-13
6.021494527e-12
9.475500014e-06
1.420951083e-12
5.701193075e-12
9.475501087e-06
2.415527787e-12
7.512030735e-12
4.451193002e-12
7.595237393e-12
9.475586512e-06
-8.288658773e-12
1.799966644e-10
9.475533124e-06
5.932756034e-12
3.476544628e-11
9.475500958e-06
1.763588788e-12
3.896325493e-11
9.475478996e-06
-2.042399079e-12
3.874554766e-11
9.475466207e-06
-1.058707769e-12
2.855596213e-11
9.475459217e-06
-1.695751707e-12
2.204268403e-11
9.475459687e-06
-1.506799789e-12
1.714166004e-11
9.475457811e-06
-2.705165396e-12
1.1354382e-11
9.475459133e-06
-2.129011516e-12
7.844648729e-12
9.475461209e-06
-1.135294942e-12
6.472721671e-12
9.47546709e-06
-3.277740705e-13
6.505795146e-12
9.475466709e-06
-6.22864206e-13
4.929919617e-12
9.475467928e-06
-2.058904487e-12
5.825109357e-12
-2.446271917e-12
5.603554545e-12
9.475558791e-06
1.116427906e-11
2.831016149e-11
9.475562482e-06
2.210572187e-11
-4.917519409e-11
9.475551527e-06
9.02405445e-12
-1.122272468e-11
9.475537493e-06
7.229273073e-13
6.926799163e-12
9.475525977e-06
-7.406470618e-13
1.275303473e-11
9.47551795e-06
-3.343380334e-12
1.38796035e-11
9.475512666e-06
-3.215334149e-12
1.380295652e-11
9.47551079e-06
-4.360001561e-12
1.243697035e-11
9.475510987e-06
-4.155355087e-12
1.054745441e-11
9.475509667e-06
-3.922589236e-12
8.08126257e-12
9.475513523e-06
-3.787433184e-12
7.723222939e-12
9.475512961e-06
-5.863999429e-12
4.264074175e-12
9.475513923e-06
-4.915475289e-12
6.84001936e-12
-4.00678608e-12
7.977372862e-12
9.475575669e-06
2.160838413e-11
-3.81991738e-11
9.475588277e-06
2.866340138e-11
-4.197320646e-11
9.47558108e-06
1.556337952e-11
-1.497340927e-11
9.47557269e-06
8.057514313e-12
-1.071105847e-12
9.475562046e-06
2.46386385e-12
3.840119831e-12
9.47555507e-06
9.243147537e-13
7.827765468e-12
9.475547331e-06
-1.696287583e-12
8.74199682e-12
9.475543507e-06
-3.172512363e-12
9.15502374e-12
9.47553999e-06
-4.383198303e-12
8.140456124e-12
9.475537706e-06
-5.274680963e-12
6.355295399e-12
9.475537162e-06
-5.856114893e-12
7.134266309e-12
9.475539691e-06
-4.721181846e-12
7.062063116e-12
9.475535716e-06
-6.372439577e-12
6.994894857e-12
-5.599241606e-12
6.843905706e-12
9.475483546e-06
1.344753724e-11
-2.15682664e-11
9.475507963e-06
1.577063674e-11
-2.73400361e-11
9.475520604e-06
1.148763602e-11
-1.577747426e-11
9.475522901e-06
5.861602374e-12
-8.891820965e-12
9.475522562e-06
3.701875216e-12
-3.77465633e-12
9.475518167e-06
-1.038915234e-12
3.383410127e-14
9.475515178e-06
-7.940996278e-13
2.932001919e-12
9.475511089e-06
-1.868387541e-12
4.065693428e-12
9.475508069e-06
-2.159934724e-12
5.330465896e-12
9.475504582e-06
-1.167334608e-12
5.881581654e-12
9.475502585e-06
-1.056465367e-12
6.575106389e-12
9.475501619e-06
-1.571007324e-12
6.572791502e-12
9.475496605e-06
-4.312760373e-12
6.520312435e-12
-3.011820341e-12
4.977843031e-12
9.47549676e-06
-2.262700263e-11
9.475525473e-06
-1.961135121e-11
9.475540539e-06
-1.444896675e-11
9.475551739e-06
-8.064441214e-12
9.475554179e-06
-5.442115625e-12
9.475555339e-06
-1.444110264e-12
9.475552877e-06
-6.026493777e-13
9.475549676e-06
1.805236391e-12
9.475546222e-06
3.5862337e-12
9.475541698e-06
4.116413717e-12
9.475536391e-06
4.754873664e-12
9.475533192e-06
4.462824227e-12
9.475528113e-06
4.921968742e-12
4.530440436e-12
9.475503858e-06
-9.532454043e-11
-6.758517386e-11
9.47552288e-06
-2.406544405e-11
-1.761332729e-11
9.475545673e-06
-2.603721044e-11
-1.880363176e-11
9.475557535e-06
-1.119218933e-11
-9.1808238e-12
9.475553975e-06
-3.881347417e-12
-6.550930226e-12
9.475552352e-06
1.69912959e-13
-3.723818068e-12
9.475547354e-06
1.546677908e-12
-2.102160814e-12
9.475542193e-06
4.244053875e-12
1.210214347e-12
9.475537978e-06
5.232874658e-12
1.589990776e-12
9.475533163e-06
4.757333317e-12
2.852343955e-12
9.475530595e-06
4.613969332e-12
2.663930689e-12
9.475525473e-06
4.661735908e-12
2.875978174e-12
9.475523962e-06
4.708692122e-12
3.094478871e-12
9.475519059e-06
6.08137503e-12
3.245786621e-12
6.434464828e-12
4.293078761e-12
9.475515517e-06
-1.30530598e-10
9.475516233e-06
-3.589786941e-11
-9.507044882e-12
9.475527773e-06
-4.03201153e-11
-2.179489616e-11
9.475524552e-06
-1.449720098e-11
-9.764101289e-12
9.475514632e-06
-7.140556416e-13
-4.093077719e-12
9.475503327e-06
6.784981756e-12
1.144559124e-13
9.475496384e-06
1.011804923e-11
2.400980707e-12
9.475491408e-06
9.680644521e-12
4.540233015e-12
9.475487251e-06
9.453893853e-12
3.729595134e-12
9.475485546e-06
9.391457544e-12
4.648912673e-12
9.475484034e-06
8.203309686e-12
5.289361823e-12
9.475483633e-06
8.014672638e-12
4.463774443e-12
9.475485043e-06
7.448196336e-12
5.64682869e-12
9.475483471e-06
8.164654655e-12
5.231415411e-12
6.0814007e-12
3.820231439e-12
9.475631372e-06
-4.22096687e-12
-3.404677292e-12
9.475594394e-06
-2.334122275e-11
-2.309991566e-11
9.475552289e-06
3.643764872e-12
4.803588791e-12
9.47552322e-06
1.362685781e-11
1.474622413e-11
9.475503215e-06
1.283554709e-11
1.175915025e-11
9.475493972e-06
1.179027822e-11
1.128689994e-11
9.475492978e-06
1.091638466e-11
9.127479582e-12
9.475493163e-06
9.424004198e-12
6.930013036e-12
9.475496875e-06
9.14704764e-12
7.390087236e-12
9.47549968e-06
6.720811699e-12
6.949855072e-12
9.475501794e-06
5.112019837e-12
4.764811872e-12
9.475507465e-06
5.418148997e-12
6.491214351e-12
9.475507313e-06
5.493557252e-12
5.31224893e-12
5.277073215e-12
4.423520935e-12
9.475591583e-06
6.575769511e-11
1.880880601e-10
9.475523882e-06
1.295672649e-11
-1.742886052e-11
9.475479139e-06
1.870646306e-11
2.397446814e-11
9.475451437e-06
1.595564815e-11
3.25613898e-11
9.475443404e-06
9.798262301e-12
2.548378783e-11
9.4754466e-06
7.856515583e-12
1.995421858e-11
9.47545292e-06
5.292269615e-12
1.322221484e-11
9.47546107e-06
4.26401609e-12
9.400977469e-12
9.475467605e-06
2.811881463e-12
5.800654107e-12
9.475473597e-06
1.845680454e-12
3.551731348e-12
9.475482019e-06
1.507173228e-12
4.246074431e-12
9.475488069e-06
2.108774327e-12
3.111602495e-12
9.475493861e-06
1.934291698e-12
4.952145252e-12
1.933519695e-12
6.148111036e-12
9.475719694e-06
-6.470982949e-11
9.213061162e-10
9.475499416e-06
-1.280602396e-11
2.855708529e-10
9.475432018e-06
-1.745991541e-11
1.426388252e-10
9.475415245e-06
-1.675753855e-11
8.777507272e-11
9.475422706e-06
-9.866222907e-12
4.606425791e-11
9.475434945e-06
-6.99429971e-12
2.448264805e-11
9.475447171e-06
-5.024211482e-12
1.301792912e-11
9.475459336e-06
-3.036167946e-12
6.147604627e-12
9.475469568e-06
-2.249695697e-12
5.322161926e-12
9.475475816e-06
-5.706003156e-13
3.367985794e-12
9.475483546e-06
-3.718598791e-13
3.528029626e-12
9.475489831e-06
-1.74788533e-12
1.386897692e-12
9.475497041e-06
-1.50647032e-12
5.06710227e-12
-1.01857006e-12
4.794759007e-12
9.475655098e-06
6.433285956e-12
1.858804168e-10
9.475590712e-06
2.470338118e-11
-1.82491274e-11
9.47554462e-06
-3.41105688e-12
2.514604028e-11
9.475518798e-06
-1.29644552e-11
3.490172767e-11
9.47550975e-06
-1.372977903e-11
2.581573419e-11
9.475511862e-06
-1.203248749e-11
1.949434151e-11
9.47551853e-06
-9.661181119e-12
1.340830576e-11
9.475524759e-06
-8.347369639e-12
8.492838735e-12
9.475532551e-06
-6.805153328e-12
6.980368763e-12
9.475540419e-06
-5.439957614e-12
4.335826802e-12
9.47554682e-06
-4.39803258e-12
3.789334975e-12
9.475554107e-06
-3.940552381e-12
4.947326578e-12
9.475560445e-06
-5.572370563e-12
5.765295201e-12
-5.925282709e-12
5.722221512e-12
9.475654429e-06
3.786651034e-11
-5.90021097e-12
9.475617845e-06
4.204163431e-11
-2.332123316e-11
9.475575217e-06
1.45943378e-11
5.394620866e-12
9.475547536e-06
6.585843323e-13
1.440675247e-11
9.475530433e-06
-4.804925237e-12
1.481098211e-11
9.47552251e-06
-6.533901101e-12
1.357456021e-11
9.475519261e-06
-6.846394767e-12
1.120390398e-11
9.475519284e-06
-7.853290196e-12
9.559315603e-12
9.475521158e-06
-7.26531696e-12
7.942013104e-12
9.475524804e-06
-6.137116233e-12
6.473987284e-12
9.47552804e-06
-6.73076797e-12
5.031360471e-12
9.475532439e-06
-5.971330495e-12
4.263295679e-12
9.475534706e-06
-6.912036457e-12
5.189390463e-12
-7.784370533e-12
5.686869589e-12
9.475600122e-06
2.548246613e-11
-9.847322846e-12
9.475609062e-06
2.691403668e-11
-2.169549532e-11
9.475604973e-06
1.163645437e-11
-1.039332271e-11
9.475597153e-06
5.199807303e-12
-1.486528246e-12
9.475589339e-06
7.217701449e-13
1.324311133e-12
9.475579853e-06
-3.8637412e-12
2.679395347e-12
9.475573769e-06
-4.659045858e-12
3.972671382e-12
9.475569925e-06
-3.098915728e-12
4.636298391e-12
9.475568365e-06
-3.006198757e-12
4.573574191e-12
9.475566395e-06
-3.21195932e-12
4.466571132e-12
9.475564443e-06
-3.390792885e-12
4.428312703e-12
9.475565588e-06
-3.250992342e-12
3.912540927e-12
9.475561541e-06
-5.792765728e-12
5.27767911e-12
-3.091909609e-12
5.474358224e-12
9.475557025e-06
-1.83564246e-11
9.475577378e-06
-1.858762211e-11
9.475588435e-06
-1.05080314e-11
9.475590379e-06
-4.663066185e-12
9.47558706e-06
-1.884774943e-12
9.475581866e-06
7.04738294e-13
9.475577603e-06
1.410397994e-12
9.475569416e-06
-3.769849533e-13
9.475565427e-06
1.458714924e-12
9.475563129e-06
1.568308002e-12
9.475561505e-06
3.288615353e-12
9.475558142e-06
3.410335838e-12
9.475554763e-06
3.885088869e-12
4.077964751e-12
9.47557554e-06
-1.427002222e-10
-6.637294976e-11
9.47557633e-06
-6.702873053e-12
-1.065969267e-11
9.475596454e-06
-3.001028028e-11
-7.434633139e-12
9.475599248e-06
-1.164802782e-11
-2.814805677e-12
9.475595245e-06
-6.428472659e-13
9.022475112e-15
9.475589055e-06
5.154266492e-12
1.627036915e-13
9.475581846e-06
7.15225692e-12
1.19563204e-14
9.475573379e-06
7.344314354e-12
-2.774839373e-13
9.475569517e-06
6.688650701e-12
2.844328379e-12
9.475564856e-06
6.414933464e-12
3.45566291e-12
9.47556049e-06
6.673230929e-12
2.834518813e-12
9.475557489e-06
5.607337101e-12
2.125919439e-12
9.475556534e-06
6.42759353e-12
2.721981796e-12
9.475554512e-06
7.674743465e-12
1.874561105e-12
6.067899453e-12
1.449212515e-12
9.475657742e-06
-3.398396263e-10
-1.349234656e-10
9.475601858e-06
3.098212114e-11
9.978591782e-12
9.475603159e-06
-4.724990104e-11
-4.180711884e-12
9.475591542e-06
-7.79506487e-12
-3.056550039e-13
9.475578706e-06
1.204797273e-11
1.843619786e-12
9.47556621e-06
1.501163157e-11
1.979851289e-12
9.47555898e-06
1.748939842e-11
2.171311973e-12
9.475553551e-06
1.470043578e-11
2.309780911e-12
9.47555226e-06
1.294778702e-11
4.26044067e-12
9.47555206e-06
1.032238188e-11
3.380099561e-12
9.475551786e-06
8.906919819e-12
1.528230649e-12
9.475554404e-06
7.805158951e-12
2.838825095e-12
9.475553546e-06
7.21037409e-12
1.067582247e-12
9.475556922e-06
8.517850103e-12
1.642001985e-12
6.581638086e-12
1.375345927e-12
9.475871815e-06
-4.103737097e-10
9.475645146e-06
1.862555404e-10
6.610974724e-11
9.475579963e-06
-1.832304932e-11
1.277284855e-11
9.475531117e-06
2.20797538e-11
1.771200089e-11
9.475505218e-06
3.241525238e-11
1.379847902e-11
9.475500199e-06
2.622560978e-11
9.875195993e-12
9.475501051e-06
2.063416188e-11
7.249584031e-12
9.475507341e-06
1.502721798e-11
4.891499693e-12
9.475516783e-06
1.19355166e-11
3.281451674e-12
9.475526511e-06
7.845138284e-12
3.423939806e-12
9.475531234e-06
4.257689627e-12
1.308971621e-12
9.475540531e-06
4.180539474e-12
7.502889914e-13
9.475544472e-06
2.508136871e-12
-5.030741079e-14
9.47555071e-06
5.266871118e-12
1.941397074e-12
6.573670042e-12
2.282351208e-12
9.475325443e-06
4.202765655e-10
4.204389969e-10
9.475340509e-06
-2.573003399e-11
-2.378671568e-11
9.47535555e-06
1.834853644e-11
1.8973946e-11
9.475372467e-06
2.379770964e-11
2.360378742e-11
9.475398179e-06
1.307797203e-11
1.314409411e-11
9.475422755e-06
7.535874086e-12
7.305834336e-12
9.475444375e-06
5.138364034e-12
4.40396336e-12
9.475459551e-06
2.52817499e-12
1.010753331e-12
9.475473216e-06
3.597942837e-12
2.056370425e-12
9.475483143e-06
2.558669782e-12
7.988813703e-13
9.475492032e-06
2.566665658e-12
4.094422722e-13
9.475500464e-06
7.064031668e-13
5.684122858e-13
9.475509591e-06
2.290525841e-12
2.666272135e-12
1.989155761e-12
2.699877488e-12
9.475264109e-06
-4.205171922e-10
3.229631817e-09
9.475280837e-06
2.505865718e-11
2.260921966e-10
9.475381048e-06
-1.695563669e-11
8.237453444e-11
9.475454834e-06
-2.34972009e-11
6.156693667e-11
9.475506775e-06
-1.304904849e-11
2.351615244e-11
9.475540002e-06
-8.369394246e-12
7.35732149e-12
9.475560114e-06
-5.397892763e-12
3.60660877e-12
9.475576832e-06
-2.16408457e-12
1.698262658e-12
9.475586929e-06
-1.870644017e-12
-4.973750142e-13
9.475595039e-06
-1.494924689e-12
-1.331180893e-12
9.475600026e-06
-6.972411398e-13
1.571393305e-14
9.475606859e-06
9.378299181e-13
9.026222978e-13
9.475614967e-06
-1.77924467e-12
1.340570199e-12
-7.722261587e-13
2.375250987e-13
9.475383635e-06
-1.864376388e-10
4.218447755e-10
9.47539967e-06
1.976123799e-11
-2.284267223e-11
9.475410984e-06
-2.460502195e-11
1.776938532e-11
9.475430936e-06
-3.284395568e-11
2.33858032e-11
9.475457845e-06
-2.429416025e-11
1.31000383e-11
9.475482156e-06
-1.841580973e-11
8.134226356e-12
9.47550062e-06
-1.313072123e-11
4.862323635e-12
9.475519696e-06
-8.403210551e-12
2.949727063e-12
9.475532916e-06
-6.437777345e-12
2.748531061e-12
9.475541308e-06
-4.457752121e-12
8.124426707e-13
9.475551398e-06
-3.537952624e-12
8.977728183e-13
9.475557271e-06
-4.986144017e-12
1.54448309e-12
9.475569674e-06
-6.408958918e-12
3.247928605e-12
-6.168916529e-12
2.635369e-12
9.475650395e-06
-2.811323946e-11
6.647913559e-11
9.475580834e-06
4.8587132e-11
1.312393336e-11
9.475535283e-06
8.271890006e-12
1.845644876e-11
9.475509203e-06
-9.466249428e-12
1.601547676e-11
9.475499821e-06
-1.463497824e-11
1.089233107e-11
9.475501365e-06
-1.548474481e-11
6.464517277e-12
9.475508446e-06
-1.34006805e-11
3.719663348e-12
9.475514108e-06
-1.184448912e-11
3.032135604e-12
9.475523021e-06
-9.102219428e-12
2.386370906e-12
9.475529563e-06
-6.875788363e-12
2.256547719e-12
9.475535199e-06
-7.337563671e-12
2.19100032e-12
9.475542576e-06
-5.89399932e-12
2.615591626e-12
9.475549847e-06
-5.907364085e-12
3.778218028e-12
-7.817925616e-12
3.068199324e-12
9.475542032e-06
8.300648583e-12
8.99460168e-12
9.475541248e-06
3.082354374e-11
-3.179333403e-12
9.475531051e-06
1.111574897e-11
1.05272269e-12
9.475515378e-06
1.089744459e-12
3.46901741e-12
9.475504985e-06
-3.273111525e-12
2.916414946e-12
9.475497165e-06
-6.030662491e-12
2.638867825e-12
9.475494119e-06
-7.101131821e-12
1.477963367e-12
9.475490828e-06
-8.591109711e-12
3.292420456e-12
9.475490196e-06
-6.64055741e-12
4.216634145e-12
9.475491296e-06
-5.260575872e-12
2.428038885e-12
9.475492272e-06
-4.215030749e-12
1.895741119e-12
9.475495246e-06
-3.309214817e-12
4.395426769e-12
9.475492258e-06
-7.710213171e-12
2.175277909e-12
-4.509222612e-12
1.999600852e-12
9.475576509e-06
-1.0841052e-11
9.475593512e-06
-8.788648115e-12
9.475599007e-06
-3.365231263e-12
9.475595741e-06
2.930993653e-13
9.475588697e-06
-4.349900407e-13
9.47558245e-06
5.071913482e-13
9.475573592e-06
1.240778446e-12
9.475569666e-06
2.074048786e-12
9.475564985e-06
2.330184467e-12
9.475560444e-06
1.868237768e-12
9.475555591e-06
2.440698151e-12
9.475553418e-06
1.957848914e-12
9.475553598e-06
2.903654113e-12
1.307340815e-12
9.475610824e-06
-3.813737794e-10
6.74278901e-11
9.475588817e-06
3.50920992e-12
1.030187847e-11
9.475587853e-06
-1.158355454e-11
7.881665177e-12
9.475574565e-06
4.115617867e-12
1.897413495e-12
9.475558981e-06
1.170066022e-11
-1.320936639e-12
9.475549798e-06
1.252426882e-11
1.818096316e-13
9.475542224e-06
1.220256576e-11
-7.043297153e-13
9.4755355e-06
1.127375589e-11
3.279376514e-13
9.475526806e-06
8.388510051e-12
-1.79069996e-12
9.475521281e-06
6.186440908e-12
-2.948749783e-12
9.475518361e-06
4.260630794e-12
-3.275383811e-12
9.475518669e-06
5.425121793e-12
-2.054816829e-12
9.475516989e-06
5.885903212e-12
-2.523438794e-12
9.475514915e-06
6.732172843e-12
-2.61142239e-12
5.086707171e-12
-1.748464384e-12
9.47581086e-06
-1.078027437e-09
1.359073337e-10
9.475647804e-06
1.819759797e-10
-1.003130257e-11
9.475593385e-06
3.582759948e-11
3.358395314e-12
9.475561357e-06
4.027093406e-11
3.004269854e-13
9.475539782e-06
4.105387083e-11
-1.710741989e-12
9.475527201e-06
2.95375739e-11
-1.885156515e-12
9.475523179e-06
2.318923343e-11
-1.884268755e-12
9.475521794e-06
1.670299141e-11
-2.241816603e-12
9.475519314e-06
1.01922771e-11
-2.355359444e-12
9.475520139e-06
9.116305148e-12
-1.727166501e-12
9.475523883e-06
7.819627569e-12
-3.180440788e-13
9.475526543e-06
5.674400616e-12
-2.791366926e-12
9.475529882e-06
5.062138632e-12
-3.115648203e-12
9.475531844e-06
8.126192961e-12
-2.658507326e-12
7.008000972e-12
-1.591915107e-12
9.47633723e-06
-2.952962306e-09
4.111096612e-10
9.475727336e-06
9.191582326e-10
-6.680370567e-11
9.475507918e-06
2.856515966e-10
-1.519372221e-11
9.475438793e-06
1.424130054e-10
-1.922089256e-11
9.475424761e-06
8.850055751e-11
-1.562697403e-11
9.475430781e-06
4.617000836e-11
-1.104816373e-11
9.475445087e-06
2.51338912e-11
-8.875761387e-12
9.475458653e-06
1.356357999e-11
-4.832258035e-12
9.475471421e-06
8.325914361e-12
-2.583631661e-12
9.475481279e-06
5.413256207e-12
-2.356513987e-12
9.475490865e-06
3.401990885e-12
-2.824757491e-12
9.475498958e-06
3.328078257e-12
-3.186934143e-12
9.475505628e-06
2.336464962e-12
-2.411715935e-12
9.475511763e-06
5.123666742e-12
-2.622199117e-12
6.524187638e-12
-2.314974209e-12
9.476710318e-06
7.236989338e-10
9.475249414e-06
3.228171346e-09
-4.225349112e-10
9.475267474e-06
2.235820969e-10
2.382733874e-11
9.475369675e-06
8.189973212e-11
-1.780227402e-11
9.475444663e-06
6.155166095e-11
-2.324921883e-11
9.47549431e-06
2.329285425e-11
-1.310994142e-11
9.475528299e-06
8.22584564e-12
-9.024625377e-12
9.47555261e-06
4.708349989e-12
-4.850341966e-12
9.475569344e-06
2.47229163e-12
-1.618736249e-12
9.475577205e-06
1.11208189e-12
-1.244630735e-12
9.475583952e-06
-6.291660361e-13
-8.041962881e-13
9.475590338e-06
1.54193692e-12
-1.430204323e-12
9.475599471e-06
1.370198707e-12
-1.611643321e-12
9.47560981e-06
8.427256597e-13
-2.860425732e-12
-4.879037216e-13
-2.346679518e-12
9.509408683e-06
-3.228733702e-09
-3.228660954e-09
9.510342308e-06
-2.242553979e-10
-2.245473138e-10
9.510698315e-06
-8.070436673e-11
-8.130777304e-11
9.510970376e-06
-6.220167354e-11
-6.093983332e-11
9.511086842e-06
-2.327535002e-11
-2.270726227e-11
9.51115121e-06
-7.541169998e-12
-7.886362024e-12
9.51118514e-06
-4.42503945e-12
-4.635432032e-12
9.511216053e-06
-7.815211771e-13
-4.201351727e-13
9.511243045e-06
1.368988467e-13
7.229629518e-13
9.511271464e-06
5.808253399e-13
1.253247638e-12
9.511298562e-06
1.225764231e-13
-1.325745621e-13
9.5113295e-06
2.62598773e-13
-1.606523568e-12
9.511364461e-06
-5.307996346e-13
-1.575138488e-12
9.471505247e-13
-2.572720272e-13
9.475237411e-06
-9.20665393e-10
-4.21370413e-10
9.475252795e-06
-2.842906005e-10
2.400631932e-11
9.475353637e-06
-1.42950704e-10
-1.727276105e-11
9.475428822e-06
-8.746207644e-11
-2.281583823e-11
9.475478694e-06
-4.44934452e-11
-1.320633562e-11
9.47551386e-06
-2.380546848e-11
-7.92072285e-12
9.475535924e-06
-1.346217977e-11
-3.481736136e-12
9.475550866e-06
-6.68628191e-12
-2.579681629e-12
9.475558872e-06
-5.472104974e-12
-2.025948352e-12
9.475567146e-06
-2.365412871e-12
-1.000264075e-12
9.475572617e-06
-1.945209916e-12
-6.412731474e-13
9.475582191e-06
-2.114445876e-12
-2.231318824e-12
9.475591498e-06
-5.100133714e-12
-3.392744869e-12
-5.256644033e-12
-3.245682097e-12
9.475741034e-06
-1.791807825e-10
-6.46899542e-11
9.475519349e-06
-3.36025334e-11
-1.308173642e-11
9.475450618e-06
-3.817841306e-11
-1.800531332e-11
9.475434645e-06
-3.982106667e-11
-1.581637491e-11
9.475440566e-06
-2.964284268e-11
-1.156421983e-11
9.475454348e-06
-2.130056649e-11
-7.380142362e-12
9.475469406e-06
-1.476839756e-11
-4.770846984e-12
9.475481603e-06
-1.060522749e-11
-4.277801725e-12
9.475490708e-06
-6.862364714e-12
-2.366778256e-12
9.475497638e-06
-5.437966783e-12
-9.533813268e-13
9.475507843e-06
-5.296262973e-12
-1.079010826e-12
9.4755147e-06
-3.95167499e-12
-1.681124305e-12
9.47552053e-06
-7.174989246e-12
-3.708747362e-12
-8.074540789e-12
-3.20845318e-12
9.4756533e-06
-1.874383046e-12
-1.051126176e-11
9.47559968e-06
1.083118483e-11
2.784469115e-12
9.475567981e-06
-6.94660531e-12
7.400786293e-13
9.475547013e-06
-1.21359448e-11
-2.883097403e-12
9.475535143e-06
-1.145067301e-11
-3.363348825e-12
9.475529126e-06
-9.739151517e-12
-2.421671352e-12
9.475527874e-06
-8.701922339e-12
-2.676935673e-12
9.47552786e-06
-8.960033697e-12
-3.825924377e-12
9.47552705e-06
-7.011050387e-12
-3.664574257e-12
9.47552836e-06
-5.989606418e-12
-4.570785633e-13
9.475533441e-06
-4.084530113e-12
-5.661461864e-13
9.475534273e-06
-5.385027413e-12
-2.704593285e-12
9.475537044e-06
-6.526752775e-12
-3.372112413e-12
-5.286091514e-12
-2.298597807e-12
9.475597352e-06
1.004022033e-11
9.475595965e-06
8.818904544e-12
9.475586874e-06
4.586593891e-12
9.475571439e-06
1.275053175e-12
9.475560276e-06
-4.543765691e-13
9.475551418e-06
-6.965294746e-13
9.475544644e-06
-1.186977595e-12
9.475537825e-06
-1.156725027e-12
9.47553361e-06
-1.904271803e-12
9.475533204e-06
-1.099822034e-12
9.475529238e-06
-5.390608408e-13
9.47552878e-06
-6.77830243e-13
9.475529009e-06
-2.736877896e-12
-1.688204596e-12
9.475488211e-06