/*--------------------------------*- C++ -*----------------------------------*\
| =========                 |                                                 |
| \\      /  F ield         | OpenFOAM: The Open Source CFD Toolbox           |
|  \\    /   O peration     | Version:  4.x                                   |
|   \\  /    A nd           | Web:      www.OpenFOAM.org                      |
|    \\/     M anipulation  |                                                 |
\*---------------------------------------------------------------------------*/
FoamFile
{
    version     2.0;
    format      ascii;
    class       volScalarField;
    location    "7000";
    object      rho;
}
// * * * * * * * * * * * * * * * * * * * * * * * * * * * * * * * * * * * * * //

dimensions      [1 -3 0 0 0 0 0];

internalField   nonuniform List<scalar> 
1174
(
0.2790919685
0.2790922457
0.2790926244
0.2790931156
0.2790937351
0.2790944565
0.2790952933
0.2790961498
0.2790970555
0.2790979466
0.2790988469
0.2790997645
0.279100597
0.2791012673
0.2790912463
0.2790916851
0.2790922213
0.2790929532
0.2790937589
0.2790947386
0.2790956791
0.2790966571
0.2790976325
0.2790985922
0.2790995438
0.2791004071
0.2791011908
0.279101801
0.279093111
0.2790939361
0.2790949292
0.2790960056
0.2790972042
0.2790983871
0.2790995607
0.2791006678
0.2791017314
0.2791027109
0.279103587
0.2791043861
0.2791050864
0.2791056571
0.2790944758
0.2790957055
0.2790971209
0.2790986083
0.2791001106
0.2791015296
0.2791028455
0.2791040566
0.279105107
0.2791060384
0.279106793
0.2791074648
0.2791080357
0.2791084249
0.2790950744
0.2790965789
0.279098161
0.2790997743
0.2791012867
0.2791027687
0.2791040228
0.2791051468
0.2791061905
0.2791070342
0.2791078089
0.2791083794
0.2791089013
0.2791091895
0.2790937853
0.2790949847
0.2790963948
0.2790978986
0.2790993551
0.2791007659
0.2791020613
0.2791032449
0.2791042826
0.2791052383
0.2791060384
0.2791066839
0.2791072488
0.2791076849
0.2790925019
0.2790932731
0.2790942734
0.2790953839
0.2790965533
0.2790977536
0.2790989353
0.2791000678
0.2791010941
0.2791020916
0.2791029928
0.2791037979
0.2791045253
0.2791049982
0.279092292
0.2790927811
0.2790933618
0.2790940951
0.279094912
0.2790958405
0.2790967944
0.279097784
0.279098779
0.2790997339
0.2791006541
0.2791015173
0.2791023285
0.2791029165
0.2790919626
0.279092248
0.2790926424
0.2790931694
0.2790938115
0.2790945421
0.2790953738
0.2790962212
0.2790971403
0.2790980742
0.2790989809
0.2790998762
0.2791007073
0.2791013275
0.2790917264
0.2790920069
0.2790924611
0.2790930389
0.2790937636
0.2790945883
0.2790954718
0.2790964367
0.2790974348
0.279098422
0.2790993781
0.2791002885
0.2791011249
0.2791019234
0.2791025325
0.2790947209
0.2790954847
0.2790964754
0.2790975438
0.2790986257
0.2790997802
0.2791009128
0.2791019583
0.2791029787
0.279103901
0.2791047711
0.2791055357
0.2791061961
0.2791067197
0.2790955434
0.2790970728
0.2790986664
0.2791002916
0.2791018459
0.2791032218
0.2791044043
0.2791054565
0.2791063087
0.2791070744
0.2791077138
0.2791082596
0.2791086785
0.2791089793
0.2790963718
0.2790988949
0.279101307
0.2791034661
0.2791051869
0.2791065703
0.2791075944
0.2791083898
0.279108959
0.2791094217
0.2791097435
0.2791099103
0.2791100816
0.2791101488
0.2790978151
0.2791008857
0.2791034864
0.2791055329
0.2791071052
0.2791082935
0.2791090835
0.2791096489
0.2791100102
0.2791102212
0.2791103315
0.2791104187
0.2791104096
0.2791104264
0.2790967067
0.2790993091
0.2791017275
0.2791038493
0.2791055942
0.2791069785
0.2791080325
0.2791088195
0.2791094157
0.2791097945
0.2791101171
0.2791103003
0.279110433
0.2791104871
0.2790947371
0.2790962659
0.2790979366
0.2790995622
0.2791010973
0.279102444
0.2791036761
0.27910473
0.2791056184
0.2791063373
0.2791069284
0.2791074771
0.2791079162
0.2791082235
0.2790918235
0.2790926362
0.2790935798
0.2790946491
0.2790957587
0.2790969112
0.2790980312
0.2790990433
0.2791000231
0.2791009898
0.279101815
0.2791026244
0.2791033043
0.2791037893
0.279092097
0.2790925519
0.2790931843
0.2790938958
0.2790947546
0.279095677
0.2790966518
0.279097601
0.2790985562
0.2790995033
0.2791003893
0.2791012498
0.2791019789
0.2791025615
0.2790920241
0.2790925978
0.279093385
0.2790943407
0.2790954443
0.2790966652
0.2790978625
0.2790990166
0.2791001565
0.2791011763
0.2791021324
0.2791030295
0.2791038053
0.2791044957
0.2791049992
0.2790917503
0.2790929891
0.2790945423
0.279096194
0.2790978239
0.2790994016
0.2791008108
0.2791020184
0.27910303
0.2791039307
0.2791046839
0.2791053373
0.2791058552
0.2791063067
0.2791065649
0.2790983851
0.2791015943
0.2791044924
0.2791068711
0.2791086383
0.2791099478
0.2791108394
0.2791113758
0.2791116794
0.279111817
0.2791118626
0.2791117849
0.2791116875
0.2791115799
0.2791075433
0.2791130052
0.2791167192
0.2791189434
0.2791199987
0.2791202218
0.279119895
0.2791193069
0.2791185784
0.279117802
0.2791170075
0.2791162473
0.2791155359
0.2791150127
0.2791202888
0.2791257705
0.2791281225
0.2791285416
0.2791278311
0.2791266295
0.2791251849
0.2791237294
0.2791222008
0.2791207814
0.2791195398
0.2791184311
0.2791173978
0.2791166738
0.2791094747
0.279114913
0.2791186942
0.2791208889
0.2791219588
0.2791221564
0.2791218484
0.2791212605
0.2791205372
0.2791197004
0.2791189005
0.2791181711
0.2791174857
0.2791169801
0.2790990889
0.2791022986
0.2791052223
0.2791075726
0.2791093538
0.2791107063
0.2791115682
0.2791121106
0.2791124414
0.2791125935
0.2791126376
0.2791125662
0.2791124878
0.2791124338
0.2790954467
0.2790969269
0.2790986312
0.2791002517
0.2791018752
0.2791032611
0.2791044636
0.2791055351
0.2791064315
0.2791071379
0.2791078039
0.2791083043
0.2791087068
0.2791089731
0.2790935652
0.2790943515
0.2790953366
0.2790964116
0.2790976222
0.279098838
0.2790999904
0.2791011387
0.2791021919
0.2791031263
0.2791040636
0.2791048453
0.279105571
0.2791061043
0.279093636
0.2790945927
0.2790958486
0.2790972645
0.2790987179
0.2791001723
0.2791015726
0.2791028756
0.2791040369
0.2791050986
0.2791060096
0.2791068169
0.2791075089
0.2791080564
0.2791084273
0.2790956029
0.2790979163
0.2791004831
0.2791029275
0.2791050432
0.2791067826
0.2791081722
0.2791092284
0.2791100098
0.2791106111
0.2791110241
0.2791113256
0.2791115123
0.2791116571
0.2791117218
0.2791025305
0.2791092109
0.2791146724
0.2791183821
0.2791206149
0.2791216494
0.2791218995
0.2791215969
0.2791210003
0.2791202928
0.2791195343
0.2791187066
0.2791179435
0.2791172752
0.2791167297
0.2791410901
0.2791479862
0.2791491163
0.2791471513
0.2791437886
0.2791400339
0.2791363297
0.2791329633
0.2791299235
0.2791272761
0.2791249569
0.2791229747
0.2791213128
0.2791201097
0.2792101407
0.2792014708
0.2791882827
0.2791755573
0.2791647877
0.2791560324
0.2791489414
0.2791431992
0.2791385545
0.2791347112
0.2791315207
0.2791288543
0.279126688
0.27912512
0.2791428184
0.2791496608
0.2791508582
0.2791488616
0.2791455138
0.2791417815
0.2791380561
0.279134671
0.27913165
0.2791290229
0.2791267086
0.2791247475
0.2791230871
0.2791219059
0.2791092874
0.2791147594
0.2791184494
0.279120655
0.2791216897
0.2791218881
0.2791216034
0.2791209876
0.2791202584
0.2791194524
0.2791186633
0.2791178774
0.2791171802
0.2791166375
0.2790961888
0.2790987191
0.2791011268
0.2791032183
0.2791049489
0.279106345
0.2791074218
0.279108202
0.2791088274
0.2791092361
0.2791095443
0.2791097227
0.2791098792
0.2791099534
0.2790945049
0.2790957636
0.2790971675
0.2790987309
0.2791002006
0.2791015992
0.2791029135
0.2791040876
0.2791051232
0.2791060292
0.2791068098
0.2791074836
0.2791080451
0.2791084741
0.2790929883
0.279094177
0.2790956484
0.2790972821
0.2790988889
0.2791004107
0.2791018186
0.2791031319
0.2791042898
0.2791052389
0.2791060838
0.279106808
0.2791074172
0.2791078999
0.2791082556
0.27909646
0.2790996753
0.2791027196
0.2791052815
0.2791073443
0.2791089421
0.2791100893
0.2791109319
0.2791114752
0.2791118324
0.2791120495
0.2791121999
0.2791122172
0.2791122079
0.2791121867
0.2791110381
0.2791206703
0.2791260725
0.2791284137
0.2791288063
0.2791281186
0.2791268915
0.2791254562
0.2791239956
0.2791225574
0.2791211874
0.2791199241
0.2791187876
0.2791178017
0.2791170691
0.279198
0.2792097121
0.2792011653
0.2791879188
0.2791752696
0.2791644917
0.2791556673
0.2791485753
0.2791428454
0.2791382192
0.2791343907
0.279131237
0.2791285955
0.2791264341
0.2791248804
0.2805391262
0.2803945714
0.2803149166
0.280268569
0.2802401758
0.2802218318
0.2802094832
0.2802007978
0.2801944827
0.2801898119
0.2801862893
0.280183631
0.280181559
0.2801804059
0.2792093108
0.2792007198
0.2791874861
0.279174776
0.2791640097
0.2791552277
0.2791481215
0.2791423763
0.2791377075
0.2791338682
0.279130752
0.2791281093
0.2791259765
0.2791244274
0.2791210176
0.2791264506
0.2791287133
0.2791291302
0.2791284434
0.2791272372
0.2791257835
0.2791242923
0.2791228353
0.2791214984
0.2791202183
0.2791191079
0.279118118
0.2791174154
0.2790998362
0.2791028813
0.279105489
0.2791075898
0.2791091802
0.279110301
0.2791111298
0.2791116778
0.2791120358
0.2791122757
0.279112359
0.2791124379
0.2791124294
0.2791124364
0.2790944778
0.2790959166
0.2790975091
0.2790991752
0.2791007193
0.2791021718
0.2791034762
0.2791046006
0.2791056391
0.2791064786
0.279107189
0.2791077867
0.2791082904
0.2791086848
0.2790911478
0.2790920753
0.2790933272
0.2790947161
0.279096208
0.2790976933
0.2790991238
0.2791004177
0.2791016101
0.2791026985
0.279103634
0.2791044151
0.2791050566
0.2791056124
0.2791060153
0.2790950096
0.279097362
0.279099881
0.2791023091
0.2791043928
0.2791061231
0.2791075289
0.2791085952
0.2791093895
0.279109973
0.2791104008
0.2791106869
0.2791109192
0.2791110603
0.2791110758
0.2791022818
0.2791089454
0.2791144072
0.2791181602
0.2791204016
0.2791214278
0.2791216476
0.2791214073
0.2791208291
0.2791201067
0.2791192781
0.2791184479
0.279117675
0.2791170061
0.2791164347
0.2791270189
0.2791424352
0.2791492961
0.2791504307
0.2791484805
0.2791450751
0.2791412928
0.2791375953
0.2791342092
0.2791311995
0.2791285687
0.2791262089
0.2791242631
0.2791225781
0.2791213327
0.2791954619
0.2792072344
0.2791986581
0.2791854131
0.279172742
0.2791619463
0.2791531781
0.2791460901
0.2791403845
0.2791357442
0.2791319032
0.2791287585
0.2791261475
0.279124037
0.2791224826
0.2791276618
0.2791430644
0.2791499185
0.2791510724
0.2791490667
0.2791457004
0.2791419174
0.2791382167
0.2791347789
0.2791317457
0.2791290763
0.2791268054
0.2791248381
0.2791231536
0.2791218904
0.2791086009
0.2791140362
0.279117791
0.2791199886
0.2791210403
0.2791212977
0.279121034
0.2791204666
0.2791196955
0.2791188603
0.2791180459
0.2791172691
0.2791166392
0.2791160999
0.2790956024
0.2790981503
0.279100606
0.2791027455
0.2791044929
0.2791058749
0.2791069442
0.27910774
0.2791083526
0.2791087811
0.2791090379
0.2791092479
0.2791093617
0.2791094641
0.2790939222
0.2790951713
0.2790965335
0.2790980372
0.2790995294
0.2791009765
0.279102279
0.2791034765
0.2791045462
0.2791054472
0.279106252
0.2791069294
0.2791074516
0.2791078548
0.2790923219
0.2790928969
0.2790937077
0.2790946724
0.2790958514
0.2790970216
0.2790982031
0.2790993702
0.2791005244
0.2791015571
0.2791025283
0.2791033971
0.279104214
0.2791048981
0.2791053947
0.2790943946
0.279095614
0.2790971184
0.2790987942
0.2791003928
0.2791019247
0.2791033103
0.2791045144
0.2791055274
0.2791064022
0.2791071558
0.2791077694
0.279108298
0.2791087605
0.2791090866
0.279095218
0.2790982992
0.2791015336
0.2791044624
0.2791068532
0.2791086359
0.2791099334
0.2791108235
0.2791113077
0.2791116379
0.2791117718
0.2791117847
0.2791117831
0.2791117127
0.2791116161
0.2791018476
0.2791085099
0.279113927
0.2791176553
0.2791198596
0.2791209289
0.2791211515
0.2791208137
0.2791202423
0.2791195075
0.2791187396
0.2791179591
0.2791171935
0.2791165103
0.27911598
0.2791107588
0.27912038
0.2791258204
0.2791281268
0.2791285288
0.2791278253
0.2791266331
0.2791251492
0.2791236547
0.2791221975
0.2791208197
0.2791196036
0.2791184681
0.279117497
0.27911677
0.2791021187
0.279108743
0.2791141856
0.2791179316
0.2791201561
0.2791211839
0.2791214171
0.2791211136
0.2791205174
0.279119797
0.2791189883
0.2791181546
0.2791174251
0.2791167329
0.2791162534
0.2790961934
0.2790992503
0.2791025299
0.2791054579
0.2791078532
0.2791097042
0.2791109835
0.2791118725
0.2791124279
0.2791127241
0.2791128914
0.2791129194
0.2791128945
0.2791128251
0.2791127376
0.2790942933
0.2790958172
0.2790975049
0.2790991075
0.2791006416
0.2791020104
0.2791033
0.2791043308
0.279105227
0.2791059524
0.2791066099
0.279107139
0.2791076041
0.2791078745
0.2790936227
0.2790943763
0.2790953818
0.2790965089
0.2790976969
0.2790989216
0.2791000893
0.2791012103
0.2791022583
0.2791032334
0.2791041083
0.2791049077
0.2791055984
0.2791060943
0.2790917338
0.2790920502
0.2790925165
0.2790930814
0.2790938054
0.2790946686
0.2790955674
0.2790965624
0.2790975312
0.2790985315
0.2790994704
0.2791003776
0.2791012357
0.2791020425
0.2791026556
0.2790928596
0.2790934217
0.2790942122
0.2790952057
0.2790962679
0.2790974528
0.2790986014
0.2790997
0.2791007722
0.2791018006
0.2791027393
0.2791035282
0.2791043023
0.2791049538
0.2791054825
0.279093721
0.279094978
0.2790965358
0.2790982207
0.2790998671
0.2791014382
0.2791028016
0.2791040153
0.2791050499
0.2791059292
0.2791066457
0.2791072782
0.2791077585
0.2791081773
0.2791085224
0.2790940402
0.2790963923
0.2790989591
0.2791013766
0.2791034907
0.2791051934
0.2791065845
0.2791076702
0.2791084753
0.279109049
0.2791094734
0.2791097739
0.2791100105
0.2791101598
0.2791102393
0.2790961277
0.27909937
0.2791024083
0.2791050171
0.2791070728
0.2791086253
0.2791097995
0.2791105982
0.2791111493
0.2791115149
0.2791117304
0.2791118639
0.279111868
0.2791118694
0.2791118711
0.2790944661
0.2790968472
0.2790993866
0.2791018008
0.2791038848
0.2791056328
0.2791069868
0.2791080523
0.2791088515
0.279109463
0.2791098991
0.2791102129
0.2791104284
0.2791105597
0.2791106556
0.2790950832
0.2790963051
0.2790978002
0.2790994948
0.2791011966
0.279102753
0.2791041648
0.2791053717
0.2791063863
0.2791072734
0.2791080197
0.2791086549
0.2791091522
0.2791095669
0.2791098439
0.2790943281
0.2790948704
0.27909568
0.2790966259
0.2790977313
0.2790988401
0.27909998
0.2791011121
0.2791021844
0.2791031882
0.2791041072
0.2791049852
0.2791057661
0.2791064379
0.2791069617
0.2790927002
0.2790931479
0.2790937217
0.2790944599
0.2790952986
0.2790961905
0.279097205
0.2790982177
0.2790992196
0.2791002147
0.2791011258
0.2791019739
0.2791027595
0.27910338
0.2790928232
0.2790929954
0.2790932593
0.2790936556
0.2790941844
0.2790948274
0.2790955564
0.2790964087
0.279097278
0.2790981712
0.2790990916
0.2790999884
0.279100883
0.2791017428
0.2791023727
0.2790915625
0.2790918854
0.2790923433
0.2790929654
0.2790936501
0.2790944728
0.2790953553
0.2790963453
0.2790973619
0.2790983427
0.2790993143
0.2791002566
0.2791011161
0.2791019082
0.2791025225
0.279092422
0.279093032
0.2790938354
0.2790947889
0.279095916
0.2790971112
0.2790982979
0.2790995031
0.2791006183
0.2791016863
0.2791026788
0.279103552
0.2791043598
0.2791050406
0.2791055667
0.2790929954
0.2790939438
0.2790952033
0.2790965758
0.2790980534
0.2790995398
0.2791009713
0.2791022979
0.2791035081
0.2791045482
0.2791054508
0.2791062429
0.2791069381
0.2791075178
0.2791079519
0.2790937077
0.2790949293
0.2790963955
0.279097997
0.2790995811
0.2791011423
0.2791025514
0.2791038344
0.2791049808
0.2791060111
0.2791068349
0.2791075471
0.2791081787
0.2791086609
0.2791089861
0.2790935425
0.2790944988
0.2790957136
0.2790971333
0.279098627
0.2791000972
0.2791015218
0.279102868
0.2791040297
0.2791050687
0.2791060167
0.2791067745
0.2791074252
0.2791079724
0.279108403
0.2790923919
0.2790929632
0.2790937338
0.2790947017
0.2790958219
0.2790970135
0.2790982376
0.2790994174
0.2791005276
0.279101609
0.2791025745
0.2791034523
0.2791042184
0.2791049077
0.2791054149
0.2790913645
0.2790916617
0.2790920969
0.2790926901
0.2790934762
0.2790942962
0.2790952114
0.2790962133
0.2790971768
0.2790981373
0.2790990962
0.2791000076
0.2791008935
0.2791017003
0.2791023359
0.2790922945
0.2790924832
0.2790927298
0.2790931266
0.2790936321
0.279094267
0.2790949857
0.279095779
0.2790966613
0.2790975544
0.279098473
0.2790993845
0.2791002709
0.2791010895
0.2791017461
)
;

boundaryField
{
    top
    {
        type            calculated;
        value           nonuniform List<scalar> 
127
(
0.2790922945
0.2790919626
0.279092097
0.2790935652
0.2790945049
0.2790944778
0.2790939222
0.2790936227
0.2790927002
0.2790924832
0.279092248
0.2790925519
0.2790943515
0.2790957636
0.2790959166
0.2790951713
0.2790943763
0.2790931479
0.2790927298
0.2790926424
0.2790931843
0.2790953366
0.2790971675
0.2790975091
0.2790965335
0.2790953818
0.2790937217
0.2790931266
0.2790931694
0.2790938958
0.2790964116
0.2790987309
0.2790991752
0.2790980372
0.2790965089
0.2790944599
0.2790936321
0.2790938115
0.2790947546
0.2790976222
0.2791002006
0.2791007193
0.2790995294
0.2790976969
0.2790952986
0.279094267
0.2790945421
0.279095677
0.279098838
0.2791015992
0.2791021718
0.2791009765
0.2790989216
0.2790961905
0.2790949857
0.2790953738
0.2790966518
0.2790999904
0.2791029135
0.2791034762
0.279102279
0.2791000893
0.279097205
0.279095779
0.2790962212
0.279097601
0.2791011387
0.2791040876
0.2791046006
0.2791034765
0.2791012103
0.2790982177
0.2790966613
0.2790971403
0.2790985562
0.2791021919
0.2791051232
0.2791056391
0.2791045462
0.2791022583
0.2790992196
0.2790975544
0.2790980742
0.2790995033
0.2791031263
0.2791060292
0.2791064786
0.2791054472
0.2791032334
0.2791002147
0.279098473
0.2790989809
0.2791003893
0.2791040636
0.2791068098
0.279107189
0.279106252
0.2791041083
0.2791011258
0.2790993845
0.2790998762
0.2791012498
0.2791048453
0.2791074836
0.2791077867
0.2791069294
0.2791049077
0.2791019739
0.2791002709
0.2791007073
0.2791019789
0.279105571
0.2791080451
0.2791082904
0.2791074516
0.2791055984
0.2791027595
0.2791010895
0.2791013275
0.2791025615
0.2791061043
0.2791084741
0.2791086848
0.2791078548
0.2791060943
0.27910338
0.2791017461
)
;
    }
    bottom
    {
        type            calculated;
        value           nonuniform List<scalar> 
134
(
0.2790917264
0.2790920241
0.279093636
0.2790929883
0.2790911478
0.2790923219
0.2790917338
0.2790928232
0.2790919685
0.2790920069
0.2790925978
0.2790945927
0.279094177
0.2790920753
0.2790928969
0.2790920502
0.2790929954
0.2790922457
0.2790924611
0.279093385
0.2790958486
0.2790956484
0.2790933272
0.2790937077
0.2790925165
0.2790932593
0.2790926244
0.2790930389
0.2790943407
0.2790972645
0.2790972821
0.2790947161
0.2790946724
0.2790930814
0.2790936556
0.2790931156
0.2790937636
0.2790954443
0.2790987179
0.2790988889
0.279096208
0.2790958514
0.2790938054
0.2790941844
0.2790937351
0.2790945883
0.2790966652
0.2791001723
0.2791004107
0.2790976933
0.2790970216
0.2790946686
0.2790948274
0.2790944565
0.2790954718
0.2790978625
0.2791015726
0.2791018186
0.2790991238
0.2790982031
0.2790955674
0.2790955564
0.2790952933
0.2790964367
0.2790990166
0.2791028756
0.2791031319
0.2791004177
0.2790993702
0.2790965624
0.2790964087
0.2790961498
0.2790974348
0.2791001565
0.2791040369
0.2791042898
0.2791016101
0.2791005244
0.2790975312
0.279097278
0.2790970555
0.279098422
0.2791011763
0.2791050986
0.2791052389
0.2791026985
0.2791015571
0.2790985315
0.2790981712
0.2790979466
0.2790993781
0.2791021324
0.2791060096
0.2791060838
0.279103634
0.2791025283
0.2790994704
0.2790990916
0.2790988469
0.2791002885
0.2791030295
0.2791068169
0.279106808
0.2791044151
0.2791033971
0.2791003776
0.2790999884
0.2790997645
0.2791011249
0.2791038053
0.2791075089
0.2791074172
0.2791050566
0.279104214
0.2791012357
0.279100883
0.279100597
0.2791019234
0.2791044957
0.2791080564
0.2791078999
0.2791056124
0.2791048981
0.2791020425
0.2791017428
0.2791012673
0.2791025325
0.2791049992
0.2791084273
0.2791082556
0.2791060153
0.2791053947
0.2791026556
0.2791023727
)
;
    }
    side-walls
    {
        type            calculated;
        value           nonuniform List<scalar> 
261
(
0.2790919685
0.2790912463
0.279093111
0.2790944758
0.2790950744
0.2790937853
0.2790925019
0.279092292
0.2790919626
0.2790922457
0.2790916851
0.2790939361
0.2790957055
0.2790965789
0.2790949847
0.2790932731
0.2790927811
0.279092248
0.2790926244
0.2790922213
0.2790949292
0.2790971209
0.279098161
0.2790963948
0.2790942734
0.2790933618
0.2790926424
0.2790931156
0.2790929532
0.2790960056
0.2790986083
0.2790997743
0.2790978986
0.2790953839
0.2790940951
0.2790931694
0.2790937351
0.2790937589
0.2790972042
0.2791001106
0.2791012867
0.2790993551
0.2790965533
0.279094912
0.2790938115
0.2790944565
0.2790947386
0.2790983871
0.2791015296
0.2791027687
0.2791007659
0.2790977536
0.2790958405
0.2790945421
0.2790952933
0.2790956791
0.2790995607
0.2791028455
0.2791040228
0.2791020613
0.2790989353
0.2790967944
0.2790953738
0.2790961498
0.2790966571
0.2791006678
0.2791040566
0.2791051468
0.2791032449
0.2791000678
0.279097784
0.2790962212
0.2790970555
0.2790976325
0.2791017314
0.279105107
0.2791061905
0.2791042826
0.2791010941
0.279098779
0.2790971403
0.2790979466
0.2790985922
0.2791027109
0.2791060384
0.2791070342
0.2791052383
0.2791020916
0.2790997339
0.2790980742
0.2790988469
0.2790995438
0.279103587
0.279106793
0.2791078089
0.2791060384
0.2791029928
0.2791006541
0.2790989809
0.2790997645
0.2791004071
0.2791043861
0.2791074648
0.2791083794
0.2791066839
0.2791037979
0.2791015173
0.2790998762
0.279100597
0.2791011908
0.2791050864
0.2791080357
0.2791089013
0.2791072488
0.2791045253
0.2791023285
0.2791007073
0.2791012673
0.279101801
0.2791056571
0.2791084249
0.2791091895
0.2791076849
0.2791049982
0.2791029165
0.2791013275
0.2790928232
0.2790915625
0.279092422
0.2790929954
0.2790937077
0.2790935425
0.2790923919
0.2790913645
0.2790922945
0.2790929954
0.2790918854
0.279093032
0.2790939438
0.2790949293
0.2790944988
0.2790929632
0.2790916617
0.2790924832
0.2790932593
0.2790923433
0.2790938354
0.2790952033
0.2790963955
0.2790957136
0.2790937338
0.2790920969
0.2790927298
0.2790936556
0.2790929654
0.2790947889
0.2790965758
0.279097997
0.2790971333
0.2790947017
0.2790926901
0.2790931266
0.2790941844
0.2790936501
0.279095916
0.2790980534
0.2790995811
0.279098627
0.2790958219
0.2790934762
0.2790936321
0.2790948274
0.2790944728
0.2790971112
0.2790995398
0.2791011423
0.2791000972
0.2790970135
0.2790942962
0.279094267
0.2790955564
0.2790953553
0.2790982979
0.2791009713
0.2791025514
0.2791015218
0.2790982376
0.2790952114
0.2790949857
0.2790964087
0.2790963453
0.2790995031
0.2791022979
0.2791038344
0.279102868
0.2790994174
0.2790962133
0.279095779
0.279097278
0.2790973619
0.2791006183
0.2791035081
0.2791049808
0.2791040297
0.2791005276
0.2790971768
0.2790966613
0.2790981712
0.2790983427
0.2791016863
0.2791045482
0.2791060111
0.2791050687
0.279101609
0.2790981373
0.2790975544
0.2790990916
0.2790993143
0.2791026788
0.2791054508
0.2791068349
0.2791060167
0.2791025745
0.2790990962
0.279098473
0.2790999884
0.2791002566
0.279103552
0.2791062429
0.2791075471
0.2791067745
0.2791034523
0.2791000076
0.2790993845
0.279100883
0.2791011161
0.2791043598
0.2791069381
0.2791081787
0.2791074252
0.2791042184
0.2791008935
0.2791002709
0.2791017428
0.2791019082
0.2791050406
0.2791075178
0.2791086609
0.2791079724
0.2791049077
0.2791017003
0.2791010895
0.2791023727
0.2791025225
0.2791055667
0.2791079519
0.2791089861
0.279108403
0.2791054149
0.2791023359
0.2791017461
)
;
    }
    inlet
    {
        type            calculated;
        value           nonuniform 0();
    }
    outlet
    {
        type            calculated;
        value           nonuniform List<scalar> 
81
(
0.2791012673
0.279101801
0.2791056571
0.2791084249
0.2791091895
0.2791076849
0.2791049982
0.2791029165
0.2791013275
0.2791025325
0.2791067197
0.2791089793
0.2791101488
0.2791104264
0.2791104871
0.2791082235
0.2791037893
0.2791025615
0.2791049992
0.2791065649
0.2791115799
0.2791150127
0.2791166738
0.2791169801
0.2791124338
0.2791089731
0.2791061043
0.2791084273
0.2791117218
0.2791167297
0.2791201097
0.27912512
0.2791219059
0.2791166375
0.2791099534
0.2791084741
0.2791082556
0.2791121867
0.2791170691
0.2791248804
0.2801804059
0.2791244274
0.2791174154
0.2791124364
0.2791086848
0.2791060153
0.2791110758
0.2791164347
0.2791213327
0.2791224826
0.2791218904
0.2791160999
0.2791094641
0.2791078548
0.2791053947
0.2791090866
0.2791116161
0.27911598
0.27911677
0.2791162534
0.2791127376
0.2791078745
0.2791060943
0.2791026556
0.2791054825
0.2791085224
0.2791102393
0.2791118711
0.2791106556
0.2791098439
0.2791069617
0.27910338
0.2791023727
0.2791025225
0.2791055667
0.2791079519
0.2791089861
0.279108403
0.2791054149
0.2791023359
0.2791017461
)
;
    }
    procBoundary1to0
    {
        type            processor;
        value           nonuniform List<scalar> 
97
(
0.2790918069
0.2790918069
0.2790909061
0.2790925388
0.2790935016
0.2790938498
0.2790928663
0.2790919582
0.2790919725
0.2790917324
0.2790915539
0.2790942143
0.2790942143
0.2790942143
0.279094288
0.279094046
0.2790945809
0.2790943039
0.2790934997
0.2790912101
0.2790917674
0.2790916626
0.2790908918
0.2790953151
0.2790953151
0.2790953151
0.2791009268
0.2791107016
0.2791028136
0.2790960128
0.2790942589
0.2790930033
0.2790930501
0.2790938994
0.2790963725
0.2791256874
0.2791256874
0.2791256874
0.279198395
0.279127403
0.2791026163
0.2790938317
0.2790935623
0.2790922223
0.2790937614
0.2790981858
0.2791211444
0.2808167507
0.2808167507
0.2808167507
0.279197579
0.279197579
0.279111391
0.2790965877
0.279093289
0.2790904883
0.2790933071
0.2790961714
0.2791042902
0.2791185798
0.2791049545
0.2791019143
0.2791019143
0.2791019143
0.2790932485
0.2790929316
0.279092027
0.2790935922
0.2790929272
0.279095724
0.2790979088
0.2790959955
0.2790938751
0.2790930518
0.2790930518
0.2790930518
0.2790930629
0.279091533
0.2790925189
0.279092887
0.2790923472
0.2790934397
0.2790927605
0.2790942856
0.2790939451
0.2790923885
0.2790923885
0.2790923885
0.2790927014
0.2790913628
0.2790920825
0.2790923298
0.2790929164
0.2790929287
0.2790920042
0.2790911917
0.2790921805
)
;
    }
}


// ************************************************************************* //
