/*--------------------------------*- C++ -*----------------------------------*\
| =========                 |                                                 |
| \\      /  F ield         | OpenFOAM: The Open Source CFD Toolbox           |
|  \\    /   O peration     | Version:  4.x                                   |
|   \\  /    A nd           | Web:      www.OpenFOAM.org                      |
|    \\/     M anipulation  |                                                 |
\*---------------------------------------------------------------------------*/
FoamFile
{
    version     2.0;
    format      ascii;
    class       volScalarField;
    location    "7000";
    object      T;
}
// * * * * * * * * * * * * * * * * * * * * * * * * * * * * * * * * * * * * * //

dimensions      [0 0 0 1 0 0 0];

internalField   nonuniform List<scalar> 
1174
(
1223.15084
1223.150848
1223.150915
1223.151016
1223.151056
1223.15109
1223.150974
1223.151031
1223.151032
1223.151165
1223.15124
1223.151131
1223.151127
1223.151052
1223.155154
1223.155193
1223.155456
1223.155451
1223.155602
1223.155336
1223.155451
1223.155488
1223.155519
1223.155516
1223.155382
1223.155406
1223.155426
1223.155419
1223.149523
1223.149377
1223.149318
1223.149475
1223.149414
1223.149506
1223.149536
1223.149621
1223.149578
1223.149539
1223.149568
1223.149539
1223.149492
1223.149253
1223.147267
1223.147271
1223.147258
1223.147275
1223.147192
1223.14717
1223.147127
1223.146982
1223.146953
1223.146871
1223.147023
1223.147036
1223.146995
1223.147071
1223.147305
1223.147161
1223.147261
1223.147314
1223.147539
1223.147399
1223.147634
1223.147769
1223.14759
1223.147657
1223.147452
1223.147622
1223.147512
1223.147798
1223.150293
1223.150429
1223.15044
1223.150385
1223.150503
1223.150517
1223.150563
1223.150539
1223.150566
1223.150376
1223.150328
1223.150457
1223.150443
1223.150312
1223.152193
1223.152282
1223.152192
1223.152199
1223.152267
1223.152282
1223.152276
1223.15225
1223.15237
1223.152252
1223.152171
1223.152115
1223.151949
1223.152139
1223.150571
1223.15039
1223.150457
1223.150446
1223.150548
1223.150507
1223.150563
1223.150549
1223.150493
1223.150511
1223.150515
1223.150538
1223.150438
1223.150528
1223.150865
1223.150837
1223.150836
1223.15078
1223.150721
1223.150715
1223.150621
1223.150717
1223.150659
1223.150605
1223.150652
1223.15064
1223.150642
1223.150787
1223.151726
1223.151821
1223.151792
1223.151872
1223.151899
1223.151967
1223.152122
1223.152131
1223.15208
1223.152058
1223.152072
1223.152118
1223.152259
1223.152215
1223.152213
1223.14252
1223.14262
1223.142482
1223.142505
1223.142719
1223.14265
1223.142553
1223.142608
1223.142481
1223.14246
1223.142335
1223.142327
1223.142374
1223.142301
1223.145445
1223.145445
1223.145744
1223.145868
1223.145846
1223.145918
1223.146066
1223.146025
1223.146165
1223.146073
1223.146012
1223.145916
1223.145967
1223.146005
1223.153426
1223.153517
1223.153544
1223.153336
1223.153429
1223.153419
1223.15359
1223.15361
1223.153703
1223.15355
1223.153471
1223.153665
1223.153535
1223.153611
1223.158061
1223.158021
1223.157986
1223.158029
1223.157977
1223.157785
1223.157886
1223.157853
1223.157871
1223.157924
1223.157966
1223.15779
1223.157824
1223.157653
1223.151957
1223.151701
1223.1517
1223.151656
1223.151643
1223.151629
1223.151669
1223.151726
1223.1517
1223.151915
1223.151833
1223.151955
1223.151993
1223.152127
1223.148979
1223.14898
1223.148941
1223.149064
1223.149126
1223.149325
1223.149256
1223.149207
1223.149188
1223.149301
1223.149452
1223.149344
1223.149305
1223.149315
1223.155219
1223.155104
1223.155171
1223.155191
1223.155283
1223.155223
1223.155181
1223.155382
1223.155432
1223.155217
1223.155287
1223.155083
1223.155045
1223.155141
1223.151426
1223.151394
1223.151235
1223.15132
1223.151238
1223.151223
1223.151188
1223.15135
1223.151469
1223.151521
1223.151675
1223.15171
1223.15197
1223.152083
1223.151792
1223.151772
1223.151792
1223.151897
1223.151934
1223.151776
1223.151805
1223.15192
1223.151862
1223.152011
1223.152074
1223.152011
1223.152084
1223.15208
1223.152136
1223.156657
1223.156639
1223.156534
1223.156579
1223.156683
1223.156558
1223.156484
1223.156521
1223.156659
1223.156586
1223.156549
1223.156427
1223.156453
1223.156361
1223.156586
1223.15229
1223.152372
1223.152477
1223.152548
1223.152791
1223.152762
1223.152696
1223.152749
1223.152771
1223.152784
1223.152704
1223.152849
1223.15291
1223.153013
1223.155106
1223.155071
1223.155273
1223.155248
1223.155185
1223.15522
1223.155411
1223.155436
1223.155402
1223.155315
1223.155303
1223.155302
1223.155403
1223.155385
1223.155539
1223.155303
1223.155197
1223.155144
1223.155313
1223.155231
1223.155189
1223.154952
1223.15522
1223.155413
1223.155331
1223.155221
1223.155428
1223.155368
1223.14664
1223.146709
1223.146616
1223.14672
1223.146594
1223.146739
1223.146849
1223.146873
1223.146816
1223.146994
1223.147006
1223.146869
1223.146857
1223.146762
1223.149205
1223.149284
1223.149277
1223.149472
1223.149653
1223.149436
1223.149499
1223.149526
1223.149429
1223.149379
1223.149305
1223.149422
1223.1494
1223.149268
1223.145868
1223.146083
1223.145897
1223.146042
1223.145716
1223.145744
1223.145804
1223.145678
1223.145624
1223.145791
1223.145614
1223.145717
1223.14584
1223.146029
1223.147533
1223.147556
1223.147532
1223.147695
1223.147582
1223.147529
1223.147651
1223.147556
1223.147558
1223.147716
1223.147477
1223.147523
1223.147364
1223.14729
1223.146787
1223.146754
1223.146643
1223.146629
1223.146794
1223.146921
1223.146982
1223.146994
1223.147068
1223.14699
1223.146997
1223.146917
1223.146842
1223.146904
1223.14706
1223.146538
1223.146656
1223.146555
1223.146441
1223.146423
1223.146435
1223.146398
1223.146429
1223.14651
1223.146462
1223.146527
1223.146538
1223.146644
1223.14663
1223.146716
1223.147901
1223.147796
1223.147764
1223.147985
1223.147922
1223.147951
1223.147867
1223.147953
1223.148015
1223.147888
1223.147724
1223.147857
1223.147868
1223.147781
1223.147861
1223.155435
1223.155341
1223.155379
1223.155355
1223.155373
1223.155282
1223.155302
1223.155137
1223.155167
1223.155127
1223.155188
1223.15518
1223.155157
1223.155092
1223.142242
1223.142516
1223.142279
1223.142385
1223.142278
1223.142055
1223.142001
1223.142019
1223.141924
1223.141994
1223.142104
1223.142263
1223.142316
1223.142402
1223.147856
1223.147999
1223.147742
1223.147857
1223.14781
1223.147621
1223.147734
1223.14765
1223.147598
1223.147469
1223.14751
1223.147408
1223.147379
1223.147218
1223.147461
1223.147381
1223.147688
1223.147744
1223.147771
1223.147913
1223.14792
1223.148066
1223.148035
1223.148078
1223.148043
1223.148154
1223.148193
1223.148261
1223.154227
1223.154286
1223.154332
1223.15442
1223.15447
1223.154403
1223.154343
1223.15443
1223.154275
1223.154359
1223.15434
1223.154483
1223.154417
1223.154462
1223.14714
1223.147016
1223.147054
1223.146736
1223.146796
1223.146863
1223.146827
1223.146843
1223.146879
1223.146908
1223.146945
1223.146949
1223.146949
1223.14685
1223.151172
1223.151237
1223.151238
1223.151113
1223.151194
1223.151378
1223.151562
1223.151538
1223.151524
1223.151759
1223.151822
1223.151838
1223.151838
1223.1519
1223.15189
1223.149848
1223.149908
1223.149983
1223.150119
1223.150089
1223.149926
1223.149914
1223.149785
1223.149848
1223.149884
1223.149911
1223.149778
1223.149907
1223.149943
1223.149938
1223.153829
1223.153865
1223.153978
1223.15392
1223.153982
1223.154052
1223.154082
1223.153999
1223.153784
1223.153657
1223.153633
1223.153646
1223.153658
1223.153658
1223.153636
1223.143904
1223.144113
1223.143851
1223.143871
1223.143644
1223.143573
1223.143654
1223.143603
1223.143568
1223.143393
1223.143398
1223.143346
1223.143397
1223.143428
1223.143452
1218.589629
1218.585849
1218.582157
1218.578783
1218.575334
1218.572082
1218.568666
1218.565358
1218.562141
1218.558817
1218.555473
1218.55205
1218.549089
1218.545632
1223.145878
1223.1458
1223.145761
1223.1458
1223.145679
1223.145575
1223.145587
1223.145619
1223.145631
1223.145684
1223.145468
1223.145524
1223.145431
1223.145434
1223.152345
1223.15232
1223.152604
1223.152559
1223.152624
1223.152562
1223.15256
1223.152479
1223.152434
1223.152265
1223.152352
1223.15225
1223.152267
1223.152114
1223.149204
1223.149275
1223.149209
1223.149012
1223.14888
1223.148983
1223.148914
1223.148957
1223.148989
1223.148916
1223.149076
1223.148935
1223.148968
1223.148839
1223.149919
1223.150063
1223.150118
1223.149938
1223.150024
1223.150012
1223.150027
1223.150159
1223.150002
1223.150088
1223.150164
1223.150215
1223.150184
1223.150004
1223.157692
1223.157787
1223.157693
1223.157797
1223.157793
1223.157785
1223.157713
1223.157765
1223.157702
1223.157507
1223.157407
1223.157442
1223.157588
1223.157613
1223.157629
1223.149138
1223.149085
1223.149194
1223.14915
1223.149273
1223.149324
1223.149216
1223.149202
1223.149227
1223.149257
1223.149257
1223.149335
1223.149242
1223.149244
1223.149546
1223.148988
1223.148957
1223.148923
1223.148955
1223.148854
1223.148919
1223.148968
1223.148781
1223.148762
1223.148702
1223.148844
1223.148989
1223.149042
1223.148957
1223.149151
1223.149491
1223.14953
1223.149593
1223.149612
1223.149524
1223.14973
1223.14976
1223.149751
1223.149672
1223.149571
1223.149459
1223.149699
1223.14953
1223.149609
1223.14973
1223.155024
1223.154967
1223.154828
1223.15484
1223.154709
1223.154718
1223.154554
1223.154487
1223.154346
1223.154233
1223.154294
1223.154203
1223.15412
1223.15393
1223.153956
1223.146675
1223.146773
1223.146864
1223.146797
1223.146952
1223.146985
1223.147019
1223.147024
1223.147172
1223.147174
1223.147231
1223.147081
1223.147008
1223.147084
1223.147283
1223.150471
1223.15055
1223.150571
1223.150661
1223.150614
1223.150497
1223.150412
1223.150346
1223.150499
1223.15067
1223.150746
1223.150817
1223.150561
1223.150614
1223.156798
1223.156779
1223.156614
1223.156491
1223.156467
1223.156462
1223.156434
1223.156452
1223.156354
1223.156351
1223.156557
1223.156562
1223.156683
1223.156604
1223.149693
1223.149612
1223.149832
1223.149776
1223.149737
1223.149592
1223.149606
1223.14952
1223.149407
1223.149457
1223.149388
1223.149376
1223.149548
1223.149562
1223.150487
1223.150461
1223.150377
1223.150442
1223.15015
1223.150213
1223.150311
1223.150369
1223.150248
1223.15034
1223.150337
1223.150398
1223.150291
1223.150315
1223.1504
1223.145068
1223.145135
1223.145244
1223.145182
1223.145424
1223.145499
1223.145528
1223.145581
1223.145712
1223.145752
1223.145713
1223.145766
1223.145745
1223.145605
1223.145532
1223.152681
1223.152664
1223.152636
1223.152606
1223.152624
1223.152798
1223.152822
1223.152762
1223.153044
1223.15295
1223.152979
1223.153041
1223.152853
1223.152796
1223.152851
1223.150891
1223.150866
1223.151027
1223.151166
1223.151227
1223.151103
1223.151139
1223.151379
1223.151331
1223.151325
1223.151201
1223.151128
1223.15115
1223.151128
1223.151141
1223.155053
1223.155135
1223.155079
1223.155172
1223.155192
1223.15533
1223.155208
1223.155338
1223.155272
1223.155228
1223.155238
1223.155045
1223.155053
1223.154988
1223.154941
1223.149703
1223.149843
1223.149892
1223.149953
1223.149926
1223.149983
1223.149973
1223.150062
1223.150123
1223.150053
1223.150109
1223.150269
1223.150133
1223.15015
1223.149941
1223.148407
1223.148497
1223.14827
1223.148242
1223.14824
1223.148114
1223.148217
1223.148161
1223.148131
1223.148186
1223.148068
1223.148065
1223.147978
1223.147917
1223.147933
1223.150924
1223.150947
1223.150833
1223.151056
1223.151121
1223.151223
1223.150901
1223.150953
1223.150899
1223.150984
1223.150844
1223.150821
1223.150669
1223.15084
1223.147281
1223.147448
1223.147334
1223.147268
1223.147253
1223.147161
1223.147216
1223.14724
1223.147265
1223.147244
1223.147278
1223.147247
1223.147241
1223.14733
1223.151693
1223.151631
1223.151549
1223.151686
1223.151716
1223.151615
1223.151703
1223.151579
1223.151656
1223.151577
1223.151665
1223.151726
1223.151772
1223.151691
1223.151671
1223.148166
1223.148214
1223.148196
1223.148045
1223.148096
1223.147858
1223.147815
1223.147867
1223.147804
1223.147642
1223.147549
1223.147778
1223.147729
1223.147815
1223.147719
1223.148019
1223.147922
1223.147797
1223.147695
1223.147727
1223.147631
1223.147757
1223.147767
1223.147803
1223.147824
1223.147948
1223.147917
1223.148108
1223.148159
1223.148003
1223.153387
1223.153335
1223.153233
1223.153236
1223.153225
1223.153397
1223.153352
1223.153254
1223.153231
1223.153303
1223.153318
1223.153333
1223.153221
1223.153186
1223.153208
1223.151304
1223.151245
1223.151346
1223.151275
1223.151276
1223.15131
1223.15118
1223.151243
1223.151272
1223.151271
1223.151304
1223.151245
1223.151432
1223.151421
1223.151316
1223.15152
1223.15134
1223.151359
1223.151376
1223.151497
1223.15147
1223.151588
1223.151577
1223.15158
1223.151487
1223.151451
1223.151407
1223.151388
1223.151432
1223.151382
1223.14205
1223.142106
1223.142255
1223.142111
1223.1419
1223.141868
1223.141781
1223.141821
1223.141945
1223.141931
1223.141924
1223.141881
1223.141998
1223.142067
1223.142209
1223.14173
1223.141865
1223.141764
1223.141821
1223.141682
1223.141778
1223.141772
1223.141676
1223.141614
1223.141558
1223.141552
1223.141391
1223.141312
1223.141308
1223.141234
1223.148783
1223.148782
1223.14888
1223.148847
1223.148853
1223.148971
1223.148762
1223.148646
1223.148559
1223.148401
1223.148444
1223.148534
1223.148546
1223.148493
1223.146307
1223.146339
1223.146405
1223.146396
1223.146331
1223.146268
1223.146269
1223.146085
1223.146085
1223.146141
1223.146145
1223.146236
1223.146227
1223.146103
1223.146205
1223.152444
1223.152353
1223.152308
1223.152194
1223.152396
1223.152472
1223.152632
1223.152531
1223.152398
1223.152404
1223.152349
1223.152256
1223.152295
1223.152279
1223.152254
1223.150048
1223.149869
1223.149818
1223.149932
1223.149866
1223.14982
1223.149895
1223.149786
1223.149836
1223.149773
1223.149676
1223.149718
1223.14965
1223.149688
1223.149645
1223.149595
1223.149598
1223.149471
1223.149646
1223.149705
1223.149692
1223.149614
1223.149523
1223.149382
1223.149398
1223.149441
1223.149429
1223.149339
1223.149259
1223.149138
1223.148019
1223.14794
1223.147964
1223.147979
1223.148158
1223.148169
1223.148348
1223.148456
1223.148492
1223.148371
1223.148526
1223.148594
1223.148496
1223.148559
1223.148683
1223.147197
1223.147166
1223.147234
1223.147202
1223.147191
1223.147248
1223.147201
1223.147024
1223.147095
1223.147116
1223.14696
1223.147097
1223.147203
1223.147265
1223.147159
1223.15018
1223.15017
1223.150263
1223.150314
1223.150278
1223.150248
1223.150159
1223.15016
1223.150232
1223.15011
1223.150131
1223.150152
1223.150268
1223.150268
1223.150307
1223.153312
1223.153334
1223.153388
1223.153401
1223.153158
1223.153246
1223.153262
1223.153108
1223.153208
1223.153303
1223.153303
1223.153345
1223.153269
1223.153188
1223.153069
1223.148624
1223.148584
1223.148726
1223.148714
1223.148752
1223.148724
1223.14877
1223.148844
1223.148787
1223.148842
1223.148854
1223.14888
1223.148907
1223.148963
1223.148948
)
;

boundaryField
{
    top
    {
        type            zeroGradient;
    }
    bottom
    {
        type            zeroGradient;
    }
    side-walls
    {
        type            zeroGradient;
    }
    inlet
    {
        type            zeroGradient;
    }
    outlet
    {
        type            zeroGradient;
    }
    procBoundary1to0
    {
        type            processor;
        value           nonuniform List<scalar> 
97
(
1223.150761
1223.150761
1223.155321
1223.149536
1223.147376
1223.147396
1223.15016
1223.15208
1223.150647
1223.151087
1223.151699
1223.142229
1223.142229
1223.142229
1223.145534
1223.153361
1223.158082
1223.15223
1223.148989
1223.155395
1223.151546
1223.151843
1223.156829
1223.152256
1223.152256
1223.152256
1223.154925
1223.155295
1223.146654
1223.149196
1223.145662
1223.1475
1223.146672
1223.146483
1223.148008
1223.155327
1223.155327
1223.155327
1223.142118
1223.147794
1223.147519
1223.154299
1223.14711
1223.15095
1223.149764
1223.153803
1223.145994
1218.589567
1218.589567
1218.589567
1223.145697
1223.145697
1223.152275
1223.149286
1223.149854
1223.157899
1223.149079
1223.14889
1223.149272
1223.157236
1223.146359
1223.1506
1223.1506
1223.1506
1223.156856
1223.149874
1223.150246
1223.144994
1223.152621
1223.15085
1223.155018
1223.14966
1223.148466
1223.150953
1223.150953
1223.150953
1223.147239
1223.15179
1223.148103
1223.148084
1223.153286
1223.151174
1223.151474
1223.141955
1223.141853
1223.148824
1223.148824
1223.148824
1223.146389
1223.152536
1223.150003
1223.149829
1223.147908
1223.147204
1223.150346
1223.153286
1223.148672
)
;
    }
}


// ************************************************************************* //
