/*--------------------------------*- C++ -*----------------------------------*\
| =========                 |                                                 |
| \\      /  F ield         | OpenFOAM: The Open Source CFD Toolbox           |
|  \\    /   O peration     | Version:  4.x                                   |
|   \\  /    A nd           | Web:      www.OpenFOAM.org                      |
|    \\/     M anipulation  |                                                 |
\*---------------------------------------------------------------------------*/
FoamFile
{
    version     2.0;
    format      ascii;
    class       volScalarField;
    location    "7000";
    object      X_CO2;
}
// * * * * * * * * * * * * * * * * * * * * * * * * * * * * * * * * * * * * * //

dimensions      [0 0 0 0 0 0 0];

internalField   nonuniform List<scalar> 
1174
(
2.346533874e-06
4.097577454e-06
6.570450011e-06
9.796100995e-06
1.374010904e-05
1.831521831e-05
2.339934016e-05
2.885366594e-05
3.453764541e-05
4.031886857e-05
4.607509557e-05
5.167638117e-05
5.689322313e-05
6.099227716e-05
3.992629686e-06
6.80116103e-06
1.054125604e-05
1.512608168e-05
2.039734465e-05
2.616323402e-05
3.222917369e-05
3.841808236e-05
4.458075784e-05
5.059837787e-05
5.637726358e-05
6.182692466e-05
6.677361878e-05
7.059174331e-05
7.630235762e-06
1.259769963e-05
1.874367644e-05
2.57211848e-05
3.315487231e-05
4.070784906e-05
4.811351289e-05
5.518218745e-05
6.179347613e-05
6.788210982e-05
7.34205328e-05
7.839231192e-05
8.271839049e-05
8.595736473e-05
1.296296876e-05
2.068358889e-05
2.954599079e-05
3.890117815e-05
4.820858003e-05
5.708014967e-05
6.527362854e-05
7.266455463e-05
7.921398818e-05
8.493949924e-05
8.989084714e-05
9.412449902e-05
9.764803183e-05
0.0001001979924
1.677267197e-05
2.600565502e-05
3.607587239e-05
4.627315224e-05
5.608406517e-05
6.518109234e-05
7.338626962e-05
8.063137707e-05
8.692271445e-05
9.23130562e-05
9.687969252e-05
0.0001007026527
0.0001038190289
0.0001060365162
1.296282742e-05
2.068337851e-05
2.954570942e-05
3.890080731e-05
4.820809902e-05
5.707955182e-05
6.527290671e-05
7.266371532e-05
7.921302934e-05
8.493844153e-05
8.98896956e-05
9.412324871e-05
9.764669542e-05
0.0001001965781
7.630053861e-06
1.259745479e-05
1.874335243e-05
2.572075368e-05
3.315429482e-05
4.070709989e-05
4.81125716e-05
5.518103946e-05
6.179211426e-05
6.788054296e-05
7.341877094e-05
7.839035073e-05
8.271626094e-05
8.595503868e-05
3.992463371e-06
6.800962579e-06
1.054100507e-05
1.512574226e-05
2.039687671e-05
2.616259252e-05
3.222832349e-05
3.841699702e-05
4.457941703e-05
5.059676022e-05
5.63753676e-05
6.182474901e-05
6.677117376e-05
7.058905356e-05
2.346414478e-06
4.097453457e-06
6.570296208e-06
9.795883808e-06
1.373978599e-05
1.83147433e-05
2.339866545e-05
2.885274539e-05
3.453644621e-05
4.031736374e-05
4.607325854e-05
5.167420321e-05
5.68906929e-05
6.098939011e-05
2.096476914e-06
3.992505342e-06
6.801039278e-06
1.054113367e-05
1.51259544e-05
2.039721587e-05
2.616310004e-05
3.222904015e-05
3.841795434e-05
4.45806297e-05
5.059825183e-05
5.637713666e-05
6.18267954e-05
6.677349729e-05
7.059162605e-05
7.705964098e-06
1.264081428e-05
1.865785732e-05
2.539497585e-05
3.248868125e-05
3.963297421e-05
4.660019404e-05
5.323844946e-05
5.945813308e-05
6.521527018e-05
7.049391708e-05
7.52804139e-05
7.949058863e-05
8.26711766e-05
1.70532056e-05
2.664743204e-05
3.707383559e-05
4.744919581e-05
5.716885124e-05
6.590356086e-05
7.353423973e-05
8.007740699e-05
8.56239566e-05
9.029643941e-05
9.42214862e-05
9.750854866e-05
0.0001002092442
0.000102151482
3.367506041e-05
4.963543864e-05
6.480771613e-05
7.805644189e-05
8.898619783e-05
9.765076544e-05
0.0001043212796
0.0001093403895
0.0001130442255
0.0001157278031
0.0001176348085
0.000118958861
0.0001198465495
0.0001203768132
4.936652986e-05
6.857450124e-05
8.484187093e-05
9.774201217e-05
0.0001075323578
0.0001147127194
0.0001198144478
0.0001233139739
0.000125606583
0.0001270067191
0.0001277588676
0.0001280529057
0.0001280460084
0.0001279059191
3.367441324e-05
4.963465144e-05
6.480677689e-05
7.805535418e-05
8.89849692e-05
9.764940239e-05
0.0001043198087
0.0001093388201
0.0001130425771
0.0001157260762
0.0001176330315
0.0001189570444
0.000119844675
0.0001203748842
1.705257829e-05
2.664672847e-05
3.707300538e-05
4.744816926e-05
5.716758736e-05
6.590203603e-05
7.353245747e-05
8.007538761e-05
8.5621717e-05
9.029399423e-05
9.421884539e-05
9.750575639e-05
0.0001002063166
0.000102148415
7.705609537e-06
1.264047731e-05
1.865744246e-05
2.539440688e-05
3.24878903e-05
3.9631907e-05
4.6598825e-05
5.323675663e-05
5.945612141e-05
6.521294588e-05
7.049127458e-05
7.527750929e-05
7.948741038e-05
8.266775059e-05
3.992468973e-06
6.800951775e-06
1.05409619e-05
1.512564622e-05
2.039671178e-05
2.616234327e-05
3.222797984e-05
3.841654545e-05
4.457885531e-05
5.059609688e-05
5.637458908e-05
6.182387093e-05
6.677017992e-05
7.058791695e-05
4.058524405e-06
7.629942891e-06
1.259738622e-05
1.874334957e-05
2.572084761e-05
3.315453223e-05
4.070751024e-05
4.81131754e-05
5.518185356e-05
6.17931423e-05
6.788178349e-05
7.342021866e-05
7.839200049e-05
8.27180917e-05
8.5957054e-05
9.305461138e-06
1.70528177e-05
2.664709549e-05
3.707353017e-05
4.744890325e-05
5.716856764e-05
6.590328635e-05
7.353397404e-05
8.00771451e-05
8.562371442e-05
9.02962031e-05
9.42212568e-05
9.750831856e-05
0.0001002090328
0.0001021512632
4.468150515e-05
6.493315313e-05
8.326588971e-05
9.829192153e-05
0.0001097264148
0.0001179012003
0.0001233996817
0.0001268414541
0.0001287786631
0.0001296601139
0.0001298310285
0.0001295508846
0.000129027737
0.000128500791
0.000106170672
0.0001403891962
0.0001639798883
0.0001778982737
0.0001844299065
0.0001858784796
0.0001841024593
0.0001804482299
0.0001758287075
0.0001708339881
0.000165832338
0.0001610600447
0.0001567418729
0.0001534340387
0.000186755903
0.0002208108353
0.0002354160724
0.0002379686522
0.0002337533564
0.0002260976281
0.0002169732847
0.0002075020175
0.0001982952349
0.0001896659171
0.0001817590996
0.0001746462305
0.0001684591684
0.0001638315414
0.0001061678944
0.0001403864884
0.000163977173
0.0001778954719
0.0001844270596
0.0001858755935
0.0001840995695
0.0001804453623
0.0001758258951
0.0001708311916
0.000165829603
0.0001610573836
0.000156739273
0.0001534314237
4.46795083e-05
6.493134126e-05
8.326387772e-05
9.828953598e-05
0.000109723627
0.0001178980492
0.00012339621
0.0001268377504
0.0001287748047
0.0001296561355
0.0001298269695
0.0001295467721
0.0001290235802
0.0001284965699
1.705257788e-05
2.664661502e-05
3.707272837e-05
4.744768141e-05
5.716688995e-05
6.59011262e-05
7.353135496e-05
8.007411104e-05
8.56202963e-05
9.029244259e-05
9.421721566e-05
9.750401927e-05
0.0001002044998
0.0001021465327
7.630053999e-06
1.259737305e-05
1.874312605e-05
2.572032002e-05
3.315361774e-05
4.070614876e-05
4.811132926e-05
5.517951063e-05
6.17903122e-05
6.787846835e-05
7.341646518e-05
7.83878264e-05
8.271352687e-05
8.595208749e-05
7.006941055e-06
1.296240757e-05
2.068293982e-05
2.954527758e-05
3.890042293e-05
4.820779422e-05
5.707935497e-05
6.52728398e-05
7.266378192e-05
7.92132359e-05
8.493877157e-05
8.989015443e-05
9.412383711e-05
9.764739676e-05
0.0001001973615
1.899116756e-05
3.367393681e-05
4.963427881e-05
6.480655645e-05
7.805531319e-05
8.898512937e-05
9.764976166e-05
0.0001043203495
0.0001093395469
0.0001130434316
0.0001157270665
0.0001176341227
0.0001189582352
0.0001198459469
0.0001203762163
6.440528278e-05
0.0001061686456
0.000140387593
0.0001639785642
0.0001778971579
0.0001844289973
0.0001858777152
0.0001841018217
0.0001804476712
0.0001758282517
0.0001708335779
0.0001658319702
0.0001610596949
0.0001567415807
0.0001534337475
0.000317115803
0.0003602475863
0.0003673912859
0.0003550291193
0.0003339567574
0.0003102694643
0.0002870577845
0.0002657002406
0.0002466717034
0.0002300046337
0.0002155421184
0.000203093329
0.0001926337768
0.0001849927939
0.0007314451959
0.0006774437017
0.0005943626249
0.000514675687
0.000446953842
0.0003917051958
0.0003471380352
0.0003111382661
0.0002818624024
0.0002578494288
0.0002379895256
0.0002214886397
0.0002079734563
0.0001982592595
0.0003171068321
0.0003602410864
0.0003673854487
0.0003550234394
0.0003339513267
0.0003102643029
0.0002870528701
0.0002656956476
0.0002466673851
0.0002300005766
0.0002155383091
0.000203089726
0.0001926303366
0.0001849894345
0.0001061680792
0.0001403857108
0.0001639754152
0.0001778929842
0.0001844240395
0.0001858722764
0.0001840961187
0.0001804418489
0.0001758223961
0.0001708277684
0.0001658262539
0.0001610541058
0.0001567360653
0.0001534282747
3.367449542e-05
4.963423174e-05
6.480570699e-05
7.805359371e-05
8.898257148e-05
9.764645731e-05
0.0001043164157
0.0001093350871
0.0001130385712
0.0001157218794
0.0001176286741
0.0001189525874
0.0001198401376
0.0001203702612
1.296286844e-05
2.068319668e-05
2.954514846e-05
3.889976866e-05
4.820651462e-05
5.70773968e-05
6.527020092e-05
7.266049068e-05
7.920933699e-05
8.493432072e-05
8.988520557e-05
9.411844527e-05
9.764161307e-05
0.0001001911773
9.220358565e-06
1.677203583e-05
2.600488786e-05
3.607500661e-05
4.627220729e-05
5.608307665e-05
6.518007166e-05
7.338526103e-05
8.063038049e-05
8.692172177e-05
9.231208866e-05
9.68787458e-05
0.0001007017397
0.0001038181253
0.0001060356543
2.910626957e-05
4.936512953e-05
6.85729697e-05
8.484028602e-05
9.774046835e-05
0.000107530869
0.0001147113057
0.0001198131418
0.0001233127576
0.0001256054512
0.0001270056719
0.0001277578775
0.0001280519596
0.0001280451186
0.0001279050577
0.0001262683807
0.0001867530608
0.0002208080444
0.0002354135582
0.000237966473
0.0002337514848
0.0002260960171
0.0002169718792
0.0002075007765
0.0001982941697
0.0001896649735
0.0001817582419
0.0001746454319
0.0001684584354
0.0001638308414
0.0006576553566
0.0007314363363
0.000677438175
0.0005943587845
0.0005146730859
0.0004469518016
0.0003917035622
0.0003471367255
0.0003111372381
0.0002818615495
0.0002578486936
0.0002379888977
0.0002214880773
0.0002079729445
0.0001982587596
0.002518274588
0.00160928329
0.001106086982
0.0008115364242
0.0006291058869
0.0005097719491
0.000427677328
0.0003686346652
0.0003245384174
0.0002905667123
0.0002637433144
0.0002422087239
0.0002250025938
0.0002128269064
0.0007314460925
0.0006774351312
0.0005943515167
0.000514664667
0.0004469436702
0.0003916960892
0.0003471299078
0.0003111310445
0.0002818559029
0.0002578435424
0.0002379841762
0.0002214837001
0.000207968863
0.0001982548566
0.0001867565826
0.0002208074561
0.0002354098804
0.0002379609021
0.0002337448496
0.0002260888884
0.0002169645756
0.0002074935014
0.0001982870323
0.000189658052
0.0001817515269
0.0001746389545
0.0001684521544
0.0001638246633
4.936663288e-05
6.857330318e-05
8.483926007e-05
9.773815318e-05
0.0001075274609
0.0001147070168
0.0001198081564
0.0001233072492
0.0001255995596
0.0001269995099
0.0001277514962
0.0001280454471
0.0001280385149
0.0001278983393
1.677277287e-05
2.60053122e-05
3.60748672e-05
4.627135586e-05
5.608141993e-05
6.517759764e-05
7.338198948e-05
8.062636973e-05
8.691706859e-05
9.2306849e-05
9.687298366e-05
0.000100695547
0.0001038115558
0.0001060286862
7.006942565e-06
1.296232497e-05
2.068275053e-05
2.95449663e-05
3.889997086e-05
4.820719131e-05
5.707859496e-05
6.527190842e-05
7.266269787e-05
7.9212006e-05
8.493740868e-05
8.988866301e-05
9.412223069e-05
9.764569336e-05
0.0001001955842
1.899078555e-05
3.367324146e-05
4.963330484e-05
6.480533955e-05
7.805386563e-05
8.898348966e-05
9.764795453e-05
0.0001043184061
0.0001093374833
0.0001130412831
0.0001157248441
0.000117631839
0.000118955915
0.0001198435975
0.0001203738257
6.440151428e-05
0.0001061650696
0.0001403836832
0.0001639744988
0.0001778930191
0.0001844248019
0.0001858735417
0.0001840977508
0.000180443719
0.000175824392
0.0001708298391
0.0001658283576
0.0001610562219
0.0001567381896
0.0001534303857
0.0002203211475
0.0003170996818
0.0003602352629
0.0003673807206
0.0003550196366
0.0003339481535
0.0003102616681
0.0002870506865
0.0002656937686
0.0002466657675
0.0002299991948
0.0002155370433
0.0002030886309
0.0001926293377
0.0001849885144
0.0006576561239
0.0007314352329
0.0006774280585
0.0005943463921
0.0005146608592
0.0004469407477
0.0003916937559
0.0003471280322
0.0003111295087
0.0002818546381
0.0002578424738
0.0002379832368
0.000221482927
0.0002079681525
0.0001982542453
0.0002203235306
0.0003170990726
0.0003602318212
0.0003673755488
0.0003550136516
0.0003339420144
0.0003102556266
0.0002870449259
0.0002656883359
0.000246660693
0.0002299944251
0.0002155326352
0.0002030844745
0.0001926254083
0.0001849847012
0.0001061705144
0.0001403848695
0.0001639726641
0.0001778891219
0.0001844196073
0.0001858675929
0.0001840913626
0.0001804371504
0.0001758177961
0.0001708233048
0.0001658219564
0.000161049961
0.0001567320887
0.0001534243656
3.367537975e-05
4.963439048e-05
6.480512505e-05
7.805238287e-05
8.898086452e-05
9.764435434e-05
0.0001043140308
0.000109332497
0.0001130358327
0.0001157190338
0.0001176257626
0.0001189496355
0.0001198371571
0.0001203672515
1.296315648e-05
2.06833323e-05
2.954503555e-05
3.889935141e-05
4.820578365e-05
5.7076369e-05
6.526888699e-05
7.265892633e-05
7.920755584e-05
8.493234439e-05
8.988307534e-05
9.411618565e-05
9.763922478e-05
0.0001001886903
4.058426978e-06
7.629706921e-06
1.259699023e-05
1.874277256e-05
2.57200679e-05
3.315351459e-05
4.07062382e-05
4.811164406e-05
5.518006447e-05
6.179109842e-05
6.787950031e-05
7.341771023e-05
7.838928653e-05
8.271518068e-05
8.595396733e-05
9.304767819e-06
1.705188285e-05
2.664586425e-05
3.707200875e-05
4.74470742e-05
5.716642502e-05
6.590083192e-05
7.353123694e-05
8.00741491e-05
8.562048628e-05
9.029279073e-05
9.421766855e-05
9.750459228e-05
0.0001002051838
0.0001021473034
2.536985606e-05
4.467798877e-05
6.492964483e-05
8.326210765e-05
9.828776075e-05
0.0001097218839
0.000117896355
0.0001233946052
0.0001268362132
0.0001287733516
0.0001296547426
0.0001298256349
0.0001295455208
0.0001290223897
0.00012849541
6.44017521e-05
0.0001061646502
0.0001403823256
0.0001639722735
0.0001778901397
0.000184421489
0.0001858699691
0.0001840940288
0.0001804399733
0.0001758206867
0.0001708262209
0.0001658248391
0.0001610528033
0.0001567348631
0.0001534271284
0.0001262689753
0.0001867508259
0.0002208026066
0.0002354059097
0.0002379576372
0.0002337421284
0.0002260865812
0.0002169626057
0.0002074918023
0.000198285534
0.0001896567297
0.0001817503708
0.0001746379056
0.0001684511978
0.0001638237444
6.440143963e-05
0.0001061637368
0.0001403805713
0.0001639697452
0.0001778870209
0.0001844180241
0.0001858663118
0.0001840903094
0.0001804362715
0.0001758170527
0.0001708226624
0.0001658213973
0.0001610494828
0.000156731617
0.0001534239468
2.537108936e-05
4.467887565e-05
6.492956126e-05
8.326086392e-05
9.828545306e-05
0.0001097187207
0.0001178925066
0.0001233902719
0.0001268315523
0.0001287684635
0.0001296497312
0.0001298205722
0.0001295404233
0.0001290172881
0.0001284902699
1.705320717e-05
2.664655786e-05
3.707195603e-05
4.744621254e-05
5.716475821e-05
6.589841206e-05
7.35281509e-05
8.007047889e-05
8.561631915e-05
9.028818719e-05
9.421272389e-05
9.749935958e-05
0.0001001997011
0.0001021415862
7.630341614e-06
1.259746707e-05
1.874291078e-05
2.571971985e-05
3.315258114e-05
4.070466383e-05
4.810940045e-05
5.517716238e-05
6.178757039e-05
6.787537542e-05
7.341303997e-05
7.838412103e-05
8.270957145e-05
8.594791579e-05
2.096327717e-06
3.99226013e-06
6.80067209e-06
1.054061977e-05
1.5125256e-05
2.039629572e-05
2.616191717e-05
3.22275658e-05
3.841616412e-05
4.457852028e-05
5.059581024e-05
5.637437302e-05
6.182371807e-05
6.677011966e-05
7.058798634e-05
4.110092648e-06
7.705237737e-06
1.263997284e-05
1.865681012e-05
2.539365578e-05
3.248704365e-05
3.963097592e-05
4.659782543e-05
5.323570942e-05
5.945504109e-05
6.521183508e-05
7.049014542e-05
7.527636569e-05
7.948625954e-05
8.266660471e-05
9.304804436e-06
1.705186664e-05
2.664572846e-05
3.707169564e-05
4.744654867e-05
5.716567951e-05
6.589987804e-05
7.353008625e-05
8.007283538e-05
8.56190228e-05
9.029118623e-05
9.421597441e-05
9.750280679e-05
0.0001002033191
0.0001021453831
1.899091208e-05
3.367306282e-05
4.963258868e-05
6.480395109e-05
7.805180595e-05
8.898080265e-05
9.764473835e-05
0.0001043147727
0.0001093335062
0.00011303706
0.000115720438
0.0001176272996
0.0001189512981
0.0001198388995
0.000120369073
2.91064093e-05
4.936438391e-05
6.857095092e-05
8.483696448e-05
9.773596696e-05
0.0001075254264
0.0001147051577
0.0001198064308
0.000123305669
0.0001255981073
0.0001269981494
0.0001277502584
0.0001280442772
0.0001280374267
0.0001278972943
1.899072258e-05
3.367266926e-05
4.963188888e-05
6.480290505e-05
7.805042726e-05
8.897914383e-05
9.764283632e-05
0.0001043126773
0.0001093312779
0.0001130347356
0.0001157180354
0.0001176248548
0.0001189488105
0.0001198364004
0.0001203665369
9.30485562e-06
1.705183771e-05
2.664540793e-05
3.707094205e-05
4.74453047e-05
5.716393798e-05
6.589767108e-05
7.352747293e-05
8.006985958e-05
8.561575413e-05
9.02876846e-05
9.42122605e-05
9.749893161e-05
0.0001001993047
0.000102141221
4.110343881e-06
7.705500677e-06
1.264008059e-05
1.865661934e-05
2.539306959e-05
3.248598849e-05
3.962943139e-05
4.659578776e-05
5.323318969e-05
5.94520594e-05
6.520843621e-05
7.048637149e-05
7.527223754e-05
7.948182037e-05
8.266189016e-05
3.99261786e-06
6.800918992e-06
1.054067387e-05
1.51250271e-05
2.039569111e-05
2.616087253e-05
3.222603122e-05
3.841410613e-05
4.457592528e-05
5.05926901e-05
5.637072693e-05
6.181957229e-05
6.676550613e-05
7.058291561e-05
1.220331709e-06
2.34627996e-06
4.097253123e-06
6.570017811e-06
9.795518066e-06
1.373932664e-05
1.831418877e-05
2.339802024e-05
2.885201607e-05
3.453563512e-05
4.031648387e-05
4.607231798e-05
5.16732118e-05
5.688966304e-05
6.0988332e-05
2.096334508e-06
3.992260305e-06
6.800652731e-06
1.054056494e-05
1.512514676e-05
2.039611311e-05
2.616164827e-05
3.222720247e-05
3.841569865e-05
4.457793992e-05
5.059512325e-05
5.63735774e-05
6.182281574e-05
6.67691087e-05
7.058683228e-05
4.058442109e-06
7.629680012e-06
1.259686624e-05
1.874248577e-05
2.571956417e-05
3.315275586e-05
4.070519805e-05
4.811031448e-05
5.517844128e-05
6.178920618e-05
6.787735218e-05
7.341531711e-05
7.838668005e-05
8.271237512e-05
8.595094394e-05
7.006961712e-06
1.296219758e-05
2.068233281e-05
2.954412166e-05
3.889860805e-05
4.820526927e-05
5.707610268e-05
6.52688835e-05
7.265915959e-05
7.920800828e-05
8.493300594e-05
8.988391291e-05
9.411719174e-05
9.764039341e-05
0.000100189984
9.220389099e-06
1.677176465e-05
2.600408281e-05
3.607348302e-05
4.626987307e-05
5.607989793e-05
6.517607067e-05
7.338049148e-05
8.062491861e-05
8.691566348e-05
9.230550212e-05
9.687171092e-05
0.0001006943443
0.0001038104018
0.0001060275693
7.006875069e-06
1.29620214e-05
2.068201825e-05
2.954363148e-05
3.889791843e-05
4.820436313e-05
5.707498751e-05
6.526757334e-05
7.265767082e-05
7.920636287e-05
8.493122962e-05
8.98820192e-05
9.411518667e-05
9.763829778e-05
0.0001001878196
4.058406811e-06
7.629590251e-06
1.259664701e-05
1.874206146e-05
2.571886538e-05
3.315173804e-05
4.070384333e-05
4.810861352e-05
5.517640251e-05
6.178685234e-05
6.787470763e-05
7.341240969e-05
7.838352881e-05
8.270901534e-05
8.594739171e-05
2.096361274e-06
3.992289693e-06
6.800621013e-06
1.054039206e-05
1.512475704e-05
2.039542929e-05
2.616062136e-05
3.222579099e-05
3.841387506e-05
4.457570689e-05
5.059248019e-05
5.63705319e-05
6.18193933e-05
6.676533775e-05
7.058275618e-05
1.220403447e-06
2.346378313e-06
4.09732729e-06
6.570003085e-06
9.795338205e-06
1.373890425e-05
1.831345201e-05
2.339690011e-05
2.885046425e-05
3.45336118e-05
4.031396845e-05
4.60692992e-05
5.166969102e-05
5.688564463e-05
6.098384667e-05
)
;

boundaryField
{
    top
    {
        type            calculated;
        value           nonuniform List<scalar> 
127
(
1.220403447e-06
2.346414478e-06
3.992468973e-06
7.630053999e-06
1.296286844e-05
1.677277287e-05
1.296315648e-05
7.630341614e-06
3.99261786e-06
2.346378313e-06
4.097453457e-06
6.800951775e-06
1.259737305e-05
2.068319668e-05
2.60053122e-05
2.06833323e-05
1.259746707e-05
6.800918992e-06
4.09732729e-06
6.570296208e-06
1.05409619e-05
1.874312605e-05
2.954514846e-05
3.60748672e-05
2.954503555e-05
1.874291078e-05
1.054067387e-05
6.570003085e-06
9.795883808e-06
1.512564622e-05
2.572032002e-05
3.889976866e-05
4.627135586e-05
3.889935141e-05
2.571971985e-05
1.51250271e-05
9.795338205e-06
1.373978599e-05
2.039671178e-05
3.315361774e-05
4.820651462e-05
5.608141993e-05
4.820578365e-05
3.315258114e-05
2.039569111e-05
1.373890425e-05
1.83147433e-05
2.616234327e-05
4.070614876e-05
5.70773968e-05
6.517759764e-05
5.7076369e-05
4.070466383e-05
2.616087253e-05
1.831345201e-05
2.339866545e-05
3.222797984e-05
4.811132926e-05
6.527020092e-05
7.338198948e-05
6.526888699e-05
4.810940045e-05
3.222603122e-05
2.339690011e-05
2.885274539e-05
3.841654545e-05
5.517951063e-05
7.266049068e-05
8.062636973e-05
7.265892633e-05
5.517716238e-05
3.841410613e-05
2.885046425e-05
3.453644621e-05
4.457885531e-05
6.17903122e-05
7.920933699e-05
8.691706859e-05
7.920755584e-05
6.178757039e-05
4.457592528e-05
3.45336118e-05
4.031736374e-05
5.059609688e-05
6.787846835e-05
8.493432072e-05
9.2306849e-05
8.493234439e-05
6.787537542e-05
5.05926901e-05
4.031396845e-05
4.607325854e-05
5.637458908e-05
7.341646518e-05
8.988520557e-05
9.687298366e-05
8.988307534e-05
7.341303997e-05
5.637072693e-05
4.60692992e-05
5.167420321e-05
6.182387093e-05
7.83878264e-05
9.411844527e-05
0.000100695547
9.411618565e-05
7.838412103e-05
6.181957229e-05
5.166969102e-05
5.68906929e-05
6.677017992e-05
8.271352687e-05
9.764161307e-05
0.0001038115558
9.763922478e-05
8.270957145e-05
6.676550613e-05
5.688564463e-05
6.098939011e-05
7.058791695e-05
8.595208749e-05
0.0001001911773
0.0001060286862
0.0001001886903
8.594791579e-05
7.058291561e-05
6.098384667e-05
)
;
    }
    bottom
    {
        type            calculated;
        value           nonuniform List<scalar> 
134
(
2.096476914e-06
4.058524405e-06
7.006941055e-06
9.220358565e-06
7.006942565e-06
4.058426978e-06
2.096327717e-06
1.220331709e-06
2.346533874e-06
3.992505342e-06
7.629942891e-06
1.296240757e-05
1.677203583e-05
1.296232497e-05
7.629706921e-06
3.99226013e-06
2.34627996e-06
4.097577454e-06
6.801039278e-06
1.259738622e-05
2.068293982e-05
2.600488786e-05
2.068275053e-05
1.259699023e-05
6.80067209e-06
4.097253123e-06
6.570450011e-06
1.054113367e-05
1.874334957e-05
2.954527758e-05
3.607500661e-05
2.95449663e-05
1.874277256e-05
1.054061977e-05
6.570017811e-06
9.796100995e-06
1.51259544e-05
2.572084761e-05
3.890042293e-05
4.627220729e-05
3.889997086e-05
2.57200679e-05
1.5125256e-05
9.795518066e-06
1.374010904e-05
2.039721587e-05
3.315453223e-05
4.820779422e-05
5.608307665e-05
4.820719131e-05
3.315351459e-05
2.039629572e-05
1.373932664e-05
1.831521831e-05
2.616310004e-05
4.070751024e-05
5.707935497e-05
6.518007166e-05
5.707859496e-05
4.07062382e-05
2.616191717e-05
1.831418877e-05
2.339934016e-05
3.222904015e-05
4.81131754e-05
6.52728398e-05
7.338526103e-05
6.527190842e-05
4.811164406e-05
3.22275658e-05
2.339802024e-05
2.885366594e-05
3.841795434e-05
5.518185356e-05
7.266378192e-05
8.063038049e-05
7.266269787e-05
5.518006447e-05
3.841616412e-05
2.885201607e-05
3.453764541e-05
4.45806297e-05
6.17931423e-05
7.92132359e-05
8.692172177e-05
7.9212006e-05
6.179109842e-05
4.457852028e-05
3.453563512e-05
4.031886857e-05
5.059825183e-05
6.788178349e-05
8.493877157e-05
9.231208866e-05
8.493740868e-05
6.787950031e-05
5.059581024e-05
4.031648387e-05
4.607509557e-05
5.637713666e-05
7.342021866e-05
8.989015443e-05
9.68787458e-05
8.988866301e-05
7.341771023e-05
5.637437302e-05
4.607231798e-05
5.167638117e-05
6.18267954e-05
7.839200049e-05
9.412383711e-05
0.0001007017397
9.412223069e-05
7.838928653e-05
6.182371807e-05
5.16732118e-05
5.689322313e-05
6.677349729e-05
8.27180917e-05
9.764739676e-05
0.0001038181253
9.764569336e-05
8.271518068e-05
6.677011966e-05
5.688966304e-05
6.099227716e-05
7.059162605e-05
8.5957054e-05
0.0001001973615
0.0001060356543
0.0001001955842
8.595396733e-05
7.058798634e-05
6.0988332e-05
)
;
    }
    side-walls
    {
        type            calculated;
        value           nonuniform List<scalar> 
261
(
2.346533874e-06
3.992629686e-06
7.630235762e-06
1.296296876e-05
1.677267197e-05
1.296282742e-05
7.630053861e-06
3.992463371e-06
2.346414478e-06
4.097577454e-06
6.80116103e-06
1.259769963e-05
2.068358889e-05
2.600565502e-05
2.068337851e-05
1.259745479e-05
6.800962579e-06
4.097453457e-06
6.570450011e-06
1.054125604e-05
1.874367644e-05
2.954599079e-05
3.607587239e-05
2.954570942e-05
1.874335243e-05
1.054100507e-05
6.570296208e-06
9.796100995e-06
1.512608168e-05
2.57211848e-05
3.890117815e-05
4.627315224e-05
3.890080731e-05
2.572075368e-05
1.512574226e-05
9.795883808e-06
1.374010904e-05
2.039734465e-05
3.315487231e-05
4.820858003e-05
5.608406517e-05
4.820809902e-05
3.315429482e-05
2.039687671e-05
1.373978599e-05
1.831521831e-05
2.616323402e-05
4.070784906e-05
5.708014967e-05
6.518109234e-05
5.707955182e-05
4.070709989e-05
2.616259252e-05
1.83147433e-05
2.339934016e-05
3.222917369e-05
4.811351289e-05
6.527362854e-05
7.338626962e-05
6.527290671e-05
4.81125716e-05
3.222832349e-05
2.339866545e-05
2.885366594e-05
3.841808236e-05
5.518218745e-05
7.266455463e-05
8.063137707e-05
7.266371532e-05
5.518103946e-05
3.841699702e-05
2.885274539e-05
3.453764541e-05
4.458075784e-05
6.179347613e-05
7.921398818e-05
8.692271445e-05
7.921302934e-05
6.179211426e-05
4.457941703e-05
3.453644621e-05
4.031886857e-05
5.059837787e-05
6.788210982e-05
8.493949924e-05
9.23130562e-05
8.493844153e-05
6.788054296e-05
5.059676022e-05
4.031736374e-05
4.607509557e-05
5.637726358e-05
7.34205328e-05
8.989084714e-05
9.687969252e-05
8.98896956e-05
7.341877094e-05
5.63753676e-05
4.607325854e-05
5.167638117e-05
6.182692466e-05
7.839231192e-05
9.412449902e-05
0.0001007026527
9.412324871e-05
7.839035073e-05
6.182474901e-05
5.167420321e-05
5.689322313e-05
6.677361878e-05
8.271839049e-05
9.764803183e-05
0.0001038190289
9.764669542e-05
8.271626094e-05
6.677117376e-05
5.68906929e-05
6.099227716e-05
7.059174331e-05
8.595736473e-05
0.0001001979924
0.0001060365162
0.0001001965781
8.595503868e-05
7.058905356e-05
6.098939011e-05
1.220331709e-06
2.096334508e-06
4.058442109e-06
7.006961712e-06
9.220389099e-06
7.006875069e-06
4.058406811e-06
2.096361274e-06
1.220403447e-06
2.34627996e-06
3.992260305e-06
7.629680012e-06
1.296219758e-05
1.677176465e-05
1.29620214e-05
7.629590251e-06
3.992289693e-06
2.346378313e-06
4.097253123e-06
6.800652731e-06
1.259686624e-05
2.068233281e-05
2.600408281e-05
2.068201825e-05
1.259664701e-05
6.800621013e-06
4.09732729e-06
6.570017811e-06
1.054056494e-05
1.874248577e-05
2.954412166e-05
3.607348302e-05
2.954363148e-05
1.874206146e-05
1.054039206e-05
6.570003085e-06
9.795518066e-06
1.512514676e-05
2.571956417e-05
3.889860805e-05
4.626987307e-05
3.889791843e-05
2.571886538e-05
1.512475704e-05
9.795338205e-06
1.373932664e-05
2.039611311e-05
3.315275586e-05
4.820526927e-05
5.607989793e-05
4.820436313e-05
3.315173804e-05
2.039542929e-05
1.373890425e-05
1.831418877e-05
2.616164827e-05
4.070519805e-05
5.707610268e-05
6.517607067e-05
5.707498751e-05
4.070384333e-05
2.616062136e-05
1.831345201e-05
2.339802024e-05
3.222720247e-05
4.811031448e-05
6.52688835e-05
7.338049148e-05
6.526757334e-05
4.810861352e-05
3.222579099e-05
2.339690011e-05
2.885201607e-05
3.841569865e-05
5.517844128e-05
7.265915959e-05
8.062491861e-05
7.265767082e-05
5.517640251e-05
3.841387506e-05
2.885046425e-05
3.453563512e-05
4.457793992e-05
6.178920618e-05
7.920800828e-05
8.691566348e-05
7.920636287e-05
6.178685234e-05
4.457570689e-05
3.45336118e-05
4.031648387e-05
5.059512325e-05
6.787735218e-05
8.493300594e-05
9.230550212e-05
8.493122962e-05
6.787470763e-05
5.059248019e-05
4.031396845e-05
4.607231798e-05
5.63735774e-05
7.341531711e-05
8.988391291e-05
9.687171092e-05
8.98820192e-05
7.341240969e-05
5.63705319e-05
4.60692992e-05
5.16732118e-05
6.182281574e-05
7.838668005e-05
9.411719174e-05
0.0001006943443
9.411518667e-05
7.838352881e-05
6.18193933e-05
5.166969102e-05
5.688966304e-05
6.67691087e-05
8.271237512e-05
9.764039341e-05
0.0001038104018
9.763829778e-05
8.270901534e-05
6.676533775e-05
5.688564463e-05
6.0988332e-05
7.058683228e-05
8.595094394e-05
0.000100189984
0.0001060275693
0.0001001878196
8.594739171e-05
7.058275618e-05
6.098384667e-05
)
;
    }
    inlet
    {
        type            calculated;
        value           nonuniform 0();
    }
    outlet
    {
        type            calculated;
        value           nonuniform List<scalar> 
81
(
6.099227716e-05
7.059174331e-05
8.595736473e-05
0.0001001979924
0.0001060365162
0.0001001965781
8.595503868e-05
7.058905356e-05
6.098939011e-05
7.059162605e-05
8.26711766e-05
0.000102151482
0.0001203768132
0.0001279059191
0.0001203748842
0.000102148415
8.266775059e-05
7.058791695e-05
8.5957054e-05
0.0001021512632
0.000128500791
0.0001534340387
0.0001638315414
0.0001534314237
0.0001284965699
0.0001021465327
8.595208749e-05
0.0001001973615
0.0001203762163
0.0001534337475
0.0001849927939
0.0001982592595
0.0001849894345
0.0001534282747
0.0001203702612
0.0001001911773
0.0001060356543
0.0001279050577
0.0001638308414
0.0001982587596
0.0002128269064
0.0001982548566
0.0001638246633
0.0001278983393
0.0001060286862
0.0001001955842
0.0001203738257
0.0001534303857
0.0001849885144
0.0001982542453
0.0001849847012
0.0001534243656
0.0001203672515
0.0001001886903
8.595396733e-05
0.0001021473034
0.00012849541
0.0001534271284
0.0001638237444
0.0001534239468
0.0001284902699
0.0001021415862
8.594791579e-05
7.058798634e-05
8.266660471e-05
0.0001021453831
0.000120369073
0.0001278972943
0.0001203665369
0.000102141221
8.266189016e-05
7.058291561e-05
6.0988332e-05
7.058683228e-05
8.595094394e-05
0.000100189984
0.0001060275693
0.0001001878196
8.594739171e-05
7.058275618e-05
6.098384667e-05
)
;
    }
    procBoundary1to0
    {
        type            processor;
        value           nonuniform List<scalar> 
97
(
1.220407504e-06
1.220407504e-06
2.096345694e-06
4.058314603e-06
7.006581223e-06
9.219776553e-06
7.00646809e-06
4.058164928e-06
2.096196904e-06
1.22025939e-06
9.756158729e-07
4.110361469e-06
4.110361469e-06
4.110361469e-06