/*--------------------------------*- C++ -*----------------------------------*\
| =========                 |                                                 |
| \\      /  F ield         | OpenFOAM: The Open Source CFD Toolbox           |
|  \\    /   O peration     | Version:  4.x                                   |
|   \\  /    A nd           | Web:      www.OpenFOAM.org                      |
|    \\/     M anipulation  |                                                 |
\*---------------------------------------------------------------------------*/
FoamFile
{
    version     2.0;
    format      ascii;
    class       volScalarField;
    location    "10000";
    object      CO;
}
// * * * * * * * * * * * * * * * * * * * * * * * * * * * * * * * * * * * * * //

dimensions      [0 0 0 0 0 0 0];

internalField   nonuniform List<scalar> 
1174
(
0.3719620557
0.3719606891
0.3719587578
0.3719562371
0.3719531535
0.3719495752
0.3719455973
0.3719413285
0.3719368785
0.3719323516
0.3719278437
0.3719234563
0.3719193695
0.371916157
0.3719607682
0.371958573
0.3719556474
0.3719520597
0.3719479331
0.3719434177
0.3719386663
0.3719338179
0.3719289892
0.3719242735
0.371919745
0.3719154747
0.3719115981
0.3719086053
0.3719579204
0.3719540315
0.3719492175
0.3719437493
0.3719379213
0.3719319988
0.3719261908
0.3719206464
0.3719154608
0.3719106854
0.3719063424
0.3719024443
0.3718990529
0.3718965137
0.3719537399
0.3719476885
0.371940739
0.3719334002
0.3719260968
0.3719191343
0.3719127028
0.3719069015
0.3719017612
0.3718972684
0.3718933843
0.3718900647
0.3718873029
0.3718853047
0.3719507493
0.3719435082
0.3719356079
0.3719276054
0.3719199049
0.3719127635
0.3719063219
0.3719006345
0.3718956958
0.3718914659
0.3718878838
0.3718848865
0.3718824446
0.3718807078
0.3719537397
0.3719476885
0.371940739
0.3719334003
0.371926097
0.3719191342
0.3719127033
0.3719069018
0.3719017616
0.3718972689
0.3718933849
0.3718900651
0.3718873033
0.3718853052
0.3719579204
0.3719540315
0.3719492172
0.371943749
0.3719379215
0.371931999
0.3719261911
0.3719206467
0.371915461
0.3719106859
0.371906343
0.3719024449
0.3718990536
0.3718965146
0.3719607686
0.3719585734
0.3719556478
0.3719520599
0.3719479332
0.3719434179
0.3719386663
0.371933818
0.3719289896
0.3719242742
0.3719197455
0.3719154755
0.3719115989
0.3719086062
0.3719620559
0.3719606895
0.371958758
0.3719562372
0.3719531536
0.371949575
0.371945597
0.3719413282
0.3719368786
0.3719323519
0.3719278439
0.3719234568
0.3719193701
0.3719161578
0.3719622495
0.3719607686
0.3719585729
0.3719556474
0.3719520597
0.3719479331
0.3719434176
0.3719386665
0.3719338179
0.3719289894
0.3719242737
0.3719197451
0.3719154747
0.3719115983
0.3719086053
0.3719578597
0.3719539956
0.3719492817
0.3719440007
0.3719384394
0.3719328372
0.3719273734
0.3719221672
0.3719172897
0.3719127756
0.3719086374
0.3719048864
0.3719015876
0.3718990953
0.3719505297
0.3719430045
0.3719348223
0.3719266768
0.3719190448
0.3719121851
0.3719061927
0.3719010555
0.3718967022
0.3718930368
0.3718899601
0.3718873858
0.3718852727
0.3718837537
0.3719374775
0.3719249421
0.3719130208
0.3719026075
0.3718940155
0.3718872044
0.3718819619
0.3718780195
0.371875113
0.3718730107
0.3718715206
0.3718704904
0.3718698036
0.3718693961
0.371925138
0.3719100405
0.3718972516
0.3718871081
0.3718794103
0.371873766
0.3718697581
0.3718670114
0.3718652163
0.3718641247
0.3718635441
0.3718633247
0.3718633424
0.3718634632
0.3719374777
0.3719249427
0.371913021
0.371902608
0.371894016
0.3718872048
0.3718819625
0.3718780203
0.3718751139
0.3718730116
0.3718715214
0.3718704909
0.3718698042
0.3718693971
0.3719505298
0.3719430045
0.3719348226
0.3719266773
0.3719190449
0.3719121855
0.3719061934
0.3719010559
0.3718967031
0.3718930378
0.3718899613
0.3718873867
0.3718852737
0.371883755
0.3719578599
0.3719539956
0.3719492814
0.3719440008
0.3719384395
0.3719328374
0.3719273735
0.3719221677
0.3719172907
0.3719127765
0.3719086386
0.3719048875
0.3719015887
0.3718990961
0.3719607682
0.3719585729
0.3719556478
0.3719520601
0.3719479332
0.3719434177
0.3719386665
0.371933818
0.3719289896
0.3719242745
0.3719197461
0.3719154757
0.3719115993
0.3719086064
0.3719607146
0.3719579205
0.3719540315
0.3719492171
0.3719437491
0.3719379216
0.3719319991
0.371926191
0.3719206466
0.3719154612
0.3719106858
0.3719063425
0.3719024445
0.3718990533
0.3718965142
0.3719566028
0.37195053
0.3719430047
0.3719348224
0.3719266772
0.371919045
0.3719121853
0.371906193
0.3719010557
0.3718967023
0.3718930371
0.3718899606
0.3718873862
0.3718852729
0.3718837539
0.3719288346
0.3719129217
0.3718985081
0.3718866895
0.371877693
0.3718712606
0.3718669352
0.3718642302
0.3718627116
0.3718620263
0.3718619023
0.371862135
0.3718625595
0.3718629851
0.3718804835
0.371853555
0.3718349768
0.3718240078
0.371818854
0.3718177064
0.3718191025
0.3718219822
0.3718256261
0.371829569
0.3718335202
0.3718372922
0.3718407078
0.3718433262
0.3718170284
0.3717901964
0.3717786764
0.3717766517
0.371779963
0.37178599
0.3717931792
0.3718006456
0.3718079074
0.3718147166
0.3718209588
0.3718265772
0.3718314666
0.3718351259
0.3718804849
0.3718535567
0.3718349782
0.371824009
0.3718188553
0.3718177075
0.3718191036
0.3718219835
0.3718256275
0.3718295705
0.3718335213
0.3718372932
0.371840709
0.3718433272
0.3719288352
0.3719129221
0.3718985088
0.3718866902
0.3718776939
0.3718712615
0.3718669363
0.3718642313
0.3718627132
0.3718620277
0.3718619038
0.3718621365
0.3718625609
0.3718629867
0.3719505302
0.3719430049
0.3719348225
0.3719266775
0.3719190453
0.3719121858
0.3719061937
0.3719010566
0.3718967039
0.3718930385
0.3718899619
0.3718873874
0.3718852744
0.3718837555
0.3719579205
0.3719540318
0.3719492175
0.3719437494
0.371937922
0.3719319992
0.3719261914
0.3719206474
0.3719154619
0.3719106869
0.3719063439
0.371902446
0.3718990549
0.3718965158
0.371958405
0.3719537401
0.3719476889
0.3719407393
0.3719334005
0.3719260971
0.3719191345
0.3719127034
0.3719069021
0.3719017618
0.3718972687
0.3718933849
0.3718900648
0.3718873033
0.3718853048
0.3719490027
0.371937478
0.3719249428
0.3719130214
0.3719026079
0.3718940157
0.3718872047
0.3718819621
0.3718780201
0.3718751135
0.3718730114
0.3718715212
0.3718704909
0.3718698037
0.3718693964
0.3719133256
0.3718804844
0.3718535559
0.3718349778
0.3718240083
0.3718188548
0.3718177069
0.3718191031
0.3718219828
0.3718256265
0.3718295694
0.3718335204
0.3718372926
0.371840708
0.3718433259
0.3717144248
0.3716803985
0.3716747133
0.3716844065
0.3717009788
0.3717196268
0.371737912
0.3717547452
0.371769748
0.3717828947
0.3717943063
0.3718041331
0.3718123928
0.3718184298
0.3713878948
0.3714303089
0.371495699
0.3715584603
0.3716118205
0.3716553662
0.371690502
0.3717188896
0.3717419802
0.3717609242
0.3717765954
0.3717896196
0.3718002906
0.371807964
0.3717144286
0.3716804011
0.3716747152
0.3716844082
0.3717009805
0.3717196286
0.371737914
0.3717547468
0.3717697498
0.3717828961
0.3717943077
0.3718041344
0.371812394
0.3718184313
0.3718804844
0.3718535566
0.3718349788
0.3718240095
0.3718188562
0.3718177085
0.3718191048
0.3718219847
0.3718256288
0.3718295716
0.3718335223
0.3718372944
0.3718407099
0.3718433281
0.3719374779
0.3719249431
0.3719130216
0.3719026085
0.3718940169
0.371887206
0.3718819637
0.3718780215
0.3718751152
0.3718730128
0.3718715229
0.3718704924
0.3718698058
0.3718693984
0.37195374
0.3719476887
0.3719407393
0.3719334008
0.3719260976
0.371919135
0.3719127042
0.3719069031
0.371901763
0.3718972702
0.3718933862
0.3718900666
0.3718873053
0.3718853068
0.3719566687
0.3719507495
0.3719435088
0.3719356084
0.3719276063
0.3719199055
0.3719127641
0.3719063225
0.3719006351
0.3718956969
0.3718914665
0.3718878847
0.3718848872
0.3718824452
0.3718807081
0.3719410549
0.3719251387
0.3719100415
0.3718972523
0.3718871088
0.3718794107
0.3718737668
0.3718697585
0.3718670121
0.3718652169
0.371864125
0.3718635446
0.3718633251
0.3718633427
0.3718634632
0.3718646507
0.3718170292
0.3717901977
0.3717786774
0.3717766527
0.371779964
0.3717859909
0.37179318
0.3718006461
0.3718079075
0.3718147169
0.3718209592
0.3718265773
0.3718314668
0.3718351259
0.3714462168
0.3713878986
0.3714303111
0.3714957007
0.3715584615
0.3716118214
0.371655367
0.3716905023
0.3717188897
0.3717419803
0.371760924
0.3717765955
0.3717896196
0.3718002909
0.3718079639
0.369980611
0.3706959807
0.3710923166
0.3713244192
0.3714682105
0.3715622855
0.3716270117
0.3716735688
0.3717083442
0.3717351391
0.3717563001
0.3717732918
0.3717868715
0.3717964836
0.3713878951
0.3714303124
0.3714957031
0.3715584642
0.3716118239
0.3716553695
0.3716905048
0.3717188922
0.3717419825
0.3717609259
0.3717765974
0.3717896213
0.3718002922
0.3718079654
0.3718170278
0.3717901977
0.3717786786
0.3717766544
0.3717799661
0.371785993
0.3717931823
0.371800649
0.3718079104
0.3718147198
0.3718209613
0.3718265797
0.3718314692
0.3718351288
0.3719251379
0.3719100413
0.3718972524
0.3718871094
0.3718794119
0.3718737676
0.37186976
0.3718670137
0.3718652186
0.3718641271
0.3718635465
0.3718633275
0.3718633452
0.3718634658
0.3719507491
0.3719435084
0.3719356083
0.3719276064
0.3719199059
0.3719127646
0.3719063234
0.371900636
0.3718956978
0.371891468
0.371887886
0.3718848889
0.3718824474
0.3718807104
0.371958405
0.3719537398
0.3719476888
0.3719407393
0.3719334007
0.3719260974
0.3719191348
0.3719127038
0.3719069026
0.3719017624
0.3718972696
0.3718933855
0.3718900657
0.3718873042
0.3718853055
0.3719490029
0.3719374785
0.3719249434
0.3719130217
0.3719026084
0.3718940165
0.3718872055
0.3718819628
0.3718780206
0.3718751142
0.3718730116
0.3718715218
0.3718704912
0.3718698044
0.3718693969
0.3719133269
0.3718804857
0.3718535574
0.3718349792
0.3718240097
0.3718188563
0.3718177086
0.3718191045
0.3718219843
0.3718256282
0.3718295708
0.3718335214
0.3718372936
0.3718407092
0.3718433273
0.3717906582
0.3717144319
0.3716804036
0.3716747176
0.3716844099
0.3717009817
0.3717196298
0.3717379149
0.3717547474
0.3717697506
0.3717828968
0.3717943085
0.3718041345
0.3718123943
0.3718184316
0.3714462175
0.3713878995
0.3714303151
0.3714957049
0.3715584655
0.371611825
0.3716553701
0.3716905053
0.3717188926
0.371741983
0.3717609267
0.3717765977
0.3717896215
0.3718002925
0.3718079656
0.3717906567
0.3717144314
0.3716804044
0.3716747189
0.3716844117
0.3717009839
0.3717196316
0.3717379167
0.3717547492
0.3717697526
0.3717828984
0.37179431
0.3718041362
0.3718123956
0.3718184329
0.3718804839
0.371853557
0.3718349797
0.3718240109
0.3718188578
0.3718177102
0.3718191063
0.3718219864
0.3718256304
0.3718295731
0.3718335237
0.3718372959
0.3718407113
0.3718433297
0.3719374776
0.3719249426
0.3719130218
0.3719026089
0.3718940174
0.3718872064
0.3718819643
0.3718780222
0.3718751161
0.3718730138
0.3718715238
0.3718704937
0.3718698069
0.3718693997
0.3719537398
0.3719476887
0.3719407391
0.3719334008
0.3719260977
0.3719191351
0.3719127046
0.3719069036
0.3719017636
0.3718972709
0.3718933872
0.3718900677
0.3718873059
0.3718853079
0.3719607148
0.3719579206
0.3719540316
0.3719492175
0.3719437497
0.371937922
0.3719319996
0.3719261914
0.3719206473
0.3719154617
0.3719106865
0.3719063435
0.3719024456
0.3718990543
0.3718965153
0.3719566033
0.3719505305
0.3719430052
0.371934823
0.371926678
0.3719190456
0.3719121862
0.3719061938
0.3719010565
0.3718967035
0.3718930385
0.3718899619
0.3718873875
0.3718852742
0.3718837552
0.3719439974
0.3719288361
0.3719129231
0.3718985099
0.3718866911
0.3718776947
0.3718712624
0.371866937
0.3718642323
0.3718627137
0.3718620281
0.3718619042
0.3718621368
0.3718625614
0.3718629873
0.3719133269
0.3718804861
0.3718535583
0.3718349805
0.3718240111
0.3718188575
0.3718177099
0.3718191056
0.3718219855
0.3718256294
0.3718295721
0.3718335226
0.371837295
0.3718407106
0.3718433288
0.3718646508
0.3718170305
0.3717902002
0.3717786804
0.3717766557
0.371779967
0.3717859943
0.3717931832
0.3718006495
0.3718079108
0.37181472
0.3718209621
0.37182658
0.3718314692
0.3718351288
0.3719133271
0.3718804862
0.3718535583
0.3718349807
0.3718240119
0.3718188585
0.3718177108
0.3718191073
0.3718219865
0.3718256307
0.3718295733
0.3718335242
0.3718372963
0.3718407114
0.3718433298
0.3719439967
0.3719288357
0.3719129229
0.3718985103
0.3718866919
0.3718776956
0.3718712636
0.3718669383
0.3718642334
0.3718627151
0.3718620301
0.3718619058
0.3718621383
0.371862563
0.3718629889
0.3719505298
0.3719430046
0.3719348229
0.3719266782
0.3719190463
0.3719121871
0.371906195
0.3719010581
0.3718967052
0.3718930401
0.3718899633
0.3718873892
0.371885276
0.3718837572
0.3719579201
0.3719540316
0.3719492173
0.3719437494
0.3719379222
0.3719320001
0.3719261923
0.3719206482
0.3719154628
0.3719106877
0.3719063449
0.3719024471
0.3718990561
0.3718965173
0.3719622496
0.3719607688
0.3719585734
0.3719556479
0.3719520602
0.3719479336
0.3719434181
0.3719386668
0.3719338184
0.3719289897
0.3719242748
0.3719197461
0.3719154757
0.3719115995
0.3719086065
0.3719606737
0.3719578602
0.3719539957
0.3719492819
0.3719440016
0.3719384399
0.3719328376
0.371927374
0.3719221684
0.3719172909
0.3719127771
0.3719086394
0.3719048881
0.3719015892
0.3718990966
0.3719566031
0.3719505305
0.3719430053
0.371934823
0.3719266779
0.3719190457
0.3719121863
0.3719061943
0.371901057
0.371896704
0.3718930388
0.371889962
0.371887388
0.3718852751
0.3718837559
0.3719490033
0.3719374786
0.3719249436
0.3719130222
0.3719026094
0.3718940176
0.3718872064
0.3718819643
0.371878022
0.3718751156
0.3718730136
0.3718715234
0.3718704932
0.3718698065
0.3718693991
0.3719410549
0.3719251392
0.3719100423
0.3718972535
0.3718871104
0.3718794125
0.3718737682
0.3718697606
0.3718670146
0.3718652194
0.3718641279
0.3718635469
0.3718633278
0.3718633453
0.3718634661
0.3719490032
0.3719374785
0.3719249438
0.3719130228
0.3719026097
0.3718940183
0.3718872074
0.3718819652
0.3718780228
0.3718751165
0.3718730142
0.3718715243
0.3718704939
0.3718698071
0.3718693995
0.3719566032
0.3719505307
0.3719430053
0.3719348235
0.3719266784
0.3719190466
0.3719121871
0.3719061953
0.3719010583
0.3718967049
0.37189304
0.3718899633
0.3718873891
0.3718852759
0.3718837573
0.3719606737
0.3719578602
0.3719539958
0.371949282
0.3719440015
0.3719384405
0.3719328385
0.371927375
0.3719221692
0.3719172918
0.3719127779
0.3719086401
0.3719048891
0.3719015907
0.3718990984
0.3719607685
0.3719585732
0.371955648
0.3719520603
0.3719479339
0.3719434187
0.3719386677
0.3719338192
0.3719289906
0.3719242753
0.3719197473
0.371915477
0.371911601
0.3719086084
0.3719629344
0.3719620563
0.3719606898
0.3719587584
0.3719562379
0.371953154
0.3719495758
0.3719455977
0.3719413287
0.371936879
0.3719323523
0.3719278442
0.3719234574
0.3719193707
0.3719161584
0.3719622498
0.3719607686
0.3719585734
0.3719556481
0.3719520601
0.3719479336
0.3719434185
0.3719386672
0.3719338186
0.3719289899
0.3719242746
0.3719197464
0.3719154763
0.3719115998
0.371908607
0.3719607147
0.3719579207
0.3719540317
0.3719492175
0.3719437497
0.3719379224
0.3719319999
0.3719261922
0.3719206478
0.3719154626
0.3719106873
0.3719063444
0.3719024466
0.3718990554
0.3718965164
0.3719584053
0.3719537405
0.3719476894
0.37194074
0.3719334014
0.3719260983
0.371919136
0.3719127049
0.371906904
0.3719017637
0.371897271
0.3718933872
0.3718900674
0.3718873055
0.3718853074
0.371956669
0.3719507497
0.3719435092
0.3719356091
0.3719276069
0.3719199066
0.3719127656
0.3719063243
0.3719006366
0.3718956986
0.3718914686
0.3718878866
0.3718848895
0.3718824478
0.3718807111
0.3719584054
0.3719537406
0.3719476895
0.37194074
0.3719334015
0.3719260987
0.3719191365
0.3719127056
0.3719069043
0.371901764
0.3718972716
0.3718933877
0.3718900678
0.3718873065
0.3718853083
0.3719607151
0.3719579212
0.3719540321
0.3719492179
0.3719437498
0.3719379228
0.3719320006
0.3719261925
0.3719206485
0.3719154633
0.3719106881
0.3719063451
0.3719024472
0.3718990562
0.3718965174
0.3719622499
0.3719607689
0.3719585737
0.3719556482
0.3719520605
0.3719479339
0.3719434188
0.3719386676
0.3719338192
0.3719289908
0.3719242756
0.3719197475
0.3719154771
0.371911601
0.3719086083
0.3719629344
0.3719620562
0.3719606897
0.3719587583
0.3719562374
0.3719531539
0.3719495757
0.3719455979
0.3719413293
0.3719368797
0.3719323531
0.3719278455
0.3719234583
0.3719193719
0.37191616
)
;

boundaryField
{
    top
    {
        type            zeroGradient;
    }
    bottom
    {
        type            zeroGradient;
    }
    side-walls
    {
        type            zeroGradient;
    }
    inlet
    {
        type            zeroGradient;
    }
    outlet
    {
        type            zeroGradient;
    }
    procBoundary1to0
    {
        type            processor;
        value           nonuniform List<scalar> 
97
(
0.3719629342
0.3719629342
0.3719622495
0.3719607145
0.3719584051
0.3719566691
0.3719584053
0.3719607147
0.3719622497
0.3719629341
0.3719631243
0.3719606736
0.3719606736
0.3719606736
0.371956603
0.3719490031
0.3719410554
0.3719490034
0.3719566033
0.3719606734
0.3719622496
0.3719624299
0.3719606283
0.3719439966
0.3719439966
0.3719439966
0.3719133275
0.3718646542
0.3719133291
0.3719439977
0.3719566031
0.3719607148
0.3719614108
0.3719574461
0.3719435526
0.3717906556
0.3717906556
0.3717906556
0.3714462402
0.371790664
0.3719133283
0.3719490033
0.3719584056
0.3719606817
0.3719544376
0.3719280825
0.3718235111
0.3686167755
0.3686167755
0.3686167755
0.3714462394
0.3714462394
0.3718646536
0.3719410553
0.3719566693
0.3719614109
0.3719574464
0.3719435526
0.3719030781
0.37182351
0.3719030788
0.3719133262
0.3719133262
0.3719133262
0.3719490031
0.3719584051
0.3719624302
0.3719606286
0.3719553396
0.3719435527
0.3719280821
0.3719435526
0.3719553393
0.3719566031
0.3719566031
0.3719566031
0.3719607146
0.3719631243
0.3719624155
0.3719606284
0.3719574462
0.3719544379
0.3719574465
0.3719606286
0.3719624154
0.3719622497
0.3719622497
0.3719622497
0.3719634383
0.3719631245
0.3719624301
0.3719614106
0.3719606816
0.371961411
0.3719624303
0.3719631246
0.3719634384
)
;
    }
}


// ************************************************************************* //
