/*--------------------------------*- C++ -*----------------------------------*\
| =========                 |                                                 |
| \\      /  F ield         | OpenFOAM: The Open Source CFD Toolbox           |
|  \\    /   O peration     | Version:  4.x                                   |
|   \\  /    A nd           | Web:      www.OpenFOAM.org                      |
|    \\/     M anipulation  |                                                 |
\*---------------------------------------------------------------------------*/
FoamFile
{
    version     2.0;
    format      ascii;
    class       volScalarField;
    location    "10000";
    object      CO2;
}
// * * * * * * * * * * * * * * * * * * * * * * * * * * * * * * * * * * * * * //

dimensions      [0 0 0 0 0 0 0];

internalField   nonuniform List<scalar> 
1174
(
0.0065090846
0.006510851472
0.006513348839
0.006516608276
0.006520595957
0.006525223095
0.006530366991
0.006535887242
0.006541642135
0.006547496755
0.006553326545
0.006559000725
0.006564286289
0.00656844131
0.006510749207
0.006513587671
0.006517370923
0.006522010154
0.006527346353
0.006533185432
0.006539329818
0.006545599406
0.006551844042
0.006557942921
0.006563799838
0.00656932233
0.006574336134
0.006578206882
0.006514431369
0.006519459838
0.006525684251
0.006532755544
0.00654029226
0.006547950891
0.006555461519
0.00656263178
0.006569338148
0.006575514028
0.006581130726
0.00658617252
0.006590559333
0.00659384369
0.006519836797
0.006527661749
0.006536647939
0.006546137816
0.006555582029
0.006564585352
0.006572902999
0.006580405378
0.006587053054
0.006592863721
0.006597887279
0.006602180778
0.006605753357
0.006608338059
0.006523703662
0.006533067083
0.006543282624
0.00655363064
0.006563588294
0.006572823332
0.006581153597
0.006588508356
0.00659489626
0.006600366767
0.006604999907
0.006608876937
0.006612035817
0.006614282258
0.006519837538
0.006527661963
0.006536648011
0.006546137527
0.006555581597
0.006564585825
0.00657290176
0.006580404659
0.006587052295
0.006592862531
0.006597885951
0.006602179833
0.006605752531
0.006608336867
0.006514431464
0.006519460008
0.006525685294
0.006532756276
0.006540291969
0.006547950529
0.006555461096
0.006562631332
0.006569337871
0.00657551295
0.006581129414
0.006586171296
0.006590557811
0.006593841524
0.006510748374
0.006513586611
0.006517369977
0.006522009677
0.006527346026
0.006533185099
0.006539330007
0.006545599366
0.006551843032
0.006557941331
0.0065637985
0.006569320383
0.006574334176
0.006578204836
0.006509083922
0.006510850487
0.006513348384
0.006516608001
0.006520595732
0.006525223632
0.006530367749
0.006535887979
0.006541642149
0.006547495952
0.006553326155
0.006558999704
0.006564284712
0.006568439301
0.006508833489
0.006510748335
0.006513587947
0.006517370957
0.006522009992
0.0065273462
0.006533185738
0.006539329458
0.0065455995
0.006551843583
0.006557942461
0.006563799473
0.006569322413
0.006574335829
0.006578207031
0.00651450988
0.006519506137
0.006525601286
0.006532430743
0.006539622013
0.006546866575
0.00655393216
0.00656066515
0.006566973155
0.006572811394
0.006578163565
0.006583014623
0.00658728124
0.006590504609
0.006523988173
0.006533718283
0.006544298331
0.006554831446
0.006564700376
0.006573571235
0.006581320742
0.006587964415
0.006593594733
0.006598335598
0.006602315285
0.006605645394
0.006608378792
0.006610344013
0.006540864775
0.006557073895
0.006572488284
0.00658595369
0.006597064331
0.006605872274
0.006612652253
0.006617751475
0.006621511197
0.006624231195
0.006626159274
0.006627492724
0.006628382125
0.00662890995
0.006556819226
0.006576341058
0.006592877387
0.006605994191
0.006615948747
0.006623248117
0.006628431733
0.006631985498
0.006634307978
0.006635720707
0.006636472987
0.006636758469
0.006636737077
0.006636581741
0.006540864577
0.006557072664
0.006572488309
0.006585952632
0.006597063161
0.006605871366
0.006612651105
0.006617749536
0.006621509115
0.006624228943
0.006626157617
0.006627491607
0.00662838064
0.006628907626
0.006523987977
0.006533718468
0.00654429775
0.006554830438
0.006564700404
0.006573570567
0.006581319199
0.006587963549
0.006593592715
0.006598333462
0.00660231264
0.006605643163
0.006608376353
0.00661034078
0.006514509732
0.006519506205
0.006525602329
0.006532430802
0.006539622091
0.006546866146
0.006553932061
0.006560664011
0.006566970861
0.006572809125
0.006578160889
0.006583012088
0.006587278664
0.006590502949
0.006510749301
0.006513587847
0.006517369896
0.006522009217
0.006527346096
0.006533185714
0.006539329458
0.006545599448
0.006551843144
0.006557940689
0.006563797131
0.006569320021
0.006574333418
0.006578204402
0.006510818298
0.006514431074
0.00651945992
0.006525685386
0.006532756135
0.006540291732
0.006547950265
0.006555461104
0.006562631315
0.006569336994
0.006575513161
0.006581130797
0.006586172272
0.006590558487
0.00659384251
0.006516135063
0.006523987474
0.006533717928
0.006544298192
0.006554830677
0.006564699962
0.006573570798
0.006581320186
0.006587963884
0.006593594526
0.00659833508
0.006602314239
0.006605644338
0.006608378361
0.006610343527
0.0065520405
0.006572616037
0.006591253607
0.006606536006
0.006618169624
0.00662648821
0.00663208244
0.006635581797
0.00663754712
0.006638434559
0.006638596347
0.006638297019
0.006637749606
0.006637200487
0.006614558093
0.006649376758
0.006673399551
0.006687583255
0.006694249232
0.006695734924
0.006693931663
0.00669021043
0.006685500652
0.006680404172
0.006675296609
0.006670421073
0.006666005986
0.006662621008
0.006696601084
0.006731295763
0.00674619313
0.006748813233
0.00674453427
0.006736743779
0.006727450254
0.006717798569
0.006708410745
0.006699608415
0.006691538726
0.006684275442
0.00667795517
0.006673224741
0.006614555189
0.006649373259
0.006673396625
0.006687580939
0.006694246539
0.006695732741
0.006693929324
0.006690207315
0.006685497349
0.006680400529
0.006675293848
0.006670418681
0.006666003081
0.00666261861
0.006552039546
0.006572615461
0.006591252378
0.006606534744
0.006618167895
0.006626486508
0.006632080242
0.0066355793
0.006637543231
0.00663843142
0.006638592863
0.006638293466
0.006637746093
0.006637196468
0.00652398701
0.006533717587
0.006544298018
0.006554830177
0.006564699274
0.006573569822
0.006581318628
0.006587961951
0.006593590636
0.006598331776
0.006602311235
0.006605641702
0.006608374772
0.00661033961
0.006514431226
0.006519459139
0.006525684585
0.006532755306
0.00654029093
0.006547950177
0.006555460552
0.006562629696
0.006569335776
0.006575510731
0.006581127514
0.006586168666
0.006590554576
0.006593838776
0.0065138046
0.006519836403
0.006527660715
0.006536647175
0.006546137035
0.006555581183
0.00656458487
0.006572901421
0.006580403697
0.00658705162
0.006592862903
0.006597885801
0.006602180745
0.00660575234
0.006608337944
0.006525962079
0.006540863516
0.006557071961
0.006572486895
0.006585952662
0.006597063674
0.006605871527
0.006612651845
0.006617749973
0.006621510196
0.006624229337
0.006626157805
0.006627491354
0.006628381802
0.006628909384
0.006572093275
0.006614555897
0.006649374574
0.006673397064
0.006687582047
0.006694247524
0.006695733706
0.006693930292
0.006690209003
0.006685499921
0.006680403307
0.006675295944
0.006670420036
0.006666005607
0.006662621797
0.006829266072
0.00687326117
0.006880614296
0.006868084235
0.006846659881
0.006822551283
0.006798911688
0.006777148459
0.006757752751
0.006740755825
0.006726002441
0.006713297717
0.006702619421
0.006694814594
0.007251442019
0.007196608552
0.007112068294
0.007030925796
0.006961937542
0.006905637796
0.006860211061
0.0068235093
0.006793655837
0.006769163419
0.00674890244
0.006732063798
0.006718267768
0.006708347054
0.006829259006
0.00687325624
0.006880610606
0.006868080607
0.00684665608
0.006822547192
0.006798906771
0.006777144427
0.006757748335
0.006740752265
0.006725999078
0.006713294399
0.006702616437
0.006694810766
0.006614556378
0.006649373496
0.006673395129
0.006687579649
0.006694244378
0.006695730154
0.006693926564
0.006690204347
0.006685494167
0.006680398025
0.006675291583
0.00667041594
0.006666000917
0.006662616593
0.006540863914
0.006557071688
0.006572486687
0.006585951676
0.006597061253
0.006605868635
0.006612648161
0.006617746761
0.006621506006
0.006624226222
0.006626153909
0.006627487839
0.00662837698
0.006628904477
0.006519836792
0.006527661517
0.006536647309
0.006546136527
0.006555580216
0.006564583861
0.006572899739
0.00658040173
0.006587048966
0.006592859439
0.00659788295
0.006602176339
0.006605747685
0.006608333081
0.00651604986
0.006523703371
0.006533065676
0.006543281466
0.006553628631
0.006563586661
0.006572821722
0.006581152059
0.006588506851
0.006594893463
0.006600365351
0.006604997651
0.006608875111
0.006612034367
0.00661428177
0.006536237967
0.006556817541
0.006576338884
0.00659287586
0.006605992558
0.006615947987
0.006623246391
0.006628431015
0.006631983749
0.006634306477
0.0066357201
0.006636471722
0.006636757402
0.00663673642
0.00663658181
0.006635025716
0.006696598954
0.006731292739
0.006746190732
0.006748810974
0.00674453198
0.006736741685
0.006727448373
0.006717797391
0.006708410663
0.006699607692
0.006691538032
0.00668427539
0.00667795482
0.006673224829
0.007176030963
0.007251433694
0.007196603963
0.007112064693
0.007030923161
0.006961935492
0.006905635845
0.006860210374
0.006823509035
0.006793655718
0.006769163883
0.006748902186
0.006732063919
0.006718267126
0.006708347248
0.009070932493
0.008146031085
0.007633608451
0.007333523126
0.007147615233
0.007025985194
0.006942300496
0.006882106704
0.006837145776
0.006802503212
0.00677514367
0.006753175697
0.006735618817
0.00672319128
0.00725144209
0.00719660203
0.007112059646
0.007030917267
0.006961929737
0.006905630003
0.006860204427
0.006823503063
0.006793650427
0.006769159214
0.006748897698
0.006732059852
0.006718263942
0.006708343538
0.006696602371
0.006731292855
0.006746188083
0.006748807191
0.006744527003
0.006736736881
0.006727443069
0.006717790537
0.006708403637
0.006699600599
0.006691532889
0.006684269601
0.006677948966
0.006673217753
0.006556819573
0.006576339131
0.006592875681
0.006605991216
0.006615945069
0.006623244417
0.00662842735
0.006631980063
0.006634302492
0.006635714974
0.006636467299
0.006636751554
0.00663673014
0.006636575256
0.006523704249
0.006533066426
0.006543281448
0.006553628314
0.006563585805
0.006572820593
0.006581149917
0.006588504784
0.006594891256
0.006600361815
0.006604994402
0.006608870936
0.006612028854
0.006614276017
0.006513804546
0.006519837151
0.006527661236
0.006536647244
0.006546136621
0.006555580678
0.006564584175
0.006572900681
0.006580402691
0.006587050325
0.0065928608
0.006597884407
0.006602178413
0.006605750297
0.006608336256
0.006525961823
0.006540862421
0.006557070794
0.006572486334
0.006585951676
0.006597062103
0.006605869599
0.006612650288
0.00661774895
0.006621508634
0.006624228986
0.006626156687
0.00662749073
0.006628380336
0.006628908226
0.006572090736
0.006614553425
0.006649371692
0.006673394443
0.006687579475
0.006694244282
0.006695730143
0.006693927311
0.006690205385
0.006685495915
0.006680400093
0.006675293956
0.006670417976
0.006666002824
0.006662618543
0.006730694955
0.006829251468
0.006873250999
0.006880605454
0.006868077087
0.006846653484
0.006822544598
0.006798904965
0.006777143287
0.006757746587
0.006740750746
0.006725997003
0.006713294369
0.006702615646
0.006694810066
0.007176029359
0.007251432179
0.007196595958
0.007112055703
0.007030914286
0.00696192728
0.006905628764
0.00686020351
0.006823502324
0.00679364907
0.00676915729
0.006748896951
0.006732059318
0.006718263398
0.006708343249
0.006730697838
0.006829252636
0.006873249192
0.006880602185
0.006868072587
0.006846648205
0.006822540221
0.006798900594
0.006777138953
0.006757741643
0.006740746994
0.006725993414
0.006713290269
0.006702612511
0.006694806994
0.006614557111
0.006649372466
0.006673393073
0.006687576254
0.006694240453
0.006695726126
0.006693922887
0.006690200395
0.006685490384
0.006680394264
0.006675288081
0.006670412108
0.006665997659
0.006662612652
0.0065408645
0.006557072607
0.006572486115
0.006585950232
0.00659705982
0.006605867408
0.006612646639
0.006617744981
0.006621503847
0.006624223711
0.006626151553
0.006627484514
0.006628374189
0.006628901235
0.006519837098
0.006527661333
0.006536647643
0.006546136392
0.006555579882
0.006564583551
0.006572898474
0.006580400257
0.006587047316
0.006592857551
0.006597880233
0.006602173647
0.006605746151
0.006608330395
0.006510817651
0.006514430809
0.006519459563
0.006525684537
0.006532754643
0.006540290677
0.006547948974
0.006555460398
0.006562629884
0.006569335986
0.006575511607
0.006581128276
0.006586169698
0.00659055597
0.00659384001
0.006516133861
0.00652398635
0.006533716778
0.006544296753
0.006554828737
0.006564698614
0.006573568817
0.006581318372
0.006587962101
0.00659359176
0.00659833163
0.006602311182
0.006605641208
0.0066083753
0.00661034058
0.006532433721
0.006552037415
0.006572612925
0.006591249817
0.00660653245
0.006618166016
0.006626484205
0.006632078534
0.006635577017
0.006637542108
0.006638430425
0.006638591942
0.006638292814
0.006637744967
0.006637195076
0.006572090659
0.006614552594
0.00664936972
0.006673391285
0.006687576212
0.006694241374
0.006695727099
0.006693924651
0.006690202774
0.006685493036
0.006680396958
0.006675291096
0.006670414517
0.006665999282
0.00666261484
0.006635025599
0.006696596349
0.006731287124
0.006746184093
0.006748804316
0.006744525219
0.006736733812
0.006727440997
0.006717789489
0.006708402802
0.006699600438
0.006691531144
0.006684268978
0.006677949052
0.006673217963
0.006572090052
0.006614552127
0.006649369512
0.006673390759
0.006687573952
0.00669423888
0.006695724597
0.006693920498
0.006690200282
0.006685489769
0.006680393938
0.006675286912
0.006670411237
0.006665997278
0.006662612397
0.006532435344
0.006552038067
0.006572613311
0.006591248602
0.0066065302
0.006618163628
0.006626481074
0.006632075115
0.006635574255
0.006637538627
0.006638425423
0.006638588145
0.006638289064
0.006637741065
0.006637191184
0.006523988049
0.006533718274
0.00654429707
0.006554828312
0.006564696883
0.006573566479
0.006581315322
0.006587958293
0.006593587532
0.006598327661
0.006602307677
0.006605637264
0.006608370887
0.006610335552
0.006514431999
0.00651945959
0.006525685081
0.006532755487
0.006540290361
0.0065479478
0.006555458107
0.00656262751
0.006569333399
0.006575508724
0.006581124841
0.006586165868
0.006590551617
0.006593835011
0.006508833369
0.006510747778
0.006513586605
0.006517369596
0.006522008941
0.006527345192
0.006533184716
0.006539328749
0.006545598411
0.00655184287
0.00655793998
0.006563797107
0.006569319994
0.006574332907
0.006578204066
0.006510870814
0.006514508901
0.006519506104
0.006525601002
0.006532428677
0.006539621136
0.006546865778
0.006553930892
0.006560662441
0.006566970438
0.006572807825
0.006578158749
0.006583010794
0.006587277571
0.006590501621
0.006516134586
0.006523986391
0.006533716636
0.006544296815
0.006554829097
0.006564698419
0.006573568724
0.006581317248
0.006587961124
0.00659359068
0.006598331154
0.006602311088
0.006605640285
0.006608373063
0.006610338839
0.00652596073
0.006540862362
0.006557070512
0.006572485272
0.006585949465
0.006597059561
0.006605867694
0.006612646939
0.00661774573
0.006621505233
0.006624224285
0.006626152862
0.006627486104
0.006628375163
0.006628903015
0.006536238116
0.006556816502
0.006576336995
0.006592873196
0.006605988886
0.006615943724
0.006623243194
0.006628426099
0.006631977873
0.006634300502
0.006635713196
0.006636466495
0.00663675095
0.006636730203
0.006636574636
0.006525961069
0.006540862653
0.006557069781
0.00657248367
0.00658594861
0.006597057668
0.006605865181
0.006612644575
0.006617743584
0.006621503066
0.006624222824
0.006626150638
0.006627484178
0.0066283739
0.006628901852
0.006516134164
0.006523985698
0.006533716505
0.006544295636
0.006554827826
0.006564696241
0.006573566522
0.006581314566
0.006587957643
0.006593588235
0.006598328077
0.006602307855
0.006605637489
0.006608371367
0.006610335401
0.006510870799
0.006514508906
0.006519505679
0.006525600508
0.006532428942
0.00653961959
0.006546863576
0.006553928369
0.006560660484
0.006566968151
0.006572805996
0.006578157209
0.006583008264
0.0065872739
0.0065904973
0.006510748427
0.006513587037
0.006517369384
0.006522008633
0.006527344272
0.006533183242
0.006539326537
0.006545596447
0.006551840625
0.006557938837
0.006563794154
0.006569316938
0.006574329333
0.006578199323
0.006507947576
0.006509082912
0.006510849668
0.006513347374
0.006516606304
0.0065205947
0.006525221475
0.006530366083
0.006535886821
0.006541641239
0.006547495068
0.006553325484
0.00655899827
0.006564283396
0.006568438162
0.006508832912
0.006510748324
0.006513586598
0.006517369308
0.006522009149
0.006527345259
0.006533183779
0.006539327702
0.006545597978
0.006551842651
0.006557940515
0.006563796361
0.006569318573
0.006574332236
0.006578203073
0.006510817929
0.006514430553
0.006519459353
0.006525684689
0.006532754788
0.006540289867
0.006547948379
0.006555458335
0.006562628761
0.006569333994
0.006575509717
0.006581126272
0.006586167345
0.006590553399
0.006593837201
0.006513803833
0.006519835507
0.006527659724
0.006536645656
0.006546135182
0.006555578784
0.006564581662
0.006572898211
0.006580399594
0.00658704729
0.006592857794
0.006597880416
0.006602174455
0.006605747337
0.006608331751
0.006516048958
0.006523702754
0.006533064858
0.006543279864
0.006553627214
0.00656358425
0.006572818372
0.006581148097
0.006588503566
0.006594889684
0.006600360521
0.006604993141
0.006608869712
0.006612028247
0.006614274616
0.006513803602
0.006519835211
0.006527659353
0.006536645669
0.00654613481
0.006555577665
0.006564580152
0.006572896391
0.00658039885
0.006587046438
0.006592856034
0.006597879218
0.006602173437
0.006605744911
0.006608329552
0.006510816918
0.006514429275
0.006519458304
0.00652568358
0.006532754463
0.006540288732
0.006547946592
0.006555457599
0.00656262693
0.00656933207
0.006575507697
0.006581124564
0.006586165694
0.006590551598
0.006593834972
0.006508832502
0.006510747377
0.006513585659
0.006517368875
0.006522008015
0.006527344496
0.006533183013
0.00653932685
0.006545596432
0.00655184031
0.00655793807
0.006563793769
0.006569316532
0.00657432931
0.006578199858
0.006507947636
0.006509083245
0.006510849868
0.006513347575
0.006516607537
0.006520594868
0.006525221974
0.006530365636
0.006535885283
0.006541639379
0.00654749316
0.006553322292
0.006558996231
0.006564280521
0.006568434052
)
;

boundaryField
{
    top
    {
        type            zeroGradient;
    }
    bottom
    {
        type            zeroGradient;
    }
    side-walls
    {
        type            zeroGradient;
    }
    inlet
    {
        type            zeroGradient;
    }
    outlet
    {
        type            zeroGradient;
    }
    procBoundary1to0
    {
        type            processor;
        value           nonuniform List<scalar> 
97
(
0.006507948219
0.006507948219
0.006508833558
0.006510818492
0.006513804498
0.006516048753
0.006513803948
0.006510817962
0.006508833126
0.006507948497
0.006507702066
0.00651087097
0.00651087097
0.00651087097
0.006516134751
0.006525961101
0.006536236936
0.006525960755
0.006516134094
0.006510871741
0.006508833298
0.006508600146
0.006510929455
0.006532435639
0.006532435639
0.006532435639
0.006572088731
0.006635017253
0.006572085545
0.006532433253
0.006516134666
0.006510817674
0.006509917868
0.006515044512
0.006533008645
0.006730698328
0.006730698328
0.006730698328
0.007175970624
0.006730680281
0.006572087471
0.006525960947
0.006513803234
0.006510860534
0.006518934196
0.006553010669
0.006688213219
0.01083399331
0.01083399331
0.01083399331
0.007175973192
0.007175973192
0.006635018552
0.006536236955
0.006516048302
0.006509917559
0.006515043771
0.006533008701
0.006585340956
0.006688216006
0.006585339159
0.006572091945
0.006572091945
0.006572091945
0.006525961175
0.006513804312
0.006508599481
0.00651092885
0.006517767932
0.00653300835
0.006553011643
0.006533008571
0.006517768466
0.006516134483
0.006516134483
0.006516134483
0.00651081828
0.00650770214
0.006508618249
0.006510929372
0.006515044239
0.006518933548
0.006515043481
0.006510928733
0.006508618533
0.006508832953
0.006508832953
0.006508832953
0.006507295863
0.006507701504
0.006508599534
0.006509918476
0.006510860767
0.006509917227
0.006508599015
0.006507701362
0.006507295749
)
;
    }
}


// ************************************************************************* //
