/*--------------------------------*- C++ -*----------------------------------*\
| =========                 |                                                 |
| \\      /  F ield         | OpenFOAM: The Open Source CFD Toolbox           |
|  \\    /   O peration     | Version:  4.x                                   |
|   \\  /    A nd           | Web:      www.OpenFOAM.org                      |
|    \\/     M anipulation  |                                                 |
\*---------------------------------------------------------------------------*/
FoamFile
{
    version     2.0;
    format      ascii;
    class       volScalarField;
    location    "10000";
    object      Cpv;
}
// * * * * * * * * * * * * * * * * * * * * * * * * * * * * * * * * * * * * * //

dimensions      [0 2 -2 -1 0 0 0];

internalField   nonuniform List<scalar> 
1174
(
1210.519162
1210.519276
1210.519452
1210.519645
1210.519903
1210.520198
1210.520542
1210.520894
1210.521249
1210.521612
1210.521991
1210.52233
1210.522677
1210.52293
1210.518326
1210.518529
1210.518758
1210.519059
1210.519395
1210.519793
1210.520176
1210.52058
1210.520967
1210.521356
1210.52171
1210.522069
1210.52238
1210.522613
1210.519187
1210.519496
1210.519927
1210.520374
1210.520852
1210.521298
1210.521784
1210.522232
1210.522668
1210.523067
1210.523418
1210.523739
1210.524016
1210.524222
1210.519548
1210.520043
1210.520617
1210.521223
1210.521785
1210.522381
1210.522894
1210.523363
1210.523808
1210.524187
1210.524508
1210.524801
1210.525026
1210.525212
1210.520435
1210.521021
1210.521669
1210.522317
1210.522956
1210.523562
1210.524074
1210.524554
1210.524924
1210.525252
1210.525536
1210.525765
1210.525936
1210.526092
1210.519939
1210.520455
1210.521005
1210.521612
1210.522198
1210.522764
1210.523284
1210.52374
1210.52417
1210.524552
1210.524864
1210.525158
1210.5254
1210.525575
1210.519339
1210.519647
1210.520044
1210.520503
1210.52098
1210.521437
1210.521936
1210.522378
1210.52281
1210.523211
1210.523568
1210.523867
1210.524148
1210.524375
1210.51966
1210.519833
1210.520066
1210.520325
1210.520647
1210.521028
1210.521399
1210.521809
1210.522228
1210.522593
1210.52295
1210.523306
1210.523612
1210.52385
1210.519588
1210.5197
1210.51987
1210.520054
1210.520326
1210.520611
1210.520934
1210.521268
1210.521631
1210.522019
1210.522394
1210.522745
1210.523105
1210.523372
1210.518671
1210.518778
1210.518949
1210.519184
1210.519479
1210.519827
1210.520204
1210.520588
1210.520998
1210.521392
1210.521771
1210.522141
1210.522497
1210.522822
1210.523053
1210.519666
1210.519999
1210.520384
1210.520805
1210.521242
1210.521708
1210.522161
1210.522567
1210.522967
1210.523367
1210.523678
1210.524013
1210.524282
1210.524527
1210.521379
1210.522016
1210.522673
1210.523334
1210.523964
1210.52454
1210.525016
1210.525468
1210.525799
1210.52609
1210.526339
1210.526508
1210.52669
1210.526831
1210.520938
1210.521971
1210.522964
1210.523814
1210.524528
1210.525101
1210.525511
1210.525815
1210.526045
1210.526234
1210.526355
1210.526426
1210.526479
1210.526485
1210.522627
1210.523854
1210.524914
1210.525745
1210.526393
1210.526848
1210.527183
1210.52741
1210.527571
1210.527668
1210.527708
1210.527712
1210.527714
1210.527725
1210.520172
1210.521218
1210.522184
1210.523053
1210.523763
1210.524325
1210.52477
1210.525072
1210.52532
1210.525472
1210.525558
1210.525657
1210.525734
1210.525781
1210.521236
1210.521856
1210.522513
1210.523191
1210.523834
1210.524392
1210.524893
1210.525305
1210.52567
1210.525967
1210.526248
1210.526468
1210.526633
1210.526748
1210.518584
1210.518918
1210.519316
1210.519734
1210.520212
1210.520659
1210.521087
1210.521504
1210.521914
1210.522286
1210.522602
1210.522921
1210.523178
1210.523385
1210.520135
1210.520322
1210.520566
1210.520853
1210.521174
1210.521527
1210.521942
1210.52235
1210.522756
1210.523166
1210.523541
1210.523881
1210.524201
1210.524418
1210.519203
1210.519422
1210.519739
1210.520122
1210.520583
1210.521073
1210.521555
1210.522019
1210.522469
1210.52291
1210.523293
1210.523647
1210.523948
1210.524238
1210.524467
1210.51845
1210.518953
1210.519587
1210.520271
1210.520948
1210.521586
1210.522155
1210.522639
1210.523046
1210.523397
1210.523698
1210.523972
1210.524177
1210.524349
1210.524454
1210.521323
1210.522646
1210.523854
1210.524817
1210.52558
1210.526117
1210.526482
1210.526704
1210.526804
1210.526877
1210.526918
1210.526901
1210.526877
1210.526831
1210.52593
1210.528128
1210.52965
1210.530552
1210.530972
1210.531064
1210.530941
1210.530694
1210.530388
1210.530066
1210.529754
1210.529429
1210.529147
1210.528918
1210.530115
1210.532296
1210.533234
1210.533399
1210.533133
1210.532631
1210.532036
1210.531392
1210.530802
1210.530257
1210.529736
1210.529273
1210.528849
1210.528549
1210.525286
1210.52748
1210.528972
1210.529887
1210.530311
1210.530394
1210.530288
1210.530073
1210.529784
1210.529461
1210.529144
1210.528835
1210.528558
1210.528361
1210.521684
1210.523002
1210.524159
1210.525128
1210.525842
1210.526377
1210.526729
1210.526939
1210.527126
1210.527182
1210.527193
1210.527189
1210.527147
1210.527148
1210.520921
1210.521539
1210.522216
1210.522916
1210.52354
1210.524092
1210.524573
1210.524977
1210.525348
1210.525624
1210.52587
1210.526058
1210.52626
1210.52642
1210.518384
1210.518725
1210.519118
1210.519547
1210.520044
1210.520493
1210.520981
1210.521431
1210.521866
1210.52226
1210.522629
1210.522932
1210.523195
1210.523401
1210.519668
1210.520063
1210.520569
1210.521163
1210.521755
1210.522343
1210.522893
1210.523436
1210.52392
1210.524328
1210.524695
1210.525014
1210.525269
1210.525508
1210.52567
1210.521096
1210.522065
1210.523085
1210.524069
1210.524913
1210.5256
1210.526151
1210.526596
1210.526917
1210.527165
1210.527338
1210.527445
1210.527523
1210.527609
1210.527617
1210.522676
1210.525406
1210.52762
1210.529144
1210.530038
1210.530463
1210.530548
1210.530429
1210.530207
1210.529901
1210.529572
1210.52926
1210.528973
1210.528679
1210.528455
1210.539805
1210.542613
1210.543087
1210.5423
1210.54092
1210.539381
1210.537882
1210.5365
1210.535239
1210.534162
1210.533221
1210.532415
1210.531753
1210.531269
1210.566976
1210.563528
1210.55817
1210.553046
1210.548666
1210.545118
1210.542227
1210.539897
1210.538007
1210.536483
1210.535178
1210.534101
1210.533239
1210.532624
1210.538759
1210.541543
1210.541997
1210.541214
1210.539853
1210.538334
1210.536834
1210.535467
1210.534255
1210.533162
1210.532245
1210.531446
1210.530771
1210.530266
1210.525826
1210.52802
1210.52955
1210.530439
1210.530866
1210.530944
1210.530847
1210.530618
1210.530315
1210.529984
1210.529668
1210.529392
1210.529099
1210.528872
1210.519797
1210.520815
1210.521794
1210.522655
1210.52337
1210.523941
1210.524352
1210.524682
1210.524911
1210.525049
1210.525192
1210.525274
1210.525338
1210.525378
1210.519347
1210.519815
1210.520383
1210.521001
1210.521587
1210.522155
1210.522698
1210.523178
1210.523609
1210.523966
1210.524276
1210.524553
1210.524781
1210.524926
1210.519822
1210.520318
1210.520925
1210.521585
1210.522261
1210.522893
1210.523491
1210.524014
1210.524497
1210.524934
1210.525267
1210.525566
1210.525806
1210.525984
1210.526121
1210.520318
1210.521615
1210.522845
1210.523866
1210.524709
1210.525322
1210.525781
1210.526091
1210.526307
1210.526435
1210.526538
1210.526591
1210.526595
1210.52662
1210.526597
1210.526906
1210.530813
1210.533021
1210.533964
1210.534108
1210.533841
1210.533327
1210.532746
1210.532111
1210.531524
1210.530969
1210.530473
1210.530023
1210.529612
1210.529332
1210.561599
1210.566397
1210.56294
1210.557574
1210.552437
1210.548072
1210.544515
1210.541597
1210.539257
1210.537347
1210.53579
1210.534525
1210.533466
1210.532602
1210.531952
1210.238671
1210.179883
1210.14722
1210.127983
1210.115992
1210.108072
1210.102554
1210.098486
1210.095369
1210.092922
1210.090963
1210.089354
1210.087977
1210.086938
1210.56649
1210.563032
1210.557667
1210.552501
1210.548145
1210.544581
1210.54168
1210.539332
1210.537458
1210.535896
1210.534615
1210.53354
1210.532658
1210.532031
1210.531256
1210.533479
1210.534419
1210.534593
1210.534326
1210.533819
1210.533236
1210.532633
1210.532057
1210.53149
1210.530958
1210.530492
1210.530085
1210.529797
1210.522325
1210.523574
1210.524629
1210.525443
1210.526093
1210.526542
1210.526891
1210.527101
1210.527263
1210.527382
1210.527455
1210.527476
1210.527464
1210.527429
1210.520965
1210.521579
1210.52223
1210.52289
1210.52348
1210.52406
1210.52459
1210.525042
1210.52543
1210.525775
1210.52607
1210.526342
1210.52656
1210.526661
1210.519527
1210.519919
1210.520428
1210.52101
1210.521613
1210.52217
1210.522735
1210.523275
1210.523754
1210.524203
1210.524546
1210.524896
1210.525164
1210.525376
1210.525503
1210.520081
1210.52102
1210.522058
1210.523057
1210.523918
1210.524637
1210.525204
1210.525632
1210.525926
1210.526146
1210.526281
1210.526413
1210.5265
1210.526534
1210.526566
1210.523442
1210.526145
1210.528352
1210.529879
1210.53081
1210.531238
1210.531317
1210.531194
1210.530971
1210.530675
1210.530333
1210.529996
1210.529723
1210.529444
1210.529234
1210.532503
1210.538769
1210.541532
1210.542021
1210.541217
1210.539866
1210.538397
1210.53689
1210.535503
1210.534283
1210.533237
1210.53228
1210.531445
1210.530757
1210.530245
1210.561741
1210.566537
1210.56306
1210.557703
1210.552551
1210.548197
1210.544606
1210.541738
1210.539426
1210.53755
1210.536037
1210.534753
1210.533689
1210.532788
1210.532142
1210.533365
1210.539597
1210.542393
1210.542864
1210.542084
1210.540738
1210.539192
1210.5377
1210.536323
1210.535095
1210.534007
1210.533085
1210.532298
1210.531626
1210.531162
1210.525373
1210.527565
1210.529085
1210.529984
1210.530398
1210.530498
1210.530381
1210.530159
1210.52985
1210.52953
1210.529206
1210.528884
1210.52861
1210.528425
1210.521575
1210.522592
1210.523577
1210.524483
1210.525163
1210.525726
1210.526188
1210.526518
1210.526761
1210.526964
1210.527066
1210.527155
1210.527223
1210.527269
1210.519873
1210.520365
1210.520921
1210.521537
1210.522149
1210.522726
1210.523267
1210.523755
1210.524181
1210.524531
1210.524877
1210.525137
1210.525361
1210.525537
1210.518911
1210.519143
1210.519482
1210.519886
1210.520373
1210.520849
1210.521335
1210.521798
1210.522251
1210.522673
1210.523071
1210.523429
1210.523758
1210.524047
1210.524275
1210.520547
1210.521024
1210.521641
1210.522306
1210.522956
1210.523584
1210.524121
1210.524575
1210.524992
1210.525353
1210.525659
1210.525908
1210.526114
1210.526289
1210.52639
1210.520665
1210.52192
1210.523212
1210.524383
1210.525343
1210.52606
1210.526581
1210.526932
1210.527166
1210.527309
1210.527386
1210.527397
1210.527397
1210.527355
1210.52735
1210.523175
1210.525891
1210.528118
1210.529637
1210.530529
1210.530938
1210.53102
1210.530898
1210.530674
1210.530354
1210.530016
1210.529696
1210.529389
1210.529094
1210.528889
1210.527074
1210.530965
1210.53318
1210.534136
1210.53428
1210.534008
1210.533518
1210.532938
1210.532306
1210.531667
1210.531112
1210.530577
1210.530138
1210.529729
1210.529405
1210.523678
1210.526382
1210.528565
1210.530107
1210.530994
1210.531446
1210.531559
1210.531477
1210.531225
1210.530952
1210.530615
1210.530312
1210.529982
1210.52968
1210.529481
1210.521077
1210.522328
1210.523624
1210.524808
1210.525768
1210.526504
1210.527031
1210.527359
1210.527571
1210.527687
1210.527736
1210.527724
1210.527701
1210.527642
1210.527598
1210.519423
1210.520054
1210.520717
1210.521411
1210.522016
1210.522603
1210.523073
1210.523499
1210.523838
1210.524128
1210.524373
1210.524606
1210.524751
1210.524906
1210.51878
1210.519118
1210.519499
1210.519935
1210.520423
1210.520906
1210.521373
1210.521799
1210.52224
1210.522601
1210.522965
1210.523284
1210.523576
1210.523786
1210.519028
1210.51915
1210.519316
1210.519555
1210.519845
1210.520197
1210.520552
1210.520934
1210.521346
1210.521733
1210.52213
1210.522479
1210.52283
1210.52314
1210.523387
1210.518714
1210.518957
1210.519261
1210.519627
1210.520086
1210.520532
1210.520966
1210.521457
1210.521886
1210.522289
1210.522671
1210.522989
1210.523312
1210.52356
1210.523789
1210.51988
1210.520388
1210.520987
1210.521677
1210.522354
1210.522956
1210.523499
1210.523985
1210.524436
1210.524786
1210.525071
1210.525328
1210.525549
1210.525709
1210.525808
1210.520009
1210.520957
1210.521963
1210.522953
1210.523813
1210.524506
1210.525072
1210.52551
1210.525856
1210.5261
1210.526284
1210.526412
1210.526498
1210.526586
1210.526639
1210.520993
1210.522301
1210.523546
1210.524595
1210.525445
1210.526063
1210.52651
1210.526853
1210.527084
1210.527222
1210.527316
1210.527357
1210.527377
1210.527362
1210.527359
1210.519681
1210.520592
1210.521626
1210.522603
1210.523469
1210.524161
1210.524715
1210.525134
1210.525435
1210.525656
1210.525808
1210.525941
1210.526022
1210.526054
1210.526053
1210.519436
1210.519925
1210.520543
1210.521209
1210.521899
1210.522516
1210.523068
1210.523554
1210.523967
1210.524353
1210.52464
1210.524907
1210.525114
1210.525271
1210.52542
1210.51884
1210.519048
1210.51937
1210.519752
1210.520158
1210.5206
1210.521073
1210.52151
1210.521934
1210.522343
1210.522693
1210.523015
1210.523341
1210.523631
1210.523849
1210.519561
1210.519745
1210.519992
1210.520306
1210.520655
1210.521036
1210.521442
1210.521827
1210.522208
1210.522576
1210.522937
1210.523277
1210.523594
1210.523841
1210.519224
1210.519329
1210.51946
1210.519627
1210.51984
1210.52006
1210.520364
1210.520688
1210.521036
1210.521409
1210.521757
1210.522117
1210.522481
1210.52282
1210.523097
1210.518827
1210.518922
1210.519106
1210.519334
1210.519614
1210.519965
1210.520333
1210.520722
1210.521109
1210.521501
1210.521889
1210.522247
1210.522619
1210.522927
1210.523145
1210.519709
1210.519926
1210.52027
1210.520648
1210.521103
1210.521583
1210.522068
1210.522538
1210.522974
1210.523386
1210.523781
1210.52416
1210.524447
1210.524737
1210.524948
1210.518045
1210.518422
1210.518928
1210.519498
1210.520115
1210.520696
1210.521276
1210.521808
1210.522271
1210.522688
1210.523046
1210.523363
1210.523656
1210.523859
1210.524032
1210.519032
1210.519549
1210.520147
1210.520782
1210.521434
1210.522074
1210.52266
1210.523187
1210.523654
1210.524031
1210.524385
1210.524668
1210.524907
1210.525104
1210.525271
1210.519376
1210.519778
1210.520292
1210.520838
1210.521425
1210.522002
1210.522565
1210.523113
1210.523589
1210.524004
1210.524368
1210.524691
1210.524947
1210.525209
1210.525354
1210.519299
1210.519562
1210.51987
1210.520284
1210.520722
1210.52123
1210.521708
1210.52217
1210.522626
1210.523039
1210.523423
1210.523781
1210.524096
1210.524356
1210.524576
1210.51885
1210.518966
1210.519162
1210.51941
1210.519678
1210.520015
1210.520397
1210.520808
1210.521223
1210.521595
1210.521971
1210.522358
1210.522704
1210.523026
1210.523293
1210.518772
1210.518845
1210.518956
1210.519106
1210.519316
1210.519558
1210.519833
1210.520151
1210.520488
1210.520852
1210.521226
1210.52162
1210.521969
1210.522318
1210.522589
)
;

boundaryField
{
    top
    {
        type            calculated;
        value           nonuniform List<scalar> 
127
(
1210.518772
1210.519588
1210.520135
1210.518384
1210.519347
1210.520965
1210.519873
1210.51878
1210.519561
1210.518845
1210.5197
1210.520322
1210.518725
1210.519815
1210.521579
1210.520365
1210.519118
1210.519745
1210.518956
1210.51987
1210.520566
1210.519118
1210.520383
1210.52223
1210.520921
1210.519499
1210.519992
1210.519106
1210.520054
1210.520853
1210.519547
1210.521001
1210.52289
1210.521537
1210.519935
1210.520306
1210.519316
1210.520326
1210.521174
1210.520044
1210.521587
1210.52348
1210.522149
1210.520423
1210.520655
1210.519558
1210.520611
1210.521527
1210.520493
1210.522155
1210.52406
1210.522726
1210.520906
1210.521036
1210.519833
1210.520934
1210.521942
1210.520981
1210.522698
1210.52459
1210.523267
1210.521373
1210.521442
1210.520151
1210.521268
1210.52235
1210.521431
1210.523178
1210.525042
1210.523755
1210.521799
1210.521827
1210.520488
1210.521631
1210.522756
1210.521866
1210.523609
1210.52543
1210.524181
1210.52224
1210.522208
1210.520852
1210.522019
1210.523166
1210.52226
1210.523966
1210.525775
1210.524531
1210.522601
1210.522576
1210.521226
1210.522394
1210.523541
1210.522629
1210.524276
1210.52607
1210.524877
1210.522965
1210.522937
1210.52162
1210.522745
1210.523881
1210.522932
1210.524553
1210.526342
1210.525137
1210.523284
1210.523277
1210.521969
1210.523105
1210.524201
1210.523195
1210.524781
1210.52656
1210.525361
1210.523576
1210.523594
1210.522318
1210.523372
1210.524418
1210.523401
1210.524926
1210.526661
1210.525537
1210.523786
1210.523841
1210.522589
)
;
    }
    bottom
    {
        type            calculated;
        value           nonuniform List<scalar> 
134
(
1210.518671
1210.519203
1210.519668
1210.519822
1210.519527
1210.518911
1210.519028
1210.519224
1210.519162
1210.518778
1210.519422
1210.520063
1210.520318
1210.519919
1210.519143
1210.51915
1210.519329
1210.519276
1210.518949
1210.519739
1210.520569
1210.520925
1210.520428
1210.519482
1210.519316
1210.51946
1210.519452
1210.519184
1210.520122
1210.521163
1210.521585
1210.52101
1210.519886
1210.519555
1210.519627
1210.519645
1210.519479
1210.520583
1210.521755
1210.522261
1210.521613
1210.520373
1210.519845
1210.51984
1210.519903
1210.519827
1210.521073
1210.522343
1210.522893
1210.52217
1210.520849
1210.520197
1210.52006
1210.520198
1210.520204
1210.521555
1210.522893
1210.523491
1210.522735
1210.521335
1210.520552
1210.520364
1210.520542
1210.520588
1210.522019
1210.523436
1210.524014
1210.523275
1210.521798
1210.520934
1210.520688
1210.520894
1210.520998
1210.522469
1210.52392
1210.524497
1210.523754
1210.522251
1210.521346
1210.521036
1210.521249
1210.521392
1210.52291
1210.524328
1210.524934
1210.524203
1210.522673
1210.521733
1210.521409
1210.521612
1210.521771
1210.523293
1210.524695
1210.525267
1210.524546
1210.523071
1210.52213
1210.521757
1210.521991
1210.522141
1210.523647
1210.525014
1210.525566
1210.524896
1210.523429
1210.522479
1210.522117
1210.52233
1210.522497
1210.523948
1210.525269
1210.525806
1210.525164
1210.523758
1210.52283
1210.522481
1210.522677
1210.522822
1210.524238
1210.525508
1210.525984
1210.525376
1210.524047
1210.52314
1210.52282
1210.52293
1210.523053
1210.524467
1210.52567
1210.526121
1210.525503
1210.524275
1210.523387
1210.523097
)
;
    }
    side-walls
    {
        type            calculated;
        value           nonuniform List<scalar> 
261
(
1210.519162
1210.518326
1210.519187
1210.519548
1210.520435
1210.519939
1210.519339
1210.51966
1210.519588
1210.519276
1210.518529
1210.519496
1210.520043
1210.521021
1210.520455
1210.519647
1210.519833
1210.5197
1210.519452
1210.518758
1210.519927
1210.520617
1210.521669
1210.521005
1210.520044
1210.520066
1210.51987
1210.519645
1210.519059
1210.520374
1210.521223
1210.522317
1210.521612
1210.520503
1210.520325
1210.520054
1210.519903
1210.519395
1210.520852
1210.521785
1210.522956
1210.522198
1210.52098
1210.520647
1210.520326
1210.520198
1210.519793
1210.521298
1210.522381
1210.523562
1210.522764
1210.521437
1210.521028
1210.520611
1210.520542
1210.520176
1210.521784
1210.522894
1210.524074
1210.523284
1210.521936
1210.521399
1210.520934
1210.520894
1210.52058
1210.522232
1210.523363
1210.524554
1210.52374
1210.522378
1210.521809
1210.521268
1210.521249
1210.520967
1210.522668
1210.523808
1210.524924
1210.52417
1210.52281
1210.522228
1210.521631
1210.521612
1210.521356
1210.523067
1210.524187
1210.525252
1210.524552
1210.523211
1210.522593
1210.522019
1210.521991
1210.52171
1210.523418
1210.524508
1210.525536
1210.524864
1210.523568
1210.52295
1210.522394
1210.52233
1210.522069
1210.523739
1210.524801
1210.525765
1210.525158
1210.523867
1210.523306
1210.522745
1210.522677
1210.52238
1210.524016
1210.525026
1210.525936
1210.5254
1210.524148
1210.523612
1210.523105
1210.52293
1210.522613
1210.524222
1210.525212
1210.526092
1210.525575
1210.524375
1210.52385
1210.523372
1210.519224
1210.518827
1210.519709
1210.518045
1210.519032
1210.519376
1210.519299
1210.51885
1210.518772
1210.519329
1210.518922
1210.519926
1210.518422
1210.519549
1210.519778
1210.519562
1210.518966
1210.518845
1210.51946
1210.519106
1210.52027
1210.518928
1210.520147
1210.520292
1210.51987
1210.519162
1210.518956
1210.519627
1210.519334
1210.520648
1210.519498
1210.520782
1210.520838
1210.520284
1210.51941
1210.519106
1210.51984
1210.519614
1210.521103
1210.520115
1210.521434
1210.521425
1210.520722
1210.519678
1210.519316
1210.52006
1210.519965
1210.521583
1210.520696
1210.522074
1210.522002
1210.52123
1210.520015
1210.519558
1210.520364
1210.520333
1210.522068
1210.521276
1210.52266
1210.522565
1210.521708
1210.520397
1210.519833
1210.520688
1210.520722
1210.522538
1210.521808
1210.523187
1210.523113
1210.52217
1210.520808
1210.520151
1210.521036
1210.521109
1210.522974
1210.522271
1210.523654
1210.523589
1210.522626
1210.521223
1210.520488
1210.521409
1210.521501
1210.523386
1210.522688
1210.524031
1210.524004
1210.523039
1210.521595
1210.520852
1210.521757
1210.521889
1210.523781
1210.523046
1210.524385
1210.524368
1210.523423
1210.521971
1210.521226
1210.522117
1210.522247
1210.52416
1210.523363
1210.524668
1210.524691
1210.523781
1210.522358
1210.52162
1210.522481
1210.522619
1210.524447
1210.523656
1210.524907
1210.524947
1210.524096
1210.522704
1210.521969
1210.52282
1210.522927
1210.524737
1210.523859
1210.525104
1210.525209
1210.524356
1210.523026
1210.522318
1210.523097
1210.523145
1210.524948
1210.524032
1210.525271
1210.525354
1210.524576
1210.523293
1210.522589
)
;
    }
    inlet
    {
        type            calculated;
        value           nonuniform 0();
    }
    outlet
    {
        type            calculated;
        value           nonuniform List<scalar> 
81
(
1210.52293
1210.522613
1210.524222
1210.525212
1210.526092
1210.525575
1210.524375
1210.52385
1210.523372
1210.523053
1210.524527
1210.526831
1210.526485
1210.527725
1210.525781
1210.526748
1210.523385
1210.524418
1210.524467
1210.524454
1210.526831
1210.528918
1210.528549
1210.528361
1210.527148
1210.52642
1210.523401
1210.52567
1210.527617
1210.528455
1210.531269
1210.532624
1210.530266
1210.528872
1210.525378
1210.524926
1210.526121
1210.526597
1210.529332
1210.531952
1210.086938
1210.532031
1210.529797
1210.527429
1210.526661
1210.525503
1210.526566
1210.529234
1210.530245
1210.532142
1210.531162
1210.528425
1210.527269
1210.525537
1210.524275
1210.52639
1210.52735
1210.528889
1210.529405
1210.529481
1210.527598
1210.524906
1210.523786
1210.523387
1210.523789
1210.525808
1210.526639
1210.527359
1210.526053
1210.52542
1210.523849
1210.523841
1210.523097
1210.523145
1210.524948
1210.524032
1210.525271
1210.525354
1210.524576
1210.523293
1210.522589
)
;
    }
    procBoundary1to0
    {
        type            processor;
        value           nonuniform List<scalar> 
97
(
1210.519079
1210.519079
1210.518206
1210.518931
1210.519184
1210.519962
1210.519583
1210.519103
1210.519538
1210.519482
1210.518599
1210.519426
1210.519426
1210.519426
1210.52089
1210.519996
1210.521322
1210.519241
1210.520739
1210.518324
1210.520026
1210.519067
1210.518117
1210.520077
1210.520077
1210.520077
1210.523249
1210.526226
1210.522552
1210.520451
1210.52037
1210.518167
1210.519395
1210.520417
1210.520211
1210.533563
1210.533563
1210.533563
1210.562177
1210.532542
1210.523121
1210.518854
1210.518964
1210.519496
1210.519215
1210.521707
1210.53081
1210.349973
1210.349973
1210.349973
1210.561693
1210.561693
1210.52738
1210.52103
1210.520456
1210.5193
1210.519388
1210.520981
1210.523298
1210.530957
1210.524151
1210.522675
1210.522675
1210.522675
1210.520618
1210.519505
1210.518765
1210.520241
1210.519758
1210.520689
1210.521862
1210.521187
1210.520125
1210.518941
1210.518941
1210.518941
1210.518554
1210.518985
1210.518573
1210.519563
1210.519295
1210.519897
1210.519003
1210.519074
1210.5187
1210.519443
1210.519443
1210.519443
1210.519191
1210.51877
1210.519545
1210.517795
1210.518724
1210.51914
1210.519122
1210.518765
1210.518739
)
;
    }
}


// ************************************************************************* //
