/*--------------------------------*- C++ -*----------------------------------*\
| =========                 |                                                 |
| \\      /  F ield         | OpenFOAM: The Open Source CFD Toolbox           |
|  \\    /   O peration     | Version:  4.x                                   |
|   \\  /    A nd           | Web:      www.OpenFOAM.org                      |
|    \\/     M anipulation  |                                                 |
\*---------------------------------------------------------------------------*/
FoamFile
{
    version     2.0;
    format      ascii;
    class       volScalarField;
    location    "10000";
    object      molarConc;
}
// * * * * * * * * * * * * * * * * * * * * * * * * * * * * * * * * * * * * * //

dimensions      [0 -3 0 0 1 0 0];

internalField   nonuniform List<scalar> 
1174
(
9.963273519
9.963273427
9.963272438
9.963273158
9.963272892
9.963272796
9.963271781
9.963271636
9.963272147
9.963272608
9.963272087
9.963273163
9.963272525
9.963273079
9.963325069
9.963323817
9.963324399
9.963324011
9.963324114
9.963322579
9.963322901
9.963322545
9.963322986
9.963322879
9.963323786
9.963323291
9.963323635
9.963324293
9.963290714
9.963291224
9.963289232
9.963289273
9.963289208
9.96329139
9.963290832
9.963291165
9.963290521
9.963290085
9.963290367
9.963290274
9.963290331
9.963290404
9.963289675
9.96328971
9.963289453
9.963289178
9.963291175
9.963289754
9.963290531
9.963290831
9.96328956
9.963288938
9.963288777
9.963287644
9.96328772
9.96328651
9.963254547
9.963254925
9.963254876
9.963255274
9.963254828
9.963253645
9.96325448
9.963253709
9.963255636
9.963256621
9.963257182
9.963258088
9.963259653
9.963258923
9.963268288
9.963267145
9.963268212
9.963267863
9.963268525
9.963268774
9.963269152
9.963270178
9.963269722
9.963268951
9.963269283
9.963268063
9.963267196
9.963266585
9.963282389
9.963282986
9.963282839
9.963282204
9.963282219
9.963283779
9.96328246
9.963283157
9.963282763
9.96328219
9.963282147
9.963283272
9.963283056
9.963282021
9.963252028
9.963252404
9.963252777
9.963254665
9.963255549
9.963254914
9.963255931
9.963255225
9.963253918
9.963255078
9.963255845
9.963255551
9.963256137
9.963256564
9.963250218
9.963250168
9.963249559
9.963250778
9.963249707
9.963250165
9.963250288
9.963251181
9.963251245
9.963250318
9.96324997
9.963250441
9.963249083
9.963248868
9.963299534
9.96330033
9.963300805
9.963301092
9.963301015
9.96330045
9.963300089
9.963300358
9.963299655
9.96329972
9.96330012
9.963300176
9.963299862
9.963299415
9.963300212
9.963264743
9.963263842
9.963263914
9.963264509
9.963265553
9.96326515
9.963264855
9.963265949
9.96326595
9.963264306
9.963265799
9.963264316
9.963264366
9.963262117
9.963203805
9.963202672
9.963203386
9.963203703
9.963203451
9.963202693
9.963203481
9.963201801
9.963203208
9.963203675
9.963203869
9.963206173
9.963205662
9.963204801
9.963286521
9.963286178
9.963285221
9.963285398
9.963284836
9.963283998
9.963285062
9.963286132
9.963286553
9.963285657
9.963285681
9.963286423
9.9632866
9.963288137
9.963249338
9.963249844
9.963249159
9.96324918
9.963248198
9.96324858
9.963248214
9.963248142
9.963247345
9.963246936
9.963247368
9.963248134
9.963247972
9.963246826
9.963328471
9.96332739
9.963327953
9.963327085
9.963326742
9.963326518
9.963325642
9.96332681
9.963326267
9.963327388
9.963329354
9.963328553
9.963327415
9.963326682
9.963211614
9.963211413
9.963212145
9.963211583
9.963210562
9.963210783
9.963210214
9.963210705
9.963210257
9.9632104
9.963208865
9.963208331
9.96320877
9.963209287
9.963324
9.963323025
9.963322377
9.963323167
9.963321958
9.963322593
9.96332369
9.963324182
9.963323593
9.963323506
9.963324772
9.963324079
9.963324832
9.963324698
9.963226008
9.963225639
9.963225358
9.963225747
9.963226672
9.963227625
9.963226207
9.963225614
9.963225042
9.963223728
9.963223485
9.963224024
9.963223914
9.963225436
9.96327729
9.96327783
9.963277929
9.963278523
9.963277796
9.963277122
9.96327728
9.963277943
9.963278163
9.963277254
9.96327769
9.963277819
9.963278843
9.963278134
9.963277007
9.963336989
9.963336661
9.963335729
9.96333494
9.963334398
9.963333671
9.963333302
9.963333655
9.963334423
9.963334727
9.963334718
9.963333473
9.963333829
9.963333885
9.963334932
9.963304189
9.963303086
9.96330159
9.963301866
9.963300414
9.963299877
9.963299294
9.963299258
9.963300632
9.963299721
9.963298001
9.963297903
9.963297343
9.963297928
9.963268729
9.963269115
9.963269093
9.963268922
9.963269044
9.963269115
9.963269615
9.96327025
9.96327064
9.963270618
9.963270012
9.963270908
9.963271001
9.963271833
9.963324127
9.96332501
9.96332534
9.963325388
9.96332511
9.963325565
9.963325937
9.963327695
9.963327442
9.963326785
9.963327301
9.963327483
9.963328784
9.96332882
9.963303962
9.963304612
9.963306218
9.963305314
9.963305226
9.963305805
9.963305364
9.963304264
9.963303722
9.96330376
9.963303417
9.963303406
9.963303284
9.963302333
9.9632844
9.963283603
9.963284861
9.963284819
9.963286066
9.963285609
9.963285765
9.963286374
9.96328299
9.963282997
9.963282937
9.963282093
9.963282526
9.963280557
9.963228867
9.963228794
9.963228422
9.963226596
9.963226683
9.963227185
9.96322775
9.963228689
9.963227856
9.963229228
9.963229541
9.963230781
9.963229229
9.963227279
9.963334666
9.963333446
9.963333524
9.96333453
9.963333489
9.96333545
9.963334788
9.963335015
9.96333445
9.963334257
9.963333579
9.963334439
9.963335275
9.963335348
9.963262197
9.963261461
9.96326089
9.963259564
9.963260039
9.963260591
9.963261701
9.963260843
9.963260328
9.963261041
9.963261143
9.963261075
9.963262015
9.963261292
9.963261384
9.963226129
9.963224779
9.963225146
9.963224689
9.963225219
9.963226096
9.963226489
9.963225632
9.963225741
9.963225218
9.963225146
9.963226006
9.963226365
9.963224747
9.963226146
9.963299655
9.963297395
9.963296952
9.963296805
9.963297047
9.963296904
9.963297376
9.963297636
9.963296897
9.963297307
9.963297661
9.963297064
9.963295874
9.963296642
9.96329716
9.963253599
9.963252424
9.963251973
9.963251635
9.96325286
9.963253524
9.963253656
9.963253838
9.963255598
9.963255658
9.963256001
9.963256055
9.963255286
9.963254755
9.963229954
9.963228583
9.96322875
9.963227941
9.963228535
9.963227545
9.963228331
9.963228628
9.96322854
9.963227089
9.963228288
9.963228822
9.963228178
9.963227484
9.963310852
9.963310984
9.963311634
9.963311093
9.963311318
9.963310864
9.96331099
9.963310397
9.963309464
9.963310393
9.963309464
9.963309114
9.963309042
9.963309631
9.963274413
9.963275017
9.96327457
9.963275072
9.963274805
9.963275702
9.963274765
9.963274358
9.963274648
9.963275085
9.963274711
9.963272877
9.963273643
9.963274324
9.963348991
9.963349456
9.963349331
9.963348857
9.963348232
9.963347536
9.963348516
9.963348145
9.963348621
9.963350537
9.963349399
9.963349531
9.963349103
9.963348718
9.963300689
9.963302219
9.963302251
9.963301321
9.963302015
9.963302153
9.963301248
9.963300954
9.963300418
9.963301019
9.96330147
9.963301175
9.963301077
9.963302108
9.963261541
9.96326092
9.963260135
9.963259428
9.963258308
9.963258248
9.963257529
9.963257788
9.963256851
9.963255088
9.963255801
9.963255493
9.963255828
9.963257001
9.963257326
9.963304428
9.963304752
9.963305137
9.963306549
9.963305892
9.963306858
9.963307035
9.963308042
9.963308513
9.963309593
9.963308834
9.963308549
9.963309321
9.963307906
9.963308587
9.963286252
9.963285897
9.963285284
9.963285353
9.963286517
9.963286327
9.963287451
9.963287056
9.963288341
9.963287935
9.963287755
9.963286931
9.963286402
9.96328697
9.963285918
9.963262833
9.963261613
9.963260734
9.963261401
9.963261298
9.963261064
9.963260565
9.963262826
9.963263654
9.963264718
9.963265027
9.963264024
9.963263633
9.963263051
9.963264282
9.987531584
9.987548422
9.987562843
9.98757727
9.987590271
9.987602861
9.987615299
9.987629667
9.987644721
9.987658812
9.987671384
9.987683414
9.987698075
9.987711962
9.963256549
9.963255689
9.963256298
9.963257746
9.963257009
9.963256903
9.963258231
9.963259537
9.963258616
9.963259197
9.963259092
9.963259525
9.963260024
9.963259918
9.963261614
9.963260186
9.963260422
9.963259966
9.963259715
9.963260506
9.963260189
9.963259731
9.96325873
9.963259235
9.963260386
9.963260688
9.963261045
9.963260442
9.963265897
9.963265202
9.963264784
9.963265674
9.963264625
9.963265318
9.963264196
9.96326505
9.963264206
9.963262601
9.963261233
9.96326105
9.963261635
9.963262997
9.963225512
9.963224328
9.963224136
9.963223864
9.963226098
9.963226391
9.963226253
9.963226978
9.963227872
9.963227994
9.963227893
9.963226435
9.963225458
9.963227721
9.963269916
9.963269348
9.96326863
9.963267948
9.963267801
9.963270069
9.963270374
9.963269664
9.963269427
9.963267924
9.963269276
9.963267545
9.963267745
9.963268514
9.963270517
9.963281726
9.963281987
9.963281354
9.963280153
9.963279688
9.963278879
9.96327836
9.96327842
9.963280004
9.963281016
9.963283083
9.963282491
9.963282374
9.963283579
9.963283678
9.963257695
9.963256961
9.963256828
9.963256531
9.963254772
9.963254417
9.963255289
9.963255767
9.963255075
9.963254939
9.963256012
9.963256754
9.963254795
9.963254723
9.963254485
9.963311583
9.963310309
9.963311576
9.963310322
9.963310895
9.963310551
9.963307383
9.963307958
9.963308414
9.963307968
9.963306262
9.963307516
9.963309203
9.963309818
9.963310777
9.963255047
9.963253912
9.963254156
9.963254315
9.963255016
9.963254164
9.963255533
9.963255054
9.963254377
9.963253553
9.963251483
9.963251512
9.963251377
9.963252887
9.963253859
9.963264407
9.963264944
9.963264405
9.963264118
9.963263384
9.963262794
9.963263819
9.963263561
9.963263497
9.963263457
9.963264123
9.963263422
9.963262442
9.963262247
9.963260552
9.963299223
9.963299952
9.963300045
9.963299961
9.96330041
9.963300083
9.963300251
9.963299518
9.9633001
9.963299947
9.963299983
9.963300684
9.963300413
9.96329877
9.963251612
9.96325213
9.963251668
9.963248745
9.963250052
9.963249773
9.963247956
9.963247559
9.963247321
9.963245635
9.963246743
9.963246501
9.963245849
9.963245174
9.963271864
9.963272071
9.963272826
9.963271962
9.963271204
9.963270876
9.963270086
9.963269389
9.963269072
9.963270058
9.963268529
9.963269186
9.963269302
9.963268645
9.963293311
9.963293113
9.963291976
9.963291453
9.963289342
9.963289374
9.963289337
9.96329004
9.963290113
9.963290231
9.963289858
9.963289766
9.96328922
9.963288608
9.963287523
9.963222134
9.963223261
9.963223222
9.963223473
9.963224418
9.96322425
9.963225645
9.963227623
9.963227845
9.96322758
9.963227298
9.96322745
9.963227737
9.963227611
9.963228892
9.963272188
9.963271472
9.963272106
9.963272582
9.963273019
9.963274116
9.963274421
9.963274604
9.963273937
9.963272938
9.963271818
9.96327177
9.963270697
9.963271144
9.963269506
9.963272313
9.963270864
9.963269676
9.963269796
9.963270137
9.96327086
9.963271539
9.963271973
9.96327133
9.963272476
9.963273343
9.963273136
9.963273074
9.963273917
9.963273383
9.963277068
9.963277546
9.96327658
9.963275874
9.963277093
9.963277168
9.963276966
9.963276472
9.963277599
9.963280067
9.963279932
9.963281252
9.963280088
9.963280556
9.963281909
9.963244729
9.963243927
9.963245143
9.963244026
9.963244638
9.963243021
9.96324199
9.963240244
9.963241142
9.963239737
9.963240537
9.963239391
9.963240536
9.963241793
9.963240957
9.963249648
9.963249128
9.963249536
9.963249304
9.963249775
9.963249821
9.963249773
9.963251248
9.963251752
9.963252238
9.963252629
9.963253833
9.963254053
9.963255414
9.963255876
9.963310954
9.96331011
9.963310514
9.963309059
9.963310122
9.963308764
9.963309894
9.963309611
9.963310559
9.963311111
9.963311507
9.963310324
9.963311844
9.963310187
9.963313025
9.963311918
9.963312659
9.963313322
9.963312716
9.963312806
9.963313275
9.963314817
9.963313965
9.963315598
9.96331516
9.963315146
9.963314397
9.963314275
9.963280012
9.963279971
9.963280697
9.963280769
9.96328093
9.963280175
9.963280997
9.963281373
9.963280588
9.963281063
9.963280468
9.963281667
9.963281617
9.963281992
9.963281925
9.963304242
9.963303598
9.963304266
9.963305366
9.963303919
9.963304444
9.963305806
9.963303427
9.963303262
9.963303066
9.963302374
9.963303535
9.963302698
9.963303923
9.963302562
9.963258643
9.963258087
9.963259027
9.963257908
9.963257417
9.96325865
9.963259669
9.963259975
9.963258318
9.963258632
9.963259466
9.963259219
9.963258691
9.963259407
9.963260803
9.963285704
9.963285428
9.963286598
9.963285821
9.963285416
9.963286012
9.963285575
9.963285119
9.963283847
9.963283499
9.963282888
9.963282534
9.96328248
9.963280728
9.963279645
9.96326745
9.963267193
9.963266732
9.963266646
9.963265593
9.963266268
9.963267101
9.963266291
9.963265963
9.96326643
9.96326622
9.963266575
9.963266454
9.963267205
9.963266829
9.963303668
9.963305466
9.963305056
9.963305009
9.963304248
9.963304892
9.963305098
9.963305704
9.963306893
9.963307843
9.963308916
9.963308348
9.963308522
9.963309894
9.963311737
9.96328295
9.963283412
9.96328332
9.963283579
9.963282322
9.963282762
9.963283281
9.963283565
9.963283961
9.963282375
9.963283088
9.963282292
9.963282488
9.963283356
9.963282009
9.963297361
9.963298574
9.96329827
9.963298522
9.963299971
9.963300694
9.963299891
9.963300492
9.963300618
9.963300106
9.963301183
9.963302133
9.963301078
9.963300008
9.963299229
9.96325743
9.963257202
9.963256826
9.963255704
9.963255101
9.963254487
9.963253582
9.963254208
9.963255028
9.963256001
9.963256575
9.963257084
9.963257128
9.963257049
9.963266191
9.96326438
9.963263335
9.963262837
9.963262493
9.963264275
9.963263673
9.963263787
9.963263894
9.96326339
9.963264669
9.963265138
9.963264927
9.963264675
9.963263934
9.963291006
9.963292452
9.963292223
9.963292872
9.963293615
9.963292897
9.963292988
9.963292995
9.963293584
9.963293733
9.963293636
9.963294366
9.963293145
9.963293681
9.96329514
9.963249589
9.96325021
9.963248827
9.963249745
9.963249335
9.963249168
9.963249199
9.963249499
9.963250509
9.963251174
9.96325096
9.963249695
9.963251464
9.963250781
9.963250637
9.963351072
9.96335134
9.963350793
9.963350736
9.963349869
9.963350806
9.963350248
9.963349953
9.963350621
9.963350851
9.963351436
9.963351461
9.963350343
9.963351605
9.963351103
9.963304792
9.963303062
9.963302784
9.963303442
9.963303604
9.963303115
9.96330306
9.963303092
9.963303025
9.963304485
9.963304127
9.963304689
9.963305041
9.963305222
9.963303858
9.963278157
9.963277112
9.963276083
9.963277338
9.96327813
9.963279283
9.963279671
9.963278496
9.963278474
9.963278805
9.963278987
9.96327875
9.963279629
9.963277663
9.963278669
9.963272012
9.963270168
9.963270738
9.963269667
9.963270172
9.963268494
9.963268882
9.963269625
9.963269534
9.963270202
9.963270584
9.963270474
9.963270686
9.963271683
9.963271027
9.963289743
9.963290054
9.963289137
9.963288688
9.963290113
9.963290174
9.963289489
9.963288266
9.963287325
9.963288613
9.963289159
9.963288278
9.963288497
9.963288212
9.963287062
9.963290941
9.963290876
9.96329092
9.963291393
9.963291206
9.963291763
9.963292779
9.963293211
9.963293889
9.963293902
9.963293704
9.963292356
9.963292949
9.963292141
9.963291716
)
;

boundaryField
{
    top
    {
        type            calculated;
        value           nonuniform List<scalar> 
127
(
9.963290941
9.963250218
9.963226008
9.963334666
9.963300689
9.963225512
9.963271864
9.963313025
9.96325743
9.963290876
9.963250168
9.963225639
9.963333446
9.963302219
9.963224328
9.963272071
9.963311918
9.963257202
9.96329092
9.963249559
9.963225358
9.963333524
9.963302251
9.963224136
9.963272826
9.963312659
9.963256826
9.963291393
9.963250778
9.963225747
9.96333453
9.963301321
9.963223864
9.963271962
9.963313322
9.963255704
9.963291206
9.963249707
9.963226672
9.963333489
9.963302015
9.963226098
9.963271204
9.963312716
9.963255101
9.963291763
9.963250165
9.963227625
9.96333545
9.963302153
9.963226391
9.963270876
9.963312806
9.963254487
9.963292779
9.963250288
9.963226207
9.963334788
9.963301248
9.963226253
9.963270086
9.963313275
9.963253582
9.963293211
9.963251181
9.963225614
9.963335015
9.963300954
9.963226978
9.963269389
9.963314817
9.963254208
9.963293889
9.963251245
9.963225042
9.96333445
9.963300418
9.963227872
9.963269072
9.963313965
9.963255028
9.963293902
9.963250318
9.963223728
9.963334257
9.963301019
9.963227994
9.963270058
9.963315598
9.963256001
9.963293704
9.96324997
9.963223485
9.963333579
9.96330147
9.963227893
9.963268529
9.96331516
9.963256575
9.963292356
9.963250441
9.963224024
9.963334439
9.963301175
9.963226435
9.963269186
9.963315146
9.963257084
9.963292949
9.963249083
9.963223914
9.963335275
9.963301077
9.963225458
9.963269302
9.963314397
9.963257128
9.963292141
9.963248868
9.963225436
9.963335348
9.963302108
9.963227721
9.963268645
9.963314275
9.963257049
9.963291716
)
;
    }
    bottom
    {
        type            calculated;
        value           nonuniform List<scalar> 
134
(
9.963299534
9.96327729
9.963262197
9.963261541
9.963269916
9.963293311
9.963280012
9.963266191
9.963273519
9.96330033
9.96327783
9.963261461
9.96326092
9.963269348
9.963293113
9.963279971
9.96326438
9.963273427
9.963300805
9.963277929
9.96326089
9.963260135
9.96326863
9.963291976
9.963280697
9.963263335
9.963272438
9.963301092
9.963278523
9.963259564
9.963259428
9.963267948
9.963291453
9.963280769
9.963262837
9.963273158
9.963301015
9.963277796
9.963260039
9.963258308
9.963267801
9.963289342
9.96328093
9.963262493
9.963272892
9.96330045
9.963277122
9.963260591
9.963258248
9.963270069
9.963289374
9.963280175
9.963264275
9.963272796
9.963300089
9.96327728
9.963261701
9.963257529
9.963270374
9.963289337
9.963280997
9.963263673
9.963271781
9.963300358
9.963277943
9.963260843
9.963257788
9.963269664
9.96329004
9.963281373
9.963263787
9.963271636
9.963299655
9.963278163
9.963260328
9.963256851
9.963269427
9.963290113
9.963280588
9.963263894
9.963272147
9.96329972
9.963277254
9.963261041
9.963255088
9.963267924
9.963290231
9.963281063
9.96326339
9.963272608
9.96330012
9.96327769
9.963261143
9.963255801
9.963269276
9.963289858
9.963280468
9.963264669
9.963272087
9.963300176
9.963277819
9.963261075
9.963255493
9.963267545
9.963289766
9.963281667
9.963265138
9.963273163
9.963299862
9.963278843
9.963262015
9.963255828
9.963267745
9.96328922
9.963281617
9.963264927
9.963272525
9.963299415
9.963278134
9.963261292
9.963257001
9.963268514
9.963288608
9.963281992
9.963264675
9.963273079
9.963300212
9.963277007
9.963261384
9.963257326
9.963270517
9.963287523
9.963281925
9.963263934
)
;
    }
    side-walls
    {
        type            calculated;
        value           nonuniform List<scalar> 
261
(
9.963273519
9.963325069
9.963290714
9.963289675
9.963254547
9.963268288
9.963282389
9.963252028
9.963250218
9.963273427
9.963323817
9.963291224
9.96328971
9.963254925
9.963267145
9.963282986
9.963252404
9.963250168
9.963272438
9.963324399
9.963289232
9.963289453
9.963254876
9.963268212
9.963282839
9.963252777
9.963249559
9.963273158
9.963324011
9.963289273
9.963289178
9.963255274
9.963267863
9.963282204
9.963254665
9.963250778
9.963272892
9.963324114
9.963289208
9.963291175
9.963254828
9.963268525
9.963282219
9.963255549
9.963249707
9.963272796
9.963322579
9.96329139
9.963289754
9.963253645
9.963268774
9.963283779
9.963254914
9.963250165
9.963271781
9.963322901
9.963290832
9.963290531
9.96325448
9.963269152
9.96328246
9.963255931
9.963250288
9.963271636
9.963322545
9.963291165
9.963290831
9.963253709
9.963270178
9.963283157
9.963255225
9.963251181
9.963272147
9.963322986
9.963290521
9.96328956
9.963255636
9.963269722
9.963282763
9.963253918
9.963251245
9.963272608
9.963322879
9.963290085
9.963288938
9.963256621
9.963268951
9.96328219
9.963255078
9.963250318
9.963272087
9.963323786
9.963290367
9.963288777
9.963257182
9.963269283
9.963282147
9.963255845
9.96324997
9.963273163
9.963323291
9.963290274
9.963287644
9.963258088
9.963268063
9.963283272
9.963255551
9.963250441
9.963272525
9.963323635
9.963290331
9.96328772
9.963259653
9.963267196
9.963283056
9.963256137
9.963249083
9.963273079
9.963324293
9.963290404
9.96328651
9.963258923
9.963266585
9.963282021
9.963256564
9.963248868
9.963266191
9.963291006
9.963249589
9.963351072
9.963304792
9.963278157
9.963272012
9.963289743
9.963290941
9.96326438
9.963292452
9.96325021
9.96335134
9.963303062
9.963277112
9.963270168
9.963290054
9.963290876
9.963263335
9.963292223
9.963248827
9.963350793
9.963302784
9.963276083
9.963270738
9.963289137
9.96329092
9.963262837
9.963292872
9.963249745
9.963350736
9.963303442
9.963277338
9.963269667
9.963288688
9.963291393
9.963262493
9.963293615
9.963249335
9.963349869
9.963303604
9.96327813
9.963270172
9.963290113
9.963291206
9.963264275
9.963292897
9.963249168
9.963350806
9.963303115
9.963279283
9.963268494
9.963290174
9.963291763
9.963263673
9.963292988
9.963249199
9.963350248
9.96330306
9.963279671
9.963268882
9.963289489
9.963292779
9.963263787
9.963292995
9.963249499
9.963349953
9.963303092
9.963278496
9.963269625
9.963288266
9.963293211
9.963263894
9.963293584
9.963250509
9.963350621
9.963303025
9.963278474
9.963269534
9.963287325
9.963293889
9.96326339
9.963293733
9.963251174
9.963350851
9.963304485
9.963278805
9.963270202
9.963288613
9.963293902
9.963264669
9.963293636
9.96325096
9.963351436
9.963304127
9.963278987
9.963270584
9.963289159
9.963293704
9.963265138
9.963294366
9.963249695
9.963351461
9.963304689
9.96327875
9.963270474
9.963288278
9.963292356
9.963264927
9.963293145
9.963251464
9.963350343
9.963305041
9.963279629
9.963270686
9.963288497
9.963292949
9.963264675
9.963293681
9.963250781
9.963351605
9.963305222
9.963277663
9.963271683
9.963288212
9.963292141
9.963263934
9.96329514
9.963250637
9.963351103
9.963303858
9.963278669
9.963271027
9.963287062
9.963291716
)
;
    }
    inlet
    {
        type            calculated;
        value           nonuniform 0();
    }
    outlet
    {
        type            calculated;
        value           nonuniform List<scalar> 
81
(
9.963273079
9.963324293
9.963290404
9.96328651
9.963258923
9.963266585
9.963282021
9.963256564
9.963248868
9.963300212
9.963262117
9.963204801
9.963288137
9.963246826
9.963326682
9.963209287
9.963324698
9.963225436
9.963277007
9.963334932
9.963297928
9.963271833
9.96332882
9.963302333
9.963280557
9.963227279
9.963335348
9.963261384
9.963226146
9.96329716
9.963254755
9.963227484
9.963309631
9.963274324
9.963348718
9.963302108
9.963257326
9.963308587
9.963285918
9.963264282
9.987711962
9.963259918
9.963260442
9.963262997
9.963227721
9.963270517
9.963283678
9.963254485
9.963310777
9.963253859
9.963260552
9.96329877
9.963245174
9.963268645
9.963287523
9.963228892
9.963269506
9.963273383
9.963281909
9.963240957
9.963255876
9.963310187
9.963314275
9.963281925
9.963302562
9.963260803
9.963279645
9.963266829
9.963311737
9.963282009
9.963299229
9.963257049
9.963263934
9.96329514
9.963250637
9.963351103
9.963303858
9.963278669
9.963271027
9.963287062
9.963291716
)
;
    }
    procBoundary1to0
    {
        type            processor;
        value           nonuniform List<scalar> 
97
(
9.963274112
9.963274112
9.963325021
9.963292214
9.963288711
9.963253856
9.963266868
9.963282759
9.963252052
9.963252051
9.963299548
9.96326529
9.96326529
9.96326529
9.963203355
9.963286377
9.96324942
9.963327759
9.963211601
9.963325636
9.96322535
9.963277029
9.963337174
9.963304426
9.963304426
9.963304426
9.963268234
9.963323492
9.96330642
9.963283947
9.963231836
9.963334059
9.963263671
9.96322549
9.963299086
9.963253569
9.963253569
9.963253569
9.963230934
9.963309396
9.963275274
9.963348959
9.963300741
9.963261398
9.963304767
9.963286518
9.963256968
9.987540982
9.987540982
9.987540982
9.963257454
9.963257454
9.963260272
9.9632654
9.96322684
9.963268876
9.963281842
9.963256887
9.963311545
9.963248927
9.963264821
9.963299709
9.963299709
9.963299709
9.963252308
9.963271116
9.9632936
9.96322083
9.963271035
9.963272903
9.96327801
9.963245614
9.963250888
9.963310112
9.963310112
9.963310112
9.963312818
9.963278449
9.963304175
9.963257945
9.963286915
9.963267435
9.963302896
9.963284737
9.963297204
9.963257283
9.963257283
9.963257283
9.963265728
9.963290205
9.96325088
9.963351292
9.963303664
9.963277625
9.963274013
9.963290479
9.9632905
)
;
    }
}


// ************************************************************************* //
