/*--------------------------------*- C++ -*----------------------------------*\
| =========                 |                                                 |
| \\      /  F ield         | OpenFOAM: The Open Source CFD Toolbox           |
|  \\    /   O peration     | Version:  4.x                                   |
|   \\  /    A nd           | Web:      www.OpenFOAM.org                      |
|    \\/     M anipulation  |                                                 |
\*---------------------------------------------------------------------------*/
FoamFile
{
    version     2.0;
    format      ascii;
    class       volScalarField;
    location    "10000";
    object      N2;
}
// * * * * * * * * * * * * * * * * * * * * * * * * * * * * * * * * * * * * * //

dimensions      [0 0 0 0 0 0 0];

internalField   nonuniform List<scalar> 
1174
(
0.6215288597
0.6215284594
0.6215278934
0.6215271546
0.6215262506
0.6215252017
0.6215240357
0.6215227843
0.6215214793
0.6215201517
0.6215188298
0.6215175429
0.6215163442
0.6215154017
0.6215284826
0.6215278394
0.6215269817
0.6215259302
0.6215247206
0.6215233968
0.6215220039
0.6215205827
0.6215191668
0.6215177835
0.6215164552
0.621515203
0.6215140657
0.6215131878
0.6215276483
0.6215265087
0.6215250982
0.6215234952
0.6215217864
0.6215200503
0.6215183476
0.6215167218
0.6215152011
0.6215138005
0.6215125268
0.6215113831
0.6215103877
0.6215096426
0.6215264233
0.6215246497
0.6215226131
0.621520462
0.6215183212
0.6215162803
0.6215143942
0.6215126931
0.6215111857
0.6215098679
0.6215087284
0.6215077545
0.6215069437
0.6215063572
0.621525547
0.6215234247
0.6215211095
0.6215187639
0.6215165069
0.6215144132
0.6215125245
0.6215108571
0.621509408
0.6215081673
0.6215071163
0.6215062366
0.6215055196
0.6215050099
0.6215264228
0.6215246496
0.621522613
0.6215204622
0.6215183214
0.62151628
0.6215143949
0.6215126935
0.6215111861
0.6215098686
0.6215087292
0.621507755
0.6215069442
0.6215063579
0.6215276482
0.6215265085
0.6215250975
0.6215234947
0.6215217865
0.6215200504
0.6215183478
0.621516722
0.6215152012
0.6215138011
0.6215125276
0.6215113838
0.6215103886
0.6215096438
0.6215284831
0.62152784
0.6215269822
0.6215259305
0.6215247208
0.621523397
0.6215220037
0.6215205826
0.6215191673
0.6215177845
0.621516456
0.6215152041
0.6215140669
0.621513189
0.6215288602
0.62152846
0.6215278937
0.6215271548
0.6215262507
0.6215252014
0.6215240352
0.6215227838
0.6215214793
0.6215201521
0.62151883
0.6215175435
0.6215163451
0.6215154029
0.621528917
0.6215284831
0.6215278392
0.6215269816
0.6215259303
0.6215247207
0.6215233966
0.6215220041
0.6215205826
0.621519167
0.6215177838
0.6215164554
0.6215152029
0.6215140659
0.6215131877
0.6215276304
0.6215264982
0.621525117
0.6215235685
0.6215219386
0.6215202962
0.6215186945
0.6215171677
0.6215157372
0.621514413
0.621513199
0.6215120989
0.6215111312
0.6215104001
0.6215254821
0.6215232772
0.6215208794
0.6215184917
0.6215162549
0.6215142437
0.6215124866
0.6215109801
0.6215097031
0.6215086276
0.6215077246
0.6215069688
0.6215063485
0.6215059023
0.6215216577
0.621517984
0.6215144909
0.6215114388
0.6215089202
0.6215069234
0.6215053858
0.621504229
0.6215033758
0.6215027581
0.6215023201
0.6215020169
0.6215018143
0.6215016939
0.6215180428
0.6215136184
0.621509871
0.6215068977
0.621504641
0.6215029858
0.6215018101
0.6215010031
0.6215004757
0.6215001546
0.6214999829
0.6214999169
0.6214999205
0.6214999551
0.6215216577
0.6215179847
0.6215144907
0.6215114393
0.6215089208
0.6215069238
0.6215053864
0.6215042301
0.6215033769
0.6215027594
0.621502321
0.6215020175
0.6215018151
0.6215016953
0.6215254822
0.621523277
0.6215208796
0.6215184922
0.6215162547
0.621514244
0.6215124874
0.6215109805
0.6215097042
0.6215086288
0.6215077261
0.6215069701
0.6215063499
0.6215059042
0.6215276304
0.6215264981
0.6215251163
0.6215235684
0.6215219384
0.6215202964
0.6215186944
0.6215171683
0.6215157385
0.6215144143
0.6215132005
0.6215121004
0.6215111327
0.621510401
0.6215284825
0.6215278392
0.6215269823
0.6215259307
0.6215247207
0.6215233966
0.621522004
0.6215205826
0.6215191672
0.6215177848
0.6215164568
0.6215152043
0.6215140673
0.6215131892
0.6215284671
0.6215276484
0.6215265086
0.6215250975
0.6215234948
0.6215217867
0.6215200506
0.6215183479
0.6215167221
0.6215152018
0.621513801
0.6215125268
0.6215113833
0.6215103882
0.6215096433
0.6215272621
0.6215254825
0.6215232774
0.6215208794
0.6215184921
0.621516255
0.6215142439
0.6215124868
0.6215109804
0.6215097032
0.6215086278
0.6215077252
0.6215069694
0.6215063487
0.6215059026
0.6215191249
0.6215144623
0.6215102382
0.6215067745
0.6215041373
0.6215022512
0.6215009823
0.621500188
0.6214997413
0.6214995391
0.6214995013
0.621499568
0.6214996909
0.6214998144
0.6215049584
0.6214970682
0.6214916236
0.6214884089
0.6214868967
0.6214865586
0.6214869658
0.6214878074
0.6214888732
0.6214900268
0.6214911832
0.6214922867
0.6214932862
0.6214940528
0.6214863705
0.6214785079
0.6214751305
0.621474535
0.6214755027
0.6214772662
0.6214793705
0.6214815558
0.6214836819
0.621485675
0.6214875024
0.6214891473
0.6214905782
0.6214916494
0.6215049599
0.62149707
0.6214916251
0.6214884101
0.6214868982
0.6214865598
0.6214869671
0.6214878092
0.6214888751
0.621490029
0.6214911848
0.6214922881
0.6214932879
0.6214940542
0.6215191252
0.6215144624
0.6215102388
0.6215067751
0.6215041382
0.621502252
0.6215009835
0.6215001894
0.6214997436
0.6214995409
0.6214995033
0.6214995701
0.621499693
0.6214998168
0.6215254828
0.6215232776
0.6215208795
0.6215184924
0.6215162554
0.6215142444
0.6215124877
0.6215109815
0.6215097055
0.6215086297
0.6215077269
0.6215069709
0.6215063508
0.6215059048
0.6215276483
0.6215265091
0.6215250979
0.6215234952
0.6215217871
0.6215200506
0.6215183481
0.6215167229
0.6215152024
0.6215138024
0.6215125286
0.6215113853
0.6215103905
0.6215096454
0.6215277904
0.6215264235
0.6215246504
0.6215226135
0.6215204625
0.6215183217
0.6215162806
0.6215143952
0.6215126942
0.6215111866
0.6215098684
0.6215087293
0.6215077545
0.6215069443
0.6215063573
0.6215250352
0.6215216585
0.6215179852
0.6215144917
0.6215114394
0.6215089206
0.6215069238
0.621505386
0.6215042299
0.6215033764
0.6215027593
0.621502321
0.6215020177
0.6215018145
0.6215016942
0.6215145812
0.6215049597
0.6214970695
0.6214916251
0.6214884096
0.6214868977
0.6214865593
0.6214869666
0.6214878082
0.6214888736
0.6214900273
0.6214911836
0.6214922873
0.6214932864
0.6214940523
0.6214563091
0.6214463403
0.6214446724
0.6214475093
0.6214523614
0.6214578219
0.6214631763
0.6214681064
0.6214724992
0.6214763495
0.6214796912
0.6214825692
0.6214849878
0.6214867556
0.6213606632
0.6213730826
0.6213922327
0.6214106139
0.621426242
0.621438996
0.6214492869
0.6214576011
0.6214643639
0.6214699124
0.6214745021
0.6214783166
0.6214814416
0.621483689
0.6214563124
0.6214463426
0.6214446742
0.6214475112
0.6214523634
0.6214578242
0.6214631792
0.6214681087
0.6214725018
0.6214763516
0.6214796932
0.6214825712
0.6214849896
0.6214867579
0.6215049592
0.6214970699
0.621491626
0.6214884108
0.6214868994
0.6214865613
0.6214869687
0.6214878109
0.621488877
0.6214900304
0.6214911861
0.6214922897
0.6214932892
0.6214940553
0.6215216581
0.6215179853
0.6215144917
0.6215114399
0.6215089219
0.6215069254
0.6215053881
0.6215042317
0.6215033787
0.621502761
0.6215023232
0.6215020197
0.6215018173
0.6215016971
0.6215264232
0.6215246498
0.6215226134
0.6215204627
0.6215183222
0.6215162811
0.6215143961
0.6215126952
0.6215111881
0.6215098703
0.6215087309
0.621507757
0.621506947
0.6215063601
0.6215272815
0.6215255472
0.6215234256
0.6215211102
0.6215187651
0.6215165078
0.6215144141
0.6215125254
0.621510858
0.6215094097
0.6215081682
0.6215071177
0.6215062377
0.6215055205
0.6215050102
0.6215227071
0.6215180437
0.6215136197
0.6215098719
0.6215068986
0.6215046413
0.6215029868
0.6215018105
0.6215010041
0.6215004766
0.6215001549
0.6214999837
0.6214999175
0.6214999209
0.621499955
0.6215003236
0.6214863719
0.6214785096
0.6214751318
0.6214745363
0.621475504
0.6214772674
0.6214793716
0.6214815565
0.6214836819
0.6214856754
0.6214875028
0.6214891473
0.6214905784
0.6214916492
0.6213777523
0.6213606677
0.621373085
0.6213922346
0.6214106153
0.6214262431
0.6214389971
0.6214492873
0.6214576012
0.621464364
0.6214699121
0.6214745023
0.6214783165
0.621481442
0.6214836889
0.6209484565
0.6211579882
0.6212740749
0.6213420577
0.6213841743
0.6214117293
0.6214306878
0.6214443245
0.62145451
0.6214623577
0.6214685562
0.6214735325
0.6214775097
0.6214803251
0.6213606628
0.6213730856
0.6213922372
0.6214106186
0.6214262464
0.6214390005
0.6214492908
0.6214576047
0.6214643671
0.6214699149
0.6214745049
0.6214783189
0.6214814438
0.6214836911
0.6214863698
0.6214785094
0.6214751333
0.6214745384
0.6214755069
0.6214772701
0.6214793747
0.6214815605
0.621483686
0.6214856796
0.6214875058
0.6214891507
0.6214905819
0.6214916535
0.6215180426
0.6215136196
0.621509872
0.6215068994
0.6215046431
0.6215029879
0.6215018127
0.6215010063
0.6215004789
0.6215001579
0.6214999862
0.6214999209
0.6214999246
0.6214999589
0.6215255467
0.6215234251
0.6215211102
0.6215187653
0.6215165083
0.6215144148
0.6215125267
0.6215108592
0.6215094109
0.6215081702
0.6215071196
0.6215062401
0.6215055237
0.6215050136
0.6215277904
0.621526423
0.62152465
0.6215226134
0.6215204627
0.6215183219
0.621516281
0.6215143956
0.6215126947
0.6215111873
0.6215098696
0.6215087301
0.6215077559
0.6215069455
0.6215063582
0.6215250353
0.6215216591
0.6215179858
0.6215144919
0.6215114399
0.6215089214
0.6215069249
0.6215053869
0.6215042304
0.6215033772
0.6215027594
0.6215023216
0.621502018
0.6215018153
0.6215016949
0.6215145824
0.6215049609
0.6214970709
0.6214916264
0.6214884109
0.6214868994
0.6214865613
0.6214869682
0.6214878103
0.6214888759
0.6214900291
0.6214911847
0.6214922885
0.621493288
0.6214940541
0.6214786469
0.6214563166
0.6214463454
0.621444677
0.621447513
0.6214523648
0.6214578256
0.6214631802
0.6214681093
0.6214725028
0.6214763525
0.6214796945
0.6214825711
0.62148499
0.6214867583
0.6213777532
0.6213606683
0.6213730889
0.6213922394
0.6214106202
0.6214262477
0.6214390011
0.6214492912
0.6214576051
0.6214643679
0.621469916
0.6214745053
0.6214783192
0.6214814441
0.6214836912
0.6214786454
0.621456316
0.6214463465
0.6214446789
0.6214475157
0.6214523679
0.6214578282
0.6214631827
0.6214681118
0.6214725057
0.6214763546
0.6214796965
0.6214825736
0.6214849918
0.6214867601
0.621504959
0.6214970706
0.6214916272
0.6214884128
0.6214869017
0.6214865637
0.6214869708
0.6214878132
0.6214888792
0.6214900326
0.6214911882
0.621492292
0.6214932911
0.6214940577
0.6215216579
0.6215179848
0.6215144921
0.6215114408
0.6215089228
0.6215069262
0.6215053891
0.6215042328
0.6215033801
0.6215027625
0.6215023246
0.6215020217
0.6215018189
0.621501699
0.6215264231
0.62152465
0.6215226132
0.6215204629
0.6215183224
0.6215162813
0.6215143969
0.6215126961
0.6215111891
0.6215098715
0.6215087326
0.6215077587
0.6215069479
0.6215063617
0.6215284675
0.6215276486
0.6215265088
0.621525098
0.6215234957
0.6215217873
0.6215200514
0.6215183482
0.6215167229
0.6215152023
0.6215138019
0.6215125282
0.6215113847
0.6215103897
0.6215096447
0.6215272628
0.6215254832
0.621523278
0.6215208802
0.6215184933
0.6215162558
0.621514245
0.6215124879
0.6215109814
0.6215097048
0.6215086298
0.621507727
0.6215069713
0.6215063505
0.6215059042
0.6215235688
0.6215191265
0.6215144639
0.6215102403
0.6215067764
0.6215041393
0.6215022534
0.6215009845
0.6215001907
0.6214997442
0.6214995414
0.6214995038
0.6214995704
0.6214996936
0.6214998176
0.6215145824
0.6215049613
0.621497072
0.6214916282
0.6214884127
0.6214869011
0.621486563
0.6214869697
0.6214878118
0.6214888776
0.621490031
0.6214911863
0.6214922905
0.6214932901
0.6214940563
0.6215003236
0.6214863732
0.6214785126
0.6214751355
0.62147454
0.6214755078
0.6214772719
0.6214793758
0.6214815611
0.6214836864
0.6214856796
0.6214875068
0.621489151
0.6214905817
0.6214916533
0.6215145829
0.6215049617
0.6214970722
0.6214916285
0.6214884142
0.6214869026
0.6214865646
0.6214869722
0.6214878133
0.6214888795
0.6214900328
0.6214911889
0.6214922925
0.6214932913
0.6214940578
0.621523568
0.6215191262
0.6215144638
0.6215102411
0.6215067779
0.6215041408
0.6215022553
0.6215009866
0.6215001924
0.6214997463
0.6214995444
0.6214995061
0.6214995726
0.6214996959
0.6214998199
0.6215254822
0.6215232772
0.6215208801
0.6215184935
0.6215162568
0.6215142464
0.6215124897
0.6215109836
0.6215097073
0.6215086322
0.621507729
0.6215069736
0.6215063531
0.6215059072
0.6215276479
0.6215265088
0.6215250977
0.6215234952
0.6215217875
0.6215200521
0.6215183496
0.6215167243
0.6215152038
0.6215138036
0.6215125302
0.621511387
0.6215103922
0.6215096477
0.621528917
0.6215284834
0.62152784
0.6215269825
0.6215259309
0.6215247212
0.6215233972
0.6215220044
0.6215205832
0.6215191674
0.6215177853
0.6215164568
0.6215152043
0.6215140676
0.6215131894
0.6215284555
0.6215276309
0.6215264982
0.6215251171
0.6215235697
0.621521939
0.6215202966
0.6215186951
0.6215171692
0.6215157387
0.6215144151
0.6215132018
0.6215121011
0.6215111333
0.6215104017
0.6215272624
0.6215254831
0.6215232781
0.6215208802
0.621518493
0.6215162558
0.621514245
0.6215124885
0.6215109819
0.6215097054
0.6215086301
0.6215077269
0.6215069717
0.6215063518
0.6215059053
0.621525036
0.6215216591
0.6215179859
0.6215144925
0.6215114412
0.6215089229
0.6215069259
0.6215053888
0.6215042323
0.6215033791
0.6215027621
0.6215023238
0.6215020207
0.6215018183
0.6215016979
0.621522707
0.6215180443
0.6215136207
0.6215098733
0.6215069007
0.6215046438
0.6215029886
0.6215018133
0.6215010075
0.6215004801
0.6215001589
0.6214999866
0.6214999212
0.6214999245
0.6214999592
0.6215250358
0.6215216589
0.6215179864
0.6215144935
0.6215114417
0.621508924
0.6215069274
0.6215053902
0.6215042336
0.6215033805
0.621502763
0.6215023251
0.6215020219
0.621501819
0.6215016986
0.6215272626
0.6215254836
0.6215232782
0.6215208809
0.6215184938
0.6215162572
0.6215142463
0.6215124901
0.621510984
0.6215097068
0.6215086319
0.6215077289
0.6215069734
0.6215063528
0.6215059073
0.6215284555
0.6215276309
0.6215264985
0.6215251174
0.6215235695
0.62152194
0.621520298
0.6215186966
0.6215171704
0.62151574
0.6215144161
0.6215132027
0.6215121026
0.6215111354
0.6215104043
0.621528483
0.6215278398
0.6215269826
0.6215259311
0.6215247218
0.6215233981
0.6215220058
0.6215205844
0.6215191687
0.6215177859
0.6215164585
0.6215152061
0.6215140697
0.6215131922
0.621529118
0.6215288608
0.6215284605
0.6215278943
0.6215271558
0.6215262513
0.6215252027
0.6215240362
0.6215227845
0.6215214798
0.6215201526
0.6215188303
0.6215175443
0.6215163459
0.6215154035
0.6215289173
0.6215284831
0.62152784
0.6215269826
0.6215259307
0.6215247212
0.6215233978
0.6215220051
0.6215205834
0.6215191675
0.6215177849
0.6215164572
0.6215152051
0.621514068
0.62151319
0.6215284674
0.6215276487
0.6215265089
0.6215250979
0.6215234955
0.6215217877
0.6215200517
0.6215183494
0.6215167235
0.6215152034
0.621513803
0.6215125294
0.6215113861
0.6215103912
0.6215096464
0.6215277908
0.621526424
0.6215246509
0.6215226143
0.6215204635
0.621518323
0.6215162824
0.6215143969
0.6215126964
0.621511189
0.6215098712
0.6215087324
0.6215077581
0.6215069471
0.6215063608
0.621527282
0.6215255475
0.621523426
0.6215211111
0.6215187659
0.6215165091
0.621514416
0.6215125276
0.6215108598
0.6215094118
0.6215081709
0.6215071202
0.6215062408
0.621505524
0.6215050143
0.621527791
0.6215264242
0.6215246511
0.6215226144
0.6215204637
0.6215183237
0.6215162833
0.6215143981
0.6215126969
0.6215111895
0.6215098723
0.6215087331
0.6215077587
0.6215069486
0.6215063621
0.621528468
0.6215276495
0.6215265096
0.6215250986
0.6215234957
0.6215217884
0.6215200528
0.6215183499
0.6215167246
0.6215152046
0.6215138042
0.6215125304
0.6215113871
0.6215103922
0.6215096477
0.6215289176
0.6215284837
0.6215278406
0.6215269829
0.6215259315
0.6215247217
0.6215233982
0.6215220056
0.6215205844
0.6215191689
0.6215177864
0.6215164588
0.6215152063
0.6215140697
0.6215131919
0.621529118
0.6215288606
0.6215284604
0.6215278942
0.621527155
0.6215262512
0.6215252024
0.6215240365
0.6215227854
0.6215214809
0.6215201537
0.6215188322
0.6215175455
0.6215163476
0.6215154059
)
;

boundaryField
{
    top
    {
        type            zeroGradient;
    }
    bottom
    {
        type            zeroGradient;
    }
    side-walls
    {
        type            zeroGradient;
    }
    inlet
    {
        type            zeroGradient;
    }
    outlet
    {
        type            zeroGradient;
    }
    procBoundary1to0
    {
        type            processor;
        value           nonuniform List<scalar> 
97
(
0.6215291176
0.6215291176
0.6215289169
0.621528467
0.6215277904
0.6215272821
0.6215277908
0.6215284673
0.6215289172
0.6215291174
0.6215291736
0.6215284554
0.6215284554
0.6215284554
0.6215272623
0.6215250357
0.6215227077
0.6215250359
0.6215272626
0.6215284549
0.6215289171
0.62152897
0.6215284422
0.6215235678
0.6215235678
0.6215235678
0.6215145837
0.6215003285
0.6215145854
0.621523569
0.6215272623
0.6215284675
0.6215286714
0.6215275094
0.6215234388
0.6214786461
0.6214786461
0.6214786461
0.6213777892
0.6214786557
0.6215145843
0.6215250358
0.6215277912
0.6215284578
0.6215266282
0.6215189069
0.6214882757
0.6205492312
0.6205492312
0.6205492312
0.6213777874
0.6213777874
0.6215003278
0.6215227077
0.6215272824
0.6215286716
0.6215275098
0.6215234387
0.6215115809
0.621488274
0.6215115821
0.6215145819
0.6215145819
0.6215145819
0.6215250357
0.6215277906
0.6215289704
0.6215284426
0.6215268925
0.6215234389
0.6215189063
0.6215234388
0.6215268922
0.6215272625
0.6215272625
0.6215272625
0.6215284672
0.6215291735
0.6215289662
0.6215284422
0.6215275095
0.6215266286
0.62152751
0.6215284427
0.6215289661
0.6215289173
0.6215289173
0.6215289173
0.6215292658
0.6215291739
0.6215289703
0.621528671
0.6215284576
0.6215286718
0.6215289707
0.621529174
0.6215292659
)
;
    }
}


// ************************************************************************* //
