/*--------------------------------*- C++ -*----------------------------------*\
| =========                 |                                                 |
| \\      /  F ield         | OpenFOAM: The Open Source CFD Toolbox           |
|  \\    /   O peration     | Version:  4.x                                   |
|   \\  /    A nd           | Web:      www.OpenFOAM.org                      |
|    \\/     M anipulation  |                                                 |
\*---------------------------------------------------------------------------*/
FoamFile
{
    version     2.0;
    format      ascii;
    class       surfaceScalarField;
    location    "10000";
    object      phi;
}
// * * * * * * * * * * * * * * * * * * * * * * * * * * * * * * * * * * * * * //

dimensions      [1 0 -1 0 0 0 0];

internalField   nonuniform List<scalar> 
3172
(
9.497950762e-06
-6.84370965e-12
-6.518326912e-12
9.497962968e-06
-5.81884054e-12
-4.739874861e-12
9.497968828e-06
-3.954389034e-12
-3.071581961e-12
9.497972257e-06
-2.788044376e-12
-1.66104631e-12
9.497974356e-06
-1.744976056e-12
-9.250479819e-13
9.497976716e-06
-1.355494152e-12
9.283011374e-13
9.497974795e-06
5.285209052e-13
1.812951999e-12
9.497973255e-06
7.864222033e-13
2.347492168e-12
9.497971727e-06
1.212349549e-12
2.205217546e-12
9.497971189e-06
8.116063126e-13
2.453768829e-12
9.497969521e-06
2.57628982e-12
4.181027799e-12
9.497964811e-06
8.290662344e-13
2.843061499e-12
9.497962771e-06
2.016006689e-12
2.837394362e-12
2.024519989e-12
2.425651913e-12
9.498008959e-06
-5.842611044e-12
-2.399563915e-12
9.498017961e-06
-8.780990137e-12
-6.791133338e-12
9.498022041e-06
-6.359570469e-12
-4.523688141e-12
9.498024163e-06
-4.525945669e-12
-2.95828728e-12
9.498022939e-06
-1.99443885e-12
-1.22033983e-12
9.498023494e-06
-8.213107843e-13
8.869413036e-13
9.498020176e-06
-4.004655831e-13
1.13258809e-12
9.498019055e-06
7.131254029e-13
2.088301517e-12
9.498017586e-06
2.621579498e-12
2.4381877e-12
9.498015216e-06
2.696119404e-12
2.083741925e-12
9.498010895e-06
1.804894666e-12
7.050004773e-13
9.49800893e-06
2.348716216e-12
2.457677734e-12
9.498006409e-06
2.695148887e-12
2.618167607e-12
4.011436178e-12
1.07479697e-12
9.497997535e-06
-4.01557878e-12
-5.420623158e-12
9.498002537e-06
-5.951444482e-12
-9.848076382e-12
9.498002885e-06
-4.220330493e-13
-1.871846401e-12
9.498000239e-06
3.935105984e-13
2.809894175e-12
9.497993339e-06
-2.633901991e-13
2.88025956e-12
9.497991321e-06
3.766250699e-13
3.88636036e-12
9.497985526e-06
1.440279412e-12
4.311719995e-12
9.497982237e-06
3.967229149e-12
4.15431886e-12
9.497977623e-06
2.246651341e-12
2.283993043e-12
9.497975601e-06
1.810150604e-12
1.876098841e-12
9.497974171e-06
3.131286714e-12
1.857210245e-12
9.497970499e-06
2.503948983e-12
2.329446597e-12
9.497967754e-06
2.653033e-12
2.39447233e-12
3.355389027e-12
1.647255436e-12
9.498002315e-06
4.799276265e-13
1.511820329e-11
9.498005877e-06
-3.526775725e-13
-1.264779976e-11
9.498001645e-06
1.467807944e-12
-2.05321365e-12
9.497999185e-06
2.668709749e-12
4.468131457e-12
9.497991562e-06
1.537377438e-12
4.869900923e-12
9.497985087e-06
3.577380974e-12
5.610424305e-12
9.49798004e-06
2.357449225e-12
6.421864282e-12
9.497973653e-06
1.041260489e-12
4.796589919e-12
9.497971973e-06
2.680669106e-12
4.335902107e-12
9.497969504e-06
3.375421183e-12
4.067011034e-12
9.497964627e-06
1.324215235e-12
4.724650269e-12
9.497963609e-06
1.963047354e-12
4.402720791e-12
9.497964466e-06
2.754780637e-12
4.871595989e-12
1.94858129e-12
2.176997328e-12
9.498003191e-06
-1.312264178e-12
5.469905739e-11
9.497987075e-06
-1.872212633e-12
1.958439468e-11
9.497972066e-06
-4.487575967e-12
2.177150486e-11
9.497961331e-06
-3.158860534e-12
1.898603628e-11
9.497952827e-06
-2.163188419e-12
1.415014204e-11
9.497945386e-06
-1.452475259e-12
9.764548946e-12
9.497942031e-06
6.22286357e-13
7.603141499e-12
9.497938225e-06
1.380110751e-12
6.552071733e-12
9.497936605e-06
1.422367798e-12
4.242259927e-12
9.497933551e-06
-1.696827021e-13
3.027876863e-12
9.497933845e-06
-7.10610853e-13
3.211195369e-12
9.497936465e-06
-2.862537626e-13
3.458880195e-12
9.497935207e-06
8.939374302e-13
4.212116887e-12
-6.225334446e-13
2.572386483e-12
9.497977944e-06
2.987926154e-12
1.470316359e-11
9.497983605e-06
6.801756833e-12
-1.378949833e-11
9.497983324e-06
2.364256715e-12
-3.871912102e-13
9.497976991e-06
-9.603728996e-15
4.154368912e-12
9.497972208e-06
-5.439726154e-13
6.245787822e-12
9.497966046e-06
-3.06904989e-13
6.016363339e-12
9.497959441e-06
-9.563100436e-13
6.184349929e-12
9.497956057e-06
-3.760008989e-13
5.327334793e-12
9.497951345e-06
2.12499586e-13
2.84438031e-12
9.497947693e-06
1.981692464e-13
3.359143426e-12
9.497947333e-06
8.039921766e-14
4.241245561e-12
9.497947597e-06
-7.860078805e-13
5.628457894e-12
9.497943338e-06
-1.847062568e-12
4.743189918e-12
-1.482054588e-12
3.262591851e-12
9.497988165e-06
6.515272517e-12
-5.113137435e-12
9.497994008e-06
8.082698105e-12
-9.451395918e-12
9.497995112e-06
4.00149588e-12
-1.211699516e-12
9.497990586e-06
1.673681357e-12
5.396684878e-13
9.497988554e-06
6.141980208e-13
2.984328903e-12
9.497982821e-06
-1.217723159e-12
2.850184307e-12
9.497979494e-06
-1.967890009e-12
4.229026283e-12
9.497975138e-06
-1.768772123e-12
3.613544563e-12
9.49796938e-06
-3.876866e-12
2.645286929e-12
9.497964715e-06
-3.178198341e-12
2.893788289e-12
9.497963817e-06
-9.557387272e-13
4.392533518e-12
9.497964108e-06
-2.180516197e-12
4.699687059e-12
9.497961895e-06
-3.534742464e-12
2.026576873e-12
-4.044228652e-12
1.834776051e-12
9.49793709e-06
4.845041261e-12
-3.634138888e-12
9.497947289e-06
4.914082997e-12
-8.209373612e-12
9.497955925e-06
3.557632102e-12
-3.418773489e-12
9.497959489e-06
1.797488595e-12
-2.829726746e-14
9.497961743e-06
1.895847224e-12
-4.966989986e-13
9.497958825e-06
1.046594319e-13
8.076943305e-13
9.497957304e-06
5.06338809e-13
2.390764106e-12
9.497954569e-06
-1.483984771e-12
1.001198852e-12
9.497950642e-06
-9.589836468e-13
1.177386143e-12
9.497948845e-06
-1.560801287e-12
3.015024264e-12
9.497945542e-06
-2.141874369e-12
2.985494917e-12
9.497945033e-06
-1.919097028e-12
3.095311342e-12
9.497940085e-06
-3.208621122e-12
1.899088593e-12
-2.421268884e-12
1.549112615e-12
9.497927745e-06
-5.141004452e-12
9.497939044e-06
-5.606623123e-12
9.497946548e-06
-2.86989406e-12
9.497951251e-06
-1.640359339e-13
9.497953828e-06
-1.930127183e-12
9.497954713e-06
-2.767934107e-13
9.497953346e-06
-5.911959704e-13
9.497954549e-06
-1.01582793e-13
9.497950175e-06
3.462996034e-13
9.497948195e-06
1.42627082e-12
9.497944933e-06
1.097530903e-12
9.497942465e-06
2.190310921e-12
9.497937376e-06
2.092323234e-12
1.990734627e-12
9.49797669e-06
-3.796608312e-11
9.497985737e-06
-2.00592892e-12
-5.934284447e-12
9.497995829e-06
-7.032489753e-12
-8.956471102e-12
9.498000293e-06
-5.130245953e-12
-3.904217313e-12
9.498001189e-06
-3.831743362e-12
-1.112500615e-12
9.498003147e-06
-1.667642863e-12
8.882132984e-13
9.498000947e-06
-1.242706693e-12
5.250912955e-13
9.497998822e-06
-6.169280962e-13
1.044267043e-12
9.497996424e-06
8.44323561e-13
2.464521121e-12
9.497994215e-06
2.149968922e-12
3.844491743e-12
9.497993261e-06
1.985714161e-12
4.634560462e-12
9.497990753e-06
1.718122083e-12
3.892397882e-12
9.497984759e-06
1.348325695e-12
3.210345432e-12
9.497982397e-06
2.832553119e-12
4.419077926e-12
2.154427613e-12
4.018027231e-12
9.49796046e-06
7.566103959e-13
-1.638268494e-12
9.497968808e-06
-1.124604943e-11
-1.131395952e-11
9.497971619e-06
-4.076659615e-12
-4.106159578e-12
9.497970904e-06
-4.833357326e-13
5.243982007e-13
9.49796837e-06
4.868130648e-13
2.220968035e-12
9.497965798e-06
1.746061627e-12
2.836886985e-12
9.497960717e-06
2.446649067e-12
3.601162835e-12
9.497958024e-06
2.838499242e-12
4.128023596e-12
9.497955096e-06
3.535466142e-12
5.350174311e-12
9.497951395e-06
4.005905021e-12
4.84777095e-12
9.497950578e-06
3.54617427e-12
4.308654257e-12
9.49794712e-06
2.771625994e-12
4.150765757e-12
9.497943723e-06
3.963494713e-12
4.973431418e-12
4.72016775e-12
4.687845525e-12
9.497932825e-06
1.213471588e-11
2.246840218e-12
9.497930628e-06
-4.820987912e-12
-1.226842949e-11
9.497920869e-06
3.986440329e-13
3.164837469e-12
9.497909194e-06
2.402868939e-12
8.005910851e-12
9.497902542e-06
3.506517012e-12
9.69186594e-12
9.497896155e-06
3.330996373e-12
9.336812863e-12
9.497890171e-06
3.963707251e-12
7.708548095e-12
9.49788636e-06
4.674416124e-12
6.75935506e-12
9.497886249e-06
4.533100951e-12
7.050545493e-12
9.497884327e-06
4.011981806e-12
5.567631915e-12
9.497885892e-06
5.440985788e-12
6.009113035e-12
9.497886441e-06
4.861068618e-12
5.330039502e-12
9.497885718e-06
5.052636761e-12
3.9232631e-12
2.881183933e-12
3.649848912e-12
9.498007696e-06
2.673514849e-11
6.760165074e-11
9.498000478e-06
5.43172678e-12
-2.299280935e-11
9.497989577e-06
5.628599098e-12
3.704646335e-12
9.497978308e-06
4.931275423e-12
1.292982213e-11
9.497968724e-06
4.775915789e-12
1.519124744e-11
9.497964086e-06
4.788831871e-12
1.35828835e-11
9.497959775e-06
3.068777122e-12
1.042742697e-11
9.497958666e-06
2.757720648e-12
8.823365238e-12
9.497957467e-06
3.174241307e-12
7.94787344e-12
9.497958636e-06
2.549690473e-12
6.099755287e-12
9.49795776e-06
5.679049226e-13
3.609840694e-12
9.497960342e-06
5.927698192e-13
3.379606098e-12
9.497961074e-06
2.779159483e-12
6.051907737e-12
2.894326242e-12
5.740592305e-12
9.498023249e-06
-2.758849462e-11
2.895696121e-10
9.497970758e-06
-7.866941461e-12
8.524766802e-11
9.497944744e-06
-7.801864157e-12
6.082884714e-11
9.497930244e-06
-6.842900777e-12
4.767640521e-11
9.497922736e-06
-5.212928926e-12
3.030684603e-11
9.497921487e-06
-3.130619814e-12
2.096143059e-11
9.497918113e-06
-1.280187201e-12
1.312103735e-11
9.497916541e-06
-3.214395068e-13
8.463564924e-12
9.497917922e-06
-1.144860775e-12
6.266071151e-12
9.497919985e-06
-8.569490963e-13
5.727118522e-12
9.497920685e-06
-8.186035567e-13
5.021920752e-12
9.497923459e-06
1.075603354e-12
3.775664784e-12
9.497922951e-06
-1.015176696e-12
5.152469134e-12
-6.533735101e-13
4.295910669e-12
9.498043906e-06
-1.301423883e-11
6.760515957e-11
9.498040758e-06
5.999531175e-12
-2.445696515e-11
9.49802917e-06
-8.205779032e-13
2.376158656e-12
9.498019631e-06
-4.898638349e-12
1.256941773e-11
9.498010432e-06
-4.536353929e-12
1.324653e-11
9.498003355e-06
-4.190559277e-12
1.402936136e-11
9.497999788e-06
-3.476590565e-12
9.657450466e-12
9.49799634e-06
-3.269787948e-12
7.327647735e-12
9.497997775e-06
-5.264776678e-13
7.692439802e-12
9.497997212e-06
-1.161067889e-12
5.4416059e-12
9.498000041e-06
-1.542437205e-13
6.383202754e-12
9.497999585e-06
-2.151084728e-12
5.096928954e-12
9.497999063e-06
-3.775846673e-12
4.903244782e-12
-3.175295241e-12
3.994766452e-12
9.497938319e-06
-4.393439995e-13
4.191996762e-12
9.497936524e-06
9.411191441e-12
-1.140835312e-11
9.497928606e-06
5.059309301e-12
4.39526378e-12
9.497918969e-06
2.325361023e-12
1.075554385e-11
9.497909741e-06
-7.736991301e-13
9.234693973e-12
9.497903991e-06
-2.09904473e-12
9.186460433e-12
9.497897759e-06
-3.21691413e-12
7.692185744e-12
9.497895135e-06
-3.127122432e-12
6.189944456e-12
9.497891756e-06
-4.676388266e-12
4.219736265e-12
9.497890455e-06
-2.47506495e-12
3.598474111e-12
9.497888709e-06
-2.766465966e-12
4.85221075e-12
9.497887483e-06
-3.072592461e-12
5.85950146e-12
9.497889514e-06
-3.63024739e-12
5.961729735e-12
-4.122234267e-12
5.148016899e-12
9.498013662e-06
3.607714269e-12
-9.250430868e-13
9.49802406e-06
8.444581243e-12
-1.058932339e-11
9.498025528e-06
4.315249357e-12
-4.952420349e-12
9.498023596e-06
2.433090892e-12
-6.787044701e-13
9.498023764e-06
4.403413585e-13
1.207256668e-12
9.49802031e-06
-5.995613408e-13
2.145658628e-12
9.498017385e-06
-2.359868875e-12
3.463377937e-12
9.498015145e-06
-2.845936567e-12
3.619697285e-12
9.498011179e-06
-2.198843207e-12
3.236252927e-12
9.498008403e-06
-2.71981586e-12
2.764324611e-12
9.498004398e-06
-4.267015322e-12
3.565390072e-12
9.498004267e-06
-3.375229454e-12
3.145048627e-12
9.498002545e-06
-2.605900009e-12
3.969763687e-12
-2.294295302e-12
3.358391284e-12
9.497912311e-06
-7.138120926e-12
9.497922782e-06
-9.421153518e-12
9.49792946e-06
-4.290269575e-12
9.497930147e-06
-2.4467894e-12
9.497934535e-06
-5.179039319e-13
9.497930903e-06
-8.109004011e-14
9.497927961e-06
1.699201901e-12
9.497925666e-06
2.052204016e-12
9.497922623e-06
3.002852823e-12
9.49791862e-06
2.692278544e-12
9.497916428e-06
3.225226637e-12
9.497913317e-06
2.905596572e-12
9.497910865e-06
1.723212411e-12
2.87005721e-12
9.49798375e-06
-6.759749932e-11
-4.685187478e-11
9.497984222e-06
-5.516068841e-12
-1.841687811e-12
9.49799235e-06
-9.670474776e-12
-4.237374956e-12
9.497990735e-06
-1.451277978e-12
1.024292744e-12
9.497986142e-06
1.653784427e-12
2.587641319e-12
9.497980798e-06
1.699983668e-12
3.224512783e-12
9.497976416e-06
3.564877948e-12
2.848106708e-12
9.497973056e-06
4.410368421e-12
4.163329937e-12
9.497969215e-06
4.10886665e-12
4.207056298e-12
9.497965554e-06
4.396613712e-12
3.361732367e-12
9.497963928e-06
4.50410108e-12
3.598975677e-12
9.497961455e-06
3.464770741e-12
2.140968052e-12
9.497959099e-06
3.497909468e-12
1.681305393e-12
9.497955133e-06
4.387641124e-12
1.636136216e-12
3.382920788e-12
3.497177633e-12
9.498081266e-06
-8.722557357e-11
9.498060704e-06
5.52565218e-12
1.278746189e-11
9.498055502e-06
-1.129617614e-11
-5.554199827e-12
9.498047015e-06
4.658701211e-12
2.013874241e-12
9.498034983e-06
7.498908989e-12
4.110816483e-12
9.498026726e-06
8.300397787e-12
5.188155906e-12
9.498019383e-06
9.005423497e-12
4.301499068e-12
9.498013825e-06
6.944961276e-12
5.149534693e-12
9.498012772e-06
6.46736828e-12
4.331666894e-12
9.498010234e-06
5.589971628e-12
4.100670133e-12
9.498009043e-06
4.653172005e-12
3.605569502e-12
9.498008863e-06
5.26773767e-12
2.749229326e-12
9.498007183e-06
4.926346603e-12
1.388146149e-12
9.498007916e-06
4.436245861e-12
2.762499442e-12
4.484310715e-12
3.574314653e-12
9.498087635e-06
4.947723508e-11
4.741508268e-11
9.49804399e-06
1.058581103e-11
9.21386204e-12
9.498006731e-06
2.221535111e-11
2.111811467e-11
9.497984194e-06
1.931209156e-11
2.020285578e-11
9.497969568e-06
1.515639951e-11
1.492937231e-11
9.497963161e-06
1.117765938e-11
1.150766842e-11
9.497962387e-06
9.11540214e-12
9.258238755e-12
9.497962632e-06
7.241382101e-12
6.393124158e-12
9.497964244e-06
5.246330987e-12
6.904977308e-12
9.497966427e-06
5.502475708e-12
6.50089966e-12
9.497968844e-06
3.076650265e-12
3.906623138e-12
9.497968041e-06
3.333149527e-12
3.545675101e-12
9.497973531e-06
6.837038544e-12
4.43842668e-12
4.549583381e-12
4.549819841e-12
9.498027792e-06
1.096168102e-10
2.273859296e-10
9.497971829e-06
3.651067028e-11
1.529570179e-12
9.497934777e-06
2.78592913e-11
2.72794359e-11
9.497919327e-06
2.053440094e-11
2.98576526e-11
9.497911145e-06
1.178240591e-11
1.946358655e-11
9.497914682e-06
8.820559076e-12
1.582619477e-11
9.497919039e-06
4.975157133e-12
1.125305766e-11
9.497925648e-06
3.74998121e-12
7.072006814e-12
9.497931811e-06
2.909509969e-12
7.409820749e-12
9.497935691e-06
1.980285106e-12
4.737650817e-12
9.497940007e-06
2.2030979e-12
4.971481883e-12
9.497945021e-06
1.652789336e-12
4.397973668e-12
9.497948917e-06
1.557005724e-12
4.434186559e-12
2.640120197e-12
4.757730468e-12
9.498167053e-06
-1.096794315e-10
1.122975607e-09
9.497976078e-06
-4.028463904e-11
3.489612473e-10
9.497932979e-06
-3.103041609e-11
1.662629098e-10
9.497929876e-06
-2.133188099e-11
9.472081592e-11
9.497941807e-06
-1.362490005e-11
4.413790839e-11
9.497954097e-06
-8.042579325e-12
2.282606248e-11
9.497968164e-06
-4.745707451e-12
1.225541927e-11
9.497977866e-06
-2.096939871e-12
7.49739514e-12
9.497986197e-06
-4.248477233e-15
3.77465609e-12
9.497990403e-06
-1.441567242e-12
3.032073815e-12
9.497996666e-06
-4.157867636e-13
1.902623316e-12
9.498002316e-06
2.74546742e-13
3.119161972e-12
9.498006421e-06
-1.45616557e-12
4.19779585e-12
-1.718161829e-12
4.601744405e-12
9.498058333e-06
-4.848060513e-11
2.265000694e-10
9.498007451e-06
-7.672157563e-12
2.685211576e-12
9.497973005e-06
-2.040044415e-11
2.901963233e-11
9.497952834e-06
-1.910957749e-11
3.054003207e-11
9.497949612e-06
-1.495986764e-11
2.178491636e-11
9.497948616e-06
-1.213746855e-11
1.46728688e-11
9.497954792e-06
-6.864452477e-12
1.055847392e-11
9.497959375e-06
-6.00093075e-12
6.271112564e-12
9.497962949e-06
-4.362799438e-12
3.655575526e-12
9.49796776e-06
-2.682840408e-12
3.899087752e-12
9.49797237e-06
-2.334989599e-12
3.667569232e-12
9.497975428e-06
-1.871049987e-12
3.842178966e-12
9.497979959e-06
-2.995376877e-12
4.976097777e-12
-2.377690418e-12
5.227096863e-12
9.498066542e-06
-5.375377039e-12
4.79128402e-11
9.498025598e-06
1.033546078e-11
9.15187761e-12
9.49799064e-06
-3.330769315e-12
2.149874542e-11
9.497966666e-06
-9.465703489e-12
2.043546815e-11
9.497957308e-06
-9.335733615e-12
1.645120368e-11
9.4979509e-06
-8.574363193e-12
1.264164814e-11
9.49794867e-06
-7.352520297e-12
1.008054716e-11
9.497949584e-06
-6.37134288e-12
6.716557507e-12
9.497949229e-06
-4.482240186e-12
4.620922222e-12
9.497951118e-06
-4.495338067e-12
2.48489052e-12
9.497952573e-06
-3.884129429e-12
2.23563844e-12
9.497954637e-06
-4.379136653e-12
2.803652833e-12
9.497956679e-06
-6.017334538e-12
3.969659831e-12
-5.271341011e-12
3.625679138e-12
9.497956576e-06
5.189909829e-12
1.317808364e-11
9.497954488e-06
9.877144478e-12
-5.559463615e-12
9.497943337e-06
2.086526142e-12
7.318665991e-13
9.497931928e-06
-2.22087827e-12
3.397346606e-12
9.497926223e-06
-2.338220048e-12
4.245375263e-12
9.497920313e-06
-4.088133763e-12
2.96503672e-12
9.497914325e-06
-5.126539175e-12
3.215377857e-12
9.497913364e-06
-4.872078332e-12
2.620329232e-12
9.497909803e-06
-3.071684848e-12
1.921596617e-12
9.497910684e-06
-2.005891976e-12
2.270713868e-12
9.497907241e-06
-3.565737738e-12
1.377775136e-12
9.497907251e-06
-3.128339834e-12
3.106213301e-12
9.497906368e-06
-3.920318756e-12
3.53366605e-12
-2.88026358e-12
3.160891075e-12
9.498038082e-06
-2.622762822e-12
9.498045821e-06
-6.11566824e-12
9.498043275e-06
-2.084179169e-12
9.49804098e-06
1.228629974e-12
9.498037768e-06
1.705286633e-12
9.498032462e-06
1.187741716e-12
9.498027336e-06
9.107752759e-13
9.498025782e-06
2.292762561e-12
9.498019828e-06
1.609203917e-12
9.498016055e-06
1.290014869e-12
9.498013596e-06
2.26443706e-12
9.49801231e-06
3.025292736e-12
9.498010961e-06
3.438050897e-12
1.120386958e-12
9.49799348e-06
-9.420536345e-11
-4.718520689e-11
9.497974441e-06
1.439779007e-11
3.053659588e-12
9.497981167e-06
-1.444145091e-11
1.443556331e-12
9.497976648e-06
-3.396766697e-12
3.188124331e-12
9.49797034e-06
2.373921914e-12
3.011180212e-12
9.497962796e-06
4.03806616e-12
2.117064529e-12
9.497958532e-06
4.849735592e-12
1.398606495e-12
9.497951628e-06
4.654718046e-12
5.393106144e-13
9.497945641e-06
3.61916937e-12
-4.592199988e-13
9.497942627e-06
4.667861515e-12
7.143738022e-13
9.497940569e-06
4.05089143e-12
1.442008251e-12
9.49793956e-06
3.972969252e-12
1.348823706e-12
9.497938597e-06
3.016893692e-12
1.458047051e-12
9.497938392e-06
4.911682441e-12
1.724347737e-12
3.699530551e-12
1.110159695e-12
9.49802035e-06
-2.158102029e-10
-9.159153973e-11
9.497949119e-06
6.824546348e-11
2.635912178e-11
9.497944994e-06
-2.319813829e-11
7.154019057e-12
9.497934336e-06
2.10361149e-12
6.516654755e-12
9.49792272e-06
1.126168931e-11
6.952778949e-12
9.497911449e-06
1.185414589e-11
4.004241945e-12
9.497906829e-06
1.204317988e-11
3.380136679e-12
9.497901935e-06
9.105611879e-12
2.793525546e-12
9.497901352e-06
8.868746966e-12
2.949892122e-12
9.497899061e-06
7.21684829e-12
1.331459307e-12
9.49790045e-06
6.794752646e-12
1.90986677e-12
9.497900677e-06
5.415435881e-12
1.249494626e-12
9.497902591e-06
5.837204485e-12
2.531417749e-12
9.497903736e-06
5.574751811e-12
3.214676779e-12
6.478286859e-12
9.971864135e-13
9.498274517e-06
-2.836984419e-10
9.498052405e-06
2.279022409e-10
1.082035732e-10
9.497999542e-06
2.413090457e-12
3.727067058e-11
9.497963321e-06
2.746782626e-11
2.922097036e-11
9.497945673e-06
2.851594942e-11
2.065254193e-11
9.497939987e-06
1.9352673e-11
1.229823755e-11
9.49794209e-06
1.617443568e-11
9.648628531e-12
9.497947334e-06
1.13689989e-11
5.360564612e-12
9.497952176e-06
7.653278872e-12
4.393860655e-12
9.497955713e-06
5.3129581e-12
2.396779721e-12
9.497960487e-06
3.667248206e-12
1.534772832e-12
9.497964917e-06
4.409834249e-12
1.70040613e-12
9.49796747e-06
3.975660136e-12
1.556341168e-12
9.497975317e-06
6.535260889e-12
2.406070231e-12
4.414068779e-12
6.348452523e-13
9.497800037e-06
4.174862532e-10
4.186415118e-10
9.497835799e-06
-1.57875023e-11
-1.574192912e-11
9.497847685e-06
2.30192235e-11
2.296800604e-11
9.49785655e-06
2.457686145e-11
2.340630259e-11
9.497873163e-06
1.263329627e-11
1.301808316e-11
9.497887288e-06
7.995526239e-12
7.71631602e-12
9.497899368e-06
3.454556681e-12
5.46848898e-12
9.497912923e-06
3.767049977e-12
2.808442573e-12
9.497917988e-06
-4.067425398e-13
4.939969203e-13
9.49792546e-06
1.154047057e-12
1.929048311e-12
9.497932429e-06
-8.62115525e-14
1.118699161e-12
9.497936909e-06
1.667312444e-12
1.168722353e-12
9.497941055e-06
1.930589448e-12
1.486873616e-12
2.717336589e-12
6.287254174e-13
9.497592149e-06
-4.184624482e-10
3.331424885e-09
9.497633693e-06
1.421945707e-11
2.768787629e-10
9.497731848e-06
-2.461061994e-11
1.166586391e-10
9.497794893e-06
-2.507557626e-11
7.554737768e-11
9.497839423e-06
-1.215041288e-11
3.237073619e-11
9.497865093e-06
-8.679706554e-12
1.304434762e-11
9.497885227e-06
-3.835489972e-12
5.46044426e-12
9.497894488e-06
-3.826559072e-12
1.587852223e-12
9.497901818e-06
-1.916086726e-12
5.804157011e-13
9.497905579e-06
-1.727640537e-12
7.10563134e-13
9.497913903e-06
1.087210862e-12
2.062503347e-12
9.497916078e-06
5.064297916e-13
1.248284738e-12
9.497922661e-06
-1.118307834e-12
4.696149094e-13
-1.682488397e-12
-1.517586171e-13
9.497854221e-06
-2.283017176e-10
4.195234413e-10
9.497890578e-06
-2.741276729e-12
-1.37397212e-11
9.497903608e-06
-2.905957341e-11
2.435328092e-11
9.497913339e-06
-2.968513958e-11
2.431817499e-11
9.497927385e-06
-2.055297892e-11
1.362449859e-11
9.49794257e-06
-1.433080314e-11
8.453514969e-12
9.497955832e-06
-8.480293539e-12
5.283828949e-12
9.49796455e-06
-5.924672798e-12
4.195074358e-12
9.497973062e-06
-4.25380858e-12
9.975987009e-13
9.497978877e-06
-4.149149073e-12
2.687251188e-13
9.49798358e-06
-3.955241606e-12
8.182775551e-13
9.497986852e-06
-3.594747659e-12
-5.935696533e-13
9.497993229e-06
-5.156797526e-12
1.238879352e-12
-5.094327873e-12
2.619489281e-12
9.498029673e-06
-6.819403057e-11
1.104654207e-10
9.497976776e-06
2.19105838e-11
3.852358449e-11
9.497941074e-06
-3.051298468e-12
3.129204727e-11
9.497924413e-06
-1.323121052e-11
2.154985352e-11
9.497919662e-06
-1.419579391e-11
1.273528604e-11
9.497922239e-06
-1.44732646e-11
8.728979632e-12
9.49792347e-06
-1.281872466e-11
4.612597559e-12
9.497929586e-06
-9.169851052e-12
3.125340836e-12
9.49793611e-06
-6.583789459e-12
3.398420928e-12
9.497941976e-06
-5.252608279e-12
1.325617743e-12
9.497944632e-06
-3.586455167e-12
1.841626868e-12
9.497947108e-06
-3.646761815e-12
-9.84770378e-13
9.497950658e-06
-5.541881843e-12
1.499652299e-12
-5.10314126e-12
1.709443794e-12
9.498065446e-06
-1.483880341e-11
2.821672998e-11
9.498062536e-06
1.340756014e-11
6.904063105e-12
9.498051326e-06
1.717713507e-12
7.781891365e-12
9.498038963e-06
-3.320356111e-12
7.729812406e-12
9.498028625e-06
-4.313317045e-12
5.83527755e-12
9.498024769e-06
-5.196922891e-12
4.218369089e-12
9.498018788e-06
-5.905179161e-12
2.40274706e-12
9.498018564e-06
-3.344387796e-12
2.455819351e-12
9.498017611e-06
-3.112445694e-12
2.73911189e-12
9.498019086e-06
-1.746210006e-12
2.407732029e-12
9.498018202e-06
-2.302965622e-12
1.015118844e-12
9.498018789e-06
-2.586094885e-12
6.911021666e-13
9.498018553e-06
-4.669097151e-12
2.808660196e-13
-4.230567101e-12
2.035827176e-12
9.498011388e-06
2.18076154e-12
9.498016578e-06
2.108946826e-12
9.498014395e-06
3.605489239e-12
9.498010234e-06
3.058333762e-12
9.498002936e-06
2.786709978e-12
9.497996458e-06
2.971810425e-12
9.497990961e-06
2.274841126e-12
9.497984968e-06
1.803631872e-12
9.497981876e-06
1.52583442e-12
9.497978404e-06
4.78826944e-13
9.497976649e-06
1.072668239e-12
9.497975052e-06
7.175369384e-13
9.497973625e-06
2.295815142e-12
3.124633951e-12
9.498062412e-06
-2.656562629e-10
4.399974979e-11
9.498010504e-06
5.35670376e-11
-4.202698872e-12
9.497995107e-06
1.80098326e-11
-2.144994212e-12
9.497978729e-06
2.024064443e-11
-3.269641482e-12
9.497966226e-06
1.844455924e-11
-2.945575639e-12
9.497954546e-06
1.373549606e-11
-2.034225175e-12
9.497949897e-06
1.075825973e-11
-1.766956348e-12
9.497942816e-06
8.796670252e-12
-2.497067536e-12
9.497940578e-06
7.07867421e-12
-9.136762503e-13
9.497936399e-06
5.952922022e-12
-1.518537099e-12
9.497933708e-06
3.861349201e-12
-7.724433005e-13
9.497932926e-06
3.529390027e-12
2.500613067e-13
9.497932944e-06
4.427487512e-12
7.480659641e-13
9.497932885e-06
6.450998397e-12
1.142981673e-13
4.38403951e-12
-9.338865249e-13
9.498257154e-06
-7.386884298e-10
8.964119886e-11
9.49807875e-06
2.897983858e-10
-2.791039858e-11
9.498025764e-06
8.393468767e-11
-7.477122857e-12
9.49800192e-06
6.07157966e-11
-6.959578278e-12
9.497984511e-06
4.527442886e-11
-6.618634935e-12
9.497976428e-06
2.93416018e-11
-3.852275009e-12
9.497976372e-06
2.071801101e-11
-2.149877153e-12
9.497974506e-06
1.305993268e-11
-1.910489789e-12
9.497975378e-06
9.47347313e-12
-1.219264823e-12
9.497976818e-06
7.388542528e-12
-1.895389209e-12
9.497975768e-06
5.668589516e-12
-1.068437234e-12
9.497979233e-06
5.534005499e-12
1.612590196e-12
9.497981721e-06
5.130960751e-12
1.560042102e-12
9.497979699e-06
4.218746144e-12
-2.806512098e-13
5.341392677e-12
-1.021081508e-12
9.498746668e-06
-2.041784578e-09
2.837267364e-10
9.498130224e-06
1.125312943e-09
-1.087756129e-10
9.497940568e-06
3.494638385e-10
-3.802572878e-11
9.497895145e-06
1.649387658e-10
-3.119870319e-11
9.49789343e-06
9.187887424e-11
-1.997199462e-11
9.497905424e-06
4.479105843e-11
-1.225525771e-11
9.497917568e-06
2.317260938e-11
-7.89912803e-12
9.49793106e-06
1.38689954e-11
-4.317576172e-12
9.497939664e-06
6.340212619e-12
-3.678235427e-12
9.497947225e-06
3.434135567e-12
-2.187167686e-12
9.497951761e-06
2.957387827e-12
-2.208676127e-12
9.497956708e-06
3.364504924e-12
-1.053426707e-12
9.497961237e-06
3.952887864e-12
6.909037207e-13
9.497964954e-06
5.779578311e-12
-1.167507458e-13
3.941337481e-12
3.080543747e-13
9.498991956e-06
4.359547366e-10
9.49761849e-06
3.330373263e-09
-4.180952708e-10
9.497662924e-06
2.767671102e-10
1.537562008e-11
9.49776299e-06
1.167541568e-10
-2.465246094e-11
9.497829392e-06
7.552763543e-11
-2.45767231e-11
9.497870347e-06
3.109822339e-11
-1.387906605e-11
9.497899288e-06
1.364639571e-11
-7.940547186e-12
9.497914541e-06
4.049111492e-12
-5.51402238e-12
9.497927786e-06
1.867782834e-12
-3.252973455e-12
9.497936585e-06
-3.202176516e-14
-2.024200854e-12
9.497940527e-06
4.26359877e-13
-1.915522669e-12
9.497945555e-06
2.564702958e-13
-1.113231802e-12
9.497948346e-06
1.069420722e-12
-2.587976562e-13
9.497954086e-06
1.525349375e-12
-1.864202493e-12
2.518261001e-12
-9.659150269e-13
9.519006981e-06
-3.329754278e-09
-3.330836827e-09
9.520127454e-06
-2.765662774e-10
-2.767229076e-10
9.52060857e-06
-1.174197644e-10
-1.170765011e-10
9.520929563e-06
-7.631641117e-11
-7.67001849e-11
9.521061673e-06
-3.105651955e-11
-3.09243781e-11
9.521123638e-06
-1.265730942e-11
-1.313841129e-11
9.521157802e-06
-3.515952693e-12
-5.017361558e-12
9.52118078e-06
-1.14263833e-12
-2.284643467e-12
9.52119964e-06
-5.243181263e-14
-3.976753117e-14
9.521214127e-06
-1.514988556e-12
-1.268167259e-12
9.521229523e-06
-3.401327874e-13
-3.383645562e-13
9.521241927e-06
-1.699326773e-12
-7.161402333e-13
9.521262731e-06
-9.087772489e-13
-3.113250483e-13
1.399130858e-13
-7.088879539e-13
9.4976128e-06
-1.124618469e-09
-4.183403577e-10
9.497656648e-06
-3.497989336e-10
1.523200945e-11
9.497757797e-06
-1.65276712e-10
-2.295327598e-11
9.49782396e-06
-9.270160975e-11
-2.332294184e-11
9.497867736e-06
-4.630226233e-11
-1.409448344e-11
9.497894866e-06
-2.31495492e-11
-9.210090462e-12
9.497911839e-06
-1.211341477e-11
-4.880266264e-12
9.497922676e-06
-7.182263083e-12
-2.44361423e-12
9.497931855e-06
-2.456032202e-12
-5.532189258e-13
9.497937915e-06
-2.467945797e-12
-8.251045293e-13
9.497941559e-06
-2.520992671e-12
-9.555377709e-13
9.49794657e-06
-4.574661659e-12
-1.37164433e-12
9.4979529e-06
-5.801385281e-12
-2.402560874e-12
-5.847542978e-12
-2.374724539e-12
9.498104074e-06
-2.906996975e-10
-1.099184983e-10
9.497913268e-06
-8.672682401e-11
-3.890804974e-11
9.497868414e-06
-6.152218373e-11
-3.036932169e-11
9.497867992e-06
-4.768331211e-11
-2.167935413e-11
9.497879497e-06
-3.10513899e-11
-1.269078306e-11
9.497893131e-06
-2.23281458e-11
-7.964927164e-12
9.497903337e-06
-1.558870291e-11
-6.045518361e-12
9.49791344e-06
-9.27327044e-12
-2.203343157e-12
9.497919823e-06
-6.92444852e-12
-2.562069685e-12
9.497927979e-06
-3.53355111e-12
-5.936310086e-13
9.497930369e-06
-3.585627841e-12
-1.164096997e-12
9.497938078e-06
-2.397472007e-12
-8.149589688e-13
9.497942331e-06
-5.427351698e-12
-1.610407098e-12
-4.922692842e-12
-1.654758759e-12
9.498035957e-06
-5.457165699e-11
-2.696294583e-11
9.497985629e-06
-1.808054672e-11
-5.609119772e-12
9.497959419e-06
-2.259439592e-11
-6.097926448e-12
9.4979457e-06
-2.023018535e-11
-6.07066249e-12
9.497937294e-06
-1.44917481e-11
-5.437967938e-12
9.497934737e-06
-9.643066164e-12
-2.695315302e-12
9.497933755e-06
-7.219658111e-12
-1.822786556e-12
9.497932579e-06
-4.977521379e-12
-1.358153277e-12
9.497932725e-06
-4.467245865e-12
-1.483880796e-12
9.497931838e-06
-3.841004102e-12
-1.87848556e-12
9.497933377e-06
-2.216877269e-12
-3.284324352e-13
9.497935074e-06
-9.68606534e-13
-1.306264257e-12
9.497939023e-06
-2.618328465e-12
-1.56664972e-12
-2.77848208e-12
-1.403392442e-12
9.497974213e-06
-1.973867479e-12
9.497958424e-06
-2.014362841e-13
9.497943224e-06
-1.112552176e-12
9.497934143e-06
-2.030842357e-12
9.497926602e-06
-2.519903191e-12
9.497919714e-06
-1.899469974e-12
9.497915967e-06
-9.45299979e-13
9.497910975e-06
-1.659724602e-12
9.497907718e-06
-7.013649891e-13
9.497907257e-06
-1.908361927e-12
9.497903873e-06
-1.737740092e-12
9.497902884e-06
-1.646192268e-12
9.497904048e-06
-7.62070412e-13
-1.121322918e-12
9.498001834e-06
-9.305909968e-11
4.853695353e-11
9.497980777e-06