/*--------------------------------*- C++ -*----------------------------------*\
| =========                 |                                                 |
| \\      /  F ield         | OpenFOAM: The Open Source CFD Toolbox           |
|  \\    /   O peration     | Version:  4.x                                   |
|   \\  /    A nd           | Web:      www.OpenFOAM.org                      |
|    \\/     M anipulation  |                                                 |
\*---------------------------------------------------------------------------*/
FoamFile
{
    version     2.0;
    format      ascii;
    class       volScalarField;
    location    "10000";
    object      rho;
}
// * * * * * * * * * * * * * * * * * * * * * * * * * * * * * * * * * * * * * //

dimensions      [1 -3 0 0 0 0 0];

internalField   nonuniform List<scalar> 
1174
(
0.2797544305
0.2797545856
0.2797548246
0.2797551483
0.2797555647
0.2797560209
0.2797565275
0.2797570695
0.2797576711
0.2797582838
0.2797588664
0.2797594628
0.2797600002
0.2797604444
0.2797560253
0.2797562859
0.279756696
0.2797571463
0.2797576789
0.2797582785
0.2797588966
0.2797594923
0.2797601292
0.2797607833
0.2797614
0.2797619402
0.2797624542
0.2797628482
0.2797554388
0.2797559457
0.2797565258
0.2797572517
0.279758057
0.279758854
0.2797596051
0.2797603527
0.2797610268
0.2797616509
0.2797622105
0.2797627262
0.2797632031
0.2797635499
0.2797559519
0.2797567547
0.2797576634
0.2797586373
0.2797596177
0.2797605037
0.2797613897
0.2797621484
0.279762804
0.2797633887
0.2797638825
0.2797642873
0.2797646559
0.2797649007
0.2797553488
0.279756331
0.2797573609
0.2797584275
0.2797594156
0.2797603588
0.279761217
0.2797619343
0.2797626642
0.2797632264
0.2797637151
0.2797641338
0.2797644902
0.2797647108
0.2797553594
0.2797561456
0.2797570619
0.2797580217
0.2797589979
0.2797599481
0.2797607824
0.2797615879
0.2797622589
0.2797628241
0.2797633155
0.2797637301
0.2797640955
0.2797643262
0.2797552132
0.2797557155
0.2797563581
0.2797570826
0.2797578477
0.2797586313
0.279759388
0.2797601292
0.279760836
0.2797614335
0.2797619852
0.2797625237
0.2797629895
0.2797633007
0.2797539677
0.2797542347
0.2797546592
0.2797551645
0.2797557322
0.2797563332
0.2797569936
0.2797576036
0.279758198
0.2797588462
0.2797594892
0.2797600157
0.2797605544
0.2797609624
0.2797537618
0.2797539128
0.2797541731
0.2797545076
0.2797549209
0.2797554059
0.2797559321
0.2797564978
0.2797570879
0.2797576692
0.2797582719
0.2797588431
0.2797593544
0.2797597842
0.2797551156
0.2797553141
0.2797556381
0.2797560373
0.2797564803
0.2797570172
0.2797576344
0.2797582336
0.2797588693
0.2797594791
0.2797601259
0.2797607297
0.2797612832
0.2797617826
0.2797622026
0.2797547296
0.2797551993
0.2797557797
0.2797565472
0.2797572684
0.2797579981
0.2797587185
0.2797594414
0.2797600917
0.2797606727
0.2797612373
0.2797616893
0.2797621014
0.2797623832
0.279753984
0.2797549452
0.2797560131
0.2797571215
0.2797581017
0.2797589998
0.279759799
0.2797604575
0.2797610324
0.2797615341
0.2797619716
0.2797623506
0.2797626229
0.2797628252
0.2797580049
0.2797596795
0.2797611985
0.2797625613
0.2797636832
0.2797645769
0.2797652857
0.2797658308
0.2797662395
0.2797665237
0.2797667171
0.2797668357
0.2797669467
0.2797670115
0.2797585977
0.2797606214
0.2797622593
0.2797636073
0.2797646099
0.2797653311
0.2797658397
0.2797662311
0.2797664396
0.2797665608
0.2797666268
0.2797666974
0.2797667066
0.2797666719
0.2797592039
0.2797608253
0.2797624099
0.2797637248
0.2797648579
0.2797657565
0.2797664427
0.2797669522
0.2797673526
0.2797676411
0.2797678874
0.2797680301
0.2797680934
0.2797681035
0.2797541978
0.2797551894
0.2797562248
0.279757308
0.2797583416
0.2797592368
0.2797599913
0.2797606955
0.2797612329
0.2797617226
0.2797620937
0.2797624498
0.2797627109
0.2797629072
0.2797563812
0.2797568606
0.2797574777
0.2797581893
0.2797588951
0.2797596269
0.2797603831
0.279761071
0.2797617017
0.2797623222
0.2797628915
0.279763372
0.2797638043
0.279764161
0.2797532607
0.2797535346
0.2797538896
0.2797543559
0.2797549409
0.2797555683
0.2797561682
0.2797568005
0.2797573942
0.2797579872
0.2797585767
0.2797591524
0.2797596629
0.2797600945
0.2797546885
0.2797550537
0.2797555782
0.2797562257
0.279756953
0.2797577002
0.2797584754
0.2797592461
0.2797599977
0.2797606462
0.2797612909
0.2797618882
0.2797624005
0.2797628444
0.2797631613
0.2797569015
0.2797576905
0.2797586578
0.279759722
0.2797607758
0.2797617628
0.2797626794
0.2797634777
0.2797641544
0.2797647456
0.2797652282
0.2797656036
0.2797659391
0.2797662276
0.2797664458
0.2797596358
0.279761698
0.2797635895
0.2797651262
0.2797662812
0.2797671202
0.279767673
0.2797680298
0.2797682493
0.2797683226
0.2797682999
0.279768244
0.2797681886
0.2797681403
0.2797650407
0.2797685938
0.2797710763
0.2797724688
0.2797731841
0.2797733321
0.2797731457
0.2797727857
0.2797723148
0.2797718047
0.27977127
0.2797708045
0.2797703499
0.2797699856
0.2797749204
0.2797784928
0.2797800317
0.2797802974
0.2797798688
0.2797790854
0.2797781394
0.279777197
0.2797762125
0.2797753271
0.2797745046
0.2797737538
0.279773154
0.2797727138
0.2797660265
0.2797695619
0.279772063
0.2797734832
0.2797741754
0.2797743362
0.2797741361
0.2797737231
0.2797732408
0.2797727016
0.279772184
0.2797717195
0.2797712357
0.2797708723
0.2797590832
0.2797611822
0.2797630907
0.2797646593
0.2797658548
0.2797667199
0.2797672889
0.2797676493
0.2797677804
0.2797678887
0.2797678767
0.2797678198
0.2797677627
0.2797676709
0.2797546852
0.2797556603
0.2797567405
0.2797577877
0.279758778
0.2797596987
0.279760489
0.2797611873
0.2797617249
0.2797622577
0.2797626699
0.2797630349
0.2797632715
0.2797634279
0.279756671
0.2797571406
0.2797577887
0.2797585216
0.2797592868
0.2797601065
0.2797608616
0.2797615691
0.2797622683
0.2797628807
0.2797634508
0.2797639794
0.2797644432
0.2797647987
0.2797545715
0.2797551656
0.2797559311
0.2797568359
0.2797578071
0.2797587909
0.279759721
0.2797605597
0.2797613117
0.2797619974
0.2797626159
0.2797630937
0.2797635813
0.2797639067
0.2797642006
0.2797547802
0.2797562765
0.2797579446
0.2797595038
0.2797609026
0.279762053
0.2797629415
0.2797636432
0.2797641229
0.2797645331
0.279764779
0.2797649912
0.2797651147
0.2797652373
0.2797652624
0.2797615403
0.2797658342
0.2797693748
0.2797718062
0.2797732442
0.2797739292
0.2797740945
0.2797739078
0.2797735341
0.2797730789
0.2797725499
0.2797720078
0.2797714895
0.2797710482
0.2797707217
0.2797864739
0.2797909286
0.2797916689
0.2797903882
0.2797882412
0.2797858146
0.2797834268
0.2797811726
0.2797792681
0.2797775196
0.279776035
0.2797747136
0.2797736297
0.2797728276
0.2798288821
0.2798232444
0.2798146135
0.2798063267
0.2797993051
0.2797935571
0.2797889184
0.2797851922
0.2797821494
0.2797796322
0.2797775843
0.2797758702
0.2797744609
0.2797734321
0.2797881026
0.2797925683
0.2797933422
0.2797920516
0.2797898851
0.2797874161
0.2797849839
0.2797827486
0.279780794
0.2797790678
0.2797775629
0.279776223
0.2797751529
0.2797743363
0.2797651924
0.2797687255
0.2797711758
0.2797726393
0.2797733156
0.2797734835
0.2797732908
0.2797728935
0.2797724047
0.2797718871
0.2797713667
0.2797708664
0.2797704048
0.2797700789
0.2797597414
0.279761404
0.2797629815
0.27976436
0.279765466
0.2797663472
0.2797670541
0.2797675804
0.2797679807
0.27976831
0.2797684852
0.2797686224
0.2797687034
0.2797687341
0.2797563041
0.2797571245
0.2797580316
0.2797589814
0.2797599407
0.2797608641
0.2797616984
0.2797624621
0.2797631205
0.279763717
0.2797642541
0.2797646849
0.2797650233
0.2797653338
0.2797548025
0.2797555559
0.2797564779
0.2797575078
0.2797585251
0.2797595215
0.2797604589
0.2797613004
0.2797620065
0.279762632
0.2797632351
0.2797636618
0.279764083
0.279764439
0.2797646775
0.2797580311
0.2797601424
0.2797621672
0.2797638543
0.2797652012
0.2797662661
0.2797669723
0.2797675384
0.2797679233
0.2797681688
0.2797683151
0.2797683534
0.279768407
0.2797684098
0.2797683946
0.2797675777
0.2797738701
0.279777379
0.2797789241
0.2797791981
0.2797787819
0.2797780061
0.2797770422
0.2797760944
0.2797751472
0.2797742224
0.2797733802
0.2797726468
0.2797720027
0.2797715308
0.2798221326
0.2798297703
0.2798241644
0.2798155268
0.2798072528
0.2798002208
0.2797944755
0.2797899014
0.2797861985
0.2797831716
0.2797806808
0.2797785756
0.2797768567
0.2797754236
0.279774433
0.2806975468
0.2806033348
0.2805513314
0.2805210471
0.28050241
0.2804903149
0.2804821208
0.280476346
0.2804721636
0.2804690484
0.280466574
0.2804647128
0.2804633054
0.2804624051
0.2798296343
0.2798240242
0.2798154049
0.2798071526
0.2798001291
0.2797943594
0.2797897507
0.2797860364
0.2797830111
0.2797805477
0.279778441
0.2797767561
0.2797753575
0.2797743569
0.2797731936
0.2797766957
0.2797782106
0.279778481
0.2797780305
0.2797772723
0.2797762989
0.2797752759
0.2797743198
0.2797733901
0.2797726554
0.2797718897
0.2797712617
0.2797707496
0.2797590597
0.2797610089
0.2797627042
0.2797640466
0.279765044
0.2797658143
0.2797663208
0.2797667123
0.2797669263
0.279767018
0.2797670663
0.2797670596
0.2797670725
0.2797670815
0.2797545682
0.2797554859
0.2797564983
0.2797575405
0.2797585877
0.2797595695
0.2797604299
0.2797611873
0.2797618708
0.279762437
0.279762893
0.2797632779
0.2797635611
0.279763818
0.2797547703
0.2797554146
0.2797561839
0.2797570776
0.2797580371
0.2797590223
0.2797599533
0.2797607893
0.2797615456
0.2797622066
0.2797627885
0.2797632887
0.2797637344
0.2797640939
0.2797644398
0.2797563847
0.2797578615
0.2797595173
0.2797610871
0.2797624422
0.2797635401
0.2797643881
0.2797651216
0.2797656535
0.2797660781
0.2797664044
0.2797665931
0.2797667491
0.2797668651
0.2797669281
0.2797603873
0.2797646936
0.2797682234
0.2797706834
0.2797721154
0.2797727579
0.2797729164
0.279772746
0.2797723508
0.2797718761
0.2797713802
0.2797708959
0.2797703514
0.2797698713
0.2797695062
0.2797780764
0.2797880707
0.2797925923
0.2797933008
0.279792043
0.2797898613
0.2797873468
0.2797849155
0.2797826963
0.2797807205
0.2797789797
0.2797774562
0.2797762397
0.2797751535
0.2797743446
0.2798219021
0.2798295819
0.2798239737
0.279815347
0.2798070712
0.2798000371
0.2797943021
0.2797896789
0.2797859268
0.2797828375
0.2797803029
0.2797782412
0.2797765397
0.2797751352
0.2797741466
0.2797767698
0.2797867922
0.2797912729
0.2797920057
0.2797907316
0.2797885451
0.2797861076
0.2797836813
0.2797814511
0.2797794299
0.2797777422
0.2797762069
0.2797749109
0.2797738247
0.2797729777
0.2797658641
0.2797694241
0.2797719059
0.2797733367
0.2797740167
0.2797741839
0.2797740164
0.279773593
0.2797731105
0.2797725984
0.2797720975
0.2797715904
0.2797711469
0.2797707636
0.279757032
0.2797587153
0.2797602404
0.2797615759
0.2797627027
0.2797635917
0.2797642555
0.2797647487
0.279765123
0.2797653981
0.2797655974
0.2797656969
0.2797657817
0.2797658044
0.2797554484
0.2797562477
0.279757193
0.2797581394
0.2797590917
0.279760028
0.2797608157
0.2797615652
0.2797622277
0.2797628332
0.2797633156
0.2797637565
0.2797641491
0.2797644003
0.2797551243
0.279755487
0.2797559876
0.2797565968
0.2797572766
0.2797580471
0.279758805
0.2797596118
0.2797603276
0.2797610089
0.2797616482
0.2797621978
0.2797627019
0.2797631447
0.2797634568
0.2797536682
0.2797545031
0.2797554985
0.2797565894
0.2797576743
0.2797587174
0.27975964
0.2797604711
0.2797611672
0.2797617204
0.2797621842
0.2797626083
0.2797629501
0.2797632407
0.2797634641
0.2797567341
0.2797587475
0.2797608449
0.2797627545
0.2797643324
0.2797655361
0.279766381
0.2797669789
0.2797673048
0.279767487
0.2797675815
0.2797675602
0.2797675319
0.2797674607
0.2797673604
0.2797608047
0.2797650886
0.2797685963
0.2797710397
0.2797724959
0.279773194
0.2797733594
0.2797732117
0.2797728252
0.2797723566
0.2797718507
0.2797713799
0.2797708456
0.2797703773
0.2797700292
0.2797673394
0.2797736319
0.2797771057
0.2797786718
0.2797789769
0.2797785387
0.27977769
0.2797767498
0.2797758126
0.2797749012
0.2797740117
0.2797731852
0.279772447
0.27977184
0.2797713471
0.2797600315
0.279764336
0.2797679001
0.279770352
0.279771746
0.2797724169
0.2797725558
0.2797723131
0.2797719837
0.2797714566
0.2797709393
0.279770406
0.279769923
0.2797695113
0.279769139
0.2797561289
0.2797581041
0.2797602065
0.2797620794
0.2797636393
0.279764869
0.2797657239
0.2797663291
0.2797667209
0.2797669152
0.2797669969
0.2797670595
0.2797670558
0.2797670085
0.2797669652
0.2797569768
0.2797579789
0.2797590414
0.2797600818
0.2797610955
0.2797619856
0.279762791
0.2797634653
0.2797640354
0.2797645184
0.279764966
0.2797652897
0.279765588
0.2797657807
0.2797560685
0.2797565399
0.2797571935
0.2797579419
0.2797587043
0.2797594584
0.279760245
0.2797610074
0.2797617159
0.2797623535
0.2797629122
0.2797634282
0.2797638694
0.2797641955
0.279754583
0.2797547567
0.2797550476
0.279755453
0.2797559245
0.2797564638
0.2797570938
0.2797577122
0.2797583401
0.2797589883
0.2797595761
0.2797602219
0.2797607926
0.2797612848
0.279761714
0.2797554599
0.2797558172
0.2797563532
0.2797569431
0.2797576164
0.2797583917
0.2797591513
0.2797598282
0.2797604675
0.2797611435
0.2797617232
0.2797622477
0.2797627797
0.2797632307
0.2797635608
0.2797546999
0.2797554953
0.2797564856
0.2797575699
0.2797586498
0.2797596708
0.279760593
0.2797613766
0.2797620524
0.2797626226
0.2797631109
0.2797635454
0.2797638598
0.2797641027
0.2797643637
0.2797564421
0.2797579776
0.2797596561
0.2797612371
0.2797625832
0.2797637076
0.2797646032
0.2797652749
0.2797657847
0.2797661734
0.2797664039
0.2797666046
0.2797667154
0.2797667691
0.2797668047
0.2797570066
0.2797590768
0.279761085
0.2797627527
0.2797640696
0.2797651138
0.2797658883
0.2797663837
0.2797667212
0.2797669602
0.279767085
0.279767208
0.2797672105
0.2797672507
0.2797672075
0.2797569773
0.279758541
0.2797601875
0.2797617405
0.2797631254
0.279764232
0.2797651382
0.2797658529
0.2797664149
0.2797668236
0.2797671245
0.2797673244
0.2797674698
0.2797675848
0.2797676689
0.2797554166
0.2797561816
0.2797571968
0.2797582502
0.2797593382
0.2797603353
0.2797612704
0.2797620429
0.2797627085
0.2797633044
0.2797637667
0.2797641778
0.2797645105
0.2797648045
0.2797649611
0.2797552613
0.2797556594
0.2797561805
0.2797567802
0.2797575284
0.2797582481
0.2797589757
0.2797596989
0.2797604038
0.2797610747
0.2797616842
0.2797622388
0.2797627044
0.2797630826
0.2797634114
0.279754116
0.2797543985
0.2797547675
0.2797552223
0.2797557375
0.279756351
0.279756938
0.2797575895
0.2797582335
0.2797589047
0.2797594926
0.2797600857
0.2797605854
0.2797609821
0.2797540621
0.2797541468
0.2797542897
0.2797545467
0.279754848
0.2797553131
0.2797557555
0.2797562976
0.2797568771
0.2797574717
0.2797580683
0.2797587003
0.2797592464
0.2797597728
0.2797602057
0.2797548683
0.2797551032
0.2797553808
0.2797557712
0.2797562783
0.2797568199
0.2797574062
0.2797580262
0.2797586844
0.2797593443
0.2797599834
0.2797605733
0.2797611045
0.279761627
0.2797620522
0.2797539245
0.2797542769
0.2797547868
0.2797554322
0.2797561356
0.2797568884
0.2797576701
0.2797584309
0.2797592204
0.279759891
0.2797605353
0.2797610926
0.2797616172
0.2797620746
0.2797623999
0.2797570493
0.2797576598
0.279758452
0.2797593681
0.2797603439
0.2797613198
0.2797622185
0.2797630804
0.2797638225
0.2797645148
0.2797651331
0.2797656202
0.2797660557
0.2797664622
0.2797667199
0.2797559762
0.2797567521
0.2797576882
0.2797587222
0.2797597849
0.2797607748
0.2797617155
0.2797625811
0.279763361
0.2797640228
0.2797646007
0.2797650591
0.2797654565
0.2797657836
0.2797659931
0.2797550125
0.2797556084
0.2797563893
0.2797573312
0.2797583212
0.2797592926
0.2797602007
0.2797610411
0.2797618176
0.2797625094
0.2797630753
0.2797635724
0.2797640432
0.2797643697
0.2797646324
0.2797545401
0.2797548536
0.2797553743
0.2797560114
0.2797567453
0.2797574585
0.2797582265
0.2797590315
0.2797597697
0.2797604378
0.2797610891
0.2797616781
0.2797621901
0.2797626547
0.2797629708
0.2797548439
0.279755023
0.2797552744
0.2797556857
0.2797561563
0.2797567348
0.2797573166
0.2797579283
0.2797585434
0.2797591783
0.2797598154
0.2797603931
0.2797609649
0.2797614547
0.2797618546
0.2797547816
0.2797548968
0.2797550505
0.2797553251
0.2797556858
0.2797561027
0.2797565914
0.2797571286
0.2797576923
0.2797582865
0.2797588807
0.279759455
0.2797600508
0.2797605625
0.2797609659
)
;

boundaryField
{
    top
    {
        type            calculated;
        value           nonuniform List<scalar> 
127
(
0.2797547816
0.2797537618
0.2797532607
0.279756671
0.2797563041
0.2797545682
0.2797554484
0.2797560685
0.279754116
0.2797548968
0.2797539128
0.2797535346
0.2797571406
0.2797571245
0.2797554859
0.2797562477
0.2797565399
0.2797543985
0.2797550505
0.2797541731
0.2797538896
0.2797577887
0.2797580316
0.2797564983
0.279757193
0.2797571935
0.2797547675
0.2797553251
0.2797545076
0.2797543559
0.2797585216
0.2797589814
0.2797575405
0.2797581394
0.2797579419
0.2797552223
0.2797556858
0.2797549209
0.2797549409
0.2797592868
0.2797599407
0.2797585877
0.2797590917
0.2797587043
0.2797557375
0.2797561027
0.2797554059
0.2797555683
0.2797601065
0.2797608641
0.2797595695
0.279760028
0.2797594584
0.279756351
0.2797565914
0.2797559321
0.2797561682
0.2797608616
0.2797616984
0.2797604299
0.2797608157
0.279760245
0.279756938
0.2797571286
0.2797564978
0.2797568005
0.2797615691
0.2797624621
0.2797611873
0.2797615652
0.2797610074
0.2797575895
0.2797576923
0.2797570879
0.2797573942
0.2797622683
0.2797631205
0.2797618708
0.2797622277
0.2797617159
0.2797582335
0.2797582865
0.2797576692
0.2797579872
0.2797628807
0.279763717
0.279762437
0.2797628332
0.2797623535
0.2797589047
0.2797588807
0.2797582719
0.2797585767
0.2797634508
0.2797642541
0.279762893
0.2797633156
0.2797629122
0.2797594926
0.279759455
0.2797588431
0.2797591524
0.2797639794
0.2797646849
0.2797632779
0.2797637565
0.2797634282
0.2797600857
0.2797600508
0.2797593544
0.2797596629
0.2797644432
0.2797650233
0.2797635611
0.2797641491
0.2797638694
0.2797605854
0.2797605625
0.2797597842
0.2797600945
0.2797647987
0.2797653338
0.279763818
0.2797644003
0.2797641955
0.2797609821
0.2797609659
)
;
    }
    bottom
    {
        type            calculated;
        value           nonuniform List<scalar> 
134
(
0.2797551156
0.2797546885
0.2797545715
0.2797548025
0.2797547703
0.2797551243
0.279754583
0.2797540621
0.2797544305
0.2797553141
0.2797550537
0.2797551656
0.2797555559
0.2797554146
0.279755487
0.2797547567
0.2797541468
0.2797545856
0.2797556381
0.2797555782
0.2797559311
0.2797564779
0.2797561839
0.2797559876
0.2797550476
0.2797542897
0.2797548246
0.2797560373
0.2797562257
0.2797568359
0.2797575078
0.2797570776
0.2797565968
0.279755453
0.2797545467
0.2797551483
0.2797564803
0.279756953
0.2797578071
0.2797585251
0.2797580371
0.2797572766
0.2797559245
0.279754848
0.2797555647
0.2797570172
0.2797577002
0.2797587909
0.2797595215
0.2797590223
0.2797580471
0.2797564638
0.2797553131
0.2797560209
0.2797576344
0.2797584754
0.279759721
0.2797604589
0.2797599533
0.279758805
0.2797570938
0.2797557555
0.2797565275
0.2797582336
0.2797592461
0.2797605597
0.2797613004
0.2797607893
0.2797596118
0.2797577122
0.2797562976
0.2797570695
0.2797588693
0.2797599977
0.2797613117
0.2797620065
0.2797615456
0.2797603276
0.2797583401
0.2797568771
0.2797576711
0.2797594791
0.2797606462
0.2797619974
0.279762632
0.2797622066
0.2797610089
0.2797589883
0.2797574717
0.2797582838
0.2797601259
0.2797612909
0.2797626159
0.2797632351
0.2797627885
0.2797616482
0.2797595761
0.2797580683
0.2797588664
0.2797607297
0.2797618882
0.2797630937
0.2797636618
0.2797632887
0.2797621978
0.2797602219
0.2797587003
0.2797594628
0.2797612832
0.2797624005
0.2797635813
0.279764083
0.2797637344
0.2797627019
0.2797607926
0.2797592464
0.2797600002
0.2797617826
0.2797628444
0.2797639067
0.279764439
0.2797640939
0.2797631447
0.2797612848
0.2797597728
0.2797604444
0.2797622026
0.2797631613
0.2797642006
0.2797646775
0.2797644398
0.2797634568
0.279761714
0.2797602057
)
;
    }
    side-walls
    {
        type            calculated;
        value           nonuniform List<scalar> 
261
(
0.2797544305
0.2797560253
0.2797554388
0.2797559519
0.2797553488
0.2797553594
0.2797552132
0.2797539677
0.2797537618
0.2797545856
0.2797562859
0.2797559457
0.2797567547
0.279756331
0.2797561456
0.2797557155
0.2797542347
0.2797539128
0.2797548246
0.279756696
0.2797565258
0.2797576634
0.2797573609
0.2797570619
0.2797563581
0.2797546592
0.2797541731
0.2797551483
0.2797571463
0.2797572517
0.2797586373
0.2797584275
0.2797580217
0.2797570826
0.2797551645
0.2797545076
0.2797555647
0.2797576789
0.279758057
0.2797596177
0.2797594156
0.2797589979
0.2797578477
0.2797557322
0.2797549209
0.2797560209
0.2797582785
0.279758854
0.2797605037
0.2797603588
0.2797599481
0.2797586313
0.2797563332
0.2797554059
0.2797565275
0.2797588966
0.2797596051
0.2797613897
0.279761217
0.2797607824
0.279759388
0.2797569936
0.2797559321
0.2797570695
0.2797594923
0.2797603527
0.2797621484
0.2797619343
0.2797615879
0.2797601292
0.2797576036
0.2797564978
0.2797576711
0.2797601292
0.2797610268
0.279762804
0.2797626642
0.2797622589
0.279760836
0.279758198
0.2797570879
0.2797582838
0.2797607833
0.2797616509
0.2797633887
0.2797632264
0.2797628241
0.2797614335
0.2797588462
0.2797576692
0.2797588664
0.2797614
0.2797622105
0.2797638825
0.2797637151
0.2797633155
0.2797619852
0.2797594892
0.2797582719
0.2797594628
0.2797619402
0.2797627262
0.2797642873
0.2797641338
0.2797637301
0.2797625237
0.2797600157
0.2797588431
0.2797600002
0.2797624542
0.2797632031
0.2797646559
0.2797644902
0.2797640955
0.2797629895
0.2797605544
0.2797593544
0.2797604444
0.2797628482
0.2797635499
0.2797649007
0.2797647108
0.2797643262
0.2797633007
0.2797609624
0.2797597842
0.2797540621
0.2797548683
0.2797539245
0.2797570493
0.2797559762
0.2797550125
0.2797545401
0.2797548439
0.2797547816
0.2797541468
0.2797551032
0.2797542769
0.2797576598
0.2797567521
0.2797556084
0.2797548536
0.279755023
0.2797548968
0.2797542897
0.2797553808
0.2797547868
0.279758452
0.2797576882
0.2797563893
0.2797553743
0.2797552744
0.2797550505
0.2797545467
0.2797557712
0.2797554322
0.2797593681
0.2797587222
0.2797573312
0.2797560114
0.2797556857
0.2797553251
0.279754848
0.2797562783
0.2797561356
0.2797603439
0.2797597849
0.2797583212
0.2797567453
0.2797561563
0.2797556858
0.2797553131
0.2797568199
0.2797568884
0.2797613198
0.2797607748
0.2797592926
0.2797574585
0.2797567348
0.2797561027
0.2797557555
0.2797574062
0.2797576701
0.2797622185
0.2797617155
0.2797602007
0.2797582265
0.2797573166
0.2797565914
0.2797562976
0.2797580262
0.2797584309
0.2797630804
0.2797625811
0.2797610411
0.2797590315
0.2797579283
0.2797571286
0.2797568771
0.2797586844
0.2797592204
0.2797638225
0.279763361
0.2797618176
0.2797597697
0.2797585434
0.2797576923
0.2797574717
0.2797593443
0.279759891
0.2797645148
0.2797640228
0.2797625094
0.2797604378
0.2797591783
0.2797582865
0.2797580683
0.2797599834
0.2797605353
0.2797651331
0.2797646007
0.2797630753
0.2797610891
0.2797598154
0.2797588807
0.2797587003
0.2797605733
0.2797610926
0.2797656202
0.2797650591
0.2797635724
0.2797616781
0.2797603931
0.279759455
0.2797592464
0.2797611045
0.2797616172
0.2797660557
0.2797654565
0.2797640432
0.2797621901
0.2797609649
0.2797600508
0.2797597728
0.279761627
0.2797620746
0.2797664622
0.2797657836
0.2797643697
0.2797626547
0.2797614547
0.2797605625
0.2797602057
0.2797620522
0.2797623999
0.2797667199
0.2797659931
0.2797646324
0.2797629708
0.2797618546
0.2797609659
)
;
    }
    inlet
    {
        type            calculated;
        value           nonuniform 0();
    }
    outlet
    {
        type            calculated;
        value           nonuniform List<scalar> 
81
(
0.2797604444
0.2797628482
0.2797635499
0.2797649007
0.2797647108
0.2797643262
0.2797633007
0.2797609624
0.2797597842
0.2797622026
0.2797623832
0.2797628252
0.2797670115
0.2797666719
0.2797681035
0.2797629072
0.279764161
0.2797600945
0.2797631613
0.2797664458
0.2797681403
0.2797699856
0.2797727138
0.2797708723
0.2797676709
0.2797634279
0.2797647987
0.2797642006
0.2797652624
0.2797707217
0.2797728276
0.2797734321
0.2797743363
0.2797700789
0.2797687341
0.2797653338
0.2797646775
0.2797683946
0.2797715308
0.279774433
0.2804624051
0.2797743569
0.2797707496
0.2797670815
0.279763818
0.2797644398
0.2797669281
0.2797695062
0.2797743446
0.2797741466
0.2797729777
0.2797707636
0.2797658044
0.2797644003
0.2797634568
0.2797634641
0.2797673604
0.2797700292
0.2797713471
0.279769139
0.2797669652
0.2797657807
0.2797641955
0.279761714
0.2797635608
0.2797643637
0.2797668047
0.2797672075
0.2797676689
0.2797649611
0.2797634114
0.2797609821
0.2797602057
0.2797620522
0.2797623999
0.2797667199
0.2797659931
0.2797646324
0.2797629708
0.2797618546
0.2797609659
)
;
    }
    procBoundary1to0
    {
        type            processor;
        value           nonuniform List<scalar> 
97
(
0.2797542989
0.2797542989
0.279755826
0.2797550983
0.2797553371
0.2797545697
0.279754702
0.2797548479
0.2797537771
0.2797536727
0.2797549725
0.2797543394
0.2797543394
0.2797543394
0.2797531637
0.2797564896
0.2797564955
0.2797576552
0.2797533552
0.2797560633
0.279753024
0.2797544421
0.2797563765
0.2797576705
0.2797576705
0.2797576705
0.2797606561
0.2797686557
0.2797617161
0.2797570765
0.2797539618
0.2797562905
0.2797541992
0.279753658
0.2797575652
0.2797764648
0.2797764648
0.2797764648
0.2798212114
0.2797779992
0.2797609066
0.2797582531
0.27975563
0.2797542455
0.2797562883
0.2797592424
0.2797721815
0.2808783766
0.2808783766
0.2808783766
0.2798219493
0.2798219493
0.2797668979
0.2797569407
0.2797537707
0.2797543519
0.2797552611
0.2797563766
0.2797632559
0.2797719785
0.2797619243
0.2797615575
0.2797615575
0.2797615575
0.2797555116
0.2797548365
0.2797548973
0.2797531149
0.2797552139
0.2797568103
0.2797590294
0.279756071
0.2797546468
0.2797561466
0.2797561466
0.2797561466
0.2797556928
0.2797544465
0.279755207
0.2797541452
0.2797554017
0.279755209
0.2797558493
0.2797548947
0.2797550216
0.2797539141
0.2797539141
0.2797539141
0.2797540004
0.2797547456
0.2797536896
0.2797567013
0.2797554625
0.2797546222
0.2797543494
0.2797547263
0.2797546974
)
;
    }
}


// ************************************************************************* //
