/*--------------------------------*- C++ -*----------------------------------*\
| =========                 |                                                 |
| \\      /  F ield         | OpenFOAM: The Open Source CFD Toolbox           |
|  \\    /   O peration     | Version:  4.x                                   |
|   \\  /    A nd           | Web:      www.OpenFOAM.org                      |
|    \\/     M anipulation  |                                                 |
\*---------------------------------------------------------------------------*/
FoamFile
{
    version     2.0;
    format      ascii;
    class       volScalarField;
    location    "10000";
    object      T;
}
// * * * * * * * * * * * * * * * * * * * * * * * * * * * * * * * * * * * * * //

dimensions      [0 0 0 1 0 0 0];

internalField   nonuniform List<scalar> 
1174
(
1223.150641
1223.15075
1223.150818
1223.150856
1223.150813
1223.150881
1223.150959
1223.15105
1223.150984
1223.150915
1223.150967
1223.150888
1223.150895
1223.150805
1223.14441
1223.144536
1223.144429
1223.144528
1223.144578
1223.144559
1223.144596
1223.144786
1223.144785
1223.144644
1223.144558
1223.144658
1223.144645
1223.144648
1223.148616
1223.148641
1223.148879
1223.148857
1223.148696
1223.148625
1223.148689
1223.148616
1223.148658
1223.148682
1223.14874
1223.148732
1223.148603
1223.14855
1223.148782
1223.14876
1223.148792
1223.148764
1223.148687
1223.148827
1223.14866
1223.148688
1223.148784
1223.148818
1223.148898
1223.149042
1223.149023
1223.149105
1223.153142
1223.153021
1223.153072
1223.153021
1223.15314
1223.153132
1223.153093
1223.153235
1223.152892
1223.152872
1223.152801
1223.152698
1223.152548
1223.152585
1223.151373
1223.151423
1223.151422
1223.151455
1223.151397
1223.151256
1223.151315
1223.151138
1223.151167
1223.151286
1223.151377
1223.151478
1223.151473
1223.151616
1223.149602
1223.149647
1223.149612
1223.149597
1223.149611
1223.149598
1223.149638
1223.149593
1223.149492
1223.149632
1223.149724
1223.149617
1223.149536
1223.149639
1223.153406
1223.153504
1223.153334
1223.153193
1223.15309
1223.153064
1223.152916
1223.153044
1223.153228
1223.153112
1223.152911
1223.153071
1223.15295
1223.152892
1223.153564
1223.153692
1223.153667
1223.153657
1223.153628
1223.15357
1223.153562
1223.153549
1223.153534
1223.153602
1223.153566
1223.153597
1223.153718
1223.15369
1223.147533
1223.147519
1223.147368
1223.147309
1223.14744
1223.147471
1223.147376
1223.147495
1223.14751
1223.147627
1223.147518
1223.147488
1223.14753
1223.147582
1223.147471
1223.151751
1223.151925
1223.152104
1223.151793
1223.151845
1223.151884
1223.151883
1223.151724
1223.151693
1223.151754
1223.151672
1223.151858
1223.151958
1223.152163
1223.159236
1223.159371
1223.159417
1223.159266
1223.15938
1223.159407
1223.159367
1223.15945
1223.159446
1223.159366
1223.159227
1223.159054
1223.159082
1223.159074
1223.149179
1223.149082
1223.149311
1223.149356
1223.149403
1223.149422
1223.149345
1223.149235
1223.149124
1223.149094
1223.149108
1223.149184
1223.149095
1223.149047
1223.153698
1223.153552
1223.153762
1223.153716
1223.153769
1223.15387
1223.153957
1223.15383
1223.153953
1223.154053
1223.1541
1223.153919
1223.153869
1223.153951
1223.143936
1223.144072
1223.144015
1223.144268
1223.144267
1223.144264
1223.144286
1223.144331
1223.144257
1223.144208
1223.14399
1223.143961
1223.144081
1223.144271
1223.158301
1223.158303
1223.158492
1223.158451
1223.158331
1223.158371
1223.158526
1223.158409
1223.158569
1223.158541
1223.158692
1223.15862
1223.158696
1223.158714
1223.14453
1223.144662
1223.144681
1223.144613
1223.144733
1223.144762
1223.144605
1223.144599
1223.144652
1223.144542
1223.144438
1223.1445
1223.144512
1223.144389
1223.156498
1223.156565
1223.156699
1223.156728
1223.156549
1223.156409
1223.156525
1223.156555
1223.156742
1223.156868
1223.1569
1223.156845
1223.156848
1223.156686
1223.150286
1223.150299
1223.150248
1223.150192
1223.150163
1223.150255
1223.15028
1223.150258
1223.150168
1223.150322
1223.150256
1223.150149
1223.150156
1223.15017
1223.150249
1223.14298
1223.14303
1223.143138
1223.143202
1223.143289
1223.143373
1223.14332
1223.143284
1223.143286
1223.143211
1223.143215
1223.143347
1223.143365
1223.143322
1223.143244
1223.14703
1223.147185
1223.147223
1223.147316
1223.147452
1223.147492
1223.147569
1223.147569
1223.147485
1223.14756
1223.147732
1223.147843
1223.147841
1223.147807
1223.151266
1223.151252
1223.151107
1223.151342
1223.151186
1223.151201
1223.151212
1223.151127
1223.151087
1223.151045
1223.151106
1223.150968
1223.150987
1223.151071
1223.144643
1223.144491
1223.144404
1223.14441
1223.144377
1223.144329
1223.144322
1223.144139
1223.144259
1223.144206
1223.144204
1223.144249
1223.144054
1223.14387
1223.146955
1223.147018
1223.146792
1223.146906
1223.146851
1223.14681
1223.146881
1223.147028
1223.147037
1223.147122
1223.147109
1223.146966
1223.147113
1223.147193
1223.149445
1223.14944
1223.149403
1223.149357
1223.149316
1223.149241
1223.149247
1223.149231
1223.149533
1223.149456
1223.14958
1223.149696
1223.149701
1223.149858
1223.15617
1223.156244
1223.156237
1223.156353
1223.156423
1223.156351
1223.15635
1223.156258
1223.156417
1223.156201
1223.156172
1223.156061
1223.156245
1223.156437
1223.143228
1223.143416
1223.143358
1223.143305
1223.143318
1223.143148
1223.143195
1223.143297
1223.143229
1223.143304
1223.143315
1223.143251
1223.143179
1223.143088
1223.152128
1223.152219
1223.15236
1223.15241
1223.152393
1223.152302
1223.152249
1223.152289
1223.152345
1223.15231
1223.152197
1223.152347
1223.152129
1223.152298
1223.152166
1223.156635
1223.156735
1223.156667
1223.156721
1223.156607
1223.15653
1223.156571
1223.156526
1223.156701
1223.156584
1223.156721
1223.156653
1223.156707
1223.156568
1223.156694
1223.147641
1223.147796
1223.147836
1223.147915
1223.147951
1223.147928
1223.147868
1223.14788
1223.147855
1223.147746
1223.147787
1223.14788
1223.147973
1223.147934
1223.147853
1223.153273
1223.153411
1223.153452
1223.153465
1223.1533
1223.153161
1223.153062
1223.153215
1223.152896
1223.152963
1223.152876
1223.15299
1223.152969
1223.152996
1223.156105
1223.1563
1223.156336
1223.156385
1223.156324
1223.156353
1223.156381
1223.15631
1223.156304
1223.15639
1223.156311
1223.156299
1223.156311
1223.156386
1223.146149
1223.14624
1223.146135
1223.146192
1223.146112
1223.146158
1223.146253
1223.146324
1223.146223
1223.146193
1223.146195
1223.14639
1223.146308
1223.146399
1223.150602
1223.150675
1223.15067
1223.150595
1223.150609
1223.150537
1223.150576
1223.150654
1223.150691
1223.150682
1223.150681
1223.150695
1223.150745
1223.150661
1223.141586
1223.141541
1223.141515
1223.14149
1223.141607
1223.141681
1223.141612
1223.141584
1223.141509
1223.141282
1223.141375
1223.14137
1223.141412
1223.141513
1223.147242
1223.147143
1223.147182
1223.147259
1223.147274
1223.14725
1223.147309
1223.147315
1223.147399
1223.147381
1223.147272
1223.147302
1223.147415
1223.147209
1223.152119
1223.152237
1223.152379
1223.152429
1223.152594
1223.152676
1223.152694
1223.152728
1223.152919
1223.153031
1223.152833
1223.153033
1223.15292
1223.152771
1223.152731
1223.147002
1223.146944
1223.146793
1223.146788
1223.146746
1223.146528
1223.146694
1223.14653
1223.146431
1223.146392
1223.146383
1223.146551
1223.146444
1223.146422
1223.14642
1223.149297
1223.149234
1223.149359
1223.149245
1223.149215
1223.149128
1223.149046
1223.149118
1223.148959
1223.148916
1223.149035
1223.14912
1223.149089
1223.149087
1223.149042
1223.151986
1223.152219
1223.152277
1223.152342
1223.152336
1223.15232
1223.152337
1223.152083
1223.15191
1223.151835
1223.151806
1223.151978
1223.151986
1223.152102
1223.15201
1220.180109
1220.178137
1220.176326
1220.174565
1220.172946
1220.171466
1220.169895
1220.168249
1220.166449
1220.164596
1220.163194
1220.161523
1220.159838
1220.158229
1223.152817
1223.152889
1223.152873
1223.152771
1223.152718
1223.152842
1223.152739
1223.152616
1223.152534
1223.152386
1223.152564
1223.152424
1223.152389
1223.152341
1223.152193
1223.152347
1223.152363
1223.152349
1223.15241
1223.152252
1223.152365
1223.152535
1223.15253
1223.152671
1223.152287
1223.152397
1223.152324
1223.152455
1223.151679
1223.151857
1223.151816
1223.151793
1223.151869
1223.151755
1223.151851
1223.151723
1223.151823
1223.152052
1223.152176
1223.152332
1223.152266
1223.152158
1223.156555
1223.156716
1223.156843
1223.156898
1223.156758
1223.156582
1223.156533
1223.1565
1223.156358
1223.156322
1223.156393
1223.156438
1223.156607
1223.156486
1223.151259
1223.151131
1223.151255
1223.151353
1223.151388
1223.15129
1223.151232
1223.151285
1223.151322
1223.151395
1223.151441
1223.151494
1223.151459
1223.151479
1223.15112
1223.14962
1223.149805
1223.14979
1223.149798
1223.149876
1223.150028
1223.150246
1223.150062
1223.150009
1223.149828
1223.149614
1223.149649
1223.149561
1223.149451
1223.149411
1223.152681
1223.152781
1223.152869
1223.152823
1223.152885
1223.153047
1223.153017
1223.152958
1223.153026
1223.153002
1223.152899
1223.15274
1223.152947
1223.153078
1223.153166
1223.146044
1223.146285
1223.146133
1223.146314
1223.146228
1223.146215
1223.14646
1223.146551
1223.146552
1223.146543
1223.146577
1223.146661
1223.146317
1223.146306
1223.146362
1223.152992
1223.153041
1223.153107
1223.153124
1223.153126
1223.15312
1223.153092
1223.153053
1223.153095
1223.153292
1223.153455
1223.153437
1223.15337
1223.15336
1223.153261
1223.151757
1223.151875
1223.1519
1223.151975
1223.151959
1223.151967
1223.151876
1223.151945
1223.151994
1223.152183
1223.151985
1223.152121
1223.152124
1223.152113
1223.152337
1223.147665
1223.14762
1223.147477
1223.147544
1223.147542
1223.147473
1223.147402
1223.147593
1223.147603
1223.14757
1223.147484
1223.147528
1223.147499
1223.147666
1223.153432
1223.153297
1223.153499
1223.153662
1223.153688
1223.153727
1223.153847
1223.153963
1223.154002
1223.154012
1223.154
1223.154159
1223.154185
1223.15432
1223.150983
1223.150976
1223.150849
1223.15094
1223.150986
1223.150906
1223.151168
1223.151235
1223.151302
1223.151244
1223.151374
1223.15136
1223.151236
1223.15129
1223.14838
1223.148404
1223.148458
1223.148569
1223.148748
1223.148738
1223.148838
1223.148659
1223.148725
1223.148735
1223.148693
1223.148794
1223.148837
1223.148856
1223.148956
1223.157116
1223.156966
1223.156951
1223.156897
1223.156848
1223.156687
1223.156607
1223.156428
1223.156346
1223.156437
1223.156522
1223.156441
1223.156431
1223.15638
1223.156279
1223.150977
1223.150912
1223.150913
1223.150872
1223.150785
1223.150708
1223.150722
1223.150602
1223.150736
1223.150816
1223.150799
1223.150964
1223.150954
1223.151021
1223.151215
1223.150856
1223.151054
1223.151238
1223.151263
1223.15122
1223.151139
1223.151078
1223.150921
1223.150951
1223.1509
1223.150841
1223.150623
1223.150785
1223.150864
1223.150877
1223.150339
1223.150274
1223.150551
1223.150345
1223.15018
1223.150188
1223.150425
1223.150393
1223.150188
1223.149988
1223.149953
1223.149969
1223.14996
1223.149796
1223.149842
1223.154236
1223.154344
1223.154282
1223.15427
1223.154498
1223.154536
1223.15459
1223.154847
1223.154629
1223.154834
1223.154824
1223.154879
1223.154817
1223.15465
1223.154769
1223.153623
1223.153725
1223.153705
1223.153822
1223.153814
1223.153624
1223.153594
1223.153441
1223.153288
1223.153314
1223.153352
1223.153151
1223.153034
1223.152997
1223.152941
1223.146151
1223.146107
1223.146177
1223.146322
1223.146289
1223.146351
1223.146284
1223.146297
1223.146313
1223.146314
1223.146132
1223.146201
1223.146115
1223.146148
1223.145863
1223.146043
1223.14596
1223.14584
1223.145865
1223.145981
1223.14589
1223.145752
1223.145643
1223.145608
1223.145669
1223.14566
1223.145686
1223.145724
1223.149862
1223.149956
1223.149949
1223.149863
1223.14987
1223.14989
1223.149739
1223.149774
1223.149823
1223.149773
1223.14992
1223.149707
1223.149674
1223.149756
1223.149605
1223.146936
1223.146996
1223.14688
1223.147017
1223.147117
1223.146933
1223.146841
1223.147031
1223.147236
1223.147093
1223.14716
1223.147252
1223.147089
1223.147019
1223.147013
1223.152606
1223.152628
1223.152635
1223.15261
1223.152583
1223.152519
1223.152441
1223.152469
1223.152475
1223.152492
1223.15247
1223.152344
1223.152454
1223.15261
1223.152345
1223.149368
1223.149297
1223.149183
1223.149142
1223.149258
1223.149294
1223.149305
1223.14939
1223.149434
1223.14941
1223.149615
1223.149597
1223.149707
1223.149868
1223.149948
1223.151481
1223.151602
1223.151523
1223.151603
1223.151692
1223.151564
1223.151431
1223.151576
1223.151684
1223.151674
1223.151758
1223.151556
1223.151672
1223.151487
1223.151606
1223.147028
1223.146834
1223.146859
1223.14694
1223.146887
1223.147001
1223.146965
1223.146862
1223.146678
1223.146567
1223.146464
1223.146449
1223.146407
1223.146301
1223.146169
1223.149472
1223.149627
1223.149525
1223.149635
1223.149573
1223.149612
1223.149478
1223.149554
1223.149605
1223.14951
1223.149601
1223.149578
1223.149608
1223.149541
1223.149731
1223.147805
1223.147686
1223.147635
1223.147729
1223.147502
1223.14756
1223.147608
1223.147595
1223.147514
1223.147392
1223.14733
1223.14729
1223.147417
1223.147665
1223.147664
1223.152758
1223.152788
1223.152861
1223.15294
1223.153066
1223.152986
1223.153158
1223.153104
1223.153072
1223.152855
1223.152895
1223.152763
1223.152813
1223.152803
1223.151745
1223.151881
1223.152043
1223.152033
1223.152168
1223.151912
1223.152041
1223.151964
1223.151891
1223.151856
1223.151857
1223.151692
1223.151833
1223.151888
1223.151847
1223.148614
1223.148442
1223.148493
1223.148472
1223.148323
1223.148334
1223.148372
1223.1484
1223.148318
1223.148216
1223.14814
1223.148171
1223.14831
1223.14826
1223.148127
1223.153626
1223.153695
1223.153707
1223.15366
1223.153737
1223.153804
1223.1538
1223.153821
1223.153565
1223.153622
1223.153558
1223.153625
1223.153578
1223.153534
1223.153575
1223.141294
1223.141314
1223.141338
1223.141338
1223.141302
1223.141244
1223.141328
1223.141267
1223.141366
1223.141302
1223.141189
1223.141298
1223.141308
1223.141124
1223.141149
1223.146987
1223.147006
1223.147086
1223.147119
1223.147085
1223.147195
1223.147198
1223.147127
1223.146996
1223.146949
1223.146861
1223.146922
1223.146912
1223.14689
1223.146975
1223.1502
1223.150283
1223.150356
1223.150243
1223.150145
1223.150107
1223.150149
1223.150182
1223.150131
1223.15007
1223.150185
1223.150251
1223.150106
1223.150271
1223.150274
1223.150934
1223.151173
1223.151139
1223.151128
1223.151071
1223.151311
1223.151366
1223.151195
1223.151163
1223.151231
1223.151136
1223.151064
1223.151073
1223.150997
1223.151078
1223.148721
1223.148792
1223.148958
1223.148846
1223.148856
1223.148705
1223.148764
1223.148828
1223.148933
1223.148941
1223.148873
1223.148958
1223.148919
1223.149012
1223.148989
1223.148599
1223.148602
1223.148717
1223.14863
1223.148506
1223.14846
1223.148386
1223.14833
1223.148326
1223.148293
1223.148304
1223.148391
1223.148316
1223.148434
1223.148521
)
;

boundaryField
{
    top
    {
        type            zeroGradient;
    }
    bottom
    {
        type            zeroGradient;
    }
    side-walls
    {
        type            zeroGradient;
    }
    inlet
    {
        type            zeroGradient;
    }
    outlet
    {
        type            zeroGradient;
    }
    procBoundary1to0
    {
        type            processor;
        value           nonuniform List<scalar> 
97
(
1223.15071
1223.15071
1223.144428
1223.148494
1223.148781
1223.153137
1223.151558
1223.149589
1223.153385
1223.153448
1223.147655
1223.151835
1223.151835
1223.151835
1223.159322
1223.149161
1223.153715
1223.144064
1223.158484
1223.144298
1223.156678
1223.150374
1223.142955
1223.146883
1223.146883
1223.146883
1223.151505
1223.144581
1223.146869
1223.149479
1223.155833
1223.143281
1223.152024
1223.156675
1223.147599
1223.153091
1223.153091
1223.153091
1223.155986
1223.146375
1223.150409
1223.14145
1223.1475
1223.152241
1223.146909
1223.149182
1223.152879
1220.179238
1220.179238
1220.179238
1223.152761
1223.152761
1223.152266
1223.151769
1223.15663
1223.151356
1223.149666
1223.152796
1223.146045
1223.153768
1223.151867
1223.147565
1223.147565
1223.147565
1223.153437
1223.15097
1223.148384
1223.157215
1223.151086
1223.1509
1223.150114
1223.154132
1223.153566
1223.14628
1223.14628
1223.14628
1223.145895
1223.149955
1223.147038
1223.152711
1223.149051
1223.151627
1223.147094
1223.149433
1223.147849
1223.152787
1223.152787
1223.152787
1223.151724
1223.148647
1223.153664
1223.141084
1223.146921
1223.150174
1223.150779
1223.148731
1223.148677
)
;
    }
}


// ************************************************************************* //
