/*--------------------------------*- C++ -*----------------------------------*\
| =========                 |                                                 |
| \\      /  F ield         | OpenFOAM: The Open Source CFD Toolbox           |
|  \\    /   O peration     | Version:  4.x                                   |
|   \\  /    A nd           | Web:      www.OpenFOAM.org                      |
|    \\/     M anipulation  |                                                 |
\*---------------------------------------------------------------------------*/
FoamFile
{
    version     2.0;
    format      ascii;
    class       volScalarField;
    location    "10000";
    object      X_CO;
}
// * * * * * * * * * * * * * * * * * * * * * * * * * * * * * * * * * * * * * //

dimensions      [0 0 0 0 0 0 0];

internalField   nonuniform List<scalar> 
1174
(
0.3728725496
0.3728714196
0.3728698228
0.3728677385
0.3728651889
0.3728622301
0.372858941
0.3728554113
0.3728517321
0.372847989
0.3728442616
0.3728406341
0.3728372549
0.3728345988
0.3728714851
0.3728696699
0.372867251
0.3728642845
0.3728608724
0.3728571389
0.3728532104
0.3728492014
0.3728452086
0.3728413096
0.3728375653
0.3728340343
0.3728308291
0.3728283545
0.3728691303
0.3728659147
0.3728619342
0.3728574128
0.3728525942
0.372847697
0.3728428946
0.3728383101
0.3728340226
0.3728300741
0.372826483
0.3728232599
0.3728204558
0.3728183563
0.3728656737
0.3728606701
0.3728549239
0.3728488556
0.3728428167
0.3728370598
0.3728317418
0.372826945
0.3728226946
0.3728189797
0.3728157682
0.3728130233
0.3728107398
0.3728090877
0.3728632008
0.3728572135
0.372850681
0.3728440641
0.3728376968
0.3728317919
0.3728264655
0.3728217627
0.3728176792
0.3728141817
0.3728112198
0.3728087415
0.3728067225
0.3728052866
0.3728656737
0.37286067
0.3728549237
0.3728488558
0.3728428169
0.3728370597
0.3728317422
0.3728269452
0.3728226949
0.3728189802
0.3728157685
0.3728130235
0.3728107401
0.372809088
0.3728691303
0.3728659148
0.372861934
0.3728574128
0.3728525942
0.3728476972
0.3728428949
0.3728383105
0.3728340228
0.3728300745
0.3728264834
0.3728232603
0.3728204563
0.3728183569
0.3728714853
0.3728696701
0.3728672512
0.3728642845
0.3728608723
0.372857139
0.3728532102
0.3728492013
0.372845209
0.3728413101
0.3728375657
0.3728340349
0.3728308296
0.372828355
0.3728725498
0.3728714198
0.3728698228
0.3728677385
0.3728651889
0.3728622301
0.3728589409
0.3728554113
0.372851732
0.3728479892
0.3728442618
0.3728406344
0.3728372554
0.3728345993
0.3728727099
0.3728714852
0.3728696698
0.3728672509
0.3728642844
0.3728608723
0.372857139
0.3728532102
0.3728492012
0.3728452088
0.3728413097
0.3728375653
0.3728340344
0.3728308291
0.3728283544
0.3728690802
0.3728658851
0.3728619873
0.3728576208
0.3728530223
0.3728483902
0.3728438724
0.3728395677
0.3728355348
0.3728318024
0.3728283808
0.3728252792
0.3728225516
0.3728204908
0.3728630194
0.3728567971
0.3728500315
0.3728432964
0.3728369856
0.3728313137
0.3728263587
0.372822111
0.3728185113
0.3728154807
0.3728129367
0.3728108082
0.372809061
0.3728078052
0.372852227
0.372841862
0.3728320044
0.3728233937
0.3728162892
0.3728106572
0.3728063224
0.3728030625
0.3728006593
0.3727989212
0.3727976894
0.3727968375
0.3727962697
0.3727959328
0.3728420236
0.37282954
0.3728189648
0.3728105773
0.372804212
0.3727995448
0.3727962307
0.3727939599
0.3727924755
0.372791573
0.3727910932
0.3727909119
0.3727909269
0.3727910268
0.372852227
0.3728418623
0.3728320045
0.3728233942
0.3728162895
0.3728106576
0.3728063229
0.3728030631
0.37280066
0.3727989217
0.3727976896
0.3727968378
0.3727962702
0.3727959335
0.3728630194
0.3728567971
0.3728500316
0.3728432966
0.3728369858
0.3728313139
0.3728263592
0.3728221114
0.3728185121
0.3728154814
0.3728129375
0.372810809
0.3728090618
0.3728078059
0.3728690802
0.3728658849
0.3728619871
0.372857621
0.3728530225
0.3728483904
0.3728438726
0.3728395681
0.3728355355
0.3728318031
0.3728283816
0.37282528
0.3728225522
0.3728204913
0.372871485
0.3728696699
0.3728672512
0.3728642846
0.3728608724
0.3728571389
0.3728532103
0.3728492014
0.372845209
0.3728413102
0.372837566
0.372834035
0.3728308298
0.3728283552
0.3728714407
0.3728691304
0.3728659147
0.3728619341
0.3728574128
0.3728525944
0.3728476973
0.3728428948
0.3728383104
0.3728340229
0.3728300744
0.3728264832
0.3728232601
0.3728204561
0.3728183566
0.3728680408
0.3728630196
0.3728567971
0.3728500316
0.3728432967
0.3728369858
0.3728313138
0.372826359
0.3728221111
0.3728185116
0.3728154809
0.3728129371
0.3728108086
0.3728090613
0.3728078053
0.3728450804
0.3728319223
0.372820004
0.3728102311
0.3728027921
0.3727974731
0.3727938964
0.37279166
0.3727904042
0.3727898378
0.3727897357
0.3727899281
0.3727902793
0.3727906315
0.372805099
0.3727828314
0.3727674684
0.3727583975
0.3727541359
0.372753187
0.3727543419
0.3727567236
0.3727597372
0.3727629979
0.3727662654
0.372769385
0.3727722098
0.3727743751
0.3727526248
0.3727304356
0.3727209089
0.3727192349
0.3727219737
0.3727269584
0.3727329039
0.3727390787
0.3727450843
0.3727507156
0.3727558778
0.3727605242
0.3727645678
0.3727675939
0.3728051002
0.3727828323
0.3727674693
0.3727583984
0.3727541367
0.3727531878
0.3727543426
0.3727567245
0.3727597382
0.3727629989
0.3727662663
0.3727693858
0.3727722105
0.3727743758
0.3728450809
0.3728319228
0.3728200044
0.3728102317
0.3728027926
0.3727974737
0.3727938972
0.3727916607
0.3727904055
0.3727898389
0.3727897366
0.3727899292
0.3727902803
0.3727906328
0.3728630197
0.3728567972
0.3728500316
0.3728432968
0.3728369861
0.3728313141
0.3728263594
0.3728221117
0.3728185126
0.3728154819
0.3728129381
0.3728108094
0.3728090622
0.3728078064
0.3728691304
0.372865915
0.3728619343
0.3728574131
0.3728525945
0.3728476974
0.3728428952
0.372838311
0.3728340234
0.3728300751
0.3728264841
0.372823261
0.3728204571
0.3728183577
0.372869531
0.3728656737
0.3728606704
0.3728549241
0.3728488559
0.3728428171
0.3728370599
0.3728317423
0.3728269455
0.372822695
0.3728189799
0.3728157685
0.3728130235
0.3728107401
0.3728090877
0.3728617565
0.3728522273
0.3728418623
0.3728320047
0.3728233941
0.3728162895
0.3728106574
0.3728063226
0.3728030629
0.3728006597
0.3727989215
0.3727976896
0.3727968375
0.3727962698
0.3727959328
0.3728322562
0.3728050997
0.3727828319
0.372767469
0.3727583979
0.3727541362
0.3727531875
0.3727543421
0.3727567239
0.3727597375
0.3727629982
0.3727662657
0.3727693854
0.3727722098
0.372774375
0.3726677711
0.3726396292
0.3726349274
0.372642945
0.3726566516
0.3726720749
0.3726871979
0.3727011193
0.3727135275
0.3727243998
0.3727338373
0.3727419639
0.3727487946
0.3727537873
0.3723976713
0.3724327606
0.3724868552
0.3725387719
0.3725829093
0.372618927
0.3726479874
0.372671466
0.3726905628
0.3727062303
0.3727191904
0.3727299617
0.3727387866
0.3727451324
0.3726677739
0.3726396312
0.3726349289
0.3726429463
0.3726566528
0.3726720762
0.3726871991
0.3727011206
0.3727135286
0.3727244007
0.3727338383
0.3727419649
0.3727487956
0.3727537882
0.3728050998
0.3727828323
0.3727674697
0.3727583987
0.3727541375
0.3727531886
0.3727543435
0.3727567253
0.3727597389
0.3727629997
0.372766267
0.3727693865
0.3727722111
0.3727743762
0.3728522273
0.3728418626
0.372832005
0.3728233944
0.3728162901
0.3728106583
0.3728063236
0.3728030639
0.3728006608
0.3727989225
0.3727976907
0.3727968388
0.3727962711
0.3727959344
0.3728656737
0.3728606702
0.372854924
0.3728488561
0.3728428173
0.3728370604
0.3728317429
0.3728269461
0.372822696
0.3728189811
0.3728157695
0.3728130248
0.3728107414
0.372809089
0.3728680955
0.3728632011
0.3728572139
0.3728506814
0.3728440647
0.3728376973
0.3728317922
0.372826466
0.3728217632
0.3728176799
0.3728141821
0.3728112204
0.3728087419
0.3728067228
0.3728052866
0.3728551849
0.3728420243
0.3728295406
0.3728189653
0.3728105779
0.3728042124
0.3727995453
0.372796231
0.3727939603
0.3727924759
0.3727915733
0.3727910934
0.3727909122
0.3727909271
0.3727910268
0.3727920059
0.3727526253
0.3727304365
0.3727209098
0.3727192355
0.3727219743
0.3727269589
0.3727329044
0.3727390792
0.3727450845
0.3727507159
0.3727558782
0.3727605242
0.372764568
0.3727675941
0.3724459195
0.372397674
0.3724327623
0.3724868563
0.3725387726
0.3725829099
0.3726189274
0.3726479877
0.372671466
0.3726905628
0.37270623
0.3727191905
0.3727299616
0.3727387867
0.3727451323
0.3712326371
0.3718250572
0.3721531035
0.3723451572
0.3724641166
0.3725419366
0.3725954749
0.3726339824
0.3726627444
0.3726849053
0.3727024061
0.3727164588
0.3727276892
0.3727356384
0.3723976717
0.3724327635
0.3724868582
0.3725387745
0.3725829117
0.3726189292
0.3726479893
0.3726714676
0.3726905644
0.3727062313
0.3727191919
0.3727299628
0.3727387877
0.3727451334
0.3727526247
0.3727304367
0.3727209107
0.3727192368
0.3727219759
0.3727269604
0.372732906
0.3727390811
0.3727450863
0.3727507176
0.3727558796
0.3727605259
0.3727645694
0.3727675959
0.3728420235
0.3728295404
0.3728189652
0.3728105781
0.3728042132
0.3727995459
0.372796232
0.3727939613
0.3727924772
0.3727915747
0.3727910948
0.3727909137
0.3727909287
0.3727910285
0.3728632007
0.3728572137
0.3728506814
0.3728440647
0.3728376974
0.3728317927
0.3728264666
0.3728217639
0.3728176806
0.3728141831
0.3728112213
0.3728087433
0.3728067244
0.3728052882
0.372869531
0.3728656736
0.3728606703
0.3728549242
0.3728488561
0.3728428171
0.37283706
0.3728317426
0.3728269457
0.3728226955
0.3728189805
0.372815769
0.3728130241
0.3728107406
0.3728090882
0.3728617569
0.3728522277
0.3728418627
0.3728320051
0.3728233945
0.37281629
0.372810658
0.3728063231
0.3728030633
0.3728006601
0.3727989218
0.3727976899
0.372796838
0.3727962702
0.3727959334
0.3728322571
0.3728051005
0.3727828329
0.3727674701
0.3727583989
0.3727541375
0.3727531886
0.3727543432
0.3727567249
0.3727597386
0.3727629991
0.3727662663
0.372769386
0.3727722105
0.3727743759
0.3727308171
0.3726677762
0.372639633
0.3726349305
0.3726429474
0.3726566539
0.3726720771
0.3726871997
0.3727011209
0.372713529
0.3727244013
0.3727338388
0.372741965
0.3727487958
0.3727537884
0.3724459199
0.3723976746
0.3724327653
0.3724868594
0.3725387753
0.3725829124
0.3726189296
0.3726479896
0.3726714678
0.3726905647
0.3727062318
0.3727191921
0.3727299631
0.3727387879
0.3727451335
0.3727308161
0.3726677758
0.3726396336
0.3726349314
0.3726429486
0.3726566551
0.3726720783
0.3726872012
0.3727011222
0.3727135303
0.3727244022
0.3727338398
0.372741966
0.3727487967
0.3727537893
0.3728050993
0.3727828325
0.3727674703
0.3727583997
0.3727541383
0.3727531895
0.3727543444
0.3727567264
0.37275974
0.3727630007
0.3727662679
0.3727693874
0.372772212
0.3727743774
0.3728522269
0.3728418622
0.372832005
0.3728233948
0.3728162903
0.3728106585
0.3728063241
0.3728030644
0.3728006614
0.3727989233
0.3727976913
0.3727968396
0.3727962719
0.372795935
0.3728656737
0.3728606702
0.3728549239
0.372848856
0.3728428174
0.3728370604
0.3728317431
0.3728269465
0.3728226963
0.3728189814
0.3728157701
0.3728130254
0.372810742
0.3728090898
0.3728714407
0.3728691304
0.3728659149
0.3728619343
0.3728574132
0.3728525946
0.3728476976
0.3728428951
0.3728383109
0.3728340233
0.3728300747
0.3728264838
0.3728232607
0.3728204567
0.3728183573
0.3728680413
0.3728630199
0.3728567975
0.372850032
0.3728432971
0.3728369863
0.3728313143
0.3728263594
0.3728221117
0.3728185124
0.3728154819
0.3728129379
0.3728108095
0.3728090621
0.3728078062
0.372857618
0.3728450816
0.3728319234
0.3728200051
0.3728102324
0.3728027932
0.3727974744
0.3727938977
0.3727916614
0.3727904059
0.3727898393
0.3727897371
0.3727899295
0.3727902807
0.372790633
0.3728322573
0.3728051009
0.3727828336
0.3727674707
0.3727583998
0.3727541383
0.3727531894
0.372754344
0.3727567257
0.3727597394
0.3727630001
0.3727662672
0.3727693869
0.3727722115
0.3727743768
0.3727920062
0.3727526264
0.3727304384
0.3727209119
0.3727192377
0.3727219765
0.3727269612
0.3727329067
0.3727390814
0.3727450866
0.3727507178
0.37275588
0.3727605262
0.3727645696
0.3727675958
0.3728322573
0.372805101
0.3727828336
0.3727674709
0.3727584002
0.3727541388
0.3727531902
0.372754345
0.3727567264
0.3727597402
0.3727630009
0.3727662682
0.3727693877
0.3727722122
0.3727743776
0.3728576175
0.3728450812
0.3728319232
0.3728200053
0.3728102328
0.3728027938
0.3727974752
0.3727938987
0.3727916621
0.3727904069
0.3727898405
0.372789738
0.3727899305
0.3727902818
0.3727906341
0.3728630194
0.3728567972
0.3728500319
0.3728432973
0.3728369867
0.372831315
0.3728263603
0.3728221126
0.3728185134
0.3728154829
0.3728129388
0.3728108106
0.3728090632
0.3728078075
0.3728691302
0.3728659149
0.3728619342
0.3728574129
0.3728525948
0.372847698
0.3728428957
0.3728383116
0.372834024
0.3728300757
0.3728264848
0.3728232618
0.3728204581
0.3728183586
0.37287271
0.3728714855
0.3728696702
0.3728672514
0.3728642848
0.3728608727
0.3728571391
0.3728532106
0.3728492016
0.3728452091
0.3728413104
0.3728375661
0.3728340352
0.37283083
0.3728283553
0.3728714066
0.3728690805
0.3728658852
0.3728619875
0.3728576215
0.3728530228
0.3728483905
0.3728438729
0.3728395686
0.3728355357
0.3728318034
0.372828382
0.3728252803
0.3728225525
0.3728204917
0.3728680411
0.37286302
0.3728567977
0.3728500322
0.3728432971
0.3728369864
0.3728313145
0.3728263598
0.3728221122
0.3728185126
0.3728154821
0.3728129382
0.3728108098
0.3728090627
0.3728078066
0.3728617571
0.3728522277
0.3728418629
0.3728320053
0.3728233951
0.3728162905
0.3728106585
0.372806324
0.3728030643
0.3728006612
0.372798923
0.3727976911
0.3727968393
0.3727962717
0.3727959348
0.3728551849
0.3728420245
0.3728295411
0.372818966
0.3728105788
0.3728042136
0.3727995464
0.3727962325
0.372793962
0.3727924776
0.3727915751
0.372791095
0.3727909141
0.3727909288
0.3727910289
0.372861757
0.3728522277
0.372841863
0.3728320057
0.3728233954
0.3728162911
0.3728106592
0.3728063245
0.3728030647
0.3728006617
0.3727989236
0.3727976915
0.3727968397
0.3727962721
0.3727959351
0.3728680413
0.3728630201
0.3728567976
0.3728500322
0.3728432974
0.3728369868
0.3728313151
0.3728263605
0.3728221126
0.3728185134
0.3728154829
0.3728129389
0.3728108105
0.3728090631
0.3728078075
0.3728714067
0.3728690805
0.3728658854
0.3728619875
0.3728576215
0.3728530232
0.3728483912
0.3728438735
0.3728395691
0.3728355362
0.372831804
0.3728283825
0.3728252811
0.3728225537
0.372820493
0.3728714852
0.3728696701
0.3728672513
0.3728642848
0.372860873
0.3728571396
0.3728532111
0.3728492021
0.3728452097
0.3728413108
0.3728375668
0.372834036
0.372830831
0.3728283565
0.3728732761
0.37287255
0.37287142
0.3728698231
0.3728677389
0.3728651891
0.3728622306
0.3728589415
0.3728554118
0.3728517324
0.3728479895
0.3728442621
0.3728406348
0.3728372557
0.3728345997
0.37287271
0.3728714853
0.3728696702
0.3728672514
0.3728642848
0.3728608728
0.3728571394
0.3728532108
0.3728492019
0.3728452092
0.3728413103
0.3728375662
0.3728340354
0.3728308303
0.3728283556
0.3728714408
0.3728691305
0.372865915
0.3728619342
0.3728574132
0.3728525949
0.3728476979
0.3728428956
0.3728383112
0.3728340238
0.3728300753
0.3728264844
0.3728232613
0.3728204574
0.3728183581
0.3728695311
0.3728656741
0.3728606707
0.3728549245
0.3728488566
0.3728428178
0.3728370609
0.3728317435
0.3728269467
0.3728226964
0.3728189815
0.3728157701
0.3728130253
0.3728107416
0.3728090895
0.3728680955
0.3728632011
0.3728572142
0.3728506819
0.3728440652
0.372837698
0.3728317933
0.3728264671
0.3728217643
0.3728176811
0.3728141835
0.3728112217
0.3728087436
0.3728067247
0.3728052887
0.3728695313
0.3728656742
0.3728606708
0.3728549246
0.3728488566
0.3728428181
0.3728370612
0.3728317438
0.3728269469
0.3728226966
0.3728189818
0.3728157704
0.3728130254
0.3728107422
0.37280909
0.3728714411
0.3728691309
0.3728659152
0.3728619345
0.3728574133
0.3728525951
0.3728476982
0.3728428959
0.3728383118
0.3728340243
0.3728300758
0.3728264848
0.372823262
0.372820458
0.3728183587
0.3728727101
0.3728714854
0.3728696704
0.3728672514
0.372864285
0.3728608729
0.3728571397
0.3728532111
0.3728492022
0.3728452098
0.372841311
0.3728375669
0.372834036
0.3728308309
0.3728283565
0.372873276
0.3728725499
0.37287142
0.372869823
0.3728677388
0.3728651893
0.3728622306
0.3728589415
0.3728554119
0.3728517328
0.3728479901
0.3728442629
0.3728406355
0.3728372566
0.3728346007
)
;

boundaryField
{
    top
    {
        type            calculated;
        value           nonuniform List<scalar> 
127
(
0.372873276
0.3728725498
0.372871485
0.3728691304
0.3728656737
0.3728632007
0.3728656737
0.3728691302
0.3728714852
0.3728725499
0.3728714198
0.3728696699
0.372865915
0.3728606702
0.3728572137
0.3728606702
0.3728659149
0.3728696701
0.37287142
0.3728698228
0.3728672512
0.3728619343
0.372854924
0.3728506814
0.3728549239
0.3728619342
0.3728672513
0.372869823
0.3728677385
0.3728642846
0.3728574131
0.3728488561
0.3728440647
0.372848856
0.3728574129
0.3728642848
0.3728677388
0.3728651889
0.3728608724
0.3728525945
0.3728428173
0.3728376974
0.3728428174
0.3728525948
0.372860873
0.3728651893
0.3728622301
0.3728571389
0.3728476974
0.3728370604
0.3728317927
0.3728370604
0.372847698
0.3728571396
0.3728622306
0.3728589409
0.3728532103
0.3728428952
0.3728317429
0.3728264666
0.3728317431
0.3728428957
0.3728532111
0.3728589415
0.3728554113
0.3728492014
0.372838311
0.3728269461
0.3728217639
0.3728269465
0.3728383116
0.3728492021
0.3728554119
0.372851732
0.372845209
0.3728340234
0.372822696
0.3728176806
0.3728226963
0.372834024
0.3728452097
0.3728517328
0.3728479892
0.3728413102
0.3728300751
0.3728189811
0.3728141831
0.3728189814
0.3728300757
0.3728413108
0.3728479901
0.3728442618
0.372837566
0.3728264841
0.3728157695
0.3728112213
0.3728157701
0.3728264848
0.3728375668
0.3728442629
0.3728406344
0.372834035
0.372823261
0.3728130248
0.3728087433
0.3728130254
0.3728232618
0.372834036
0.3728406355
0.3728372554
0.3728308298
0.3728204571
0.3728107414
0.3728067244
0.372810742
0.3728204581
0.372830831
0.3728372566
0.3728345993
0.3728283552
0.3728183577
0.372809089
0.3728052882
0.3728090898
0.3728183586
0.3728283565
0.3728346007
)
;
    }
    bottom
    {
        type            calculated;
        value           nonuniform List<scalar> 
134
(
0.3728727099
0.3728714407
0.372869531
0.3728680955
0.372869531
0.3728714407
0.37287271
0.3728732761
0.3728725496
0.3728714852
0.3728691304
0.3728656737
0.3728632011
0.3728656736
0.3728691304
0.3728714855
0.37287255
0.3728714196
0.3728696698
0.3728659147
0.3728606704
0.3728572139
0.3728606703
0.3728659149
0.3728696702
0.37287142
0.3728698228
0.3728672509
0.3728619341
0.3728549241
0.3728506814
0.3728549242
0.3728619343
0.3728672514
0.3728698231
0.3728677385
0.3728642844
0.3728574128
0.3728488559
0.3728440647
0.3728488561
0.3728574132
0.3728642848
0.3728677389
0.3728651889
0.3728608723
0.3728525944
0.3728428171
0.3728376973
0.3728428171
0.3728525946
0.3728608727
0.3728651891
0.3728622301
0.372857139
0.3728476973
0.3728370599
0.3728317922
0.37283706
0.3728476976
0.3728571391
0.3728622306
0.372858941
0.3728532102
0.3728428948
0.3728317423
0.372826466
0.3728317426
0.3728428951
0.3728532106
0.3728589415
0.3728554113
0.3728492012
0.3728383104
0.3728269455
0.3728217632
0.3728269457
0.3728383109
0.3728492016
0.3728554118
0.3728517321
0.3728452088
0.3728340229
0.372822695
0.3728176799
0.3728226955
0.3728340233
0.3728452091
0.3728517324
0.372847989
0.3728413097
0.3728300744
0.3728189799
0.3728141821
0.3728189805
0.3728300747
0.3728413104
0.3728479895
0.3728442616
0.3728375653
0.3728264832
0.3728157685
0.3728112204
0.372815769
0.3728264838
0.3728375661
0.3728442621
0.3728406341
0.3728340344
0.3728232601
0.3728130235
0.3728087419
0.3728130241
0.3728232607
0.3728340352
0.3728406348
0.3728372549
0.3728308291
0.3728204561
0.3728107401
0.3728067228
0.3728107406
0.3728204567
0.37283083
0.3728372557
0.3728345988
0.3728283544
0.3728183566
0.3728090877
0.3728052866
0.3728090882
0.3728183573
0.3728283553
0.3728345997
)
;
    }
    side-walls
    {
        type            calculated;
        value           nonuniform List<scalar> 
261
(
0.3728725496
0.3728714851
0.3728691303
0.3728656737
0.3728632008
0.3728656737
0.3728691303
0.3728714853
0.3728725498
0.3728714196
0.3728696699
0.3728659147
0.3728606701
0.3728572135
0.37286067
0.3728659148
0.3728696701
0.3728714198
0.3728698228
0.372867251
0.3728619342
0.3728549239
0.372850681
0.3728549237
0.372861934
0.3728672512
0.3728698228
0.3728677385
0.3728642845
0.3728574128
0.3728488556
0.3728440641
0.3728488558
0.3728574128
0.3728642845
0.3728677385
0.3728651889
0.3728608724
0.3728525942
0.3728428167
0.3728376968
0.3728428169
0.3728525942
0.3728608723
0.3728651889
0.3728622301
0.3728571389
0.372847697
0.3728370598
0.3728317919
0.3728370597
0.3728476972
0.372857139
0.3728622301
0.372858941
0.3728532104
0.3728428946
0.3728317418
0.3728264655
0.3728317422
0.3728428949
0.3728532102
0.3728589409
0.3728554113
0.3728492014
0.3728383101
0.372826945
0.3728217627
0.3728269452
0.3728383105
0.3728492013
0.3728554113
0.3728517321
0.3728452086
0.3728340226
0.3728226946
0.3728176792
0.3728226949
0.3728340228
0.372845209
0.372851732
0.372847989
0.3728413096
0.3728300741
0.3728189797
0.3728141817
0.3728189802
0.3728300745
0.3728413101
0.3728479892
0.3728442616
0.3728375653
0.372826483
0.3728157682
0.3728112198
0.3728157685
0.3728264834
0.3728375657
0.3728442618
0.3728406341
0.3728340343
0.3728232599
0.3728130233
0.3728087415
0.3728130235
0.3728232603
0.3728340349
0.3728406344
0.3728372549
0.3728308291
0.3728204558
0.3728107398
0.3728067225
0.3728107401
0.3728204563
0.3728308296
0.3728372554
0.3728345988
0.3728283545
0.3728183563
0.3728090877
0.3728052866
0.372809088
0.3728183569
0.372828355
0.3728345993
0.3728732761
0.37287271
0.3728714408
0.3728695311
0.3728680955
0.3728695313
0.3728714411
0.3728727101
0.372873276
0.37287255
0.3728714853
0.3728691305
0.3728656741
0.3728632011
0.3728656742
0.3728691309
0.3728714854
0.3728725499
0.37287142
0.3728696702
0.372865915
0.3728606707
0.3728572142
0.3728606708
0.3728659152
0.3728696704
0.37287142
0.3728698231
0.3728672514
0.3728619342
0.3728549245
0.3728506819
0.3728549246
0.3728619345
0.3728672514
0.372869823
0.3728677389
0.3728642848
0.3728574132
0.3728488566
0.3728440652
0.3728488566
0.3728574133
0.372864285
0.3728677388
0.3728651891
0.3728608728
0.3728525949
0.3728428178
0.372837698
0.3728428181
0.3728525951
0.3728608729
0.3728651893
0.3728622306
0.3728571394
0.3728476979
0.3728370609
0.3728317933
0.3728370612
0.3728476982
0.3728571397
0.3728622306
0.3728589415
0.3728532108
0.3728428956
0.3728317435
0.3728264671
0.3728317438
0.3728428959
0.3728532111
0.3728589415
0.3728554118
0.3728492019
0.3728383112
0.3728269467
0.3728217643
0.3728269469
0.3728383118
0.3728492022
0.3728554119
0.3728517324
0.3728452092
0.3728340238
0.3728226964
0.3728176811
0.3728226966
0.3728340243
0.3728452098
0.3728517328
0.3728479895
0.3728413103
0.3728300753
0.3728189815
0.3728141835
0.3728189818
0.3728300758
0.372841311
0.3728479901
0.3728442621
0.3728375662
0.3728264844
0.3728157701
0.3728112217
0.3728157704
0.3728264848
0.3728375669
0.3728442629
0.3728406348
0.3728340354
0.3728232613
0.3728130253
0.3728087436
0.3728130254
0.372823262
0.372834036
0.3728406355
0.3728372557
0.3728308303
0.3728204574
0.3728107416
0.3728067247
0.3728107422
0.372820458
0.3728308309
0.3728372566
0.3728345997
0.3728283556
0.3728183581
0.3728090895
0.3728052887
0.37280909
0.3728183587
0.3728283565
0.3728346007
)
;
    }
    inlet
    {
        type            calculated;
        value           nonuniform 0();
    }
    outlet
    {
        type            calculated;
        value           nonuniform List<scalar> 
81
(
0.3728345988
0.3728283545
0.3728183563
0.3728090877
0.3728052866
0.372809088
0.3728183569
0.372828355
0.3728345993
0.3728283544
0.3728204908
0.3728078052
0.3727959328
0.3727910268
0.3727959335
0.3728078059
0.3728204913
0.3728283552
0.3728183566
0.3728078053
0.3727906315
0.3727743751
0.3727675939
0.3727743758
0.3727906328
0.3728078064
0.3728183577
0.3728090877
0.3727959328
0.372774375
0.3727537873
0.3727451324
0.3727537882
0.3727743762
0.3727959344
0.372809089
0.3728052866
0.3727910268
0.3727675941
0.3727451323
0.3727356384
0.3727451334
0.3727675959
0.3727910285
0.3728052882
0.3728090882
0.3727959334
0.3727743759
0.3727537884
0.3727451335
0.3727537893
0.3727743774
0.372795935
0.3728090898
0.3728183573
0.3728078062
0.372790633
0.3727743768
0.3727675958
0.3727743776
0.3727906341
0.3728078075
0.3728183586
0.3728283553
0.3728204917
0.3728078066
0.3727959348
0.3727910289
0.3727959351
0.3728078075
0.372820493
0.3728283565
0.3728345997
0.3728283556
0.3728183581
0.3728090895
0.3728052887
0.37280909
0.3728183587
0.3728283565
0.3728346007
)
;
    }
    procBoundary1to0
    {
        type            processor;
        value           nonuniform List<scalar> 
97
(
0.3728732758
0.3728732758
0.3728727098
0.3728714407
0.3728695312
0.3728680957
0.3728695312
0.3728714409
0.3728727099
0.3728732758
0.3728734331
0.3728714067
0.3728714067
0.3728714067
0.3728680411
0.372861757
0.3728551853
0.3728617573
0.3728680412
0.3728714066
0.3728727099
0.3728728589
0.3728713692
0.3728576175
0.3728576175
0.3728576175
0.3728322576
0.3727920083
0.3728322584
0.3728576181
0.3728680411
0.3728714408
0.3728720162
0.3728687382
0.3728572501
0.372730815
0.372730815
0.372730815
0.3724459347
0.3727308209
0.3728322582
0.372861757
0.3728695315
0.3728714134
0.3728662506
0.3728444581
0.3727579851
0.3701020615
0.3701020615
0.3701020615
0.3724459344
0.3724459344
0.3727920081
0.3728551852
0.3728680956
0.3728720164
0.3728687384
0.3728572502
0.3728237825
0.3727579844
0.3728237827
0.3728322566
0.3728322566
0.3728322566
0.3728617569
0.3728695311
0.3728728592
0.3728713696
0.3728669963
0.3728572501
0.372844458
0.3728572502
0.3728669961
0.372868041
0.372868041
0.372868041
0.3728714406
0.3728734331
0.3728728471
0.3728713693
0.3728687382
0.3728662507
0.3728687384
0.3728713694
0.3728728469
0.3728727099
0.3728727099
0.3728727099
0.3728736927
0.3728734333
0.3728728589
0.3728720162
0.3728714135
0.3728720164
0.3728728591
0.3728734333
0.3728736928
)
;
    }
}


// ************************************************************************* //
