/*--------------------------------*- C++ -*----------------------------------*\
| =========                 |                                                 |
| \\      /  F ield         | OpenFOAM: The Open Source CFD Toolbox           |
|  \\    /   O peration     | Version:  4.x                                   |
|   \\  /    A nd           | Web:      www.OpenFOAM.org                      |
|    \\/     M anipulation  |                                                 |
\*---------------------------------------------------------------------------*/
FoamFile
{
    version     2.0;
    format      ascii;
    class       volScalarField;
    location    "11000";
    object      CO;
}
// * * * * * * * * * * * * * * * * * * * * * * * * * * * * * * * * * * * * * //

dimensions      [0 0 0 0 0 0 0];

internalField   nonuniform List<scalar> 
1174
(
0.3719622546
0.3719610364
0.371959315
0.3719570684
0.3719543205
0.3719511317
0.3719475865
0.3719437824
0.3719398173
0.3719357836
0.3719317671
0.3719278581
0.3719242172
0.3719213555
0.3719611068
0.3719591501
0.3719565429
0.3719533451
0.3719496674
0.3719456436
0.3719414096
0.3719370889
0.3719327865
0.3719285846
0.37192455
0.3719207455
0.3719172919
0.3719146257
0.3719585679
0.3719551021
0.3719508113
0.3719459378
0.3719407443
0.3719354665
0.3719302908
0.3719253505
0.3719207301
0.3719164753
0.3719126059
0.3719091333
0.3719061126
0.3719038509
0.3719548418
0.3719494484
0.3719432543
0.3719367138
0.3719302054
0.3719240008
0.3719182697
0.3719131007
0.371908521
0.3719045179
0.3719010583
0.3718981011
0.3718956416
0.3718938623
0.3719521763
0.3719457223
0.3719386808
0.3719315489
0.3719246864
0.3719183226
0.3719125829
0.371907515
0.3719031151
0.3718993468
0.3718961561
0.3718934868
0.3718913124
0.3718897659
0.3719548419
0.3719494485
0.3719432547
0.3719367137
0.3719302053
0.3719240009
0.3719182697
0.3719131007
0.3719085208
0.3719045185
0.3719010585
0.3718981014
0.3718956418
0.3718938626
0.3719585679
0.3719551017
0.3719508111
0.3719459376
0.3719407442
0.3719354666
0.371930291
0.3719253503
0.3719207299
0.3719164754
0.371912606
0.3719091337
0.3719061131
0.3719038514
0.3719611064
0.37195915
0.3719565427
0.371953345
0.3719496672
0.3719456435
0.3719414096
0.3719370889
0.3719327865
0.371928585
0.3719245503
0.371920746
0.3719172925
0.3719146265
0.371962254
0.371961036
0.3719593146
0.3719570681
0.3719543202
0.3719511313
0.3719475863
0.3719437823
0.3719398174
0.371935784
0.3719317674
0.3719278586
0.3719242175
0.3719213558
0.3719624268
0.3719611067
0.3719591499
0.3719565427
0.3719533454
0.3719496678
0.371945644
0.3719414097
0.3719370891
0.3719327862
0.3719285851
0.3719245501
0.3719207453
0.371917292
0.3719146259
0.3719585142
0.3719550698
0.3719508683
0.3719461622
0.3719412056
0.3719362133
0.3719313445
0.3719267055
0.3719223596
0.3719183377
0.3719146514
0.3719113096
0.371908371
0.3719061507
0.3719519807
0.371945273
0.3719379809
0.3719307216
0.3719239195
0.3719178069
0.3719124676
0.3719078904
0.3719040122
0.3719007471
0.3718980067
0.371895714
0.3718938324
0.3718924802
0.3719403462
0.3719291739
0.3719185485
0.3719092678
0.3719016114
0.3718955421
0.3718908717
0.3718873601
0.3718847716
0.3718828998
0.3718815739
0.3718806575
0.3718800471
0.3718796859
0.3719293472
0.371915891
0.3719044926
0.371895453
0.3718885935
0.371883565
0.3718799947
0.3718775495
0.3718759515
0.3718749804
0.3718744651
0.3718742718
0.3718742898
0.3718743988
0.3719403462
0.3719291741
0.3719185489
0.3719092683
0.3719016117
0.3718955424
0.3718908717
0.3718873604
0.371884772
0.3718829005
0.3718815746
0.3718806581
0.3718800477
0.3718796862
0.3719519804
0.3719452732
0.3719379807
0.3719307215
0.3719239201
0.3719178074
0.3719124676
0.3719078905
0.3719040124
0.3719007475
0.3718980074
0.3718957146
0.3718938328
0.3718924807
0.3719585138
0.3719550698
0.3719508682
0.3719461622
0.371941206
0.3719362137
0.3719313445
0.3719267057
0.3719223599
0.3719183383
0.3719146519
0.3719113104
0.3719083717
0.3719061519
0.3719611065
0.3719591499
0.3719565424
0.3719533449
0.3719496675
0.3719456437
0.3719414093
0.3719370889
0.3719327864
0.3719285852
0.3719245505
0.3719207461
0.3719172927
0.3719146266
0.3719610586
0.3719585681
0.3719551022
0.3719508116
0.3719459382
0.3719407447
0.3719354668
0.3719302911
0.3719253505
0.3719207299
0.3719164756
0.3719126064
0.3719091337
0.3719061127
0.3719038512
0.3719573936
0.3719519809
0.3719452738
0.371937981
0.3719307216
0.3719239197
0.371917807
0.3719124677
0.3719078904
0.371904012
0.3719007469
0.3718980067
0.3718957141
0.3718938323
0.37189248
0.3719326421
0.3719184589
0.371905613
0.3718950799
0.3718870631
0.3718813321
0.3718774792
0.3718750705
0.3718737192
0.3718731106
0.3718730021
0.3718732113
0.3718735916
0.3718739726
0.3718895426
0.3718655411
0.3718489844
0.3718392099
0.3718346199
0.3718336003
0.3718348482
0.371837418
0.3718406687
0.3718441854
0.3718477091
0.3718510733
0.3718541194
0.3718564541
0.3718329786
0.3718090646
0.371798801
0.3717970013
0.3717999572
0.3718053334
0.3718117445
0.3718184029
0.3718248779
0.3718309496
0.3718365154
0.3718415248
0.3718458847
0.3718491476
0.3718895437
0.371865542
0.3718489853
0.371839211
0.371834621
0.3718336014
0.3718348489
0.3718374189
0.3718406695
0.371844186
0.3718477097
0.371851074
0.3718541201
0.3718564552
0.3719326427
0.3719184592
0.3719056133
0.3718950802
0.3718870636
0.3718813327
0.3718774798
0.3718750713
0.3718737205
0.3718731116
0.3718730033
0.3718732127
0.3718735931
0.3718739739
0.3719519805
0.3719452732
0.3719379807
0.3719307217
0.3719239199
0.3719178074
0.371912468
0.3719078909
0.3719040128
0.3719007479
0.3718980077
0.3718957154
0.3718938336
0.3718924814
0.371958568
0.3719551018
0.3719508109
0.3719459376
0.3719407445
0.3719354668
0.3719302911
0.371925351
0.3719207307
0.371916476
0.3719126068
0.3719091347
0.371906114
0.3719038522
0.371959
0.3719548421
0.3719494487
0.3719432548
0.3719367141
0.3719302057
0.3719240009
0.3719182701
0.371913101
0.3719085209
0.3719045183
0.3719010585
0.3718981015
0.3718956417
0.371893862
0.3719506191
0.3719403467
0.3719291743
0.3719185486
0.3719092681
0.3719016115
0.3718955425
0.371890872
0.3718873602
0.3718847716
0.3718829002
0.3718815741
0.3718806576
0.3718800472
0.3718796856
0.3719188167
0.3718895434
0.3718655416
0.3718489849
0.3718392104
0.3718346203
0.371833601
0.3718348486
0.3718374185
0.3718406689
0.3718441855
0.3718477093
0.3718510734
0.3718541193
0.3718564545
0.371741516
0.3717111919
0.3717061324
0.3717147803
0.3717295586
0.3717461859
0.3717624885
0.3717774955
0.371790871
0.3718025911
0.3718127644
0.3718215245
0.371828888
0.37183427
0.3714504372
0.3714882662
0.3715465715
0.3716025273
0.3716500985
0.3716889178
0.3717202385
0.3717455437
0.3717661265
0.3717830133
0.3717969824
0.3718085921
0.3718181043
0.3718249442
0.3717415192
0.3717111941
0.371706134
0.3717147819
0.3717295603
0.3717461872
0.37176249
0.3717774968
0.3717908722
0.3718025922
0.3718127655
0.3718215257
0.3718288887
0.3718342707
0.3718895433
0.3718655421
0.3718489856
0.3718392115
0.3718346216
0.3718336022
0.3718348501
0.3718374198
0.3718406702
0.3718441872
0.371847711
0.3718510752
0.3718541208
0.371856456
0.3719403462
0.3719291736
0.3719185488
0.3719092685
0.3719016123
0.3718955433
0.3718908729
0.3718873612
0.371884773
0.3718829015
0.3718815755
0.3718806593
0.371880049
0.3718796872
0.3719548417
0.3719494483
0.3719432545
0.3719367143
0.3719302056
0.3719240011
0.3719182707
0.3719131018
0.3719085218
0.3719045192
0.3719010595
0.3718981028
0.3718956433
0.371893864
0.3719574525
0.3719521766
0.3719457227
0.3719386811
0.3719315497
0.3719246869
0.3719183229
0.3719125832
0.3719075155
0.3719031157
0.3718993471
0.3718961563
0.371893487
0.3718913124
0.371889766
0.3719435343
0.3719293477
0.3719158914
0.3719044929
0.3718954536
0.3718885946
0.3718835656
0.3718799953
0.3718775496
0.3718759518
0.3718749809
0.3718744656
0.3718742723
0.3718742901
0.3718743991
0.3718754288
0.3718329798
0.3718090657
0.3717988019
0.3717970021
0.3717999579
0.371805334
0.3718117453
0.3718184032
0.3718248783
0.3718309499
0.3718365156
0.371841525
0.3718458847
0.3718491476
0.3715024177
0.3714504406
0.3714882686
0.3715465734
0.3716025288
0.3716500993
0.3716889181
0.3717202392
0.3717455442
0.371766127
0.3717830134
0.3717969826
0.3718085924
0.3718181043
0.3718249445
0.3701960227
0.3708337988
0.3711871043
0.3713939881
0.3715221474
0.3716059914
0.3716636773
0.3717051702
0.3717361633
0.3717600441
0.3717789035
0.3717940477
0.371806151
0.371814718
0.371450438
0.37148827
0.3715465758
0.3716025309
0.3716501012
0.3716889203
0.3717202411
0.3717455459
0.3717661285
0.3717830147
0.3717969837
0.3718085937
0.3718181058
0.3718249458
0.3718329786
0.3718090658
0.3717988026
0.3717970033
0.3717999594
0.3718053356
0.371811747
0.3718184054
0.3718248802
0.3718309516
0.3718365173
0.3718415267
0.3718458865
0.3718491492
0.3719293469
0.371915891
0.3719044928
0.3718954539
0.3718885949
0.3718835665
0.3718799962
0.371877551
0.3718759533
0.3718749825
0.3718744672
0.3718742739
0.3718742916
0.3718744008
0.3719521759
0.3719457222
0.371938681
0.3719315492
0.3719246868
0.3719183233
0.3719125836
0.371907516
0.3719031166
0.3718993486
0.3718961579
0.3718934886
0.3718913142
0.3718897676
0.371959
0.3719548423
0.3719494488
0.3719432548
0.3719367144
0.3719302059
0.3719240011
0.3719182704
0.3719131012
0.3719085214
0.3719045186
0.3719010588
0.3718981019
0.3718956425
0.3718938629
0.3719506192
0.3719403468
0.3719291743
0.371918549
0.3719092687
0.3719016121
0.3718955432
0.3718908727
0.3718873607
0.3718847724
0.371882901
0.371881575
0.3718806585
0.3718800481
0.3718796866
0.371918818
0.3718895447
0.3718655434
0.3718489864
0.3718392117
0.3718346218
0.3718336025
0.3718348499
0.3718374198
0.3718406702
0.3718441869
0.3718477106
0.3718510746
0.3718541206
0.3718564556
0.3718094683
0.3717415221
0.3717111966
0.3717061363
0.3717147835
0.3717295617
0.3717461884
0.371762491
0.3717774976
0.3717908729
0.3718025925
0.3718127657
0.3718215257
0.3718288889
0.3718342709
0.3715024183
0.3714504418
0.3714882724
0.3715465774
0.3716025323
0.3716501024
0.3716889212
0.3717202418
0.3717455463
0.371766129
0.3717830151
0.3717969843
0.3718085937
0.3718181058
0.3718249458
0.3718094675
0.3717415221
0.3717111972
0.3717061375
0.3717147851
0.3717295634
0.3717461899
0.3717624922
0.3717774986
0.3717908741
0.3718025938
0.3718127668
0.371821527
0.3718288904
0.3718342724
0.3718895426
0.371865543
0.3718489866
0.3718392128
0.3718346231
0.3718336037
0.3718348516
0.3718374211
0.3718406718
0.3718441885
0.3718477121
0.3718510762
0.371854122
0.371856457
0.3719403459
0.3719291739
0.371918549
0.371909269
0.3719016128
0.371895544
0.3718908737
0.3718873618
0.3718847738
0.3718829023
0.3718815764
0.3718806601
0.3718800496
0.3718796882
0.3719548417
0.3719494483
0.3719432546
0.3719367143
0.3719302059
0.3719240015
0.3719182709
0.3719131021
0.3719085225
0.3719045199
0.37190106
0.3718981032
0.3718956438
0.3718938644
0.3719610588
0.3719585684
0.371955102
0.3719508115
0.3719459381
0.3719407449
0.3719354669
0.3719302912
0.3719253511
0.3719207305
0.3719164759
0.3719126068
0.3719091343
0.3719061135
0.3719038518
0.3719573941
0.3719519814
0.3719452737
0.3719379813
0.3719307221
0.3719239209
0.371917808
0.3719124683
0.3719078912
0.3719040131
0.3719007479
0.3718980076
0.3718957154
0.3718938334
0.3718924813
0.3719461573
0.3719326433
0.3719184601
0.371905614
0.3718950815
0.3718870647
0.3718813335
0.3718774806
0.3718750719
0.3718737208
0.3718731126
0.3718730038
0.3718732131
0.3718735934
0.3718739746
0.3719188182
0.371889545
0.371865544
0.3718489873
0.3718392129
0.3718346229
0.3718336031
0.3718348508
0.3718374206
0.3718406711
0.3718441879
0.3718477114
0.3718510753
0.3718541215
0.3718564564
0.3718754286
0.3718329807
0.3718090677
0.3717988047
0.3717970049
0.3717999608
0.3718053366
0.3718117478
0.371818406
0.3718248805
0.3718309523
0.3718365182
0.3718415273
0.3718458868
0.3718491497
0.3719188181
0.3718895452
0.3718655441
0.3718489874
0.3718392136
0.3718346237
0.3718336045
0.3718348519
0.3718374217
0.371840672
0.3718441887
0.3718477123
0.3718510765
0.3718541225
0.3718564573
0.3719461571
0.371932643
0.3719184599
0.3719056142
0.3718950818
0.3718870654
0.3718813346
0.3718774815
0.371875073
0.3718737219
0.3718731137
0.3718730052
0.3718732143
0.3718735948
0.3718739759
0.3719519807
0.3719452734
0.3719379812
0.3719307224
0.3719239208
0.3719178084
0.3719124692
0.3719078923
0.3719040139
0.3719007493
0.371898009
0.3718957163
0.3718938349
0.3718924828
0.3719585679
0.371955102
0.3719508113
0.3719459382
0.3719407449
0.3719354672
0.3719302918
0.3719253516
0.3719207313
0.3719164768
0.3719126077
0.3719091353
0.3719061148
0.3719038534
0.3719624269
0.3719611068
0.3719591502
0.3719565431
0.3719533458
0.371949668
0.3719456441
0.3719414098
0.3719370894
0.371932787
0.3719285855
0.3719245508
0.3719207462
0.3719172928
0.3719146266
0.3719610224
0.3719585147
0.3719550702
0.3719508688
0.3719461628
0.3719412064
0.371936214
0.3719313451
0.3719267065
0.3719223606
0.371918339
0.3719146527
0.3719113109
0.3719083721
0.3719061519
0.3719573942
0.3719519811
0.3719452738
0.3719379813
0.3719307223
0.3719239209
0.3719178082
0.3719124688
0.3719078917
0.3719040134
0.3719007486
0.3718980084
0.3718957159
0.3718938339
0.3718924818
0.3719506192
0.3719403472
0.3719291747
0.3719185498
0.3719092695
0.3719016131
0.3718955441
0.3718908737
0.3718873619
0.3718847739
0.3718829023
0.371881576
0.3718806597
0.3718800494
0.3718796879
0.3719435344
0.3719293479
0.3719158919
0.3719044939
0.3718954549
0.3718885959
0.3718835672
0.3718799976
0.371877552
0.3718759542
0.3718749832
0.3718744676
0.3718742743
0.3718742919
0.3718744011
0.3719506194
0.3719403473
0.3719291747
0.3719185498
0.3719092697
0.3719016134
0.3718955444
0.3718908742
0.3718873626
0.3718847744
0.3718829027
0.3718815769
0.3718806604
0.3718800503
0.3718796884
0.3719573935
0.371951981
0.3719452737
0.3719379814
0.3719307225
0.371923921
0.3719178085
0.3719124695
0.3719078922
0.3719040142
0.3719007495
0.3718980094
0.3718957168
0.3718938352
0.3718924829
0.3719610221
0.3719585142
0.3719550701
0.3719508686
0.3719461627
0.3719412064
0.3719362142
0.3719313455
0.3719267069
0.3719223612
0.3719183398
0.3719146534
0.3719113117
0.3719083732
0.3719061534
0.3719611067
0.3719591501
0.3719565429
0.3719533454
0.3719496681
0.3719456441
0.3719414103
0.3719370898
0.3719327874
0.3719285859
0.3719245517
0.3719207471
0.3719172938
0.3719146281
0.3719630372
0.3719622546
0.3719610364
0.3719593152
0.3719570686
0.3719543204
0.3719511316
0.3719475868
0.3719437827
0.3719398178
0.3719357844
0.3719317678
0.371927859
0.3719242181
0.3719213563
0.3719624269
0.3719611071
0.3719591504
0.371956543
0.3719533455
0.3719496679
0.3719456442
0.3719414103
0.3719370897
0.3719327873
0.3719285855
0.3719245511
0.3719207466
0.3719172931
0.3719146273
0.3719610592
0.3719585686
0.3719551024
0.3719508117
0.3719459386
0.3719407451
0.3719354673
0.371930292
0.3719253519
0.3719207315
0.3719164767
0.3719126077
0.3719091351
0.3719061143
0.3719038532
0.3719590002
0.3719548425
0.371949449
0.3719432553
0.3719367148
0.3719302065
0.371924002
0.3719182714
0.3719131025
0.3719085228
0.3719045203
0.3719010602
0.3718981035
0.371895644
0.3718938648
0.3719574525
0.3719521766
0.3719457229
0.3719386817
0.3719315502
0.3719246879
0.3719183243
0.3719125847
0.3719075172
0.3719031175
0.3718993493
0.3718961586
0.3718934896
0.3718913152
0.3718897683
0.3719589999
0.3719548421
0.3719494487
0.3719432552
0.3719367149
0.3719302067
0.371924002
0.3719182717
0.3719131028
0.3719085232
0.3719045206
0.3719010606
0.3718981039
0.3718956446
0.3718938649
0.3719610586
0.3719585685
0.3719551023
0.3719508117
0.3719459387
0.3719407454
0.3719354679
0.3719302923
0.3719253522
0.371920732
0.3719164776
0.3719126081
0.3719091358
0.3719061152
0.3719038536
0.3719624272
0.3719611069
0.3719591502
0.371956543
0.3719533456
0.3719496681
0.3719456445
0.3719414105
0.37193709
0.3719327875
0.3719285862
0.3719245518
0.3719207472
0.3719172941
0.3719146282
0.3719630372
0.3719622545
0.3719610363
0.3719593151
0.3719570688
0.3719543208
0.3719511318
0.3719475869
0.3719437831
0.3719398181
0.3719357848
0.3719317687
0.3719278599
0.3719242189
0.3719213572
)
;

boundaryField
{
    top
    {
        type            zeroGradient;
    }
    bottom
    {
        type            zeroGradient;
    }
    side-walls
    {
        type            zeroGradient;
    }
    inlet
    {
        type            zeroGradient;
    }
    outlet
    {
        type            zeroGradient;
    }
    procBoundary1to0
    {
        type            processor;
        value           nonuniform List<scalar> 
97
(
0.3719630371
0.3719630371
0.3719624269
0.3719610586
0.3719589999
0.3719574527
0.371959
0.3719610586
0.3719624266
0.371963037
0.3719632063
0.3719610219
0.3719610219
0.3719610219
0.3719573939
0.3719506193
0.3719435352
0.3719506197
0.371957394
0.3719610219
0.3719624269
0.3719625875
0.3719609815
0.371946157
0.371946157
0.371946157
0.3719188183
0.3718754316
0.3719188194
0.3719461578
0.3719573935
0.3719610585
0.3719616793
0.3719581449
0.37194576
0.3718094661
0.3718094661
0.3718094661
0.3715024375
0.3718094727
0.3719188193
0.3719506194
0.3719589999
0.3719610292
0.3719554629
0.3719319688
0.371838744
0.36897993
0.36897993
0.36897993
0.3715024375
0.3715024375
0.3718754314
0.3719435351
0.3719574523
0.3719616794
0.3719581451
0.3719457601
0.3719096788
0.3718387431
0.3719096793
0.3719188172
0.3719188172
0.3719188172
0.3719506192
0.3719590002
0.3719625876
0.3719609817
0.371956267
0.3719457599
0.3719319691
0.3719457603
0.3719562671
0.3719573938
0.3719573938
0.3719573938
0.3719610586
0.3719632065
0.3719625746
0.371960982
0.3719581451
0.371955463
0.3719581454
0.3719609815
0.3719625743
0.3719624269
0.3719624269
0.3719624269
0.3719634865
0.3719632064
0.3719625876
0.3719616792
0.3719610292
0.3719616793
0.3719625875
0.3719632065
0.3719634863
)
;
    }
}


// ************************************************************************* //
