/*--------------------------------*- C++ -*----------------------------------*\
| =========                 |                                                 |
| \\      /  F ield         | OpenFOAM: The Open Source CFD Toolbox           |
|  \\    /   O peration     | Version:  4.x                                   |
|   \\  /    A nd           | Web:      www.OpenFOAM.org                      |
|    \\/     M anipulation  |                                                 |
\*---------------------------------------------------------------------------*/
FoamFile
{
    version     2.0;
    format      ascii;
    class       volScalarField;
    location    "11000";
    object      Cpv;
}
// * * * * * * * * * * * * * * * * * * * * * * * * * * * * * * * * * * * * * //

dimensions      [0 2 -2 -1 0 0 0];

internalField   nonuniform List<scalar> 
1174
(
1210.518959
1210.51904
1210.5192
1210.519385
1210.519612
1210.519871
1210.520152
1210.520451
1210.520766
1210.521093
1210.521427
1210.52173
1210.522032
1210.52228
1210.518186
1210.518333
1210.518548
1210.518788
1210.519104
1210.519426
1210.519795
1210.520165
1210.520527
1210.520857
1210.521204
1210.521533
1210.521809
1210.522034
1210.519191
1210.519491
1210.519846
1210.520219
1210.520653
1210.521087
1210.521518
1210.521918
1210.522282
1210.522626
1210.522946
1210.523226
1210.523469
1210.523627
1210.519171
1210.519617
1210.520086
1210.520635
1210.521175
1210.521685
1210.522141
1210.522562
1210.522923
1210.523243
1210.523527
1210.523757
1210.52397
1210.524109
1210.520278
1210.520821
1210.521398
1210.521991
1210.522563
1210.523111
1210.523585
1210.524
1210.524353
1210.524661
1210.524908
1210.525131
1210.525319
1210.52546
1210.520016
1210.52043
1210.520932
1210.521469
1210.521966
1210.522506
1210.522992
1210.523416
1210.52378
1210.524105
1210.524389
1210.524636
1210.524853
1210.52499
1210.519326
1210.519592
1210.51995
1210.520338
1210.520762
1210.521192
1210.521612
1210.521986
1210.522381
1210.522728
1210.523054
1210.523358
1210.523615
1210.523788
1210.519395
1210.519576
1210.519781
1210.520074
1210.520383
1210.520723
1210.521061
1210.521434
1210.521799
1210.522124
1210.522468
1210.522778
1210.523077
1210.523274
1210.519581
1210.519678
1210.519807
1210.519978
1210.52022
1210.520491
1210.520783
1210.521093
1210.521421
1210.521755
1210.522082
1210.522413
1210.52271
1210.522947
1210.518869
1210.518977
1210.519137
1210.519344
1210.51964
1210.519923
1210.520261
1210.520624
1210.520972
1210.521325
1210.521685
1210.52201
1210.522305
1210.522597
1210.522798
1210.519443
1210.519752
1210.520065
1210.520436
1210.520847
1210.521251
1210.521642
1210.522033
1210.522347
1210.522652
1210.522964
1210.523248
1210.523499
1210.523659
1210.521185
1210.521724
1210.522333
1210.522914
1210.523457
1210.523995
1210.524433
1210.524803
1210.525129
1210.525418
1210.525647
1210.52583
1210.526
1210.52614
1210.520405
1210.521316
1210.522202
1210.522969
1210.523595
1210.524075
1210.524467
1210.524746
1210.524962
1210.525107
1210.525201
1210.52526
1210.525303
1210.525356
1210.522555
1210.523611
1210.524536
1210.525237
1210.525786
1210.526202
1210.52648
1210.526694
1210.526824
1210.52689
1210.526939
1210.526961
1210.526949
1210.526937
1210.519712
1210.520661
1210.521572
1210.522336
1210.522962
1210.523419
1210.523795
1210.524086
1210.524295
1210.52448
1210.524594
1210.524668
1210.524729
1210.524773
1210.521093
1210.521639
1210.522257
1210.522829
1210.523409
1210.523898
1210.524352
1210.524727
1210.525066
1210.525354
1210.525571
1210.525754
1210.525902
1210.526034
1210.518636
1210.518927
1210.519259
1210.519626
1210.520049
1210.520479
1210.520863
1210.521241
1210.521592
1210.521915
1210.52223
1210.522506
1210.522731
1210.522937
1210.519839
1210.520009
1210.520229
1210.52049
1210.520788
1210.521151
1210.52147
1210.521825
1210.522177
1210.522513
1210.522849
1210.523161
1210.523434
1210.523665
1210.519048
1210.519251
1210.519543
1210.519899
1210.520297
1210.520741
1210.521187
1210.521592
1210.521966
1210.522348
1210.522707
1210.523018
1210.523288
1210.523556
1210.523728
1210.518514
1210.518959
1210.519531
1210.520103
1210.520697
1210.521213
1210.52171
1210.522166
1210.522551
1210.522874
1210.523139
1210.523378
1210.523531
1210.523673
1210.523772
1210.520949
1210.522117
1210.52318
1210.524035
1210.524706
1210.525189
1210.525516
1210.525691
1210.525789
1210.525857
1210.525877
1210.525852
1210.525814
1210.525793
1210.524972
1210.526939
1210.528298
1210.52908
1210.529469
1210.529535
1210.529435
1210.529232
1210.528948
1210.528645
1210.528353
1210.528071
1210.527824
1210.527625
1210.52876
1210.530761
1210.531601
1210.531764
1210.531495
1210.531061
1210.530512
1210.529952
1210.529416
1210.528927
1210.528453
1210.52804
1210.527688
1210.527404
1210.524259
1210.526224
1210.527578
1210.528357
1210.528735
1210.528807
1210.52872
1210.528553
1210.528276
1210.527989
1210.5277
1210.527424
1210.527174
1210.526974
1210.521732
1210.522891
1210.523971
1210.524834
1210.525516
1210.525998
1210.526308
1210.526495
1210.526622
1210.526687
1210.526667
1210.526678
1210.526627
1210.526581
1210.520692
1210.52124
1210.521852
1210.522454
1210.522979
1210.523462
1210.523892
1210.524293
1210.524649
1210.524917
1210.525164
1210.52536
1210.525505
1210.525613
1210.518114
1210.518383
1210.518731
1210.519123
1210.519563
1210.519985
1210.520392
1210.520807
1210.521184
1210.521536
1210.521844
1210.522158
1210.522428
1210.522591
1210.519596
1210.519925
1210.520396
1210.520923
1210.52144
1210.52198
1210.522477
1210.522963
1210.523367
1210.523747
1210.524084
1210.524371
1210.524612
1210.524823
1210.524963
1210.520674
1210.521538
1210.522451
1210.523317
1210.524088
1210.524722
1210.525229
1210.525587
1210.52588
1210.526104
1210.526263
1210.526368
1210.526454
1210.526502
1210.52652
1210.522092
1210.524514
1210.52648
1210.527856
1210.528696
1210.529059
1210.529158
1210.529049
1210.528823
1210.528556
1210.528245
1210.527966
1210.527673
1210.527433
1210.527245
1210.53791
1210.540405
1210.540776
1210.540058
1210.538836
1210.537478
1210.536134
1210.534901
1210.533801
1210.532845
1210.532019
1210.53131
1210.530705
1210.530285
1210.562099
1210.558966
1210.554192
1210.549597
1210.545712
1210.542538
1210.53997
1210.537925
1210.536212
1210.534851
1210.533716
1210.53276
1210.531981
1210.531422
1210.536421
1210.538908
1210.539323
1210.538623
1210.537419
1210.536057
1210.534714
1210.533488
1210.532418
1210.531459
1210.530648
1210.52993
1210.52932
1210.528875
1210.525098
1210.527059
1210.528426
1210.529245
1210.529613
1210.529709
1210.529636
1210.529405
1210.529117
1210.528848
1210.528539
1210.528272
1210.528003
1210.527799
1210.519335
1210.520256
1210.521151
1210.52192
1210.522546
1210.523017
1210.523424
1210.523688
1210.52387
1210.52402
1210.524126
1210.5242
1210.524242
1210.524283
1210.518995
1210.519419
1210.519949
1210.520477
1210.520996
1210.521509
1210.521992
1210.522439
1210.522823
1210.523123
1210.523431
1210.523651
1210.523876
1210.52404
1210.519653
1210.520076
1210.520619
1210.521195
1210.521802
1210.522354
1210.522875
1210.52334
1210.523753
1210.524099
1210.524388
1210.524639
1210.524871
1210.525047
1210.525187
1210.520082
1210.521264
1210.522355
1210.523277
1210.524012
1210.524609
1210.525047
1210.525333
1210.525538
1210.525668
1210.525757
1210.525812
1210.525827
1210.525798
1210.52577
1210.525861
1210.529352
1210.531309
1210.532124
1210.532282
1210.532042
1210.531598
1210.531071
1210.530539
1210.530006
1210.529516
1210.529069
1210.528622
1210.528246
1210.527985
1210.557116
1210.561395
1210.558298
1210.553527
1210.548938
1210.545019
1210.541832
1210.539255
1210.537185
1210.535478
1210.534093
1210.532933
1210.531989
1210.531191
1210.530646
1210.268816
1210.216443
1210.187316
1210.170181
1210.159491
1210.152431
1210.147518
1210.143934
1210.141197
1210.139023
1210.137252
1210.135811
1210.134617
1210.133731
1210.561345
1210.558265
1210.553448
1210.548852
1210.544971
1210.541776
1210.539199
1210.53711
1210.535427
1210.534048
1210.532882
1210.531927
1210.531159
1210.530577
1210.530105
1210.532069
1210.5329
1210.533002
1210.532776
1210.532341
1210.531807
1210.531282
1210.53073
1210.530225
1210.529755
1210.529354
1210.528995
1210.5287
1210.522239
1210.523327
1210.524264
1210.525015
1210.525572
1210.52599
1210.526264
1210.526468
1210.5266
1210.526699
1210.52675
1210.526777
1210.526784
1210.526762
1210.520744
1210.521274
1210.521846
1210.522433
1210.522988
1210.523514
1210.523953
1210.524379
1210.52475
1210.52505
1210.525307
1210.52551
1210.525677
1210.525793
1210.519578
1210.519923
1210.52036
1210.520866
1210.521401
1210.521918
1210.522425
1210.52288
1210.523293
1210.523657
1210.52397
1210.524253
1210.52448
1210.524699
1210.524827
1210.519803
1210.52065
1210.521583
1210.522447
1210.523217
1210.523846
1210.524336
1210.524737
1210.525015
1210.525235
1210.525385
1210.525503
1210.52555
1210.525622
1210.52565
1210.523066
1210.525504
1210.527493
1210.528832
1210.529613
1210.53
1210.530116
1210.530007
1210.52982
1210.529527
1210.529242
1210.528966
1210.528673
1210.528419
1210.528244
1210.531113
1210.536684
1210.539188
1210.539606
1210.538904
1210.537671
1210.536277
1210.534955
1210.533729
1210.532618
1210.53166
1210.530818
1210.530104
1210.529504
1210.529046
1210.557193
1210.56146
1210.558338
1210.553564
1210.548986
1210.545078
1210.541903
1210.539345
1210.53725
1210.535552
1210.534169
1210.533048
1210.532092
1210.531318
1210.530768
1210.531521
1210.537082
1210.539555
1210.53998
1210.539277
1210.538061
1210.536681
1210.535325
1210.534088
1210.533019
1210.532072
1210.531233
1210.530526
1210.529911
1210.529465
1210.524753
1210.526745
1210.528062
1210.528861
1210.529232
1210.529316
1210.529193
1210.528972
1210.528718
1210.528423
1210.528141
1210.527865
1210.527609
1210.527408
1210.521242
1210.522145
1210.523067
1210.523813
1210.524447
1210.524959
1210.525305
1210.525584
1210.525798
1210.525936
1210.526072
1210.52614
1210.526179
1210.526236
1210.519919
1210.52036
1210.520882
1210.521398
1210.521949
1210.522434
1210.522884
1210.52332
1210.523698
1210.524002
1210.524295
1210.524505
1210.524725
1210.524872
1210.51877
1210.518976
1210.519238
1210.519604
1210.520016
1210.520452
1210.520871
1210.521247
1210.521677
1210.522038
1210.522375
1210.522716
1210.523003
1210.52325
1210.523415
1210.520197
1210.520643
1210.52117
1210.521778
1210.522362
1210.522963
1210.523449
1210.523852
1210.524241
1210.524544
1210.524801
1210.525034
1210.525208
1210.525369
1210.525463
1210.520115
1210.521228
1210.522396
1210.523433
1210.5243
1210.524954
1210.525401
1210.525733
1210.52591
1210.526027
1210.526056
1210.526065
1210.526059
1210.526014
1210.526
1210.522685
1210.525089
1210.52703
1210.528398
1210.529221
1210.529587
1210.529684
1210.529595
1210.529406
1210.529119
1210.528841
1210.528535
1210.528264
1210.528026
1210.527867
1210.526205
1210.529691
1210.531656
1210.532525
1210.532679
1210.532416
1210.531964
1210.531397
1210.530854
1210.530335
1210.52982
1210.52937
1210.528966
1210.528599
1210.528332
1210.523321
1210.525718
1210.527674
1210.529028
1210.529855
1210.530231
1210.530322
1210.530218
1210.530003
1210.529745
1210.529449
1210.529154
1210.528904
1210.52865
1210.528449
1210.520751
1210.521853
1210.52301
1210.52403
1210.524882
1210.525555
1210.525998
1210.526287
1210.526477
1210.52662
1210.526672
1210.526681
1210.526656
1210.526627
1210.526593
1210.519494
1210.52005
1210.520662
1210.521278
1210.521829
1210.522322
1210.522782
1210.523162
1210.523459
1210.523731
1210.523946
1210.524101
1210.524278
1210.524416
1210.518731
1210.519032
1210.519367
1210.519781
1210.520188
1210.520627
1210.521055
1210.521463
1210.521845
1210.522188
1210.522498
1210.522769
1210.523013
1210.523209
1210.519182
1210.519286
1210.519437
1210.519659
1210.519935
1210.520216
1210.520542
1210.520883
1210.521256
1210.521626
1210.521947
1210.522262
1210.522585
1210.522872
1210.523099
1210.51874
1210.518952
1210.519222
1210.519589
1210.519985
1210.520376
1210.520779
1210.521199
1210.521552
1210.521894
1210.522225
1210.522531
1210.522789
1210.523023
1210.523208
1210.520087
1210.520492
1210.52106
1210.521672
1210.522267
1210.522819
1210.52329
1210.523709
1210.524078
1210.524393
1210.524668
1210.524899
1210.525069
1210.525208
1210.525326
1210.519818
1210.520723
1210.521638
1210.52249
1210.523244
1210.523881
1210.524371
1210.524736
1210.525031
1210.525262
1210.525429
1210.525522
1210.525577
1210.525607
1210.525647
1210.5212
1210.522356
1210.523456
1210.524392
1210.525179
1210.525742
1210.526169
1210.526474
1210.526668
1210.526814
1210.526864
1210.526915
1210.526915
1210.52689
1210.526858
1210.519735
1210.520562
1210.521468
1210.522334
1210.523086
1210.523711
1210.524217
1210.524605
1210.524895
1210.525109
1210.525244
1210.525341
1210.525406
1210.525473
1210.525491
1210.519148
1210.519598
1210.52017
1210.520776
1210.521367
1210.521918
1210.52242
1210.522886
1210.523236
1210.523557
1210.523836
1210.52408
1210.524275
1210.524422
1210.524512
1210.518594
1210.518809
1210.519078
1210.519419
1210.519812
1210.520205
1210.520604
1210.521012
1210.521402
1210.521748
1210.522079
1210.522396
1210.522651
1210.522899
1210.523094
1210.519416
1210.519586
1210.519802
1210.520078
1210.520389
1210.520695
1210.521049
1210.521405
1210.521775
1210.522108
1210.52243
1210.522745
1210.523036
1210.523263
1210.51932
1210.519388
1210.519487
1210.51963
1210.519819
1210.520029
1210.5203
1210.5206
1210.520938
1210.521265
1210.521597
1210.521933
1210.522257
1210.522567
1210.522803
1210.518748
1210.518871
1210.519026
1210.519222
1210.519473
1210.519772
1210.520109
1210.520462
1210.52083
1210.521179
1210.521522
1210.521839
1210.522167
1210.522436
1210.522671
1210.519726
1210.519912
1210.5202
1210.520543
1210.520956
1210.521357
1210.521815
1210.522248
1210.522689
1210.523056
1210.523389
1210.523713
1210.52398
1210.524214
1210.524434
1210.518091
1210.518442
1210.518881
1210.51939
1210.519927
1210.520459
1210.520953
1210.521434
1210.521863
1210.522252
1210.522555
1210.522839
1210.523086
1210.523297
1210.523457
1210.518859
1210.519279
1210.519807
1210.520384
1210.52096
1210.521539
1210.522044
1210.522518
1210.522912
1210.523258
1210.52356
1210.523846
1210.524081
1210.524269
1210.524386
1210.519402
1210.519743
1210.520179
1210.520685
1210.521228
1210.521753
1210.522279
1210.522759
1210.523185
1210.523553
1210.523881
1210.524154
1210.524395
1210.524612
1210.524741
1210.519054
1210.519263
1210.51954
1210.519902
1210.5203
1210.520713
1210.52114
1210.521547
1210.521962
1210.522332
1210.522697
1210.522986
1210.523281
1210.523532
1210.523745
1210.519048
1210.519141
1210.519318
1210.519528
1210.519796
1210.520098
1210.520424
1210.520768
1210.521115
1210.521442
1210.521798
1210.522134
1210.522445
1210.522713
1210.522914
1210.518749
1210.518811
1210.51892
1210.519052
1210.519259
1210.519467
1210.519725
1210.520018
1210.520328
1210.520649
1210.520991
1210.521336
1210.521655
1210.521956
1210.52219
)
;

boundaryField
{
    top
    {
        type            calculated;
        value           nonuniform List<scalar> 
127
(
1210.518749
1210.519581
1210.519839
1210.518114
1210.518995
1210.520744
1210.519919
1210.518731
1210.519416
1210.518811
1210.519678
1210.520009
1210.518383
1210.519419
1210.521274
1210.52036
1210.519032
1210.519586
1210.51892
1210.519807
1210.520229
1210.518731
1210.519949
1210.521846
1210.520882
1210.519367
1210.519802
1210.519052
1210.519978
1210.52049
1210.519123
1210.520477
1210.522433
1210.521398
1210.519781
1210.520078
1210.519259
1210.52022
1210.520788
1210.519563
1210.520996
1210.522988
1210.521949
1210.520188
1210.520389
1210.519467
1210.520491
1210.521151
1210.519985
1210.521509
1210.523514
1210.522434
1210.520627
1210.520695
1210.519725
1210.520783
1210.52147
1210.520392
1210.521992
1210.523953
1210.522884
1210.521055
1210.521049
1210.520018
1210.521093
1210.521825
1210.520807
1210.522439
1210.524379
1210.52332
1210.521463
1210.521405
1210.520328
1210.521421
1210.522177
1210.521184
1210.522823
1210.52475
1210.523698
1210.521845
1210.521775
1210.520649
1210.521755
1210.522513
1210.521536
1210.523123
1210.52505
1210.524002
1210.522188
1210.522108
1210.520991
1210.522082
1210.522849
1210.521844
1210.523431
1210.525307
1210.524295
1210.522498
1210.52243
1210.521336
1210.522413
1210.523161
1210.522158
1210.523651
1210.52551
1210.524505
1210.522769
1210.522745
1210.521655
1210.52271
1210.523434
1210.522428
1210.523876
1210.525677
1210.524725
1210.523013
1210.523036
1210.521956
1210.522947
1210.523665
1210.522591
1210.52404
1210.525793
1210.524872
1210.523209
1210.523263
1210.52219
)
;
    }
    bottom
    {
        type            calculated;
        value           nonuniform List<scalar> 
134
(
1210.518869
1210.519048
1210.519596
1210.519653
1210.519578
1210.51877
1210.519182
1210.51932
1210.518959
1210.518977
1210.519251
1210.519925
1210.520076
1210.519923
1210.518976
1210.519286
1210.519388
1210.51904
1210.519137
1210.519543
1210.520396
1210.520619
1210.52036
1210.519238
1210.519437
1210.519487
1210.5192
1210.519344
1210.519899
1210.520923
1210.521195
1210.520866
1210.519604
1210.519659
1210.51963
1210.519385
1210.51964
1210.520297
1210.52144
1210.521802
1210.521401
1210.520016
1210.519935
1210.519819
1210.519612
1210.519923
1210.520741
1210.52198
1210.522354
1210.521918
1210.520452
1210.520216
1210.520029
1210.519871
1210.520261
1210.521187
1210.522477
1210.522875
1210.522425
1210.520871
1210.520542
1210.5203
1210.520152
1210.520624
1210.521592
1210.522963
1210.52334
1210.52288
1210.521247
1210.520883
1210.5206
1210.520451
1210.520972
1210.521966
1210.523367
1210.523753
1210.523293
1210.521677
1210.521256
1210.520938
1210.520766
1210.521325
1210.522348
1210.523747
1210.524099
1210.523657
1210.522038
1210.521626
1210.521265
1210.521093
1210.521685
1210.522707
1210.524084
1210.524388
1210.52397
1210.522375
1210.521947
1210.521597
1210.521427
1210.52201
1210.523018
1210.524371
1210.524639
1210.524253
1210.522716
1210.522262
1210.521933
1210.52173
1210.522305
1210.523288
1210.524612
1210.524871
1210.52448
1210.523003
1210.522585
1210.522257
1210.522032
1210.522597
1210.523556
1210.524823
1210.525047
1210.524699
1210.52325
1210.522872
1210.522567
1210.52228
1210.522798
1210.523728
1210.524963
1210.525187
1210.524827
1210.523415
1210.523099
1210.522803
)
;
    }
    side-walls
    {
        type            calculated;
        value           nonuniform List<scalar> 
261
(
1210.518959
1210.518186
1210.519191
1210.519171
1210.520278
1210.520016
1210.519326
1210.519395
1210.519581
1210.51904
1210.518333
1210.519491
1210.519617
1210.520821
1210.52043
1210.519592
1210.519576
1210.519678
1210.5192
1210.518548
1210.519846
1210.520086
1210.521398
1210.520932
1210.51995
1210.519781
1210.519807
1210.519385
1210.518788
1210.520219
1210.520635
1210.521991
1210.521469
1210.520338
1210.520074
1210.519978
1210.519612
1210.519104
1210.520653
1210.521175
1210.522563
1210.521966
1210.520762
1210.520383
1210.52022
1210.519871
1210.519426
1210.521087
1210.521685
1210.523111
1210.522506
1210.521192
1210.520723
1210.520491
1210.520152
1210.519795
1210.521518
1210.522141
1210.523585
1210.522992
1210.521612
1210.521061
1210.520783
1210.520451
1210.520165
1210.521918
1210.522562
1210.524
1210.523416
1210.521986
1210.521434
1210.521093
1210.520766
1210.520527
1210.522282
1210.522923
1210.524353
1210.52378
1210.522381
1210.521799
1210.521421
1210.521093
1210.520857
1210.522626
1210.523243
1210.524661
1210.524105
1210.522728
1210.522124
1210.521755
1210.521427
1210.521204
1210.522946
1210.523527
1210.524908
1210.524389
1210.523054
1210.522468
1210.522082
1210.52173
1210.521533
1210.523226
1210.523757
1210.525131
1210.524636
1210.523358
1210.522778
1210.522413
1210.522032
1210.521809
1210.523469
1210.52397
1210.525319
1210.524853
1210.523615
1210.523077
1210.52271
1210.52228
1210.522034
1210.523627
1210.524109
1210.52546
1210.52499
1210.523788
1210.523274
1210.522947
1210.51932
1210.518748
1210.519726
1210.518091
1210.518859
1210.519402
1210.519054
1210.519048
1210.518749
1210.519388
1210.518871
1210.519912
1210.518442
1210.519279
1210.519743
1210.519263
1210.519141
1210.518811
1210.519487
1210.519026
1210.5202
1210.518881
1210.519807
1210.520179
1210.51954
1210.519318
1210.51892
1210.51963
1210.519222
1210.520543
1210.51939
1210.520384
1210.520685
1210.519902
1210.519528
1210.519052
1210.519819
1210.519473
1210.520956
1210.519927
1210.52096
1210.521228
1210.5203
1210.519796
1210.519259
1210.520029
1210.519772
1210.521357
1210.520459
1210.521539
1210.521753
1210.520713
1210.520098
1210.519467
1210.5203
1210.520109
1210.521815
1210.520953
1210.522044
1210.522279
1210.52114
1210.520424
1210.519725
1210.5206
1210.520462
1210.522248
1210.521434
1210.522518
1210.522759
1210.521547
1210.520768
1210.520018
1210.520938
1210.52083
1210.522689
1210.521863
1210.522912
1210.523185
1210.521962
1210.521115
1210.520328
1210.521265
1210.521179
1210.523056
1210.522252
1210.523258
1210.523553
1210.522332
1210.521442
1210.520649
1210.521597
1210.521522
1210.523389
1210.522555
1210.52356
1210.523881
1210.522697
1210.521798
1210.520991
1210.521933
1210.521839
1210.523713
1210.522839
1210.523846
1210.524154
1210.522986
1210.522134
1210.521336
1210.522257
1210.522167
1210.52398
1210.523086
1210.524081
1210.524395
1210.523281
1210.522445
1210.521655
1210.522567
1210.522436
1210.524214
1210.523297
1210.524269
1210.524612
1210.523532
1210.522713
1210.521956
1210.522803
1210.522671
1210.524434
1210.523457
1210.524386
1210.524741
1210.523745
1210.522914
1210.52219
)
;
    }
    inlet
    {
        type            calculated;
        value           nonuniform 0();
    }
    outlet
    {
        type            calculated;
        value           nonuniform List<scalar> 
81
(
1210.52228
1210.522034
1210.523627
1210.524109
1210.52546
1210.52499
1210.523788
1210.523274
1210.522947
1210.522798
1210.523659
1210.52614
1210.525356
1210.526937
1210.524773
1210.526034
1210.522937
1210.523665
1210.523728
1210.523772
1210.525793
1210.527625
1210.527404
1210.526974
1210.526581
1210.525613
1210.522591
1210.524963
1210.52652
1210.527245
1210.530285
1210.531422
1210.528875
1210.527799
1210.524283
1210.52404
1210.525187
1210.52577
1210.527985
1210.530646
1210.133731
1210.530577
1210.5287
1210.526762
1210.525793
1210.524827
1210.52565
1210.528244
1210.529046
1210.530768
1210.529465
1210.527408
1210.526236
1210.524872
1210.523415
1210.525463
1210.526
1210.527867
1210.528332
1210.528449
1210.526593
1210.524416
1210.523209
1210.523099
1210.523208
1210.525326
1210.525647
1210.526858
1210.525491
1210.524512
1210.523094
1210.523263
1210.522803
1210.522671
1210.524434
1210.523457
1210.524386
1210.524741
1210.523745
1210.522914
1210.52219
)
;
    }
    procBoundary1to0
    {
        type            processor;
        value           nonuniform List<scalar> 
97
(
1210.518879
1210.518879
1210.51809
1210.518987
1210.518812
1210.519859
1210.519646
1210.519145
1210.519282
1210.519523
1210.518797
1210.519192
1210.519192
1210.519192
1210.520738
1210.519569
1210.521362
1210.518891
1210.52065
1210.518443
1210.51972
1210.518894
1210.5182
1210.519838
1210.519838
1210.519838
1210.52257
1210.525294
1210.521881
1210.52061
1210.520245
1210.517912
1210.519367
1210.520037
1210.519889
1210.532335
1210.532335
1210.532335
1210.557824
1210.530866
1210.522709
1210.518501
1210.518659
1210.519365
1210.519093
1210.521219
1210.529689
1210.368044
1210.368044
1210.368044
1210.557053
1210.557053
1210.52664
1210.521105
1210.520311
1210.519351
1210.51919
1210.520835
1210.522906
1210.529769
1210.523296
1210.522379
1210.522379
1210.522379
1210.520404
1210.519582
1210.518628
1210.519903
1210.519307
1210.520452
1210.521552
1210.52111
1210.5199
1210.519046
1210.519046
1210.519046
1210.518534
1210.51912
1210.51859
1210.519778
1210.519224
1210.520225
1210.519114
1210.518912
1210.51848
1210.519306
1210.519306
1210.519306
1210.519274
1210.5187
1210.519596
1210.517852
1210.518586
1210.519171
1210.518917
1210.518993
1210.518721
)
;
    }
}


// ************************************************************************* //
