/*--------------------------------*- C++ -*----------------------------------*\
| =========                 |                                                 |
| \\      /  F ield         | OpenFOAM: The Open Source CFD Toolbox           |
|  \\    /   O peration     | Version:  4.x                                   |
|   \\  /    A nd           | Web:      www.OpenFOAM.org                      |
|    \\/     M anipulation  |                                                 |
\*---------------------------------------------------------------------------*/
FoamFile
{
    version     2.0;
    format      ascii;
    class       volScalarField;
    location    "11000";
    object      molarConc;
}
// * * * * * * * * * * * * * * * * * * * * * * * * * * * * * * * * * * * * * //

dimensions      [0 -3 0 0 1 0 0];

internalField   nonuniform List<scalar> 
1174
(
9.96328376
9.963284765
9.963283727
9.963283696
9.96328356
9.963283718
9.963284221
9.963284885
9.963285447
9.963285626
9.963285373
9.963286306
9.963286087
9.963285363
9.963331268
9.963331984
9.963331896
9.963333071
9.9633323
9.963332666
9.963331491
9.963330599
9.963330071
9.963330836
9.96332992
9.96332897
9.963329354
9.963329022
9.963287593
9.96328672
9.963286498
9.963287966
9.963287446
9.963287348
9.963287004
9.963287254
9.963288005
9.963288251
9.963288102
9.963288351
9.963288577
9.963290074
9.963305403
9.963305147
9.963307269
9.963306504
9.963306129
9.963306062
9.963306777
9.963306917
9.963307664
9.963308114
9.96330807
9.963308764
9.963308129
9.963308524
9.963256731
9.963255944
9.963255894
9.963255443
9.963254865
9.963253439
9.963253213
9.96325321
9.963253599
9.963253633
9.963254464
9.963254198
9.963253654
9.963252888
9.963259132
9.963260622
9.963260899
9.963260847
9.963262799
9.963261079
9.963260155
9.963260145
9.963260763
9.963260889
9.963260858
9.963260597
9.963259748
9.963260236
9.963280222
9.963281178
9.963280831
9.963281426
9.963281483
9.963281648
9.963281832
9.963283496
9.963282602
9.963282696
9.963282177
9.963281114
9.963280598
9.963281278
9.963265022
9.963263899
9.963264359
9.963262668
9.963262221
9.963261637
9.963262153
9.963261097
9.963260419
9.963261468
9.963260727
9.963260822
9.963259923
9.963261085
9.963249715
9.963249817
9.963250489
9.963251212
9.9632503
9.963249724
9.96324964
9.963249738
9.963249539
9.963249376
9.96324945
9.963248906
9.963248926
9.963248805
9.963287909
9.963287913
9.963287937
9.963288285
9.963286407
9.963287408
9.963286976
9.963286058
9.963286379
9.963286373
9.96328552
9.963285802
9.963286725
9.963286218
9.963287169
9.963274028
9.963272546
9.963274261
9.963275044
9.963274796
9.963275025
9.963275449
9.963274861
9.963277181
9.963278481
9.963277944
9.963277392
9.963276826
9.963278036
9.963207919
9.963208466
9.96320784
9.963208611
9.963209378
9.963207325
9.963207261
9.963207528
9.963207099
9.963205913
9.963205676
9.963205959
9.963205067
9.963203491
9.963302803
9.963303035
9.963302187
9.963301785
9.96330184
9.963302802
9.963302308
9.963302738
9.96330252
9.963303025
9.963303818
9.963304672
9.963305059
9.963303781
9.963234384
9.963236947
9.963237386
9.963239575
9.963240254
9.963240048
9.963240815
9.963240098
9.963240135
9.963240859
9.963240487
9.963240172
9.963240751
9.963240912
9.963340792
9.9633389
9.96333667
9.963336489
9.9633365
9.963338712
9.963339095
9.963338928
9.963339065
9.963337311
9.963337039
9.963337114
9.963336515
9.963335706
9.963212988
9.963213133
9.96321202
9.963213245
9.963211989
9.963212646
9.963211696
9.963211723
9.963210547
9.963209413
9.963209848
9.963210108
9.963210454
9.963209272
9.963318216
9.963317723
9.963318402
9.96331941
9.963318492
9.963317317
9.963318106
9.963318262
9.963318507
9.963318858
9.963318154
9.963318
9.963318904
9.963317536
9.963240686
9.96324015
9.96323984
9.963239895
9.963240065
9.963238236
9.96323972
9.963239651
9.963239678
9.963240123
9.963239841
9.96323984
9.963240359
9.963239659
9.963284268
9.963284312
9.963283871
9.963283582
9.963283654
9.963282626
9.963281889
9.963282953
9.963284621
9.963284401
9.963283864
9.963284143
9.963284937
9.963283853
9.963284553
9.963329914
9.963329828
9.963328575
9.963329983
9.963330034
9.963332234
9.963332449
9.963331461
9.963330913
9.963330622
9.963330713
9.963329915
9.963331836
9.963332512
9.963333151
9.963307613
9.96330724
9.963306609
9.963307027
9.963306285
9.963305519
9.963304883
9.963306132
9.963306813
9.96330583
9.963305233
9.963305654
9.963306033
9.963305486
9.963280577
9.963280464
9.963280344
9.963281335
9.963280597
9.963281597
9.963281447
9.963281046
9.963282061
9.963282906
9.963283086
9.96328346
9.963283329
9.963283737
9.963326784
9.963324478
9.963324499
9.963323626
9.963325103
9.963324764
9.963326098
9.963326921
9.963327272
9.963326817
9.963327823
9.963327986
9.963327705
9.96332859
9.96331962
9.963319619
9.963319741
9.963320921
9.963320815
9.963321467
9.96332062
9.963318256
9.963318824
9.963318811
9.96331881
9.96331885
9.963318909
9.963319378
9.963264712
9.963264833
9.9632633
9.963263306
9.96326191
9.96326121
9.963261544
9.963262084
9.963261205
9.963260363
9.963261979
9.963260442
9.963261535
9.963262305
9.963234918
9.963234974
9.963234183
9.963233764
9.963235515
9.9632365
9.963236919
9.96323549
9.963233376
9.963233363
9.963232134
9.963231685
9.963232181
9.963232309
9.963346564
9.9633474
9.963347601
9.963347964
9.963347151
9.963347729
9.963348673
9.963348093
9.963348154
9.963347992
9.963348453
9.963346866
9.963345601
9.963346814
9.963263463
9.963264101
9.963262512
9.963261432
9.963262428
9.963262034
9.963262648
9.963261781
9.96326284
9.963262583
9.963262033
9.963261853
9.96326195
9.963261394
9.963261753
9.96324202
9.963240792
9.963240891
9.963241124
9.963240514
9.963240142
9.963239564
9.963240964
9.963240625
9.963239974
9.96323968
9.963239917
9.963239271
9.963239389
9.963240025
9.963307015
9.963305659
9.963305604
9.963304494
9.963302335
9.963303086
9.963302253
9.963302605
9.963303461
9.963303542
9.96330479
9.963304275
9.963305249
9.963304718
9.963304548
9.96323585
9.963235254
9.963237627
9.963238146
9.963238801
9.963238618
9.963239104
9.963239369
9.963239614
9.963239403
9.96323906
9.963238597
9.963238691
9.963237565
9.963216506
9.963218506
9.96321848
9.963219189
9.963218602
9.963218377
9.963218557
9.963217046
9.96321854
9.963217361
9.963216886
9.963217179
9.963217166
9.963217107
9.963317414
9.963317228
9.963317159
9.963316718
9.963316399
9.963316456
9.963316878
9.963316734
9.963315329
9.96331533
9.963314126
9.963314152
9.963314535
9.963314749
9.963273639
9.963273897
9.963273298
9.963272285
9.963272703
9.963272063
9.963270463
9.963271606
9.9632728
9.963271738
9.963272898
9.963272391
9.96327349
9.963274176
9.963361444
9.963361118
9.963359731
9.963359228
9.963359284
9.963360734
9.963359422
9.963360711
9.963362332
9.96336254
9.963362658
9.963362728
9.963363184
9.963362564
9.963315023
9.963315996
9.963314756
9.963315185
9.963315923
9.96331566
9.963314922
9.963313636
9.963313153
9.963314658
9.963313349
9.963314569
9.963313243
9.96331224
9.963267285
9.963267794
9.963267013
9.963267026
9.963265781
9.963266342
9.963266328
9.963266642
9.963266708
9.963267531
9.963268582
9.963269176
9.963268459
9.963268589
9.963267823
9.963306222
9.963305086
9.963305734
9.963306338
9.963306608
9.963304718
9.963303288
9.963303611
9.963303359
9.963303435
9.9633029
9.963302206
9.963302262
9.9633038
9.963304856
9.963295189
9.963294338
9.963294457
9.963295811
9.963295248
9.963295186
9.963295351
9.963295469
9.963294763
9.963294925
9.963294542
9.96329405
9.963296072
9.96329711
9.963296789
9.963256265
9.96325508
9.96325505
9.963254858
9.963255247
9.963256568
9.963257009
9.963257672
9.963257587
9.963258728
9.963258886
9.963259744
9.963259369
9.963260416
9.963259618
9.984912542
9.984924959
9.984938111
9.984950129
9.984961764
9.984972991
9.984983768
9.984994276
9.985005367
9.985017551
9.985030087
9.985041243
9.98505242
9.98506263
9.963257822
9.963256863
9.963259163
9.963259969
9.963259147
9.963260089
9.963260733
9.963261659
9.963261536
9.963261318
9.963262536
9.9632628
9.963262194
9.963263373
9.96325313
9.963252821
9.963253326
9.963255831
9.963254946
9.96325466
9.963255189
9.963254086
9.963255276
9.96325572
9.963256499
9.963255997
9.963256086
9.963257639
9.963251718
9.963252487
9.963252281
9.963251723
9.963251978
9.963251606
9.963252632
9.963252434
9.963252367
9.963251301
9.963250818
9.963250246
9.963249783
9.963250493
9.963231184
9.963231148
9.963231351
9.963231241
9.963231577
9.963231363
9.963233029
9.963232466
9.963231868
9.963232352
9.963232588
9.963233422
9.963234053
9.963234647
9.963264449
9.963264196
9.963264452
9.963264533
9.963264569
9.963265442
9.963265534
9.963266305
9.963266894
9.963267501
9.963268276
9.963268321
9.963269156
9.963268213
9.963269173
9.963289711
9.963289417
9.963288413
9.963288775
9.963288187
9.963288126
9.963288493
9.9632875
9.963287989
9.963287608
9.963287763
9.963287275
9.96328879
9.963287621
9.963287708
9.96325362
9.963251396
9.96325011
9.963251057
9.963252115
9.963251504
9.96324977
9.963250145
9.963248836
9.96325032
9.963250182
9.963249497
9.963250442
9.96325071
9.963249829
9.963303331
9.963302957
9.963301858
9.963301665
9.963301361
9.963302585
9.963304368
9.963303654
9.963303525
9.963304389
9.963304299
9.963304794
9.963304594
9.96330445
9.963305391
9.963252079
9.963251501
9.963252845
9.963252789
9.963252614
9.963253315
9.963253092
9.963252761
9.96325399
9.963254663
9.963254718
9.963253427
9.963253725
9.963253463
9.963252948
9.963281026
9.963281192
9.96328177
9.963281184
9.9632809
9.963281207
9.963282268
9.963283385
9.963283845
9.963282436
9.963281711
9.963282037
9.963281487
9.963282134
9.96328246
9.963292549
9.963291115
9.963293239
9.963293301
9.963293578
9.963293562
9.963294696
9.96329526
9.963294604
9.963295033
9.963294672
9.963294683
9.963295038
9.963295591
9.963256965
9.963257625
9.963254824
9.96325557
9.963255182
9.963254381
9.963256346
9.963256864
9.963256749
9.963257585
9.963256103
9.96325648
9.963257069
9.963255589
9.963264447
9.963264479
9.963263677
9.963264744
9.963263769
9.963265015
9.963266098
9.963265406
9.963265232
9.96326654
9.963266013
9.963267772
9.963266752
9.963266675
9.963299451
9.963299339
9.963300584
9.963299762
9.96329906
9.963298477
9.963299191
9.963301807
9.963300423
9.963301366
9.963302044
9.963300691
9.963300569
9.96330061
9.963301683
9.963237776
9.96323761
9.963238808
9.963238219
9.963238817
9.963236408
9.963237197
9.96323907
9.963238317
9.963239109
9.963239713
9.963239234
9.963240015
9.963239607
9.963240545
9.963292622
9.963292296
9.963291931
9.963292785
9.96329251
9.963292646
9.963293873
9.963292979
9.963294112
9.963293774
9.963294914
9.96329493
9.963294329
9.963295082
9.963294143
9.963274494
9.963274141
9.963275467
9.963274792
9.96327359
9.963274129
9.963273412
9.963272685
9.963271533
9.963272653
9.963272102
9.963273085
9.963272824
9.96327223
9.96327044
9.96327631
9.963275753
9.963275436
9.963273878
9.96327348
9.963274635
9.963275331
9.963277628
9.963277509
9.96327687
9.963277897
9.963277578
9.9632772
9.96327779
9.963277769
9.963239649
9.96323971
9.963240212
9.9632403
9.963238859
9.963238856
9.963238474
9.963238579
9.96323884
9.96323838
9.963238793
9.963239182
9.963237803
9.963238015
9.963238573
9.963257801
9.963258054
9.963258301
9.963260057
9.963260633
9.963259765
9.963261208
9.963262623
9.963263054
9.963261289
9.963261181
9.963261197
9.963261617
9.963261486
9.963261674
9.963300519
9.963300165
9.963299346
9.963298189
9.963298536
9.963298933
9.963297678
9.963297427
9.963298528
9.963298265
9.963298789
9.963300584
9.963299359
9.963297884
9.963312792
9.963311868
9.963312737
9.963311923
9.963312938
9.963312573
9.963312341
9.963312168
9.963311958
9.963312267
9.963312621
9.963313344
9.96331356
9.963312967
9.963270788
9.963270998
9.963271509
9.963271037
9.963270288
9.963271397
9.963271545
9.963271873
9.963270847
9.963269894
9.963271121
9.963271974
9.963271383
9.963271159
9.963270665
9.963301285
9.96330092
9.963301586
9.963300309
9.963299755
9.963300556
9.96330086
9.963299714
9.963301194
9.963301975
9.96330187
9.963301671
9.963302525
9.963302867
9.963302716
9.963243794
9.963245891
9.963244877
9.963244043
9.963243994
9.96324429
9.963245902
9.963246932
9.963247233
9.963247364
9.963246952
9.963246617
9.963247575
9.963248421
9.963248061
9.963288917
9.963285428
9.963285395
9.963286419
9.963286728
9.963286193
9.963286548
9.963287512
9.963287143
9.963286076
9.963285356
9.963286217
9.963287296
9.963288387
9.963287867
9.963245002
9.963245282
9.963245406
9.963245271
9.963242704
9.963242649
9.963241791
9.963241098
9.963241451
9.963240643
9.963242248
9.963241813
9.963242696
9.963243991
9.963245259
9.963293462
9.963294246
9.963294689
9.96329492
9.963295369
9.963295482
9.963295014
9.963294728
9.963294552
9.963294453
9.96329547
9.96329611
9.963296685
9.963295726
9.963296398
9.963295212
9.963294818
9.963293579
9.96329311
9.963293317
9.963293626
9.963293584
9.963291969
9.96329335
9.963293149
9.96329254
9.963291479
9.963291095
9.96329147
9.963292588
9.96330925
9.963308732
9.963309472
9.963309642
9.963309219
9.963309908
9.963310476
9.963309965
9.963309384
9.963309976
9.963309869
9.963309047
9.963310086
9.963309644
9.963308942
9.963263884
9.963263322
9.963263188
9.963262459
9.963261875
9.96326318
9.963262805
9.963262693
9.963261696
9.963262293
9.963262777
9.963262586
9.963262151
9.963261681
9.963260493
9.963260261
9.96326028
9.963260163
9.963259926
9.963260768
9.963260216
9.963259664
9.963258244
9.963258115
9.963258
9.963257639
9.963257424
9.963256764
9.963256683
9.963294523
9.963293713
9.963294034
9.963294972
9.963295555
9.963295715
9.96329528
9.963294952
9.963294158
9.963294336
9.963294431
9.963295141
9.963294243
9.963295013
9.963294095
9.963247084
9.963248103
9.963247849
9.963248343
9.963247569
9.963248889
9.963247489
9.963246964
9.963245011
9.963245648
9.963246481
9.9632461
9.963247033
9.963247758
9.963245905
9.963345898
9.963345315
9.963345443
9.96334536
9.963345324
9.963345373
9.963346116
9.963345504
9.963345185
9.963344419
9.963345769
9.963345733
9.963345513
9.963344948
9.963344193
9.963310746
9.963311433
9.963311435
9.963311416
9.963311877
9.963310927
9.963311829
9.963311601
9.963312784
9.963313586
9.96331392
9.963312559
9.963311697
9.963311162
9.963311704
9.963274107
9.963274089
9.963274388
9.963274435
9.963274055
9.963274459
9.963273486
9.963272903
9.963272781
9.963273157
9.963273155
9.96327372
9.963273815
9.963272925
9.96327388
9.963283903
9.963283654
9.963284037
9.963283414
9.963283519
9.963284149
9.963284453
9.963285364
9.963284812
9.963285268
9.96328438
9.963285916
9.963285317
9.963285116
9.963283595
9.963278112
9.963278948
9.963278037
9.963278239
9.963277853
9.96327784
9.96327805
9.963278178
9.963278559
9.963279955
9.963279273
9.963278967
9.963278997
9.963279845
9.963280775
9.963291753
9.963291857
9.963291339
9.96329186
9.963290606
9.963291545
9.963291702
9.963291575
9.963291609
9.963291859
9.963291225
9.963290333
9.963290386
9.963290258
9.963290239
)
;

boundaryField
{
    top
    {
        type            calculated;
        value           nonuniform List<scalar> 
127
(
9.963291753
9.963249715
9.963240686
9.963346564
9.963315023
9.963231184
9.963264447
9.963312792
9.963263884
9.963291857
9.963249817
9.96324015
9.9633474
9.963315996
9.963231148
9.963264479
9.963311868
9.963263322
9.963291339
9.963250489
9.96323984
9.963347601
9.963314756
9.963231351
9.963263677
9.963312737
9.963263188
9.96329186
9.963251212
9.963239895
9.963347964
9.963315185
9.963231241
9.963264744
9.963311923
9.963262459
9.963290606
9.9632503
9.963240065
9.963347151
9.963315923
9.963231577
9.963263769
9.963312938
9.963261875
9.963291545
9.963249724
9.963238236
9.963347729
9.96331566
9.963231363
9.963265015
9.963312573
9.96326318
9.963291702
9.96324964
9.96323972
9.963348673
9.963314922
9.963233029
9.963266098
9.963312341
9.963262805
9.963291575
9.963249738
9.963239651
9.963348093
9.963313636
9.963232466
9.963265406
9.963312168
9.963262693
9.963291609
9.963249539
9.963239678
9.963348154
9.963313153
9.963231868
9.963265232
9.963311958
9.963261696
9.963291859
9.963249376
9.963240123
9.963347992
9.963314658
9.963232352
9.96326654
9.963312267
9.963262293
9.963291225
9.96324945
9.963239841
9.963348453
9.963313349
9.963232588
9.963266013
9.963312621
9.963262777
9.963290333
9.963248906
9.96323984
9.963346866
9.963314569
9.963233422
9.963267772
9.963313344
9.963262586
9.963290386
9.963248926
9.963240359
9.963345601
9.963313243
9.963234053
9.963266752
9.96331356
9.963262151
9.963290258
9.963248805
9.963239659
9.963346814
9.96331224
9.963234647
9.963266675
9.963312967
9.963261681
9.963290239
)
;
    }
    bottom
    {
        type            calculated;
        value           nonuniform List<scalar> 
134
(
9.963287909
9.963284268
9.963263463
9.963267285
9.963264449
9.963299451
9.963270788
9.963260493
9.96328376
9.963287913
9.963284312
9.963264101
9.963267794
9.963264196
9.963299339
9.963270998
9.963260261
9.963284765
9.963287937
9.963283871
9.963262512
9.963267013
9.963264452
9.963300584
9.963271509
9.96326028
9.963283727
9.963288285
9.963283582
9.963261432
9.963267026
9.963264533
9.963299762
9.963271037
9.963260163
9.963283696
9.963286407
9.963283654
9.963262428
9.963265781
9.963264569
9.96329906
9.963270288
9.963259926
9.96328356
9.963287408
9.963282626
9.963262034
9.963266342
9.963265442
9.963298477
9.963271397
9.963260768
9.963283718
9.963286976
9.963281889
9.963262648
9.963266328
9.963265534
9.963299191
9.963271545
9.963260216
9.963284221
9.963286058
9.963282953
9.963261781
9.963266642
9.963266305
9.963301807
9.963271873
9.963259664
9.963284885
9.963286379
9.963284621
9.96326284
9.963266708
9.963266894
9.963300423
9.963270847
9.963258244
9.963285447
9.963286373
9.963284401
9.963262583
9.963267531
9.963267501
9.963301366
9.963269894
9.963258115
9.963285626
9.96328552
9.963283864
9.963262033
9.963268582
9.963268276
9.963302044
9.963271121
9.963258
9.963285373
9.963285802
9.963284143
9.963261853
9.963269176
9.963268321
9.963300691
9.963271974
9.963257639
9.963286306
9.963286725
9.963284937
9.96326195
9.963268459
9.963269156
9.963300569
9.963271383
9.963257424
9.963286087
9.963286218
9.963283853
9.963261394
9.963268589
9.963268213
9.96330061
9.963271159
9.963256764
9.963285363
9.963287169
9.963284553
9.963261753
9.963267823
9.963269173
9.963301683
9.963270665
9.963256683
)
;
    }
    side-walls
    {
        type            calculated;
        value           nonuniform List<scalar> 
261
(
9.96328376
9.963331268
9.963287593
9.963305403
9.963256731
9.963259132
9.963280222
9.963265022
9.963249715
9.963284765
9.963331984
9.96328672
9.963305147
9.963255944
9.963260622
9.963281178
9.963263899
9.963249817
9.963283727
9.963331896
9.963286498
9.963307269
9.963255894
9.963260899
9.963280831
9.963264359
9.963250489
9.963283696
9.963333071
9.963287966
9.963306504
9.963255443
9.963260847
9.963281426
9.963262668
9.963251212
9.96328356
9.9633323
9.963287446
9.963306129
9.963254865
9.963262799
9.963281483
9.963262221
9.9632503
9.963283718
9.963332666
9.963287348
9.963306062
9.963253439
9.963261079
9.963281648
9.963261637
9.963249724
9.963284221
9.963331491
9.963287004
9.963306777
9.963253213
9.963260155
9.963281832
9.963262153
9.96324964
9.963284885
9.963330599
9.963287254
9.963306917
9.96325321
9.963260145
9.963283496
9.963261097
9.963249738
9.963285447
9.963330071
9.963288005
9.963307664
9.963253599
9.963260763
9.963282602
9.963260419
9.963249539
9.963285626
9.963330836
9.963288251
9.963308114
9.963253633
9.963260889
9.963282696
9.963261468
9.963249376
9.963285373
9.96332992
9.963288102
9.96330807
9.963254464
9.963260858
9.963282177
9.963260727
9.96324945
9.963286306
9.96332897
9.963288351
9.963308764
9.963254198
9.963260597
9.963281114
9.963260822
9.963248906
9.963286087
9.963329354
9.963288577
9.963308129
9.963253654
9.963259748
9.963280598
9.963259923
9.963248926
9.963285363
9.963329022
9.963290074
9.963308524
9.963252888
9.963260236
9.963281278
9.963261085
9.963248805
9.963260493
9.963294523
9.963247084
9.963345898
9.963310746
9.963274107
9.963283903
9.963278112
9.963291753
9.963260261
9.963293713
9.963248103
9.963345315
9.963311433
9.963274089
9.963283654
9.963278948
9.963291857
9.96326028
9.963294034
9.963247849
9.963345443
9.963311435
9.963274388
9.963284037
9.963278037
9.963291339
9.963260163
9.963294972
9.963248343
9.96334536
9.963311416
9.963274435
9.963283414
9.963278239
9.96329186
9.963259926
9.963295555
9.963247569
9.963345324
9.963311877
9.963274055
9.963283519
9.963277853
9.963290606
9.963260768
9.963295715
9.963248889
9.963345373
9.963310927
9.963274459
9.963284149
9.96327784
9.963291545
9.963260216
9.96329528
9.963247489
9.963346116
9.963311829
9.963273486
9.963284453
9.96327805
9.963291702
9.963259664
9.963294952
9.963246964
9.963345504
9.963311601
9.963272903
9.963285364
9.963278178
9.963291575
9.963258244
9.963294158
9.963245011
9.963345185
9.963312784
9.963272781
9.963284812
9.963278559
9.963291609
9.963258115
9.963294336
9.963245648
9.963344419
9.963313586
9.963273157
9.963285268
9.963279955
9.963291859
9.963258
9.963294431
9.963246481
9.963345769
9.96331392
9.963273155
9.96328438
9.963279273
9.963291225
9.963257639
9.963295141
9.9632461
9.963345733
9.963312559
9.96327372
9.963285916
9.963278967
9.963290333
9.963257424
9.963294243
9.963247033
9.963345513
9.963311697
9.963273815
9.963285317
9.963278997
9.963290386
9.963256764
9.963295013
9.963247758
9.963344948
9.963311162
9.963272925
9.963285116
9.963279845
9.963290258
9.963256683
9.963294095
9.963245905
9.963344193
9.963311704
9.96327388
9.963283595
9.963280775
9.963290239
)
;
    }
    inlet
    {
        type            calculated;
        value           nonuniform 0();
    }
    outlet
    {
        type            calculated;
        value           nonuniform List<scalar> 
81
(
9.963285363
9.963329022
9.963290074
9.963308524
9.963252888
9.963260236
9.963281278
9.963261085
9.963248805
9.963287169
9.963278036
9.963203491
9.963303781
9.963240912
9.963335706
9.963209272
9.963317536
9.963239659
9.963284553
9.963333151
9.963305486
9.963283737
9.96332859
9.963319378
9.963262305
9.963232309
9.963346814
9.963261753
9.963240025
9.963304548
9.963237565
9.963217107
9.963314749
9.963274176
9.963362564
9.96331224
9.963267823
9.963304856
9.963296789
9.963259618
9.98506263
9.963263373
9.963257639
9.963250493
9.963234647
9.963269173
9.963287708
9.963249829
9.963305391
9.963252948
9.96328246
9.963295591
9.963255589
9.963266675
9.963301683
9.963240545
9.963294143
9.96327044
9.963277769
9.963238573
9.963261674
9.963297884
9.963312967
9.963270665
9.963302716
9.963248061
9.963287867
9.963245259
9.963296398
9.963292588
9.963308942
9.963261681
9.963256683
9.963294095
9.963245905
9.963344193
9.963311704
9.96327388
9.963283595
9.963280775
9.963290239
)
;
    }
    procBoundary1to0
    {
        type            processor;
        value           nonuniform List<scalar> 
97
(
9.963284621
9.963284621
9.963330579
9.96328757
9.963306388
9.963255983
9.963260754
9.963278916
9.963265312
9.963249382
9.963288366
9.963276545
9.963276545
9.963276545
9.963208097
9.963302509
9.963236125
9.963339672
9.963212936
9.963317548
9.963241325
9.963285845
9.96333104
9.96330782
9.96330782
9.96330782
9.963280826
9.96332618
9.963318543
9.96326552
9.963235118
9.96334645
9.963263973
9.963243159
9.963306813
9.963236443
9.963236443
9.963236443
9.963217337
9.963316811
9.963273176
9.963361031
9.963314814
9.96326702
9.963306883
9.963295818
9.963250011
9.984922859
9.984922859
9.984922859
9.963259574
9.963259574
9.963252482
9.963250192
9.963231274
9.96326487
9.96328953
9.963255014
9.96330337
9.963245638
9.963282002
9.96329127
9.96329127
9.96329127
9.963256831
9.963264212
9.963300394
9.963237739
9.96329157
9.96327595
9.963277565
9.963239954
9.963259074
9.963300796
9.963300796
9.963300796
9.963312414
9.963270658
9.963302506
9.963244595
9.963287649
9.9632449
9.963293674
9.963292043
9.963308546
9.963264001
9.963264001
9.963264001
9.963260988
9.963293653
9.963247361
9.963346993
9.963309657
9.963274749
9.963284542
9.963277634
9.963291259
)
;
    }
}


// ************************************************************************* //
