/*--------------------------------*- C++ -*----------------------------------*\
| =========                 |                                                 |
| \\      /  F ield         | OpenFOAM: The Open Source CFD Toolbox           |
|  \\    /   O peration     | Version:  4.x                                   |
|   \\  /    A nd           | Web:      www.OpenFOAM.org                      |
|    \\/     M anipulation  |                                                 |
\*---------------------------------------------------------------------------*/
FoamFile
{
    version     2.0;
    format      ascii;
    class       volScalarField;
    location    "11000";
    object      N2;
}
// * * * * * * * * * * * * * * * * * * * * * * * * * * * * * * * * * * * * * //

dimensions      [0 0 0 0 0 0 0];

internalField   nonuniform List<scalar> 
1174
(
0.6215289184
0.6215285612
0.6215280566
0.6215273978
0.6215265926
0.621525658
0.6215246184
0.621523503
0.6215223405
0.6215211577
0.6215199799
0.6215188334
0.6215177658
0.6215169267
0.6215285817
0.6215280082
0.6215272442
0.6215263066
0.6215252285
0.621524049
0.621522808
0.6215215411
0.6215202799
0.6215190472
0.6215178641
0.6215167486
0.6215157354
0.6215149533
0.6215278373
0.6215268221
0.6215255646
0.6215241358
0.6215226135
0.6215210667
0.6215195493
0.6215181009
0.6215167462
0.6215154982
0.6215143632
0.6215133445
0.6215124583
0.6215117946
0.6215267455
0.6215251652
0.6215233496
0.6215214327
0.6215195254
0.6215177067
0.621516026
0.6215145107
0.6215131679
0.6215119932
0.6215109787
0.6215101106
0.621509389
0.621508867
0.6215259649
0.6215240732
0.6215220096
0.6215199192
0.621517908
0.6215160425
0.62151436
0.6215128738
0.6215115832
0.6215104777
0.6215095418
0.6215087585
0.6215081203
0.6215076664
0.6215267456
0.6215251652
0.6215233501
0.6215214325
0.621519525
0.6215177067
0.621516026
0.6215145105
0.6215131675
0.621511994
0.6215109791
0.6215101111
0.6215093893
0.6215088674
0.6215278372
0.6215268213
0.621525564
0.6215241355
0.6215226133
0.6215210666
0.6215195495
0.6215181004
0.6215167457
0.6215154982
0.6215143632
0.621513345
0.6215124589
0.6215117954
0.6215285811
0.621528008
0.6215272438
0.6215263063
0.6215252281
0.6215240487
0.6215228078
0.621521541
0.6215202799
0.6215190478
0.6215178646
0.6215167492
0.6215157363
0.6215149546
0.6215289174
0.6215285605
0.6215280558
0.6215273973
0.6215265921
0.6215256574
0.621524618
0.6215235028
0.6215223406
0.6215211581
0.6215199803
0.6215188342
0.6215177663
0.621516927
0.6215289685
0.6215285816
0.621528008
0.6215272438
0.6215263071
0.6215252291
0.6215240497
0.6215228081
0.6215215414
0.6215202795
0.6215190481
0.6215178644
0.6215167483
0.6215157357
0.6215149537
0.6215278219
0.6215268123
0.621525581
0.6215242016
0.6215227485
0.6215212853
0.621519858
0.6215184978
0.6215172233
0.6215160436
0.6215149627
0.6215139823
0.6215131202
0.6215124685
0.6215259073
0.6215239414
0.621521805
0.6215196773
0.621517683
0.6215158913
0.6215143262
0.6215129839
0.6215118465
0.6215108884
0.6215100843
0.6215094111
0.6215088586
0.6215084618
0.6215224981
0.6215192248
0.6215161108
0.6215133904
0.6215111465
0.6215093668
0.6215079974
0.6215069675
0.6215062074
0.6215056575
0.6215052679
0.621504998
0.6215048178
0.6215047116
0.6215192761
0.6215153333
0.6215119928
0.6215093431
0.6215073319
0.6215058577
0.6215048101
0.6215040926
0.6215036228
0.6215033367
0.6215031844
0.6215031266
0.621503131
0.621503162
0.6215224978
0.6215192248
0.6215161112
0.621513391
0.6215111467
0.6215093669
0.6215079972
0.6215069677
0.6215062079
0.6215056585
0.6215052688
0.6215049989
0.6215048186
0.621504712
0.6215259067
0.6215239414
0.6215218044
0.621519677
0.6215176837
0.6215158918
0.6215143259
0.6215129837
0.6215118466
0.6215108889
0.6215100851
0.6215094118
0.6215088591
0.6215084624
0.6215278212
0.6215268122
0.6215255808
0.6215242015
0.6215227491
0.6215212858
0.6215198579
0.6215184978
0.6215172235
0.6215160444
0.6215149633
0.6215139834
0.6215131211
0.6215124702
0.6215285812
0.6215280079
0.6215272433
0.6215263062
0.6215252284
0.6215240491
0.6215228074
0.621521541
0.6215202797
0.6215190481
0.6215178648
0.6215167494
0.6215157365
0.6215149545
0.6215285675
0.6215278376
0.6215268221
0.6215255649
0.6215241364
0.6215226142
0.6215210672
0.6215195498
0.6215181008
0.6215167458
0.6215154986
0.6215143639
0.6215133449
0.6215124584
0.621511795
0.6215274934
0.6215259076
0.6215239426
0.621521805
0.6215196771
0.6215176832
0.6215158914
0.6215143261
0.6215129838
0.6215118461
0.6215108881
0.6215100841
0.6215094111
0.6215088585
0.6215084614
0.6215202403
0.621516085
0.6215123208
0.6215092334
0.6215068836
0.6215052033
0.6215040732
0.621503366
0.6215029685
0.6215027887
0.6215027556
0.6215028154
0.6215029256
0.6215030365
0.621507613
0.6215005807
0.6214957292
0.6214928637
0.6214915173
0.6214912168
0.6214915812
0.6214923323
0.6214932833
0.6214943122
0.6214953432
0.6214963275
0.6214972189
0.6214979017
0.6214910437
0.6214840365
0.621481028
0.6214804987
0.6214813624
0.6214829357
0.6214848119
0.6214867612
0.6214886565
0.6214904342
0.6214920633
0.6214935298
0.621494806
0.6214957611
0.6215076138
0.6215005811
0.6214957297
0.6214928648
0.6214915184
0.621491218
0.6214915817
0.6214923334
0.6214932842
0.6214943128
0.6214953439
0.6214963284
0.6214972199
0.6214979033
0.6215202408
0.6215160849
0.621512321
0.6215092335
0.6215068839
0.6215052038
0.6215040739
0.6215033669
0.6215029702
0.62150279
0.6215027572
0.6215028174
0.6215029278
0.6215030382
0.6215259068
0.6215239415
0.6215218045
0.6215196772
0.6215176833
0.6215158917
0.6215143263
0.6215129843
0.6215118471
0.6215108894
0.6215100855
0.6215094129
0.6215088603
0.6215084633
0.6215278373
0.6215268215
0.6215255637
0.6215241353
0.6215226136
0.6215210668
0.6215195494
0.6215181013
0.6215167467
0.6215154988
0.6215143643
0.6215133462
0.62151246
0.6215117963
0.6215279643
0.621526746
0.6215251656
0.6215233504
0.6215214332
0.6215195258
0.6215177069
0.6215160267
0.6215145111
0.6215131678
0.6215119938
0.6215109791
0.6215101113
0.6215093891
0.6215088664
0.6215255085
0.6215224988
0.6215192254
0.6215161109
0.621513391
0.6215111467
0.6215093675
0.621507998
0.6215069676
0.6215062074
0.6215056582
0.6215052681
0.6215049982
0.6215048179
0.6215047111
0.62151619
0.6215076142
0.6215005812
0.6214957297
0.6214928644
0.6214915178
0.6214912178
0.6214915817
0.6214923331
0.6214932836
0.6214943123
0.6214953435
0.6214963277
0.6214972187
0.6214979023
0.6214642474
0.6214553632
0.6214538789
0.6214564099
0.6214607365
0.6214656054
0.6214703796
0.6214747744
0.6214786914
0.6214821239
0.621485103
0.6214876683
0.6214898246
0.6214914008
0.6213789865
0.6213900627
0.6214071376
0.6214235258
0.6214374589
0.6214488286
0.6214580015
0.6214654132
0.6214714413
0.6214763875
0.6214804786
0.6214838787
0.6214866643
0.6214886675
0.6214642497
0.6214553648
0.62145388
0.6214564114
0.6214607385
0.6214656071
0.6214703815
0.6214747762
0.6214786931
0.6214821255
0.6214851047
0.62148767
0.6214898255
0.6214914016
0.6215076133
0.6215005813
0.6214957301
0.6214928654
0.6214915192
0.6214912191
0.6214915836
0.6214923347
0.6214932852
0.6214943145
0.6214953459
0.6214963302
0.6214972208
0.6214979043
0.6215224978
0.6215192239
0.6215161108
0.6215133912
0.6215111475
0.6215093682
0.6215079989
0.6215069687
0.6215062092
0.6215056597
0.6215052699
0.6215050005
0.6215048203
0.6215047132
0.6215267453
0.6215251649
0.6215233498
0.6215214333
0.6215195254
0.6215177068
0.6215160273
0.6215145121
0.6215131687
0.6215119948
0.6215109803
0.621510113
0.6215093913
0.6215088692
0.621527511
0.6215259652
0.6215240739
0.6215220099
0.6215199204
0.6215179087
0.6215160429
0.6215143603
0.6215128746
0.621511584
0.6215104781
0.621509542
0.6215087588
0.6215081202
0.6215076665
0.6215234327
0.6215192767
0.6215153336
0.6215119931
0.6215093439
0.6215073335
0.6215058584
0.6215048108
0.6215040927
0.6215036232
0.6215033374
0.6215031852
0.6215031273
0.6215031313
0.6215031624
0.6215034813
0.6214910455
0.621484038
0.621481029
0.6214804997
0.6214813634
0.6214829363
0.6214848129
0.6214867615
0.621488657
0.6214904345
0.6214920636
0.62149353
0.6214948059
0.621495761
0.6213942173
0.6213789903
0.6213900656
0.6214071401
0.6214235279
0.6214374602
0.6214488291
0.6214580026
0.6214654139
0.6214714421
0.6214763877
0.6214804789
0.6214838791
0.6214866643
0.621488668
0.6210115612
0.6211983638
0.6213018459
0.6213624414
0.621399979
0.6214245365
0.6214414325
0.6214535858
0.6214626636
0.6214696581
0.6214751819
0.6214796173
0.6214831622
0.6214856715
0.6213789865
0.6213900664
0.6214071426
0.6214235303
0.6214374625
0.6214488319
0.6214580052
0.6214654162
0.6214714442
0.6214763896
0.6214804804
0.6214838809
0.6214866666
0.6214886699
0.6214910437
0.6214840379
0.6214810298
0.6214805011
0.6214813652
0.6214829383
0.6214848151
0.6214867645
0.6214886597
0.6214904367
0.6214920658
0.6214935321
0.6214948084
0.6214957632
0.6215192756
0.621515333
0.621511993
0.6215093442
0.6215073339
0.6215058597
0.6215048121
0.6215040946
0.6215036253
0.6215033397
0.6215031875
0.6215031295
0.6215031334
0.6215031648
0.6215259642
0.6215240731
0.6215220098
0.6215199196
0.6215179084
0.6215160435
0.6215143609
0.6215128751
0.6215115852
0.6215104803
0.6215095442
0.6215087611
0.6215081228
0.6215076687
0.6215279644
0.6215267462
0.6215251657
0.6215233504
0.6215214336
0.621519526
0.621517707
0.621516027
0.6215145112
0.6215131684
0.6215119941
0.6215109795
0.6215101117
0.6215093903
0.6215088677
0.6215255086
0.6215224988
0.6215192252
0.6215161113
0.6215133916
0.6215111473
0.6215093683
0.6215079988
0.6215069681
0.6215062085
0.6215056592
0.6215052694
0.6215049994
0.6215048191
0.6215047126
0.6215161912
0.6215076154
0.6215005832
0.6214957314
0.6214928658
0.6214915195
0.6214912195
0.6214915831
0.6214923347
0.6214932853
0.6214943142
0.6214953452
0.6214963292
0.6214972205
0.6214979037
0.6214841582
0.6214642535
0.6214553679
0.621453883
0.6214564133
0.6214607403
0.6214656086
0.6214703829
0.6214747773
0.6214786939
0.6214821257
0.6214851048
0.62148767
0.6214898258
0.6214914019
0.6213942177
0.6213789915
0.6213900693
0.6214071447
0.6214235321
0.6214374641
0.6214488332
0.6214580061
0.6214654168
0.6214714448
0.62147639
0.6214804812
0.6214838809
0.6214866664
0.6214886697
0.6214841574
0.6214642534
0.6214553684
0.6214538845
0.6214564155
0.6214607426
0.6214656107
0.6214703844
0.6214747785
0.6214786955
0.6214821276
0.6214851062
0.6214876719
0.621489828
0.6214914042
0.6215076128
0.6215005828
0.6214957316
0.6214928673
0.6214915214
0.6214912212
0.6214915856
0.6214923366
0.6214932876
0.6214943164
0.6214953472
0.6214963316
0.6214972224
0.6214979057
0.6215224976
0.6215192247
0.6215161114
0.6215133921
0.6215111484
0.6215093695
0.6215080001
0.6215069696
0.6215062104
0.6215056611
0.6215052713
0.6215050018
0.6215048212
0.6215047147
0.6215267454
0.6215251649
0.6215233501
0.6215214335
0.6215195261
0.6215177076
0.6215160277
0.6215145125
0.62151317
0.6215119959
0.6215109811
0.6215101136
0.6215093921
0.6215088699
0.6215285678
0.6215278379
0.6215268218
0.6215255646
0.6215241362
0.6215226144
0.6215210671
0.6215195496
0.6215181017
0.6215167465
0.6215154989
0.6215143644
0.6215133458
0.6215124595
0.6215117957
0.6215274941
0.6215259082
0.6215239422
0.6215218053
0.6215196778
0.6215176849
0.6215158927
0.6215143268
0.6215129849
0.6215118476
0.6215108894
0.6215100853
0.6215094129
0.62150886
0.6215084632
0.6215242011
0.6215202416
0.6215160862
0.6215123218
0.6215092355
0.6215068855
0.6215052049
0.6215040749
0.6215033677
0.6215029705
0.6215027915
0.6215027579
0.6215028179
0.621502928
0.6215030393
0.6215161917
0.6215076158
0.6215005839
0.6214957324
0.6214928673
0.621491521
0.6214912202
0.6214915843
0.6214923358
0.6214932865
0.6214943155
0.6214953463
0.6214963302
0.6214972218
0.6214979048
0.6215034809
0.6214910464
0.6214840401
0.6214810324
0.6214805032
0.6214813671
0.6214829396
0.6214848162
0.6214867653
0.6214886599
0.6214904377
0.6214920671
0.6214935331
0.6214948088
0.621495764
0.6215161916
0.6215076162
0.6215005842
0.6214957325
0.6214928685
0.6214915223
0.6214912224
0.621491586
0.6214923374
0.6214932877
0.6214943167
0.6214953475
0.6214963319
0.6214972232
0.6214979061
0.6215242011
0.6215202415
0.6215160861
0.6215123223
0.621509236
0.6215068866
0.6215052067
0.6215040763
0.6215033693
0.6215029722
0.6215027931
0.62150276
0.6215028196
0.6215029301
0.621503041
0.6215259073
0.6215239419
0.6215218052
0.6215196783
0.6215176847
0.6215158933
0.6215143281
0.6215129864
0.6215118488
0.6215108915
0.6215100873
0.6215094141
0.6215088621
0.6215084654
0.6215278372
0.6215268218
0.6215255645
0.6215241363
0.6215226143
0.6215210674
0.6215195506
0.6215181023
0.6215167477
0.6215155002
0.6215143656
0.621513347
0.6215124612
0.6215117982
0.6215289686
0.6215285816
0.6215280084
0.6215272444
0.6215263076
0.6215252292
0.6215240497
0.6215228081
0.6215215417
0.6215202806
0.6215190485
0.6215178652
0.6215167495
0.6215157366
0.6215149545
0.6215285575
0.6215278226
0.6215268127
0.6215255817
0.6215242025
0.6215227496
0.6215212861
0.6215198587
0.6215184991
0.6215172246
0.6215160454
0.6215149644
0.6215139841
0.6215131216
0.6215124701
0.6215274943
0.6215259077
0.6215239422
0.6215218053
0.6215196781
0.6215176849
0.6215158929
0.6215143275
0.6215129854
0.621511848
0.6215108903
0.6215100864
0.6215094136
0.6215088606
0.6215084638
0.6215255086
0.6215224994
0.6215192256
0.6215161124
0.6215133927
0.6215111487
0.6215093695
0.621508
0.6215069698
0.6215062105
0.6215056609
0.6215052707
0.621505001
0.6215048209
0.6215047142
0.6215234329
0.6215192768
0.6215153342
0.6215119945
0.6215093456
0.6215073352
0.6215058606
0.6215048141
0.621504096
0.6215036266
0.6215033407
0.6215031879
0.62150313
0.6215031337
0.621503165
0.6215255089
0.6215224995
0.6215192256
0.6215161124
0.621513393
0.6215111492
0.6215093699
0.6215080008
0.6215069708
0.6215062113
0.6215056616
0.621505272
0.6215050021
0.6215048222
0.6215047151
0.6215274932
0.6215259076
0.6215239421
0.6215218054
0.6215196784
0.6215176851
0.6215158933
0.6215143285
0.6215129861
0.6215118491
0.6215108916
0.6215100879
0.6215094149
0.6215088625
0.6215084655
0.621528557
0.6215278218
0.6215268126
0.6215255813
0.6215242022
0.6215227496
0.6215212864
0.6215198594
0.6215184996
0.6215172254
0.6215160466
0.6215149653
0.6215139852
0.6215131232
0.6215124722
0.6215285816
0.6215280083
0.6215272441
0.621526307
0.6215252294
0.6215240496
0.6215228089
0.6215215423
0.621520281
0.621519049
0.6215178666
0.6215167507
0.621515738
0.6215149567
0.6215291475
0.6215289183
0.6215285611
0.6215280568
0.6215273982
0.6215265922
0.6215256577
0.6215246187
0.6215235034
0.6215223411
0.6215211587
0.6215199809
0.6215188345
0.621517767
0.6215169277
0.6215289686
0.6215285822
0.6215280088
0.6215272443
0.6215263072
0.6215252292
0.6215240499
0.6215228088
0.6215215422
0.621520281
0.6215190484
0.6215178658
0.6215167501
0.6215157371
0.6215149556
0.6215285684
0.6215278382
0.6215268224
0.6215255651
0.6215241368
0.6215226145
0.6215210677
0.6215195509
0.6215181028
0.621516748
0.6215155
0.6215143657
0.6215133469
0.6215124605
0.6215117978
0.6215279645
0.6215267466
0.6215251658
0.6215233508
0.6215214339
0.6215195267
0.6215177081
0.6215160282
0.6215145129
0.6215131703
0.6215119963
0.6215109813
0.621510114
0.6215093923
0.6215088705
0.621527511
0.6215259652
0.621524074
0.6215220106
0.621519921
0.62151791
0.6215160447
0.6215143623
0.6215128768
0.6215115864
0.6215104811
0.6215095452
0.6215087625
0.6215081242
0.6215076696
0.6215279641
0.621526746
0.6215251654
0.6215233508
0.6215214343
0.621519527
0.6215177082
0.6215160287
0.6215145135
0.6215131709
0.621511997
0.6215109819
0.6215101146
0.6215093932
0.6215088705
0.6215285675
0.6215278381
0.6215268222
0.621525565
0.6215241371
0.621522615
0.6215210685
0.6215195513
0.6215181032
0.6215167487
0.6215155014
0.6215143662
0.6215133478
0.6215124619
0.6215117984
0.6215289691
0.6215285818
0.6215280083
0.6215272443
0.6215263073
0.6215252294
0.6215240503
0.6215228092
0.6215215426
0.6215202813
0.6215190495
0.6215178668
0.6215167509
0.6215157385
0.6215149568
0.6215291476
0.6215289182
0.6215285609
0.6215280565
0.6215273985
0.6215265929
0.621525658
0.6215246188
0.6215235039
0.6215223416
0.6215211592
0.6215199821
0.6215188358
0.6215177681
0.6215169288
)
;

boundaryField
{
    top
    {
        type            zeroGradient;
    }
    bottom
    {
        type            zeroGradient;
    }
    side-walls
    {
        type            zeroGradient;
    }
    inlet
    {
        type            zeroGradient;
    }
    outlet
    {
        type            zeroGradient;
    }
    procBoundary1to0
    {
        type            processor;
        value           nonuniform List<scalar> 
97
(
0.6215291475
0.6215291475
0.6215289687
0.6215285676
0.6215279641
0.6215275113
0.6215279643
0.6215285675
0.6215289681
0.6215291472
0.6215291968
0.6215285568
0.6215285568
0.6215285568
0.6215274939
0.6215255087
0.621523434
0.6215255092
0.621527494
0.6215285567
0.6215289686
0.6215290156
0.621528545
0.621524201
0.621524201
0.621524201
0.6215161921
0.6215034853
0.6215161931
0.6215242018
0.6215274931
0.6215285672
0.6215287498
0.6215277136
0.6215240851
0.6214841577
0.6214841577
0.6214841577
0.6213942486
0.6214841646
0.6215161931
0.6215255088
0.621527964
0.6215285591
0.6215269278
0.6215200449
0.621492738
0.6206555784
0.6206555784
0.6206555784
0.6213942475
0.6213942475
0.6215034852
0.6215234339
0.6215275106
0.6215287501
0.6215277138
0.6215240853
0.6215135146
0.6214927366
0.6215135156
0.6215161905
0.6215161905
0.6215161905
0.6215255086
0.6215279646
0.6215290159
0.6215285454
0.6215271635
0.6215240849
0.6215200454
0.6215240855
0.6215271637
0.6215274937
0.6215274937
0.6215274937
0.6215285676
0.6215291972
0.6215290121
0.6215285459
0.6215277139
0.621526928
0.6215277144
0.621528545
0.6215290116
0.6215289686
0.6215289686
0.6215289686
0.6215292795
0.621529197
0.6215290159
0.6215287496
0.6215285592
0.6215287499
0.6215290156
0.6215291972
0.6215292792
)
;
    }
}


// ************************************************************************* //
