/*--------------------------------*- C++ -*----------------------------------*\
| =========                 |                                                 |
| \\      /  F ield         | OpenFOAM: The Open Source CFD Toolbox           |
|  \\    /   O peration     | Version:  4.x                                   |
|   \\  /    A nd           | Web:      www.OpenFOAM.org                      |
|    \\/     M anipulation  |                                                 |
\*---------------------------------------------------------------------------*/
FoamFile
{
    version     2.0;
    format      ascii;
    class       surfaceScalarField;
    location    "11000";
    object      phi;
}
// * * * * * * * * * * * * * * * * * * * * * * * * * * * * * * * * * * * * * //

dimensions      [1 0 -1 0 0 0 0];

internalField   nonuniform List<scalar> 
3172
(
9.497956485e-06
-3.686979434e-12
-3.808110699e-12
9.497965229e-06
-4.473766774e-12
-3.271559692e-12
9.497967815e-06
-3.030503408e-12
-1.181339241e-12
9.497969279e-06
-2.332430399e-12
-1.019195147e-12
9.49797106e-06
-2.071953631e-12
-7.665639225e-13
9.497973826e-06
-3.953820672e-13
1.140428029e-12
9.497973159e-06
1.226955227e-14
2.309050856e-12
9.497973321e-06
1.773108683e-13
2.743056398e-12
9.497969564e-06
-1.174894501e-13
2.612734244e-12
9.497968037e-06
5.26001471e-13
2.852507177e-12
9.497965224e-06
1.913455081e-12
3.269069297e-12
9.497965527e-06
1.810394083e-12
4.10135953e-12
9.49796003e-06
1.784439905e-12
1.920785903e-12
2.518970351e-12
5.956633268e-13
9.498008529e-06
-4.569330537e-12
-9.945144101e-13
9.49801576e-06
-7.40583438e-12
-3.727587765e-12
9.498019185e-06
-5.266978718e-12
-2.024965924e-12
9.498018786e-06
-2.678707326e-12
-1.23150719e-12
9.498019003e-06
-3.841998314e-13
3.843176362e-13
9.498018066e-06
8.542753075e-13
2.480157104e-12
9.498016521e-06
1.850095928e-12
2.666622028e-12
9.498013042e-06
1.596358344e-12
2.185280188e-12
9.498010657e-06
2.049116252e-12
2.471786803e-12
9.498006353e-06
2.896737154e-12
2.445540109e-12
9.498003211e-06
1.660160474e-12
1.130196508e-12
9.498001847e-06
1.681095632e-12
1.787346534e-12
9.497997481e-06
2.87094273e-12
2.405098231e-12
2.039557425e-12
7.824707731e-13
9.497984979e-06
-1.259458217e-12
-2.495128083e-12
9.497987056e-06
-3.123858194e-12
-6.367635044e-12
9.497988873e-06
1.563962087e-12
4.356550032e-14
9.497983197e-06
2.186282514e-12
1.66527361e-12
9.49797771e-06
2.006534085e-13
3.631552166e-12
9.497972604e-06
1.267898998e-13
3.505293503e-12
9.497970276e-06
1.664900549e-12
3.646726703e-12
9.497965851e-06
2.344740198e-12
2.092862305e-12
9.497965327e-06
2.094460018e-12
2.127318264e-12
9.497960207e-06
2.380388387e-12
9.612752724e-13
9.49795864e-06
2.101580826e-12
1.109945151e-12
9.49795717e-06
3.892892531e-12
1.220053121e-12
9.49795438e-06
2.88548437e-12
2.150408605e-12
3.534496057e-12
1.748932698e-12
9.498005987e-06
2.579259277e-12
1.768143116e-11
9.498008651e-06
2.218810016e-12
-1.232837547e-11
9.498006906e-06
3.807531488e-12
-1.503551864e-12
9.497999308e-06
3.942533628e-12
3.151212267e-12
9.497993786e-06
2.130716699e-12
4.701068252e-12
9.497988472e-06
9.060264904e-13
5.656574734e-12
9.497984216e-06
1.567710719e-12
5.080047066e-12
9.497978378e-06
9.032303355e-13
3.535101265e-12
9.497978367e-06
3.180092198e-12
4.061090945e-12
9.49797423e-06
1.793836491e-12
1.567108777e-12
9.497973524e-06
9.74937655e-13
2.396418935e-12
9.497970294e-06
2.624070578e-12
2.122291304e-12
9.497972256e-06
2.978621797e-12
3.175852793e-12
1.022760019e-12
1.691408266e-12
9.49799622e-06
-3.230702414e-12
6.66490537e-11
9.497974324e-06
-3.562526623e-12
2.437366559e-11
9.497958398e-06
-5.060434549e-12
2.247810083e-11
9.497944963e-06
-4.228513276e-12
1.82387724e-11
9.497938991e-06
-1.014523354e-12
1.398456238e-11
9.497934649e-06
-1.367714148e-12
1.035422892e-11
9.497928961e-06
-2.058716305e-12
8.386335808e-12
9.497926779e-06
3.640211623e-13
6.283005983e-12
9.497921252e-06
1.228085747e-12
2.87296216e-12
9.497918812e-06
-1.737869833e-13
1.693772781e-12
9.497922389e-06
9.56257539e-13
1.568599043e-12
9.497917904e-06
-1.665181408e-12
9.378614956e-13
9.497917919e-06
4.678583258e-14
3.265250567e-12
1.404906085e-13
1.950300015e-12
9.497962805e-06
3.733792416e-13
1.835836587e-11
9.497967093e-06
5.559542073e-12
-9.818897517e-12
9.497963531e-06
1.844031932e-12
3.201584295e-13
9.497957061e-06
-5.233593027e-13
2.982575001e-12
9.49795074e-06
-6.243506513e-14
4.603553574e-12
9.497946002e-06
-5.522184782e-15
7.055723449e-12
9.497939559e-06
-1.265546412e-12
6.307295524e-12
9.497935105e-06
-9.5599129e-13
4.762614538e-12
9.497932044e-06
-1.005595732e-12
3.097588953e-12
9.497929269e-06
-4.169158283e-13
2.801042751e-12
9.497926871e-06
-6.004209768e-13
2.026875034e-12
9.497925955e-06
-9.318226739e-13
2.435036675e-12
9.497924495e-06
-2.885469353e-12
3.572081866e-12
-2.605690719e-12
2.56071125e-12
9.497977504e-06
4.208475841e-12
-2.322313669e-12
9.497982353e-06
6.561918302e-12
-5.427547892e-12
9.497978809e-06
1.911558208e-12
1.057963706e-12
9.497977359e-06
1.581361055e-12
3.697533691e-12
9.497970258e-06
5.220439022e-13
3.831626806e-12
9.49796915e-06
7.720781287e-13
5.918770564e-12
9.497966487e-06
-6.303428263e-13
5.702176248e-12
9.497961818e-06
-1.065388659e-12
4.360838715e-12
9.497960197e-06
-2.037715392e-12
3.722856466e-12
9.497953538e-06
-3.643181077e-12
2.0548059e-12
9.497950915e-06
-1.195641539e-12
1.005397154e-12
9.497947319e-06
-1.639748819e-12
2.28722573e-12
9.497947647e-06
-1.637328543e-12
4.226046417e-12
-1.564255663e-12
4.033885743e-12
9.497942354e-06
3.228327777e-12
-5.281050122e-14
9.497951264e-06
5.249735201e-12
-3.80532228e-12
9.497952928e-06
3.528635752e-12
-7.647564126e-13
9.497952701e-06
2.277147846e-12
-2.502739266e-13
9.497951947e-06
7.600251023e-13
-2.855698434e-13
9.497950825e-06
1.829405173e-13
-6.540913865e-14
9.497951441e-06
6.127674692e-13
1.742306399e-12
9.497947219e-06
-5.581552917e-13
1.895139342e-12
9.497942818e-06
-1.73938404e-12
1.266694404e-12
9.497941578e-06
-8.737872316e-13
1.451233652e-12
9.497936573e-06
-1.254991671e-12
5.699310971e-13
9.497933524e-06
-2.695911406e-12
1.309940691e-12
9.497933189e-06
-2.524395548e-12
2.216487132e-12
-2.746012612e-12
1.826848723e-12
9.497923121e-06
-3.140862776e-12
9.497931024e-06
-4.825503923e-12
9.497935282e-06
-1.348867214e-12
9.497937768e-06
-9.161581724e-13
9.497940843e-06
-1.532570006e-12
9.49793974e-06
4.495890035e-13
9.497940693e-06
1.078842134e-12
9.497938139e-06
6.338275372e-13
9.497936776e-06
2.614566064e-13
9.497934906e-06
1.127342465e-12
9.497930315e-06
1.086864431e-12
9.497926179e-06
-6.386261603e-14
9.497923579e-06
1.710180169e-12
9.349864985e-13
9.497962672e-06
-3.463755612e-11
9.497966574e-06
-3.35102749e-13
-4.708374053e-12
9.497974428e-06
-4.648811909e-12
-6.887363327e-12
9.497976597e-06
-3.056225574e-12
-3.385557581e-12
9.497976033e-06
-3.048096627e-12
-1.385872071e-12
9.497976298e-06
-6.364984425e-13
8.944704846e-13
9.497976185e-06
1.362597936e-12
3.026099919e-12
9.49797313e-06
1.17034158e-12
2.931361817e-12
9.497971483e-06
7.17856411e-13
2.246421782e-12
9.49796568e-06
-5.658949575e-14
3.094768337e-12
9.497965457e-06
2.712424675e-12
4.316018371e-12
9.497962725e-06
4.924847685e-13
4.152849657e-12
9.49795795e-06
5.999791368e-13
1.841361343e-12
9.497955973e-06
3.156069616e-12
4.136738915e-12
4.000042286e-12
4.960500643e-12
9.497962362e-06
3.157781629e-12
1.743579107e-12
9.497965519e-06
-9.357304214e-12
-9.729653034e-12
9.497967662e-06
-6.048603893e-12
-4.260492253e-12
9.497966116e-06
-1.75793052e-12
1.276259168e-12
9.497963215e-06
1.411223149e-12
1.254892432e-12
9.497960293e-06
1.90529206e-12
3.506137387e-12
9.49795769e-06
2.640984104e-12
3.387614659e-12
9.497953731e-06
1.656519736e-12
2.38778291e-12
9.497952974e-06
1.891473449e-12
2.833511124e-12
9.497948501e-06
1.967364138e-12
2.332281836e-12
9.497950679e-06
2.326206732e-12
3.863722727e-12
9.497947431e-06
2.219867782e-12
1.902797349e-12
9.497943358e-06
3.060749936e-12
3.225457316e-12
3.987067446e-12
3.89531579e-12
9.497928908e-06
1.561541873e-11
1.044892255e-11
9.497919927e-06
-5.065335863e-12
-6.139325283e-12
9.497914197e-06
2.661390439e-12
7.672606843e-12
9.497905081e-06
5.056768269e-12
1.009913389e-11
9.497892934e-06
3.0626954e-12
8.363667922e-12
9.497886834e-06
3.124242168e-12
8.363512698e-12
9.497882043e-06
2.555739132e-12
6.834871051e-12
9.4978806e-06
3.038315627e-12
5.05472675e-12
9.497877746e-06
3.509478622e-12
4.429379734e-12
9.497875781e-06
3.400988168e-12
4.623279281e-12
9.497874275e-06
4.265287327e-12
4.608965621e-12
9.497874335e-06
5.122700695e-12
4.498620119e-12
9.497872539e-06
3.743059654e-12
4.917163071e-12
3.612949616e-12
4.152058919e-12
9.498009244e-06
3.208168834e-11
7.586494578e-11
9.498006776e-06
1.070483141e-11
-1.712560731e-11
9.497995904e-06
8.442917406e-12
4.881809276e-12
9.497982521e-06
6.128774571e-12
1.260830352e-11
9.497974526e-06
4.140236703e-12
1.30722235e-11
9.497968111e-06
2.699542841e-12
1.284193804e-11
9.497965505e-06
3.634287148e-12
1.022829248e-11
9.497964665e-06
4.133873254e-12
8.742116711e-12
9.497962135e-06
3.233387302e-12
5.982560329e-12
9.497963977e-06
2.646719876e-12
4.954400729e-12
9.497965232e-06
1.549116103e-12
3.151078384e-12
9.497965688e-06
1.835838591e-12
3.890192065e-12
9.497967602e-06
2.872291105e-12
4.913015804e-12
1.327811362e-12
4.453663022e-12
9.497995252e-06
-3.124913124e-11
3.131873987e-10
9.497943736e-06
-9.767405545e-12
9.582787919e-11
9.497923246e-06
-6.631815116e-12
6.55739614e-11
9.49790779e-06
-6.801448058e-12
4.859370001e-11
9.497902446e-06
-4.022378665e-12
3.122281198e-11
9.49790187e-06
-1.909250016e-12
2.142360574e-11
9.497900271e-06
-2.66872362e-12
1.317372996e-11
9.497900049e-06
-1.70253127e-12
9.238334091e-12
9.497900026e-06
-2.074897805e-13
5.519758122e-12
9.497901643e-06
1.051810609e-12
4.100370637e-12
9.497901929e-06
-6.340902443e-13
2.847889306e-12
9.497902913e-06
-1.133171428e-12
2.645555228e-12
9.49790446e-06
-2.482833973e-13
5.258521461e-12
-9.229478456e-13
4.089808896e-12
9.498043967e-06
-1.724487783e-11
7.620457681e-11
9.498041276e-06
5.905361977e-12
-1.595711409e-11
9.498027737e-06
-9.53585476e-13
5.933660594e-12
9.498015687e-06
-3.69391639e-12
1.334022157e-11
9.4980079e-06
-2.02553385e-12
1.320535119e-11
9.498002278e-06
-1.819709622e-12
1.171141164e-11
9.498000302e-06
-2.525706266e-12
1.081847466e-11
9.497998374e-06
-2.63053635e-12
8.883343388e-12
9.497997751e-06
-1.161614362e-12
6.775378663e-12
9.497994617e-06
-2.510186155e-12
3.798006182e-12
9.497996759e-06
-1.249883489e-12
4.970905256e-12
9.497997232e-06
-1.835091228e-12
3.639711329e-12
9.497994705e-06
-3.369007727e-12
3.992288432e-12
-1.734277657e-12
4.938603851e-12
9.497933189e-06
-1.887997422e-12
1.13568918e-11
9.497925825e-06
8.34843912e-12
-6.882654518e-12
9.497914515e-06
3.231543387e-12
5.556793794e-12
9.497907271e-06
1.935519477e-13
1.081197216e-11
9.497899482e-06
-1.587367333e-12
9.966155014e-12
9.497890212e-06
-3.438225041e-12
9.068743567e-12
9.497886917e-06
-3.104403301e-12
8.306730738e-12
9.497883964e-06
-2.528537664e-12
7.172666404e-12
9.497879605e-06
-4.578085773e-12
3.846969304e-12
9.497878119e-06
-4.590829431e-12
4.501516642e-12
9.49787802e-06
-2.188196719e-12
3.754197987e-12
9.497878036e-06
-3.092749365e-12
2.786128266e-12
9.497875688e-06
-3.781701753e-12
2.561244067e-12
-4.051452141e-12
3.14205859e-12
9.49800346e-06
-3.274763499e-13
2.636431758e-12
9.498008292e-06
4.648011436e-12
-8.431822336e-12
9.498008376e-06
2.752264278e-12
-2.474586174e-12
9.498008862e-06
1.88347936e-12
1.753566704e-12
9.498004954e-06
-1.673593996e-13
1.339801086e-12
9.498001725e-06
1.281154375e-12
3.68388561e-12
9.497998798e-06
-1.62059815e-13
2.002601808e-12
9.497993652e-06
-1.880926769e-12
2.277947328e-12
9.49799193e-06
-1.579633357e-12
3.086193558e-12
9.49798905e-06
-1.923287161e-12
3.251576501e-12
9.497986104e-06
-1.430846412e-12
2.197897189e-12
9.497986152e-06
-2.82901041e-12
3.292720727e-12
9.497983437e-06
-3.014800761e-12
3.643818331e-12
-3.054771896e-12
4.300891379e-12
9.497922161e-06
-4.924215796e-12
9.497929234e-06
-8.046116712e-12
9.497928003e-06
-2.945331904e-12
9.497931022e-06
3.331026179e-13
9.497932217e-06
1.76041778e-12
9.497929701e-06
-1.196531978e-12
9.497926258e-06
6.996606722e-14
9.497924486e-06
1.503542031e-12
9.497923227e-06
1.462408606e-12
9.497920941e-06
6.58191509e-13
9.497916114e-06
1.811773888e-12
9.497915089e-06
2.365090742e-12
9.497912338e-06
2.665301333e-12
3.139414258e-12
9.497988032e-06
-5.964488117e-11
-4.31402974e-11
9.497981053e-06
-6.776582758e-13
-1.035939207e-12
9.49798719e-06
-7.101444316e-12
-4.591666851e-12
9.497983217e-06
-1.838511535e-13
-1.442691743e-12
9.497978956e-06
3.736207656e-12
1.42390393e-12
9.497973686e-06
1.542573889e-12
1.404764235e-12
9.497969229e-06
3.792370876e-12
1.581107389e-12
9.497965838e-06
3.896826257e-12
2.088936744e-12
9.497963227e-06
3.013239325e-12
2.265833511e-12
9.497957874e-06
1.362955228e-12
1.553067578e-12
9.497957051e-06
2.251630281e-12
3.038118413e-12
9.497953992e-06
2.387019511e-12
1.548950097e-12
9.497952352e-06
2.537844911e-12
2.687317969e-12
9.497950124e-06
3.836178276e-12
3.170628771e-12
3.540287699e-12
3.06964973e-12
9.498069334e-06
-8.034970326e-11
9.498042386e-06
1.284490789e-11
1.570493464e-11
9.498038334e-06
-5.512442563e-12
-4.792113651e-12
9.498029045e-06
5.309933014e-12
2.547502626e-12
9.498016946e-06
7.697709945e-12
3.769423335e-12
9.498013101e-06
8.635057446e-12
4.62502947e-12
9.498003912e-06
6.546587454e-12
3.862933873e-12
9.497999347e-06
6.363652801e-12
3.854588383e-12
9.497998182e-06
4.579796661e-12
4.416217431e-12
9.497994445e-06
3.195161209e-12
5.477005239e-12
9.497992868e-06
3.916995339e-12
3.312153945e-12
9.497992691e-06
3.069806746e-12
2.10660677e-12
9.497994247e-06
3.21208836e-12
2.256987246e-12
9.497994101e-06
4.991549514e-12
1.615702014e-12
4.435646406e-12
2.515017062e-12
9.498076663e-06
5.952987903e-11
5.788273682e-11
9.498032296e-06
1.526635343e-11
1.531943993e-11
9.497999083e-06
2.392500329e-11
2.476430112e-11
9.497976785e-06
2.193961561e-11
2.179201819e-11
9.497963093e-06
1.478316015e-11
1.608172278e-11
9.49796002e-06
1.173274947e-11
1.427702976e-11
9.497956479e-06
8.601777881e-12
9.133160008e-12
9.497959702e-06
6.535906676e-12
7.632729639e-12
9.497961891e-06
4.867555739e-12
7.45599025e-12
9.49796146e-06
3.298916065e-12
3.853602749e-12
9.497963348e-06
3.512531293e-12
4.223126491e-12
9.497966196e-06
4.680232575e-12
2.944942007e-12
9.497966626e-06
3.798927055e-12
1.093528719e-12
4.377977642e-12
2.211332721e-12
9.498019555e-06
1.192836212e-10
2.374586276e-10
9.497967994e-06
4.405147175e-11
7.248933258e-12
9.497938464e-06
3.308647564e-11
2.981231015e-11
9.497919806e-06
2.179933501e-11
2.715059267e-11
9.497916973e-06
1.341308606e-11
1.976971056e-11
9.497916854e-06
7.624870009e-12
1.438347745e-11
9.497921043e-06
5.04052594e-12
1.034584835e-11
9.497927772e-06
4.945232007e-12
8.524770679e-12
9.497933275e-06
3.096132582e-12
6.657595038e-12
9.497938257e-06
2.985413233e-12
3.607825357e-12
9.49794286e-06
1.830267478e-12
3.221379805e-12
9.497945235e-06
1.455725841e-12
2.393717034e-12
9.4979487e-06
3.711238886e-12
2.357404475e-12
1.212928648e-12
2.235258621e-12
9.498142753e-06
-1.189749788e-10
1.166888281e-09
9.497957645e-06
-4.354234764e-11
3.628932564e-10
9.49792056e-06
-3.125165139e-11
1.710452545e-10
9.497919391e-06
-2.189113877e-11
9.317759878e-11
9.497932684e-06
-1.302420143e-11
4.446340611e-11
9.497945566e-06
-8.19470106e-12
2.282124389e-11
9.497959192e-06
-3.722720086e-12
1.268179901e-11
9.497967061e-06
-1.653267494e-12
6.459517588e-12
9.497975204e-06
7.60844119e-14
4.388423048e-12
9.497980794e-06
4.828050012e-14
3.392561817e-12
9.497986451e-06
-5.960098765e-13
2.762518553e-12
9.497990876e-06
-6.157384426e-13
8.640848177e-13
9.497993001e-06
-1.657034599e-12
1.783844565e-12
-1.380703896e-12
3.872009827e-12
9.498057335e-06
-5.93575428e-11
2.372228158e-10
9.498006858e-06
-1.484098842e-11
6.050017853e-12
9.49797349e-06
-2.441303447e-11
3.000735748e-11
9.497959146e-06
-2.009595077e-11
2.804386086e-11
9.497955141e-06
-1.358901929e-11
1.91502999e-11
9.497957344e-06
-9.776975651e-12
1.375630689e-11
9.497959084e-06
-8.875506516e-12
7.937970906e-12
9.497961768e-06
-6.004952928e-12
5.253917945e-12
9.497967075e-06
-4.676398823e-12
4.05396e-12
9.497970918e-06
-2.060064843e-12
3.024435622e-12
9.497975008e-06
-3.155583312e-12
2.571138617e-12
9.497977658e-06
-2.997224195e-12
2.394506416e-12
9.497982965e-06
-4.691766333e-12
3.299114082e-12
-3.679037045e-12
5.028069618e-12
9.498036903e-06
-1.091218879e-11
5.765424723e-11
9.497993343e-06
5.792585209e-12
1.497491168e-11
9.497956644e-06
-4.852017209e-12
2.33485765e-11
9.497933336e-06
-8.381991225e-12
2.056104485e-11
9.497921451e-06
-1.007490664e-11
1.357778113e-11
9.497915425e-06
-8.886884632e-12
1.006928476e-11
9.497917593e-06
-8.862331659e-12
8.675095719e-12
9.497916122e-06
-7.017273245e-12
5.499092606e-12
9.497918036e-06
-5.137496543e-12
5.022363151e-12
9.497918654e-06
-5.170149932e-12
2.145272766e-12
9.497921889e-06
-3.441395436e-12
3.243995563e-12
9.497923458e-06
-2.683964007e-12
1.731916789e-12
9.49792614e-06
-3.671030924e-12
2.957763686e-12
-3.387780624e-12
2.782668812e-12
9.497952576e-06
1.099601198e-12
1.577495709e-11
9.497947372e-06
4.965728949e-12
-3.723697012e-12
9.497935886e-06
-9.700185552e-13
1.664040987e-12
9.497925327e-06
-2.314598984e-12
2.742608395e-12
9.497918808e-06
-2.692746581e-12
2.594754762e-12
9.497913167e-06
-4.481373928e-12
1.692167814e-12
9.497911278e-06
-3.444061254e-12
2.365965371e-12
9.497905725e-06
-3.76504834e-12
2.657642379e-12
9.497902368e-06
-4.43866929e-12
2.550734042e-12
9.497900147e-06
-3.754483925e-12
1.898235515e-12
9.497897761e-06
-2.180815151e-12
2.08082084e-12
9.497898508e-06
-3.210674226e-12
1.639258796e-12
9.497898368e-06
-3.589339372e-12
2.739387927e-12
-3.456469079e-12
3.056484669e-12
9.498041281e-06
-1.628012762e-12
9.498047971e-06
-4.525740532e-12
9.498043395e-06
-1.622700333e-12
9.498038337e-06
-4.02661891e-13
9.498032532e-06
-1.77715774e-12
9.498030744e-06
8.520655733e-13
9.498026655e-06
3.514811054e-13
9.498023206e-06
3.008949007e-13
9.498018702e-06
1.96224931e-12
9.498018751e-06
2.817653522e-12
9.498012966e-06
1.514944731e-12
9.49801102e-06
2.38046297e-12
9.498008272e-06
2.765473391e-12
3.002658353e-12
9.497991047e-06
-8.283563577e-11
-4.264362189e-11
9.497966367e-06
1.972502715e-11
4.214800898e-12
9.497969134e-06
-1.045302574e-11
2.326228423e-12
9.497965557e-06
8.920840117e-13
5.128327411e-12
9.497957413e-06
4.313155883e-12
3.848602557e-12
9.497951495e-06
5.110717747e-12
3.105166367e-12
9.497946041e-06
6.775255642e-12
1.936133359e-12
9.497939868e-06
4.990255467e-12
1.009068675e-12
9.49793712e-06
4.49150153e-12
1.606667873e-13
9.497932144e-06
4.465045526e-12
-1.481293874e-12
9.497929095e-06
2.612712752e-12
1.341479152e-13
9.497928954e-06
2.415355058e-12
1.898185546e-12
9.497927537e-06
1.683011344e-12
2.669406421e-12
9.497924055e-06
2.057075113e-12
1.093659746e-12
2.916676845e-12
8.746924939e-13
9.498024949e-06
-1.89208394e-10
-8.189719199e-11
9.497950864e-06
7.721119077e-11
3.113068418e-11
9.497948725e-06
-1.638209379e-11
9.026116796e-12
9.497935208e-06
3.602061819e-12
8.2850437e-12
9.497921795e-06
1.044439917e-11
6.205783225e-12
9.49791368e-06
1.217168646e-11
4.438933983e-12
9.497907637e-06
1.228792129e-11
2.093784931e-12
9.497905641e-06
9.856117116e-12
2.019526061e-12
9.497904246e-06
7.455685681e-12
2.500289101e-12
9.497900422e-06
4.851710291e-12
5.6540917e-13
9.497901233e-06
3.774239682e-12
2.045071244e-12
9.49790254e-06
4.050518381e-12
2.874053964e-12
9.497901622e-06
4.036201917e-12
3.557468965e-12
9.497904298e-06
4.517596559e-12
1.830277799e-12
4.288401941e-12
4.838193544e-13
9.498264013e-06
-2.570259326e-10
9.498042873e-06
2.376601949e-10
1.179072898e-10
9.497990974e-06
6.760648294e-12
4.201575025e-11
9.497957991e-06
2.883038673e-11
3.328133341e-11
9.49794189e-06
2.773089912e-11
2.373791079e-11
9.497937458e-06
1.832936681e-11
1.343058644e-11
9.497936778e-06
1.2250328e-11
7.076833617e-12
9.497942619e-06
9.142614653e-12
4.38638544e-12
9.497950198e-06
8.0985791e-12
4.736851339e-12
9.497952046e-06
4.719751214e-12
1.852829386e-12
9.497959013e-06
3.796689368e-12
3.555498644e-12
9.497960898e-06
2.881605555e-12
3.029343427e-12
9.497963304e-06
3.422015247e-12
1.43001716e-12
9.497969457e-06
4.233284229e-12
1.276499433e-12
3.884364229e-12
2.125743066e-12
9.497775663e-06
4.172407553e-10
4.166942151e-10
9.497818218e-06
-1.370771032e-11
-1.342089476e-11
9.497832508e-06
2.545974191e-11
2.682978317e-11
9.497840872e-06
2.553613091e-11
2.734745845e-11
9.49785322e-06
1.296791153e-11
1.269663628e-11
9.497865205e-06
6.484348601e-12
7.014604452e-12
9.497878109e-06
5.043901124e-12
3.960266237e-12
9.497886793e-06
2.587581246e-12
2.349060132e-12
9.497893426e-06
1.959620756e-12
1.622287745e-12
9.497900668e-06
3.407636848e-12
7.657214513e-13
9.497905339e-06
2.22262232e-12
1.470445114e-12
9.49790679e-06
1.281926947e-14
1.709361556e-12
9.497913396e-06
3.147844863e-12
2.160923427e-12
4.004499053e-12
2.002081336e-12
9.497568292e-06
-4.165970111e-10
3.361261247e-09
9.497616139e-06
1.371269961e-11
2.877458699e-10
9.497714884e-06
-2.302103061e-11
1.240854273e-10
9.497779625e-06
-2.540562726e-11
7.980373622e-11
9.497821277e-06
-1.323312648e-11
3.20065674e-11
9.497848754e-06
-6.879815971e-12
1.352401506e-11
9.497861518e-06
-4.356905084e-12
4.906248824e-12
9.497872579e-06
-2.451847861e-12
2.011781648e-12
9.497881098e-06
-4.372500979e-13
7.93453493e-13
9.497884261e-06
-1.464329017e-12
-3.755738381e-13
9.497887952e-06
-1.116862063e-12
4.102282932e-13
9.497891437e-06
-4.448687711e-13
3.879405789e-13
9.497899388e-06
-1.144653128e-12
1.503216542e-12
-1.082560568e-12
2.217892201e-13
9.497853509e-06
-2.391233216e-10
4.16677556e-10
9.497895367e-06
-6.30322397e-12
-1.378836207e-11
9.497903038e-06
-3.116722623e-11
2.397622854e-11
9.4979143e-06
-2.779570305e-11
2.622694167e-11
9.497927208e-06
-1.912791755e-11
1.389554292e-11
9.497940401e-06
-1.454878606e-11
7.334946035e-12
9.497952543e-06
-9.947942707e-12
4.377157084e-12
9.497961168e-06
-5.820774606e-12
1.922213043e-12
9.497966356e-06
-4.572159082e-12
1.580200047e-12
9.497971876e-06
-3.924016502e-12
1.770994388e-12
9.497976796e-06
-3.609255474e-12
1.651074282e-12
9.497980709e-06
-3.545366708e-12
1.057994734e-12
9.497987047e-06
-5.095539286e-12
1.145930161e-12
-5.380667011e-12
-5.462681078e-14
9.498013604e-06
-7.558872847e-11
1.181115469e-10
9.497960389e-06
1.717153238e-11
4.040098364e-11
9.497928685e-06
-3.857140992e-12
3.201634087e-11
9.497911413e-06
-1.238425238e-11
2.102993208e-11
9.497907758e-06
-1.253288838e-11
1.395745024e-11
9.497909082e-06
-1.252968723e-11
8.542333097e-12
9.49791352e-06
-1.158892407e-11
3.351191755e-12
9.497917424e-06
-8.439621554e-12
1.571436111e-12
9.497921186e-06
-7.00892115e-12
1.089677226e-12
9.497927153e-06
-5.151984345e-12
1.903055833e-12
9.497931084e-06
-3.376262769e-12
2.661504614e-12
9.497935285e-06
-2.423005936e-12
3.764592692e-12
9.497940364e-06
-4.139425646e-12
3.459542234e-12
-3.150390268e-12
1.429930264e-12
9.498064284e-06
-1.997687363e-11
3.068145466e-11
9.498059476e-06
8.761738041e-12
8.879662767e-12
9.498046854e-06
-1.377541259e-12
7.471435423e-12
9.498035135e-06
-5.56547089e-12
6.566296012e-12
9.498027934e-06
-5.910645528e-12
4.312171246e-12
9.498023404e-06
-4.890033613e-12
2.848706084e-12
9.498020386e-06
-5.656274471e-12
1.215315693e-12
9.498018028e-06
-6.257641638e-12
6.964671487e-13
9.498018745e-06
-4.491631953e-12
-4.656607586e-13
9.498020382e-06
-2.909900883e-12
4.22771309e-13
9.498018721e-06
-2.641724487e-12
-2.165227024e-13
9.498020243e-06
-2.904633413e-12
2.274340016e-12
9.498022115e-06
-2.798034463e-12
2.353232694e-12
-3.645686782e-12
4.125925507e-13
9.498014764e-06
5.741031753e-12
9.498018034e-06
4.388548477e-12
9.498013987e-06
4.271117024e-12
9.498007452e-06
4.409453885e-12
9.498001212e-06
3.601071995e-12
9.497994948e-06
1.641365713e-12
9.497990276e-06
-2.090574603e-13
9.49798694e-06
2.556989651e-12
9.497981037e-06
3.381926749e-13
9.497979116e-06
-6.708782091e-13
9.4979756e-06
-2.222508735e-13
9.497976675e-06
1.387393353e-12
9.497973858e-06
1.481648525e-12
6.817299275e-13
9.498062204e-06
-2.409779694e-10
4.054467481e-11
9.498005851e-06
6.696856468e-11
-6.46850934e-12
9.497986926e-06
2.558121085e-11
-4.65186828e-12
9.497968396e-06
2.495082194e-11
-6.145856891e-12
9.497958696e-06
2.091442937e-11
-4.407218838e-12
9.497948363e-06
1.408686666e-11
-4.19351923e-12
9.497944999e-06
1.064750808e-11
-2.779944957e-12
9.497940196e-06
8.30959821e-12
-2.657108177e-12
9.497937069e-06
6.576879474e-12
-1.664956222e-12
9.497935854e-06
6.090404577e-12
-6.524856963e-13
9.49793249e-06
4.115564494e-12
-2.217424464e-12
9.497932693e-06
3.938460128e-12
-1.317159742e-12
9.497929861e-06
2.141911956e-12
-2.120440808e-12
9.49792975e-06
2.585399291e-12
-1.017443263e-12
3.186300262e-12
-1.40481714e-12
9.49824562e-06
-6.670601447e-10
8.067810892e-11
9.498060904e-06
3.137499438e-10
-3.335144057e-11
9.498010255e-06
9.620212143e-11
-9.51493033e-12
9.49798526e-06
6.530453983e-11
-9.206692246e-12
9.497971856e-06
4.832779717e-11
-7.906824421e-12
9.497964546e-06
3.090905359e-11
-6.075871119e-12
9.497960472e-06
2.006238341e-11
-4.836117783e-12
9.497959228e-06
1.230094724e-11
-2.884890303e-12
9.497958445e-06
8.152245424e-12
-1.793991395e-12
9.497959032e-06
5.921003268e-12
-2.051294163e-12
9.497959247e-06
3.868538523e-12
-2.273553888e-12
9.497961291e-06
2.874409769e-12
-1.53015434e-12
9.497961749e-06
1.668658369e-12
-1.534891724e-12
9.497965797e-06
3.93532397e-12
-4.019633802e-13
5.620913706e-12
-1.936818019e-14
9.498733118e-06
-1.857907292e-09
2.54476907e-10
9.498113698e-06
1.168760386e-09
-1.203532812e-10
9.4979306e-06
3.642972844e-10
-4.386324155e-11
9.497891931e-06
1.716871167e-10
-3.357131125e-11
9.497891367e-06
9.282929494e-11
-2.417243514e-11
9.49790243e-06
4.397945395e-11
-1.435950194e-11
9.497916557e-06
2.181732492e-11
-9.411758453e-12
9.497928967e-06
1.16204495e-11
-5.02712152e-12
9.497936599e-06
5.549866135e-12
-2.151957996e-12
9.497945056e-06
3.120759112e-12
-3.028860711e-12
9.497949367e-06
4.521182225e-13
-3.73597189e-12
9.497952312e-06
2.529539808e-13
-1.981707806e-12
9.497957802e-06
3.089787925e-12
-9.675809558e-13
9.497964159e-06
4.834559949e-12
-2.437962784e-13
3.864250801e-12
-6.41705127e-13
9.498959201e-06
3.765529484e-10
9.497602512e-06
3.360658109e-09
-4.202387006e-10
9.497653216e-06
2.873328663e-10
1.204228065e-11
9.497750732e-06
1.229335735e-10
-2.580304893e-11
9.497816462e-06
7.782606996e-11
-2.46170776e-11
9.497857923e-06
3.165837524e-11
-1.325077625e-11
9.497882629e-06
1.234735998e-11
-8.13723899e-12
9.497900945e-06
4.796759994e-12
-4.391065295e-12
9.497911965e-06
1.931257606e-12
-3.819121104e-12
9.497917502e-06
1.224040546e-12
-3.477365694e-12
9.49792423e-06
1.320720154e-12
-1.866377291e-12
9.497930538e-06
7.352503045e-13
-9.868194998e-13
9.497931591e-06
3.852174608e-13
-1.927525946e-12
9.497937584e-06
2.014146924e-12
-6.046937009e-13
2.00746142e-12
-5.684666068e-13
9.516391536e-06
-3.36232776e-09
-3.362820566e-09
9.517556075e-06
-2.889780439e-10
-2.882811077e-10
9.518065762e-06
-1.246147364e-10
-1.250711569e-10
9.518396018e-06
-7.956756093e-11
-7.862159636e-11
9.518535054e-06
-3.153572755e-11
-3.157794893e-11
9.518597969e-06
-1.338124459e-11
-1.217982284e-11
9.518631058e-06
-5.022893604e-12
-6.430699961e-12
9.518651692e-06
-2.317926633e-12
-3.723419026e-12
9.51866769e-06
-6.049777747e-13
-2.487106114e-12
9.518682064e-06
7.631441594e-13
-2.866464701e-12
9.518695818e-06
6.806493242e-13
-8.232195514e-13
9.518709001e-06
-3.895596896e-13
-4.572512652e-13
9.518725755e-06
-1.648262788e-12
9.128925422e-14
-2.421286538e-12
-6.396190689e-13
9.497605914e-06
-1.169926072e-09
-4.178974318e-10
9.497654669e-06
-3.656056791e-10
1.28082011e-11
9.497753394e-06
-1.719537182e-10
-2.44901994e-11
9.49781873e-06
-9.434266026e-11
-2.504475939e-11
9.497858351e-06
-4.484427973e-11
-1.372107331e-11
9.497888244e-06
-2.179031123e-11
-6.606889985e-12
9.497903795e-06
-1.318584268e-11
-5.385305716e-12
9.497916405e-06
-6.99522641e-12
-2.919904525e-12
9.497923439e-06
-4.623449893e-12
-7.964583846e-13
9.497925929e-06
-2.384676979e-12
-1.319718255e-12
9.49793079e-06
-2.045747767e-12
-9.728122517e-13
9.497936136e-06
-5.977619869e-13
4.266966288e-13
9.497943265e-06
-2.201610027e-12
-7.633242955e-13
-3.404709528e-12
-8.361547565e-13
9.498072902e-06
-3.12775398e-10
-1.180991288e-10
9.49789052e-06
-9.37115269e-11
-4.318340344e-11
9.497851158e-06
-6.393851928e-11
-3.331584748e-11
9.497853461e-06
-4.780549147e-11
-2.212834371e-11
9.497863554e-06
-3.105312222e-11
-1.282409788e-11
9.497877114e-06
-2.162530447e-11
-7.650686386e-12
9.497889402e-06
-1.447570832e-11
-6.338230577e-12
9.497898614e-06
-9.467013933e-12
-3.372501038e-12
9.497906797e-06
-7.051314552e-12
-2.074249143e-12
9.497911485e-06
-5.247523178e-12
-1.702610701e-12
9.497917715e-06
-4.974128408e-12
-2.558088044e-13
9.497920372e-06
-3.987468261e-12
-1.884112354e-12
9.497925795e-06
-4.580462685e-12
-5.630907839e-13
-3.675715105e-12
-1.42747773e-12
9.498008469e-06
-6.480685303e-11
-3.21851135e-11
9.497956794e-06
-2.403481532e-11
-1.134706565e-11
9.497931922e-06
-2.50826186e-11
-1.037922179e-11
9.497918743e-06
-2.00816284e-11
-8.457269887e-12
9.497911644e-06
-1.380514788e-11
-4.632231164e-12
9.497909799e-06
-9.376853035e-12
-2.447021874e-12
9.497910005e-06
-8.55042213e-12
-3.105786951e-12
9.497909126e-06
-5.655472066e-12
-3.520955685e-12
9.497911678e-06
-3.994415181e-12
-9.837806512e-13
9.497910789e-06
-4.698620788e-12
-5.305999954e-13
9.49791375e-06
-2.432496369e-12
-3.485885371e-13
9.497911779e-06
-3.073321563e-12
-1.772617976e-12
9.497914908e-06
-3.341240705e-12
-9.890279023e-13
-3.842854003e-12
-1.190868719e-12
9.497969772e-06
-4.881684658e-12
9.49794998e-06
-3.352201e-12
9.497934886e-06
-5.224451545e-12
9.497922881e-06
-5.114005047e-12
9.497914764e-06
-4.624698687e-12
9.497909012e-06
-3.216559706e-12
9.497909005e-06
-7.57766899e-13
9.497903097e-06
-2.842820552e-12
9.497900394e-06
-1.162549376e-12
9.497900478e-06
-2.847554166e-13
9.497899751e-06
-8.616374547e-13
9.497898607e-06
5.378639187e-13
9.497897945e-06
4.782419701e-14
3.253393145e-13
9.497992552e-06
-8.165094891e-11