/*--------------------------------*- C++ -*----------------------------------*\
| =========                 |                                                 |
| \\      /  F ield         | OpenFOAM: The Open Source CFD Toolbox           |
|  \\    /   O peration     | Version:  4.x                                   |
|   \\  /    A nd           | Web:      www.OpenFOAM.org                      |
|    \\/     M anipulation  |                                                 |
\*---------------------------------------------------------------------------*/
FoamFile
{
    version     2.0;
    format      ascii;
    class       volScalarField;
    location    "11000";
    object      T;
}
// * * * * * * * * * * * * * * * * * * * * * * * * * * * * * * * * * * * * * //

dimensions      [0 0 0 1 0 0 0];

internalField   nonuniform List<scalar> 
1174
(
1223.149509
1223.149433
1223.149436
1223.149363
1223.149472
1223.149514
1223.14937
1223.149292
1223.14931
1223.149285
1223.149273
1223.149168
1223.149238
1223.14937
1223.143633
1223.143597
1223.143648
1223.143555
1223.143544
1223.143498
1223.143617
1223.143692
1223.143877
1223.143668
1223.14375
1223.143881
1223.143795
1223.143801
1223.148941
1223.149146
1223.149173
1223.149001
1223.149014
1223.149121
1223.149064
1223.149075
1223.149043
1223.148972
1223.148894
1223.148892
1223.148882
1223.148785
1223.146711
1223.146777
1223.146602
1223.146624
1223.146755
1223.14677
1223.146546
1223.146604
1223.146672
1223.146403
1223.146583
1223.146382
1223.146418
1223.146512
1223.152929
1223.152842
1223.152906
1223.152978
1223.153139
1223.153204
1223.153326
1223.153257
1223.153149
1223.153107
1223.15311
1223.153139
1223.153158
1223.153229
1223.152427
1223.152442
1223.152457
1223.15221
1223.152238
1223.152448
1223.152258
1223.152301
1223.152281
1223.152393
1223.152425
1223.152292
1223.152327
1223.15244
1223.149958
1223.149873
1223.149907
1223.149821
1223.1498
1223.149854
1223.149872
1223.149556
1223.149562
1223.149663
1223.149611
1223.14975
1223.149784
1223.149791
1223.151793
1223.151993
1223.151997
1223.152029
1223.151975
1223.152056
1223.152177
1223.152195
1223.152355
1223.152256
1223.152288
1223.152401
1223.152401
1223.152441
1223.153653
1223.153646
1223.153584
1223.153523
1223.153642
1223.153681
1223.153638
1223.15362
1223.153701
1223.153756
1223.153738
1223.153749
1223.153712
1223.15369
1223.149014
1223.149012
1223.148957
1223.148945
1223.149165
1223.149151
1223.149205
1223.149153
1223.14922
1223.149132
1223.149348
1223.149216
1223.149153
1223.149228
1223.149233
1223.150582
1223.150648
1223.150641
1223.150555
1223.150463
1223.1505
1223.150498
1223.150408
1223.15024
1223.150124
1223.150201
1223.150274
1223.150332
1223.150185
1223.158841
1223.158653
1223.158858
1223.158822
1223.158623
1223.158802
1223.158953
1223.158966
1223.159053
1223.159091
1223.159162
1223.159135
1223.159205
1223.159365
1223.147107
1223.147308
1223.147287
1223.147211
1223.147369
1223.147162
1223.147209
1223.147284
1223.14716
1223.147088
1223.14709
1223.14701
1223.14685
1223.147099
1223.155499
1223.155417
1223.155229
1223.155027
1223.15479
1223.154889
1223.154811
1223.154917
1223.154815
1223.154635
1223.154691
1223.154717
1223.154864
1223.15484
1223.14247
1223.142785
1223.143005
1223.143005
1223.142997
1223.142751
1223.142653
1223.142828
1223.142752
1223.142925
1223.142975
1223.143036
1223.143001
1223.143179
1223.15803
1223.158108
1223.158195
1223.158223
1223.158335
1223.158344
1223.158233
1223.15832
1223.158458
1223.158538
1223.158642
1223.158516
1223.158431
1223.158573
1223.145214
1223.145314
1223.14523
1223.145128
1223.145306
1223.145409
1223.14529
1223.145227
1223.145156
1223.145155
1223.145199
1223.145292
1223.145167
1223.145315
1223.154776
1223.154874
1223.154788
1223.15485
1223.154925
1223.155022
1223.154863
1223.154881
1223.15485
1223.154926
1223.154881
1223.154944
1223.154909
1223.15494
1223.149292
1223.149328
1223.14944
1223.149586
1223.149522
1223.149627
1223.149701
1223.149619
1223.149369
1223.149296
1223.14946
1223.149525
1223.149413
1223.149385
1223.149449
1223.143739
1223.143806
1223.143986
1223.143852
1223.143752
1223.14353
1223.143581
1223.143688
1223.143762
1223.143752
1223.143669
1223.143708
1223.143665
1223.143523
1223.143442
1223.146475
1223.146681
1223.146739
1223.146644
1223.14682
1223.146847
1223.146945
1223.146912
1223.14681
1223.146796
1223.146843
1223.146756
1223.146748
1223.14682
1223.149903
1223.149792
1223.149932
1223.149832
1223.149833
1223.149727
1223.14985
1223.149788
1223.149736
1223.149664
1223.149616
1223.149559
1223.149598
1223.149373
1223.144348
1223.144418
1223.14452
1223.14462
1223.14447
1223.144501
1223.144281
1223.144274
1223.144186
1223.144227
1223.144171
1223.144126
1223.144116
1223.144062
1223.145228
1223.145057
1223.145086
1223.145073
1223.145004
1223.144967
1223.144968
1223.145177
1223.145202
1223.145131
1223.145134
1223.145152
1223.145211
1223.14523
1223.151807
1223.151868
1223.152016
1223.151858
1223.152079
1223.152192
1223.152227
1223.152213
1223.152341
1223.152217
1223.152243
1223.152282
1223.15226
1223.152108
1223.155411
1223.155481
1223.155532
1223.155593
1223.15539
1223.155381
1223.155336
1223.1554
1223.15557
1223.155605
1223.155749
1223.15587
1223.155869
1223.155965
1223.141737
1223.141706
1223.141594
1223.141543
1223.141701
1223.141704
1223.141584
1223.141599
1223.141634
1223.141527
1223.141566
1223.141781
1223.141884
1223.141802
1223.151966
1223.152025
1223.152135
1223.152222
1223.152094
1223.152186
1223.15216
1223.152145
1223.152167
1223.152082
1223.152074
1223.152222
1223.152206
1223.152141
1223.152022
1223.154576
1223.154718
1223.154862
1223.154717
1223.154723
1223.154762
1223.154831
1223.154844
1223.15484
1223.154792
1223.155001
1223.154952
1223.154944
1223.154842
1223.154892
1223.146688
1223.146854
1223.146703
1223.146954
1223.147068
1223.147108
1223.147217
1223.147185
1223.147177
1223.147061
1223.14693
1223.14692
1223.146888
1223.146843
1223.146968
1223.155389
1223.155405
1223.155328
1223.155156
1223.154926
1223.154925
1223.154943
1223.154945
1223.154895
1223.15505
1223.155043
1223.155083
1223.155095
1223.155143
1223.15775
1223.157574
1223.157361
1223.157368
1223.157555
1223.157593
1223.157448
1223.157535
1223.157447
1223.157638
1223.157677
1223.157647
1223.157622
1223.157599
1223.145382
1223.145388
1223.145341
1223.145473
1223.145529
1223.145401
1223.145523
1223.145537
1223.145607
1223.145706
1223.145797
1223.145895
1223.145649
1223.145655
1223.150684
1223.15068
1223.150851
1223.150943
1223.150872
1223.150902
1223.151109
1223.151034
1223.15081
1223.150873
1223.150916
1223.150879
1223.150669
1223.150655
1223.139973
1223.139955
1223.140135
1223.140146
1223.140255
1223.140153
1223.140188
1223.140023
1223.139917
1223.139885
1223.139783
1223.139786
1223.139722
1223.139663
1223.145644
1223.14561
1223.14566
1223.145747
1223.145561
1223.145556
1223.145689
1223.145834
1223.145742
1223.145669
1223.145798
1223.145806
1223.145804
1223.145876
1223.151528
1223.15156
1223.151562
1223.15146
1223.151701
1223.151675
1223.151574
1223.151585
1223.151658
1223.151545
1223.151337
1223.151292
1223.151349
1223.151308
1223.151474
1223.146669
1223.146867
1223.146761
1223.146716
1223.146764
1223.147038
1223.147043
1223.147018
1223.146982
1223.147023
1223.147093
1223.147172
1223.147186
1223.14714
1223.147033
1223.14817
1223.14821
1223.148152
1223.148081
1223.148127
1223.148057
1223.148028
1223.148082
1223.148061
1223.148134
1223.148191
1223.14812
1223.148026
1223.14794
1223.147864
1223.152827
1223.152948
1223.152959
1223.152926
1223.152978
1223.152941
1223.15272
1223.152711
1223.152661
1223.152551
1223.152521
1223.152482
1223.15255
1223.1524
1223.152535
1220.500215
1220.498629
1220.497149
1220.495676
1220.49424
1220.492786
1220.49138
1220.490182
1220.488834
1220.487413
1220.485945
1220.48449
1220.483132
1220.481838
1223.152637
1223.152746
1223.152635
1223.152477
1223.15245
1223.152478
1223.152471
1223.152364
1223.15224
1223.152199
1223.15207
1223.15217
1223.152208
1223.15217
1223.153336
1223.153349
1223.153226
1223.153098
1223.15296
1223.152895
1223.152911
1223.15308
1223.153029
1223.152876
1223.152839
1223.15284
1223.152905
1223.152719
1223.153479
1223.153431
1223.153336
1223.153371
1223.153368
1223.153392
1223.153281
1223.153407
1223.153434
1223.153492
1223.153576
1223.153578
1223.153544
1223.153603
1223.155957
1223.155991
1223.155933
1223.155848
1223.155893
1223.15593
1223.155823
1223.155771
1223.155807
1223.155825
1223.155749
1223.15578
1223.155681
1223.155608
1223.151826
1223.151918
1223.151875
1223.151824
1223.151817
1223.151797
1223.151696
1223.151652
1223.151535
1223.151527
1223.151365
1223.151365
1223.151294
1223.151446
1223.151287
1223.148788
1223.148793
1223.14889
1223.148801
1223.148895
1223.148894
1223.148936
1223.149045
1223.148899
1223.148935
1223.149089
1223.149089
1223.148968
1223.148912
1223.149048
1223.153071
1223.153344
1223.153496
1223.153555
1223.15337
1223.153437
1223.153642
1223.153585
1223.153768
1223.153641
1223.153644
1223.153713
1223.153576
1223.153555
1223.153526
1223.147171
1223.147233
1223.147298
1223.147352
1223.147221
1223.147203
1223.147013
1223.147142
1223.147081
1223.146992
1223.146934
1223.146934
1223.146902
1223.146792
1223.146782
1223.153328
1223.153468
1223.153352
1223.153284
1223.153287
1223.1533
1223.153359
1223.153321
1223.153193
1223.153166
1223.153093
1223.15323
1223.153187
1223.153187
1223.153258
1223.149892
1223.149884
1223.149659
1223.149782
1223.149783
1223.149886
1223.149623
1223.149557
1223.149395
1223.149518
1223.149665
1223.149582
1223.149745
1223.149749
1223.149791
1223.148406
1223.148648
1223.148379
1223.148354
1223.148289
1223.14822
1223.148306
1223.148156
1223.148221
1223.148184
1223.148167
1223.148213
1223.148021
1223.148008
1223.152724
1223.152832
1223.152917
1223.152927
1223.153024
1223.153078
1223.152996
1223.152764
1223.152791
1223.152826
1223.152827
1223.152891
1223.152715
1223.152864
1223.151867
1223.151853
1223.151939
1223.151903
1223.151905
1223.151832
1223.151712
1223.151712
1223.151754
1223.151581
1223.151598
1223.151534
1223.151596
1223.151579
1223.147518
1223.147536
1223.147428
1223.147506
1223.147499
1223.147609
1223.147534
1223.147355
1223.147447
1223.147274
1223.147237
1223.147441
1223.147452
1223.147416
1223.147327
1223.155141
1223.155146
1223.154969
1223.155064
1223.15505
1223.155342
1223.15521
1223.154976
1223.155002
1223.155045
1223.154842
1223.154865
1223.155025
1223.154914
1223.154925
1223.148443
1223.148335
1223.148462
1223.148344
1223.148484
1223.14844
1223.148318
1223.148313
1223.148154
1223.148101
1223.14825
1223.148054
1223.14807
1223.14799
1223.14824
1223.150645
1223.150704
1223.150644
1223.150695
1223.150708
1223.150708
1223.150645
1223.150759
1223.150886
1223.150868
1223.150951
1223.150939
1223.150792
1223.150991
1223.151016
1223.150304
1223.150539
1223.150586
1223.150823
1223.150792
1223.150651
1223.150384
1223.150288
1223.150358
1223.150205
1223.150309
1223.150354
1223.150307
1223.150206
1223.150267
1223.154869
1223.155043
1223.154953
1223.154822
1223.155022
1223.155048
1223.155216
1223.155142
1223.155116
1223.155006
1223.155072
1223.15502
1223.155162
1223.155196
1223.155109
1223.152726
1223.152614
1223.152652
1223.152506
1223.152396
1223.15234
1223.152262
1223.152125
1223.152129
1223.152153
1223.152299
1223.152304
1223.152159
1223.152233
1223.152305
1223.147462
1223.147433
1223.147552
1223.147761
1223.147725
1223.147739
1223.147795
1223.147842
1223.147699
1223.147787
1223.147707
1223.147512
1223.147631
1223.147797
1223.145914
1223.146021
1223.146005
1223.145992
1223.145958
1223.145967
1223.146044
1223.146009
1223.145965
1223.145992
1223.145946
1223.145819
1223.145867
1223.145919
1223.151031
1223.150973
1223.15101
1223.151097
1223.151224
1223.151028
1223.150988
1223.150906
1223.150997
1223.151154
1223.151075
1223.150968
1223.151013
1223.15103
1223.151037
1223.147363
1223.147431
1223.147342
1223.147472
1223.147531
1223.147453
1223.147428
1223.147443
1223.147428
1223.147216
1223.147276
1223.147337
1223.14726
1223.147137
1223.147097
1223.15436
1223.154161
1223.154187
1223.154219
1223.15425
1223.154318
1223.154184
1223.154084
1223.154053
1223.154033
1223.154028
1223.154053
1223.154013
1223.153822
1223.153847
1223.14896
1223.14922
1223.149292
1223.149246
1223.149187
1223.14921
1223.149188
1223.149139
1223.149082
1223.149202
1223.149278
1223.149115
1223.149102
1223.148974
1223.14898
1223.154135
1223.154198
1223.154162
1223.154247
1223.154413
1223.154554
1223.154575
1223.154831
1223.15472
1223.15477
1223.154689
1223.154532
1223.154481
1223.154331
1223.154292
1223.148296
1223.148345
1223.148151
1223.148145
1223.148109
1223.14811
1223.148038
1223.148127
1223.14818
1223.148165
1223.148066
1223.148066
1223.147926
1223.14798
1223.147876
1223.148107
1223.14822
1223.148213
1223.148301
1223.148362
1223.148329
1223.148328
1223.148469
1223.14828
1223.148328
1223.148395
1223.148533
1223.148557
1223.148572
1223.148538
1223.14644
1223.146375
1223.146393
1223.146269
1223.146279
1223.146234
1223.146254
1223.146251
1223.146297
1223.146227
1223.146324
1223.14629
1223.146299
1223.146307
1223.146363
1223.151925
1223.152022
1223.152013
1223.15204
1223.152171
1223.152001
1223.152137
1223.152094
1223.152133
1223.151962
1223.152093
1223.152061
1223.152084
1223.152222
1223.152304
1223.15239
1223.152356
1223.15238
1223.152347
1223.152234
1223.152334
1223.152431
1223.152466
1223.152553
1223.15267
1223.152706
1223.152688
1223.152799
1223.152795
1223.148113
1223.148271
1223.148322
1223.148127
1223.148061
1223.148035
1223.148102
1223.148147
1223.14814
1223.148269
1223.148058
1223.1481
1223.148143
1223.148102
1223.148216
1223.154093
1223.153969
1223.153947
1223.153934
1223.153936
1223.153861
1223.153946
1223.154101
1223.154204
1223.154134
1223.154008
1223.154155
1223.154049
1223.153959
1223.154238
1223.141837
1223.142029
1223.141909
1223.141967
1223.141908
1223.141947
1223.141885
1223.141863
1223.141914
1223.141959
1223.14191
1223.141865
1223.14194
1223.141979
1223.142085
1223.146178
1223.146161
1223.146095
1223.145983
1223.146011
1223.146131
1223.146051
1223.146031
1223.146025
1223.145865
1223.145849
1223.145955
1223.146159
1223.146183
1223.146026
1223.150494
1223.150569
1223.150524
1223.150609
1223.150647
1223.150709
1223.150646
1223.150762
1223.150799
1223.150865
1223.150796
1223.150722
1223.150753
1223.150835
1223.150684
1223.149404
1223.149541
1223.14951
1223.149538
1223.149536
1223.149469
1223.149484
1223.149345
1223.149364
1223.149361
1223.149433
1223.149225
1223.149257
1223.149337
1223.149409
1223.150295
1223.150169
1223.150159
1223.150191
1223.150253
1223.150225
1223.150278
1223.150203
1223.150124
1223.150047
1223.150028
1223.15009
1223.149977
1223.15
1223.149968
1223.148563
1223.148571
1223.148532
1223.148538
1223.148676
1223.148567
1223.148495
1223.148445
1223.148509
1223.148506
1223.148558
1223.148745
1223.148681
1223.148677
1223.148658
)
;

boundaryField
{
    top
    {
        type            zeroGradient;
    }
    bottom
    {
        type            zeroGradient;
    }
    side-walls
    {
        type            zeroGradient;
    }
    inlet
    {
        type            zeroGradient;
    }
    outlet
    {
        type            zeroGradient;
    }
    procBoundary1to0
    {
        type            processor;
        value           nonuniform List<scalar> 
97
(
1223.149373
1223.149373
1223.143735
1223.14901
1223.146649
1223.152874
1223.152338
1223.150062
1223.151726
1223.153748
1223.14888
1223.150416
1223.150416
1223.150416
1223.158854
1223.147156
1223.155428
1223.142651
1223.158321
1223.145317
1223.154736
1223.149292
1223.143679
1223.146627
1223.146627
1223.146627
1223.149879
1223.144223
1223.145247
1223.15178
1223.155273
1223.141703
1223.152056
1223.154466
1223.146678
1223.155343
1223.155343
1223.155343
1223.157699
1223.145382
1223.15078
1223.13999
1223.145647
1223.151583
1223.146545
1223.147994
1223.153581
1220.499057
1220.499057
1220.499057
1223.15253
1223.15253
1223.153398
1223.153691
1223.155871
1223.152046
1223.148672
1223.153174
1223.147073
1223.15411
1223.149761
1223.148477
1223.148477
1223.148477
1223.152841
1223.151976
1223.147415
1223.155022
1223.148498
1223.150459
1223.150471
1223.154897
1223.152567
1223.147406
1223.147406
1223.147406
1223.146037
1223.151059
1223.147191
1223.154424
1223.14893
1223.154116
1223.148312
1223.148344
1223.146249
1223.151926
1223.151926
1223.151926
1223.152368
1223.148177
1223.1539
1223.141725
1223.146283
1223.150659
1223.149389
1223.150164
1223.148507
)
;
    }
}


// ************************************************************************* //
