/*--------------------------------*- C++ -*----------------------------------*\
| =========                 |                                                 |
| \\      /  F ield         | OpenFOAM: The Open Source CFD Toolbox           |
|  \\    /   O peration     | Version:  4.x                                   |
|   \\  /    A nd           | Web:      www.OpenFOAM.org                      |
|    \\/     M anipulation  |                                                 |
\*---------------------------------------------------------------------------*/
FoamFile
{
    version     2.0;
    format      ascii;
    class       volScalarField;
    location    "11000";
    object      X_CO;
}
// * * * * * * * * * * * * * * * * * * * * * * * * * * * * * * * * * * * * * //

dimensions      [0 0 0 0 0 0 0];

internalField   nonuniform List<scalar> 
1174
(
0.372872714
0.3728717068
0.3728702837
0.372868426
0.3728661539
0.3728635172
0.372860586
0.3728574406
0.3728541621
0.372850827
0.3728475059
0.3728442738
0.3728412634
0.3728388972
0.372871765
0.3728701472
0.3728679913
0.3728653474
0.3728623066
0.3728589794
0.3728554786
0.3728519062
0.3728483485
0.3728448744
0.3728415384
0.3728383927
0.3728355372
0.3728333328
0.372869666
0.3728668001
0.3728632522
0.3728592226
0.3728549284
0.3728505645
0.372846285
0.3728422001
0.3728383797
0.3728348618
0.3728316623
0.372828791
0.3728262934
0.3728244233
0.3728665849
0.3728621254
0.3728570039
0.3728515957
0.3728462142
0.3728410838
0.3728363452
0.3728320711
0.3728282842
0.3728249745
0.3728221138
0.3728196687
0.372817635
0.3728161638
0.3728643809
0.3728590444
0.3728532221
0.3728473251
0.3728416507
0.3728363888
0.3728316427
0.3728274523
0.3728238144
0.3728206986
0.3728180603
0.3728158533
0.3728140553
0.3728127767
0.372866585
0.3728621254
0.372857004
0.3728515957
0.3728462141
0.3728410838
0.3728363451
0.3728320711
0.3728282843
0.3728249748
0.372822114
0.372819669
0.3728176354
0.3728161641
0.3728696658
0.3728667998
0.3728632521
0.3728592225
0.3728549283
0.3728505644
0.372846285
0.3728421999
0.3728383796
0.3728348618
0.3728316625
0.3728287914
0.3728262937
0.3728244237
0.3728717648
0.372870147
0.3728679912
0.3728653473
0.3728623065
0.3728589796
0.3728554785
0.3728519061
0.3728483487
0.3728448747
0.3728415388
0.372838393
0.3728355376
0.3728333331
0.3728727138
0.3728717066
0.3728702833
0.3728684257
0.3728661537
0.372863517
0.3728605859
0.3728574406
0.3728541622
0.3728508272
0.3728475062
0.3728442742
0.3728412636
0.3728388973
0.3728728565
0.3728717649
0.372870147
0.3728679914
0.3728653476
0.3728623067
0.3728589797
0.3728554787
0.3728519062
0.3728483485
0.3728448746
0.3728415385
0.3728383926
0.3728355372
0.3728333327
0.3728696215
0.3728667736
0.3728632995
0.3728594082
0.3728553099
0.3728511821
0.3728471563
0.3728433206
0.3728397272
0.3728364017
0.3728333537
0.3728305906
0.3728281609
0.3728263251
0.3728642192
0.3728586731
0.3728526432
0.3728466408
0.3728410166
0.3728359623
0.3728315473
0.3728277626
0.3728245559
0.3728218562
0.3728195904
0.3728176948
0.372816139
0.372815021
0.3728545992
0.3728453609
0.3728365752
0.3728289013
0.3728225704
0.3728175519
0.37281369
0.3728107864
0.3728086462
0.3728070988
0.3728060023
0.3728052447
0.3728047402
0.3728044415
0.3728455043
0.3728343776
0.3728249524
0.3728174779
0.3728118059
0.372807648
0.3728046959
0.372802674
0.3728013528
0.37280055
0.3728001242
0.3727999644
0.3727999794
0.3728000696
0.3728545993
0.3728453611
0.3728365756
0.3728289018
0.3728225707
0.3728175521
0.3728136902
0.3728107867
0.3728086465
0.3728070992
0.3728060027
0.3728052451
0.3728047406
0.3728044417
0.372864219
0.3728586732
0.3728526432
0.3728466408
0.3728410169
0.3728359627
0.3728315476
0.372827763
0.3728245563
0.3728218568
0.372819591
0.3728176953
0.3728161394
0.3728150215
0.3728696213
0.3728667735
0.3728632994
0.3728594082
0.3728553102
0.3728511822
0.3728471562
0.3728433207
0.3728397274
0.372836402
0.3728333541
0.3728305911
0.3728281612
0.3728263258
0.3728717649
0.372870147
0.3728679912
0.3728653473
0.3728623065
0.3728589796
0.3728554786
0.3728519062
0.3728483487
0.3728448749
0.3728415388
0.3728383931
0.3728355376
0.3728333333
0.3728717252
0.372869666
0.3728668001
0.3728632525
0.372859223
0.3728549288
0.3728505648
0.3728462852
0.3728422
0.3728383797
0.3728348619
0.3728316626
0.3728287911
0.3728262935
0.3728244235
0.3728686949
0.3728642193
0.3728586734
0.3728526434
0.3728466411
0.3728410167
0.3728359625
0.3728315475
0.3728277627
0.3728245559
0.3728218563
0.3728195906
0.372817695
0.3728161391
0.3728150211
0.372848229
0.3728365011
0.372825879
0.3728171695
0.3728105405
0.3728058014
0.3728026156
0.3728006241
0.3727995068
0.3727990038
0.3727989144
0.3727990875
0.3727994022
0.3727997174
0.3728125904
0.3727927432
0.372779052
0.3727709693
0.3727671739
0.3727663311
0.372767363
0.3727694883
0.3727721766
0.3727750849
0.3727779989
0.3727807812
0.3727833004
0.3727852311
0.3727658156
0.3727460398
0.3727375521
0.3727360642
0.372738509
0.3727429552
0.3727482573
0.3727537638
0.3727591185
0.3727641397
0.3727687425
0.3727728853
0.3727764909
0.3727791891
0.3728125911
0.372792744
0.3727790528
0.3727709702
0.3727671746
0.3727663317
0.3727673637
0.3727694891
0.3727721772
0.3727750855
0.3727779995
0.3727807818
0.3727833008
0.3727852319
0.3728482294
0.3728365015
0.3728258792
0.3728171697
0.372810541
0.3728058021
0.3728026162
0.3728006248
0.3727995078
0.3727990047
0.3727989151
0.3727990885
0.3727994031
0.3727997182
0.3728642191
0.3728586731
0.3728526432
0.372846641
0.3728410169
0.3728359627
0.3728315477
0.3728277631
0.3728245566
0.3728218569
0.3728195913
0.3728176958
0.37281614
0.3728150219
0.3728696659
0.3728667999
0.372863252
0.3728592226
0.3728549287
0.3728505646
0.3728462852
0.3728422004
0.3728383801
0.3728348622
0.3728316629
0.3728287919
0.3728262943
0.3728244243
0.372870023
0.372866585
0.3728621256
0.3728570041
0.3728515959
0.3728462143
0.3728410839
0.3728363454
0.3728320712
0.3728282844
0.3728249749
0.3728221139
0.3728196689
0.3728176352
0.3728161638
0.3728630933
0.3728545995
0.3728453612
0.3728365754
0.3728289015
0.3728225705
0.3728175523
0.3728136903
0.3728107864
0.3728086464
0.3728070988
0.3728060025
0.3728052448
0.3728047402
0.3728044414
0.3728367969
0.3728125909
0.3727927436
0.3727790524
0.3727709697
0.3727671743
0.3727663315
0.3727673633
0.3727694886
0.3727721769
0.3727750851
0.3727779992
0.3727807813
0.3727833003
0.3727852315
0.3726901773
0.372665098
0.3726609138
0.3726680664
0.3726802892
0.3726940407
0.3727075235
0.3727199345
0.372730996
0.3727406884
0.3727491017
0.3727563462
0.3727624355
0.3727668864
0.372449413
0.3724807072
0.3725289383
0.3725752231
0.3726145702
0.3726466772
0.3726725816
0.3726935101
0.3727105326
0.3727244981
0.3727360506
0.3727456516
0.3727535181
0.3727591747
0.3726901797
0.3726650998
0.3726609151
0.3726680677
0.3726802903
0.3726940416
0.3727075243
0.3727199353
0.3727309969
0.3727406892
0.3727491024
0.372756347
0.3727624361
0.3727668868
0.3728125908
0.372792744
0.3727790528
0.3727709703
0.3727671749
0.3727663322
0.3727673645
0.3727694897
0.3727721778
0.3727750862
0.3727780004
0.3727807825
0.3727833014
0.3727852322
0.3728545991
0.3728453609
0.3728365755
0.3728289019
0.372822571
0.3728175527
0.3728136909
0.3728107872
0.3728086472
0.3728070998
0.3728060035
0.372805246
0.3728047415
0.3728044425
0.3728665848
0.3728621252
0.372857004
0.372851596
0.3728462144
0.3728410841
0.3728363458
0.3728320718
0.372828285
0.3728249753
0.3728221147
0.3728196698
0.3728176363
0.3728161651
0.3728687435
0.372864381
0.3728590448
0.3728532224
0.3728473256
0.3728416512
0.372836389
0.372831643
0.3728274527
0.3728238147
0.3728206987
0.3728180604
0.3728158533
0.3728140553
0.3728127766
0.3728572353
0.3728455047
0.372834378
0.3728249527
0.3728174783
0.3728118067
0.3728076484
0.3728046962
0.3728026742
0.372801353
0.3728005505
0.3728001245
0.3727999647
0.3727999795
0.3728000697
0.372800919
0.3727658163
0.3727460406
0.3727375529
0.3727360647
0.3727385096
0.3727429557
0.3727482578
0.3727537641
0.3727591188
0.3727641399
0.3727687428
0.3727728853
0.3727764907
0.3727791891
0.3724924126
0.3724494155
0.3724807091
0.3725289397
0.3725752241
0.3726145709
0.3726466777
0.3726725821
0.3726935104
0.3727105329
0.3727244982
0.3727360507
0.3727456519
0.3727535182
0.3727591746
0.3714110734
0.3719391458
0.3722315425
0.3724027152
0.3725087354
0.3725780889
0.3726258019
0.3726601197
0.3726857524
0.3727055025
0.3727210995
0.3727336237
0.3727436331
0.3727507179
0.3724494137
0.3724807102
0.3725289413
0.3725752255
0.3726145724
0.3726466791
0.3726725833
0.3726935115
0.3727105339
0.3727244992
0.3727360515
0.3727456526
0.372753519
0.3727591754
0.3727658154
0.3727460407
0.3727375535
0.3727360656
0.3727385106
0.3727429568
0.372748259
0.3727537655
0.3727591202
0.3727641411
0.3727687439
0.3727728866
0.3727764919
0.3727791902
0.372845504
0.3728343777
0.3728249528
0.3728174786
0.3728118068
0.3728076489
0.372804697
0.3728026751
0.372801354
0.3728005514
0.3728001256
0.3727999658
0.3727999807
0.372800071
0.3728643806
0.3728590443
0.3728532222
0.3728473253
0.3728416511
0.3728363892
0.3728316431
0.3728274531
0.3728238154
0.3728206997
0.3728180614
0.3728158543
0.3728140565
0.3728127778
0.372870023
0.3728665852
0.3728621256
0.3728570041
0.3728515962
0.3728462146
0.3728410841
0.3728363456
0.3728320715
0.3728282846
0.3728249751
0.3728221141
0.3728196693
0.3728176359
0.3728161642
0.3728630934
0.3728545995
0.3728453615
0.3728365757
0.372828902
0.372822571
0.3728175526
0.3728136908
0.372810787
0.3728086468
0.3728070994
0.3728060031
0.3728052454
0.372804741
0.3728044421
0.3728367979
0.3728125918
0.3727927449
0.3727790534
0.3727709707
0.3727671752
0.3727663324
0.3727673642
0.3727694896
0.3727721777
0.3727750861
0.3727780001
0.3727807821
0.3727833012
0.3727852322
0.372746373
0.3726901817
0.3726651016
0.3726609168
0.3726680689
0.3726802914
0.3726940425
0.3727075252
0.3727199358
0.3727309974
0.3727406895
0.3727491026
0.372756347
0.3727624363
0.372766887
0.3724924131
0.3724494164
0.3724807119
0.3725289425
0.3725752266
0.372614573
0.3726466797
0.3726725838
0.3726935119
0.3727105342
0.3727244991
0.3727360517
0.3727456528
0.3727535191
0.3727591757
0.3727463725
0.3726901817
0.3726651021
0.3726609177
0.3726680698
0.3726802924
0.3726940434
0.3727075259
0.3727199367
0.3727309983
0.3727406905
0.3727491034
0.372756348
0.3727624372
0.3727668879
0.3728125904
0.3727927446
0.3727790536
0.3727709714
0.372767176
0.3727663332
0.3727673652
0.3727694904
0.3727721788
0.3727750871
0.3727780011
0.3727807832
0.3727833021
0.372785233
0.372854599
0.372845361
0.3728365756
0.3728289021
0.3728225714
0.3728175532
0.3728136913
0.3728107877
0.3728086477
0.3728071003
0.372806004
0.3728052464
0.3728047419
0.3728044432
0.3728665848
0.3728621254
0.372857004
0.372851596
0.3728462146
0.3728410844
0.372836346
0.372832072
0.3728282853
0.3728249758
0.3728221149
0.3728196701
0.3728176366
0.3728161653
0.3728717253
0.3728696661
0.3728668001
0.3728632523
0.3728592229
0.372854929
0.3728505649
0.3728462852
0.3728422004
0.3728383801
0.3728348621
0.372831663
0.3728287917
0.372826294
0.3728244239
0.3728686952
0.3728642195
0.3728586734
0.3728526437
0.3728466413
0.3728410176
0.3728359631
0.372831548
0.3728277633
0.3728245567
0.372821857
0.3728195913
0.3728176957
0.37281614
0.3728150218
0.372859404
0.3728482298
0.372836502
0.3728258798
0.3728171705
0.3728105416
0.3728058025
0.3728026167
0.3728006252
0.3727995081
0.3727990051
0.3727989154
0.3727990888
0.3727994033
0.3727997189
0.372836798
0.3728125921
0.3727927451
0.3727790539
0.3727709715
0.3727671758
0.3727663328
0.3727673649
0.3727694902
0.3727721783
0.3727750868
0.3727780006
0.3727807826
0.3727833018
0.3727852329
0.372800919
0.372765817
0.3727460419
0.3727375548
0.3727360667
0.3727385115
0.3727429575
0.3727482595
0.3727537658
0.3727591204
0.3727641415
0.3727687443
0.372772887
0.3727764922
0.3727791904
0.372836798
0.3728125922
0.3727927453
0.3727790542
0.3727709719
0.3727671765
0.3727663338
0.3727673657
0.3727694908
0.372772179
0.3727750873
0.3727780012
0.3727807834
0.3727833024
0.3727852333
0.3728594038
0.3728482296
0.3728365019
0.3728258798
0.3728171707
0.372810542
0.3728058032
0.3728026174
0.3728006258
0.3727995088
0.3727990059
0.3727989165
0.3727990897
0.3727994043
0.3727997196
0.372864219
0.3728586732
0.3728526435
0.3728466416
0.3728410175
0.3728359633
0.3728315485
0.372827764
0.3728245573
0.3728218578
0.3728195921
0.3728176964
0.3728161408
0.3728150228
0.3728696658
0.3728668001
0.3728632523
0.3728592229
0.3728549289
0.3728505649
0.3728462857
0.3728422008
0.3728383805
0.3728348628
0.3728316635
0.3728287924
0.3728262949
0.3728244251
0.3728728565
0.3728717651
0.3728701471
0.3728679915
0.3728653479
0.3728623069
0.3728589798
0.3728554789
0.3728519065
0.372848349
0.3728448751
0.3728415389
0.3728383933
0.3728355379
0.3728333333
0.3728716951
0.3728696216
0.3728667737
0.3728632998
0.3728594086
0.3728553104
0.3728511826
0.3728471568
0.3728433211
0.3728397278
0.3728364025
0.3728333545
0.3728305913
0.3728281615
0.3728263258
0.3728686952
0.3728642194
0.3728586736
0.3728526437
0.3728466416
0.3728410176
0.3728359631
0.3728315482
0.3728277635
0.372824557
0.3728218574
0.3728195917
0.3728176961
0.3728161401
0.3728150222
0.3728630934
0.3728545999
0.3728453618
0.372836576
0.3728289026
0.3728225716
0.3728175534
0.3728136914
0.3728107877
0.3728086477
0.3728071003
0.3728060038
0.3728052462
0.3728047418
0.3728044429
0.3728572353
0.3728455048
0.3728343783
0.3728249536
0.3728174792
0.3728118076
0.3728076496
0.3728046977
0.3728026757
0.3728013546
0.3728005519
0.3728001258
0.3727999661
0.3727999809
0.3728000712
0.3728630935
0.3728545998
0.3728453616
0.3728365762
0.3728289025
0.3728225717
0.3728175535
0.3728136917
0.3728107882
0.3728086482
0.3728071006
0.3728060043
0.3728052467
0.3728047424
0.3728044433
0.3728686947
0.3728642193
0.3728586734
0.3728526437
0.3728466416
0.3728410177
0.3728359635
0.3728315487
0.372827764
0.3728245574
0.372821858
0.3728195923
0.3728176968
0.3728161411
0.3728150228
0.3728716949
0.3728696215
0.3728667737
0.3728632996
0.3728594086
0.3728553105
0.3728511826
0.3728471569
0.3728433215
0.3728397283
0.3728364031
0.372833355
0.3728305919
0.3728281623
0.3728263269
0.372871765
0.3728701471
0.3728679914
0.3728653476
0.372862307
0.3728589798
0.3728554791
0.3728519068
0.3728483492
0.3728448754
0.3728415396
0.3728383939
0.3728355386
0.3728333343
0.3728733611
0.372872714
0.3728717069
0.3728702837
0.3728684262
0.3728661539
0.3728635172
0.3728605862
0.3728574409
0.3728541626
0.3728508275
0.3728475064
0.3728442744
0.372841264
0.3728388978
0.3728728565
0.3728717651
0.3728701473
0.3728679915
0.3728653477
0.3728623069
0.3728589799
0.3728554791
0.3728519067
0.3728483491
0.3728448751
0.3728415392
0.3728383936
0.3728355381
0.3728333338
0.3728717255
0.3728696662
0.3728668002
0.3728632525
0.3728592231
0.3728549289
0.3728505651
0.3728462858
0.3728422011
0.3728383807
0.3728348626
0.3728316635
0.3728287923
0.3728262945
0.3728244248
0.3728700232
0.3728665854
0.3728621257
0.3728570044
0.3728515964
0.3728462148
0.3728410845
0.3728363463
0.3728320724
0.3728282856
0.372824976
0.3728221151
0.3728196704
0.3728176368
0.3728161656
0.3728687435
0.3728643811
0.3728590448
0.3728532228
0.372847326
0.3728416518
0.3728363899
0.3728316441
0.3728274539
0.372823816
0.3728207003
0.372818062
0.372815855
0.372814057
0.3728127783
0.372870023
0.3728665852
0.3728621257
0.3728570044
0.3728515965
0.3728462151
0.3728410848
0.3728363465
0.3728320725
0.3728282857
0.3728249762
0.3728221155
0.3728196705
0.372817637
0.3728161657
0.3728717252
0.3728696661
0.3728668003
0.3728632525
0.3728592232
0.3728549292
0.3728505653
0.3728462859
0.3728422012
0.3728383809
0.3728348633
0.3728316638
0.3728287927
0.3728262952
0.3728244253
0.3728728567
0.3728717651
0.3728701472
0.3728679914
0.3728653477
0.3728623069
0.3728589801
0.3728554792
0.3728519068
0.3728483494
0.3728448755
0.3728415397
0.372838394
0.3728355386
0.3728333344
0.3728733611
0.3728727139
0.3728717068
0.3728702835
0.3728684263
0.3728661541
0.3728635173
0.3728605863
0.3728574412
0.3728541628
0.3728508278
0.3728475071
0.372844275
0.3728412645
0.3728388983
)
;

boundaryField
{
    top
    {
        type            calculated;
        value           nonuniform List<scalar> 
127
(
0.3728733611
0.3728727138
0.3728717649
0.3728696659
0.3728665848
0.3728643806
0.3728665848
0.3728696658
0.372871765
0.3728727139
0.3728717066
0.372870147
0.3728667999
0.3728621252
0.3728590443
0.3728621254
0.3728668001
0.3728701471
0.3728717068
0.3728702833
0.3728679912
0.372863252
0.372857004
0.3728532222
0.372857004
0.3728632523
0.3728679914
0.3728702835
0.3728684257
0.3728653473
0.3728592226
0.372851596
0.3728473253
0.372851596
0.3728592229
0.3728653476
0.3728684263
0.3728661537
0.3728623065
0.3728549287
0.3728462144
0.3728416511
0.3728462146
0.3728549289
0.372862307
0.3728661541
0.372863517
0.3728589796
0.3728505646
0.3728410841
0.3728363892
0.3728410844
0.3728505649
0.3728589798
0.3728635173
0.3728605859
0.3728554786
0.3728462852
0.3728363458
0.3728316431
0.372836346
0.3728462857
0.3728554791
0.3728605863
0.3728574406
0.3728519062
0.3728422004
0.3728320718
0.3728274531
0.372832072
0.3728422008
0.3728519068
0.3728574412
0.3728541622
0.3728483487
0.3728383801
0.372828285
0.3728238154
0.3728282853
0.3728383805
0.3728483492
0.3728541628
0.3728508272
0.3728448749
0.3728348622
0.3728249753
0.3728206997
0.3728249758
0.3728348628
0.3728448754
0.3728508278
0.3728475062
0.3728415388
0.3728316629
0.3728221147
0.3728180614
0.3728221149
0.3728316635
0.3728415396
0.3728475071
0.3728442742
0.3728383931
0.3728287919
0.3728196698
0.3728158543
0.3728196701
0.3728287924
0.3728383939
0.372844275
0.3728412636
0.3728355376
0.3728262943
0.3728176363
0.3728140565
0.3728176366
0.3728262949
0.3728355386
0.3728412645
0.3728388973
0.3728333333
0.3728244243
0.3728161651
0.3728127778
0.3728161653
0.3728244251
0.3728333343
0.3728388983
)
;
    }
    bottom
    {
        type            calculated;
        value           nonuniform List<scalar> 
134
(
0.3728728565
0.3728717252
0.372870023
0.3728687435
0.372870023
0.3728717253
0.3728728565
0.3728733611
0.372872714
0.3728717649
0.372869666
0.372866585
0.372864381
0.3728665852
0.3728696661
0.3728717651
0.372872714
0.3728717068
0.372870147
0.3728668001
0.3728621256
0.3728590448
0.3728621256
0.3728668001
0.3728701471
0.3728717069
0.3728702837
0.3728679914
0.3728632525
0.3728570041
0.3728532224
0.3728570041
0.3728632523
0.3728679915
0.3728702837
0.372868426
0.3728653476
0.372859223
0.3728515959
0.3728473256
0.3728515962
0.3728592229
0.3728653479
0.3728684262
0.3728661539
0.3728623067
0.3728549288
0.3728462143
0.3728416512
0.3728462146
0.372854929
0.3728623069
0.3728661539
0.3728635172
0.3728589797
0.3728505648
0.3728410839
0.372836389
0.3728410841
0.3728505649
0.3728589798
0.3728635172
0.372860586
0.3728554787
0.3728462852
0.3728363454
0.372831643
0.3728363456
0.3728462852
0.3728554789
0.3728605862
0.3728574406
0.3728519062
0.3728422
0.3728320712
0.3728274527
0.3728320715
0.3728422004
0.3728519065
0.3728574409
0.3728541621
0.3728483485
0.3728383797
0.3728282844
0.3728238147
0.3728282846
0.3728383801
0.372848349
0.3728541626
0.372850827
0.3728448746
0.3728348619
0.3728249749
0.3728206987
0.3728249751
0.3728348621
0.3728448751
0.3728508275
0.3728475059
0.3728415385
0.3728316626
0.3728221139
0.3728180604
0.3728221141
0.372831663
0.3728415389
0.3728475064
0.3728442738
0.3728383926
0.3728287911
0.3728196689
0.3728158533
0.3728196693
0.3728287917
0.3728383933
0.3728442744
0.3728412634
0.3728355372
0.3728262935
0.3728176352
0.3728140553
0.3728176359
0.372826294
0.3728355379
0.372841264
0.3728388972
0.3728333327
0.3728244235
0.3728161638
0.3728127766
0.3728161642
0.3728244239
0.3728333333
0.3728388978
)
;
    }
    side-walls
    {
        type            calculated;
        value           nonuniform List<scalar> 
261
(
0.372872714
0.372871765
0.372869666
0.3728665849
0.3728643809
0.372866585
0.3728696658
0.3728717648
0.3728727138
0.3728717068
0.3728701472
0.3728668001
0.3728621254
0.3728590444
0.3728621254
0.3728667998
0.372870147
0.3728717066
0.3728702837
0.3728679913
0.3728632522
0.3728570039
0.3728532221
0.372857004
0.3728632521
0.3728679912
0.3728702833
0.372868426
0.3728653474
0.3728592226
0.3728515957
0.3728473251
0.3728515957
0.3728592225
0.3728653473
0.3728684257
0.3728661539
0.3728623066
0.3728549284
0.3728462142
0.3728416507
0.3728462141
0.3728549283
0.3728623065
0.3728661537
0.3728635172
0.3728589794
0.3728505645
0.3728410838
0.3728363888
0.3728410838
0.3728505644
0.3728589796
0.372863517
0.372860586
0.3728554786
0.372846285
0.3728363452
0.3728316427
0.3728363451
0.372846285
0.3728554785
0.3728605859
0.3728574406
0.3728519062
0.3728422001
0.3728320711
0.3728274523
0.3728320711
0.3728421999
0.3728519061
0.3728574406
0.3728541621
0.3728483485
0.3728383797
0.3728282842
0.3728238144
0.3728282843
0.3728383796
0.3728483487
0.3728541622
0.372850827
0.3728448744
0.3728348618
0.3728249745
0.3728206986
0.3728249748
0.3728348618
0.3728448747
0.3728508272
0.3728475059
0.3728415384
0.3728316623
0.3728221138
0.3728180603
0.372822114
0.3728316625
0.3728415388
0.3728475062
0.3728442738
0.3728383927
0.372828791
0.3728196687
0.3728158533
0.372819669
0.3728287914
0.372838393
0.3728442742
0.3728412634
0.3728355372
0.3728262934
0.372817635
0.3728140553
0.3728176354
0.3728262937
0.3728355376
0.3728412636
0.3728388972
0.3728333328
0.3728244233
0.3728161638
0.3728127767
0.3728161641
0.3728244237
0.3728333331
0.3728388973
0.3728733611
0.3728728565
0.3728717255
0.3728700232
0.3728687435
0.372870023
0.3728717252
0.3728728567
0.3728733611
0.372872714
0.3728717651
0.3728696662
0.3728665854
0.3728643811
0.3728665852
0.3728696661
0.3728717651
0.3728727139
0.3728717069
0.3728701473
0.3728668002
0.3728621257
0.3728590448
0.3728621257
0.3728668003
0.3728701472
0.3728717068
0.3728702837
0.3728679915
0.3728632525
0.3728570044
0.3728532228
0.3728570044
0.3728632525
0.3728679914
0.3728702835
0.3728684262
0.3728653477
0.3728592231
0.3728515964
0.372847326
0.3728515965
0.3728592232
0.3728653477
0.3728684263
0.3728661539
0.3728623069
0.3728549289
0.3728462148
0.3728416518
0.3728462151
0.3728549292
0.3728623069
0.3728661541
0.3728635172
0.3728589799
0.3728505651
0.3728410845
0.3728363899
0.3728410848
0.3728505653
0.3728589801
0.3728635173
0.3728605862
0.3728554791
0.3728462858
0.3728363463
0.3728316441
0.3728363465
0.3728462859
0.3728554792
0.3728605863
0.3728574409
0.3728519067
0.3728422011
0.3728320724
0.3728274539
0.3728320725
0.3728422012
0.3728519068
0.3728574412
0.3728541626
0.3728483491
0.3728383807
0.3728282856
0.372823816
0.3728282857
0.3728383809
0.3728483494
0.3728541628
0.3728508275
0.3728448751
0.3728348626
0.372824976
0.3728207003
0.3728249762
0.3728348633
0.3728448755
0.3728508278
0.3728475064
0.3728415392
0.3728316635
0.3728221151
0.372818062
0.3728221155
0.3728316638
0.3728415397
0.3728475071
0.3728442744
0.3728383936
0.3728287923
0.3728196704
0.372815855
0.3728196705
0.3728287927
0.372838394
0.372844275
0.372841264
0.3728355381
0.3728262945
0.3728176368
0.372814057
0.372817637
0.3728262952
0.3728355386
0.3728412645
0.3728388978
0.3728333338
0.3728244248
0.3728161656
0.3728127783
0.3728161657
0.3728244253
0.3728333344
0.3728388983
)
;
    }
    inlet
    {
        type            calculated;
        value           nonuniform 0();
    }
    outlet
    {
        type            calculated;
        value           nonuniform List<scalar> 
81
(
0.3728388972
0.3728333328
0.3728244233
0.3728161638
0.3728127767
0.3728161641
0.3728244237
0.3728333331
0.3728388973
0.3728333327
0.3728263251
0.372815021
0.3728044415
0.3728000696
0.3728044417
0.3728150215
0.3728263258
0.3728333333
0.3728244235
0.3728150211
0.3727997174
0.3727852311
0.3727791891
0.3727852319
0.3727997182
0.3728150219
0.3728244243
0.3728161638
0.3728044414
0.3727852315
0.3727668864
0.3727591747
0.3727668868
0.3727852322
0.3728044425
0.3728161651
0.3728127766
0.3728000697
0.3727791891
0.3727591746
0.3727507179
0.3727591754
0.3727791902
0.372800071
0.3728127778
0.3728161642
0.3728044421
0.3727852322
0.372766887
0.3727591757
0.3727668879
0.372785233
0.3728044432
0.3728161653
0.3728244239
0.3728150218
0.3727997189
0.3727852329
0.3727791904
0.3727852333
0.3727997196
0.3728150228
0.3728244251
0.3728333333
0.3728263258
0.3728150222
0.3728044429
0.3728000712
0.3728044433
0.3728150228
0.3728263269
0.3728333343
0.3728388978
0.3728333338
0.3728244248
0.3728161656
0.3728127783
0.3728161657
0.3728244253
0.3728333344
0.3728388983
)
;
    }
    procBoundary1to0
    {
        type            processor;
        value           nonuniform List<scalar> 
97
(
0.3728733611
0.3728733611
0.3728728565
0.3728717252
0.372870023
0.3728687436
0.3728700231
0.3728717252
0.3728728563
0.3728733609
0.372873501
0.3728716948
0.3728716948
0.3728716948
0.372868695
0.3728630936
0.3728572357
0.3728630937
0.3728686951
0.3728716948
0.3728728564
0.3728729894
0.3728716614
0.3728594037
0.3728594037
0.3728594037
0.372836798
0.3728009208
0.3728367989
0.3728594044
0.3728686948
0.3728717252
0.3728722382
0.372869316
0.3728590755
0.3727463714
0.3727463714
0.3727463714
0.3724924255
0.3727463763
0.3728367987
0.3728630936
0.372870023
0.3728717008
0.3728670985
0.3728476719
0.3727705826
0.3704032522
0.3704032522
0.3704032522
0.3724924256
0.3724924256
0.3728009209
0.3728572356
0.3728687434
0.3728722383
0.3728693161
0.3728590756
0.3728292406
0.372770582
0.372829241
0.3728367973
0.3728367973
0.3728367973
0.3728630933
0.3728700231
0.3728729894
0.3728716616
0.3728677632
0.3728590754
0.372847672
0.3728590756
0.3728677633
0.372868695
0.372868695
0.372868695
0.3728717252
0.3728735012
0.3728729786
0.3728716618
0.3728693161
0.3728670986
0.3728693163
0.3728716615
0.3728729785
0.3728728565
0.3728728565
0.3728728565
0.3728737326
0.3728735012
0.3728729895
0.3728722383
0.3728717009
0.3728722383
0.3728729893
0.3728735011
0.3728737325
)
;
    }
}


// ************************************************************************* //
