/*--------------------------------*- C++ -*----------------------------------*\
| =========                 |                                                 |
| \\      /  F ield         | OpenFOAM: The Open Source CFD Toolbox           |
|  \\    /   O peration     | Version:  4.x                                   |
|   \\  /    A nd           | Web:      www.OpenFOAM.org                      |
|    \\/     M anipulation  |                                                 |
\*---------------------------------------------------------------------------*/
FoamFile
{
    version     2.0;
    format      ascii;
    class       volScalarField;
    location    "11000";
    object      X_N2;
}
// * * * * * * * * * * * * * * * * * * * * * * * * * * * * * * * * * * * * * //

dimensions      [0 0 0 0 0 0 0];

internalField   nonuniform List<scalar> 
1174
(
0.6229746275
0.6229746271
0.6229746268
0.6229746261
0.6229746256
0.6229746248
0.6229746236
0.6229746225
0.6229746214
0.62297462
0.6229746188
0.6229746172
0.6229746161
0.6229746152
0.622974627
0.6229746267
0.622974626
0.6229746252
0.6229746242
0.6229746231
0.6229746222
0.6229746211
0.6229746198
0.6229746182
0.6229746168
0.6229746156
0.6229746143
0.6229746133
0.6229746265
0.622974626
0.622974625
0.6229746237
0.6229746226
0.6229746216
0.6229746201
0.6229746188
0.6229746172
0.6229746159
0.6229746142
0.6229746126
0.6229746113
0.6229746102
0.6229746257
0.622974625
0.6229746236
0.6229746221
0.6229746209
0.6229746194
0.6229746176
0.6229746162
0.6229746145
0.6229746128
0.6229746117
0.62297461
0.6229746087
0.622974608
0.6229746256
0.6229746242
0.6229746227
0.6229746213
0.6229746199
0.6229746184
0.6229746167
0.622974615
0.6229746134
0.6229746119
0.6229746105
0.6229746095
0.6229746081
0.6229746073
0.6229746258
0.6229746248
0.6229746237
0.622974622
0.6229746206
0.6229746192
0.6229746174
0.622974616
0.6229746146
0.6229746132
0.6229746119
0.6229746104
0.6229746092
0.6229746084
0.6229746262
0.6229746254
0.6229746247
0.6229746235
0.6229746223
0.6229746213
0.6229746201
0.6229746183
0.6229746169
0.6229746158
0.6229746142
0.6229746131
0.6229746117
0.6229746107
0.6229746267
0.6229746264
0.6229746257
0.6229746249
0.622974624
0.6229746234
0.622974622
0.6229746209
0.6229746199
0.6229746185
0.6229746174
0.6229746161
0.6229746147
0.6229746138
0.622974627
0.6229746268
0.6229746263
0.6229746255
0.6229746251
0.6229746245
0.6229746235
0.6229746224
0.6229746213
0.6229746203
0.6229746191
0.6229746178
0.6229746164
0.6229746153
0.6229746272
0.6229746268
0.6229746265
0.6229746261
0.6229746256
0.6229746244
0.6229746236
0.6229746225
0.6229746212
0.6229746198
0.6229746185
0.622974617
0.6229746155
0.6229746143
0.6229746132
0.6229746267
0.622974626
0.6229746251
0.6229746238
0.6229746226
0.6229746216
0.6229746204
0.622974619
0.6229746173
0.6229746157
0.6229746145
0.6229746133
0.622974612
0.6229746108
0.6229746255
0.6229746242
0.6229746229
0.6229746213
0.6229746195
0.6229746181
0.6229746166
0.622974615
0.6229746137
0.6229746121
0.6229746107
0.6229746094
0.6229746083
0.6229746075
0.6229746236
0.6229746218
0.6229746199
0.6229746178
0.6229746163
0.6229746143
0.6229746128
0.6229746114
0.6229746099
0.6229746088
0.6229746074
0.6229746062
0.622974605
0.6229746047
0.6229746225
0.6229746203
0.622974618
0.622974616
0.622974614
0.6229746126
0.622974611
0.6229746098
0.6229746084
0.6229746069
0.6229746062
0.622974605
0.6229746042
0.6229746035
0.6229746235
0.6229746219
0.6229746201
0.6229746182
0.6229746163
0.6229746142
0.6229746128
0.6229746117
0.6229746101
0.6229746092
0.6229746078
0.6229746067
0.6229746054
0.6229746049
0.6229746249
0.6229746241
0.6229746227
0.6229746212
0.6229746198
0.6229746185
0.6229746167
0.6229746153
0.622974614
0.6229746128
0.6229746115
0.62297461
0.6229746087
0.6229746082
0.6229746262
0.6229746258
0.6229746248
0.6229746237
0.6229746229
0.6229746216
0.6229746201
0.6229746188
0.6229746174
0.622974616
0.622974615
0.6229746137
0.6229746123
0.6229746116
0.6229746268
0.6229746264
0.6229746257
0.6229746249
0.6229746241
0.6229746233
0.6229746221
0.6229746209
0.6229746199
0.6229746187
0.6229746173
0.6229746162
0.6229746147
0.6229746138
0.6229746269
0.6229746265
0.6229746259
0.6229746255
0.6229746242
0.6229746232
0.6229746219
0.6229746204
0.6229746185
0.6229746172
0.622974616
0.6229746146
0.6229746127
0.6229746115
0.6229746105
0.6229746263
0.6229746255
0.6229746247
0.6229746231
0.6229746216
0.6229746196
0.6229746182
0.6229746167
0.622974615
0.6229746135
0.6229746121
0.622974611
0.6229746097
0.6229746084
0.6229746076
0.6229746221
0.6229746203
0.6229746181
0.6229746159
0.6229746139
0.6229746119
0.6229746106
0.6229746091
0.6229746076
0.6229746066
0.6229746056
0.6229746044
0.6229746036
0.6229746032
0.6229746166
0.6229746132
0.6229746104
0.622974608
0.6229746062
0.6229746048
0.6229746037
0.6229746028
0.622974602
0.6229746012
0.6229746005
0.6229746002
0.6229745999
0.6229745991
0.6229746116
0.6229746079
0.6229746051
0.6229746037
0.6229746023
0.6229746014
0.6229746005
0.6229746003
0.6229745998
0.6229745994
0.6229745991
0.6229745988
0.6229745987
0.6229745982
0.6229746167
0.6229746134
0.6229746109
0.6229746087
0.6229746067
0.6229746052
0.6229746044
0.6229746037
0.6229746026
0.6229746019
0.6229746012
0.6229746009
0.6229746003
0.6229746001
0.6229746224
0.6229746203
0.622974618
0.6229746158
0.6229746144
0.6229746127
0.6229746111
0.6229746099
0.6229746088
0.6229746077
0.6229746065
0.6229746057
0.6229746048
0.6229746041
0.6229746251
0.622974624
0.6229746227
0.6229746213
0.6229746197
0.6229746184
0.6229746167
0.6229746154
0.6229746143
0.6229746128
0.6229746118
0.6229746106
0.6229746094
0.6229746086
0.6229746263
0.6229746255
0.6229746245
0.6229746235
0.6229746228
0.6229746214
0.62297462
0.6229746188
0.6229746176
0.6229746161
0.6229746147
0.6229746136
0.6229746123
0.6229746114
0.6229746266
0.6229746259
0.6229746252
0.6229746239
0.6229746224
0.6229746211
0.6229746196
0.622974618
0.6229746163
0.6229746149
0.6229746134
0.6229746119
0.6229746103
0.622974609
0.6229746078
0.6229746253
0.622974624
0.6229746222
0.6229746201
0.622974618
0.6229746163
0.6229746148
0.6229746131
0.6229746114
0.6229746102
0.6229746088
0.6229746075
0.6229746063
0.622974605
0.6229746044
0.6229746203
0.6229746173
0.6229746135
0.6229746109
0.6229746084
0.6229746067
0.6229746053
0.6229746041
0.6229746032
0.6229746023
0.6229746015
0.622974601
0.6229746002
0.6229745997
0.6229745996
0.6229746004
0.6229745963
0.6229745942
0.6229745932
0.6229745929
0.622974593
0.6229745935
0.6229745938
0.622974594
0.6229745944
0.6229745948
0.6229745949
0.6229745948
0.6229745951
0.6229745783
0.6229745777
0.6229745795
0.6229745822
0.6229745847
0.6229745867
0.6229745882
0.6229745897
0.6229745906
0.6229745917
0.6229745924
0.6229745925
0.622974593
0.6229745935
0.6229746013
0.6229745971
0.6229745949
0.6229745942
0.6229745939
0.622974594
0.6229745944
0.6229745949
0.6229745952
0.6229745954
0.6229745957
0.622974596
0.6229745957
0.6229745957
0.6229746165
0.6229746135
0.6229746108
0.6229746088
0.6229746071
0.622974606
0.6229746053
0.6229746043
0.6229746034
0.6229746027
0.6229746024
0.6229746018
0.622974601
0.6229746004
0.6229746231
0.6229746214
0.62297462
0.6229746183
0.6229746166
0.622974615
0.6229746137
0.6229746122
0.6229746109
0.6229746099
0.6229746088
0.6229746077
0.6229746066
0.6229746058
0.6229746254
0.6229746244
0.6229746236
0.6229746224
0.6229746208
0.6229746194
0.6229746182
0.6229746168
0.6229746154
0.6229746137
0.6229746127
0.6229746113
0.6229746104
0.6229746095
0.6229746265
0.6229746258
0.6229746247
0.6229746231
0.6229746219
0.6229746205
0.6229746186
0.6229746171
0.6229746154
0.6229746138
0.622974612
0.6229746106
0.6229746094
0.622974608
0.6229746071
0.6229746245
0.6229746229
0.6229746206
0.6229746183
0.6229746165
0.6229746151
0.6229746132
0.6229746113
0.6229746099
0.6229746086
0.6229746077
0.6229746066
0.6229746055
0.6229746044
0.6229746035
0.6229746173
0.6229746126
0.6229746088
0.622974606
0.6229746041
0.6229746029
0.6229746019
0.6229746011
0.6229746006
0.6229746001
0.6229745998
0.6229745994
0.6229745987
0.6229745984
0.6229745982
0.6229745863
0.6229745808
0.6229745796
0.6229745811
0.6229745834
0.6229745857
0.6229745874
0.6229745889
0.6229745902
0.6229745911
0.6229745919
0.6229745925
0.622974593
0.6229745932
0.6229745933
0.6229744916
0.6229745313
0.6229745533
0.6229745663
0.6229745741
0.6229745794
0.6229745829
0.6229745857
0.6229745875
0.6229745888
0.6229745898
0.6229745906
0.6229745914
0.6229745922
0.6229745783
0.6229745799
0.6229745824
0.6229745848
0.6229745874
0.6229745889
0.6229745904
0.6229745915
0.6229745924
0.6229745932
0.6229745934
0.6229745939
0.6229745943
0.6229745944
0.6229746112
0.6229746086
0.6229746065
0.622974605
0.6229746039
0.6229746031
0.6229746025
0.6229746023
0.6229746019
0.6229746011
0.6229746007
0.6229746004
0.6229745998
0.6229745995
0.6229746219
0.6229746202
0.6229746184
0.6229746168
0.6229746151
0.6229746137
0.6229746123
0.6229746111
0.6229746098
0.6229746087
0.6229746079
0.6229746068
0.6229746059
0.6229746053
0.6229746252
0.6229746241
0.6229746229
0.6229746215
0.6229746203
0.6229746188
0.6229746171
0.622974616
0.6229746147
0.6229746132
0.6229746119
0.6229746106
0.6229746095
0.6229746085
0.6229746266
0.6229746261
0.6229746251
0.6229746239
0.6229746227
0.6229746213
0.6229746197
0.6229746181
0.6229746165
0.622974615
0.6229746135
0.622974612
0.6229746107
0.6229746099
0.6229746083
0.6229746253
0.6229746238
0.6229746223
0.6229746203
0.6229746185
0.6229746169
0.622974615
0.6229746137
0.622974612
0.6229746105
0.6229746095
0.6229746084
0.622974607
0.622974606
0.6229746054
0.6229746212
0.6229746179
0.6229746147
0.6229746117
0.6229746093
0.6229746075
0.6229746062
0.6229746049
0.6229746043
0.6229746032
0.6229746027
0.6229746021
0.6229746013
0.6229746008
0.6229746004
0.6229746103
0.6229746037
0.6229745991
0.6229745966
0.6229745955
0.6229745952
0.622974595
0.6229745955
0.6229745954
0.6229745956
0.6229745957
0.6229745959
0.6229745959
0.6229745959
0.6229745959
0.6229745866
0.6229745813
0.6229745816
0.6229745835
0.622974586
0.6229745879
0.6229745897
0.6229745909
0.6229745919
0.6229745926
0.622974593
0.6229745938
0.6229745942
0.6229745943
0.6229745949
0.6229746099
0.6229746035
0.6229745995
0.6229745976
0.6229745965
0.6229745964
0.6229745961
0.6229745962
0.6229745964
0.6229745968
0.6229745971
0.6229745968
0.6229745972
0.6229745971
0.622974597
0.6229746164
0.6229746145
0.622974612
0.6229746102
0.6229746086
0.6229746072
0.6229746063
0.6229746052
0.6229746047
0.6229746039
0.6229746033
0.6229746027
0.622974602
0.6229746014
0.6229746233
0.6229746218
0.6229746204
0.6229746188
0.6229746174
0.6229746159
0.6229746142
0.6229746129
0.6229746117
0.6229746106
0.6229746095
0.6229746083
0.6229746071
0.6229746068
0.6229746257
0.6229746249
0.6229746238
0.6229746224
0.6229746213
0.62297462
0.6229746185
0.6229746172
0.6229746159
0.6229746144
0.622974613
0.6229746117
0.6229746108
0.6229746098
0.6229746272
0.6229746266
0.6229746259
0.622974625
0.6229746241
0.6229746233
0.6229746219
0.6229746202
0.622974619
0.6229746177
0.6229746161
0.6229746149
0.6229746134
0.6229746121
0.6229746109
0.6229746268
0.6229746257
0.6229746244
0.6229746233
0.6229746218
0.6229746207
0.6229746189
0.6229746172
0.6229746158
0.6229746145
0.6229746129
0.6229746118
0.6229746104
0.6229746094
0.6229746084
0.6229746246
0.6229746227
0.622974621
0.6229746188
0.6229746169
0.6229746152
0.6229746132
0.6229746118
0.6229746104
0.6229746092
0.6229746082
0.6229746069
0.6229746061
0.622974605
0.6229746051
0.6229746213
0.6229746182
0.6229746147
0.6229746121
0.6229746102
0.6229746081
0.6229746066
0.6229746058
0.6229746049
0.6229746039
0.6229746035
0.6229746026
0.6229746017
0.6229746015
0.6229746013
0.6229746172
0.622974613
0.6229746098
0.6229746079
0.6229746063
0.6229746049
0.6229746039
0.6229746031
0.6229746026
0.6229746019
0.6229746016
0.6229746013
0.6229746008
0.6229746002
0.6229745998
0.6229746213
0.6229746184
0.6229746151
0.6229746126
0.6229746108
0.6229746091
0.622974608
0.6229746068
0.6229746057
0.6229746049
0.6229746041
0.6229746033
0.6229746029
0.6229746024
0.6229746018
0.6229746246
0.6229746227
0.6229746211
0.6229746189
0.6229746172
0.6229746157
0.6229746142
0.6229746127
0.6229746112
0.6229746102
0.6229746092
0.6229746083
0.6229746073
0.6229746064
0.6229746059
0.6229746251
0.6229746242
0.6229746231
0.6229746222
0.6229746206
0.6229746192
0.622974618
0.6229746166
0.6229746152
0.6229746141
0.6229746129
0.6229746113
0.6229746104
0.6229746098
0.6229746261
0.6229746259
0.6229746251
0.622974624
0.6229746231
0.6229746219
0.6229746208
0.6229746195
0.6229746182
0.6229746171
0.6229746156
0.6229746142
0.6229746132
0.6229746125
0.6229746273
0.622974627
0.6229746265
0.6229746262
0.6229746259
0.6229746247
0.6229746237
0.6229746226
0.6229746214
0.6229746204
0.6229746191
0.6229746174
0.6229746163
0.6229746151
0.6229746139
0.6229746273
0.6229746268
0.6229746261
0.6229746254
0.6229746244
0.6229746232
0.6229746221
0.6229746209
0.6229746194
0.6229746179
0.6229746167
0.6229746155
0.622974614
0.6229746126
0.6229746115
0.6229746268
0.6229746255
0.6229746246
0.6229746233
0.6229746222
0.6229746206
0.6229746189
0.6229746174
0.6229746159
0.6229746148
0.6229746135
0.6229746123
0.622974611
0.6229746095
0.622974609
0.6229746253
0.6229746244
0.6229746227
0.6229746206
0.6229746193
0.6229746175
0.6229746159
0.6229746144
0.6229746129
0.6229746117
0.6229746105
0.622974609
0.622974608
0.622974607
0.6229746063
0.6229746245
0.6229746229
0.6229746209
0.6229746194
0.6229746176
0.6229746161
0.6229746146
0.6229746133
0.6229746119
0.6229746106
0.6229746093
0.6229746081
0.622974607
0.6229746061
0.6229746053
0.6229746255
0.6229746242
0.6229746224
0.6229746209
0.6229746192
0.6229746176
0.6229746162
0.6229746148
0.6229746136
0.6229746123
0.622974611
0.6229746099
0.6229746087
0.6229746078
0.6229746068
0.622974626
0.6229746254
0.6229746244
0.6229746234
0.6229746222
0.6229746209
0.6229746194
0.6229746182
0.6229746166
0.6229746153
0.6229746142
0.6229746131
0.622974612
0.6229746108
0.6229746097
0.6229746271
0.6229746266
0.622974626
0.6229746251
0.6229746243
0.6229746232
0.6229746221
0.622974621
0.6229746199
0.6229746185
0.6229746175
0.6229746161
0.6229746148
0.6229746137
0.622974613
0.622974627
0.6229746266
0.6229746261
0.6229746255
0.6229746248
0.6229746235
0.6229746228
0.6229746218
0.6229746205
0.6229746193
0.6229746183
0.6229746172
0.622974616
0.6229746151
0.6229746275
0.6229746273
0.6229746272
0.6229746268
0.6229746262
0.6229746253
0.6229746248
0.6229746239
0.6229746229
0.6229746219
0.6229746207
0.6229746193
0.6229746179
0.6229746169
0.622974616
0.6229746273
0.6229746271
0.6229746269
0.6229746262
0.6229746255
0.6229746246
0.6229746238
0.6229746229
0.6229746217
0.6229746205
0.622974619
0.6229746177
0.6229746167
0.6229746154
0.6229746146
0.6229746274
0.6229746267
0.622974626
0.6229746252
0.6229746243
0.6229746231
0.6229746221
0.622974621
0.6229746199
0.6229746184
0.6229746167
0.6229746156
0.6229746142
0.6229746127
0.6229746122
0.6229746268
0.6229746264
0.6229746252
0.6229746241
0.6229746229
0.6229746214
0.62297462
0.6229746189
0.6229746176
0.6229746162
0.6229746146
0.6229746132
0.622974612
0.6229746109
0.6229746102
0.6229746265
0.6229746258
0.6229746246
0.6229746235
0.6229746223
0.6229746212
0.6229746196
0.6229746183
0.6229746169
0.6229746153
0.622974614
0.6229746126
0.6229746115
0.6229746102
0.6229746092
0.6229746266
0.6229746261
0.6229746252
0.6229746242
0.622974623
0.6229746219
0.6229746205
0.6229746192
0.6229746179
0.6229746164
0.622974615
0.6229746138
0.6229746122
0.6229746112
0.6229746103
0.622974627
0.6229746267
0.6229746262
0.6229746253
0.6229746245
0.6229746235
0.6229746225
0.6229746212
0.62297462
0.6229746187
0.6229746177
0.622974616
0.6229746147
0.6229746136
0.6229746128
0.6229746276
0.6229746271
0.6229746267
0.6229746261
0.6229746256
0.6229746247
0.622974624
0.622974623
0.6229746219
0.6229746207
0.6229746195
0.6229746185
0.6229746172
0.622974616
0.6229746153
0.6229746275
0.6229746273
0.622974627
0.6229746265
0.6229746264
0.6229746256
0.6229746248
0.622974624
0.6229746232
0.6229746221
0.622974621
0.6229746202
0.6229746187
0.6229746175
0.6229746165
)
;

boundaryField
{
    top
    {
        type            calculated;
        value           nonuniform List<scalar> 
127
(
0.6229746275
0.622974627
0.6229746268
0.6229746263
0.6229746254
0.6229746252
0.6229746257
0.6229746261
0.622974627
0.6229746273
0.6229746268
0.6229746264
0.6229746255
0.6229746244
0.6229746241
0.6229746249
0.6229746259
0.6229746266
0.622974627
0.6229746263
0.6229746257
0.6229746245
0.6229746236
0.6229746229
0.6229746238
0.6229746251
0.6229746261
0.6229746265
0.6229746255
0.6229746249
0.6229746235
0.6229746224
0.6229746215
0.6229746224
0.622974624
0.6229746255
0.6229746264
0.6229746251
0.6229746241
0.6229746228
0.6229746208
0.6229746203
0.6229746213
0.6229746231
0.6229746248
0.6229746256
0.6229746245
0.6229746233
0.6229746214
0.6229746194
0.6229746188
0.62297462
0.6229746219
0.6229746235
0.6229746248
0.6229746235
0.6229746221
0.62297462
0.6229746182
0.6229746171
0.6229746185
0.6229746208
0.6229746228
0.622974624
0.6229746224
0.6229746209
0.6229746188
0.6229746168
0.622974616
0.6229746172
0.6229746195
0.6229746218
0.6229746232
0.6229746213
0.6229746199
0.6229746176
0.6229746154
0.6229746147
0.6229746159
0.6229746182
0.6229746205
0.6229746221
0.6229746203
0.6229746187
0.6229746161
0.6229746137
0.6229746132
0.6229746144
0.6229746171
0.6229746193
0.622974621
0.6229746191
0.6229746173
0.6229746147
0.6229746127
0.6229746119
0.622974613
0.6229746156
0.6229746183
0.6229746202
0.6229746178
0.6229746162
0.6229746136
0.6229746113
0.6229746106
0.6229746117
0.6229746142
0.6229746172
0.6229746187
0.6229746164
0.6229746147
0.6229746123
0.6229746104
0.6229746095
0.6229746108
0.6229746132
0.622974616
0.6229746175
0.6229746153
0.6229746138
0.6229746114
0.6229746095
0.6229746085
0.6229746098
0.6229746125
0.6229746151
0.6229746165
)
;
    }
    bottom
    {
        type            calculated;
        value           nonuniform List<scalar> 
134
(
0.6229746272
0.6229746269
0.6229746266
0.6229746265
0.6229746266
0.6229746272
0.6229746273
0.6229746275
0.6229746275
0.6229746268
0.6229746265
0.6229746259
0.6229746258
0.6229746261
0.6229746266
0.622974627
0.6229746273
0.6229746271
0.6229746265
0.6229746259
0.6229746252
0.6229746247
0.6229746251
0.6229746259
0.6229746265
0.6229746272
0.6229746268
0.6229746261
0.6229746255
0.6229746239
0.6229746231
0.6229746239
0.622974625
0.6229746262
0.6229746268
0.6229746261
0.6229746256
0.6229746242
0.6229746224
0.6229746219
0.6229746227
0.6229746241
0.6229746259
0.6229746262
0.6229746256
0.6229746244
0.6229746232
0.6229746211
0.6229746205
0.6229746213
0.6229746233
0.6229746247
0.6229746253
0.6229746248
0.6229746236
0.6229746219
0.6229746196
0.6229746186
0.6229746197
0.6229746219
0.6229746237
0.6229746248
0.6229746236
0.6229746225
0.6229746204
0.622974618
0.6229746171
0.6229746181
0.6229746202
0.6229746226
0.6229746239
0.6229746225
0.6229746212
0.6229746185
0.6229746163
0.6229746154
0.6229746165
0.622974619
0.6229746214
0.6229746229
0.6229746214
0.6229746198
0.6229746172
0.6229746149
0.6229746138
0.622974615
0.6229746177
0.6229746204
0.6229746219
0.62297462
0.6229746185
0.622974616
0.6229746134
0.622974612
0.6229746135
0.6229746161
0.6229746191
0.6229746207
0.6229746188
0.622974617
0.6229746146
0.6229746119
0.6229746106
0.622974612
0.6229746149
0.6229746174
0.6229746193
0.6229746172
0.6229746155
0.6229746127
0.6229746103
0.6229746094
0.6229746107
0.6229746134
0.6229746163
0.6229746179
0.6229746161
0.6229746143
0.6229746115
0.622974609
0.622974608
0.6229746099
0.6229746121
0.6229746151
0.6229746169
0.6229746152
0.6229746132
0.6229746105
0.6229746078
0.6229746071
0.6229746083
0.6229746109
0.6229746139
0.622974616
)
;
    }
    side-walls
    {
        type            calculated;
        value           nonuniform List<scalar> 
261
(
0.6229746275
0.622974627
0.6229746265
0.6229746257
0.6229746256
0.6229746258
0.6229746262
0.6229746267
0.622974627
0.6229746271
0.6229746267
0.622974626
0.622974625
0.6229746242
0.6229746248
0.6229746254
0.6229746264
0.6229746268
0.6229746268
0.622974626
0.622974625
0.6229746236
0.6229746227
0.6229746237
0.6229746247
0.6229746257
0.6229746263
0.6229746261
0.6229746252
0.6229746237
0.6229746221
0.6229746213
0.622974622
0.6229746235
0.6229746249
0.6229746255
0.6229746256
0.6229746242
0.6229746226
0.6229746209
0.6229746199
0.6229746206
0.6229746223
0.622974624
0.6229746251
0.6229746248
0.6229746231
0.6229746216
0.6229746194
0.6229746184
0.6229746192
0.6229746213
0.6229746234
0.6229746245
0.6229746236
0.6229746222
0.6229746201
0.6229746176
0.6229746167
0.6229746174
0.6229746201
0.622974622
0.6229746235
0.6229746225
0.6229746211
0.6229746188
0.6229746162
0.622974615
0.622974616
0.6229746183
0.6229746209
0.6229746224
0.6229746214
0.6229746198
0.6229746172
0.6229746145
0.6229746134
0.6229746146
0.6229746169
0.6229746199
0.6229746213
0.62297462
0.6229746182
0.6229746159
0.6229746128
0.6229746119
0.6229746132
0.6229746158
0.6229746185
0.6229746203
0.6229746188
0.6229746168
0.6229746142
0.6229746117
0.6229746105
0.6229746119
0.6229746142
0.6229746174
0.6229746191
0.6229746172
0.6229746156
0.6229746126
0.62297461
0.6229746095
0.6229746104
0.6229746131
0.6229746161
0.6229746178
0.6229746161
0.6229746143
0.6229746113
0.6229746087
0.6229746081
0.6229746092
0.6229746117
0.6229746147
0.6229746164
0.6229746152
0.6229746133
0.6229746102
0.622974608
0.6229746073
0.6229746084
0.6229746107
0.6229746138
0.6229746153
0.6229746275
0.6229746273
0.6229746274
0.6229746268
0.6229746265
0.6229746266
0.622974627
0.6229746276
0.6229746275
0.6229746273
0.6229746271
0.6229746267
0.6229746264
0.6229746258
0.6229746261
0.6229746267
0.6229746271
0.6229746273
0.6229746272
0.6229746269
0.622974626
0.6229746252
0.6229746246
0.6229746252
0.6229746262
0.6229746267
0.622974627
0.6229746268
0.6229746262
0.6229746252
0.6229746241
0.6229746235
0.6229746242
0.6229746253
0.6229746261
0.6229746265
0.6229746262
0.6229746255
0.6229746243
0.6229746229
0.6229746223
0.622974623
0.6229746245
0.6229746256
0.6229746264
0.6229746253
0.6229746246
0.6229746231
0.6229746214
0.6229746212
0.6229746219
0.6229746235
0.6229746247
0.6229746256
0.6229746248
0.6229746238
0.6229746221
0.62297462
0.6229746196
0.6229746205
0.6229746225
0.622974624
0.6229746248
0.6229746239
0.6229746229
0.622974621
0.6229746189
0.6229746183
0.6229746192
0.6229746212
0.622974623
0.622974624
0.6229746229
0.6229746217
0.6229746199
0.6229746176
0.6229746169
0.6229746179
0.62297462
0.6229746219
0.6229746232
0.6229746219
0.6229746205
0.6229746184
0.6229746162
0.6229746153
0.6229746164
0.6229746187
0.6229746207
0.6229746221
0.6229746207
0.622974619
0.6229746167
0.6229746146
0.622974614
0.622974615
0.6229746177
0.6229746195
0.622974621
0.6229746193
0.6229746177
0.6229746156
0.6229746132
0.6229746126
0.6229746138
0.622974616
0.6229746185
0.6229746202
0.6229746179
0.6229746167
0.6229746142
0.622974612
0.6229746115
0.6229746122
0.6229746147
0.6229746172
0.6229746187
0.6229746169
0.6229746154
0.6229746127
0.6229746109
0.6229746102
0.6229746112
0.6229746136
0.622974616
0.6229746175
0.622974616
0.6229746146
0.6229746122
0.6229746102
0.6229746092
0.6229746103
0.6229746128
0.6229746153
0.6229746165
)
;
    }
    inlet
    {
        type            calculated;
        value           nonuniform 0();
    }
    outlet
    {
        type            calculated;
        value           nonuniform List<scalar> 
81
(
0.6229746152
0.6229746133
0.6229746102
0.622974608
0.6229746073
0.6229746084
0.6229746107
0.6229746138
0.6229746153
0.6229746132
0.6229746108
0.6229746075
0.6229746047
0.6229746035
0.6229746049
0.6229746082
0.6229746116
0.6229746138
0.6229746105
0.6229746076
0.6229746032
0.6229745991
0.6229745982
0.6229746001
0.6229746041
0.6229746086
0.6229746114
0.6229746078
0.6229746044
0.6229745996
0.6229745951
0.6229745935
0.6229745957
0.6229746004
0.6229746058
0.6229746095
0.6229746071
0.6229746035
0.6229745982
0.6229745933
0.6229745922
0.6229745944
0.6229745995
0.6229746053
0.6229746085
0.6229746083
0.6229746054
0.6229746004
0.6229745959
0.6229745949
0.622974597
0.6229746014
0.6229746068
0.6229746098
0.6229746109
0.6229746084
0.6229746051
0.6229746013
0.6229745998
0.6229746018
0.6229746059
0.6229746098
0.6229746125
0.6229746139
0.6229746115
0.622974609
0.6229746063
0.6229746053
0.6229746068
0.6229746097
0.622974613
0.6229746151
0.622974616
0.6229746146
0.6229746122
0.6229746102
0.6229746092
0.6229746103
0.6229746128
0.6229746153
0.6229746165
)
;
    }
    procBoundary1to0
    {
        type            processor;
        value           nonuniform List<scalar> 
97
(
0.6229746274
0.6229746274
0.6229746273
0.6229746269
0.6229746265
0.6229746266
0.6229746266
0.6229746269
0.6229746269
0.6229746272
0.6229746273
0.622974627
0.622974627
0.622974627
0.6229746265
0.6229746256
0.622974625
0.6229746256
0.6229746266
0.6229746268
0.6229746271
0.6229746274
0.622974627
0.6229746245
0.6229746245
0.6229746245
0.6229746216
0.6229746197
0.6229746223
0.622974625
0.6229746261
0.6229746269
0.6229746272
0.6229746263
0.622974625
0.6229746108
0.6229746108
0.6229746108
0.6229746061
0.6229746147
0.6229746221
0.6229746255
0.6229746265
0.6229746271
0.6229746261
0.6229746234
0.6229746163
0.6229745766
0.6229745766
0.6229745766
0.622974605
0.622974605
0.62297462
0.622974625
0.6229746263
0.6229746273
0.6229746265
0.6229746249
0.6229746206
0.6229746154
0.6229746213
0.6229746206
0.6229746206
0.6229746206
0.6229746253
0.6229746267
0.6229746273
0.6229746273
0.6229746261
0.6229746247
0.6229746235
0.622974625
0.6229746264
0.6229746265
0.6229746265
0.6229746265
0.6229746269
0.6229746277
0.6229746276
0.6229746277
0.6229746265
0.6229746263
0.6229746268
0.6229746271
0.6229746274
0.6229746273
0.6229746273
0.6229746273
0.6229746277
0.6229746276
0.6229746277
0.6229746274
0.6229746273
0.6229746273
0.6229746273
0.6229746275
0.6229746276
)
;
    }
}


// ************************************************************************* //
