/*--------------------------------*- C++ -*----------------------------------*\
| =========                 |                                                 |
| \\      /  F ield         | OpenFOAM: The Open Source CFD Toolbox           |
|  \\    /   O peration     | Version:  4.x                                   |
|   \\  /    A nd           | Web:      www.OpenFOAM.org                      |
|    \\/     M anipulation  |                                                 |
\*---------------------------------------------------------------------------*/
FoamFile
{
    version     2.0;
    format      ascii;
    class       volScalarField;
    location    "4000";
    object      CO;
}
// * * * * * * * * * * * * * * * * * * * * * * * * * * * * * * * * * * * * * //

dimensions      [0 0 0 0 0 0 0];

internalField   nonuniform List<scalar> 
1175
(
0.3719638846
0.3719638846
0.3719638846
0.3719638845
0.3719638844
0.3719638842
0.3719638838
0.3719638824
0.3719638776
0.3719638628
0.3719638206
0.3719637088
0.3719634353
0.3719628302
0.3719616371
0.3719638846
0.3719638846
0.3719638845
0.3719638845
0.3719638845
0.3719638844
0.3719638838
0.3719638814
0.3719638744
0.3719638521
0.3719637857
0.3719636023
0.3719631379
0.3719620879
0.3719600181
0.3719638845
0.3719638845
0.3719638846
0.3719638843
0.3719638845
0.3719638842
0.3719638831
0.37196388
0.3719638687
0.3719638318
0.3719637163
0.3719633821
0.3719624998
0.3719604465
0.3719563887
0.3719638846
0.3719638846
0.3719638846
0.3719638844
0.3719638846
0.371963884
0.3719638827
0.3719638784
0.3719638622
0.3719638076
0.3719636301
0.3719630917
0.3719616091
0.3719580379
0.3719509287
0.3719638848
0.3719638845
0.3719638845
0.3719638846
0.3719638843
0.3719638839
0.3719638827
0.3719638778
0.3719638593
0.3719637952
0.3719635816
0.3719629163
0.3719610224
0.3719563151
0.3719468245
0.3719638848
0.3719638847
0.3719638844
0.3719638846
0.3719638844
0.3719638841
0.3719638829
0.3719638786
0.3719638625
0.3719638076
0.37196363
0.3719630918
0.3719616093
0.3719580378
0.3719509288
0.3719638848
0.3719638848
0.3719638846
0.3719638848
0.3719638847
0.3719638846
0.3719638836
0.3719638801
0.3719638689
0.3719638319
0.3719637165
0.3719633823
0.3719625
0.3719604467
0.3719563889
0.3719638847
0.3719638848
0.3719638847
0.3719638849
0.3719638845
0.3719638843
0.3719638836
0.3719638818
0.3719638747
0.3719638523
0.3719637859
0.3719636027
0.3719631383
0.3719620882
0.3719600186
0.3719638847
0.3719638847
0.3719638847
0.3719638847
0.3719638846
0.3719638845
0.371963884
0.3719638825
0.3719638777
0.3719638632
0.3719638209
0.3719637093
0.3719634356
0.3719628305
0.3719616379
0.3719638846
0.3719638845
0.3719638844
0.3719638847
0.3719638845
0.3719638842
0.3719638836
0.3719638814
0.3719638744
0.371963852
0.3719637857
0.3719636022
0.371963138
0.3719620878
0.3719638849
0.3719638846
0.3719638845
0.3719638842
0.3719638842
0.3719638843
0.3719638834
0.3719638803
0.3719638693
0.371963833
0.3719637186
0.3719633845
0.3719624951
0.3719604117
0.3719562912
0.3719638846
0.3719638847
0.3719638846
0.3719638845
0.3719638846
0.371963884
0.3719638827
0.3719638775
0.3719638589
0.3719637934
0.371963574
0.3719628895
0.3719609515
0.3719561886
0.3719466696
0.3719638845
0.3719638845
0.3719638848
0.3719638843
0.3719638845
0.371963884
0.371963882
0.3719638747
0.3719638465
0.3719637424
0.3719633733
0.3719621435
0.3719584164
0.3719486717
0.3719287078
0.3719638847
0.3719638846
0.3719638844
0.3719638846
0.3719638844
0.3719638837
0.3719638817
0.371963873
0.3719638402
0.3719637128
0.3719632441
0.3719616043
0.3719563256
0.3719415668
0.371909923
0.3719638845
0.3719638847
0.3719638847
0.3719638847
0.3719638846
0.3719638843
0.3719638822
0.3719638748
0.3719638467
0.3719637424
0.3719633734
0.3719621437
0.3719584164
0.3719486719
0.3719287088
0.3719638844
0.3719638844
0.3719638844
0.3719638846
0.3719638845
0.3719638842
0.3719638826
0.3719638777
0.371963859
0.3719637935
0.3719635742
0.3719628895
0.3719609519
0.3719561894
0.3719466702
0.3719638849
0.3719638848
0.3719638848
0.3719638841
0.3719638844
0.3719638841
0.3719638832
0.3719638799
0.3719638691
0.371963833
0.3719637187
0.3719633846
0.3719624951
0.3719604119
0.371956292
0.3719638846
0.3719638847
0.3719638846
0.3719638846
0.3719638845
0.3719638843
0.371963884
0.3719638817
0.3719638745
0.3719638524
0.371963786
0.3719636025
0.3719631382
0.3719620881
0.3719600185
0.3719638846
0.3719638846
0.3719638844
0.3719638846
0.3719638844
0.3719638844
0.3719638832
0.3719638799
0.3719638687
0.3719638315
0.3719637165
0.3719633821
0.3719624999
0.3719604463
0.371963885
0.3719638851
0.3719638847
0.3719638844
0.3719638846
0.3719638843
0.3719638829
0.3719638777
0.3719638588
0.3719637932
0.3719635739
0.3719628892
0.3719609514
0.3719561881
0.3719638845
0.3719638846
0.3719638845
0.3719638844
0.3719638845
0.3719638842
0.371963882
0.3719638731
0.3719638388
0.3719637094
0.3719632402
0.371961647
0.371956729
0.3719436941
0.3719168775
0.3719638847
0.3719638846
0.3719638843
0.3719638845
0.3719638845
0.3719638837
0.3719638807
0.3719638672
0.3719638124
0.3719635899
0.371962718
0.3719594746
0.3719484008
0.3719158614
0.3718444184
0.3719638846
0.3719638847
0.3719638848
0.3719638845
0.3719638842
0.3719638834
0.3719638797
0.3719638639
0.3719637966
0.3719635109
0.3719623236
0.371957551
0.371939519
0.3718793504
0.3717294109
0.3719638845
0.3719638846
0.3719638845
0.3719638846
0.3719638845
0.3719638838
0.3719638808
0.371963867
0.3719638123
0.3719635896
0.3719627178
0.3719594748
0.371948401
0.3719158627
0.3718444224
0.3719638848
0.3719638848
0.371963885
0.3719638847
0.3719638845
0.371963884
0.3719638816
0.3719638731
0.3719638389
0.3719637094
0.3719632406
0.371961647
0.3719567293
0.3719436954
0.3719168813
0.3719638846
0.3719638846
0.3719638846
0.3719638847
0.3719638844
0.3719638842
0.371963883
0.3719638778
0.3719638592
0.3719637934
0.3719635742
0.3719628895
0.3719609515
0.3719561888
0.3719466705
0.3719638847
0.3719638847
0.3719638847
0.3719638846
0.3719638844
0.3719638844
0.3719638835
0.3719638802
0.371963869
0.3719638318
0.3719637167
0.3719633822
0.3719625002
0.3719604467
0.371956389
0.3719638845
0.3719638846
0.3719638846
0.3719638847
0.3719638846
0.3719638843
0.3719638831
0.3719638786
0.3719638626
0.3719638077
0.37196363
0.3719630918
0.3719616086
0.3719580369
0.3719638845
0.3719638846
0.3719638844
0.3719638849
0.3719638847
0.3719638841
0.3719638822
0.3719638747
0.3719638466
0.3719637424
0.3719633733
0.3719621434
0.3719584158
0.3719486701
0.3719638849
0.3719638848
0.3719638847
0.3719638847
0.3719638844
0.3719638836
0.3719638804
0.3719638671
0.3719638121
0.3719635896
0.3719627179
0.3719594745
0.3719484004
0.3719158576
0.3719638849
0.3719638844
0.3719638846
0.3719638847
0.3719638846
0.3719638832
0.3719638784
0.3719638574
0.3719637636
0.3719633505
0.3719615555
0.3719539987
0.3719241258
0.3718203259
0.3715547104
0.3719638849
0.3719638846
0.3719638847
0.3719638846
0.3719638843
0.3719638827
0.3719638773
0.3719638516
0.3719637319
0.3719631698
0.3719605081
0.3719478905
0.3718891103
0.371632667
0.3707416047
0.3719638849
0.371963885
0.3719638849
0.3719638845
0.3719638845
0.3719638834
0.3719638783
0.3719638573
0.3719637637
0.3719633506
0.3719615552
0.3719539985
0.3719241268
0.3718203324
0.3715547372
0.3719638846
0.3719638848
0.3719638847
0.3719638846
0.3719638844
0.3719638837
0.3719638804
0.3719638669
0.3719638123
0.3719635898
0.3719627181
0.3719594746
0.3719484009
0.3719158621
0.3718444222
0.3719638845
0.3719638848
0.3719638848
0.3719638846
0.3719638845
0.3719638839
0.3719638819
0.3719638749
0.3719638468
0.3719637424
0.3719633732
0.3719621437
0.3719584162
0.3719486717
0.3719287089
0.3719638846
0.3719638847
0.3719638845
0.3719638846
0.3719638845
0.3719638841
0.3719638827
0.3719638785
0.3719638625
0.3719638079
0.3719636303
0.3719630922
0.3719616093
0.371958038
0.371950929
0.3719638845
0.3719638845
0.3719638846
0.3719638845
0.3719638847
0.3719638843
0.3719638827
0.3719638777
0.3719638592
0.3719637949
0.3719635815
0.3719629162
0.371961022
0.3719563142
0.3719638844
0.3719638847
0.3719638848
0.3719638848
0.3719638845
0.3719638842
0.3719638817
0.3719638733
0.3719638399
0.3719637127
0.3719632439
0.3719616042
0.371956325
0.3719415642
0.3719638848
0.3719638845
0.3719638848
0.371963885
0.3719638846
0.3719638839
0.3719638798
0.3719638642
0.3719637965
0.3719635109
0.3719623236
0.3719575509
0.3719395171
0.3718793409
0.3719638849
0.3719638848
0.3719638847
0.3719638844
0.3719638844
0.3719638831
0.3719638775
0.3719638517
0.371963732
0.3719631697
0.3719605079
0.37194789
0.3718891061
0.3716326372
0.3719638847
0.3719638847
0.3719638847
0.3719638848
0.3719638845
0.371963883
0.3719638762
0.3719638439
0.3719636861
0.3719628794
0.3719585677
0.3719341696
0.3717866029
0.3708263961
0.364067772
0.371963885
0.3719638848
0.3719638847
0.3719638847
0.3719638846
0.3719638832
0.3719638778
0.3719638518
0.371963732
0.3719631696
0.3719605077
0.3719478899
0.371889109
0.3716326623
0.3707416006
0.3719638852
0.371963885
0.3719638846
0.3719638847
0.3719638844
0.3719638836
0.37196388
0.3719638641
0.3719637965
0.3719635108
0.3719623236
0.3719575511
0.3719395185
0.3718793485
0.3717294089
0.3719638848
0.3719638848
0.3719638845
0.3719638847
0.3719638844
0.3719638841
0.371963882
0.3719638733
0.3719638399
0.3719637127
0.3719632442
0.3719616043
0.3719563254
0.3719415663
0.3719099223
0.3719638848
0.3719638847
0.3719638846
0.3719638846
0.3719638847
0.3719638842
0.3719638826
0.3719638775
0.3719638592
0.3719637952
0.3719635817
0.3719629165
0.3719610226
0.3719563149
0.3719468244
0.3719638845
0.3719638846
0.3719638844
0.3719638846
0.3719638845
0.3719638843
0.3719638831
0.3719638786
0.3719638624
0.3719638078
0.3719636302
0.3719630918
0.371961609
0.3719580372
0.3719638844
0.3719638845
0.3719638847
0.3719638847
0.3719638845
0.371963884
0.3719638821
0.3719638747
0.3719638466
0.3719637423
0.3719633733
0.3719621436
0.3719584161
0.3719486704
0.3719638846
0.3719638844
0.3719638846
0.3719638846
0.3719638844
0.3719638837
0.3719638807
0.3719638673
0.3719638123
0.3719635897
0.3719627181
0.3719594748
0.3719483999
0.3719158575
0.3719638844
0.3719638846
0.3719638847
0.3719638848
0.3719638843
0.3719638833
0.3719638784
0.3719638571
0.3719637634
0.3719633504
0.3719615556
0.3719539984
0.3719241236
0.3718203174
0.3719638849
0.3719638849
0.3719638848
0.3719638848
0.3719638844
0.3719638832
0.3719638777
0.3719638515
0.371963732
0.3719631696
0.3719605078
0.3719478898
0.3718891048
0.3716326336
0.3719638849
0.3719638849
0.3719638848
0.3719638847
0.3719638845
0.3719638832
0.3719638785
0.3719638571
0.3719637636
0.3719633503
0.3719615553
0.3719539983
0.3719241244
0.3718203196
0.3719638849
0.3719638849
0.3719638849
0.3719638848
0.3719638846
0.3719638836
0.3719638806
0.3719638672
0.3719638121
0.3719635896
0.3719627181
0.3719594746
0.3719484006
0.3719158597
0.3718444136
0.3719638846
0.3719638847
0.3719638847
0.3719638846
0.3719638845
0.371963884
0.3719638822
0.3719638747
0.3719638469
0.3719637428
0.3719633734
0.3719621436
0.3719584163
0.3719486711
0.3719287076
0.3719638848
0.3719638848
0.3719638848
0.3719638847
0.3719638847
0.3719638845
0.3719638832
0.3719638786
0.3719638624
0.3719638079
0.3719636305
0.3719630922
0.3719616094
0.3719580377
0.3719509285
0.3719638845
0.3719638845
0.3719638848
0.3719638848
0.3719638846
0.3719638843
0.3719638835
0.3719638801
0.3719638686
0.3719638317
0.3719637165
0.371963382
0.3719625
0.3719604463
0.3719638846
0.3719638847
0.3719638847
0.3719638847
0.3719638847
0.3719638844
0.3719638829
0.3719638777
0.3719638591
0.3719637936
0.3719635744
0.3719628896
0.3719609515
0.3719561881
0.3719638845
0.3719638844
0.3719638846
0.3719638845
0.3719638842
0.3719638837
0.3719638817
0.3719638729
0.3719638389
0.3719637097
0.3719632406
0.3719616467
0.3719567288
0.3719436932
0.3719638845
0.3719638846
0.3719638847
0.3719638846
0.3719638844
0.3719638835
0.3719638804
0.3719638669
0.371963812
0.3719635896
0.371962718
0.3719594744
0.3719483998
0.371915857
0.3719638848
0.3719638847
0.3719638847
0.3719638848
0.3719638842
0.3719638834
0.3719638798
0.3719638639
0.3719637965
0.3719635108
0.3719623237
0.3719575508
0.3719395166
0.3718793406
0.3719638847
0.3719638848
0.3719638848
0.3719638844
0.3719638843
0.3719638835
0.3719638803
0.3719638671
0.3719638119
0.3719635898
0.3719627181
0.3719594744
0.3719483999
0.3719158575
0.3719638848
0.3719638849
0.371963885
0.3719638847
0.3719638845
0.3719638839
0.3719638817
0.371963873
0.3719638389
0.3719637093
0.3719632407
0.3719616469
0.3719567286
0.3719436931
0.3719638847
0.3719638846
0.3719638847
0.3719638847
0.3719638845
0.3719638842
0.371963883
0.3719638778
0.3719638592
0.3719637936
0.3719635741
0.3719628894
0.3719609515
0.3719561884
0.3719466687
0.3719638848
0.3719638849
0.3719638849
0.3719638848
0.3719638848
0.3719638844
0.3719638838
0.3719638802
0.371963869
0.3719638318
0.3719637167
0.3719633822
0.3719625
0.3719604463
0.3719563883
0.3719638848
0.3719638847
0.3719638848
0.3719638848
0.3719638848
0.3719638842
0.3719638837
0.3719638816
0.3719638745
0.3719638523
0.3719637863
0.3719636028
0.3719631383
0.371962088
0.3719638847
0.3719638848
0.3719638847
0.3719638849
0.3719638849
0.3719638842
0.3719638835
0.3719638805
0.3719638694
0.3719638331
0.3719637189
0.3719633842
0.3719624949
0.3719604116
0.3719638846
0.3719638848
0.3719638849
0.3719638848
0.3719638848
0.3719638842
0.3719638827
0.3719638778
0.3719638594
0.3719637934
0.3719635742
0.3719628896
0.3719609517
0.3719561884
0.3719638849
0.3719638851
0.3719638847
0.3719638846
0.3719638845
0.3719638841
0.3719638821
0.3719638748
0.3719638465
0.3719637423
0.3719633732
0.3719621436
0.3719584158
0.37194867
0.3719638848
0.3719638848
0.3719638849
0.3719638846
0.3719638845
0.371963884
0.3719638816
0.3719638733
0.3719638396
0.3719637128
0.3719632439
0.3719616043
0.3719563248
0.3719415642
0.3719638848
0.3719638848
0.3719638847
0.3719638846
0.3719638844
0.371963884
0.3719638822
0.3719638749
0.3719638466
0.3719637424
0.3719633733
0.3719621434
0.3719584162
0.3719486704
0.3719638848
0.3719638849
0.3719638849
0.3719638851
0.371963885
0.3719638845
0.3719638829
0.3719638777
0.3719638591
0.3719637933
0.371963574
0.3719628893
0.3719609514
0.3719561881
0.371963885
0.3719638851
0.3719638852
0.371963885
0.3719638847
0.3719638847
0.3719638839
0.3719638804
0.3719638695
0.3719638331
0.3719637185
0.3719633843
0.3719624947
0.3719604112
0.3719638849
0.3719638848
0.3719638846
0.3719638847
0.3719638847
0.3719638845
0.3719638838
0.3719638815
0.3719638744
0.3719638521
0.3719637859
0.3719636024
0.3719631379
0.3719620879
0.371960018
0.3719638848
0.3719638846
0.3719638848
0.3719638847
0.3719638845
0.3719638845
0.3719638839
0.3719638825
0.3719638778
0.371963863
0.3719638212
0.3719637092
0.3719634357
0.3719628302
0.3719638846
0.3719638846
0.3719638848
0.371963885
0.3719638847
0.3719638845
0.371963884
0.3719638819
0.3719638745
0.3719638523
0.371963786
0.3719636025
0.3719631383
0.371962088
0.3719638846
0.3719638848
0.3719638848
0.3719638846
0.3719638846
0.3719638843
0.3719638836
0.3719638801
0.3719638689
0.3719638319
0.3719637167
0.3719633823
0.3719625002
0.3719604463
0.3719638847
0.3719638848
0.3719638846
0.3719638845
0.3719638846
0.3719638841
0.3719638833
0.3719638787
0.3719638625
0.3719638077
0.3719636302
0.3719630919
0.3719616088
0.3719580371
0.3719638847
0.3719638845
0.3719638844
0.3719638844
0.3719638843
0.371963884
0.3719638828
0.3719638777
0.3719638593
0.3719637952
0.3719635816
0.3719629161
0.3719610221
0.3719563142
0.3719638847
0.3719638846
0.3719638844
0.3719638845
0.3719638843
0.3719638843
0.3719638829
0.3719638784
0.3719638622
0.3719638074
0.3719636301
0.3719630917
0.3719616088
0.3719580372
0.371963885
0.3719638848
0.3719638846
0.3719638847
0.3719638845
0.3719638844
0.3719638836
0.3719638804
0.3719638688
0.3719638318
0.3719637167
0.3719633823
0.3719625001
0.3719604464
0.371963885
0.3719638851
0.3719638848
0.3719638849
0.3719638848
0.3719638852
0.3719638842
0.3719638819
0.3719638748
0.3719638523
0.3719637859
0.3719636024
0.3719631379
0.3719620875
0.3719638848
0.3719638848
0.3719638849
0.3719638848
0.3719638847
0.3719638846
0.371963884
0.3719638825
0.3719638775
0.3719638627
0.3719638207
0.3719637091
0.3719634353
0.3719628301
)
;

boundaryField
{
    top
    {
        type            zeroGradient;
    }
    bottom
    {
        type            zeroGradient;
    }
    side-walls
    {
        type            zeroGradient;
    }
    inlet
    {
        type            zeroGradient;
    }
    outlet
    {
        type            zeroGradient;
    }
    procBoundary0to1
    {
        type            processor;
        value           nonuniform List<scalar> 
97
(
0.3719595583
0.3719600178
0.3719565128
0.3719497775
0.3719398935
0.371932823
0.3719398933
0.3719497778
0.3719565132
0.3719595587
0.3719600178
0.3719600178
0.3719496349
0.3719466689
0.3719323056
0.3719014559
0.3718722941
0.371901457
0.3719323065
0.3719496353
0.3719565133
0.3719563883
0.3719466689
0.3719466689
0.3718810296
0.3718444116
0.3717667859
0.3716168749
0.3717667895
0.3718810322
0.3719323068
0.3719497777
0.3719509281
0.3719287067
0.3718444116
0.3718444116
0.3713745471
0.3707415217
0.3706034805
0.3713745598
0.3717667891
0.371901457
0.3719398936
0.3719468236
0.3719099204
0.3717293976
0.3707415217
0.3707415217
0.3672776444
0.3707415241
0.370603481
0.3715547139
0.371616874
0.3718722934
0.3719328228
0.3719509283
0.3719287076
0.3718444169
0.3715547175
0.3707415241
0.3715547139
0.3715547139
0.3717667863
0.3719168772
0.3719014557
0.3719398932
0.3719563888
0.3719466698
0.3719168791
0.3718444167
0.371729398
0.3718444169
0.3719168772
0.3719168772
0.3719323056
0.3719562911
0.3719497773
0.3719600183
0.3719562918
0.3719466697
0.3719287074
0.3719099204
0.3719287076
0.3719466692
0.3719562911
0.3719562911
0.3719565129
0.3719616374
0.3719616376
0.3719600186
0.3719563889
0.3719509283
0.3719468237
0.3719509287
0.3719563886
0.3719600182
0.3719616374
)
;
    }
}


// ************************************************************************* //
