/*--------------------------------*- C++ -*----------------------------------*\
| =========                 |                                                 |
| \\      /  F ield         | OpenFOAM: The Open Source CFD Toolbox           |
|  \\    /   O peration     | Version:  4.x                                   |
|   \\  /    A nd           | Web:      www.OpenFOAM.org                      |
|    \\/     M anipulation  |                                                 |
\*---------------------------------------------------------------------------*/
FoamFile
{
    version     2.0;
    format      ascii;
    class       volScalarField;
    location    "4000";
    object      CO2;
}
// * * * * * * * * * * * * * * * * * * * * * * * * * * * * * * * * * * * * * //

dimensions      [0 0 0 0 0 0 0];

internalField   nonuniform List<scalar> 
1175
(
0.006506718475
0.006506718353
0.006506718437
0.006506718683
0.006506718893
0.006506719056
0.006506719467
0.006506721303
0.006506727265
0.006506746414
0.006506801201
0.006506945812
0.006507299381
0.006508081969
0.006509625402
0.006506718459
0.006506718262
0.006506718758
0.006506718598
0.00650671845
0.006506718584
0.006506719298
0.006506722685
0.006506731557
0.006506760368
0.006506846442
0.006507083504
0.006507684109
0.006509042036
0.006511718929
0.006506718605
0.006506718701
0.006506718298
0.006506719218
0.00650671848
0.006506718916
0.006506720712
0.006506724333
0.006506739121
0.006506786667
0.006506936058
0.00650736824
0.006508509377
0.006511164365
0.006516412447
0.006506718418
0.006506718346
0.00650671847
0.006506718764
0.006506718227
0.006506719256
0.006506721022
0.00650672644
0.006506747483
0.006506818078
0.006507047473
0.006507743976
0.006509660884
0.006514278788
0.006523472821
0.006506717887
0.006506718524
0.006506718511
0.006506718346
0.006506718917
0.006506719515
0.006506720892
0.00650672696
0.00650675105
0.006506833912
0.006507110359
0.006507970444
0.006510419285
0.006516506332
0.006528779494
0.006506717963
0.006506717976
0.006506718836
0.006506718406
0.006506718622
0.006506719146
0.006506720714
0.006506725834
0.00650674675
0.006506817929
0.006507047555
0.006507743757
0.006509660386
0.006514278931
0.006523472588
0.006506717792
0.006506717889
0.006506718289
0.006506717876
0.006506717876
0.00650671784
0.006506719359
0.006506724033
0.006506738481
0.006506786316
0.006506935775
0.006507367608
0.006508508723
0.006511164041
0.006516411964
0.00650671817
0.006506717916
0.006506718058
0.006506717655
0.006506718603
0.00650671887
0.006506719867
0.006506721738
0.006506730759
0.006506759954
0.00650684579
0.006507082304
0.006507682992
0.006509041244
0.006511717832
0.006506718007
0.006506717985
0.006506718002
0.00650671801
0.006506718341
0.006506718422
0.006506719
0.006506720988
0.006506726891
0.006506745448
0.006506800376
0.006506944474
0.006507298664
0.006508081102
0.006509623459
0.006506718382
0.00650671852
0.006506718817
0.006506718114
0.006506718674
0.006506718972
0.006506719755
0.006506722837
0.006506731674
0.006506760658
0.006506846341
0.006507083712
0.006507683715
0.006509042225
0.006506717691
0.006506718402
0.006506718667
0.006506719326
0.006506719274
0.006506718738
0.006506719821
0.006506723768
0.006506737889
0.006506784792
0.006506932849
0.006507364868
0.006508515013
0.006511209501
0.006516538982
0.006506718351
0.006506718191
0.00650671829
0.006506718618
0.006506718158
0.006506719289
0.006506720859
0.006506727637
0.006506751588
0.006506836267
0.006507119893
0.006508005054
0.006510511308
0.006516670558
0.006528980962
0.006506718526
0.006506718702
0.006506717943
0.006506719203
0.006506718444
0.006506719096
0.006506721833
0.006506731149
0.006506767698
0.006506902241
0.006507379341
0.00650896967
0.00651378895
0.006526389862
0.006552207403
0.006506718035
0.006506718326
0.006506718813
0.006506718246
0.006506718789
0.006506719685
0.006506722288
0.006506733649
0.006506775472
0.006506940492
0.00650754654
0.0065096668
0.0065164924
0.006535576025
0.006576494651
0.006506718742
0.006506718043
0.006506718181
0.006506718029
0.00650671826
0.006506718274
0.006506721362
0.006506730955
0.006506767078
0.006506902222
0.006507379187
0.00650896924
0.006513789058
0.006526389657
0.006552205128
0.006506718893
0.006506718982
0.006506718895
0.006506718403
0.006506718404
0.006506718765
0.006506721069
0.00650672715
0.006506751396
0.00650683603
0.006507119408
0.006508004935
0.006510510252
0.006516668671
0.006528979683
0.006506717647
0.006506717864
0.006506717826
0.006506719637
0.006506718836
0.006506719228
0.00650672036
0.006506724781
0.006506738563
0.006506784873
0.00650693266
0.006507364695
0.00650851499
0.006511209027
0.006516537078
0.006506718314
0.006506718007
0.006506718295
0.006506718391
0.006506718594
0.006506718903
0.006506718831
0.006506722001
0.006506731368
0.00650675954
0.006506845701
0.006507082891
0.006507683372
0.006509041517
0.006511717979
0.006506718477
0.006506718326
0.006506718908
0.006506718302
0.006506718759
0.006506718532
0.00650672023
0.006506724562
0.006506738957
0.006506787368
0.006506935749
0.006507368073
0.006508508895
0.006511164799
0.006506717282
0.006506717107
0.006506718029
0.006506718892
0.006506718308
0.006506718432
0.006506720358
0.00650672719
0.006506751916
0.006506836846
0.006507120189
0.006508005886
0.006510511599
0.006516671691
0.006506718617
0.006506718324
0.006506718596
0.006506718866
0.006506718434
0.006506718372
0.006506721237
0.006506732868
0.006506777274
0.006506944677
0.00650755195
0.006509611687
0.006515971028
0.006532826884
0.006567506994
0.006506718182
0.006506718313
0.006506719262
0.006506718699
0.006506718359
0.006506719382
0.006506722953
0.006506740789
0.006506811444
0.006507099061
0.006508226885
0.006512420611
0.006526739206
0.006568813745
0.006661197443
0.006506718283
0.006506718098
0.006506717826
0.0065067185
0.006506719019
0.006506720044
0.006506724863
0.006506745342
0.006506832028
0.006507201225
0.006508736744
0.006514907778
0.006538222448
0.006616018225
0.006809890407
0.006506718563
0.006506718431
0.00650671851
0.006506718345
0.006506718351
0.006506719265
0.006506722814
0.006506741151
0.00650681169
0.006507099999
0.006508227397
0.006512420093
0.006526739013
0.006568811262
0.006661189221
0.006506717931
0.00650671785
0.006506717308
0.006506717983
0.006506718519
0.006506718991
0.006506722314
0.006506732875
0.006506777171
0.006506944618
0.006507551036
0.006509611712
0.006515970513
0.006532824164
0.00656749878
0.006506718418
0.006506718318
0.006506718295
0.00650671815
0.00650671865
0.006506718744
0.006506720137
0.006506727004
0.006506750978
0.006506836195
0.006507119429
0.006508004927
0.006510511208
0.006516670172
0.006528978835
0.006506718102
0.00650671817
0.006506718064
0.006506718302
0.006506718754
0.006506718458
0.006506719681
0.006506723852
0.00650673825
0.006506786579
0.006506935126
0.006507367808
0.006508508339
0.006511163916
0.006516411695
0.006506718543
0.006506718427
0.006506718427
0.006506718036
0.00650671814
0.00650671867
0.006506720153
0.006506725866
0.006506746577
0.006506817808
0.00650704758
0.006507743602
0.006509662236
0.006514281194
0.006506718556
0.00650671847
0.006506718845
0.006506717611
0.006506717987
0.006506718878
0.006506721294
0.006506731232
0.006506767523
0.0065069022
0.006507379504
0.006508969818
0.006513790308
0.006526393668
0.006506717705
0.006506717919
0.00650671806
0.006506718167
0.006506718488
0.006506719595
0.006506723789
0.006506740985
0.006506812133
0.006507099821
0.006508226943
0.006512420743
0.006526740051
0.006568822288
0.006506717686
0.00650671885
0.006506718367
0.006506717981
0.006506717889
0.006506720298
0.006506726456
0.006506753472
0.006506874895
0.006507408768
0.006509729571
0.006519500567
0.006558125768
0.006692339693
0.007035796157
0.006506717682
0.006506718455
0.006506718158
0.006506718225
0.006506718798
0.006506721221
0.006506727802
0.006506761116
0.006506915757
0.006507642189
0.006511083559
0.006527397542
0.006603395634
0.00693495291
0.008087016194
0.006506717615
0.006506717242
0.006506717597
0.006506718413
0.006506718207
0.006506719678
0.006506726617
0.006506753545
0.006506874451
0.006507408359
0.006509730212
0.00651950125
0.006558124159
0.006692326394
0.0070357387
0.006506718269
0.006506717883
0.006506718203
0.006506718256
0.006506718491
0.00650671942
0.006506723759
0.006506741413
0.006506811718
0.006507099356
0.006508226443
0.006512420669
0.006526739111
0.006568812461
0.006661189211
0.006506718654
0.006506717889
0.00650671783
0.006506718324
0.006506718456
0.00650671944
0.006506722074
0.006506730709
0.006506766919
0.006506902185
0.006507379616
0.006508969095
0.006513789474
0.006526389989
0.006552204745
0.00650671832
0.006506718133
0.006506718531
0.006506718323
0.006506718575
0.006506719083
0.006506721159
0.006506726233
0.006506746742
0.006506817306
0.00650704674
0.006507742561
0.006509660444
0.00651427857
0.006523472105
0.006506718658
0.006506718617
0.006506718423
0.006506718524
0.006506717984
0.006506718624
0.006506720815
0.006506727232
0.0065067513
0.006506834578
0.006507110703
0.006507970572
0.0065104203
0.006516508457
0.006506718892
0.006506718232
0.006506717914
0.006506717848
0.006506718517
0.006506718579
0.006506722114
0.00650673275
0.006506776099
0.006506940816
0.006507547115
0.006509667069
0.006516493554
0.006535582219
0.006506717916
0.006506718752
0.00650671782
0.006506717204
0.006506717885
0.006506718638
0.006506724476
0.006506744439
0.006506832166
0.006507201391
0.006508736728
0.006514907798
0.006538226607
0.006616039611
0.006506717513
0.006506717956
0.006506718009
0.006506718746
0.006506718429
0.006506720139
0.00650672727
0.006506760728
0.006506915291
0.006507642619
0.006511084036
0.006527398671
0.006603405126
0.006935019485
0.006506718054
0.006506718013
0.006506718096
0.006506717598
0.006506718052
0.006506720135
0.006506728937
0.006506771141
0.006506974885
0.006508018072
0.006513592838
0.006545137497
0.006735924946
0.007977343296
0.01671521104
0.006506717298
0.006506717839
0.006506718039
0.006506718015
0.006506717823
0.00650671995
0.006506726518
0.006506760589
0.006506915477
0.006507642767
0.006511084623
0.006527399218
0.006603398991
0.006934964973
0.008087026824
0.006506716879
0.006506717413
0.006506718416
0.006506718142
0.006506718475
0.006506719466
0.006506724108
0.006506744579
0.006506832232
0.006507201571
0.006508736766
0.006514907357
0.00653822328
0.006616022418
0.006809894148
0.006506717733
0.006506717739
0.006506718509
0.006506718115
0.006506718778
0.00650671883
0.006506721457
0.006506732768
0.006506776155
0.006506940624
0.006507546215
0.006509666806
0.006516492815
0.006535577181
0.00657649606
0.006506717829
0.006506718058
0.006506718272
0.006506718229
0.006506718008
0.006506718654
0.006506721131
0.006506727854
0.006506751318
0.006506833876
0.006507110011
0.006507969895
0.006510418682
0.006516506686
0.00652877965
0.006506718731
0.006506718274
0.006506718817
0.006506718409
0.006506718416
0.006506718489
0.00650672004
0.006506725785
0.006506746992
0.006506817544
0.006507047041
0.006507743731
0.006509660971
0.006514280375
0.006506718916
0.006506718596
0.006506718206
0.006506718124
0.006506718313
0.006506718986
0.006506721507
0.006506731045
0.006506767486
0.006506902561
0.00650737933
0.006508969334
0.006513789488
0.006526392934
0.006506718466
0.00650671882
0.006506718345
0.00650671831
0.006506718459
0.006506719298
0.006506723105
0.006506740352
0.006506811596
0.006507099631
0.006508226478
0.00651242008
0.006526741307
0.006568822926
0.006506718879
0.006506718282
0.006506717955
0.006506717757
0.006506718784
0.006506719919
0.006506726383
0.00650675416
0.006506875229
0.006507409036
0.006509729119
0.006519501153
0.006558131185
0.006692360569
0.00650671761
0.006506717676
0.006506717842
0.006506717707
0.006506718515
0.006506719956
0.006506726982
0.006506761285
0.006506915419
0.006507642715
0.0065110844
0.006527399258
0.006603408435
0.006935028968
0.006506717658
0.006506717453
0.006506717849
0.006506718024
0.006506718076
0.006506720161
0.006506726293
0.006506754137
0.006506874693
0.006507409161
0.00650972999
0.006519501552
0.006558129226
0.006692354839
0.006506717477
0.006506717594
0.006506717566
0.006506717721
0.006506718063
0.006506719764
0.006506723324
0.006506740688
0.006506812132
0.006507099932
0.006508226578
0.006512420648
0.00652673974
0.006568817741
0.006661208803
0.006506718264
0.006506718096
0.006506717969
0.006506718337
0.00650671835
0.006506719119
0.00650672118
0.00650673108
0.006506766757
0.006506901312
0.006507379119
0.006508969465
0.006513789146
0.006526391319
0.006552207444
0.006506717966
0.006506717938
0.006506717803
0.006506717975
0.006506718029
0.006506718009
0.006506719803
0.006506725846
0.006506747012
0.006506817369
0.006507046302
0.00650774259
0.00650966002
0.006514279082
0.006523473331
0.006506718549
0.006506718625
0.006506717935
0.006506717944
0.006506718281
0.006506718805
0.006506719543
0.006506724213
0.006506739223
0.006506786957
0.006506935513
0.006507368389
0.006508508636
0.006511164803
0.006506718347
0.006506718227
0.006506718015
0.006506718092
0.006506718033
0.006506718211
0.006506720278
0.006506727074
0.006506751251
0.006506835648
0.006507118995
0.006508004804
0.006510511141
0.006516671841
0.006506718571
0.006506718998
0.006506718271
0.006506718553
0.006506719248
0.006506719659
0.006506722111
0.006506733344
0.006506777174
0.006506943898
0.006507550815
0.006509612441
0.006515971531
0.006532829113
0.006506718612
0.006506718458
0.006506718022
0.006506718241
0.006506718652
0.006506719829
0.006506723901
0.006506741492
0.006506812529
0.006507099843
0.006508226726
0.006512421139
0.006526741629
0.006568824248
0.006506717941
0.006506718105
0.006506718183
0.006506717809
0.006506719027
0.00650672007
0.006506724508
0.006506745349
0.006506832185
0.006507201653
0.006508736509
0.006514908245
0.006538227665
0.006616040649
0.006506718224
0.006506717751
0.006506717941
0.006506718845
0.006506718839
0.006506719856
0.006506724059
0.006506740941
0.006506812565
0.006507099498
0.006508226585
0.006512421028
0.006526741338
0.006568823185
0.00650671794
0.006506717439
0.006506717197
0.006506718104
0.006506718396
0.006506719284
0.006506722108
0.006506733259
0.006506777088
0.006506944966
0.006507550666
0.006509611816
0.006515972075
0.006532829201
0.006506718214
0.006506718361
0.006506718125
0.006506718035
0.006506718379
0.006506718674
0.006506720081
0.006506726869
0.006506750968
0.006506835814
0.0065071197
0.006508005334
0.00651051131
0.006516671146
0.006528982886
0.006506717919
0.006506717526
0.006506717582
0.006506717837
0.006506717758
0.006506718531
0.006506718761
0.006506723754
0.006506738182
0.006506786496
0.006506935073
0.006507367984
0.006508508656
0.006511164922
0.006516413373
0.006506717837
0.006506718199
0.006506717825
0.006506717773
0.006506717778
0.006506719161
0.006506719599
0.006506722058
0.00650673122
0.006506759903
0.006506844917
0.006507082199
0.006507682905
0.006509041671
0.006506718052
0.00650671783
0.006506718077
0.006506717415
0.006506717573
0.006506718881
0.006506719517
0.006506723331
0.006506737747
0.006506784643
0.006506932118
0.006507365514
0.006508515529
0.006511209841
0.006506718255
0.00650671784
0.006506717469
0.006506717832
0.0065067178
0.006506718851
0.006506720773
0.006506726905
0.006506750451
0.006506836337
0.006507119508
0.006508004568
0.006510510766
0.006516671104
0.006506717603
0.006506716926
0.006506717971
0.006506718299
0.006506718386
0.006506718739
0.00650672163
0.006506730908
0.006506767597
0.006506902537
0.006507379733
0.006508969438
0.006513790259
0.006526394149
0.006506717729
0.006506717781
0.006506717471
0.00650671825
0.006506718533
0.006506718885
0.006506722326
0.006506732857
0.006506776928
0.006506940499
0.00650754708
0.006509666773
0.00651649397
0.006535581969
0.006506717915
0.006506717733
0.006506718208
0.00650671838
0.006506718596
0.006506719214
0.006506721432
0.006506730726
0.006506767399
0.006506902211
0.006507379516
0.006508969818
0.006513789258
0.006526392914
0.006506717921
0.006506717657
0.006506717626
0.006506716905
0.00650671721
0.006506717964
0.00650672024
0.006506727286
0.006506751189
0.006506836428
0.006507119916
0.006508005494
0.006510511442
0.006516671797
0.006506717325
0.006506717006
0.006506716745
0.006506717221
0.006506718084
0.006506717614
0.006506718598
0.006506723415
0.006506737531
0.006506784471
0.006506933095
0.006507365429
0.0065085161
0.00651121071
0.006506717555
0.006506717801
0.006506718341
0.006506718123
0.006506718146
0.006506718317
0.00650671921
0.006506722402
0.006506731576
0.006506760441
0.006506845818
0.006507083139
0.006507684063
0.006509041961
0.006511719128
0.00650671791
0.006506718248
0.006506717898
0.006506718151
0.006506718548
0.006506718279
0.006506719278
0.006506721004
0.006506726883
0.006506745874
0.00650679976
0.006506944735
0.006507298512
0.006508081822
0.006506718447
0.006506718472
0.006506717912
0.006506717333
0.00650671805
0.006506718198
0.006506718628
0.006506721513
0.006506731292
0.006506759958
0.00650684571
0.006507083007
0.006507682921
0.006509041593
0.006506718311
0.006506717805
0.00650671779
0.006506718223
0.006506718254
0.006506718579
0.006506719225
0.006506724047
0.006506738471
0.006506786236
0.006506935085
0.006507367657
0.006508508221
0.006511164795
0.006506718238
0.006506717901
0.006506718306
0.006506718477
0.006506718165
0.006506719232
0.006506719555
0.00650672552
0.006506746693
0.006506817806
0.006507047261
0.006507743463
0.006509661569
0.006514280625
0.006506718154
0.00650671858
0.006506718939
0.006506718974
0.006506718873
0.006506719213
0.006506720572
0.006506727115
0.006506750986
0.006506833895
0.006507110328
0.006507970868
0.006510419853
0.006516508322
0.006506718033
0.006506718468
0.006506718959
0.006506718525
0.006506719009
0.006506718569
0.006506720474
0.006506726484
0.0065067477
0.006506818475
0.006507047274
0.006507743854
0.006509661558
0.006514280455
0.006506717345
0.006506717891
0.006506718303
0.006506718209
0.006506718443
0.006506718335
0.006506719269
0.006506723372
0.006506738854
0.006506786558
0.006506935096
0.006507367579
0.00650850839
0.006511164643
0.006506717216
0.006506717046
0.006506717772
0.006506717646
0.006506717833
0.00650671654
0.006506718308
0.006506721461
0.006506730434
0.006506760009
0.006506845818
0.006507083314
0.006507684174
0.006509042912
0.006506717872
0.006506717797
0.006506717652
0.006506717759
0.006506718018
0.006506718124
0.006506719018
0.006506720958
0.00650672756
0.006506746752
0.006506801099
0.006506945098
0.006507299395
0.006508082135
)
;

boundaryField
{
    top
    {
        type            zeroGradient;
    }
    bottom
    {
        type            zeroGradient;
    }
    side-walls
    {
        type            zeroGradient;
    }
    inlet
    {
        type            zeroGradient;
    }
    outlet
    {
        type            zeroGradient;
    }
    procBoundary0to1
    {
        type            processor;
        value           nonuniform List<scalar> 
97
(
0.006512313833
0.006511719854
0.00651625252
0.0065249627
0.006537743959
0.006546887206
0.006537744596
0.00652496198
0.006516251689
0.006512312891
0.006511719854
0.006511719854
0.006525146999
0.006528982386
0.006547557398
0.006587449407
0.006625156486
0.00658744715
0.006547555395
0.006525146544
0.006516251241
0.006516413299
0.006528982386
0.006528982386
0.006613864188
0.006661212741
0.006761589347
0.006955423064
0.006761582226
0.006613859095
0.006547554677
0.006524962291
0.006523474135
0.006552209544
0.006661212741
0.006661212741
0.007268769079
0.008087227398
0.008265730212
0.007268744601
0.006761582848
0.006587447107
0.006537743777
0.006528781762
0.006576500847
0.006809922011
0.008087227398
0.008087227398
0.01256588354
0.008087222175
0.008265730409
0.007035794757
0.006955424787
0.006625158044
0.006546887505
0.006523473741
0.006552207648
0.006661201827
0.007035787077
0.008087222175
0.007035794757
0.007035794757
0.006761588671
0.006567507991
0.00658744992
0.006537744735
0.006516411922
0.006528980335
0.006567503758
0.006661202559
0.006809922132
0.006661202078
0.006567507991
0.006567507991
0.00654755742
0.00651653934
0.006524963247
0.006511718663
0.006516537513
0.006528980692
0.00655220845
0.006576501003
0.006552207799
0.006528981928
0.00651653934
0.00651653934
0.006516252256
0.006509624678
0.006509624108
0.006511717721
0.006516411855
0.006523473907
0.006528781584
0.006523472963
0.006516412657
0.006511718745
0.006509624678
)
;
    }
}


// ************************************************************************* //
