/*--------------------------------*- C++ -*----------------------------------*\
| =========                 |                                                 |
| \\      /  F ield         | OpenFOAM: The Open Source CFD Toolbox           |
|  \\    /   O peration     | Version:  4.x                                   |
|   \\  /    A nd           | Web:      www.OpenFOAM.org                      |
|    \\/     M anipulation  |                                                 |
\*---------------------------------------------------------------------------*/
FoamFile
{
    version     2.0;
    format      ascii;
    class       volScalarField;
    location    "4000";
    object      Cpv;
}
// * * * * * * * * * * * * * * * * * * * * * * * * * * * * * * * * * * * * * //

dimensions      [0 2 -2 -1 0 0 0];

internalField   nonuniform List<scalar> 
1175
(
1210.518849
1210.518848
1210.518853
1210.518842
1210.518825
1210.518832
1210.518837
1210.518847
1210.518843
1210.518834
1210.518842
1210.518854
1210.518872
1210.518925
1210.51901
1210.518867
1210.518877
1210.518882
1210.518899
1210.518902
1210.518899
1210.518918
1210.518906
1210.51891
1210.518925
1210.518928
1210.518937
1210.518984
1210.519086
1210.519256
1210.51864
1210.518643
1210.518636
1210.518633
1210.518627
1210.518638
1210.51864
1210.518638
1210.518659
1210.518659
1210.518668
1210.518692
1210.518759
1210.518944
1210.519276
1210.518589
1210.518602
1210.518592
1210.518602
1210.518598
1210.518582
1210.518594
1210.518597
1210.518586
1210.518585
1210.518609
1210.518642
1210.518783
1210.519096
1210.519672
1210.519137
1210.519116
1210.519134
1210.519144
1210.51912
1210.519097
1210.519124
1210.519132
1210.519139
1210.519134
1210.519157
1210.519226
1210.519373
1210.519763
1210.520518
1210.519638
1210.519615
1210.51962
1210.519616
1210.519584
1210.519572
1210.519581
1210.519582
1210.519587
1210.519567
1210.519593
1210.519628
1210.519755
1210.520056
1210.520655
1210.518714
1210.51872
1210.518711
1210.518734
1210.518755
1210.518741
1210.518746
1210.518742
1210.51876
1210.518762
1210.518752
1210.518803
1210.518854
1210.519039
1210.519367
1210.51895
1210.518946
1210.518949
1210.518942
1210.518936
1210.518949
1210.518926
1210.518948
1210.518933
1210.518924
1210.518955
1210.51899
1210.519042
1210.519097
1210.519269
1210.519482
1210.519486
1210.519471
1210.519476
1210.519474
1210.519479
1210.51948
1210.51949
1210.519498
1210.519508
1210.519493
1210.519513
1210.519512
1210.519576
1210.519664
1210.518651
1210.518647
1210.518647
1210.518661
1210.518651
1210.518662
1210.518648
1210.51864
1210.518643
1210.518665
1210.518661
1210.518682
1210.518706
1210.518792
1210.519154
1210.519135
1210.519121
1210.519121
1210.519117
1210.519111
1210.519102
1210.519108
1210.519107
1210.51911
1210.519124
1210.51917
1210.519231
1210.519388
1210.519722
1210.519272
1210.519259
1210.519254
1210.519257
1210.519269
1210.519264
1210.519274
1210.519264
1210.519255
1210.519249
1210.519278
1210.519324
1210.519489
1210.51986
1210.520643
1210.518672
1210.518691
1210.518695
1210.5187
1210.51873
1210.518749
1210.518761
1210.518765
1210.518783
1210.518814
1210.518848
1210.518962
1210.519271
1210.520057
1210.521692
1210.519243
1210.519232
1210.519241
1210.519229
1210.519224
1210.519247
1210.519239
1210.51924
1210.519272
1210.51927
1210.519281
1210.519431
1210.519841
1210.521091
1210.523688
1210.518414
1210.518426
1210.518426
1210.518434
1210.518452
1210.51845
1210.518421
1210.518418
1210.518411
1210.518407
1210.518404
1210.518517
1210.518838
1210.519629
1210.52127
1210.519694
1210.519706
1210.519693
1210.519703
1210.519701
1210.51971
1210.5197
1210.519707
1210.519701
1210.519722
1210.519763
1210.519805
1210.519978
1210.520363
1210.521118
1210.518516
1210.518506
1210.518507
1210.51849
1210.518479
1210.518501
1210.518514
1210.518499
1210.518508
1210.518523
1210.518542
1210.518576
1210.518646
1210.518803
1210.519138
1210.519475
1210.519487
1210.519467
1210.519461
1210.519462
1210.519485
1210.519484
1210.519483
1210.519471
1210.519476
1210.519468
1210.51949
1210.519518
1210.519608
1210.519801
1210.51876
1210.51878
1210.5188
1210.5188
1210.518812
1210.518825
1210.518808
1210.5188
1210.518793
1210.518812
1210.518816
1210.518859
1210.518926
1210.519115
1210.519176
1210.519154
1210.519135
1210.519116
1210.51912
1210.51912
1210.519091
1210.519113
1210.519095
1210.519113
1210.51912
1210.519163
1210.519327
1210.519753
1210.518337
1210.518332
1210.518353
1210.518321
1210.51833
1210.518331
1210.518357
1210.518353
1210.518326
1210.518357
1210.518355
1210.518493
1210.51893
1210.519992
1210.522213
1210.519103
1210.519103
1210.519112
1210.519127
1210.519131
1210.519115
1210.519074
1210.519102
1210.519128
1210.519117
1210.519178
1210.519429
1210.520352
1210.523037
1210.528919
1210.518
1210.517961
1210.51797
1210.51795
1210.51796
1210.517949
1210.517949
1210.517967
1210.517975
1210.517998
1210.518101
1210.518483
1210.519965
1210.524894
1210.537203
1210.518914
1210.518916
1210.51893
1210.518922
1210.518946
1210.518932
1210.518945
1210.518919
1210.518954
1210.518963
1210.519011
1210.519304
1210.520196
1210.522867
1210.52873
1210.518273
1210.518279
1210.518283
1210.518254
1210.518262
1210.518274
1210.518271
1210.518314
1210.518334
1210.518333
1210.518372
1210.518514
1210.518923
1210.520006
1210.522197
1210.519687
1210.519701
1210.519718
1210.519718
1210.519721
1210.519714
1210.519687
1210.519694
1210.519692
1210.519702
1210.519728
1210.519771
1210.519928
1210.520324
1210.521123
1210.518637
1210.518637
1210.518624
1210.51862
1210.518613
1210.518624
1210.518616
1210.518619
1210.51864
1210.518623
1210.518628
1210.518666
1210.518765
1210.518936
1210.519254
1210.518954
1210.518942
1210.518953
1210.518938
1210.51894
1210.518939
1210.518927
1210.518961
1210.518959
1210.518962
1210.518948
1210.518995
1210.519107
1210.519384
1210.519585
1210.519616
1210.519609
1210.519617
1210.519624
1210.519641
1210.519621
1210.519618
1210.519606
1210.51962
1210.519643
1210.519738
1210.520031
1210.520821
1210.518694
1210.518676
1210.518684
1210.518674
1210.518686
1210.518679
1210.518678
1210.518668
1210.518681
1210.518696
1210.518748
1210.519014
1210.519924
1210.522615
1210.51951
1210.519491
1210.519514
1210.519518
1210.519541
1210.519528
1210.519533
1210.519518
1210.519513
1210.519525
1210.519675
1210.520301
1210.522739
1210.531239
1210.552988
1210.519316
1210.519294
1210.519277
1210.519285
1210.519288
1210.51927
1210.519286
1210.519293
1210.519314
1210.519368
1210.519603
1210.520637
1210.525464
1210.546498
1210.618618
1210.518776
1210.518785
1210.518772
1210.518747
1210.518739
1210.51871
1210.518723
1210.518729
1210.518755
1210.5188
1210.518923
1210.519532
1210.522005
1210.530527
1210.552296
1210.519205
1210.519206
1210.519209
1210.51921
1210.519225
1210.519217
1210.519206
1210.519198
1210.519167
1210.519198
1210.519253
1210.51952
1210.52042
1210.523086
1210.528958
1210.518816
1210.518842
1210.518845
1210.518836
1210.518822
1210.518814
1210.518802
1210.518836
1210.518834
1210.51883
1210.518892
1210.519002
1210.519294
1210.520112
1210.521754
1210.518917
1210.518911
1210.518903
1210.518905
1210.518912
1210.518924
1210.518932
1210.518951
1210.51897
1210.519004
1210.51901
1210.51906
1210.519186
1210.519491
1210.52009
1210.519036
1210.519035
1210.519067
1210.519076
1210.51907
1210.519083
1210.519082
1210.519082
1210.519082
1210.519102
1210.519111
1210.519181
1210.519341
1210.519722
1210.518117
1210.518129
1210.518133
1210.518129
1210.518125
1210.518132
1210.518137
1210.518142
1210.518129
1210.518136
1210.518176
1210.518332
1210.518773
1210.519991
1210.51886
1210.518847
1210.518845
1210.518878
1210.518881
1210.518878
1210.51887
1210.518871
1210.518895
1210.518921
1210.519052
1210.519424
1210.520943
1210.525883
1210.519034
1210.519045
1210.519029
1210.519032
1210.519038
1210.519022
1210.519033
1210.519035
1210.519058
1210.51912
1210.519362
1210.520391
1210.525214
1210.546245
1210.519831
1210.519842
1210.519851
1210.519859
1210.519869
1210.519861
1210.519858
1210.519849
1210.519873
1210.519887
1210.520234
1210.522225
1210.534324
1210.613032
1210.122785
1210.519214
1210.519203
1210.519207
1210.519165
1210.519183
1210.519195
1210.519203
1210.519183
1210.51918
1210.519199
1210.519411
1210.52045
1210.525303
1210.546332
1210.618469
1210.519329
1210.519323
1210.519313
1210.519323
1210.519326
1210.519293
1210.519304
1210.519333
1210.519334
1210.519349
1210.519448
1210.519839
1210.521316
1210.526232
1210.538521
1210.519117
1210.519125
1210.519111
1210.519096
1210.519092
1210.519091
1210.51909
1210.519075
1210.51906
1210.519052
1210.519118
1210.519266
1210.51969
1210.520907
1210.523465
1210.519317
1210.519316
1210.519318
1210.519303
1210.519303
1210.519308
1210.519293
1210.519291
1210.519275
1210.519297
1210.51932
1210.519367
1210.519546
1210.51995
1210.520716
1210.519217
1210.519222
1210.519225
1210.519242
1210.519245
1210.519244
1210.519252
1210.519273
1210.519276
1210.519283
1210.519276
1210.519311
1210.519442
1210.519764
1210.518585
1210.518594
1210.518587
1210.518579
1210.518575
1210.518577
1210.518579
1210.518564
1210.518562
1210.518548
1210.518589
1210.518722
1210.518988
1210.519796
1210.518938
1210.518945
1210.518975
1210.518967
1210.518983
1210.518989
1210.518981
1210.518987
1210.518984
1210.519021
1210.519103
1210.519376
1210.520279
1210.522932
1210.518751
1210.518759
1210.518763
1210.518776
1210.518806
1210.518821
1210.518824
1210.518838
1210.518858
1210.518887
1210.519062
1210.519684
1210.522156
1210.530682
1210.519241
1210.519231
1210.519221
1210.519221
1210.519213
1210.519183
1210.519188
1210.519176
1210.51921
1210.519244
1210.519444
1210.52047
1210.525273
1210.546293
1210.519147
1210.519171
1210.519166
1210.519174
1210.51917
1210.519178
1210.519194
1210.519191
1210.519195
1210.519235
1210.519379
1210.520033
1210.522492
1210.530983
1210.518272
1210.518275
1210.518254
1210.518258
1210.518256
1210.518232
1210.518226
1210.518235
1210.518232
1210.518264
1210.518352
1210.518594
1210.519524
1210.522184
1210.528049
1210.519419
1210.519442
1210.519441
1210.519434
1210.519456
1210.519463
1210.519478
1210.519484
1210.519496
1210.519513
1210.519523
1210.519618
1210.519944
1210.520733
1210.52234
1210.519452
1210.519454
1210.519447
1210.519445
1210.519444
1210.519447
1210.51944
1210.519424
1210.519437
1210.519447
1210.519469
1210.519521
1210.519635
1210.519904
1210.520472
1210.519361
1210.519356
1210.519368
1210.519362
1210.519366
1210.519388
1210.519367
1210.519364
1210.519355
1210.519372
1210.5194
1210.519416
1210.519473
1210.519648
1210.519606
1210.519617
1210.519613
1210.519578
1210.519615
1210.519586
1210.519564
1210.519566
1210.51955
1210.519589
1210.519604
1210.519661
1210.519802
1210.520183
1210.519272
1210.519273
1210.519275
1210.519257
1210.519235
1210.519228
1210.519243
1210.519235
1210.519228
1210.51924
1210.519234
1210.519368
1210.519778
1210.520847
1210.519235
1210.519238
1210.519229
1210.51924
1210.519263
1210.519259
1210.519269
1210.519272
1210.519271
1210.519293
1210.519379
1210.519661
1210.520552
1210.523193
1210.518536
1210.518519
1210.518539
1210.518527
1210.51853
1210.518513
1210.518532
1210.518504
1210.518526
1210.518551
1210.518679
1210.519075
1210.520581
1210.525501
1210.519132
1210.519131
1210.519128
1210.519133
1210.519107
1210.519092
1210.519068
1210.519067
1210.51905
1210.519074
1210.519144
1210.519398
1210.520308
1210.522978
1210.519495
1210.519491
1210.519504
1210.519491
1210.519493
1210.519482
1210.519488
1210.519493
1210.5195
1210.519495
1210.519542
1210.51969
1210.520085
1210.521132
1210.51849
1210.518462
1210.518464
1210.518446
1210.518444
1210.518466
1210.518461
1210.518472
1210.518475
1210.518465
1210.518479
1210.518517
1210.518682
1210.519087
1210.519885
1210.519239
1210.519248
1210.51925
1210.519231
1210.519222
1210.519196
1210.519217
1210.519197
1210.519189
1210.519189
1210.519211
1210.519246
1210.519325
1210.519504
1210.519843
1210.518431
1210.518417
1210.518424
1210.51843
1210.518432
1210.518423
1210.518439
1210.518454
1210.518447
1210.518464
1210.518488
1210.518484
1210.518539
1210.51859
1210.518631
1210.518653
1210.51865
1210.518695
1210.518715
1210.518686
1210.518694
1210.518679
1210.518703
1210.518739
1210.518728
1210.518738
1210.518815
1210.518999
1210.51921
1210.51921
1210.519213
1210.519229
1210.51921
1210.519194
1210.519208
1210.519226
1210.519236
1210.519231
1210.51925
1210.519332
1210.519513
1210.519895
1210.51876
1210.518764
1210.518746
1210.51873
1210.518729
1210.518703
1210.518723
1210.518699
1210.518714
1210.518711
1210.518752
1210.518868
1210.519162
1210.519953
1210.518993
1210.518996
1210.518987
1210.518994
1210.518973
1210.518989
1210.518973
1210.518991
1210.518979
1210.518995
1210.519037
1210.519165
1210.519618
1210.520828
1210.518593
1210.518581
1210.518569
1210.518585
1210.518577
1210.518587
1210.51858
1210.518552
1210.518545
1210.518533
1210.518579
1210.518689
1210.519013
1210.519811
1210.518806
1210.518797
1210.518798
1210.518826
1210.518833
1210.518843
1210.518838
1210.518859
1210.518872
1210.518884
1210.518895
1210.518973
1210.519142
1210.519548
1210.519029
1210.519039
1210.519028
1210.519025
1210.519013
1210.519039
1210.519049
1210.519053
1210.519066
1210.519071
1210.51905
1210.519051
1210.519101
1210.519291
1210.518873
1210.518871
1210.518862
1210.518862
1210.51885
1210.518853
1210.518862
1210.518862
1210.518871
1210.51887
1210.518878
1210.518896
1210.518928
1210.519006
1210.519184
1210.519303
1210.519309
1210.519284
1210.519295
1210.519302
1210.519318
1210.519308
1210.519308
1210.519333
1210.519316
1210.519345
1210.519362
1210.519387
1210.519437
1210.519036
1210.519052
1210.519058
1210.51907
1210.519067
1210.519058
1210.519057
1210.519077
1210.519054
1210.519041
1210.519055
1210.519051
1210.519091
1210.519193
1210.519504
1210.5195
1210.519496
1210.519487
1210.519486
1210.519499
1210.51949
1210.519478
1210.519482
1210.519499
1210.519519
1210.519528
1210.519588
1210.519778
1210.518182
1210.518189
1210.518176
1210.518163
1210.518171
1210.51817
1210.51818
1210.518211
1210.518221
1210.518197
1210.518212
1210.518263
1210.51839
1210.518677
1210.518375
1210.518358
1210.518354
1210.518376
1210.518373
1210.51839
1210.518394
1210.518413
1210.518396
1210.518408
1210.518419
1210.518474
1210.518641
1210.519037
1210.518564
1210.518569
1210.51855
1210.518557
1210.518576
1210.518571
1210.518556
1210.518546
1210.518543
1210.518546
1210.518579
1210.51863
1210.518757
1210.519066
1210.518822
1210.518813
1210.518795
1210.518776
1210.518784
1210.518786
1210.518786
1210.518782
1210.518767
1210.518775
1210.518791
1210.518819
1210.518888
1210.519067
1210.518543
1210.518546
1210.518526
1210.51853
1210.518528
1210.518542
1210.518516
1210.518496
1210.518479
1210.518476
1210.518477
1210.518487
1210.518543
1210.518624
1210.518857
1210.518854
1210.518858
1210.518861
1210.51886
1210.518844
1210.518841
1210.518847
1210.518837
1210.518849
1210.518839
1210.51885
1210.518877
1210.51894
)
;

boundaryField
{
    top
    {
        type            calculated;
        value           nonuniform List<scalar> 
134
(
1210.519482
1210.519475
1210.518637
1210.518917
1210.519317
1210.519452
1210.519239
1210.518873
1210.518857
1210.519486
1210.519487
1210.518637
1210.518911
1210.519316
1210.519454
1210.519248
1210.518871
1210.518854
1210.519471
1210.519467
1210.518624
1210.518903
1210.519318
1210.519447
1210.51925
1210.518862
1210.518858
1210.519476
1210.519461
1210.51862
1210.518905
1210.519303
1210.519445
1210.519231
1210.518862
1210.518861
1210.519474
1210.519462
1210.518613
1210.518912
1210.519303
1210.519444
1210.519222
1210.51885
1210.51886
1210.519479
1210.519485
1210.518624
1210.518924
1210.519308
1210.519447
1210.519196
1210.518853
1210.518844
1210.51948
1210.519484
1210.518616
1210.518932
1210.519293
1210.51944
1210.519217
1210.518862
1210.518841
1210.51949
1210.519483
1210.518619
1210.518951
1210.519291
1210.519424
1210.519197
1210.518862
1210.518847
1210.519498
1210.519471
1210.51864
1210.51897
1210.519275
1210.519437
1210.519189
1210.518871
1210.518837
1210.519508
1210.519476
1210.518623
1210.519004
1210.519297
1210.519447
1210.519189
1210.51887
1210.518849
1210.519493
1210.519468
1210.518628
1210.51901
1210.51932
1210.519469
1210.519211
1210.518878
1210.518839
1210.519513
1210.51949
1210.518666
1210.51906
1210.519367
1210.519521
1210.519246
1210.518896
1210.51885
1210.519512
1210.519518
1210.518765
1210.519186
1210.519546
1210.519635
1210.519325
1210.518928
1210.518877
1210.519576
1210.519608
1210.518936
1210.519491
1210.51995
1210.519904
1210.519504
1210.519006
1210.51894
1210.519664
1210.519801
1210.519254
1210.52009
1210.520716
1210.520472
1210.519843
1210.519184
)
;
    }
    bottom
    {
        type            calculated;
        value           nonuniform List<scalar> 
127
(
1210.518849
1210.518651
1210.51876
1210.518954
1210.519036
1210.519217
1210.519361
1210.518431
1210.519303
1210.518848
1210.518647
1210.51878
1210.518942
1210.519035
1210.519222
1210.519356
1210.518417
1210.519309
1210.518853
1210.518647
1210.5188
1210.518953
1210.519067
1210.519225
1210.519368
1210.518424
1210.519284
1210.518842
1210.518661
1210.5188
1210.518938
1210.519076
1210.519242
1210.519362
1210.51843
1210.519295
1210.518825
1210.518651
1210.518812
1210.51894
1210.51907
1210.519245
1210.519366
1210.518432
1210.519302
1210.518832
1210.518662
1210.518825
1210.518939
1210.519083
1210.519244
1210.519388
1210.518423
1210.519318
1210.518837
1210.518648
1210.518808
1210.518927
1210.519082
1210.519252
1210.519367
1210.518439
1210.519308
1210.518847
1210.51864
1210.5188
1210.518961
1210.519082
1210.519273
1210.519364
1210.518454
1210.519308
1210.518843
1210.518643
1210.518793
1210.518959
1210.519082
1210.519276
1210.519355
1210.518447
1210.519333
1210.518834
1210.518665
1210.518812
1210.518962
1210.519102
1210.519283
1210.519372
1210.518464
1210.519316
1210.518842
1210.518661
1210.518816
1210.518948
1210.519111
1210.519276
1210.5194
1210.518488
1210.519345
1210.518854
1210.518682
1210.518859
1210.518995
1210.519181
1210.519311
1210.519416
1210.518484
1210.519362
1210.518872
1210.518706
1210.518926
1210.519107
1210.519341
1210.519442
1210.519473
1210.518539
1210.519387
1210.518925
1210.518792
1210.519115
1210.519384
1210.519722
1210.519764
1210.519648
1210.51859
1210.519437
1210.51901
)
;
    }
    side-walls
    {
        type            calculated;
        value           nonuniform List<scalar> 
261
(
1210.518849
1210.518867
1210.51864
1210.518589
1210.519137
1210.519638
1210.518714
1210.51895
1210.519482
1210.518848
1210.518877
1210.518643
1210.518602
1210.519116
1210.519615
1210.51872
1210.518946
1210.519486
1210.518853
1210.518882
1210.518636
1210.518592
1210.519134
1210.51962
1210.518711
1210.518949
1210.519471
1210.518842
1210.518899
1210.518633
1210.518602
1210.519144
1210.519616
1210.518734
1210.518942
1210.519476
1210.518825
1210.518902
1210.518627
1210.518598
1210.51912
1210.519584
1210.518755
1210.518936
1210.519474
1210.518832
1210.518899
1210.518638
1210.518582
1210.519097
1210.519572
1210.518741
1210.518949
1210.519479
1210.518837
1210.518918
1210.51864
1210.518594
1210.519124
1210.519581
1210.518746
1210.518926
1210.51948
1210.518847
1210.518906
1210.518638
1210.518597
1210.519132
1210.519582
1210.518742
1210.518948
1210.51949
1210.518843
1210.51891
1210.518659
1210.518586
1210.519139
1210.519587
1210.51876
1210.518933
1210.519498
1210.518834
1210.518925
1210.518659
1210.518585
1210.519134
1210.519567
1210.518762
1210.518924
1210.519508
1210.518842
1210.518928
1210.518668
1210.518609
1210.519157
1210.519593
1210.518752
1210.518955
1210.519493
1210.518854
1210.518937
1210.518692
1210.518642
1210.519226
1210.519628
1210.518803
1210.51899
1210.519513
1210.518872
1210.518984
1210.518759
1210.518783
1210.519373
1210.519755
1210.518854
1210.519042
1210.519512
1210.518925
1210.519086
1210.518944
1210.519096
1210.519763
1210.520056
1210.519039
1210.519097
1210.519576
1210.51901
1210.519256
1210.519276
1210.519672
1210.520518
1210.520655
1210.519367
1210.519269
1210.519664
1210.519303
1210.519036
1210.519504
1210.518182
1210.518375
1210.518564
1210.518822
1210.518543
1210.518857
1210.519309
1210.519052
1210.5195
1210.518189
1210.518358
1210.518569
1210.518813
1210.518546
1210.518854
1210.519284
1210.519058
1210.519496
1210.518176
1210.518354
1210.51855
1210.518795
1210.518526
1210.518858
1210.519295
1210.51907
1210.519487
1210.518163
1210.518376
1210.518557
1210.518776
1210.51853
1210.518861
1210.519302
1210.519067
1210.519486
1210.518171
1210.518373
1210.518576
1210.518784
1210.518528
1210.51886
1210.519318
1210.519058
1210.519499
1210.51817
1210.51839
1210.518571
1210.518786
1210.518542
1210.518844
1210.519308
1210.519057
1210.51949
1210.51818
1210.518394
1210.518556
1210.518786
1210.518516
1210.518841
1210.519308
1210.519077
1210.519478
1210.518211
1210.518413
1210.518546
1210.518782
1210.518496
1210.518847
1210.519333
1210.519054
1210.519482
1210.518221
1210.518396
1210.518543
1210.518767
1210.518479
1210.518837
1210.519316
1210.519041
1210.519499
1210.518197
1210.518408
1210.518546
1210.518775
1210.518476
1210.518849
1210.519345
1210.519055
1210.519519
1210.518212
1210.518419
1210.518579
1210.518791
1210.518477
1210.518839
1210.519362
1210.519051
1210.519528
1210.518263
1210.518474
1210.51863
1210.518819
1210.518487
1210.51885
1210.519387
1210.519091
1210.519588
1210.51839
1210.518641
1210.518757
1210.518888
1210.518543
1210.518877
1210.519437
1210.519193
1210.519778
1210.518677
1210.519037
1210.519066
1210.519067
1210.518624
1210.51894
)
;
    }
    inlet
    {
        type            calculated;
        value           nonuniform List<scalar> 
81
(
1210.518849
1210.518867
1210.51864
1210.518589
1210.519137
1210.519638
1210.518714
1210.51895
1210.519482
1210.518651
1210.519154
1210.519272
1210.518672
1210.519243
1210.518414
1210.519694
1210.518516
1210.519475
1210.51876
1210.519176
1210.518337
1210.519103
1210.518
1210.518914
1210.518273
1210.519687
1210.518637
1210.518954
1210.519585
1210.518694
1210.51951
1210.519316
1210.518776
1210.519205
1210.518816
1210.518917
1210.519036
1210.518117
1210.51886
1210.519034
1210.519831
1210.519214
1210.519329
1210.519117
1210.519317
1210.519217
1210.518585
1210.518938
1210.518751
1210.519241
1210.519147
1210.518272
1210.519419
1210.519452
1210.519361
1210.519606
1210.519272
1210.519235
1210.518536
1210.519132
1210.519495
1210.51849
1210.519239
1210.518431
1210.518631
1210.51921
1210.51876
1210.518993
1210.518593
1210.518806
1210.519029
1210.518873
1210.519303
1210.519036
1210.519504
1210.518182
1210.518375
1210.518564
1210.518822
1210.518543
1210.518857
)
;
    }
    outlet
    {
        type            calculated;
        value           nonuniform 0();
    }
    procBoundary0to1
    {
        type            processor;
        value           nonuniform List<scalar> 
97
(
1210.519162
1210.518964
1210.519554
1210.519809
1210.520598
1210.52166
1210.521533
1210.519914
1210.519552
1210.51984
1210.518964
1210.518964
1210.520244
1210.520519
1210.521837
1210.523923
1210.526787
1210.523502
1210.522267
1210.519678
1210.520096
1210.519427
1210.520519
1210.520519
1210.525143
1210.528486
1210.535268
1210.546425
1210.53513
1210.525154
1210.522325
1210.51978
1210.520017
1210.522479
1210.528486
1210.528486
1210.567747
1210.618371
1210.629902
1210.56707
1210.535319
1210.523984
1210.521027
1210.520523
1210.522605
1210.538203
1210.618371
1210.618371
1209.860863
1210.618439
1210.62979
1210.552776
1210.547732
1210.526558
1210.521861
1210.520321
1210.521403
1210.528812
1210.552473
1210.618439
1210.552776
1210.552776
1210.534418
1210.523319
1210.524578
1210.521383
1210.519964
1210.520997
1210.523021
1210.529052
1210.537784
1210.528838
1210.523319
1210.523319
1210.521084
1210.519618
1210.52039
1210.518774
1210.519329
1210.520684
1210.521571
1210.523449
1210.521438
1210.520309
1210.519618
1210.519618
1210.51946
1210.51903
1210.519523
1210.519356
1210.520116
1210.519267
1210.519807
1210.519653
1210.51939
1210.518804
1210.51903
)
;
    }
}


// ************************************************************************* //
