/*--------------------------------*- C++ -*----------------------------------*\
| =========                 |                                                 |
| \\      /  F ield         | OpenFOAM: The Open Source CFD Toolbox           |
|  \\    /   O peration     | Version:  4.x                                   |
|   \\  /    A nd           | Web:      www.OpenFOAM.org                      |
|    \\/     M anipulation  |                                                 |
\*---------------------------------------------------------------------------*/
FoamFile
{
    version     2.0;
    format      ascii;
    class       volScalarField;
    location    "4000";
    object      molarConc;
}
// * * * * * * * * * * * * * * * * * * * * * * * * * * * * * * * * * * * * * //

dimensions      [0 -3 0 0 1 0 0];

internalField   nonuniform List<scalar> 
1175
(
9.963282467
9.963282493
9.963282243
9.963282862
9.963283772
9.963283423
9.963283126
9.963282559
9.963282811
9.963283369
9.963283118
9.963282963
9.963283219
9.963283041
9.963283711
9.963281468
9.96328091
9.963280645
9.963279712
9.963279585
9.963279733
9.963278705
9.963279338
9.963279159
9.963278448
9.96327856
9.963278934
9.96327844
9.963277544
9.963277547
9.963293928
9.963293734
9.963294111
9.963294276
9.963294645
9.963294031
9.963293907
9.963294051
9.963292926
9.96329312
9.963293114
9.963293295
9.963293589
9.96329267
9.963292688
9.96329671
9.963296012
9.96329655
9.963295996
9.963296219
9.963297086
9.963296461
9.963296269
9.963296949
9.963297261
9.963296735
9.963297343
9.963296301
9.963295155
9.963295509
9.963266677
9.963267849
9.963266862
9.963266283
9.96326761
9.963268884
9.963267409
9.963266993
9.963266713
9.963267265
9.96326696
9.963266156
9.963266583
9.96326638
9.963267583
9.963239271
9.963240501
9.96324026
9.963240457
9.963242222
9.963242851
9.963242369
9.963242353
9.963242165
9.963243475
9.963242848
9.963243369
9.963243053
9.963242558
9.96324168
9.963289872
9.963289503
9.96329002
9.963288781
9.963287612
9.963288372
9.963288099
9.963288333
9.963287416
9.963287478
9.963288554
9.963287236
9.963288412
9.963287462
9.963287703
9.963276944
9.963277128
9.963277003
9.963277384
9.963277728
9.963276998
9.96327825
9.963277051
9.963277895
9.963278514
9.963277117
9.963276003
9.963275251
9.963276963
9.963276812
9.963247797
9.963247567
9.963248377
9.963248131
9.963248242
9.963247939
9.963247885
9.963247385
9.963246962
9.96324644
9.963247473
9.963246903
9.963248156
9.96324736
9.963247906
9.963293307
9.96329353
9.963293542
9.963292749
9.963293287
9.963292714
9.963293466
9.963293941
9.963293797
9.963292713
9.96329322
9.963292897
9.963293639
9.963293652
9.963265734
9.963266824
9.963267563
9.963267593
9.963267797
9.963268105
9.963268609
9.963268322
9.963268379
9.963268399
9.963268142
9.963267137
9.963267791
9.963268541
9.963268713
9.963259298
9.963260011
9.963260289
9.963260133
9.96325944
9.963259729
9.963259207
9.963259758
9.963260347
9.963260988
9.963260375
9.963260889
9.963260586
9.963261639
9.963261442
9.963292148
9.963291104
9.96329089
9.963290644
9.963288984
9.963287934
9.963287314
9.963287087
9.963286223
9.963284997
9.963284809
9.963284107
9.96328387
9.963284547
9.963284559
9.963260876
9.963261506
9.963261002
9.963261652
9.963261936
9.963260662
9.963261128
9.963261084
9.963259482
9.963260168
9.963261683
9.963260841
9.963262026
9.96325978
9.963259468
9.963306286
9.963305613
9.96330562
9.963305214
9.963304194
9.963304343
9.963305891
9.963306135
9.96330663
9.963307319
9.963309134
9.963308474
9.9633076
9.963307973
9.963307638
9.963236192
9.96323551
9.963236241
9.963235692
9.96323582
9.963235304
9.963235872
9.963235499
9.963235926
9.963235065
9.963233771
9.963234567
9.963233762
9.963234057
9.963235395
9.963300686
9.963301239
9.96330118
9.963302154
9.963302748
9.963301526
9.963300799
9.963301652
9.963301236
9.96330057
9.963300044
9.96329967
9.963299807
9.963300556
9.963300697
9.963248162
9.963247533
9.963248629
9.96324894
9.963248912
9.963247631
9.963247705
9.96324777
9.963248419
9.963248242
9.963248996
9.963248607
9.963249169
9.963248953
9.963247692
9.963287366
9.963286251
9.963285144
9.963285143
9.96328451
9.963283773
9.963284731
9.963285194
9.963285597
9.963284714
9.96328504
9.963284172
9.963284461
9.963283321
9.963264549
9.963265756
9.96326678
9.963267819
9.963267621
9.963267647
9.963269229
9.963268018
9.963269123
9.96326843
9.963268991
9.963269739
9.963269466
9.963267495
9.963310482
9.963310779
9.963309646
9.963311404
9.96331088
9.963310838
9.963309408
9.963309688
9.963311329
9.963310222
9.963312404
9.963311978
9.963310101
9.963310433
9.963309089
9.963268527
9.96326857
9.963268074
9.963267242
9.963267043
9.963267874
9.963270182
9.963268679
9.963267504
9.963269126
9.963269695
9.963270468
9.963269616
9.963268505
9.963266822
9.963328966
9.963331074
9.963330629
9.963331685
9.963331161
9.963331736
9.963331778
9.963330883
9.963330702
9.963330738
9.963330436
9.963330928
9.963330622
9.963330539
9.96332889
9.963278915
9.963278777
9.963278053
9.963278452
9.963277177
9.963277902
9.963277235
9.963278712
9.963277044
9.963277523
9.963278801
9.963277337
9.96327816
9.963277791
9.963277122
9.963314005
9.963313662
9.963313446
9.96331507
9.963314596
9.963313984
9.963314134
9.963311813
9.963310866
9.963311485
9.963311474
9.963310835
9.963310534
9.963309675
9.963309943
9.963236569
9.963235778
9.963234842
9.963234885
9.96323472
9.963235078
9.963236577
9.963236194
9.963236393
9.963236181
9.963235704
9.963236419
9.963236513
9.963236227
9.963235132
9.963294049
9.963294086
9.963294807
9.963295002
9.963295394
9.963294765
9.963295243
9.963295066
9.963293985
9.963295097
9.963295313
9.963294763
9.963293284
9.963293125
9.963293913
9.963276711
9.963277345
9.963276772
9.96327759
9.963277499
9.963277536
9.963278221
9.963276333
9.963276549
9.963276596
9.963278196
9.963278031
9.963278566
9.963279421
9.963242148
9.963240478
9.963240857
9.963240374
9.963240017
9.963239086
9.963240199
9.963240398
9.963241188
9.963240856
9.963241247
9.963241604
9.963242282
9.963242739
9.963290929
9.963291945
9.963291488
9.963292075
9.963291399
9.963291775
9.963291846
9.963292478
9.963292011
9.963292177
9.963293212
9.963293214
9.963293048
9.963291664
9.963246282
9.963247298
9.963246061
9.963245803
9.963244575
9.963245255
9.963245028
9.963245957
9.963246665
9.963247857
9.963247651
9.963247263
9.963247759
9.963247779
9.963248001
9.963256882
9.963258089
9.963259018
9.963258609
9.963258449
9.963259403
9.963258586
9.963258316
9.963257662
9.963257231
9.96325633
9.963256251
9.963255533
9.963253649
9.963299961
9.963286437
9.963285972
9.963286704
9.963288047
9.963288495
9.963290079
9.963289387
9.963289154
9.963288143
9.96328756
9.963288838
9.963289411
9.963287919
9.963286699
9.963285714
9.963262955
9.963262926
9.963262766
9.963262674
9.963261872
9.963262307
9.963262921
9.963263404
9.963265356
9.963264692
9.963265546
9.963265505
9.963265886
9.963265823
9.96326465
9.963284247
9.963282842
9.963282665
9.963283191
9.963283953
9.963284411
9.963285066
9.963283204
9.963283481
9.963284146
9.96328239
9.963281919
9.963282599
9.963281513
9.963281128
9.963278764
9.963279056
9.96327953
9.963279393
9.963279015
9.963278351
9.963277924
9.963276926
9.963275934
9.963274324
9.963274765
9.963274482
9.963274209
9.963273541
9.963272624
9.96327223
9.963272255
9.963270537
9.963270042
9.963270369
9.963269641
9.963269737
9.963269726
9.963269807
9.963269037
9.963269484
9.963268649
9.963268374
9.963268607
9.963322529
9.963321896
9.963321683
9.963321913
9.963322093
9.96332172
9.963321484
9.963321216
9.96332211
9.963322297
9.96332222
9.963320997
9.963320517
9.963320027
9.963281863
9.963282601
9.963282695
9.96328089
9.963280703
9.963280864
9.963281308
9.963281357
9.96328035
9.963280221
9.96327834
9.963279394
9.963277058
9.963276462
9.963272324
9.963271747
9.963272613
9.963272464
9.963272109
9.963272989
9.963272423
9.963272397
9.963271709
9.963270805
9.963269538
9.963269727
9.963269279
9.96326775
9.963228658
9.963228076
9.963227605
9.963227168
9.963226604
9.963227067
9.963227251
9.963227867
9.963227259
9.963230098
9.963230465
9.963230812
9.963230016
9.96322549
10.02037892
9.963262443
9.963263091
9.963262832
9.963265154
9.963264149
9.963263546
9.963263101
9.963264319
9.963265025
9.963266494
9.963266852
9.96326651
9.96326434
9.963262759
9.963308186
9.963256144
9.963256515
9.963257048
9.963256502
9.963256322
9.963258143
9.963257552
9.963256053
9.963256313
9.963256761
9.96325666
9.963256644
9.963256638
9.963257252
9.963256704
9.963267797
9.963267338
9.963268122
9.963268938
9.963269147
9.963269238
9.963269258
9.96327016
9.96327112
9.963272104
9.963270625
9.96326988
9.963270302
9.963269856
9.96327172
9.963256849
9.963256883
9.963256771
9.963257598
9.963257591
9.963257338
9.963258162
9.963258261
9.963259254
9.963258315
9.963258027
9.963258431
9.963257113
9.963256094
9.963256742
9.963262315
9.96326205
9.963261859
9.96326092
9.963260764
9.963260817
9.963260421
9.963259265
9.963259167
9.963259062
9.963260226
9.963260738
9.963260186
9.963258586
9.963296934
9.963296423
9.963296792
9.963297269
9.963297494
9.963297377
9.963297261
9.963298104
9.96329833
9.963299586
9.963299009
9.963297226
9.963299364
9.963298824
9.963277585
9.963277212
9.963275582
9.963276021
9.963275116
9.963274779
9.963275262
9.963274996
9.963275367
9.963274348
9.963273771
9.963273406
9.963273602
9.96327426
9.963287825
9.96328738
9.963287192
9.963286435
9.963284798
9.963284009
9.963283857
9.963283215
9.963282506
9.963282797
9.963281254
9.963281057
9.963279713
9.96327837
9.963260996
9.963261531
9.963262099
9.963262107
9.963262518
9.963264172
9.963263925
9.963264728
9.963263355
9.963264019
9.963265014
9.963265439
9.963266028
9.963265157
9.963266141
9.963264803
9.96326508
9.963264647
9.963264869
9.963264465
9.963263581
9.963263855
9.963264059
9.963263713
9.96326389
9.963261974
9.963261254
9.963261849
9.963314037
9.963313873
9.963315067
9.963314838
9.963314962
9.963316278
9.963316594
9.963316169
9.96331659
9.963315814
9.963314938
9.963316214
9.963314926
9.963315229
9.963314483
9.963251237
9.963249983
9.963250013
9.963250422
9.963249214
9.96324885
9.963248049
9.963247728
9.963247207
9.963246754
9.963247842
9.963248136
9.96324703
9.963247503
9.963249094
9.963249434
9.963249302
9.963249731
9.963249839
9.963249895
9.963249715
9.963250102
9.96325098
9.963250364
9.96325003
9.963249658
9.963249197
9.963249627
9.963250909
9.963251706
9.96325444
9.963254682
9.96325405
9.963254342
9.963254161
9.963252921
9.963254086
9.963254269
9.963254815
9.963254083
9.963253042
9.963253673
9.963254475
9.96325413
9.963240977
9.963240417
9.963240596
9.963242557
9.963240487
9.963242088
9.963243301
9.96324322
9.963244185
9.963242368
9.963242486
9.963242463
9.963243409
9.963243911
9.963259319
9.963259236
9.963259122
9.963260094
9.963261314
9.963261723
9.963260885
9.963261376
9.963261892
9.963261816
9.963264241
9.963264082
9.9632637
9.96326362
9.963261343
9.963261142
9.963261625
9.963261044
9.963259815
9.963260021
9.963259477
9.963259353
9.963259686
9.963259463
9.963258694
9.963257784
9.963258629
9.963259969
9.96329959
9.963300511
9.963299429
9.963300088
9.963299916
9.963300897
9.963299856
9.963301465
9.963300529
9.963300457
9.963298757
9.963298481
9.963296919
9.96329737
9.963266974
9.963267032
9.963267193
9.963266884
9.963268308
9.963269145
9.963270466
9.963270624
9.963271761
9.963271475
9.963271515
9.963272166
9.963272022
9.963271736
9.963247075
9.963247277
9.963246565
9.963247292
9.963247191
9.963247792
9.963247469
9.963247268
9.963247028
9.963247878
9.96324738
9.963246463
9.963246855
9.963248028
9.963302146
9.963303672
9.963303564
9.963304517
9.963304626
9.963303444
9.963303741
9.963303147
9.963303048
9.963303922
9.963304108
9.963305095
9.963304791
9.963303966
9.963302973
9.963261128
9.963260593
9.963260488
9.963261565
9.963262048
9.963263448
9.963262334
9.963263409
9.963263926
9.963264077
9.96326339
9.963262965
9.963262629
9.963261993
9.963261629
9.963305337
9.963306105
9.96330574
9.96330542
9.963305284
9.963305797
9.963304922
9.963304093
9.963304547
9.963303689
9.963302664
9.963303713
9.963302811
9.963304691
9.963294393
9.963293197
9.963293341
9.963290886
9.963289782
9.963291408
9.963290967
9.963291771
9.963290537
9.963288731
9.963289842
9.963290814
9.963290566
9.963289849
9.963262692
9.963262671
9.963262516
9.96326163
9.963262688
9.963263557
9.96326283
9.963261845
9.963261357
9.963261933
9.963261897
9.963260473
9.963259269
9.963259683
9.963287328
9.963287108
9.963288082
9.963288992
9.963289015
9.963290466
9.963289377
9.963290702
9.963290039
9.963290642
9.963290074
9.963289242
9.963289876
9.963290226
9.963274558
9.963274395
9.963274884
9.963274543
9.963275688
9.963274816
9.963275707
9.963274727
9.963275547
9.963275254
9.963275068
9.963275388
9.963274247
9.96327421
9.963296467
9.963297116
9.963297803
9.963296909
9.963297362
9.963296812
9.963297201
9.963298749
9.963299279
9.9633004
9.96329956
9.96329902
9.963297999
9.963298
9.963284838
9.963285319
9.963285239
9.963283733
9.963283361
9.963282807
9.963283046
9.963281928
9.963281336
9.963280932
9.963281358
9.96328016
9.963279573
9.963278712
9.963272595
9.963272033
9.963272677
9.963272835
9.963273455
9.963272083
9.963271497
9.963271297
9.963270672
9.963270519
9.963272205
9.963273627
9.963274898
9.963273843
9.963281139
9.963281277
9.963281765
9.963281763
9.963282424
9.963282223
9.963281756
9.963281746
9.963281294
9.963281436
9.963281317
9.96328115
9.963281469
9.963281944
9.96328147
9.963257575
9.963257245
9.963258613
9.963258013
9.963257663
9.96325675
9.963257326
9.96325735
9.963256002
9.963256988
9.963255601
9.963255158
9.963254989
9.963254988
9.963272206
9.963271342
9.963271021
9.963270359
9.963270541
9.963271014
9.96327106
9.96326998
9.963271263
9.963272066
9.96327163
9.963272677
9.963272579
9.963271706
9.963246573
9.963246808
9.96324703
9.963247514
9.963247553
9.963246867
9.963247373
9.963248035
9.963247891
9.963247113
9.963246541
9.963247531
9.9632482
9.963247007
9.963318968
9.963318584
9.963319317
9.963320047
9.963319582
9.963319659
9.963319094
9.963317453
9.963316957
9.96331854
9.963318491
9.963318125
9.963317801
9.963318117
9.963308419
9.963309379
9.963309593
9.963308345
9.96330855
9.96330761
9.963307405
9.963306382
9.96330738
9.963307035
9.963307362
9.96330735
9.963306694
9.963306154
9.96329806
9.963297811
9.96329883
9.963298479
9.963297441
9.9632977
9.963298492
9.963299061
9.963299322
9.963299392
9.963298408
9.963298004
9.963297701
9.963296815
9.963283925
9.963284431
9.963285438
9.963286445
9.96328602
9.96328589
9.963285923
9.963286128
9.963287053
9.963286766
9.963286402
9.963286333
9.963286524
9.963285956
9.963299215
9.963299065
9.963300155
9.963299922
9.963300035
9.963299251
9.963300702
9.963301809
9.96330276
9.963303056
9.963303266
9.963303562
9.963302569
9.963302876
9.963282005
9.963282184
9.96328199
9.963281795
9.963281867
9.963282759
9.963282883
9.963282596
9.963283141
9.963282573
9.96328331
9.963283195
9.963282959
9.9632822
)
;

boundaryField
{
    top
    {
        type            calculated;
        value           nonuniform List<scalar> 
134
(
9.963247797
9.963248162
9.963294049
9.963278764
9.963256849
9.963249434
9.963261128
9.963281139
9.963282005
9.963247567
9.963247533
9.963294086
9.963279056
9.963256883
9.963249302
9.963260593
9.963281277
9.963282184
9.963248377
9.963248629
9.963294807
9.96327953
9.963256771
9.963249731
9.963260488
9.963281765
9.96328199
9.963248131
9.96324894
9.963295002
9.963279393
9.963257598
9.963249839
9.963261565
9.963281763
9.963281795
9.963248242
9.963248912
9.963295394
9.963279015
9.963257591
9.963249895
9.963262048
9.963282424
9.963281867
9.963247939
9.963247631
9.963294765
9.963278351
9.963257338
9.963249715
9.963263448
9.963282223
9.963282759
9.963247885
9.963247705
9.963295243
9.963277924
9.963258162
9.963250102
9.963262334
9.963281756
9.963282883
9.963247385
9.96324777
9.963295066
9.963276926
9.963258261
9.96325098
9.963263409
9.963281746
9.963282596
9.963246962
9.963248419
9.963293985
9.963275934
9.963259254
9.963250364
9.963263926
9.963281294
9.963283141
9.96324644
9.963248242
9.963295097
9.963274324
9.963258315
9.96325003
9.963264077
9.963281436
9.963282573
9.963247473
9.963248996
9.963295313
9.963274765
9.963258027
9.963249658
9.96326339
9.963281317
9.96328331
9.963246903
9.963248607
9.963294763
9.963274482
9.963258431
9.963249197
9.963262965
9.96328115
9.963283195
9.963248156
9.963249169
9.963293284
9.963274209
9.963257113
9.963249627
9.963262629
9.963281469
9.963282959
9.96324736
9.963248953
9.963293125
9.963273541
9.963256094
9.963250909
9.963261993
9.963281944
9.9632822
9.963247906
9.963247692
9.963293913
9.963272624
9.963256742
9.963251706
9.963261629
9.96328147
)
;
    }
    bottom
    {
        type            calculated;
        value           nonuniform List<scalar> 
127
(
9.963282467
9.963293307
9.963287366
9.963276711
9.96327223
9.963262315
9.96325444
9.963305337
9.963257575
9.963282493
9.96329353
9.963286251
9.963277345
9.963272255
9.96326205
9.963254682
9.963306105
9.963257245
9.963282243
9.963293542
9.963285144
9.963276772
9.963270537
9.963261859
9.96325405
9.96330574
9.963258613
9.963282862
9.963292749
9.963285143
9.96327759
9.963270042
9.96326092
9.963254342
9.96330542
9.963258013
9.963283772
9.963293287
9.96328451
9.963277499
9.963270369
9.963260764
9.963254161
9.963305284
9.963257663
9.963283423
9.963292714
9.963283773
9.963277536
9.963269641
9.963260817
9.963252921
9.963305797
9.96325675
9.963283126
9.963293466
9.963284731
9.963278221
9.963269737
9.963260421
9.963254086
9.963304922
9.963257326
9.963282559
9.963293941
9.963285194
9.963276333
9.963269726
9.963259265
9.963254269
9.963304093
9.96325735
9.963282811
9.963293797
9.963285597
9.963276549
9.963269807
9.963259167
9.963254815
9.963304547
9.963256002
9.963283369
9.963292713
9.963284714
9.963276596
9.963269037
9.963259062
9.963254083
9.963303689
9.963256988
9.963283118
9.96329322
9.96328504
9.963278196
9.963269484
9.963260226
9.963253042
9.963302664
9.963255601
9.963282963
9.963292897
9.963284172
9.963278031
9.963268649
9.963260738
9.963253673
9.963303713
9.963255158
9.963283219
9.963293639
9.963284461
9.963278566
9.963268374
9.963260186
9.963254475
9.963302811
9.963254989
9.963283041
9.963293652
9.963283321
9.963279421
9.963268607
9.963258586
9.96325413
9.963304691
9.963254988
9.963283711
)
;
    }
    side-walls
    {
        type            calculated;
        value           nonuniform List<scalar> 
261
(
9.963282467
9.963281468
9.963293928
9.96329671
9.963266677
9.963239271
9.963289872
9.963276944
9.963247797
9.963282493
9.96328091
9.963293734
9.963296012
9.963267849
9.963240501
9.963289503
9.963277128
9.963247567
9.963282243
9.963280645
9.963294111
9.96329655
9.963266862
9.96324026
9.96329002
9.963277003
9.963248377
9.963282862
9.963279712
9.963294276
9.963295996
9.963266283
9.963240457
9.963288781
9.963277384
9.963248131
9.963283772
9.963279585
9.963294645
9.963296219
9.96326761
9.963242222
9.963287612
9.963277728
9.963248242
9.963283423
9.963279733
9.963294031
9.963297086
9.963268884
9.963242851
9.963288372
9.963276998
9.963247939
9.963283126
9.963278705
9.963293907
9.963296461
9.963267409
9.963242369
9.963288099
9.96327825
9.963247885
9.963282559
9.963279338
9.963294051
9.963296269
9.963266993
9.963242353
9.963288333
9.963277051
9.963247385
9.963282811
9.963279159
9.963292926
9.963296949
9.963266713
9.963242165
9.963287416
9.963277895
9.963246962
9.963283369
9.963278448
9.96329312
9.963297261
9.963267265
9.963243475
9.963287478
9.963278514
9.96324644
9.963283118
9.96327856
9.963293114
9.963296735
9.96326696
9.963242848
9.963288554
9.963277117
9.963247473
9.963282963
9.963278934
9.963293295
9.963297343
9.963266156
9.963243369
9.963287236
9.963276003
9.963246903
9.963283219
9.96327844
9.963293589
9.963296301
9.963266583
9.963243053
9.963288412
9.963275251
9.963248156
9.963283041
9.963277544
9.96329267
9.963295155
9.96326638
9.963242558
9.963287462
9.963276963
9.96324736
9.963283711
9.963277547
9.963292688
9.963295509
9.963267583
9.96324168
9.963287703
9.963276812
9.963247906
9.963257575
9.963272206
9.963246573
9.963318968
9.963308419
9.96329806
9.963283925
9.963299215
9.963282005
9.963257245
9.963271342
9.963246808
9.963318584
9.963309379
9.963297811
9.963284431
9.963299065
9.963282184
9.963258613
9.963271021
9.96324703
9.963319317
9.963309593
9.96329883
9.963285438
9.963300155
9.96328199
9.963258013
9.963270359
9.963247514
9.963320047
9.963308345
9.963298479
9.963286445
9.963299922
9.963281795
9.963257663
9.963270541
9.963247553
9.963319582
9.96330855
9.963297441
9.96328602
9.963300035
9.963281867
9.96325675
9.963271014
9.963246867
9.963319659
9.96330761
9.9632977
9.96328589
9.963299251
9.963282759
9.963257326
9.96327106
9.963247373
9.963319094
9.963307405
9.963298492
9.963285923
9.963300702
9.963282883
9.96325735
9.96326998
9.963248035
9.963317453
9.963306382
9.963299061
9.963286128
9.963301809
9.963282596
9.963256002
9.963271263
9.963247891
9.963316957
9.96330738
9.963299322
9.963287053
9.96330276
9.963283141
9.963256988
9.963272066
9.963247113
9.96331854
9.963307035
9.963299392
9.963286766
9.963303056
9.963282573
9.963255601
9.96327163
9.963246541
9.963318491
9.963307362
9.963298408
9.963286402
9.963303266
9.96328331
9.963255158
9.963272677
9.963247531
9.963318125
9.96330735
9.963298004
9.963286333
9.963303562
9.963283195
9.963254989
9.963272579
9.9632482
9.963317801
9.963306694
9.963297701
9.963286524
9.963302569
9.963282959
9.963254988
9.963271706
9.963247007
9.963318117
9.963306154
9.963296815
9.963285956
9.963302876
9.9632822
)
;
    }
    inlet
    {
        type            calculated;
        value           nonuniform List<scalar> 
81
(
9.963282467
9.963281468
9.963293928
9.96329671
9.963266677
9.963239271
9.963289872
9.963276944
9.963247797
9.963293307
9.963265734
9.963259298
9.963292148
9.963260876
9.963306286
9.963236192
9.963300686
9.963248162
9.963287366
9.963264549
9.963310482
9.963268527
9.963328966
9.963278915
9.963314005
9.963236569
9.963294049
9.963276711
9.963242148
9.963290929
9.963246282
9.963256882
9.963286437
9.963262955
9.963284247
9.963278764
9.96327223
9.963322529
9.963281863
9.963272324
9.963228658
9.963262443
9.963256144
9.963267797
9.963256849
9.963262315
9.963296934
9.963277585
9.963287825
9.963260996
9.963266141
9.963314037
9.963251237
9.963249434
9.96325444
9.963240977
9.963259319
9.963261343
9.96329959
9.963266974
9.963247075
9.963302146
9.963261128
9.963305337
9.963294393
9.963262692
9.963287328
9.963274558
9.963296467
9.963284838
9.963272595
9.963281139
9.963257575
9.963272206
9.963246573
9.963318968
9.963308419
9.96329806
9.963283925
9.963299215
9.963282005
)
;
    }
    outlet
    {
        type            calculated;
        value           nonuniform 0();
    }
    procBoundary0to1
    {
        type            processor;
        value           nonuniform List<scalar> 
97
(
9.963284713
9.963293538
9.963276943
9.963293185
9.963294297
9.96326786
9.9632431
9.963287426
9.963277046
9.963247587
9.963293538
9.963293538
9.963270018
9.963268236
9.963260494
9.963284627
9.963258539
9.963307684
9.963236914
9.963300963
9.963247253
9.96328443
9.963268236
9.963268236
9.963309406
9.963290606
9.963267324
9.963328673
9.963274869
9.963308809
9.963233754
9.963294739
9.963276646
9.963241436
9.963290606
9.963290606
9.963247831
9.963314292
9.963301988
9.963284821
9.963264541
9.963281256
9.963270799
9.963267295
9.963318814
9.963274259
9.963314292
9.963314292
10.02038831
9.963310542
9.963308095
9.963259604
9.963257115
9.963271091
9.963256844
9.963259994
9.963300365
9.963272665
9.963276184
9.963310542
9.963259604
9.963259604
9.96331389
9.963248499
9.96324874
9.963251308
9.963255037
9.963242049
9.963264841
9.963259524
9.963297217
9.963271249
9.963248499
9.963248499
9.963301727
9.963274428
9.963261366
9.963303934
9.963290213
9.963259175
9.963291205
9.963272587
9.963298451
9.963279742
9.963274428
9.963274428
9.963282101
9.963282629
9.963255623
9.963272038
9.963246717
9.963317702
9.963306514
9.96329654
9.963286441
9.963302296
9.963282629
)
;
    }
}


// ************************************************************************* //
