/*--------------------------------*- C++ -*----------------------------------*\
| =========                 |                                                 |
| \\      /  F ield         | OpenFOAM: The Open Source CFD Toolbox           |
|  \\    /   O peration     | Version:  4.x                                   |
|   \\  /    A nd           | Web:      www.OpenFOAM.org                      |
|    \\/     M anipulation  |                                                 |
\*---------------------------------------------------------------------------*/
FoamFile
{
    version     2.0;
    format      ascii;
    class       volScalarField;
    location    "4000";
    object      N2;
}
// * * * * * * * * * * * * * * * * * * * * * * * * * * * * * * * * * * * * * //

dimensions      [0 0 0 0 0 0 0];

internalField   nonuniform List<scalar> 
1175
(
0.621529397
0.621529397
0.621529397
0.6215293968
0.6215293967
0.6215293967
0.6215293967
0.6215293963
0.6215293951
0.6215293908
0.6215293782
0.6215293454
0.6215292653
0.6215290879
0.6215287375
0.621529397
0.6215293971
0.6215293968
0.6215293969
0.621529397
0.621529397
0.6215293969
0.6215293959
0.621529394
0.6215293875
0.6215293679
0.6215293142
0.621529178
0.6215288701
0.6215282629
0.6215293969
0.6215293968
0.6215293971
0.6215293965
0.621529397
0.6215293969
0.6215293962
0.6215293956
0.6215293922
0.6215293816
0.6215293476
0.6215292497
0.6215289908
0.6215283891
0.6215271989
0.621529397
0.621529397
0.621529397
0.6215293968
0.6215293972
0.6215293967
0.6215293962
0.6215293952
0.6215293903
0.6215293743
0.6215293225
0.6215291644
0.62152873
0.6215276833
0.6215255985
0.6215293973
0.6215293969
0.6215293969
0.6215293971
0.6215293967
0.6215293966
0.6215293964
0.6215293952
0.6215293897
0.6215293709
0.621529308
0.6215291133
0.6215285583
0.6215271786
0.621524396
0.6215293973
0.6215293973
0.6215293967
0.621529397
0.6215293969
0.6215293968
0.6215293964
0.6215293956
0.6215293907
0.6215293744
0.6215293224
0.6215291645
0.6215287303
0.6215276832
0.6215255986
0.6215293974
0.6215293973
0.6215293971
0.6215293973
0.6215293974
0.6215293975
0.6215293971
0.6215293958
0.6215293926
0.6215293818
0.6215293478
0.6215292501
0.6215289913
0.6215283893
0.6215271992
0.6215293972
0.6215293973
0.6215293972
0.6215293975
0.6215293969
0.6215293968
0.6215293965
0.6215293965
0.6215293945
0.6215293878
0.6215293683
0.621529315
0.6215291787
0.6215288706
0.6215282636
0.6215293973
0.6215293973
0.6215293973
0.6215293973
0.6215293971
0.6215293971
0.621529397
0.6215293965
0.6215293954
0.6215293914
0.6215293787
0.6215293462
0.6215292657
0.6215290884
0.6215287387
0.621529397
0.6215293969
0.6215293967
0.6215293972
0.6215293969
0.6215293968
0.6215293966
0.6215293958
0.6215293939
0.6215293873
0.6215293679
0.6215293141
0.6215291783
0.62152887
0.6215293975
0.621529397
0.6215293968
0.6215293964
0.6215293965
0.621529397
0.6215293968
0.6215293959
0.6215293928
0.6215293822
0.6215293485
0.6215292506
0.6215289899
0.6215283788
0.6215271698
0.621529397
0.6215293971
0.6215293971
0.6215293969
0.6215293972
0.6215293967
0.6215293964
0.6215293948
0.6215293895
0.6215293704
0.6215293061
0.6215291055
0.6215285372
0.6215271408
0.6215243495
0.6215293969
0.6215293968
0.6215293973
0.6215293965
0.6215293971
0.6215293969
0.6215293962
0.6215293941
0.6215293858
0.6215293553
0.6215292473
0.6215288868
0.6215277947
0.6215249384
0.6215190848
0.6215293972
0.6215293971
0.6215293968
0.6215293971
0.6215293969
0.6215293966
0.621529396
0.6215293933
0.6215293844
0.6215293467
0.6215292094
0.6215287289
0.621527182
0.6215228572
0.6215135823
0.6215293968
0.6215293972
0.6215293972
0.6215293973
0.6215293972
0.6215293974
0.6215293965
0.6215293943
0.6215293862
0.6215293553
0.6215292474
0.6215288871
0.6215277946
0.6215249384
0.6215190861
0.6215293967
0.6215293966
0.6215293967
0.621529397
0.6215293971
0.621529397
0.6215293963
0.6215293951
0.6215293896
0.6215293705
0.6215293064
0.6215291055
0.6215285378
0.6215271419
0.6215243501
0.6215293975
0.6215293973
0.6215293974
0.6215293962
0.6215293968
0.6215293967
0.6215293964
0.6215293953
0.6215293923
0.6215293821
0.6215293486
0.6215292507
0.6215289899
0.621528379
0.6215271709
0.6215293971
0.6215293973
0.6215293971
0.621529397
0.6215293969
0.6215293968
0.6215293972
0.6215293963
0.6215293941
0.621529388
0.6215293683
0.6215293146
0.6215291785
0.6215288704
0.6215282635
0.621529397
0.6215293971
0.6215293967
0.6215293971
0.6215293968
0.6215293971
0.6215293965
0.6215293955
0.6215293923
0.6215293811
0.6215293478
0.6215292498
0.6215289912
0.6215283889
0.6215293977
0.6215293978
0.6215293972
0.6215293967
0.6215293971
0.6215293972
0.6215293967
0.6215293951
0.6215293893
0.62152937
0.6215293059
0.621529105
0.621528537
0.6215271402
0.6215293969
0.6215293971
0.6215293969
0.6215293967
0.6215293971
0.6215293974
0.6215293967
0.621529394
0.6215293839
0.6215293459
0.6215292078
0.6215287413
0.6215273
0.621523479
0.6215156155
0.6215293971
0.6215293971
0.6215293965
0.6215293968
0.6215293972
0.6215293969
0.6215293963
0.621529392
0.6215293762
0.621529311
0.6215290551
0.6215281048
0.62152486
0.6215153248
0.6214943841
0.6215293971
0.6215293972
0.6215293974
0.621529397
0.6215293968
0.6215293966
0.6215293954
0.6215293908
0.6215293714
0.6215292878
0.6215289396
0.6215275412
0.6215222586
0.6215046314
0.6214606987
0.6215293969
0.621529397
0.6215293969
0.6215293971
0.6215293972
0.621529397
0.6215293964
0.6215293918
0.621529376
0.6215293104
0.6215290548
0.6215281051
0.62152486
0.6215153261
0.6214943884
0.6215293973
0.6215293974
0.6215293977
0.6215293973
0.621529397
0.621529397
0.6215293961
0.621529394
0.6215293839
0.6215293459
0.6215292084
0.6215287413
0.6215273002
0.6215234804
0.6215156199
0.621529397
0.6215293971
0.6215293971
0.6215293972
0.6215293969
0.621529397
0.6215293969
0.6215293952
0.6215293899
0.6215293704
0.6215293064
0.6215291055
0.6215285373
0.621527141
0.6215243507
0.6215293972
0.6215293972
0.6215293972
0.6215293971
0.6215293968
0.6215293972
0.6215293969
0.6215293959
0.6215293928
0.6215293816
0.6215293482
0.62152925
0.6215289915
0.6215283894
0.6215271993
0.6215293969
0.621529397
0.621529397
0.6215293973
0.6215293972
0.6215293971
0.6215293968
0.6215293955
0.6215293908
0.6215293745
0.6215293224
0.6215291646
0.6215287292
0.6215276819
0.6215293969
0.621529397
0.6215293967
0.6215293975
0.6215293973
0.621529397
0.6215293965
0.6215293941
0.6215293859
0.6215293554
0.6215292472
0.6215288867
0.6215277939
0.6215249362
0.6215293974
0.6215293973
0.6215293972
0.6215293972
0.6215293971
0.6215293968
0.6215293958
0.6215293919
0.6215293758
0.6215293105
0.6215290551
0.6215281047
0.6215248596
0.6215153201
0.6215293975
0.6215293967
0.621529397
0.6215293973
0.6215293975
0.6215293965
0.6215293951
0.6215293892
0.6215293615
0.6215292407
0.621528715
0.6215265008
0.6215177484
0.6214873344
0.6214094935
0.6215293975
0.621529397
0.6215293972
0.6215293972
0.6215293969
0.6215293961
0.6215293948
0.6215293873
0.6215293524
0.621529188
0.6215284083
0.6215247119
0.621507494
0.6214323801
0.6211713791
0.6215293975
0.6215293977
0.6215293975
0.621529397
0.6215293973
0.6215293969
0.621529395
0.6215293891
0.6215293618
0.621529241
0.6215287145
0.6215265003
0.6215177491
0.6214873413
0.6214095241
0.6215293971
0.6215293973
0.6215293971
0.6215293971
0.6215293971
0.6215293969
0.6215293958
0.6215293916
0.621529376
0.6215293108
0.6215290554
0.6215281047
0.62152486
0.6215153254
0.6214943886
0.6215293969
0.6215293973
0.6215293974
0.6215293971
0.6215293971
0.6215293967
0.621529396
0.6215293944
0.6215293863
0.6215293554
0.6215292472
0.6215288872
0.6215277943
0.6215249383
0.6215190864
0.6215293971
0.6215293972
0.6215293969
0.6215293971
0.621529397
0.6215293968
0.6215293961
0.6215293953
0.6215293907
0.6215293748
0.6215293229
0.6215291652
0.6215287303
0.6215276835
0.6215255989
0.6215293968
0.6215293969
0.621529397
0.6215293969
0.6215293973
0.6215293971
0.6215293965
0.6215293951
0.6215293895
0.6215293705
0.6215293078
0.6215291132
0.6215285577
0.6215271774
0.6215293967
0.6215293971
0.6215293973
0.6215293974
0.621529397
0.6215293973
0.6215293962
0.6215293939
0.621529384
0.6215293465
0.621529209
0.6215287288
0.6215271814
0.6215228536
0.6215293973
0.6215293968
0.6215293974
0.6215293978
0.6215293975
0.6215293974
0.6215293957
0.6215293914
0.6215293713
0.6215292877
0.6215289397
0.6215275413
0.6215222563
0.6215046195
0.6215293976
0.6215293973
0.6215293973
0.6215293968
0.6215293972
0.6215293967
0.6215293952
0.6215293876
0.6215293527
0.6215291877
0.6215284081
0.6215247113
0.6215074888
0.6214323433
0.6215293972
0.6215293973
0.6215293972
0.6215293976
0.6215293974
0.6215293969
0.6215293948
0.621529385
0.621529339
0.6215291025
0.6215278395
0.6215206929
0.6214774722
0.6211962606
0.619217017
0.6215293977
0.6215293974
0.6215293972
0.6215293973
0.6215293976
0.6215293969
0.6215293957
0.6215293876
0.6215293525
0.6215291876
0.6215284077
0.6215247109
0.621507492
0.6214323727
0.6211713726
0.621529398
0.6215293976
0.621529397
0.6215293972
0.6215293971
0.6215293969
0.6215293959
0.6215293913
0.6215293713
0.6215292876
0.6215289396
0.6215275415
0.6215222582
0.6215046291
0.6214606969
0.6215293974
0.6215293974
0.6215293969
0.6215293972
0.6215293969
0.6215293971
0.6215293966
0.6215293939
0.6215293839
0.6215293466
0.6215292096
0.6215287289
0.6215271818
0.6215228565
0.6215135816
0.6215293974
0.6215293972
0.6215293971
0.6215293971
0.6215293973
0.6215293971
0.6215293963
0.6215293947
0.6215293895
0.6215293709
0.6215293083
0.6215291136
0.6215285587
0.6215271784
0.6215243959
0.6215293968
0.6215293971
0.6215293968
0.621529397
0.6215293971
0.6215293972
0.6215293968
0.6215293956
0.6215293906
0.6215293747
0.6215293227
0.6215291645
0.62152873
0.6215276824
0.6215293967
0.6215293969
0.6215293971
0.6215293972
0.6215293971
0.621529397
0.6215293964
0.6215293942
0.6215293859
0.6215293551
0.6215292473
0.621528887
0.6215277944
0.6215249367
0.621529397
0.6215293967
0.621529397
0.6215293971
0.6215293971
0.621529397
0.6215293962
0.6215293923
0.6215293761
0.6215293107
0.6215290554
0.6215281051
0.6215248588
0.6215153195
0.6215293967
0.6215293971
0.6215293973
0.6215293974
0.6215293969
0.6215293968
0.6215293952
0.6215293887
0.6215293613
0.6215292406
0.6215287153
0.6215265005
0.6215177452
0.621487322
0.6215293975
0.6215293975
0.6215293974
0.6215293975
0.6215293971
0.6215293969
0.6215293954
0.6215293872
0.6215293526
0.6215291877
0.6215284078
0.621524711
0.6215074868
0.6214323375
0.6215293975
0.6215293976
0.6215293974
0.6215293973
0.6215293974
0.6215293966
0.6215293952
0.6215293887
0.6215293617
0.6215292405
0.6215287147
0.6215265002
0.6215177464
0.6214873256
0.6215293976
0.6215293975
0.6215293975
0.6215293975
0.6215293973
0.6215293967
0.6215293961
0.6215293921
0.6215293758
0.6215293105
0.6215290553
0.6215281048
0.6215248597
0.6215153225
0.6214943776
0.6215293971
0.6215293972
0.6215293973
0.6215293971
0.6215293971
0.6215293969
0.6215293966
0.6215293942
0.6215293864
0.6215293559
0.6215292475
0.621528887
0.6215277946
0.6215249376
0.6215190849
0.6215293973
0.6215293973
0.6215293974
0.6215293973
0.6215293973
0.6215293975
0.621529397
0.6215293955
0.6215293906
0.6215293748
0.6215293232
0.6215291652
0.6215287306
0.6215276832
0.6215255982
0.6215293969
0.6215293969
0.6215293973
0.6215293973
0.6215293971
0.6215293969
0.621529397
0.6215293957
0.6215293921
0.6215293814
0.6215293479
0.6215292496
0.6215289913
0.6215283889
0.621529397
0.6215293971
0.6215293973
0.6215293972
0.6215293973
0.6215293974
0.6215293968
0.6215293952
0.6215293897
0.6215293707
0.6215293066
0.6215291056
0.6215285373
0.6215271401
0.6215293969
0.6215293966
0.6215293971
0.6215293969
0.6215293966
0.6215293966
0.6215293962
0.6215293937
0.6215293839
0.6215293464
0.6215292085
0.6215287409
0.6215272997
0.6215234777
0.6215293969
0.621529397
0.6215293973
0.6215293971
0.621529397
0.6215293966
0.6215293957
0.6215293916
0.6215293755
0.6215293105
0.6215290552
0.6215281045
0.6215248586
0.6215153187
0.6215293973
0.6215293972
0.6215293972
0.6215293974
0.6215293968
0.6215293965
0.6215293957
0.6215293908
0.6215293713
0.6215292876
0.6215289398
0.621527541
0.6215222557
0.6215046187
0.6215293971
0.6215293974
0.6215293973
0.6215293968
0.6215293969
0.6215293966
0.6215293956
0.6215293919
0.6215293755
0.6215293107
0.6215290553
0.6215281046
0.6215248588
0.6215153194
0.6215293973
0.6215293976
0.6215293978
0.6215293972
0.6215293971
0.6215293968
0.6215293962
0.6215293938
0.621529384
0.6215293457
0.6215292086
0.6215287413
0.6215272993
0.6215234777
0.6215293971
0.621529397
0.6215293972
0.6215293973
0.6215293971
0.6215293971
0.6215293969
0.6215293953
0.6215293899
0.6215293706
0.6215293062
0.6215291053
0.6215285372
0.6215271405
0.6215243484
0.6215293973
0.6215293976
0.6215293975
0.6215293974
0.6215293975
0.6215293971
0.6215293974
0.621529396
0.6215293928
0.6215293817
0.6215293482
0.6215292498
0.6215289913
0.6215283888
0.6215271984
0.6215293974
0.6215293971
0.6215293974
0.6215293974
0.6215293974
0.6215293967
0.6215293967
0.6215293963
0.6215293942
0.6215293878
0.6215293688
0.621529315
0.6215291788
0.6215288703
0.6215293972
0.6215293974
0.6215293972
0.6215293976
0.6215293976
0.6215293969
0.6215293969
0.6215293962
0.6215293929
0.6215293823
0.621529349
0.6215292502
0.6215289896
0.6215283786
0.6215293971
0.6215293974
0.6215293976
0.6215293974
0.6215293974
0.621529397
0.6215293965
0.6215293953
0.6215293902
0.6215293703
0.6215293063
0.6215291058
0.6215285376
0.6215271405
0.6215293975
0.6215293979
0.6215293973
0.6215293971
0.6215293971
0.6215293971
0.6215293963
0.6215293943
0.6215293859
0.6215293551
0.6215292471
0.621528887
0.6215277939
0.6215249359
0.6215293974
0.6215293974
0.6215293976
0.6215293971
0.621529397
0.6215293971
0.621529396
0.6215293938
0.6215293835
0.6215293467
0.6215292091
0.621528729
0.6215271812
0.6215228538
0.6215293973
0.6215293974
0.6215293971
0.621529397
0.621529397
0.6215293968
0.6215293964
0.6215293944
0.621529386
0.6215293554
0.6215292472
0.6215288867
0.6215277945
0.6215249367
0.6215293973
0.6215293975
0.6215293975
0.621529398
0.6215293978
0.6215293975
0.6215293968
0.621529395
0.6215293897
0.6215293703
0.6215293061
0.6215291052
0.6215285371
0.6215271401
0.6215293977
0.6215293979
0.621529398
0.6215293978
0.6215293973
0.6215293977
0.6215293975
0.6215293961
0.621529393
0.6215293824
0.6215293484
0.6215292503
0.6215289892
0.6215283781
0.6215293975
0.6215293974
0.621529397
0.6215293972
0.6215293972
0.6215293972
0.621529397
0.6215293961
0.621529394
0.6215293875
0.6215293683
0.6215293144
0.621529178
0.6215288702
0.6215282628
0.6215293973
0.6215293971
0.6215293973
0.6215293972
0.6215293969
0.6215293972
0.6215293968
0.6215293965
0.6215293954
0.6215293911
0.6215293791
0.6215293461
0.6215292658
0.621529088
0.621529397
0.621529397
0.6215293973
0.6215293977
0.6215293973
0.6215293973
0.6215293973
0.6215293966
0.6215293942
0.6215293878
0.6215293683
0.6215293145
0.6215291788
0.6215288704
0.6215293971
0.6215293974
0.6215293974
0.6215293971
0.6215293971
0.6215293971
0.6215293971
0.6215293958
0.6215293926
0.6215293818
0.6215293482
0.6215292501
0.6215289916
0.6215283889
0.6215293971
0.6215293973
0.6215293971
0.621529397
0.6215293972
0.6215293967
0.6215293972
0.6215293957
0.6215293908
0.6215293745
0.6215293226
0.6215291647
0.6215287296
0.6215276822
0.6215293972
0.6215293969
0.6215293967
0.6215293967
0.6215293968
0.6215293968
0.6215293966
0.6215293951
0.6215293897
0.6215293709
0.6215293081
0.621529113
0.621528558
0.6215271774
0.6215293972
0.621529397
0.6215293967
0.6215293969
0.6215293967
0.6215293971
0.6215293966
0.6215293951
0.6215293901
0.6215293741
0.6215293226
0.6215291644
0.6215287296
0.6215276823
0.6215293977
0.6215293973
0.6215293971
0.6215293971
0.621529397
0.6215293972
0.6215293971
0.6215293963
0.6215293924
0.6215293816
0.6215293482
0.6215292501
0.6215289915
0.621528389
0.6215293977
0.6215293979
0.6215293974
0.6215293975
0.6215293974
0.6215293983
0.6215293975
0.6215293967
0.6215293947
0.6215293877
0.6215293683
0.6215293143
0.621529178
0.6215288696
0.6215293973
0.6215293974
0.6215293975
0.6215293974
0.6215293973
0.6215293973
0.621529397
0.6215293965
0.6215293949
0.6215293905
0.6215293782
0.6215293458
0.6215292653
0.6215290878
)
;

boundaryField
{
    top
    {
        type            zeroGradient;
    }
    bottom
    {
        type            zeroGradient;
    }
    side-walls
    {
        type            zeroGradient;
    }
    inlet
    {
        type            zeroGradient;
    }
    outlet
    {
        type            zeroGradient;
    }
    procBoundary0to1
    {
        type            processor;
        value           nonuniform List<scalar> 
97
(
0.6215281279
0.6215282624
0.6215272347
0.6215252598
0.6215223625
0.6215202898
0.6215223621
0.6215252602
0.6215272351
0.6215281284
0.6215282624
0.6215282624
0.6215252181
0.6215243488
0.621520137
0.6215110947
0.6215025494
0.6215110958
0.6215201381
0.6215252182
0.6215272354
0.6215271984
0.6215243488
0.6215243488
0.6215051063
0.6214943756
0.6214716247
0.621427702
0.6214716283
0.6215051087
0.6215201385
0.62152526
0.6215255977
0.6215190838
0.6214943756
0.6214943756
0.6213566838
0.6211712509
0.6211307892
0.6213566956
0.621471628
0.6215110959
0.6215223626
0.6215243947
0.6215135788
0.6214606804
0.6211712509
0.6211712509
0.620156472
0.6211712537
0.6211307886
0.6214094913
0.6214277012
0.6215025486
0.6215202897
0.6215255979
0.6215190847
0.6214943813
0.6214094954
0.6211712537
0.6214094913
0.6214094913
0.6214716251
0.6215156148
0.6215110944
0.6215223621
0.6215271992
0.6215243498
0.6215156171
0.6214943808
0.6214606799
0.621494381
0.6215156148
0.6215156148
0.621520137
0.6215271696
0.6215252595
0.6215282631
0.6215271707
0.6215243496
0.6215190842
0.6215135786
0.6215190846
0.6215243489
0.6215271696
0.6215271696
0.6215272348
0.6215287379
0.6215287383
0.6215282637
0.6215271993
0.6215255978
0.6215243947
0.6215255984
0.6215271988
0.621528263
0.6215287379
)
;
    }
}


// ************************************************************************* //
