/*--------------------------------*- C++ -*----------------------------------*\
| =========                 |                                                 |
| \\      /  F ield         | OpenFOAM: The Open Source CFD Toolbox           |
|  \\    /   O peration     | Version:  4.x                                   |
|   \\  /    A nd           | Web:      www.OpenFOAM.org                      |
|    \\/     M anipulation  |                                                 |
\*---------------------------------------------------------------------------*/
FoamFile
{
    version     2.0;
    format      ascii;
    class       volScalarField;
    location    "4000";
    object      T;
}
// * * * * * * * * * * * * * * * * * * * * * * * * * * * * * * * * * * * * * //

dimensions      [0 0 0 1 0 0 0];

internalField   nonuniform List<scalar> 
1175
(
1223.149677
1223.149673
1223.149652
1223.149575
1223.149536
1223.14954
1223.149568
1223.149612
1223.149653
1223.149612
1223.149551
1223.149561
1223.149553
1223.149567
1223.149428
1223.149803
1223.149904
1223.149867
1223.149975
1223.150034
1223.150023
1223.150117
1223.149981
1223.15006
1223.150112
1223.150071
1223.150092
1223.150135
1223.15018
1223.150267
1223.148243
1223.148203
1223.148266
1223.14807
1223.148204
1223.148218
1223.148127
1223.14827
1223.14829
1223.148339
1223.14833
1223.148332
1223.148245
1223.148368
1223.148405
1223.147875
1223.147889
1223.147931
1223.147906
1223.147981
1223.147857
1223.147844
1223.14792
1223.147831
1223.147835
1223.147915
1223.147769
1223.147888
1223.148094
1223.148109
1223.151596
1223.15144
1223.151462
1223.151529
1223.151459
1223.1514
1223.15148
1223.15158
1223.151528
1223.151546
1223.151446
1223.151559
1223.151599
1223.151596
1223.151571
1223.154886
1223.154898
1223.154718
1223.15476
1223.15465
1223.154543
1223.154539
1223.154648
1223.154584
1223.154475
1223.154493
1223.154427
1223.154558
1223.154557
1223.154653
1223.148834
1223.148814
1223.148746
1223.148866
1223.148969
1223.149035
1223.149024
1223.148899
1223.148989
1223.149053
1223.148939
1223.149029
1223.148954
1223.149009
1223.149034
1223.1503
1223.150332
1223.150327
1223.150419
1223.150221
1223.150196
1223.150109
1223.150316
1223.150281
1223.150219
1223.150267
1223.150462
1223.150481
1223.150383
1223.150376
1223.153929
1223.15393
1223.153912
1223.15392
1223.153858
1223.15386
1223.153891
1223.153942
1223.154009
1223.154107
1223.153959
1223.154036
1223.153897
1223.153932
1223.153986
1223.148318
1223.148283
1223.148244
1223.148383
1223.1483
1223.148305
1223.148321
1223.14825
1223.148336
1223.148335
1223.148303
1223.148227
1223.148291
1223.148252
1223.151805
1223.151544
1223.151454
1223.151309
1223.151316
1223.151464
1223.151413
1223.151433
1223.151439
1223.151446
1223.15142
1223.151484
1223.151472
1223.151395
1223.151286
1223.152442
1223.152482
1223.152408
1223.152395
1223.152556
1223.152403
1223.152462
1223.152408
1223.152387
1223.152354
1223.152342
1223.152308
1223.152244
1223.152163
1223.15225
1223.148529
1223.148585
1223.148787
1223.148573
1223.148838
1223.148937
1223.14895
1223.149097
1223.149157
1223.149253
1223.149444
1223.149476
1223.149529
1223.149434
1223.149228
1223.152394
1223.152313
1223.152178
1223.152291
1223.152237
1223.152223
1223.152255
1223.152167
1223.152465
1223.152352
1223.152341
1223.152313
1223.152268
1223.152387
1223.152533
1223.146655
1223.146804
1223.14682
1223.146922
1223.146916
1223.146998
1223.146777
1223.146747
1223.146713
1223.146554
1223.146547
1223.146521
1223.146455
1223.146397
1223.146415
1223.155279
1223.155304
1223.155283
1223.155371
1223.155379
1223.155431
1223.155288
1223.155424
1223.155388
1223.155493
1223.155593
1223.155529
1223.155662
1223.155688
1223.155407
1223.147406
1223.147346
1223.147407
1223.147017
1223.147207
1223.147305
1223.147353
1223.147227
1223.147317
1223.147492
1223.14748
1223.147529
1223.147446
1223.1474
1223.147467
1223.153785
1223.153892
1223.153793
1223.153806
1223.153812
1223.15378
1223.153986
1223.153904
1223.153832
1223.153939
1223.153826
1223.153817
1223.153786
1223.153775
1223.153889
1223.1491
1223.149195
1223.149154
1223.149314
1223.149296
1223.149452
1223.149341
1223.149315
1223.149337
1223.149267
1223.149431
1223.149508
1223.149518
1223.149578
1223.151883
1223.15192
1223.151696
1223.151456
1223.151508
1223.15153
1223.151417
1223.151411
1223.151292
1223.151231
1223.151285
1223.151164
1223.151272
1223.151365
1223.146133
1223.146174
1223.146173
1223.146052
1223.146142
1223.146343
1223.146432
1223.146372
1223.146228
1223.146217
1223.145927
1223.14615
1223.146241
1223.146256
1223.146372
1223.151395
1223.15136
1223.151226
1223.151378
1223.151486
1223.151392
1223.151413
1223.15131
1223.151407
1223.151355
1223.151119
1223.151078
1223.151171
1223.151405
1223.15141
1223.143792
1223.143763
1223.143833
1223.143617
1223.143563
1223.143594
1223.143593
1223.143631
1223.143735
1223.14381
1223.14375
1223.143662
1223.143742
1223.143832
1223.143942
1223.15011
1223.150142
1223.150135
1223.150205
1223.150274
1223.150212
1223.150353
1223.150057
1223.150221
1223.150081
1223.15002
1223.150291
1223.150161
1223.150358
1223.150375
1223.145752
1223.145736
1223.14591
1223.145725
1223.145686
1223.145776
1223.145752
1223.146079
1223.146139
1223.146163
1223.146133
1223.146121
1223.146215
1223.146353
1223.146363
1223.155338
1223.155372
1223.155431
1223.155511
1223.155473
1223.155491
1223.155455
1223.155334
1223.1553
1223.155284
1223.155393
1223.155307
1223.155201
1223.155178
1223.155505
1223.148144
1223.148139
1223.148183
1223.148134
1223.148054
1223.148159
1223.148138
1223.148169
1223.148254
1223.148104
1223.148167
1223.148111
1223.148277
1223.148276
1223.148223
1223.150379
1223.150354
1223.150309
1223.150344
1223.150302
1223.150256
1223.150281
1223.150374
1223.15036
1223.150297
1223.150215
1223.15022
1223.150009
1223.150063
1223.15471
1223.154796
1223.154703
1223.154943
1223.154887
1223.154816
1223.154856
1223.154724
1223.154727
1223.154718
1223.154769
1223.154709
1223.154568
1223.154501
1223.148687
1223.148625
1223.148532
1223.148517
1223.148504
1223.148448
1223.148382
1223.14838
1223.148376
1223.14834
1223.1483
1223.148285
1223.1485
1223.148431
1223.154116
1223.153857
1223.154014
1223.154157
1223.15429
1223.154175
1223.154176
1223.154135
1223.154002
1223.153984
1223.154005
1223.153942
1223.153932
1223.153849
1223.153846
1223.15277
1223.152561
1223.152549
1223.152556
1223.152533
1223.15238
1223.152522
1223.152575
1223.152658
1223.152801
1223.153014
1223.152999
1223.153109
1223.15335
1223.147686
1223.149185
1223.14929
1223.149171
1223.148934
1223.148905
1223.148813
1223.148669
1223.148825
1223.14896
1223.149045
1223.148884
1223.148732
1223.148861
1223.149102
1223.149196
1223.151966
1223.152063
1223.151982
1223.152065
1223.152103
1223.15212
1223.152055
1223.151833
1223.151863
1223.151877
1223.151857
1223.151696
1223.151649
1223.151665
1223.151839
1223.149438
1223.149645
1223.149713
1223.149552
1223.149537
1223.149409
1223.14932
1223.149551
1223.149649
1223.149483
1223.14953
1223.149709
1223.149575
1223.149624
1223.149775
1223.15008
1223.150083
1223.149993
1223.150062
1223.150066
1223.150138
1223.150108
1223.150327
1223.150441
1223.150553
1223.150622
1223.150716
1223.150635
1223.150754
1223.150902
1223.150921
1223.150919
1223.151027
1223.151052
1223.151216
1223.151207
1223.151156
1223.151235
1223.151242
1223.151241
1223.151215
1223.151373
1223.151376
1223.151503
1223.144682
1223.144844
1223.144889
1223.144845
1223.144729
1223.14488
1223.144795
1223.144843
1223.144728
1223.144713
1223.144741
1223.144934
1223.145082
1223.144976
1223.1498
1223.149534
1223.149635
1223.149898
1223.149878
1223.150013
1223.149793
1223.149893
1223.149891
1223.149994
1223.150014
1223.150144
1223.150254
1223.15043
1223.150967
1223.150954
1223.150977
1223.150804
1223.150945
1223.150849
1223.150943
1223.150929
1223.151059
1223.151095
1223.151229
1223.15127
1223.151307
1223.151482
1223.156182
1223.156259
1223.156323
1223.156442
1223.156492
1223.156493
1223.156473
1223.156312
1223.156344
1223.156167
1223.156082
1223.156042
1223.1561
1223.156646
1216.181399
1223.152111
1223.151987
1223.151967
1223.151892
1223.152027
1223.151943
1223.152101
1223.151906
1223.151834
1223.151661
1223.151681
1223.151647
1223.151873
1223.152086
1223.146547
1223.153006
1223.152878
1223.152728
1223.152787
1223.152767
1223.152758
1223.152775
1223.152883
1223.152812
1223.152837
1223.152759
1223.152858
1223.152898
1223.15281
1223.152848
1223.151485
1223.151515
1223.151313
1223.15137
1223.151192
1223.151314
1223.151334
1223.151179
1223.150996
1223.150939
1223.151076
1223.151104
1223.151127
1223.151097
1223.150991
1223.152831
1223.152765
1223.152733
1223.152757
1223.152816
1223.152768
1223.152614
1223.152504
1223.152496
1223.152604
1223.152566
1223.152625
1223.152824
1223.15277
1223.152859
1223.152078
1223.152206
1223.152146
1223.152287
1223.152341
1223.152416
1223.152454
1223.15249
1223.152428
1223.152474
1223.152463
1223.152304
1223.152414
1223.152467
1223.147837
1223.147886
1223.147904
1223.147877
1223.147805
1223.147723
1223.1477
1223.147689
1223.147671
1223.14749
1223.147636
1223.14775
1223.147708
1223.147648
1223.150256
1223.150253
1223.15038
1223.150437
1223.150561
1223.150601
1223.150644
1223.150676
1223.150656
1223.150551
1223.150632
1223.150787
1223.150694
1223.150832
1223.148973
1223.149088
1223.14921
1223.14931
1223.14925
1223.149388
1223.149426
1223.149428
1223.149507
1223.149662
1223.149989
1223.149938
1223.149914
1223.150168
1223.15231
1223.152262
1223.152149
1223.152161
1223.152117
1223.152038
1223.152043
1223.151852
1223.151961
1223.151856
1223.151794
1223.151807
1223.151705
1223.151866
1223.151765
1223.151859
1223.151845
1223.151841
1223.151885
1223.151795
1223.151833
1223.151752
1223.151865
1223.151929
1223.152039
1223.152106
1223.152247
1223.152263
1223.145798
1223.14576
1223.145751
1223.14571
1223.14568
1223.145506
1223.145549
1223.145559
1223.145447
1223.145462
1223.145614
1223.145573
1223.14572
1223.145753
1223.145727
1223.153501
1223.153568
1223.15363
1223.153597
1223.153675
1223.153706
1223.153838
1223.153816
1223.153999
1223.154029
1223.153899
1223.153887
1223.153969
1223.153796
1223.15395
1223.153653
1223.153655
1223.153678
1223.153638
1223.153645
1223.153742
1223.15367
1223.15362
1223.153549
1223.153596
1223.153734
1223.153702
1223.153625
1223.153514
1223.153433
1223.153057
1223.153016
1223.15314
1223.153133
1223.153116
1223.153131
1223.153206
1223.153112
1223.153053
1223.153094
1223.153257
1223.153113
1223.153185
1223.153138
1223.154754
1223.154779
1223.154783
1223.154684
1223.154698
1223.154696
1223.154538
1223.154459
1223.154412
1223.15456
1223.154602
1223.154537
1223.154478
1223.154319
1223.152474
1223.152398
1223.152452
1223.152419
1223.152163
1223.152174
1223.15225
1223.152225
1223.152282
1223.152334
1223.152033
1223.151726
1223.151904
1223.152032
1223.152126
1223.152205
1223.152333
1223.15233
1223.152376
1223.152388
1223.152439
1223.152382
1223.152372
1223.15247
1223.152552
1223.152546
1223.152547
1223.152395
1223.147543
1223.147471
1223.1475
1223.147611
1223.147443
1223.14739
1223.147473
1223.14733
1223.147438
1223.147481
1223.147667
1223.147703
1223.147796
1223.147921
1223.151456
1223.151545
1223.151542
1223.151379
1223.151356
1223.151278
1223.151126
1223.151137
1223.150911
1223.151012
1223.151039
1223.150945
1223.150997
1223.150964
1223.153903
1223.153984
1223.154072
1223.153926
1223.153938
1223.153923
1223.153922
1223.153918
1223.15405
1223.153937
1223.154051
1223.154008
1223.153895
1223.153918
1223.147038
1223.14697
1223.146941
1223.146929
1223.146897
1223.146979
1223.147058
1223.147067
1223.147054
1223.146994
1223.146893
1223.146839
1223.146916
1223.146953
1223.147077
1223.152203
1223.152299
1223.152323
1223.152254
1223.152234
1223.152041
1223.152202
1223.152027
1223.152029
1223.151932
1223.152073
1223.15202
1223.152133
1223.152084
1223.152131
1223.146903
1223.146786
1223.146824
1223.146843
1223.146878
1223.146705
1223.146822
1223.146924
1223.146917
1223.146965
1223.147115
1223.147103
1223.147132
1223.147004
1223.148201
1223.148342
1223.148365
1223.148596
1223.148726
1223.148531
1223.14863
1223.148659
1223.148687
1223.148767
1223.148808
1223.148551
1223.14859
1223.148607
1223.152026
1223.152132
1223.152208
1223.152129
1223.152122
1223.152038
1223.152037
1223.152132
1223.152277
1223.152078
1223.152201
1223.152393
1223.152506
1223.152515
1223.149115
1223.149226
1223.148955
1223.14884
1223.148804
1223.148762
1223.148667
1223.148669
1223.148636
1223.148597
1223.148649
1223.148783
1223.14869
1223.148545
1223.150572
1223.150603
1223.150643
1223.150537
1223.15048
1223.150596
1223.150464
1223.150555
1223.150329
1223.150535
1223.150432
1223.150631
1223.150632
1223.150663
1223.147935
1223.147895
1223.147815
1223.147813
1223.14778
1223.147789
1223.14786
1223.147828
1223.14772
1223.147583
1223.147585
1223.147635
1223.147885
1223.147804
1223.149277
1223.149316
1223.149375
1223.149606
1223.149678
1223.149646
1223.149585
1223.14958
1223.149725
1223.149719
1223.149804
1223.149842
1223.149972
1223.150025
1223.150855
1223.150967
1223.151032
1223.15089
1223.150753
1223.150962
1223.151064
1223.150964
1223.151043
1223.151126
1223.150873
1223.150751
1223.150594
1223.150501
1223.149863
1223.149784
1223.149655
1223.149681
1223.149666
1223.149689
1223.149674
1223.149681
1223.149704
1223.149724
1223.149796
1223.149815
1223.149717
1223.149739
1223.149718
1223.152734
1223.152685
1223.152702
1223.152673
1223.152612
1223.152753
1223.152706
1223.152734
1223.152839
1223.152873
1223.153027
1223.153029
1223.153057
1223.152986
1223.150936
1223.150888
1223.151033
1223.151174
1223.151046
1223.151067
1223.151143
1223.151133
1223.150992
1223.150949
1223.150918
1223.150821
1223.150954
1223.150875
1223.153982
1223.154058
1223.154022
1223.153964
1223.153949
1223.153925
1223.153977
1223.153842
1223.153865
1223.153959
1223.15404
1223.153976
1223.154015
1223.153974
1223.145088
1223.14515
1223.145079
1223.145015
1223.145136
1223.145024
1223.145316
1223.145373
1223.145346
1223.145243
1223.145233
1223.14524
1223.145182
1223.145245
1223.146505
1223.146397
1223.146334
1223.146356
1223.146409
1223.146447
1223.146552
1223.146648
1223.146641
1223.146641
1223.146553
1223.146515
1223.146666
1223.146743
1223.147711
1223.1477
1223.147596
1223.147711
1223.147658
1223.147785
1223.147665
1223.147605
1223.147513
1223.147496
1223.147731
1223.147669
1223.147681
1223.1478
1223.149457
1223.149331
1223.149229
1223.149163
1223.149098
1223.149178
1223.149272
1223.149326
1223.149143
1223.149148
1223.149248
1223.149226
1223.149259
1223.149238
1223.147605
1223.147653
1223.147524
1223.14755
1223.1475
1223.147753
1223.147493
1223.147328
1223.147306
1223.147132
1223.147108
1223.147086
1223.147089
1223.147023
1223.149646
1223.149642
1223.149707
1223.149696
1223.149658
1223.149636
1223.149595
1223.14961
1223.149562
1223.149562
1223.149545
1223.149659
1223.14957
1223.149605
)
;

boundaryField
{
    top
    {
        type            zeroGradient;
    }
    bottom
    {
        type            zeroGradient;
    }
    side-walls
    {
        type            zeroGradient;
    }
    inlet
    {
        type            zeroGradient;
    }
    outlet
    {
        type            zeroGradient;
    }
    procBoundary0to1
    {
        type            processor;
        value           nonuniform List<scalar> 
97
(
1223.149418
1223.14822
1223.150368
1223.14834
1223.148269
1223.151393
1223.154506
1223.1491
1223.150294
1223.15393
1223.14822
1223.14822
1223.151319
1223.151533
1223.152187
1223.149419
1223.152581
1223.146588
1223.155325
1223.147304
1223.153995
1223.149413
1223.151533
1223.151533
1223.146353
1223.148526
1223.151451
1223.14395
1223.150563
1223.146404
1223.155661
1223.148102
1223.150291
1223.154667
1223.148526
1223.148526
1223.153844
1223.145924
1223.147507
1223.149359
1223.151814
1223.149857
1223.150977
1223.1514
1223.145132
1223.150634
1223.145924
1223.145924
1216.179941
1223.146285
1223.146538
1223.152501
1223.15288
1223.150935
1223.152736
1223.152363
1223.1476
1223.150845
1223.150486
1223.146285
1223.152501
1223.152501
1223.145844
1223.153772
1223.153783
1223.153463
1223.153129
1223.154621
1223.151847
1223.152399
1223.147816
1223.151038
1223.153772
1223.153772
1223.14716
1223.150603
1223.152211
1223.146993
1223.148678
1223.152461
1223.148609
1223.150783
1223.147805
1223.149965
1223.150603
1223.150603
1223.149753
1223.149656
1223.153003
1223.150995
1223.154095
1223.145324
1223.146682
1223.148024
1223.149139
1223.147224
1223.149656
)
;
    }
}


// ************************************************************************* //
