/*--------------------------------*- C++ -*----------------------------------*\
| =========                 |                                                 |
| \\      /  F ield         | OpenFOAM: The Open Source CFD Toolbox           |
|  \\    /   O peration     | Version:  4.x                                   |
|   \\  /    A nd           | Web:      www.OpenFOAM.org                      |
|    \\/     M anipulation  |                                                 |
\*---------------------------------------------------------------------------*/
FoamFile
{
    version     2.0;
    format      ascii;
    class       volScalarField;
    location    "4000";
    object      X_CO;
}
// * * * * * * * * * * * * * * * * * * * * * * * * * * * * * * * * * * * * * //

dimensions      [0 0 0 0 0 0 0];

internalField   nonuniform List<scalar> 
1175
(
0.3728740616
0.3728740617
0.3728740617
0.3728740616
0.3728740615
0.3728740613
0.3728740611
0.3728740599
0.3728740558
0.3728740435
0.3728740088
0.3728739163
0.3728736902
0.3728731898
0.3728722034
0.3728740616
0.3728740617
0.3728740615
0.3728740615
0.3728740617
0.3728740614
0.372874061
0.3728740591
0.3728740532
0.3728740348
0.3728739799
0.3728738282
0.3728734443
0.372872576
0.3728708646
0.3728740616
0.3728740616
0.3728740616
0.3728740615
0.3728740616
0.3728740613
0.3728740605
0.3728740578
0.3728740486
0.3728740179
0.3728739227
0.3728736461
0.3728729166
0.3728712188
0.3728678635
0.3728740616
0.3728740616
0.3728740617
0.3728740617
0.3728740615
0.3728740612
0.3728740602
0.3728740565
0.3728740432
0.3728739979
0.3728738512
0.372873406
0.3728721801
0.3728692272
0.3728633487
0.3728740617
0.3728740616
0.3728740617
0.3728740617
0.3728740615
0.3728740611
0.3728740601
0.3728740559
0.3728740407
0.3728739877
0.3728738112
0.372873261
0.3728716949
0.3728678026
0.3728599549
0.3728740618
0.3728740618
0.3728740616
0.3728740617
0.3728740616
0.3728740612
0.3728740603
0.3728740566
0.3728740433
0.3728739979
0.3728738512
0.372873406
0.3728721801
0.3728692271
0.3728633488
0.3728740617
0.3728740617
0.3728740616
0.3728740618
0.3728740617
0.3728740615
0.3728740608
0.3728740578
0.3728740487
0.3728740181
0.3728739226
0.3728736462
0.3728729168
0.3728712189
0.3728678635
0.3728740618
0.3728740617
0.3728740617
0.3728740617
0.3728740615
0.3728740614
0.3728740609
0.3728740594
0.3728740533
0.3728740349
0.3728739801
0.3728738285
0.3728734444
0.3728725762
0.3728708649
0.3728740617
0.3728740617
0.3728740617
0.3728740617
0.3728740615
0.3728740615
0.3728740612
0.37287406
0.3728740559
0.3728740438
0.3728740088
0.3728739166
0.3728736903
0.37287319
0.3728722038
0.3728740616
0.3728740615
0.3728740615
0.3728740616
0.3728740615
0.3728740615
0.3728740609
0.372874059
0.3728740532
0.3728740348
0.3728739801
0.3728738283
0.3728734443
0.3728725759
0.3728740618
0.3728740616
0.3728740616
0.3728740615
0.3728740615
0.3728740613
0.3728740606
0.372874058
0.372874049
0.3728740189
0.3728739245
0.3728736481
0.3728729127
0.3728711901
0.372867783
0.3728740617
0.3728740618
0.3728740615
0.3728740615
0.3728740615
0.3728740612
0.3728740602
0.3728740559
0.3728740405
0.3728739862
0.3728738048
0.3728732387
0.3728716365
0.3728676982
0.372859827
0.3728740615
0.3728740615
0.3728740617
0.3728740615
0.3728740616
0.3728740612
0.3728740595
0.3728740535
0.3728740302
0.3728739441
0.3728736388
0.372872622
0.3728695401
0.3728614823
0.3728449744
0.3728740617
0.3728740617
0.3728740617
0.3728740615
0.3728740615
0.3728740611
0.3728740593
0.3728740522
0.3728740249
0.3728739196
0.372873532
0.3728721761
0.3728678111
0.3728556071
0.3728294404
0.3728740616
0.3728740617
0.3728740617
0.3728740618
0.3728740616
0.3728740613
0.3728740596
0.3728740536
0.3728740303
0.3728739441
0.3728736388
0.3728726221
0.3728695401
0.3728614825
0.3728449751
0.3728740615
0.3728740616
0.3728740617
0.3728740617
0.3728740615
0.3728740613
0.3728740601
0.3728740561
0.3728740404
0.3728739863
0.3728738049
0.3728732388
0.3728716365
0.3728676985
0.3728598274
0.3728740618
0.3728740617
0.3728740618
0.3728740615
0.3728740615
0.3728740613
0.3728740605
0.3728740578
0.3728740489
0.3728740191
0.3728739245
0.3728736482
0.3728729127
0.3728711902
0.3728677836
0.3728740617
0.3728740619
0.3728740617
0.3728740616
0.3728740615
0.3728740615
0.3728740611
0.3728740592
0.3728740534
0.3728740349
0.37287398
0.3728738284
0.3728734444
0.3728725763
0.372870865
0.3728740616
0.3728740617
0.3728740617
0.3728740617
0.3728740616
0.3728740615
0.3728740605
0.3728740577
0.3728740485
0.3728740178
0.3728739226
0.3728736461
0.3728729166
0.3728712187
0.3728740618
0.3728740618
0.3728740617
0.3728740616
0.3728740615
0.3728740614
0.3728740601
0.3728740561
0.3728740404
0.3728739861
0.3728738048
0.3728732386
0.3728716362
0.3728676978
0.3728740616
0.3728740616
0.3728740616
0.3728740615
0.3728740615
0.3728740612
0.3728740594
0.3728740521
0.3728740236
0.3728739167
0.3728735289
0.3728722114
0.3728681448
0.3728573663
0.3728351919
0.3728740617
0.3728740616
0.3728740616
0.3728740616
0.3728740616
0.3728740609
0.3728740582
0.3728740473
0.3728740019
0.372873818
0.372873097
0.372870415
0.3728612581
0.3728343508
0.3727752713
0.3728740618
0.3728740616
0.3728740617
0.3728740615
0.3728740615
0.3728740607
0.3728740577
0.3728740446
0.3728739888
0.3728737526
0.3728727708
0.3728688244
0.3728539135
0.3728041574
0.3726801545
0.3728740616
0.3728740616
0.3728740617
0.3728740616
0.3728740616
0.372874061
0.3728740584
0.3728740472
0.3728740019
0.3728738178
0.3728730969
0.3728704151
0.3728612583
0.3728343517
0.3727752741
0.3728740618
0.3728740618
0.3728740619
0.3728740616
0.3728740616
0.3728740611
0.3728740592
0.3728740521
0.3728740237
0.3728739167
0.3728735291
0.3728722115
0.3728681449
0.3728573672
0.3728351946
0.3728740617
0.3728740617
0.3728740617
0.3728740617
0.3728740616
0.3728740613
0.3728740602
0.372874056
0.3728740405
0.3728739863
0.372873805
0.3728732388
0.3728716363
0.3728676983
0.3728598276
0.3728740617
0.3728740617
0.3728740617
0.3728740616
0.3728740615
0.3728740614
0.3728740606
0.3728740579
0.3728740487
0.3728740179
0.3728739227
0.3728736462
0.372872917
0.3728712189
0.3728678636
0.3728740616
0.3728740616
0.3728740616
0.3728740617
0.3728740616
0.3728740613
0.3728740603
0.3728740566
0.3728740432
0.3728739981
0.3728738511
0.3728734061
0.3728721798
0.3728692264
0.3728740616
0.3728740616
0.3728740615
0.3728740617
0.3728740616
0.3728740613
0.3728740597
0.3728740535
0.3728740302
0.372873944
0.3728736388
0.3728726219
0.3728695396
0.3728614811
0.3728740618
0.3728740617
0.3728740616
0.3728740617
0.3728740615
0.3728740609
0.3728740582
0.3728740471
0.3728740017
0.3728738178
0.3728730969
0.3728704149
0.3728612578
0.3728343483
0.3728740619
0.3728740616
0.3728740616
0.3728740616
0.3728740615
0.3728740606
0.3728740566
0.3728740391
0.3728739616
0.37287362
0.3728721357
0.372865887
0.3728411846
0.3727553456
0.3725356541
0.3728740618
0.3728740617
0.3728740617
0.3728740617
0.3728740614
0.3728740602
0.3728740557
0.3728740343
0.3728739353
0.3728734704
0.3728712695
0.3728608359
0.3728122282
0.3726001325
0.3718627663
0.3728740619
0.372874062
0.3728740617
0.3728740616
0.3728740615
0.3728740606
0.3728740566
0.3728740391
0.3728739618
0.37287362
0.3728721355
0.3728658868
0.3728411853
0.3727553502
0.3725356733
0.3728740618
0.3728740618
0.3728740617
0.3728740616
0.3728740615
0.3728740609
0.3728740582
0.3728740472
0.3728740017
0.3728738179
0.3728730971
0.372870415
0.3728612582
0.3728343514
0.372775274
0.3728740616
0.3728740617
0.3728740617
0.3728740617
0.3728740616
0.3728740611
0.3728740594
0.3728740536
0.3728740304
0.3728739441
0.3728736389
0.3728726221
0.37286954
0.3728614824
0.3728449752
0.3728740618
0.3728740617
0.3728740617
0.3728740616
0.3728740615
0.3728740613
0.3728740602
0.3728740567
0.3728740434
0.3728739982
0.3728738513
0.3728734064
0.3728721802
0.3728692271
0.372863349
0.3728740616
0.3728740616
0.3728740617
0.3728740617
0.3728740616
0.3728740614
0.3728740602
0.372874056
0.3728740406
0.3728739876
0.3728738111
0.3728732608
0.3728716946
0.3728678019
0.3728740616
0.3728740616
0.3728740617
0.3728740617
0.3728740615
0.3728740612
0.3728740594
0.3728740522
0.3728740246
0.3728739195
0.3728735319
0.372872176
0.3728678107
0.3728556053
0.3728740618
0.3728740615
0.3728740616
0.3728740619
0.3728740616
0.3728740609
0.3728740577
0.3728740446
0.3728739888
0.3728737526
0.3728727709
0.3728688243
0.3728539122
0.3728041509
0.3728740618
0.3728740617
0.3728740617
0.3728740615
0.3728740614
0.3728740604
0.3728740558
0.3728740344
0.3728739354
0.3728734704
0.3728712694
0.3728608355
0.3728122252
0.3726001116
0.3728740618
0.3728740618
0.3728740618
0.3728740617
0.3728740616
0.3728740602
0.3728740547
0.3728740281
0.3728738974
0.3728732304
0.372869665
0.3728494897
0.3727274535
0.3719329534
0.3663202567
0.3728740619
0.3728740618
0.3728740617
0.3728740616
0.3728740615
0.3728740603
0.3728740559
0.3728740344
0.3728739355
0.3728734704
0.3728712692
0.3728608356
0.3728122272
0.3726001294
0.3718627636
0.372874062
0.3728740619
0.3728740617
0.3728740617
0.3728740615
0.3728740608
0.3728740578
0.3728740448
0.3728739888
0.3728737526
0.3728727709
0.3728688244
0.3728539132
0.372804156
0.3726801532
0.3728740618
0.3728740618
0.3728740616
0.3728740617
0.3728740615
0.3728740612
0.3728740594
0.3728740523
0.3728740248
0.3728739196
0.372873532
0.3728721761
0.3728678111
0.3728556067
0.3728294399
0.3728740619
0.3728740617
0.3728740616
0.3728740616
0.3728740616
0.3728740612
0.3728740601
0.3728740558
0.3728740406
0.3728739878
0.3728738113
0.3728732611
0.372871695
0.3728678024
0.3728599548
0.3728740616
0.3728740616
0.3728740616
0.3728740615
0.3728740615
0.3728740613
0.3728740604
0.3728740567
0.3728740433
0.3728739982
0.3728738513
0.3728734061
0.37287218
0.3728692268
0.3728740615
0.3728740616
0.3728740616
0.3728740617
0.3728740617
0.3728740612
0.3728740596
0.3728740535
0.3728740302
0.3728739441
0.3728736389
0.3728726221
0.3728695397
0.3728614814
0.3728740615
0.3728740616
0.3728740616
0.3728740616
0.3728740617
0.372874061
0.3728740583
0.3728740473
0.3728740019
0.3728738179
0.3728730971
0.3728704151
0.3728612574
0.3728343479
0.3728740615
0.3728740617
0.3728740618
0.3728740617
0.3728740614
0.3728740605
0.3728740566
0.3728740391
0.3728739615
0.3728736198
0.3728721357
0.3728658867
0.3728411831
0.3727553398
0.3728740619
0.3728740618
0.3728740617
0.3728740618
0.3728740615
0.3728740603
0.3728740558
0.3728740343
0.3728739354
0.3728734705
0.3728712693
0.3728608353
0.3728122243
0.3726001093
0.3728740619
0.3728740619
0.3728740619
0.3728740617
0.3728740615
0.3728740606
0.3728740566
0.3728740391
0.3728739615
0.3728736199
0.3728721355
0.3728658867
0.3728411836
0.3727553412
0.3728740619
0.3728740618
0.3728740617
0.3728740617
0.3728740616
0.3728740608
0.3728740582
0.3728740473
0.3728740017
0.3728738178
0.3728730969
0.372870415
0.3728612579
0.3728343495
0.3727752679
0.3728740618
0.3728740618
0.3728740618
0.3728740617
0.3728740615
0.3728740611
0.3728740597
0.3728740535
0.3728740305
0.3728739444
0.3728736388
0.3728726219
0.3728695398
0.3728614819
0.3728449741
0.3728740618
0.3728740618
0.3728740618
0.3728740617
0.3728740618
0.3728740616
0.3728740605
0.3728740566
0.3728740433
0.3728739982
0.3728738514
0.3728734065
0.3728721803
0.372869227
0.3728633485
0.3728740617
0.3728740616
0.3728740617
0.3728740616
0.3728740617
0.3728740614
0.3728740607
0.3728740578
0.3728740484
0.3728740179
0.3728739227
0.3728736462
0.3728729167
0.3728712187
0.3728740617
0.3728740618
0.3728740617
0.3728740616
0.3728740617
0.3728740613
0.3728740602
0.3728740559
0.3728740406
0.3728739863
0.3728738049
0.3728732388
0.3728716363
0.3728676977
0.3728740616
0.3728740617
0.3728740617
0.3728740617
0.3728740614
0.372874061
0.3728740593
0.372874052
0.3728740239
0.372873917
0.3728735291
0.3728722113
0.3728681446
0.3728573658
0.3728740616
0.3728740617
0.3728740617
0.3728740616
0.3728740615
0.3728740608
0.3728740582
0.372874047
0.3728740017
0.3728738178
0.372873097
0.372870415
0.3728612575
0.3728343479
0.3728740618
0.3728740618
0.3728740617
0.3728740617
0.3728740615
0.3728740606
0.3728740577
0.3728740445
0.3728739888
0.3728737525
0.3728727709
0.3728688241
0.3728539118
0.3728041507
0.3728740617
0.3728740617
0.3728740618
0.3728740616
0.3728740615
0.3728740609
0.3728740582
0.3728740472
0.3728740016
0.3728738177
0.3728730971
0.3728704149
0.3728612575
0.3728343482
0.3728740618
0.3728740618
0.3728740618
0.3728740617
0.3728740615
0.3728740611
0.3728740593
0.372874052
0.3728740238
0.3728739168
0.3728735292
0.3728722115
0.3728681446
0.3728573657
0.3728740618
0.3728740617
0.3728740617
0.3728740617
0.3728740616
0.3728740614
0.3728740603
0.372874056
0.3728740406
0.3728739863
0.3728738048
0.3728732388
0.3728716362
0.3728676979
0.3728598264
0.3728740619
0.3728740619
0.3728740619
0.3728740618
0.3728740617
0.3728740614
0.3728740608
0.372874058
0.3728740487
0.372874018
0.3728739227
0.3728736462
0.3728729168
0.3728712187
0.3728678633
0.3728740618
0.3728740616
0.3728740618
0.3728740618
0.3728740617
0.3728740613
0.372874061
0.3728740592
0.3728740533
0.3728740349
0.3728739802
0.3728738284
0.3728734445
0.372872576
0.3728740617
0.3728740618
0.3728740617
0.3728740619
0.3728740619
0.3728740615
0.3728740607
0.372874058
0.372874049
0.3728740191
0.3728739246
0.372873648
0.3728729127
0.37287119
0.3728740618
0.3728740617
0.3728740618
0.3728740618
0.3728740617
0.3728740613
0.3728740602
0.372874056
0.3728740407
0.3728739862
0.3728738048
0.3728732389
0.3728716364
0.3728676979
0.3728740618
0.372874062
0.3728740617
0.3728740617
0.3728740616
0.3728740612
0.3728740597
0.3728740534
0.3728740303
0.3728739441
0.3728736387
0.3728726219
0.3728695397
0.3728614812
0.3728740617
0.3728740618
0.3728740617
0.3728740617
0.3728740615
0.3728740611
0.3728740593
0.3728740523
0.3728740246
0.3728739195
0.372873532
0.372872176
0.3728678106
0.3728556053
0.3728740618
0.3728740618
0.3728740617
0.3728740617
0.3728740615
0.3728740612
0.3728740597
0.3728740534
0.3728740302
0.372873944
0.3728736388
0.3728726219
0.3728695398
0.3728614815
0.3728740618
0.3728740618
0.3728740617
0.3728740618
0.3728740619
0.3728740614
0.3728740603
0.372874056
0.3728740406
0.3728739862
0.3728738048
0.3728732388
0.3728716363
0.3728676979
0.3728740619
0.372874062
0.3728740618
0.3728740617
0.3728740616
0.3728740617
0.3728740608
0.3728740581
0.3728740491
0.3728740191
0.3728739244
0.372873648
0.3728729124
0.3728711897
0.3728740618
0.3728740618
0.3728740618
0.3728740618
0.3728740616
0.3728740615
0.372874061
0.3728740592
0.3728740532
0.3728740348
0.37287398
0.3728738284
0.3728734442
0.372872576
0.3728708645
0.3728740617
0.3728740618
0.3728740617
0.3728740617
0.3728740616
0.3728740616
0.3728740611
0.3728740599
0.372874056
0.3728740438
0.3728740091
0.3728739165
0.3728736904
0.3728731898
0.3728740617
0.3728740616
0.3728740618
0.3728740618
0.3728740617
0.3728740616
0.3728740611
0.3728740593
0.3728740534
0.3728740349
0.3728739802
0.3728738283
0.3728734445
0.3728725761
0.3728740617
0.3728740617
0.3728740617
0.3728740618
0.3728740616
0.3728740615
0.3728740607
0.3728740579
0.3728740487
0.3728740181
0.3728739228
0.3728736462
0.3728729167
0.3728712187
0.3728740618
0.3728740617
0.3728740617
0.3728740617
0.3728740617
0.3728740613
0.3728740604
0.3728740567
0.3728740435
0.3728739981
0.3728738512
0.3728734062
0.37287218
0.3728692266
0.3728740616
0.3728740615
0.3728740614
0.3728740615
0.3728740615
0.3728740612
0.3728740601
0.372874056
0.3728740407
0.3728739876
0.3728738112
0.3728732609
0.3728716948
0.3728678019
0.3728740617
0.3728740617
0.3728740615
0.3728740617
0.3728740615
0.3728740613
0.3728740602
0.3728740565
0.3728740431
0.3728739979
0.3728738512
0.372873406
0.3728721799
0.3728692266
0.3728740619
0.3728740618
0.3728740616
0.3728740617
0.3728740616
0.3728740616
0.3728740608
0.3728740581
0.3728740486
0.372874018
0.3728739227
0.3728736463
0.3728729168
0.3728712187
0.3728740619
0.3728740619
0.3728740618
0.3728740618
0.3728740618
0.3728740618
0.3728740611
0.3728740593
0.3728740534
0.3728740349
0.37287398
0.3728738282
0.3728734442
0.3728725758
0.3728740618
0.3728740618
0.3728740619
0.3728740619
0.3728740618
0.3728740616
0.3728740612
0.3728740599
0.3728740558
0.3728740436
0.3728740087
0.3728739164
0.3728736902
0.3728731897
)
;

boundaryField
{
    top
    {
        type            calculated;
        value           nonuniform List<scalar> 
134
(
0.3728740617
0.3728740617
0.3728740617
0.3728740618
0.3728740619
0.3728740618
0.3728740619
0.3728740618
0.3728740618
0.3728740617
0.3728740619
0.3728740617
0.3728740617
0.3728740617
0.3728740618
0.3728740619
0.3728740618
0.3728740618
0.3728740617
0.3728740617
0.3728740617
0.3728740617
0.3728740616
0.3728740618
0.3728740619
0.3728740618
0.3728740619
0.3728740617
0.3728740616
0.3728740616
0.3728740616
0.3728740616
0.3728740617
0.3728740618
0.3728740618
0.3728740619
0.3728740615
0.3728740615
0.3728740615
0.3728740615
0.3728740616
0.3728740618
0.3728740617
0.3728740616
0.3728740618
0.3728740615
0.3728740615
0.3728740614
0.3728740613
0.3728740612
0.3728740616
0.3728740614
0.3728740615
0.3728740616
0.3728740612
0.3728740611
0.3728740606
0.3728740602
0.3728740601
0.3728740605
0.3728740608
0.372874061
0.3728740612
0.37287406
0.3728740592
0.3728740579
0.3728740567
0.3728740558
0.3728740566
0.372874058
0.3728740592
0.3728740599
0.3728740559
0.3728740534
0.3728740487
0.3728740434
0.3728740406
0.3728740433
0.3728740487
0.3728740532
0.3728740558
0.3728740438
0.3728740349
0.3728740179
0.3728739982
0.3728739878
0.3728739982
0.372874018
0.3728740348
0.3728740436
0.3728740088
0.37287398
0.3728739227
0.3728738513
0.3728738113
0.3728738514
0.3728739227
0.37287398
0.3728740087
0.3728739166
0.3728738284
0.3728736462
0.3728734064
0.3728732611
0.3728734065
0.3728736462
0.3728738284
0.3728739164
0.3728736903
0.3728734444
0.372872917
0.3728721802
0.372871695
0.3728721803
0.3728729168
0.3728734442
0.3728736902
0.37287319
0.3728725763
0.3728712189
0.3728692271
0.3728678024
0.372869227
0.3728712187
0.372872576
0.3728731897
0.3728722038
0.372870865
0.3728678636
0.372863349
0.3728599548
0.3728633485
0.3728678633
0.3728708645
)
;
    }
    bottom
    {
        type            calculated;
        value           nonuniform List<scalar> 
127
(
0.3728740616
0.3728740616
0.3728740616
0.3728740616
0.3728740616
0.3728740616
0.3728740617
0.3728740618
0.3728740617
0.3728740617
0.3728740615
0.3728740617
0.3728740616
0.3728740616
0.3728740616
0.3728740616
0.3728740616
0.3728740618
0.3728740617
0.3728740615
0.3728740617
0.3728740616
0.3728740617
0.3728740616
0.3728740617
0.3728740618
0.3728740617
0.3728740616
0.3728740616
0.3728740617
0.3728740617
0.3728740617
0.3728740615
0.3728740616
0.3728740618
0.3728740617
0.3728740615
0.3728740615
0.3728740616
0.3728740616
0.3728740616
0.3728740615
0.3728740617
0.3728740617
0.3728740616
0.3728740613
0.3728740615
0.3728740615
0.3728740613
0.3728740614
0.3728740613
0.3728740614
0.3728740613
0.3728740616
0.3728740611
0.3728740609
0.3728740605
0.3728740603
0.3728740602
0.3728740604
0.3728740607
0.372874061
0.3728740611
0.3728740599
0.372874059
0.3728740577
0.3728740566
0.372874056
0.3728740567
0.3728740578
0.3728740592
0.3728740599
0.3728740558
0.3728740532
0.3728740485
0.3728740432
0.3728740406
0.3728740433
0.3728740484
0.3728740533
0.372874056
0.3728740435
0.3728740348
0.3728740178
0.3728739981
0.3728739876
0.3728739982
0.3728740179
0.3728740349
0.3728740438
0.3728740088
0.3728739801
0.3728739226
0.3728738511
0.3728738111
0.3728738513
0.3728739227
0.3728739802
0.3728740091
0.3728739163
0.3728738283
0.3728736461
0.3728734061
0.3728732608
0.3728734061
0.3728736462
0.3728738284
0.3728739165
0.3728736902
0.3728734443
0.3728729166
0.3728721798
0.3728716946
0.37287218
0.3728729167
0.3728734445
0.3728736904
0.3728731898
0.3728725759
0.3728712187
0.3728692264
0.3728678019
0.3728692268
0.3728712187
0.372872576
0.3728731898
0.3728722034
)
;
    }
    side-walls
    {
        type            calculated;
        value           nonuniform List<scalar> 
261
(
0.3728740616
0.3728740616
0.3728740616
0.3728740616
0.3728740617
0.3728740618
0.3728740617
0.3728740618
0.3728740617
0.3728740617
0.3728740617
0.3728740616
0.3728740616
0.3728740616
0.3728740618
0.3728740617
0.3728740617
0.3728740617
0.3728740617
0.3728740615
0.3728740616
0.3728740617
0.3728740617
0.3728740616
0.3728740616
0.3728740617
0.3728740617
0.3728740616
0.3728740615
0.3728740615
0.3728740617
0.3728740617
0.3728740617
0.3728740618
0.3728740617
0.3728740617
0.3728740615
0.3728740617
0.3728740616
0.3728740615
0.3728740615
0.3728740616
0.3728740617
0.3728740615
0.3728740615
0.3728740613
0.3728740614
0.3728740613
0.3728740612
0.3728740611
0.3728740612
0.3728740615
0.3728740614
0.3728740615
0.3728740611
0.372874061
0.3728740605
0.3728740602
0.3728740601
0.3728740603
0.3728740608
0.3728740609
0.3728740612
0.3728740599
0.3728740591
0.3728740578
0.3728740565
0.3728740559
0.3728740566
0.3728740578
0.3728740594
0.37287406
0.3728740558
0.3728740532
0.3728740486
0.3728740432
0.3728740407
0.3728740433
0.3728740487
0.3728740533
0.3728740559
0.3728740435
0.3728740348
0.3728740179
0.3728739979
0.3728739877
0.3728739979
0.3728740181
0.3728740349
0.3728740438
0.3728740088
0.3728739799
0.3728739227
0.3728738512
0.3728738112
0.3728738512
0.3728739226
0.3728739801
0.3728740088
0.3728739163
0.3728738282
0.3728736461
0.372873406
0.372873261
0.372873406
0.3728736462
0.3728738285
0.3728739166
0.3728736902
0.3728734443
0.3728729166
0.3728721801
0.3728716949
0.3728721801
0.3728729168
0.3728734444
0.3728736903
0.3728731898
0.372872576
0.3728712188
0.3728692272
0.3728678026
0.3728692271
0.3728712189
0.3728725762
0.37287319
0.3728722034
0.3728708646
0.3728678635
0.3728633487
0.3728599549
0.3728633488
0.3728678635
0.3728708649
0.3728722038
0.3728740617
0.3728740617
0.3728740617
0.3728740618
0.3728740616
0.3728740617
0.3728740619
0.3728740619
0.3728740618
0.3728740618
0.3728740616
0.3728740617
0.3728740617
0.3728740615
0.3728740617
0.3728740618
0.3728740619
0.3728740618
0.3728740617
0.3728740618
0.3728740617
0.3728740617
0.3728740614
0.3728740615
0.3728740616
0.3728740618
0.3728740619
0.3728740617
0.3728740618
0.3728740618
0.3728740617
0.3728740615
0.3728740617
0.3728740617
0.3728740618
0.3728740619
0.3728740616
0.3728740617
0.3728740616
0.3728740617
0.3728740615
0.3728740615
0.3728740616
0.3728740618
0.3728740618
0.3728740616
0.3728740616
0.3728740615
0.3728740613
0.3728740612
0.3728740613
0.3728740616
0.3728740618
0.3728740616
0.3728740611
0.3728740611
0.3728740607
0.3728740604
0.3728740601
0.3728740602
0.3728740608
0.3728740611
0.3728740612
0.3728740599
0.3728740593
0.3728740579
0.3728740567
0.372874056
0.3728740565
0.3728740581
0.3728740593
0.3728740599
0.372874056
0.3728740534
0.3728740487
0.3728740435
0.3728740407
0.3728740431
0.3728740486
0.3728740534
0.3728740558
0.3728740438
0.3728740349
0.3728740181
0.3728739981
0.3728739876
0.3728739979
0.372874018
0.3728740349
0.3728740436
0.3728740091
0.3728739802
0.3728739228
0.3728738512
0.3728738112
0.3728738512
0.3728739227
0.37287398
0.3728740087
0.3728739165
0.3728738283
0.3728736462
0.3728734062
0.3728732609
0.372873406
0.3728736463
0.3728738282
0.3728739164
0.3728736904
0.3728734445
0.3728729167
0.37287218
0.3728716948
0.3728721799
0.3728729168
0.3728734442
0.3728736902
0.3728731898
0.3728725761
0.3728712187
0.3728692266
0.3728678019
0.3728692266
0.3728712187
0.3728725758
0.3728731897
)
;
    }
    inlet
    {
        type            calculated;
        value           nonuniform List<scalar> 
81
(
0.3728740616
0.3728740616
0.3728740616
0.3728740616
0.3728740617
0.3728740618
0.3728740617
0.3728740618
0.3728740617
0.3728740616
0.3728740618
0.3728740617
0.3728740615
0.3728740617
0.3728740616
0.3728740615
0.3728740618
0.3728740617
0.3728740616
0.3728740618
0.3728740616
0.3728740617
0.3728740618
0.3728740616
0.3728740618
0.3728740617
0.3728740617
0.3728740616
0.3728740616
0.3728740618
0.3728740619
0.3728740618
0.3728740619
0.3728740618
0.3728740616
0.3728740618
0.3728740616
0.3728740616
0.3728740618
0.3728740618
0.3728740618
0.3728740619
0.372874062
0.3728740618
0.3728740619
0.3728740616
0.3728740615
0.3728740615
0.3728740615
0.3728740619
0.3728740619
0.3728740619
0.3728740618
0.3728740618
0.3728740617
0.3728740617
0.3728740616
0.3728740616
0.3728740618
0.3728740617
0.3728740618
0.3728740618
0.3728740619
0.3728740618
0.3728740617
0.3728740618
0.3728740618
0.3728740617
0.3728740618
0.3728740618
0.3728740619
0.3728740618
0.3728740617
0.3728740617
0.3728740617
0.3728740618
0.3728740616
0.3728740617
0.3728740619
0.3728740619
0.3728740618
)
;
    }
    outlet
    {
        type            calculated;
        value           nonuniform 0();
    }
    procBoundary0to1
    {
        type            processor;
        value           nonuniform List<scalar> 
97
(
0.3728704844
0.3728708645
0.3728679663
0.3728623969
0.3728542239
0.3728483773
0.3728542239
0.3728623972
0.3728679666
0.3728704846
0.3728708645
0.3728708645
0.372862279
0.3728598264
0.37284795
0.3728224396
0.3727983242
0.3728224403
0.3728479503
0.3728622794
0.3728679667
0.3728678633
0.3728598264
0.3728598264
0.3728055484
0.3727752666
0.3727110695
0.3725870768
0.3727110721
0.3728055504
0.3728479505
0.3728623972
0.3728633484
0.3728449736
0.3727752666
0.3727752666
0.3723866107
0.3718627115
0.3717484288
0.37238662
0.3727110718
0.3728224404
0.3728542242
0.3728599543
0.3728294387
0.3726801455
0.3718627115
0.3718627115
0.368990433
0.3718627134
0.3717484295
0.3725356574
0.372587076
0.3727983238
0.3728483774
0.3728633485
0.3728449741
0.3727752703
0.3725356601
0.3718627134
0.3725356574
0.3725356574
0.3727110696
0.3728351919
0.3728224393
0.3728542237
0.3728678635
0.3728598271
0.3728351931
0.3727752702
0.3726801458
0.3727752704
0.3728351919
0.3728351919
0.3728479498
0.372867783
0.3728623968
0.3728708648
0.3728677835
0.372859827
0.372844974
0.3728294387
0.3728449741
0.3728598266
0.372867783
0.372867783
0.3728679663
0.3728722035
0.3728722037
0.3728708649
0.3728678635
0.3728633486
0.3728599545
0.3728633485
0.3728678635
0.3728708647
0.3728722035
)
;
    }
}


// ************************************************************************* //
