/*--------------------------------*- C++ -*----------------------------------*\
| =========                 |                                                 |
| \\      /  F ield         | OpenFOAM: The Open Source CFD Toolbox           |
|  \\    /   O peration     | Version:  4.x                                   |
|   \\  /    A nd           | Web:      www.OpenFOAM.org                      |
|    \\/     M anipulation  |                                                 |
\*---------------------------------------------------------------------------*/
FoamFile
{
    version     2.0;
    format      ascii;
    class       volScalarField;
    location    "4000";
    object      X_CO2;
}
// * * * * * * * * * * * * * * * * * * * * * * * * * * * * * * * * * * * * * //

dimensions      [0 0 0 0 0 0 0];

internalField   nonuniform List<scalar> 
1175
(
0.004151309902
0.00415130984
0.004151309686
0.004151310063
0.004151310042
0.004151310453
0.004151310445
0.004151311451
0.004151315635
0.004151328025
0.004151362731
0.004151455257
0.004151681409
0.00415218186
0.004153169146
0.004151310081
0.004151309763
0.004151310136
0.004151310189
0.004151309739
0.004151310093
0.004151310374
0.00415131252
0.004151318284
0.004151336706
0.004151391741
0.004151543519
0.004151927376
0.004152796134
0.004154508445
0.004151309866
0.004151309936
0.004151309852
0.004151310255
0.004151309963
0.004151310257
0.004151311049
0.004151313778
0.004151322905
0.004151353777
0.004151448752
0.004151725579
0.004152455284
0.004154153565
0.004157510573
0.004151309854
0.004151310001
0.004151309577
0.00415130972
0.004151310011
0.004151310332
0.004151311404
0.004151315003
0.004151328436
0.004151373973
0.004151520389
0.004151966
0.004153191942
0.004156145473
0.004162026635
0.004151309606
0.004151309975
0.004151309805
0.004151309658
0.004151310155
0.004151310677
0.004151311459
0.004151315517
0.004151330804
0.004151383795
0.004151560419
0.004152110477
0.00415367693
0.004157570278
0.004165420985
0.00415130956
0.004151309517
0.004151310064
0.004151309736
0.004151309919
0.004151310553
0.004151311191
0.00415131477
0.004151328155
0.004151373717
0.0041515204
0.00415196579
0.004153191971
0.004156145754
0.004162026309
0.004151309604
0.004151309697
0.004151309898
0.004151309307
0.004151309553
0.004151309754
0.00415131045
0.004151313896
0.004151322672
0.004151353264
0.004151448999
0.004151725307
0.004152454875
0.004154153466
0.004157510467
0.004151309427
0.004151309716
0.004151309646
0.0041513096
0.004151310123
0.004151310127
0.004151310569
0.00415131171
0.004151318029
0.004151336489
0.004151391215
0.00415154266
0.004151927069
0.004152795627
0.00415450777
0.00415130974
0.00415130984
0.004151309765
0.004151309617
0.004151310067
0.004151310002
0.004151310097
0.004151311194
0.004151315292
0.004151327242
0.00415136266
0.004151454563
0.004151680991
0.004152181515
0.004153168271
0.004151309955
0.004151310158
0.004151310211
0.004151309988
0.004151310213
0.004151310016
0.004151310686
0.004151312609
0.004151318404
0.004151336634
0.004151391247
0.004151543142
0.004151927455
0.004152796275
0.00415130932
0.004151309964
0.004151309957
0.004151310258
0.004151310197
0.004151310198
0.004151311026
0.004151313459
0.004151322275
0.004151352477
0.004151446839
0.0041517233
0.004152459014
0.004154182374
0.004157591412
0.004151309579
0.004151309502
0.004151310177
0.004151310158
0.004151310083
0.004151310334
0.004151311273
0.004151315574
0.004151330948
0.004151385172
0.004151566811
0.004152132968
0.004153735547
0.004157675217
0.004165549753
0.004151310227
0.004151310141
0.004151309824
0.004151310234
0.004151309658
0.004151310103
0.004151311997
0.004151317979
0.004151341178
0.004151427472
0.004151732802
0.004152749713
0.004155832294
0.004163892386
0.004180406082
0.004151309644
0.004151309581
0.00415130981
0.004151310102
0.004151310085
0.004151310459
0.004151312051
0.004151319276
0.004151346263
0.004151451956
0.004151839676
0.004153195696
0.004157561715
0.004169768182
0.004195941992
0.00415130992
0.004151309596
0.004151309767
0.004151309432
0.004151309863
0.004151310006
0.00415131189
0.004151317623
0.004151340923
0.004151427382
0.004151732713
0.004152749486
0.004155832214
0.00416389193
0.004180404763
0.004151310112
0.004151310011
0.004151309819
0.004151309774
0.004151309966
0.004151310057
0.0041513113
0.004151315145
0.004151331125
0.004151384931
0.004151566535
0.004152132756
0.004153735399
0.004157674514
0.004165548951
0.004151309321
0.004151309671
0.004151309351
0.004151310344
0.004151310057
0.00415131042
0.004151311224
0.00415131392
0.004151322481
0.004151352023
0.004151446808
0.004151723174
0.004152459046
0.004154182127
0.004157589997
0.004151309584
0.004151309257
0.004151309815
0.004151309853
0.004151310073
0.004151309943
0.004151310199
0.004151312122
0.004151317799
0.004151336283
0.00415139142
0.004151542982
0.004151927017
0.004152795459
0.004154507534
0.004151309936
0.004151309685
0.004151309595
0.004151309741
0.004151309849
0.00415130982
0.004151311281
0.004151313979
0.00415132317
0.004151353808
0.004151448993
0.004151725477
0.004152455384
0.004154153861
0.0041513094
0.004151309309
0.004151309801
0.00415130985
0.00415130999
0.004151309773
0.004151311296
0.004151315158
0.004151331133
0.004151385441
0.004151566848
0.004152133227
0.004153736197
0.004157675998
0.004151310102
0.004151310004
0.004151309871
0.004151310067
0.004151309874
0.004151309982
0.004151311689
0.004151319094
0.004151347964
0.004151454678
0.004151843045
0.004153160477
0.004157228029
0.004168009932
0.00419019295
0.004151309621
0.004151309871
0.004151310026
0.004151309864
0.004151309544
0.004151310555
0.004151313362
0.004151323969
0.004151369237
0.004151553234
0.00415227462
0.00415495725
0.004164115736
0.004191028477
0.004250124248
0.004151309558
0.004151309998
0.00415130964
0.004151310031
0.004151309988
0.004151310743
0.00415131373
0.004151326961
0.004151382487
0.004151618687
0.004152600959
0.004156548091
0.004171461005
0.004221224049
0.004345248624
0.00415131
0.004151309868
0.004151309696
0.004151309973
0.004151309546
0.004151310146
0.004151312725
0.004151324282
0.00415136931
0.004151553706
0.004152274899
0.004154956967
0.004164115644
0.004191027019
0.004250119246
0.004151309508
0.004151309456
0.004151309135
0.004151309862
0.004151309631
0.004151310438
0.004151312384
0.004151319159
0.004151347701
0.004151454736
0.004151842288
0.004153160345
0.004157227866
0.004168008111
0.00419018779
0.004151309802
0.004151309767
0.004151309639
0.004151309774
0.004151309735
0.004151310032
0.004151311054
0.004151315263
0.004151330806
0.004151385112
0.00415156631
0.004152132685
0.004153735919
0.004157675075
0.004165548388
0.004151309697
0.004151309651
0.00415130973
0.004151310047
0.00415131023
0.004151310061
0.004151310861
0.004151313653
0.004151322472
0.004151353661
0.00415144865
0.004151725202
0.004152454406
0.004154153281
0.00415751033
0.004151309847
0.004151309942
0.004151309962
0.004151309769
0.004151309787
0.00415131014
0.004151311118
0.004151314789
0.004151328315
0.004151373321
0.004151520574
0.0041519656
0.004153192617
0.004156147243
0.004151310044
0.004151309857
0.004151310249
0.004151309638
0.004151309627
0.004151309981
0.004151311567
0.004151318047
0.00415134119
0.004151427553
0.004151732749
0.004152749979
0.004155833299
0.004163894756
0.00415130941
0.004151309645
0.004151309855
0.004151309729
0.004151309794
0.00415131052
0.004151313337
0.004151324404
0.00415136975
0.004151553632
0.004152274835
0.004154957415
0.004164116411
0.004191033749
0.004151309224
0.004151310058
0.004151310001
0.004151309863
0.004151309685
0.004151310828
0.004151314902
0.004151332343
0.004151409897
0.004151751346
0.004153235877
0.004159485379
0.004184191918
0.00427004618
0.004489787639
0.004151309343
0.0041513098
0.004151309675
0.004151309685
0.00415131013
0.004151311486
0.004151315811
0.004151337221
0.004151436112
0.004151901132
0.004154102089
0.00416453697
0.004213149236
0.004425262988
0.005162693808
0.004151309094
0.004151308989
0.004151309604
0.004151309826
0.00415130986
0.004151310806
0.0041513149
0.004151332255
0.004151409375
0.004151751303
0.004153236219
0.004159486195
0.00418419105
0.004270037822
0.004489750769
0.004151309524
0.004151309451
0.004151309759
0.004151309893
0.004151310037
0.004151310523
0.00415131316
0.00415132429
0.00415136977
0.004151553396
0.004152274447
0.00415495722
0.00416411561
0.004191027564
0.004250118935
0.004151309938
0.004151309758
0.004151309575
0.004151309766
0.004151309766
0.004151310531
0.004151312275
0.004151317708
0.004151340817
0.004151427357
0.004151732545
0.004152749511
0.004155832451
0.004163892017
0.004180404408
0.004151309542
0.004151309745
0.004151309797
0.004151309938
0.004151309987
0.004151310092
0.00415131143
0.004151314575
0.004151327808
0.004151373023
0.004151520018
0.004151964937
0.004153191601
0.004156145742
0.004162025922
0.004151310009
0.004151309857
0.004151309571
0.004151309634
0.004151309794
0.00415130992
0.004151311149
0.004151315338
0.004151330895
0.004151383935
0.004151560604
0.004152110999
0.004153677719
0.004157571743
0.004151309944
0.004151309917
0.004151309567
0.004151309541
0.004151309971
0.004151310093
0.00415131195
0.004151319306
0.004151347096
0.004151452212
0.00415183978
0.004153195789
0.004157562535
0.004169771898
0.004151309496
0.004151310213
0.004151309949
0.004151309095
0.004151309552
0.004151310236
0.004151313756
0.004151326807
0.004151382578
0.004151618775
0.004152600828
0.004156548187
0.004171463418
0.004221237478
0.004151309459
0.004151309666
0.004151309722
0.004151310173
0.004151309893
0.004151311
0.004151315399
0.004151336985
0.004151436049
0.004151901098
0.004154102258
0.004164537925
0.004213155519
0.004425305624
0.004151309519
0.004151309436
0.004151309286
0.004151309488
0.004151309409
0.004151311054
0.00415131661
0.004151343431
0.004151473993
0.004152141126
0.004155707103
0.004175884246
0.004297928686
0.005092465279
0.01070532219
0.004151309101
0.004151309405
0.004151309643
0.004151309926
0.004151309875
0.004151311115
0.00415131528
0.004151336926
0.004151435776
0.004151901145
0.00415410274
0.00416453772
0.004213151842
0.004425270685
0.005162700245
0.004151308875
0.004151309285
0.004151309634
0.004151309747
0.004151309977
0.00415131052
0.004151313496
0.004151326311
0.004151382654
0.004151618745
0.004152600865
0.004156547912
0.004171461331
0.004221226772
0.004345250634
0.004151309438
0.004151309543
0.004151309954
0.004151309766
0.004151310121
0.004151310197
0.004151311993
0.004151318974
0.004151346502
0.004151451748
0.004151839437
0.004153195587
0.004157561559
0.004169768988
0.004195942888
0.00415130929
0.004151309646
0.00415130985
0.004151310002
0.004151309695
0.004151310249
0.004151311509
0.004151315868
0.004151331034
0.004151383535
0.004151559986
0.004152110388
0.004153676657
0.004157570609
0.004165421155
0.004151310086
0.004151309932
0.004151310061
0.00415131013
0.004151309965
0.004151310164
0.004151310771
0.004151314592
0.004151328097
0.004151373117
0.004151520085
0.004151965707
0.004153192127
0.004156146355
0.004151310192
0.004151309964
0.004151309878
0.004151309734
0.004151309552
0.004151310115
0.004151311813
0.004151317949
0.004151341405
0.004151427509
0.004151732555
0.004152749308
0.004155833
0.004163894238
0.004151310116
0.004151309978
0.004151309929
0.004151309871
0.004151309452
0.004151310245
0.004151312944
0.004151323959
0.004151369319
0.004151553497
0.004152274383
0.004154956954
0.004164117227
0.004191035058
0.004151310154
0.00415130972
0.004151309339
0.004151309669
0.004151310028
0.004151311011
0.004151314712
0.00415133243
0.004151410045
0.004151751974
0.004153235743
0.004159486316
0.004184195443
0.004270059754
0.00415130927
0.004151309305
0.004151309575
0.004151309422
0.00415130968
0.004151311121
0.004151315521
0.004151337162
0.004151435921
0.004151900798
0.00415410251
0.004164538251
0.004213157701
0.004425311605
0.004151309283
0.004151309271
0.004151309223
0.004151309613
0.00415130977
0.004151310842
0.004151314693
0.004151332438
0.004151410186
0.004151751588
0.004153236379
0.004159486244
0.004184194309
0.004270056144
0.004151309276
0.004151309367
0.004151309706
0.004151309719
0.004151309713
0.004151310771
0.004151313238
0.004151324103
0.004151369911
0.004151553831
0.004152274841
0.004154957185
0.004164116257
0.00419103147
0.004250131894
0.004151309545
0.004151309557
0.004151309453
0.004151309765
0.004151309957
0.004151310338
0.004151311647
0.00415131801
0.004151340625
0.004151426586
0.004151732712
0.00415274983
0.004155832873
0.004163893124
0.004180406661
0.004151309355
0.004151309536
0.004151309498
0.004151309631
0.004151309395
0.004151309452
0.004151310722
0.004151314854
0.004151328107
0.004151373055
0.004151519749
0.004151964607
0.004153191315
0.004156145947
0.004162026932
0.00415130981
0.004151309869
0.004151309781
0.004151309856
0.004151309631
0.00415131009
0.004151310601
0.004151313763
0.004151323311
0.004151353787
0.004151448667
0.004151725429
0.004152454985
0.004154153706
0.004151309607
0.004151309529
0.004151309613
0.004151309837
0.004151309606
0.004151310164
0.004151311167
0.004151315597
0.004151330756
0.004151384894
0.004151566472
0.004152132845
0.004153735959
0.004157676326
0.004151309912
0.004151309714
0.004151309725
0.004151309732
0.004151310372
0.004151310695
0.004151312078
0.004151319399
0.004151347331
0.004151454071
0.004151842457
0.004153160729
0.004157228374
0.004168011037
0.004151309893
0.004151309672
0.004151309604
0.004151309845
0.004151310009
0.004151310741
0.004151313184
0.004151324688
0.004151369948
0.004151553772
0.004152274731
0.00415495716
0.004164117117
0.004191034953
0.00415130934
0.004151309558
0.004151309634
0.004151309583
0.004151309937
0.004151311008
0.004151313811
0.004151327251
0.004151382588
0.004151619022
0.004152600867
0.004156548679
0.00417146437
0.004221238187
0.004151309627
0.004151309611
0.004151309527
0.00415130982
0.004151310043
0.004151310513
0.00415131337
0.00415132429
0.004151370092
0.004151554
0.004152274454
0.004154957437
0.004164117015
0.004191034483
0.004151309559
0.00415130937
0.004151309338
0.004151309712
0.00415130997
0.004151310328
0.004151312178
0.004151319506
0.004151347362
0.004151454616
0.004151842187
0.004153160072
0.004157228504
0.004168011068
0.004151309381
0.004151309599
0.004151309722
0.004151309655
0.004151309757
0.004151309948
0.004151310945
0.004151315249
0.004151330613
0.004151385029
0.004151566634
0.004152132856
0.004153736075
0.004157675781
0.004165551042
0.004151309224
0.004151309214
0.004151309191
0.004151309337
0.004151309536
0.00415131004
0.004151310248
0.004151313263
0.004151322677
0.004151353374
0.004151448761
0.004151725444
0.004152454963
0.004154153757
0.004157510951
0.004151309535
0.004151309895
0.004151309464
0.004151309396
0.004151309737
0.004151310468
0.004151310459
0.004151312129
0.004151318222
0.004151336312
0.004151390868
0.004151542892
0.004151926783
0.004152796015
0.004151309681
0.004151309512
0.004151309759
0.004151309246
0.004151309149
0.004151309908
0.004151310636
0.004151313378
0.004151322269
0.004151351935
0.004151446576
0.004151723695
0.004152459066
0.004154182528
0.004151309566
0.004151309619
0.004151309513
0.004151309437
0.0041513096
0.004151310159
0.004151311237
0.0041513152
0.004151330426
0.0041513852
0.004151566729
0.004152132372
0.004153735575
0.004157675684
0.004151309318
0.004151309033
0.00415130971
0.004151309743
0.004151309845
0.004151310199
0.004151311623
0.004151318104
0.004151341089
0.004151427483
0.004151733091
0.004152749847
0.004155833066
0.004163894767
0.004151309658
0.00415130939
0.004151309601
0.004151309757
0.004151309952
0.004151310376
0.004151312257
0.004151319148
0.004151347118
0.004151451983
0.004151839527
0.004153195881
0.004157562744
0.004169772069
0.004151309343
0.004151309566
0.004151309782
0.004151309693
0.004151310051
0.004151310069
0.004151311567
0.004151318111
0.004151341278
0.004151427633
0.004151732727
0.004152750049
0.004155832862
0.004163894028
0.004151309534
0.004151309521
0.004151309705
0.0041513093
0.004151309091
0.004151309725
0.004151310788
0.00415131533
0.00415133071
0.004151385195
0.004151566751
0.004152132703
0.004153735871
0.00415767591
0.004151309109
0.004151308821
0.004151309341
0.004151309667
0.004151309879
0.004151309336
0.004151310298
0.004151313113
0.004151321978
0.004151351926
0.004151447066
0.00415172366
0.004152459622
0.004154183165
0.004151309359
0.004151309493
0.004151309565
0.004151309405
0.004151309837
0.004151309932
0.004151310413
0.00415131209
0.004151318311
0.004151336562
0.004151391551
0.004151543022
0.004151927509
0.004152796217
0.004154508688
0.004151309624
0.004151309557
0.004151309695
0.004151309593
0.004151309918
0.004151309732
0.004151310284
0.004151311423
0.004151315186
0.004151327446
0.004151361936
0.004151454637
0.004151680829
0.004152181908
0.004151309844
0.004151309877
0.004151309551
0.004151309469
0.004151309566
0.004151309679
0.00415131009
0.004151311852
0.00415131784
0.004151336351
0.004151390881
0.004151543227
0.00415192689
0.004152795763
0.004151309719
0.00415130961
0.004151309655
0.004151309533
0.004151309893
0.004151309768
0.00415131057
0.004151313434
0.004151322647
0.004151353065
0.004151448427
0.004151725244
0.004152455021
0.004154153641
0.004151309567
0.004151309594
0.004151309687
0.004151309652
0.004151309481
0.004151310127
0.004151310792
0.004151314448
0.004151327724
0.004151373223
0.004151520282
0.004151965381
0.004153192167
0.00415614696
0.004151309897
0.004151310217
0.004151310533
0.004151310208
0.004151310147
0.004151310388
0.004151311388
0.004151315282
0.004151330774
0.004151384017
0.004151560248
0.004152110877
0.004153677314
0.004157571796
0.004151309832
0.004151309696
0.004151310226
0.004151309662
0.004151310006
0.004151310106
0.004151311311
0.00415131507
0.004151328645
0.004151373826
0.004151520386
0.00415196593
0.004153192333
0.004156146771
0.004151309138
0.004151309375
0.0041513099
0.004151309734
0.004151309765
0.00415130963
0.004151310474
0.004151313154
0.004151322812
0.004151353381
0.004151448617
0.004151724951
0.004152454959
0.004154153813
0.004151309123
0.004151309201
0.004151309344
0.004151309437
0.004151309462
0.004151309017
0.00415131004
0.004151312028
0.004151317766
0.004151336434
0.004151391362
0.004151543497
0.004151927491
0.004152796517
0.004151309522
0.004151309479
0.004151309249
0.004151309275
0.00415130944
0.004151309818
0.004151310014
0.004151311456
0.00415131575
0.004151327828
0.004151362851
0.004151454907
0.004151681407
0.004152182094
)
;

boundaryField
{
    top
    {
        type            calculated;
        value           nonuniform List<scalar> 
134
(
0.00415130974
0.004151309584
0.004151309697
0.004151309542
0.00415130929
0.004151309355
0.004151309224
0.004151309359
0.004151309522
0.00415130984
0.004151309257
0.004151309651
0.004151309745
0.004151309646
0.004151309536
0.004151309214
0.004151309493
0.004151309479
0.004151309765
0.004151309815
0.00415130973
0.004151309797
0.00415130985
0.004151309498
0.004151309191
0.004151309565
0.004151309249
0.004151309617
0.004151309853
0.004151310047
0.004151309938
0.004151310002
0.004151309631
0.004151309337
0.004151309405
0.004151309275
0.004151310067
0.004151310073
0.00415131023
0.004151309987
0.004151309695
0.004151309395
0.004151309536
0.004151309837
0.00415130944
0.004151310002
0.004151309943
0.004151310061
0.004151310092
0.004151310249
0.004151309452
0.00415131004
0.004151309932
0.004151309818
0.004151310097
0.004151310199
0.004151310861
0.00415131143
0.004151311509
0.004151310722
0.004151310248
0.004151310413
0.004151310014
0.004151311194
0.004151312122
0.004151313653
0.004151314575
0.004151315868
0.004151314854
0.004151313263
0.00415131209
0.004151311456
0.004151315292
0.004151317799
0.004151322472
0.004151327808
0.004151331034
0.004151328107
0.004151322677
0.004151318311
0.00415131575
0.004151327242
0.004151336283
0.004151353661
0.004151373023
0.004151383535
0.004151373055
0.004151353374
0.004151336562
0.004151327828
0.00415136266
0.00415139142
0.00415144865
0.004151520018
0.004151559986
0.004151519749
0.004151448761
0.004151391551
0.004151362851
0.004151454563
0.004151542982
0.004151725202
0.004151964937
0.004152110388
0.004151964607
0.004151725444
0.004151543022
0.004151454907
0.004151680991
0.004151927017
0.004152454406
0.004153191601
0.004153676657
0.004153191315
0.004152454963
0.004151927509
0.004151681407
0.004152181515
0.004152795459
0.004154153281
0.004156145742
0.004157570609
0.004156145947
0.004154153757
0.004152796217
0.004152182094
0.004153168271
0.004154507534
0.00415751033
0.004162025922
0.004165421155
0.004162026932
0.004157510951
0.004154508688
)
;
    }
    bottom
    {
        type            calculated;
        value           nonuniform List<scalar> 
127
(
0.004151309902
0.004151309955
0.004151309936
0.004151309847
0.004151310009
0.004151310086
0.00415130981
0.004151309535
0.004151309624
0.00415130984
0.004151310158
0.004151309685
0.004151309942
0.004151309857
0.004151309932
0.004151309869
0.004151309895
0.004151309557
0.004151309686
0.004151310211
0.004151309595
0.004151309962
0.004151309571
0.004151310061
0.004151309781
0.004151309464
0.004151309695
0.004151310063
0.004151309988
0.004151309741
0.004151309769
0.004151309634
0.00415131013
0.004151309856
0.004151309396
0.004151309593
0.004151310042
0.004151310213
0.004151309849
0.004151309787
0.004151309794
0.004151309965
0.004151309631
0.004151309737
0.004151309918
0.004151310453
0.004151310016
0.00415130982
0.00415131014
0.00415130992
0.004151310164
0.00415131009
0.004151310468
0.004151309732
0.004151310445
0.004151310686
0.004151311281
0.004151311118
0.004151311149
0.004151310771
0.004151310601
0.004151310459
0.004151310284
0.004151311451
0.004151312609
0.004151313979
0.004151314789
0.004151315338
0.004151314592
0.004151313763
0.004151312129
0.004151311423
0.004151315635
0.004151318404
0.00415132317
0.004151328315
0.004151330895
0.004151328097
0.004151323311
0.004151318222
0.004151315186
0.004151328025
0.004151336634
0.004151353808
0.004151373321
0.004151383935
0.004151373117
0.004151353787
0.004151336312
0.004151327446
0.004151362731
0.004151391247
0.004151448993
0.004151520574
0.004151560604
0.004151520085
0.004151448667
0.004151390868
0.004151361936
0.004151455257
0.004151543142
0.004151725477
0.0041519656
0.004152110999
0.004151965707
0.004151725429
0.004151542892
0.004151454637
0.004151681409
0.004151927455
0.004152455384
0.004153192617
0.004153677719
0.004153192127
0.004152454985
0.004151926783
0.004151680829
0.00415218186
0.004152796275
0.004154153861
0.004156147243
0.004157571743
0.004156146355
0.004154153706
0.004152796015
0.004152181908
0.004153169146
)
;
    }
    side-walls
    {
        type            calculated;
        value           nonuniform List<scalar> 
261
(
0.004151309902
0.004151310081
0.004151309866
0.004151309854
0.004151309606
0.00415130956
0.004151309604
0.004151309427
0.00415130974
0.00415130984
0.004151309763
0.004151309936
0.004151310001
0.004151309975
0.004151309517
0.004151309697
0.004151309716
0.00415130984
0.004151309686
0.004151310136
0.004151309852
0.004151309577
0.004151309805
0.004151310064
0.004151309898
0.004151309646
0.004151309765
0.004151310063
0.004151310189
0.004151310255
0.00415130972
0.004151309658
0.004151309736
0.004151309307
0.0041513096
0.004151309617
0.004151310042
0.004151309739
0.004151309963
0.004151310011
0.004151310155
0.004151309919
0.004151309553
0.004151310123
0.004151310067
0.004151310453
0.004151310093
0.004151310257
0.004151310332
0.004151310677
0.004151310553
0.004151309754
0.004151310127
0.004151310002
0.004151310445
0.004151310374
0.004151311049
0.004151311404
0.004151311459
0.004151311191
0.00415131045
0.004151310569
0.004151310097
0.004151311451
0.00415131252
0.004151313778
0.004151315003
0.004151315517
0.00415131477
0.004151313896
0.00415131171
0.004151311194
0.004151315635
0.004151318284
0.004151322905
0.004151328436
0.004151330804
0.004151328155
0.004151322672
0.004151318029
0.004151315292
0.004151328025
0.004151336706
0.004151353777
0.004151373973
0.004151383795
0.004151373717
0.004151353264
0.004151336489
0.004151327242
0.004151362731
0.004151391741
0.004151448752
0.004151520389
0.004151560419
0.0041515204
0.004151448999
0.004151391215
0.00415136266
0.004151455257
0.004151543519
0.004151725579
0.004151966
0.004152110477
0.00415196579
0.004151725307
0.00415154266
0.004151454563
0.004151681409
0.004151927376
0.004152455284
0.004153191942
0.00415367693
0.004153191971
0.004152454875
0.004151927069
0.004151680991
0.00415218186
0.004152796134
0.004154153565
0.004156145473
0.004157570278
0.004156145754
0.004154153466
0.004152795627
0.004152181515
0.004153169146
0.004154508445
0.004157510573
0.004162026635
0.004165420985
0.004162026309
0.004157510467
0.00415450777
0.004153168271
0.004151309624
0.004151309844
0.004151309719
0.004151309567
0.004151309897
0.004151309832
0.004151309138
0.004151309123
0.004151309522
0.004151309557
0.004151309877
0.00415130961
0.004151309594
0.004151310217
0.004151309696
0.004151309375
0.004151309201
0.004151309479
0.004151309695
0.004151309551
0.004151309655
0.004151309687
0.004151310533
0.004151310226
0.0041513099
0.004151309344
0.004151309249
0.004151309593
0.004151309469
0.004151309533
0.004151309652
0.004151310208
0.004151309662
0.004151309734
0.004151309437
0.004151309275
0.004151309918
0.004151309566
0.004151309893
0.004151309481
0.004151310147
0.004151310006
0.004151309765
0.004151309462
0.00415130944
0.004151309732
0.004151309679
0.004151309768
0.004151310127
0.004151310388
0.004151310106
0.00415130963
0.004151309017
0.004151309818
0.004151310284
0.00415131009
0.00415131057
0.004151310792
0.004151311388
0.004151311311
0.004151310474
0.00415131004
0.004151310014
0.004151311423
0.004151311852
0.004151313434
0.004151314448
0.004151315282
0.00415131507
0.004151313154
0.004151312028
0.004151311456
0.004151315186
0.00415131784
0.004151322647
0.004151327724
0.004151330774
0.004151328645
0.004151322812
0.004151317766
0.00415131575
0.004151327446
0.004151336351
0.004151353065
0.004151373223
0.004151384017
0.004151373826
0.004151353381
0.004151336434
0.004151327828
0.004151361936
0.004151390881
0.004151448427
0.004151520282
0.004151560248
0.004151520386
0.004151448617
0.004151391362
0.004151362851
0.004151454637
0.004151543227
0.004151725244
0.004151965381
0.004152110877
0.00415196593
0.004151724951
0.004151543497
0.004151454907
0.004151680829
0.00415192689
0.004152455021
0.004153192167
0.004153677314
0.004153192333
0.004152454959
0.004151927491
0.004151681407
0.004152181908
0.004152795763
0.004154153641
0.00415614696
0.004157571796
0.004156146771
0.004154153813
0.004152796517
0.004152182094
)
;
    }
    inlet
    {
        type            calculated;
        value           nonuniform List<scalar> 
81
(
0.004151309902
0.004151310081
0.004151309866
0.004151309854
0.004151309606
0.00415130956
0.004151309604
0.004151309427
0.00415130974
0.004151309955
0.00415130932
0.004151309579
0.004151310227
0.004151309644
0.00415130992
0.004151310112
0.004151309321
0.004151309584
0.004151309936
0.0041513094
0.004151310102
0.004151309621
0.004151309558
0.00415131
0.004151309508
0.004151309802
0.004151309697
0.004151309847
0.004151310044
0.00415130941
0.004151309224
0.004151309343
0.004151309094
0.004151309524
0.004151309938
0.004151309542
0.004151310009
0.004151309944
0.004151309496
0.004151309459
0.004151309519
0.004151309101
0.004151308875
0.004151309438
0.00415130929
0.004151310086
0.004151310192
0.004151310116
0.004151310154
0.00415130927
0.004151309283
0.004151309276
0.004151309545
0.004151309355
0.00415130981
0.004151309607
0.004151309912
0.004151309893
0.00415130934
0.004151309627
0.004151309559
0.004151309381
0.004151309224
0.004151309535
0.004151309681
0.004151309566
0.004151309318
0.004151309658
0.004151309343
0.004151309534
0.004151309109
0.004151309359
0.004151309624
0.004151309844
0.004151309719
0.004151309567
0.004151309897
0.004151309832
0.004151309138
0.004151309123
0.004151309522
)
;
    }
    outlet
    {
        type            calculated;
        value           nonuniform 0();
    }
    procBoundary0to1
    {
        type            processor;
        value           nonuniform List<scalar> 
97
(
0.00415488904
0.004154508712
0.004157408035
0.004162979775
0.004171155114
0.004177003519
0.004171155158
0.004162979196
0.004157407437
0.004154888445
0.004154508712
0.004154508712
0.004163097519
0.004165550847
0.004177431296
0.004202949225
0.004227069091
0.004202947751
0.004177430836
0.004163096929
0.004157407186
0.00415751098
0.004165550847
0.004165550847
0.004219846038
0.0042501341
0.004314347222
0.004438360304
0.004314342903
0.004219842652
0.004177430197
0.00416297897
0.004162027204
0.004180407494
0.0042501341
0.0042501341
0.004638873541
0.005162829166
0.005277143826
0.004638857899
0.00431434334
0.004202947488
0.004171154431
0.004165422224
0.004195945659
0.004345268625
0.005162829166
0.005162829166
0.008035495162
0.005162825659
0.005277143383
0.004489786917
0.004438361872
0.004227069936
0.004177003206
0.004162027016
0.004180406884
0.004250127342
0.004489781563
0.005162825659
0.004489786917
0.004489786917
0.004314347176
0.004190193155
0.004202949792
0.004171155454
0.004157510388
0.004165549439
0.004190190895
0.004250127554
0.00434526893
0.004250127448
0.004190193155
0.004190193155
0.004177431805
0.004157591437
0.004162979853
0.004154508108
0.004157590324
0.004165549733
0.004180407111
0.004195945742
0.004180406977
0.004165550606
0.004157591437
0.004157591437
0.004157408012
0.004153168814
0.004153168476
0.004154507623
0.004157510353
0.004162026991
0.004165422079
0.004162027027
0.004157510543
0.004154508283
0.004153168814
)
;
    }
}


// ************************************************************************* //
