/*--------------------------------*- C++ -*----------------------------------*\
| =========                 |                                                 |
| \\      /  F ield         | OpenFOAM: The Open Source CFD Toolbox           |
|  \\    /   O peration     | Version:  4.x                                   |
|   \\  /    A nd           | Web:      www.OpenFOAM.org                      |
|    \\/     M anipulation  |                                                 |
\*---------------------------------------------------------------------------*/
FoamFile
{
    version     2.0;
    format      ascii;
    class       volScalarField;
    location    "6000";
    object      CO;
}
// * * * * * * * * * * * * * * * * * * * * * * * * * * * * * * * * * * * * * //

dimensions      [0 0 0 0 0 0 0];

internalField   nonuniform List<scalar> 
1175
(
0.3315827251
0.3315827251
0.3315827251
0.331582725
0.331582725
0.3315827249
0.3315827247
0.3315827237
0.3315827209
0.3315827122
0.3315826876
0.3315826224
0.3315824637
0.3315821135
0.3315814258
0.3315827251
0.3315827251
0.3315827251
0.331582725
0.331582725
0.3315827249
0.3315827245
0.3315827233
0.3315827191
0.331582706
0.3315826674
0.3315825609
0.3315822924
0.3315816874
0.3315804989
0.3315827251
0.3315827251
0.3315827251
0.331582725
0.331582725
0.3315827248
0.3315827243
0.3315827224
0.3315827158
0.3315826942
0.3315826272
0.3315824339
0.3315819257
0.3315807472
0.3315784264
0.3315827251
0.3315827251
0.3315827251
0.331582725
0.331582725
0.3315827248
0.3315827241
0.3315827214
0.3315827121
0.3315826802
0.3315825774
0.331582267
0.3315814154
0.331579372
0.3315753189
0.3315827251
0.3315827251
0.3315827251
0.331582725
0.331582725
0.3315827248
0.331582724
0.331582721
0.3315827102
0.331582673
0.3315825496
0.3315821664
0.3315810803
0.3315783919
0.331572992
0.3315827251
0.3315827251
0.3315827251
0.331582725
0.331582725
0.3315827248
0.3315827241
0.3315827214
0.3315827121
0.3315826802
0.3315825774
0.331582267
0.3315814154
0.331579372
0.331575319
0.3315827251
0.3315827251
0.3315827251
0.331582725
0.331582725
0.3315827248
0.3315827243
0.3315827224
0.3315827158
0.3315826942
0.3315826272
0.3315824339
0.3315819257
0.3315807472
0.3315784264
0.3315827251
0.3315827251
0.3315827251
0.331582725
0.331582725
0.3315827249
0.3315827245
0.3315827233
0.3315827191
0.331582706
0.3315826674
0.3315825609
0.3315822924
0.3315816874
0.3315804989
0.3315827251
0.3315827251
0.3315827251
0.331582725
0.331582725
0.3315827249
0.3315827247
0.3315827237
0.3315827209
0.3315827122
0.3315826876
0.3315826224
0.3315824637
0.3315821136
0.3315814258
0.3315827251
0.3315827251
0.3315827251
0.331582725
0.331582725
0.3315827249
0.3315827245
0.3315827233
0.3315827191
0.331582706
0.3315826674
0.3315825609
0.3315822924
0.3315816874
0.3315827251
0.3315827251
0.3315827251
0.331582725
0.331582725
0.3315827249
0.3315827243
0.3315827225
0.331582716
0.3315826948
0.3315826285
0.3315824353
0.3315819233
0.3315807285
0.3315783734
0.3315827251
0.3315827251
0.3315827251
0.331582725
0.331582725
0.3315827248
0.331582724
0.331582721
0.3315827101
0.331582672
0.3315825452
0.331582151
0.3315810399
0.3315783196
0.3315729019
0.3315827251
0.3315827251
0.3315827251
0.331582725
0.331582725
0.3315827247
0.3315827236
0.3315827193
0.3315827029
0.3315826426
0.3315824298
0.331581724
0.3315795937
0.3315740463
0.3315627247
0.3315827251
0.3315827251
0.331582725
0.331582725
0.331582725
0.3315827246
0.3315827234
0.3315827184
0.331582699
0.3315826255
0.3315823558
0.3315814163
0.3315784055
0.3315700229
0.3315521242
0.3315827251
0.3315827251
0.3315827251
0.331582725
0.331582725
0.3315827247
0.3315827236
0.3315827193
0.3315827029
0.3315826426
0.3315824298
0.331581724
0.3315795937
0.3315740464
0.3315627248
0.3315827251
0.3315827251
0.3315827251
0.331582725
0.331582725
0.3315827248
0.331582724
0.331582721
0.3315827101
0.331582672
0.3315825452
0.3315821511
0.33158104
0.3315783196
0.3315729021
0.3315827251
0.3315827251
0.3315827251
0.331582725
0.331582725
0.3315827249
0.3315827243
0.3315827225
0.331582716
0.3315826948
0.3315826285
0.3315824353
0.3315819233
0.3315807285
0.3315783736
0.3315827251
0.3315827251
0.3315827251
0.331582725
0.331582725
0.3315827249
0.3315827245
0.3315827233
0.3315827191
0.331582706
0.3315826674
0.3315825609
0.3315822924
0.3315816874
0.3315804989
0.3315827251
0.3315827251
0.3315827251
0.331582725
0.331582725
0.3315827248
0.3315827243
0.3315827224
0.3315827158
0.3315826942
0.3315826272
0.3315824339
0.3315819257
0.3315807472
0.3315827251
0.3315827251
0.3315827251
0.331582725
0.331582725
0.3315827248
0.331582724
0.331582721
0.3315827101
0.331582672
0.3315825452
0.331582151
0.3315810399
0.3315783195
0.3315827251
0.3315827251
0.331582725
0.331582725
0.331582725
0.3315827246
0.3315827233
0.3315827182
0.3315826983
0.3315826235
0.3315823535
0.3315814399
0.3315786315
0.3315712173
0.3315560221
0.3315827251
0.3315827251
0.331582725
0.331582725
0.3315827249
0.3315827245
0.3315827226
0.3315827149
0.331582683
0.3315825547
0.3315820544
0.3315802007
0.331573898
0.3315554525
0.3315151167
0.3315827251
0.3315827251
0.331582725
0.331582725
0.3315827249
0.3315827244
0.3315827222
0.331582713
0.331582674
0.3315825095
0.3315818294
0.3315791075
0.3315688687
0.3315348495
0.33145045
0.3315827251
0.3315827251
0.331582725
0.331582725
0.3315827249
0.3315827245
0.3315827226
0.3315827149
0.331582683
0.3315825547
0.3315820544
0.3315802007
0.3315738981
0.3315554529
0.3315151177
0.3315827251
0.3315827251
0.331582725
0.331582725
0.331582725
0.3315827246
0.3315827233
0.3315827182
0.3315826983
0.3315826235
0.3315823536
0.3315814399
0.3315786316
0.3315712176
0.331556023
0.3315827251
0.3315827251
0.3315827251
0.331582725
0.331582725
0.3315827248
0.331582724
0.331582721
0.3315827101
0.331582672
0.3315825452
0.3315821511
0.33158104
0.3315783196
0.3315729021
0.3315827251
0.3315827251
0.3315827251
0.331582725
0.331582725
0.3315827248
0.3315827243
0.3315827224
0.3315827158
0.3315826942
0.3315826272
0.3315824339
0.3315819257
0.3315807472
0.3315784264
0.3315827251
0.3315827251
0.3315827251
0.331582725
0.331582725
0.3315827248
0.3315827241
0.3315827214
0.3315827121
0.3315826802
0.3315825774
0.331582267
0.3315814154
0.3315793719
0.3315827251
0.3315827251
0.3315827251
0.331582725
0.331582725
0.3315827247
0.3315827236
0.3315827193
0.3315827029
0.3315826426
0.3315824298
0.331581724
0.3315795936
0.3315740461
0.3315827251
0.3315827251
0.331582725
0.331582725
0.3315827249
0.3315827245
0.3315827226
0.3315827149
0.331582683
0.3315825547
0.3315820544
0.3315802007
0.3315738979
0.3315554518
0.3315827251
0.3315827251
0.331582725
0.331582725
0.3315827249
0.3315827242
0.3315827215
0.3315827092
0.3315826551
0.3315824175
0.3315813906
0.3315770865
0.3315601439
0.3315015117
0.3313520981
0.3315827251
0.3315827251
0.331582725
0.331582725
0.3315827248
0.3315827241
0.3315827208
0.3315827059
0.3315826368
0.3315823143
0.3315807949
0.3315736266
0.3315403789
0.331395931
0.3308961807
0.3315827251
0.3315827251
0.331582725
0.331582725
0.3315827249
0.3315827242
0.3315827215
0.3315827092
0.3315826551
0.3315824175
0.3315813906
0.3315770866
0.3315601442
0.3315015132
0.3313521041
0.3315827251
0.3315827251
0.331582725
0.331582725
0.3315827249
0.3315827245
0.3315827226
0.3315827149
0.331582683
0.3315825547
0.3315820544
0.3315802007
0.3315738981
0.3315554528
0.3315151176
0.3315827251
0.3315827251
0.3315827251
0.331582725
0.331582725
0.3315827247
0.3315827236
0.3315827193
0.3315827029
0.3315826426
0.3315824298
0.331581724
0.3315795937
0.3315740464
0.3315627248
0.3315827251
0.3315827251
0.3315827251
0.331582725
0.331582725
0.3315827248
0.3315827241
0.3315827214
0.3315827121
0.3315826802
0.3315825774
0.331582267
0.3315814154
0.331579372
0.3315753189
0.3315827251
0.3315827251
0.3315827251
0.331582725
0.331582725
0.3315827248
0.331582724
0.331582721
0.3315827102
0.331582673
0.3315825495
0.3315821663
0.3315810802
0.3315783918
0.3315827251
0.3315827251
0.331582725
0.331582725
0.331582725
0.3315827246
0.3315827234
0.3315827184
0.331582699
0.3315826255
0.3315823558
0.3315814163
0.3315784053
0.3315700225
0.3315827251
0.3315827251
0.331582725
0.331582725
0.3315827249
0.3315827244
0.3315827222
0.331582713
0.331582674
0.3315825095
0.3315818293
0.3315791074
0.3315688683
0.3315348478
0.3315827251
0.3315827251
0.331582725
0.331582725
0.3315827248
0.3315827241
0.3315827208
0.3315827059
0.3315826368
0.3315823143
0.3315807949
0.3315736264
0.331540378
0.3313959247
0.3315827251
0.3315827251
0.331582725
0.331582725
0.3315827248
0.331582724
0.3315827201
0.3315827015
0.3315826106
0.331582149
0.3315796946
0.3315658752
0.3314826721
0.3309434745
0.3271634297
0.3315827251
0.3315827251
0.331582725
0.331582725
0.3315827248
0.3315827241
0.3315827208
0.3315827059
0.3315826368
0.3315823143
0.3315807949
0.3315736265
0.3315403786
0.3313959301
0.3308961791
0.3315827251
0.3315827251
0.331582725
0.331582725
0.3315827249
0.3315827244
0.3315827222
0.331582713
0.331582674
0.3315825095
0.3315818294
0.3315791075
0.3315688687
0.3315348494
0.3314504499
0.3315827251
0.3315827251
0.331582725
0.331582725
0.331582725
0.3315827246
0.3315827234
0.3315827184
0.331582699
0.3315826255
0.3315823558
0.3315814163
0.3315784054
0.3315700229
0.3315521242
0.3315827251
0.3315827251
0.3315827251
0.331582725
0.331582725
0.3315827248
0.331582724
0.331582721
0.3315827102
0.331582673
0.3315825496
0.3315821664
0.3315810803
0.3315783919
0.331572992
0.3315827251
0.3315827251
0.3315827251
0.331582725
0.331582725
0.3315827248
0.3315827241
0.3315827214
0.3315827121
0.3315826802
0.3315825774
0.331582267
0.3315814154
0.3315793719
0.3315827251
0.3315827251
0.3315827251
0.331582725
0.331582725
0.3315827247
0.3315827236
0.3315827193
0.3315827029
0.3315826426
0.3315824298
0.331581724
0.3315795936
0.3315740461
0.3315827251
0.3315827251
0.331582725
0.331582725
0.3315827249
0.3315827245
0.3315827226
0.3315827149
0.331582683
0.3315825547
0.3315820544
0.3315802006
0.3315738978
0.3315554519
0.3315827251
0.3315827251
0.331582725
0.331582725
0.3315827249
0.3315827242
0.3315827215
0.3315827092
0.3315826551
0.3315824175
0.3315813905
0.3315770865
0.3315601435
0.3315015104
0.3315827251
0.3315827251
0.331582725
0.331582725
0.3315827248
0.3315827241
0.3315827208
0.3315827059
0.3315826368
0.3315823143
0.3315807949
0.3315736264
0.3315403779
0.3313959244
0.3315827251
0.3315827251
0.331582725
0.331582725
0.3315827249
0.3315827242
0.3315827215
0.3315827092
0.3315826551
0.3315824175
0.3315813905
0.3315770865
0.3315601436
0.3315015107
0.3315827251
0.3315827251
0.331582725
0.331582725
0.3315827249
0.3315827245
0.3315827226
0.3315827149
0.331582683
0.3315825547
0.3315820544
0.3315802007
0.3315738979
0.3315554522
0.3315151158
0.3315827251
0.3315827251
0.3315827251
0.331582725
0.331582725
0.3315827247
0.3315827236
0.3315827193
0.3315827029
0.3315826426
0.3315824298
0.331581724
0.3315795937
0.3315740463
0.3315627245
0.3315827251
0.3315827251
0.3315827251
0.331582725
0.331582725
0.3315827248
0.3315827241
0.3315827214
0.3315827121
0.3315826802
0.3315825774
0.331582267
0.3315814154
0.331579372
0.3315753189
0.3315827251
0.3315827251
0.3315827251
0.331582725
0.331582725
0.3315827248
0.3315827243
0.3315827224
0.3315827158
0.3315826942
0.3315826272
0.3315824339
0.3315819257
0.3315807472
0.3315827251
0.3315827251
0.3315827251
0.331582725
0.331582725
0.3315827248
0.331582724
0.331582721
0.3315827101
0.331582672
0.3315825452
0.331582151
0.3315810399
0.3315783195
0.3315827251
0.3315827251
0.331582725
0.331582725
0.331582725
0.3315827246
0.3315827233
0.3315827182
0.3315826983
0.3315826235
0.3315823535
0.3315814398
0.3315786315
0.3315712172
0.3315827251
0.3315827251
0.331582725
0.331582725
0.3315827249
0.3315827245
0.3315827226
0.3315827149
0.331582683
0.3315825547
0.3315820544
0.3315802006
0.3315738978
0.3315554519
0.3315827251
0.3315827251
0.331582725
0.331582725
0.3315827249
0.3315827244
0.3315827222
0.331582713
0.331582674
0.3315825095
0.3315818293
0.3315791075
0.3315688684
0.331534848
0.3315827251
0.3315827251
0.331582725
0.331582725
0.3315827249
0.3315827245
0.3315827226
0.3315827149
0.331582683
0.3315825547
0.3315820544
0.3315802006
0.3315738978
0.331555452
0.3315827251
0.3315827251
0.331582725
0.331582725
0.331582725
0.3315827246
0.3315827233
0.3315827182
0.3315826983
0.3315826235
0.3315823535
0.3315814399
0.3315786315
0.3315712172
0.3315827251
0.3315827251
0.3315827251
0.331582725
0.331582725
0.3315827248
0.331582724
0.331582721
0.3315827101
0.331582672
0.3315825452
0.331582151
0.3315810399
0.3315783195
0.3315729018
0.3315827251
0.3315827251
0.3315827251
0.331582725
0.331582725
0.3315827248
0.3315827243
0.3315827224
0.3315827158
0.3315826942
0.3315826272
0.3315824339
0.3315819257
0.3315807472
0.3315784263
0.3315827251
0.3315827251
0.3315827251
0.331582725
0.331582725
0.3315827249
0.3315827245
0.3315827233
0.3315827191
0.331582706
0.3315826674
0.3315825609
0.3315822924
0.3315816874
0.3315827251
0.3315827251
0.3315827251
0.331582725
0.331582725
0.3315827249
0.3315827243
0.3315827225
0.331582716
0.3315826948
0.3315826285
0.3315824353
0.3315819233
0.3315807285
0.3315827251
0.3315827251
0.3315827251
0.331582725
0.331582725
0.3315827248
0.331582724
0.331582721
0.3315827101
0.331582672
0.3315825452
0.331582151
0.3315810399
0.3315783195
0.3315827251
0.3315827251
0.3315827251
0.331582725
0.331582725
0.3315827247
0.3315827236
0.3315827193
0.3315827029
0.3315826426
0.3315824298
0.331581724
0.3315795936
0.3315740461
0.3315827251
0.3315827251
0.331582725
0.331582725
0.331582725
0.3315827246
0.3315827234
0.3315827184
0.331582699
0.3315826255
0.3315823558
0.3315814163
0.3315784053
0.3315700225
0.3315827251
0.3315827251
0.3315827251
0.331582725
0.331582725
0.3315827247
0.3315827236
0.3315827193
0.3315827029
0.3315826426
0.3315824298
0.331581724
0.3315795936
0.3315740461
0.3315827251
0.3315827251
0.3315827251
0.331582725
0.331582725
0.3315827248
0.331582724
0.331582721
0.3315827101
0.331582672
0.3315825452
0.331582151
0.3315810399
0.3315783195
0.3315827251
0.3315827251
0.3315827251
0.331582725
0.331582725
0.3315827249
0.3315827243
0.3315827225
0.331582716
0.3315826948
0.3315826285
0.3315824353
0.3315819233
0.3315807284
0.3315827251
0.3315827251
0.3315827251
0.331582725
0.331582725
0.3315827249
0.3315827245
0.3315827233
0.3315827191
0.331582706
0.3315826674
0.3315825609
0.3315822924
0.3315816874
0.3315804988
0.3315827251
0.3315827251
0.3315827251
0.331582725
0.331582725
0.3315827249
0.3315827247
0.3315827237
0.3315827209
0.3315827122
0.3315826876
0.3315826224
0.3315824636
0.3315821135
0.3315827251
0.3315827251
0.3315827251
0.331582725
0.331582725
0.3315827249
0.3315827245
0.3315827233
0.3315827191
0.331582706
0.3315826674
0.3315825609
0.3315822924
0.3315816874
0.3315827251
0.3315827251
0.3315827251
0.331582725
0.331582725
0.3315827248
0.3315827243
0.3315827224
0.3315827158
0.3315826942
0.3315826272
0.3315824339
0.3315819257
0.3315807472
0.3315827251
0.3315827251
0.3315827251
0.331582725
0.331582725
0.3315827248
0.3315827241
0.3315827214
0.3315827121
0.3315826802
0.3315825774
0.331582267
0.3315814153
0.3315793719
0.3315827251
0.3315827251
0.3315827251
0.331582725
0.331582725
0.3315827248
0.331582724
0.331582721
0.3315827102
0.331582673
0.3315825495
0.3315821663
0.3315810802
0.3315783918
0.3315827251
0.3315827251
0.3315827251
0.331582725
0.331582725
0.3315827248
0.3315827241
0.3315827214
0.3315827121
0.3315826802
0.3315825774
0.331582267
0.3315814153
0.3315793719
0.3315827251
0.3315827251
0.3315827251
0.331582725
0.331582725
0.3315827248
0.3315827243
0.3315827224
0.3315827158
0.3315826942
0.3315826272
0.3315824339
0.3315819257
0.3315807472
0.3315827251
0.3315827251
0.3315827251
0.331582725
0.331582725
0.3315827249
0.3315827245
0.3315827233
0.3315827191
0.331582706
0.3315826674
0.3315825609
0.3315822924
0.3315816874
0.3315827251
0.3315827251
0.3315827251
0.331582725
0.331582725
0.3315827249
0.3315827247
0.3315827237
0.3315827209
0.3315827122
0.3315826876
0.3315826224
0.3315824636
0.3315821135
)
;

boundaryField
{
    top
    {
        type            zeroGradient;
    }
    bottom
    {
        type            zeroGradient;
    }
    side-walls
    {
        type            zeroGradient;
    }
    inlet
    {
        type            zeroGradient;
    }
    outlet
    {
        type            zeroGradient;
    }
    procBoundary0to1
    {
        type            processor;
        value           nonuniform List<scalar> 
97
(
0.3315802304
0.3315804988
0.3315784918
0.3315746562
0.3315690456
0.3315650471
0.3315690457
0.3315746563
0.3315784919
0.3315802305
0.3315804988
0.3315804988
0.3315745798
0.3315729018
0.3315647517
0.3315473169
0.3315309014
0.331547317
0.3315647519
0.3315745799
0.3315784919
0.3315784263
0.3315729018
0.3315729018
0.3315357743
0.3315151153
0.3314714463
0.3313873689
0.3314714473
0.3315357751
0.3315647519
0.3315746563
0.3315753188
0.3315627244
0.3315151153
0.3315151153
0.3312512961
0.3308961714
0.3308201797
0.3312512996
0.3314714472
0.331547317
0.3315690456
0.3315729919
0.3315521238
0.3314504481
0.3308961714
0.3308961714
0.3289667701
0.3308961719
0.3308201796
0.3313521008
0.331387369
0.3315309015
0.3315650472
0.3315753189
0.3315627246
0.3315151167
0.3313521015
0.3308961719
0.3313521008
0.3313521008
0.3314714463
0.3315560222
0.3315473168
0.3315690456
0.3315784264
0.331572902
0.3315560226
0.3315151167
0.3314504489
0.3315151169
0.3315560222
0.3315560222
0.3315647517
0.3315783735
0.3315746562
0.3315804989
0.3315783736
0.331572902
0.3315627246
0.3315521239
0.3315627246
0.331572902
0.3315783735
0.3315783735
0.3315784918
0.3315814258
0.3315814258
0.3315804989
0.3315784264
0.3315753189
0.3315729919
0.3315753189
0.3315784264
0.3315804989
0.3315814258
)
;
    }
}


// ************************************************************************* //
