/*--------------------------------*- C++ -*----------------------------------*\
| =========                 |                                                 |
| \\      /  F ield         | OpenFOAM: The Open Source CFD Toolbox           |
|  \\    /   O peration     | Version:  4.x                                   |
|   \\  /    A nd           | Web:      www.OpenFOAM.org                      |
|    \\/     M anipulation  |                                                 |
\*---------------------------------------------------------------------------*/
FoamFile
{
    version     2.0;
    format      ascii;
    class       volScalarField;
    location    "6000";
    object      CO2;
}
// * * * * * * * * * * * * * * * * * * * * * * * * * * * * * * * * * * * * * //

dimensions      [0 0 0 0 0 0 0];

internalField   nonuniform List<scalar> 
1175
(
0.06314985531
0.06314985531
0.06314985531
0.06314985532
0.06314985535
0.06314985545
0.06314985578
0.06314985688
0.06314986033
0.06314987069
0.06314990009
0.06314997799
0.06315016782
0.06315058636
0.06315140859
0.06314985531
0.06314985531
0.06314985531
0.06314985532
0.06314985536
0.06314985549
0.06314985594
0.06314985747
0.06314986246
0.06314987808
0.06314992427
0.0631500516
0.06315037259
0.06315109584
0.06315251666
0.06314985531
0.06314985531
0.06314985531
0.06314985533
0.06314985537
0.06314985556
0.06314985621
0.06314985852
0.06314986641
0.06314989223
0.06314997227
0.0631502034
0.0631508109
0.06315221976
0.06315499423
0.06314985531
0.06314985531
0.06314985531
0.06314985533
0.06314985539
0.06314985563
0.0631498565
0.06314985966
0.06314987085
0.0631499089
0.06315003186
0.06315040291
0.06315142099
0.06315386381
0.0631587091
0.06314985531
0.06314985531
0.06314985531
0.06314985533
0.0631498554
0.06314985566
0.06314985662
0.0631498602
0.06314987304
0.0631499176
0.06315006512
0.06315052323
0.06315182159
0.06315503547
0.06316149084
0.06314985531
0.06314985531
0.06314985531
0.06314985533
0.06314985539
0.06314985563
0.0631498565
0.06314985966
0.06314987085
0.06314990889
0.06315003186
0.0631504029
0.06315142098
0.06315386378
0.06315870903
0.06314985531
0.06314985531
0.06314985531
0.06314985533
0.06314985537
0.06314985556
0.06314985621
0.06314985852
0.06314986641
0.06314989223
0.06314997227
0.0631502034
0.06315081089
0.06315221973
0.06315499418
0.06314985531
0.06314985531
0.06314985531
0.06314985532
0.06314985536
0.06314985549
0.06314985594
0.06314985747
0.06314986246
0.06314987808
0.06314992427
0.06315005159
0.06315037259
0.06315109581
0.06315251661
0.06314985531
0.06314985531
0.06314985531
0.06314985532
0.06314985535
0.06314985545
0.06314985578
0.06314985688
0.06314986033
0.06314987069
0.06314990009
0.06314997798
0.06315016781
0.06315058634
0.06315140855
0.06314985531
0.06314985531
0.06314985531
0.06314985532
0.06314985536
0.06314985549
0.06314985594
0.06314985747
0.06314986246
0.06314987808
0.06314992427
0.0631500516
0.0631503726
0.06315109586
0.06314985531
0.06314985531
0.06314985531
0.06314985533
0.06314985537
0.06314985555
0.06314985618
0.06314985842
0.06314986611
0.06314989148
0.06314997075
0.06315020167
0.06315081377
0.06315224216
0.06315505748
0.06314985531
0.06314985531
0.06314985531
0.06314985533
0.0631498554
0.06314985565
0.06314985661
0.06314986021
0.06314987323
0.06314991877
0.06315007038
0.06315054152
0.06315186982
0.06315512192
0.06316159841
0.06314985531
0.06314985531
0.06314985532
0.06314985534
0.06314985542
0.06314985576
0.06314985709
0.06314986224
0.06314988181
0.06314995388
0.06315020831
0.06315105206
0.06315359874
0.06316023037
0.06317376484
0.06314985531
0.06314985531
0.06314985532
0.06314985534
0.06314985543
0.06314985581
0.06314985732
0.06314986327
0.06314988641
0.06314997429
0.06315029678
0.06315141985
0.06315501924
0.06316504024
0.06318643717
0.06314985531
0.06314985531
0.06314985532
0.06314985534
0.06314985542
0.06314985576
0.06314985709
0.06314986224
0.06314988181
0.06314995388
0.06315020831
0.06315105206
0.06315359872
0.06316023032
0.06317376471
0.06314985531
0.06314985531
0.06314985531
0.06314985533
0.0631498554
0.06314985565
0.06314985661
0.06314986021
0.06314987323
0.06314991877
0.06315007038
0.06315054152
0.0631518698
0.06315512186
0.06316159825
0.06314985531
0.06314985531
0.06314985531
0.06314985533
0.06314985537
0.06314985555
0.06314985618
0.06314985842
0.06314986611
0.06314989148
0.06314997075
0.06315020167
0.06315081375
0.0631522421
0.06315505733
0.06314985531
0.06314985531
0.06314985531
0.06314985532
0.06314985536
0.06314985549
0.06314985594
0.06314985747
0.06314986246
0.06314987808
0.06314992427
0.06315005159
0.06315037259
0.06315109582
0.06315251661
0.06314985531
0.06314985531
0.06314985531
0.06314985533
0.06314985537
0.06314985556
0.06314985621
0.06314985852
0.06314986641
0.06314989223
0.06314997227
0.06315020341
0.06315081091
0.0631522198
0.06314985531
0.06314985531
0.06314985531
0.06314985533
0.0631498554
0.06314985565
0.06314985661
0.06314986021
0.06314987323
0.06314991877
0.06315007038
0.06315054153
0.06315186984
0.06315512201
0.06314985531
0.06314985531
0.06314985532
0.06314985534
0.06314985544
0.06314985582
0.06314985737
0.0631498635
0.06314988727
0.06314997674
0.06315029944
0.06315139171
0.06315474897
0.06316361226
0.06318177718
0.06314985531
0.06314985531
0.06314985532
0.06314985535
0.06314985548
0.06314985601
0.06314985824
0.06314986751
0.06314990558
0.06315005892
0.0631506571
0.06315287311
0.06316040768
0.06318245831
0.06323067733
0.06314985531
0.06314985531
0.06314985532
0.06314985535
0.06314985549
0.0631498561
0.06314985868
0.06314986967
0.06314991638
0.063150113
0.06315092609
0.06315417994
0.06316641997
0.06320708816
0.06330798268
0.06314985531
0.06314985531
0.06314985532
0.06314985535
0.06314985548
0.06314985601
0.06314985824
0.06314986751
0.06314990558
0.06315005892
0.06315065709
0.06315287309
0.06316040757
0.06318245793
0.06323067634
0.06314985531
0.06314985531
0.06314985532
0.06314985534
0.06314985544
0.06314985582
0.06314985737
0.0631498635
0.06314988727
0.06314997674
0.06315029944
0.06315139169
0.06315474889
0.06316361197
0.06318177631
0.06314985531
0.06314985531
0.06314985531
0.06314985533
0.0631498554
0.06314985565
0.06314985661
0.06314986021
0.06314987323
0.06314991877
0.06315007038
0.06315054152
0.0631518698
0.06315512186
0.06316159823
0.06314985531
0.06314985531
0.06314985531
0.06314985533
0.06314985537
0.06314985556
0.06314985621
0.06314985852
0.06314986641
0.06314989223
0.06314997227
0.0631502034
0.06315081089
0.06315221974
0.06315499418
0.06314985531
0.06314985531
0.06314985531
0.06314985533
0.06314985539
0.06314985563
0.0631498565
0.06314985966
0.06314987085
0.0631499089
0.06315003187
0.06315040291
0.06315142101
0.06315386388
0.06314985531
0.06314985531
0.06314985532
0.06314985534
0.06314985542
0.06314985576
0.06314985709
0.06314986224
0.06314988181
0.06314995388
0.06315020831
0.06315105208
0.0631535988
0.0631602306
0.06314985531
0.06314985531
0.06314985532
0.06314985535
0.06314985548
0.06314985601
0.06314985824
0.06314986751
0.06314990558
0.06315005892
0.0631506571
0.06315287314
0.0631604078
0.06318245897
0.06314985531
0.06314985531
0.06314985532
0.06314985536
0.06314985553
0.06314985629
0.06314985961
0.06314987428
0.063149939
0.06315022294
0.06315145066
0.06315659593
0.06317685005
0.06324694138
0.06342555499
0.06314985531
0.06314985531
0.06314985532
0.06314985537
0.06314985556
0.06314985643
0.06314986034
0.06314987822
0.06314996078
0.06315034633
0.06315216271
0.06316073218
0.06320047812
0.06337315736
0.06397057681
0.06314985531
0.06314985531
0.06314985532
0.06314985536
0.06314985553
0.06314985629
0.06314985961
0.06314987428
0.063149939
0.06315022294
0.06315145065
0.06315659587
0.06317684974
0.06324693988
0.06342554916
0.06314985531
0.06314985531
0.06314985532
0.06314985535
0.06314985548
0.06314985601
0.06314985824
0.06314986751
0.06314990558
0.06315005892
0.06315065709
0.0631528731
0.0631604076
0.06318245801
0.06323067643
0.06314985531
0.06314985531
0.06314985532
0.06314985534
0.06314985542
0.06314985576
0.06314985709
0.06314986224
0.06314988181
0.06314995388
0.06315020831
0.06315105206
0.06315359873
0.06316023034
0.06317376473
0.06314985531
0.06314985531
0.06314985531
0.06314985533
0.06314985539
0.06314985563
0.0631498565
0.06314985966
0.06314987085
0.06314990889
0.06315003186
0.06315040291
0.06315142099
0.0631538638
0.06315870906
0.06314985531
0.06314985531
0.06314985531
0.06314985533
0.0631498554
0.06314985566
0.06314985662
0.0631498602
0.06314987304
0.0631499176
0.06315006513
0.06315052324
0.06315182163
0.06315503558
0.06314985531
0.06314985531
0.06314985532
0.06314985534
0.06314985543
0.06314985581
0.06314985732
0.06314986327
0.06314988641
0.06314997429
0.06315029679
0.06315141987
0.06315501934
0.06316504058
0.06314985531
0.06314985531
0.06314985532
0.06314985535
0.06314985549
0.0631498561
0.06314985868
0.06314986967
0.06314991638
0.063150113
0.0631509261
0.06315418001
0.06316642032
0.06320708964
0.06314985531
0.06314985531
0.06314985532
0.06314985537
0.06314985556
0.06314985643
0.06314986034
0.06314987822
0.06314996078
0.06315034634
0.06315216272
0.06316073229
0.06320047892
0.06337316312
0.06314985531
0.06314985531
0.06314985532
0.06314985537
0.06314985559
0.06314985659
0.06314986126
0.06314988347
0.06314999215
0.06315054394
0.06315347811
0.06316999849
0.06326946317
0.06391404086
0.06843283313
0.06314985531
0.06314985531
0.06314985532
0.06314985537
0.06314985556
0.06314985643
0.06314986034
0.06314987822
0.06314996078
0.06315034634
0.06315216271
0.06316073222
0.0632004783
0.06337315804
0.06397057847
0.06314985531
0.06314985531
0.06314985532
0.06314985535
0.06314985549
0.0631498561
0.06314985868
0.06314986967
0.06314991638
0.063150113
0.06315092609
0.06315417995
0.06316642
0.06320708826
0.06330798277
0.06314985531
0.06314985531
0.06314985532
0.06314985534
0.06314985543
0.06314985581
0.06314985732
0.06314986327
0.06314988641
0.06314997429
0.06315029678
0.06315141985
0.06315501925
0.06316504024
0.06318643713
0.06314985531
0.06314985531
0.06314985531
0.06314985533
0.0631498554
0.06314985566
0.06314985662
0.0631498602
0.06314987304
0.0631499176
0.06315006512
0.06315052323
0.06315182159
0.06315503546
0.0631614908
0.06314985531
0.06314985531
0.06314985531
0.06314985533
0.06314985539
0.06314985563
0.0631498565
0.06314985966
0.06314987085
0.0631499089
0.06315003187
0.06315040291
0.06315142101
0.06315386387
0.06314985531
0.06314985531
0.06314985532
0.06314985534
0.06314985542
0.06314985576
0.06314985709
0.06314986224
0.06314988181
0.06314995388
0.06315020831
0.06315105208
0.0631535988
0.06316023056
0.06314985531
0.06314985531
0.06314985532
0.06314985535
0.06314985548
0.06314985601
0.06314985824
0.06314986751
0.06314990558
0.06315005892
0.0631506571
0.06315287315
0.06316040782
0.06318245876
0.06314985531
0.06314985531
0.06314985532
0.06314985536
0.06314985553
0.06314985629
0.06314985961
0.06314987428
0.063149939
0.06315022294
0.06315145067
0.06315659598
0.06317685029
0.06324694227
0.06314985531
0.06314985531
0.06314985532
0.06314985537
0.06314985556
0.06314985643
0.06314986034
0.06314987822
0.06314996078
0.06315034634
0.06315216273
0.06316073231
0.06320047899
0.0633731632
0.06314985531
0.06314985531
0.06314985532
0.06314985536
0.06314985553
0.06314985629
0.06314985961
0.06314987428
0.063149939
0.06315022294
0.06315145066
0.06315659596
0.0631768502
0.06324694217
0.06314985531
0.06314985531
0.06314985532
0.06314985535
0.06314985548
0.06314985601
0.06314985824
0.06314986751
0.06314990558
0.06315005892
0.0631506571
0.06315287313
0.06316040776
0.06318245856
0.0632306781
0.06314985531
0.06314985531
0.06314985532
0.06314985534
0.06314985542
0.06314985576
0.06314985709
0.06314986224
0.06314988181
0.06314995388
0.06315020831
0.06315105207
0.06315359876
0.06316023044
0.06317376496
0.06314985531
0.06314985531
0.06314985531
0.06314985533
0.06314985539
0.06314985563
0.0631498565
0.06314985966
0.06314987085
0.06314990889
0.06315003186
0.06315040291
0.06315142099
0.06315386381
0.06315870909
0.06314985531
0.06314985531
0.06314985531
0.06314985533
0.06314985537
0.06314985556
0.06314985621
0.06314985852
0.06314986641
0.06314989223
0.06314997228
0.06315020341
0.06315081091
0.06315221979
0.06314985531
0.06314985531
0.06314985531
0.06314985533
0.0631498554
0.06314985565
0.06314985661
0.06314986021
0.06314987323
0.06314991877
0.06315007038
0.06315054153
0.06315186985
0.06315512199
0.06314985531
0.06314985531
0.06314985532
0.06314985534
0.06314985544
0.06314985582
0.06314985737
0.0631498635
0.06314988727
0.06314997674
0.06315029945
0.06315139173
0.06315474903
0.06316361237
0.06314985531
0.06314985531
0.06314985532
0.06314985535
0.06314985548
0.06314985601
0.06314985824
0.06314986751
0.06314990558
0.06315005892
0.06315065711
0.06315287316
0.06316040784
0.0631824588
0.06314985531
0.06314985531
0.06314985532
0.06314985535
0.06314985549
0.0631498561
0.06314985868
0.06314986967
0.06314991638
0.063150113
0.0631509261
0.06315417999
0.06316642026
0.06320708935
0.06314985531
0.06314985531
0.06314985532
0.06314985535
0.06314985548
0.06314985601
0.06314985824
0.06314986751
0.06314990558
0.06315005892
0.0631506571
0.06315287315
0.06316040781
0.06318245873
0.06314985531
0.06314985531
0.06314985532
0.06314985534
0.06314985544
0.06314985582
0.06314985737
0.0631498635
0.06314988727
0.06314997674
0.06315029944
0.06315139172
0.06315474901
0.06316361239
0.06314985531
0.06314985531
0.06314985531
0.06314985533
0.0631498554
0.06314985565
0.06314985661
0.06314986021
0.06314987323
0.06314991877
0.06315007038
0.06315054153
0.06315186984
0.06315512197
0.06316159853
0.06314985531
0.06314985531
0.06314985531
0.06314985533
0.06314985537
0.06314985556
0.06314985621
0.06314985852
0.06314986641
0.06314989223
0.06314997227
0.06315020341
0.06315081091
0.06315221977
0.06315499426
0.06314985531
0.06314985531
0.06314985531
0.06314985532
0.06314985536
0.06314985549
0.06314985594
0.06314985747
0.06314986246
0.06314987808
0.06314992427
0.0631500516
0.0631503726
0.06315109584
0.06314985531
0.06314985531
0.06314985531
0.06314985533
0.06314985537
0.06314985555
0.06314985618
0.06314985842
0.06314986611
0.06314989148
0.06314997075
0.06315020168
0.06315081377
0.06315224216
0.06314985531
0.06314985531
0.06314985531
0.06314985533
0.0631498554
0.06314985565
0.06314985661
0.06314986021
0.06314987323
0.06314991877
0.06315007038
0.06315054153
0.06315186985
0.06315512199
0.06314985531
0.06314985531
0.06314985532
0.06314985534
0.06314985542
0.06314985576
0.06314985709
0.06314986224
0.06314988181
0.06314995388
0.06315020831
0.06315105208
0.06315359881
0.06316023056
0.06314985531
0.06314985531
0.06314985532
0.06314985534
0.06314985543
0.06314985581
0.06314985732
0.06314986327
0.06314988641
0.06314997429
0.06315029679
0.06315141987
0.06315501935
0.06316504054
0.06314985531
0.06314985531
0.06314985532
0.06314985534
0.06314985542
0.06314985576
0.06314985709
0.06314986224
0.06314988181
0.06314995388
0.06315020831
0.06315105208
0.0631535988
0.06316023054
0.06314985531
0.06314985531
0.06314985531
0.06314985533
0.0631498554
0.06314985565
0.06314985661
0.06314986021
0.06314987323
0.06314991877
0.06315007038
0.06315054153
0.06315186985
0.06315512199
0.06314985531
0.06314985531
0.06314985531
0.06314985533
0.06314985537
0.06314985555
0.06314985618
0.06314985842
0.06314986612
0.06314989148
0.06314997075
0.06315020168
0.06315081378
0.06315224219
0.06314985531
0.06314985531
0.06314985531
0.06314985532
0.06314985536
0.06314985549
0.06314985594
0.06314985747
0.06314986246
0.06314987808
0.06314992427
0.0631500516
0.0631503726
0.06315109585
0.06315251669
0.06314985531
0.06314985531
0.06314985531
0.06314985532
0.06314985535
0.06314985545
0.06314985578
0.06314985688
0.06314986033
0.06314987069
0.06314990009
0.06314997799
0.06315016782
0.06315058636
0.06314985531
0.06314985531
0.06314985531
0.06314985532
0.06314985536
0.06314985549
0.06314985594
0.06314985747
0.06314986246
0.06314987808
0.06314992427
0.0631500516
0.0631503726
0.06315109584
0.06314985531
0.06314985531
0.06314985531
0.06314985533
0.06314985537
0.06314985556
0.06314985621
0.06314985852
0.06314986641
0.06314989223
0.06314997228
0.06315020341
0.06315081092
0.06315221979
0.06314985531
0.06314985531
0.06314985531
0.06314985533
0.06314985539
0.06314985563
0.0631498565
0.06314985966
0.06314987085
0.0631499089
0.06315003187
0.06315040292
0.06315142102
0.06315386388
0.06314985531
0.06314985531
0.06314985531
0.06314985533
0.0631498554
0.06314985566
0.06314985662
0.0631498602
0.06314987304
0.0631499176
0.06315006513
0.06315052324
0.06315182163
0.06315503557
0.06314985531
0.06314985531
0.06314985531
0.06314985533
0.06314985539
0.06314985563
0.0631498565
0.06314985966
0.06314987085
0.0631499089
0.06315003187
0.06315040292
0.06315142102
0.06315386389
0.06314985531
0.06314985531
0.06314985531
0.06314985533
0.06314985537
0.06314985556
0.06314985621
0.06314985852
0.06314986641
0.06314989223
0.06314997228
0.06315020341
0.06315081092
0.0631522198
0.06314985531
0.06314985531
0.06314985531
0.06314985532
0.06314985536
0.06314985549
0.06314985594
0.06314985747
0.06314986246
0.06314987808
0.06314992427
0.0631500516
0.0631503726
0.06315109585
0.06314985531
0.06314985531
0.06314985531
0.06314985532
0.06314985535
0.06314985545
0.06314985578
0.06314985688
0.06314986033
0.06314987069
0.06314990009
0.06314997799
0.06315016782
0.06315058637
)
;

boundaryField
{
    top
    {
        type            zeroGradient;
    }
    bottom
    {
        type            zeroGradient;
    }
    side-walls
    {
        type            zeroGradient;
    }
    inlet
    {
        type            zeroGradient;
    }
    outlet
    {
        type            zeroGradient;
    }
    procBoundary0to1
    {
        type            processor;
        value           nonuniform List<scalar> 
97
(
0.0631528376
0.06315251669
0.06315491605
0.0631595013
0.06316620863
0.06317098854
0.06316620851
0.06315950122
0.06315491598
0.06315283754
0.06315251669
0.06315251669
0.06315959271
0.06316159855
0.06317134171
0.0631921841
0.06321180788
0.06319218394
0.0631713415
0.06315959254
0.06315491598
0.06315499428
0.06316159855
0.06316159855
0.06320598256
0.06323067853
0.06328288283
0.06338339209
0.06328288178
0.06320598167
0.06317134146
0.06315950122
0.06315870914
0.0631737651
0.06323067853
0.06323067853
0.06354605783
0.06397058139
0.06406142802
0.06354605413
0.06328288182
0.0631921839
0.06316620853
0.06316149091
0.06318643746
0.06330798399
0.06397058139
0.06397058139
0.06627704208
0.06397058079
0.06406142812
0.06342555142
0.06338339182
0.06321180768
0.06317098843
0.0631587091
0.06317376489
0.06323067711
0.06342555075
0.06397058079
0.06342555142
0.06342555142
0.06328288283
0.06318177706
0.06319218411
0.06316620855
0.06315499422
0.06316159834
0.06318177671
0.0632306771
0.06330798309
0.06323067694
0.06318177706
0.06318177706
0.0631713417
0.06315505747
0.0631595013
0.06315251663
0.06315505736
0.06316159832
0.06317376485
0.06318643726
0.06317376481
0.06316159837
0.06315505747
0.06315505747
0.06315491605
0.06315140859
0.06315140856
0.06315251663
0.06315499422
0.06315870909
0.06316149086
0.06315870911
0.06315499424
0.06315251665
0.06315140859
)
;
    }
}


// ************************************************************************* //
