/*--------------------------------*- C++ -*----------------------------------*\
| =========                 |                                                 |
| \\      /  F ield         | OpenFOAM: The Open Source CFD Toolbox           |
|  \\    /   O peration     | Version:  4.x                                   |
|   \\  /    A nd           | Web:      www.OpenFOAM.org                      |
|    \\/     M anipulation  |                                                 |
\*---------------------------------------------------------------------------*/
FoamFile
{
    version     2.0;
    format      ascii;
    class       volScalarField;
    location    "6000";
    object      Cpv;
}
// * * * * * * * * * * * * * * * * * * * * * * * * * * * * * * * * * * * * * //

dimensions      [0 2 -2 -1 0 0 0];

internalField   nonuniform List<scalar> 
1175
(
1245.090902
1245.090909
1245.090911
1245.090915
1245.090908
1245.090897
1245.090886
1245.090879
1245.090864
1245.090869
1245.090864
1245.090859
1245.090823
1245.090848
1245.090832
1245.09124
1245.09125
1245.09127
1245.091271
1245.091273
1245.091266
1245.091271
1245.091279
1245.091272
1245.091317
1245.091317
1245.091317
1245.091303
1245.091315
1245.091318
1245.090392
1245.090374
1245.090398
1245.090408
1245.090403
1245.090409
1245.090424
1245.090406
1245.090392
1245.090389
1245.090431
1245.090422
1245.090425
1245.090412
1245.090375
1245.091637
1245.091634
1245.091617
1245.091624
1245.091618
1245.091608
1245.091606
1245.091607
1245.091589
1245.091593
1245.091594
1245.091607
1245.091578
1245.091581
1245.091556
1245.091258
1245.091233
1245.091248
1245.09125
1245.091246
1245.091278
1245.091282
1245.091287
1245.091292
1245.091289
1245.091288
1245.091286
1245.091295
1245.091288
1245.091248
1245.089927
1245.089943
1245.089934
1245.089925
1245.089933
1245.089956
1245.089981
1245.089971
1245.089971
1245.089969
1245.089938
1245.089942
1245.089946
1245.089944
1245.089909
1245.090479
1245.090473
1245.090467
1245.090468
1245.090493
1245.090485
1245.09049
1245.090494
1245.090482
1245.090487
1245.090489
1245.090469
1245.090485
1245.090463
1245.090429
1245.091072
1245.091078
1245.091053
1245.091045
1245.091073
1245.09106
1245.091036
1245.091037
1245.091028
1245.091019
1245.091017
1245.091015
1245.091025
1245.091013
1245.090984
1245.090766
1245.090754
1245.090759
1245.090754
1245.090733
1245.090729
1245.090757
1245.090742
1245.09074
1245.090718
1245.090735
1245.090741
1245.090732
1245.090751
1245.090749
1245.091127
1245.091106
1245.091135
1245.091123
1245.091147
1245.091164
1245.091164
1245.091142
1245.09114
1245.09115
1245.091138
1245.091126
1245.091108
1245.091107
1245.091049
1245.091032
1245.09104
1245.091031
1245.091042
1245.091033
1245.09104
1245.091029
1245.091023
1245.091044
1245.091066
1245.091048
1245.091043
1245.09105
1245.09103
1245.091318
1245.091313
1245.091323
1245.091328
1245.091342
1245.091317
1245.091314
1245.091307
1245.09132
1245.091309
1245.091314
1245.091327
1245.091315
1245.091303
1245.091274
1245.090382
1245.090418
1245.090425
1245.090448
1245.090416
1245.090405
1245.090419
1245.090439
1245.09043
1245.090439
1245.090435
1245.090418
1245.090403
1245.09037
1245.090316
1245.091068
1245.091063
1245.091103
1245.091091
1245.091091
1245.091087
1245.091075
1245.091062
1245.091075
1245.091071
1245.091069
1245.091058
1245.091045
1245.090962
1245.090835
1245.09123
1245.091226
1245.091214
1245.091211
1245.091196
1245.091199
1245.091196
1245.091225
1245.0912
1245.091215
1245.09125
1245.091241
1245.091234
1245.091205
1245.091134
1245.091833
1245.091821
1245.091829
1245.091828
1245.091839
1245.091823
1245.0918
1245.091803
1245.091823
1245.091833
1245.091822
1245.091835
1245.091823
1245.09184
1245.091814
1245.090428
1245.090414
1245.090441
1245.090454
1245.090471
1245.090454
1245.090482
1245.090505
1245.0905
1245.090514
1245.090532
1245.090516
1245.090528
1245.090496
1245.090487
1245.091112
1245.091125
1245.09112
1245.091137
1245.091158
1245.091175
1245.091172
1245.091165
1245.091166
1245.091199
1245.091203
1245.091187
1245.091188
1245.091173
1245.091146
1245.091054
1245.09107
1245.091077
1245.091106
1245.091099
1245.091093
1245.091104
1245.091101
1245.09112
1245.0911
1245.091095
1245.091099
1245.091072
1245.091063
1245.090388
1245.090388
1245.090392
1245.090373
1245.090371
1245.090379
1245.090402
1245.090417
1245.090421
1245.090417
1245.090425
1245.090422
1245.090423
1245.090391
1245.09064
1245.09065
1245.090657
1245.090674
1245.090659
1245.090605
1245.090599
1245.090569
1245.090593
1245.090614
1245.090623
1245.09063
1245.090636
1245.090577
1245.090462
1245.090427
1245.090417
1245.090427
1245.090439
1245.090464
1245.090448
1245.090444
1245.090478
1245.090446
1245.090433
1245.090427
1245.090395
1245.090358
1245.090224
1245.089985
1245.091654
1245.091668
1245.091646
1245.091626
1245.091628
1245.091607
1245.09161
1245.09159
1245.091611
1245.091617
1245.091616
1245.091591
1245.091537
1245.091314
1245.090752
1245.090034
1245.090007
1245.089981
1245.090004
1245.089997
1245.089986
1245.089958
1245.08999
1245.089994
1245.089982
1245.089979
1245.089975
1245.089949
1245.08983
1245.08959
1245.090672
1245.090678
1245.09069
1245.090679
1245.090685
1245.090677
1245.090709
1245.090652
1245.090652
1245.090625
1245.090621
1245.090618
1245.090622
1245.090586
1245.090501
1245.091163
1245.091146
1245.091163
1245.091173
1245.091187
1245.091171
1245.091166
1245.091166
1245.091177
1245.091171
1245.091184
1245.091188
1245.091175
1245.091173
1245.091127
1245.09052
1245.090527
1245.09053
1245.090513
1245.090502
1245.090514
1245.090543
1245.09055
1245.090568
1245.090556
1245.090564
1245.090577
1245.090569
1245.090551
1245.090547
1245.090406
1245.090414
1245.090428
1245.090409
1245.090429
1245.090418
1245.090419
1245.090411
1245.090421
1245.090424
1245.090428
1245.090437
1245.090443
1245.090426
1245.090403
1245.090418
1245.090454
1245.090435
1245.090412
1245.090389
1245.090414
1245.090432
1245.090399
1245.090421
1245.090419
1245.090398
1245.090399
1245.090368
1245.090139
1245.090151
1245.090149
1245.090152
1245.090147
1245.090147
1245.090162
1245.090142
1245.090156
1245.090168
1245.090163
1245.090156
1245.090127
1245.090028
1245.090867
1245.090872
1245.090869
1245.090884
1245.090886
1245.0909
1245.090904
1245.090915
1245.0909
1245.090906
1245.090898
1245.090849
1245.090743
1245.090379
1245.089391
1245.090897
1245.090887
1245.090886
1245.090884
1245.090891
1245.090887
1245.090889
1245.090887
1245.090927
1245.090909
1245.090911
1245.090864
1245.090649
1245.08972
1245.085876
1245.090616
1245.090619
1245.090612
1245.090596
1245.09059
1245.090583
1245.090594
1245.090592
1245.090576
1245.090573
1245.090578
1245.090549
1245.090408
1245.090049
1245.089076
1245.090583
1245.090587
1245.090582
1245.090584
1245.09058
1245.090593
1245.090562
1245.09058
1245.090569
1245.090577
1245.090562
1245.090566
1245.09051
1245.090389
1245.090106
1245.091319
1245.091311
1245.091315
1245.091302
1245.091308
1245.091317
1245.091317
1245.091335
1245.091337
1245.091322
1245.091325
1245.091295
1245.091288
1245.09121
1245.091157
1245.091136
1245.091151
1245.091149
1245.091151
1245.091146
1245.091124
1245.091117
1245.091108
1245.091112
1245.091123
1245.091124
1245.091133
1245.091128
1245.091118
1245.091077
1245.091021
1245.090989
1245.09097
1245.090985
1245.090977
1245.090982
1245.090985
1245.090994
1245.091011
1245.091056
1245.091057
1245.091065
1245.091042
1245.091016
1245.090458
1245.09048
1245.090494
1245.090496
1245.090488
1245.090468
1245.090457
1245.090461
1245.090444
1245.090415
1245.090416
1245.090444
1245.090425
1245.090394
1245.091784
1245.091763
1245.091752
1245.091736
1245.09171
1245.091719
1245.091706
1245.091681
1245.091675
1245.091667
1245.091683
1245.091667
1245.091608
1245.091365
1245.090692
1245.090707
1245.090713
1245.090707
1245.090692
1245.090705
1245.090727
1245.090739
1245.090727
1245.090705
1245.090699
1245.090651
1245.090435
1245.089509
1245.091135
1245.091138
1245.091134
1245.091119
1245.091113
1245.091152
1245.091158
1245.091152
1245.091147
1245.091125
1245.091122
1245.091033
1245.090481
1245.086972
1244.227011
1245.091233
1245.091231
1245.091229
1245.091244
1245.09124
1245.091256
1245.091252
1245.091251
1245.091238
1245.091274
1245.09127
1245.091219
1245.091005
1245.090072
1245.08624
1245.090894
1245.090885
1245.090864
1245.09087
1245.090868
1245.090868
1245.090869
1245.090867
1245.090889
1245.09085
1245.090874
1245.090856
1245.090823
1245.090598
1245.09006
1245.090443
1245.090445
1245.090454
1245.090481
1245.090459
1245.090454
1245.09043
1245.09046
1245.090475
1245.090447
1245.090447
1245.090452
1245.090426
1245.090381
1245.090275
1245.090423
1245.090437
1245.090432
1245.090448
1245.090457
1245.090464
1245.090494
1245.090495
1245.090493
1245.090507
1245.090502
1245.090503
1245.090495
1245.090487
1245.090431
1245.090333
1245.09033
1245.090351
1245.090336
1245.090339
1245.090313
1245.090317
1245.090308
1245.090309
1245.090329
1245.090327
1245.09035
1245.09033
1245.090296
1245.090661
1245.090639
1245.090661
1245.090644
1245.090656
1245.090675
1245.090644
1245.09063
1245.090625
1245.090606
1245.090634
1245.090631
1245.090624
1245.090582
1245.090051
1245.09007
1245.090076
1245.090067
1245.090066
1245.09008
1245.090064
1245.090072
1245.090078
1245.090074
1245.090055
1245.090015
1245.089953
1245.089825
1245.090679
1245.090691
1245.09069
1245.090685
1245.09066
1245.090693
1245.090691
1245.090715
1245.090698
1245.090705
1245.090666
1245.09065
1245.090509
1245.090124
1245.090786
1245.090815
1245.090789
1245.090763
1245.090795
1245.090784
1245.090806
1245.090809
1245.090802
1245.090817
1245.090795
1245.090759
1245.09055
1245.089646
1245.090611
1245.090598
1245.090604
1245.090587
1245.090578
1245.090561
1245.090551
1245.09055
1245.090573
1245.09057
1245.090556
1245.090529
1245.090402
1245.090024
1245.090773
1245.090774
1245.090791
1245.090798
1245.090774
1245.090761
1245.090743
1245.090755
1245.090755
1245.090745
1245.090735
1245.090715
1245.090672
1245.090579
1245.090284
1245.090492
1245.090495
1245.090531
1245.090532
1245.09054
1245.090551
1245.090544
1245.09053
1245.090535
1245.090515
1245.090492
1245.090468
1245.090466
1245.090418
1245.09036
1245.090341
1245.09033
1245.090308
1245.090321
1245.090333
1245.090332
1245.090338
1245.090343
1245.090345
1245.090364
1245.090361
1245.090381
1245.090395
1245.090389
1245.090362
1245.090578
1245.090557
1245.09055
1245.090562
1245.090554
1245.090564
1245.090554
1245.090561
1245.090585
1245.090582
1245.090583
1245.090605
1245.090611
1245.090577
1245.090969
1245.090983
1245.090985
1245.090968
1245.090936
1245.090922
1245.090922
1245.090906
1245.090905
1245.090909
1245.090933
1245.090946
1245.090913
1245.090885
1245.091889
1245.09187
1245.091862
1245.091819
1245.091811
1245.091818
1245.091817
1245.091856
1245.091838
1245.091848
1245.091857
1245.091865
1245.09183
1245.091824
1245.09086
1245.09088
1245.090877
1245.090857
1245.09089
1245.090864
1245.09089
1245.090889
1245.090924
1245.090925
1245.090937
1245.090935
1245.090893
1245.090766
1245.090288
1245.090278
1245.0903
1245.090299
1245.090318
1245.090318
1245.090347
1245.09034
1245.09033
1245.090316
1245.090331
1245.090308
1245.090234
1245.090014
1245.090582
1245.090594
1245.090578
1245.09057
1245.090574
1245.090576
1245.090588
1245.09059
1245.090606
1245.090574
1245.090551
1245.090559
1245.090509
1245.090417
1245.090918
1245.0909
1245.090893
1245.09091
1245.090907
1245.090893
1245.0909
1245.090874
1245.090895
1245.090907
1245.090914
1245.090917
1245.090899
1245.090829
1245.091087
1245.091087
1245.091088
1245.091081
1245.091067
1245.091078
1245.091082
1245.091106
1245.091088
1245.091075
1245.09107
1245.091102
1245.091105
1245.091105
1245.091064
1245.090814
1245.09082
1245.09085
1245.090836
1245.090834
1245.090839
1245.090836
1245.090843
1245.090853
1245.090835
1245.090851
1245.090834
1245.090793
1245.09078
1245.090767
1245.091074
1245.091079
1245.091077
1245.091062
1245.091091
1245.091088
1245.091096
1245.091072
1245.091086
1245.091064
1245.091056
1245.091055
1245.091066
1245.091061
1245.090449
1245.090406
1245.090392
1245.090414
1245.090383
1245.090376
1245.09038
1245.090391
1245.090373
1245.090363
1245.090356
1245.090329
1245.090351
1245.090333
1245.090613
1245.090599
1245.090628
1245.090636
1245.090637
1245.090658
1245.090642
1245.090647
1245.090676
1245.090693
1245.090663
1245.090682
1245.090662
1245.090654
1245.090494
1245.09048
1245.090466
1245.090464
1245.090459
1245.090444
1245.090461
1245.090445
1245.090439
1245.090449
1245.090425
1245.09042
1245.090407
1245.090387
1245.091169
1245.091191
1245.09121
1245.091181
1245.091198
1245.09118
1245.091177
1245.091181
1245.091201
1245.091204
1245.09118
1245.091202
1245.091163
1245.091099
1245.090631
1245.090647
1245.090677
1245.090673
1245.090663
1245.090681
1245.090643
1245.09065
1245.090631
1245.090629
1245.090598
1245.090593
1245.090582
1245.090534
1245.090972
1245.090972
1245.090994
1245.090975
1245.090997
1245.090982
1245.090992
1245.091009
1245.091001
1245.091017
1245.091014
1245.091013
1245.091026
1245.091012
1245.091261
1245.091271
1245.091279
1245.091272
1245.091303
1245.091306
1245.091305
1245.091328
1245.091314
1245.091345
1245.091347
1245.091346
1245.091347
1245.09129
1245.091197
1245.091194
1245.091206
1245.091197
1245.091209
1245.091215
1245.091213
1245.091198
1245.091205
1245.091203
1245.09118
1245.091197
1245.091201
1245.091208
1245.091194
1245.090484
1245.090465
1245.090477
1245.090483
1245.0905
1245.090495
1245.090489
1245.090477
1245.090469
1245.09047
1245.090475
1245.090482
1245.09046
1245.090455
1245.090905
1245.090889
1245.090895
1245.0909
1245.090912
1245.090898
1245.090876
1245.090865
1245.090873
1245.090862
1245.090847
1245.090861
1245.090865
1245.090868
1245.090777
1245.090787
1245.090775
1245.090771
1245.090769
1245.090779
1245.090771
1245.090762
1245.090767
1245.090787
1245.090785
1245.090765
1245.090757
1245.090752
1245.090895
1245.090902
1245.090909
1245.090921
1245.090914
1245.090903
1245.090917
1245.090934
1245.090948
1245.090961
1245.090959
1245.09097
1245.090958
1245.090948
1245.090837
1245.090849
1245.090852
1245.09085
1245.090872
1245.090868
1245.090826
1245.090826
1245.090818
1245.090805
1245.09084
1245.090849
1245.090809
1245.090793
1245.091771
1245.091777
1245.091784
1245.091767
1245.091773
1245.091772
1245.091779
1245.091792
1245.091789
1245.091797
1245.091788
1245.091767
1245.091751
1245.091743
1245.09128
1245.091279
1245.09128
1245.09128
1245.091264
1245.091282
1245.091287
1245.091285
1245.091306
1245.091288
1245.09127
1245.091254
1245.091263
1245.091231
1245.090011
1245.09001
1245.090009
1245.090023
1245.090019
1245.090008
1245.090009
1245.090018
1245.090009
1245.090009
1245.09001
1245.090006
1245.089997
1245.089991
1245.090829
1245.090813
1245.090839
1245.090819
1245.090813
1245.090816
1245.090821
1245.090806
1245.090794
1245.090797
1245.090811
1245.090805
1245.090811
1245.090798
)
;

boundaryField
{
    top
    {
        type            calculated;
        value           nonuniform List<scalar> 
134
(
1245.090766
1245.091112
1245.09052
1245.091136
1245.090423
1245.090341
1245.090814
1245.091197
1245.090829
1245.090754
1245.091125
1245.090527
1245.091151
1245.090437
1245.09033
1245.09082
1245.091194
1245.090813
1245.090759
1245.09112
1245.09053
1245.091149
1245.090432
1245.090308
1245.09085
1245.091206
1245.090839
1245.090754
1245.091137
1245.090513
1245.091151
1245.090448
1245.090321
1245.090836
1245.091197
1245.090819
1245.090733
1245.091158
1245.090502
1245.091146
1245.090457
1245.090333
1245.090834
1245.091209
1245.090813
1245.090729
1245.091175
1245.090514
1245.091124
1245.090464
1245.090332
1245.090839
1245.091215
1245.090816
1245.090757
1245.091172
1245.090543
1245.091117
1245.090494
1245.090338
1245.090836
1245.091213
1245.090821
1245.090742
1245.091165
1245.09055
1245.091108
1245.090495
1245.090343
1245.090843
1245.091198
1245.090806
1245.09074
1245.091166
1245.090568
1245.091112
1245.090493
1245.090345
1245.090853
1245.091205
1245.090794
1245.090718
1245.091199
1245.090556
1245.091123
1245.090507
1245.090364
1245.090835
1245.091203
1245.090797
1245.090735
1245.091203
1245.090564
1245.091124
1245.090502
1245.090361
1245.090851
1245.09118
1245.090811
1245.090741
1245.091187
1245.090577
1245.091133
1245.090503
1245.090381
1245.090834
1245.091197
1245.090805
1245.090732
1245.091188
1245.090569
1245.091128
1245.090495
1245.090395
1245.090793
1245.091201
1245.090811
1245.090751
1245.091173
1245.090551
1245.091118
1245.090487
1245.090389
1245.09078
1245.091208
1245.090798
1245.090749
1245.091146
1245.090547
1245.091077
1245.090431
1245.090362
1245.090767
1245.091194
)
;
    }
    bottom
    {
        type            calculated;
        value           nonuniform List<scalar> 
127
(
1245.090902
1245.091127
1245.091054
1245.090406
1245.091021
1245.090333
1245.090578
1245.091074
1245.090484
1245.090909
1245.091106
1245.09107
1245.090414
1245.090989
1245.09033
1245.090557
1245.091079
1245.090465
1245.090911
1245.091135
1245.091077
1245.090428
1245.09097
1245.090351
1245.09055
1245.091077
1245.090477
1245.090915
1245.091123
1245.091106
1245.090409
1245.090985
1245.090336
1245.090562
1245.091062
1245.090483
1245.090908
1245.091147
1245.091099
1245.090429
1245.090977
1245.090339
1245.090554
1245.091091
1245.0905
1245.090897
1245.091164
1245.091093
1245.090418
1245.090982
1245.090313
1245.090564
1245.091088
1245.090495
1245.090886
1245.091164
1245.091104
1245.090419
1245.090985
1245.090317
1245.090554
1245.091096
1245.090489
1245.090879
1245.091142
1245.091101
1245.090411
1245.090994
1245.090308
1245.090561
1245.091072
1245.090477
1245.090864
1245.09114
1245.09112
1245.090421
1245.091011
1245.090309
1245.090585
1245.091086
1245.090469
1245.090869
1245.09115
1245.0911
1245.090424
1245.091056
1245.090329
1245.090582
1245.091064
1245.09047
1245.090864
1245.091138
1245.091095
1245.090428
1245.091057
1245.090327
1245.090583
1245.091056
1245.090475
1245.090859
1245.091126
1245.091099
1245.090437
1245.091065
1245.09035
1245.090605
1245.091055
1245.090482
1245.090823
1245.091108
1245.091072
1245.090443
1245.091042
1245.09033
1245.090611
1245.091066
1245.09046
1245.090848
1245.091107
1245.091063
1245.090426
1245.091016
1245.090296
1245.090577
1245.091061
1245.090455
1245.090832
)
;
    }
    side-walls
    {
        type            calculated;
        value           nonuniform List<scalar> 
261
(
1245.090902
1245.09124
1245.090392
1245.091637
1245.091258
1245.089927
1245.090479
1245.091072
1245.090766
1245.090909
1245.09125
1245.090374
1245.091634
1245.091233
1245.089943
1245.090473
1245.091078
1245.090754
1245.090911
1245.09127
1245.090398
1245.091617
1245.091248
1245.089934
1245.090467
1245.091053
1245.090759
1245.090915
1245.091271
1245.090408
1245.091624
1245.09125
1245.089925
1245.090468
1245.091045
1245.090754
1245.090908
1245.091273
1245.090403
1245.091618
1245.091246
1245.089933
1245.090493
1245.091073
1245.090733
1245.090897
1245.091266
1245.090409
1245.091608
1245.091278
1245.089956
1245.090485
1245.09106
1245.090729
1245.090886
1245.091271
1245.090424
1245.091606
1245.091282
1245.089981
1245.09049
1245.091036
1245.090757
1245.090879
1245.091279
1245.090406
1245.091607
1245.091287
1245.089971
1245.090494
1245.091037
1245.090742
1245.090864
1245.091272
1245.090392
1245.091589
1245.091292
1245.089971
1245.090482
1245.091028
1245.09074
1245.090869
1245.091317
1245.090389
1245.091593
1245.091289
1245.089969
1245.090487
1245.091019
1245.090718
1245.090864
1245.091317
1245.090431
1245.091594
1245.091288
1245.089938
1245.090489
1245.091017
1245.090735
1245.090859
1245.091317
1245.090422
1245.091607
1245.091286
1245.089942
1245.090469
1245.091015
1245.090741
1245.090823
1245.091303
1245.090425
1245.091578
1245.091295
1245.089946
1245.090485
1245.091025
1245.090732
1245.090848
1245.091315
1245.090412
1245.091581
1245.091288
1245.089944
1245.090463
1245.091013
1245.090751
1245.090832
1245.091318
1245.090375
1245.091556
1245.091248
1245.089909
1245.090429
1245.090984
1245.090749
1245.090484
1245.090905
1245.090777
1245.090895
1245.090837
1245.091771
1245.09128
1245.090011
1245.090829
1245.090465
1245.090889
1245.090787
1245.090902
1245.090849
1245.091777
1245.091279
1245.09001
1245.090813
1245.090477
1245.090895
1245.090775
1245.090909
1245.090852
1245.091784
1245.09128
1245.090009
1245.090839
1245.090483
1245.0909
1245.090771
1245.090921
1245.09085
1245.091767
1245.09128
1245.090023
1245.090819
1245.0905
1245.090912
1245.090769
1245.090914
1245.090872
1245.091773
1245.091264
1245.090019
1245.090813
1245.090495
1245.090898
1245.090779
1245.090903
1245.090868
1245.091772
1245.091282
1245.090008
1245.090816
1245.090489
1245.090876
1245.090771
1245.090917
1245.090826
1245.091779
1245.091287
1245.090009
1245.090821
1245.090477
1245.090865
1245.090762
1245.090934
1245.090826
1245.091792
1245.091285
1245.090018
1245.090806
1245.090469
1245.090873
1245.090767
1245.090948
1245.090818
1245.091789
1245.091306
1245.090009
1245.090794
1245.09047
1245.090862
1245.090787
1245.090961
1245.090805
1245.091797
1245.091288
1245.090009
1245.090797
1245.090475
1245.090847
1245.090785
1245.090959
1245.09084
1245.091788
1245.09127
1245.09001
1245.090811
1245.090482
1245.090861
1245.090765
1245.09097
1245.090849
1245.091767
1245.091254
1245.090006
1245.090805
1245.09046
1245.090865
1245.090757
1245.090958
1245.090809
1245.091751
1245.091263
1245.089997
1245.090811
1245.090455
1245.090868
1245.090752
1245.090948
1245.090793
1245.091743
1245.091231
1245.089991
1245.090798
)
;
    }
    inlet
    {
        type            calculated;
        value           nonuniform List<scalar> 
81
(
1245.090902
1245.09124
1245.090392
1245.091637
1245.091258
1245.089927
1245.090479
1245.091072
1245.090766
1245.091127
1245.091049
1245.091318
1245.090382
1245.091068
1245.09123
1245.091833
1245.090428
1245.091112
1245.091054
1245.090388
1245.09064
1245.090427
1245.091654
1245.090034
1245.090672
1245.091163
1245.09052
1245.090406
1245.090403
1245.090139
1245.090867
1245.090897
1245.090616
1245.090583
1245.091319
1245.091136
1245.091021
1245.090458
1245.091784
1245.090692
1245.091135
1245.091233
1245.090894
1245.090443
1245.090423
1245.090333
1245.090661
1245.090051
1245.090679
1245.090786
1245.090611
1245.090773
1245.090492
1245.090341
1245.090578
1245.090969
1245.091889
1245.09086
1245.090288
1245.090582
1245.090918
1245.091087
1245.090814
1245.091074
1245.090449
1245.090613
1245.090494
1245.091169
1245.090631
1245.090972
1245.091261
1245.091197
1245.090484
1245.090905
1245.090777
1245.090895
1245.090837
1245.091771
1245.09128
1245.090011
1245.090829
)
;
    }
    outlet
    {
        type            calculated;
        value           nonuniform 0();
    }
    procBoundary0to1
    {
        type            processor;
        value           nonuniform List<scalar> 
97
(
1245.090845
1245.091082
1245.091302
1245.090366
1245.091521
1245.091198
1245.089896
1245.0904
1245.090981
1245.09075
1245.091082
1245.091082
1245.091016
1245.090363
1245.091198
1245.090203
1245.090691
1245.091024
1245.091783
1245.090451
1245.091147
1245.091045
1245.090363
1245.090363
1245.090335
1245.089744
1245.089711
1245.090347
1245.089277
1245.090366
1245.091051
1245.09051
1245.090389
1245.090289
1245.089744
1245.089744
1245.088729
1245.085719
1245.085421
1245.088415
1245.08981
1245.091043
1245.091047
1245.090961
1245.090267
1245.090853
1245.085719
1245.085719
1244.240141
1245.085815
1245.085753
1245.089016
1245.089622
1245.090148
1245.09038
1245.090284
1245.090506
1245.089562
1245.089164
1245.085815
1245.089016
1245.089016
1245.090013
1245.090749
1245.09025
1245.090313
1245.090584
1245.090833
1245.091729
1245.090498
1245.089452
1245.090177
1245.090749
1245.090749
1245.09099
1245.09131
1245.090756
1245.091042
1245.090311
1245.090613
1245.090326
1245.091015
1245.090458
1245.090989
1245.09131
1245.09131
1245.091166
1245.090783
1245.090449
1245.09088
1245.090707
1245.090921
1245.090732
1245.091708
1245.091225
1245.089996
1245.090783
)
;
    }
}


// ************************************************************************* //
