/*--------------------------------*- C++ -*----------------------------------*\
| =========                 |                                                 |
| \\      /  F ield         | OpenFOAM: The Open Source CFD Toolbox           |
|  \\    /   O peration     | Version:  4.x                                   |
|   \\  /    A nd           | Web:      www.OpenFOAM.org                      |
|    \\/     M anipulation  |                                                 |
\*---------------------------------------------------------------------------*/
FoamFile
{
    version     2.0;
    format      ascii;
    class       volScalarField;
    location    "6000";
    object      H2;
}
// * * * * * * * * * * * * * * * * * * * * * * * * * * * * * * * * * * * * * //

dimensions      [0 0 0 0 0 0 0];

internalField   nonuniform List<scalar> 
1175
(
0.002172513345
0.002172513344
0.002172513344
0.002172513344
0.002172513344
0.002172513342
0.002172513334
0.002172513311
0.002172513236
0.002172513012
0.002172512376
0.00217251069
0.002172506582
0.002172497526
0.002172479733
0.002172513344
0.002172513344
0.002172513344
0.002172513344
0.002172513343
0.002172513341
0.002172513331
0.002172513298
0.00217251319
0.002172512852
0.002172511852
0.002172509097
0.00217250215
0.002172486497
0.002172455748
0.002172513344
0.002172513344
0.002172513344
0.002172513344
0.002172513343
0.002172513339
0.002172513325
0.002172513275
0.002172513104
0.002172512546
0.002172510813
0.002172505811
0.002172492662
0.002172462166
0.002172402112
0.002172513344
0.002172513344
0.002172513344
0.002172513344
0.002172513343
0.002172513338
0.002172513319
0.00217251325
0.002172513008
0.002172512185
0.002172509523
0.002172501492
0.002172479453
0.002172426572
0.002172321681
0.002172513344
0.002172513344
0.002172513344
0.002172513344
0.002172513343
0.002172513337
0.002172513316
0.002172513239
0.002172512961
0.002172511996
0.002172508803
0.002172498887
0.00217247078
0.002172401201
0.002172261445
0.002172513344
0.002172513344
0.002172513344
0.002172513344
0.002172513343
0.002172513338
0.002172513319
0.00217251325
0.002172513008
0.002172512185
0.002172509523
0.002172501492
0.002172479454
0.002172426572
0.002172321682
0.002172513344
0.002172513344
0.002172513344
0.002172513344
0.002172513343
0.002172513339
0.002172513325
0.002172513275
0.002172513104
0.002172512546
0.002172510813
0.002172505811
0.002172492662
0.002172462167
0.002172402113
0.002172513344
0.002172513344
0.002172513344
0.002172513344
0.002172513343
0.002172513341
0.002172513331
0.002172513298
0.00217251319
0.002172512852
0.002172511852
0.002172509097
0.00217250215
0.002172486498
0.002172455749
0.002172513345
0.002172513344
0.002172513344
0.002172513344
0.002172513344
0.002172513342
0.002172513334
0.002172513311
0.002172513236
0.002172513012
0.002172512376
0.00217251069
0.002172506583
0.002172497526
0.002172479734
0.002172513344
0.002172513344
0.002172513344
0.002172513344
0.002172513343
0.002172513341
0.002172513331
0.002172513298
0.00217251319
0.002172512852
0.002172511852
0.002172509097
0.00217250215
0.002172486497
0.002172513344
0.002172513344
0.002172513344
0.002172513344
0.002172513343
0.002172513339
0.002172513326
0.002172513277
0.002172513111
0.002172512562
0.002172510846
0.002172505848
0.002172492599
0.002172461681
0.00217240074
0.002172513344
0.002172513344
0.002172513344
0.002172513344
0.002172513343
0.002172513337
0.002172513316
0.002172513239
0.002172512957
0.002172511971
0.00217250869
0.002172498491
0.002172469735
0.00217239933
0.002172259118
0.002172513344
0.002172513344
0.002172513344
0.002172513344
0.002172513342
0.002172513335
0.002172513306
0.002172513194
0.002172512771
0.002172511211
0.002172505703
0.002172487437
0.0021724323
0.002172288712
0.00217199566
0.002172513344
0.002172513344
0.002172513344
0.002172513344
0.002172513342
0.002172513334
0.002172513301
0.002172513172
0.002172512671
0.002172510769
0.002172503788
0.002172479473
0.002172401538
0.002172184546
0.002171721206
0.002172513344
0.002172513344
0.002172513344
0.002172513344
0.002172513342
0.002172513335
0.002172513306
0.002172513194
0.002172512771
0.002172511211
0.002172505703
0.002172487437
0.0021724323
0.002172288713
0.002171995662
0.002172513344
0.002172513344
0.002172513344
0.002172513344
0.002172513343
0.002172513337
0.002172513316
0.002172513239
0.002172512957
0.002172511971
0.00217250869
0.002172498491
0.002172469736
0.002172399331
0.002172259121
0.002172513344
0.002172513344
0.002172513344
0.002172513344
0.002172513343
0.002172513339
0.002172513326
0.002172513277
0.002172513111
0.002172512562
0.002172510846
0.002172505848
0.0021724926
0.002172461682
0.002172400743
0.002172513344
0.002172513344
0.002172513344
0.002172513344
0.002172513343
0.002172513341
0.002172513331
0.002172513298
0.00217251319
0.002172512852
0.002172511852
0.002172509097
0.00217250215
0.002172486498
0.002172455748
0.002172513344
0.002172513344
0.002172513344
0.002172513344
0.002172513343
0.002172513339
0.002172513325
0.002172513275
0.002172513104
0.002172512546
0.002172510813
0.002172505811
0.002172492661
0.002172462166
0.002172513344
0.002172513344
0.002172513344
0.002172513344
0.002172513343
0.002172513337
0.002172513316
0.002172513239
0.002172512957
0.002172511971
0.00217250869
0.002172498491
0.002172469735
0.002172399328
0.002172513344
0.002172513344
0.002172513344
0.002172513344
0.002172513342
0.002172513333
0.0021725133
0.002172513167
0.002172512653
0.002172510716
0.00217250373
0.002172480083
0.002172407394
0.002172215481
0.002171822157
0.002172513344
0.002172513344
0.002172513344
0.002172513344
0.002172513341
0.002172513329
0.002172513281
0.00217251308
0.002172512256
0.002172508937
0.002172495986
0.002172448005
0.002172284853
0.002171807339
0.002170763106
0.002172513344
0.002172513344
0.002172513344
0.002172513344
0.00217251334
0.002172513327
0.002172513272
0.002172513034
0.002172512022
0.002172507766
0.002172490162
0.002172419704
0.002172154639
0.002171273872
0.002169088639
0.002172513344
0.002172513344
0.002172513344
0.002172513344
0.002172513341
0.002172513329
0.002172513281
0.00217251308
0.002172512256
0.002172508937
0.002172495986
0.002172448005
0.002172284855
0.002171807347
0.002170763126
0.002172513344
0.002172513344
0.002172513344
0.002172513344
0.002172513342
0.002172513333
0.0021725133
0.002172513167
0.002172512653
0.002172510716
0.00217250373
0.002172480083
0.002172407395
0.002172215487
0.002171822174
0.002172513344
0.002172513344
0.002172513344
0.002172513344
0.002172513343
0.002172513337
0.002172513316
0.002172513239
0.002172512957
0.002172511971
0.00217250869
0.002172498491
0.002172469736
0.002172399331
0.002172259121
0.002172513344
0.002172513344
0.002172513344
0.002172513344
0.002172513343
0.002172513339
0.002172513325
0.002172513275
0.002172513104
0.002172512546
0.002172510813
0.002172505811
0.002172492662
0.002172462167
0.002172402113
0.002172513344
0.002172513344
0.002172513344
0.002172513344
0.002172513343
0.002172513338
0.002172513319
0.00217251325
0.002172513008
0.002172512185
0.002172509523
0.002172501492
0.002172479453
0.00217242657
0.002172513344
0.002172513344
0.002172513344
0.002172513344
0.002172513342
0.002172513335
0.002172513306
0.002172513194
0.002172512771
0.002172511211
0.002172505703
0.002172487437
0.002172432298
0.002172288707
0.002172513344
0.002172513344
0.002172513344
0.002172513344
0.002172513341
0.002172513329
0.002172513281
0.00217251308
0.002172512256
0.002172508937
0.002172495986
0.002172448004
0.00217228485
0.002171807326
0.002172513344
0.002172513344
0.002172513344
0.002172513343
0.00217251334
0.002172513323
0.002172513251
0.002172512934
0.002172511533
0.002172505386
0.002172478803
0.002172367384
0.002171928753
0.002170410709
0.002166542077
0.002172513344
0.002172513344
0.002172513344
0.002172513343
0.002172513339
0.00217251332
0.002172513236
0.002172512849
0.002172511061
0.002172502714
0.002172463382
0.0021722778
0.00217141697
0.002167676694
0.002154735486
0.002172513344
0.002172513344
0.002172513344
0.002172513343
0.00217251334
0.002172513323
0.002172513251
0.002172512934
0.002172511533
0.002172505386
0.002172478803
0.002172367386
0.002171928759
0.002170410739
0.002166542193
0.002172513344
0.002172513344
0.002172513344
0.002172513344
0.002172513341
0.002172513329
0.002172513281
0.00217251308
0.002172512256
0.002172508937
0.002172495986
0.002172448005
0.002172284854
0.002171807345
0.002170763124
0.002172513344
0.002172513344
0.002172513344
0.002172513344
0.002172513342
0.002172513335
0.002172513306
0.002172513194
0.002172512771
0.002172511211
0.002172505703
0.002172487437
0.0021724323
0.002172288713
0.002171995662
0.002172513344
0.002172513344
0.002172513344
0.002172513344
0.002172513343
0.002172513338
0.002172513319
0.00217251325
0.002172513008
0.002172512185
0.002172509523
0.002172501492
0.002172479454
0.002172426572
0.002172321682
0.002172513344
0.002172513344
0.002172513344
0.002172513344
0.002172513343
0.002172513337
0.002172513316
0.002172513239
0.002172512961
0.002172511996
0.002172508803
0.002172498887
0.002172470779
0.002172401199
0.002172513344
0.002172513344
0.002172513344
0.002172513344
0.002172513342
0.002172513334
0.002172513301
0.002172513172
0.002172512671
0.002172510769
0.002172503788
0.002172479472
0.002172401536
0.002172184538
0.002172513344
0.002172513344
0.002172513344
0.002172513344
0.00217251334
0.002172513327
0.002172513272
0.002172513034
0.002172512022
0.002172507766
0.002172490161
0.002172419703
0.002172154631
0.002171273841
0.002172513344
0.002172513344
0.002172513344
0.002172513343
0.002172513339
0.00217251332
0.002172513236
0.002172512849
0.002172511061
0.002172502713
0.002172463382
0.002172277798
0.002171416954
0.002167676579
0.002172513344
0.002172513344
0.002172513344
0.002172513343
0.002172513338
0.002172513317
0.002172513216
0.002172512735
0.002172510382
0.002172498434
0.002172434893
0.002172077093
0.002169922649
0.002155959544
0.002058063927
0.002172513344
0.002172513344
0.002172513344
0.002172513343
0.002172513339
0.00217251332
0.002172513236
0.002172512849
0.002172511061
0.002172502713
0.002172463382
0.002172277799
0.002171416966
0.002167676678
0.00215473545
0.002172513344
0.002172513344
0.002172513344
0.002172513344
0.00217251334
0.002172513327
0.002172513272
0.002172513034
0.002172512022
0.002172507766
0.002172490161
0.002172419704
0.002172154638
0.002171273869
0.002169088638
0.002172513344
0.002172513344
0.002172513344
0.002172513344
0.002172513342
0.002172513334
0.002172513301
0.002172513172
0.002172512671
0.002172510769
0.002172503788
0.002172479473
0.002172401538
0.002172184545
0.002171721207
0.002172513344
0.002172513344
0.002172513344
0.002172513344
0.002172513343
0.002172513337
0.002172513316
0.002172513239
0.002172512961
0.002172511996
0.002172508803
0.002172498887
0.00217247078
0.002172401202
0.002172261446
0.002172513344
0.002172513344
0.002172513344
0.002172513344
0.002172513343
0.002172513338
0.002172513319
0.00217251325
0.002172513008
0.002172512185
0.002172509523
0.002172501492
0.002172479453
0.00217242657
0.002172513344
0.002172513344
0.002172513344
0.002172513344
0.002172513342
0.002172513335
0.002172513306
0.002172513194
0.002172512771
0.002172511211
0.002172505703
0.002172487436
0.002172432298
0.002172288708
0.002172513344
0.002172513344
0.002172513344
0.002172513344
0.002172513341
0.002172513329
0.002172513281
0.00217251308
0.002172512256
0.002172508937
0.002172495986
0.002172448004
0.00217228485
0.002171807329
0.002172513344
0.002172513344
0.002172513344
0.002172513343
0.00217251334
0.002172513323
0.002172513251
0.002172512934
0.002172511533
0.002172505386
0.002172478802
0.002172367383
0.002171928748
0.002170410689
0.002172513344
0.002172513344
0.002172513344
0.002172513343
0.002172513339
0.00217251332
0.002172513236
0.002172512849
0.002172511061
0.002172502713
0.002172463382
0.002172277797
0.002171416952
0.002167676575
0.002172513344
0.002172513344
0.002172513344
0.002172513343
0.00217251334
0.002172513323
0.002172513251
0.002172512934
0.002172511533
0.002172505386
0.002172478802
0.002172367384
0.00217192875
0.002170410692
0.002172513344
0.002172513344
0.002172513344
0.002172513344
0.002172513341
0.002172513329
0.002172513281
0.00217251308
0.002172512256
0.002172508937
0.002172495986
0.002172448005
0.002172284851
0.002171807334
0.00217076309
0.002172513344
0.002172513344
0.002172513344
0.002172513344
0.002172513342
0.002172513335
0.002172513306
0.002172513194
0.002172512771
0.002172511211
0.002172505703
0.002172487437
0.002172432299
0.002172288711
0.002171995657
0.002172513344
0.002172513344
0.002172513344
0.002172513344
0.002172513343
0.002172513338
0.002172513319
0.00217251325
0.002172513008
0.002172512185
0.002172509523
0.002172501492
0.002172479453
0.002172426572
0.002172321681
0.002172513344
0.002172513344
0.002172513344
0.002172513344
0.002172513343
0.002172513339
0.002172513325
0.002172513275
0.002172513104
0.002172512546
0.002172510813
0.002172505811
0.002172492661
0.002172462166
0.002172513344
0.002172513344
0.002172513344
0.002172513344
0.002172513343
0.002172513337
0.002172513316
0.002172513239
0.002172512957
0.002172511971
0.002172508689
0.002172498491
0.002172469735
0.002172399328
0.002172513344
0.002172513344
0.002172513344
0.002172513344
0.002172513342
0.002172513333
0.0021725133
0.002172513167
0.002172512653
0.002172510716
0.00217250373
0.002172480083
0.002172407392
0.002172215478
0.002172513344
0.002172513344
0.002172513344
0.002172513344
0.002172513341
0.002172513329
0.002172513281
0.00217251308
0.002172512256
0.002172508937
0.002172495986
0.002172448004
0.002172284849
0.002171807328
0.002172513344
0.002172513344
0.002172513344
0.002172513344
0.00217251334
0.002172513327
0.002172513272
0.002172513034
0.002172512022
0.002172507766
0.002172490161
0.002172419703
0.002172154633
0.002171273847
0.002172513344
0.002172513344
0.002172513344
0.002172513344
0.002172513341
0.002172513329
0.002172513281
0.00217251308
0.002172512256
0.002172508937
0.002172495986
0.002172448004
0.00217228485
0.00217180733
0.002172513344
0.002172513344
0.002172513344
0.002172513344
0.002172513342
0.002172513333
0.0021725133
0.002172513167
0.002172512653
0.002172510716
0.00217250373
0.002172480083
0.002172407393
0.002172215478
0.002172513344
0.002172513344
0.002172513344
0.002172513344
0.002172513343
0.002172513337
0.002172513316
0.002172513239
0.002172512957
0.002172511971
0.002172508689
0.002172498491
0.002172469735
0.002172399329
0.002172259116
0.002172513344
0.002172513344
0.002172513344
0.002172513344
0.002172513343
0.002172513339
0.002172513325
0.002172513275
0.002172513104
0.002172512546
0.002172510813
0.002172505811
0.002172492662
0.002172462166
0.002172402111
0.002172513344
0.002172513344
0.002172513344
0.002172513344
0.002172513343
0.002172513341
0.002172513331
0.002172513298
0.00217251319
0.002172512852
0.002172511852
0.002172509097
0.00217250215
0.002172486497
0.002172513344
0.002172513344
0.002172513344
0.002172513344
0.002172513343
0.002172513339
0.002172513326
0.002172513277
0.002172513111
0.002172512562
0.002172510846
0.002172505848
0.002172492599
0.00217246168
0.002172513344
0.002172513344
0.002172513344
0.002172513344
0.002172513343
0.002172513337
0.002172513316
0.002172513239
0.002172512957
0.002172511971
0.002172508689
0.002172498491
0.002172469735
0.002172399329
0.002172513344
0.002172513344
0.002172513344
0.002172513344
0.002172513342
0.002172513335
0.002172513306
0.002172513194
0.002172512771
0.002172511211
0.002172505703
0.002172487436
0.002172432298
0.002172288708
0.002172513344
0.002172513344
0.002172513344
0.002172513344
0.002172513342
0.002172513334
0.002172513301
0.002172513172
0.002172512671
0.002172510769
0.002172503788
0.002172479472
0.002172401536
0.002172184539
0.002172513344
0.002172513344
0.002172513344
0.002172513344
0.002172513342
0.002172513335
0.002172513306
0.002172513194
0.002172512771
0.002172511211
0.002172505703
0.002172487436
0.002172432298
0.002172288708
0.002172513344
0.002172513344
0.002172513344
0.002172513344
0.002172513343
0.002172513337
0.002172513316
0.002172513239
0.002172512957
0.002172511971
0.002172508689
0.002172498491
0.002172469735
0.002172399328
0.002172513344
0.002172513344
0.002172513344
0.002172513344
0.002172513343
0.002172513339
0.002172513326
0.002172513277
0.002172513111
0.002172512562
0.002172510846
0.002172505848
0.002172492599
0.00217246168
0.002172513344
0.002172513344
0.002172513344
0.002172513344
0.002172513343
0.002172513341
0.002172513331
0.002172513298
0.00217251319
0.002172512852
0.002172511852
0.002172509097
0.00217250215
0.002172486497
0.002172455747
0.002172513345
0.002172513344
0.002172513344
0.002172513344
0.002172513344
0.002172513342
0.002172513334
0.002172513311
0.002172513236
0.002172513012
0.002172512376
0.00217251069
0.002172506582
0.002172497526
0.002172513344
0.002172513344
0.002172513344
0.002172513344
0.002172513343
0.002172513341
0.002172513331
0.002172513298
0.00217251319
0.002172512852
0.002172511852
0.002172509097
0.00217250215
0.002172486497
0.002172513344
0.002172513344
0.002172513344
0.002172513344
0.002172513343
0.002172513339
0.002172513325
0.002172513275
0.002172513104
0.002172512546
0.002172510813
0.002172505811
0.002172492661
0.002172462166
0.002172513344
0.002172513344
0.002172513344
0.002172513344
0.002172513343
0.002172513338
0.002172513319
0.00217251325
0.002172513008
0.002172512185
0.002172509523
0.002172501492
0.002172479453
0.00217242657
0.002172513344
0.002172513344
0.002172513344
0.002172513344
0.002172513343
0.002172513337
0.002172513316
0.002172513239
0.002172512961
0.002172511996
0.002172508803
0.002172498887
0.002172470779
0.002172401199
0.002172513344
0.002172513344
0.002172513344
0.002172513344
0.002172513343
0.002172513338
0.002172513319
0.00217251325
0.002172513008
0.002172512185
0.002172509523
0.002172501492
0.002172479453
0.00217242657
0.002172513344
0.002172513344
0.002172513344
0.002172513344
0.002172513343
0.002172513339
0.002172513325
0.002172513275
0.002172513104
0.002172512546
0.002172510813
0.002172505811
0.002172492661
0.002172462165
0.002172513344
0.002172513344
0.002172513344
0.002172513344
0.002172513343
0.002172513341
0.002172513331
0.002172513298
0.00217251319
0.002172512852
0.002172511852
0.002172509097
0.00217250215
0.002172486497
0.002172513345
0.002172513344
0.002172513344
0.002172513344
0.002172513344
0.002172513342
0.002172513334
0.002172513311
0.002172513236
0.002172513012
0.002172512376
0.00217251069
0.002172506582
0.002172497525
)
;

boundaryField
{
    top
    {
        type            zeroGradient;
    }
    bottom
    {
        type            zeroGradient;
    }
    side-walls
    {
        type            zeroGradient;
    }
    inlet
    {
        type            zeroGradient;
    }
    outlet
    {
        type            zeroGradient;
    }
    procBoundary0to1
    {
        type            processor;
        value           nonuniform List<scalar> 
97
(
0.002172448812
0.002172455747
0.002172403821
0.002172304559
0.002172159341
0.00217205584
0.002172159343
0.002172304561
0.002172403823
0.002172448813
0.002172455747
0.002172455747
0.002172302576
0.002172259115
0.002172048195
0.002171596875
0.002171171886
0.002171596878
0.002172048199
0.002172302579
0.002172403823
0.002172402111
0.002172259115
0.002172259115
0.002171298085
0.002170763082
0.002169632683
0.002167455712
0.002169632704
0.002171298102
0.0021720482
0.00217230456
0.00217232168
0.002171995654
0.002170763082
0.002170763082
0.002163932608
0.002154735356
0.002152768941
0.002163932677
0.002169632703
0.002171596879
0.002172159343
0.002172261443
0.0021717212
0.002169088609
0.002154735356
0.002154735356
0.002104772002
0.002154735368
0.002152768938
0.00216654214
0.002167455716
0.00217117189
0.002172055842
0.002172321681
0.002171995658
0.002170763109
0.002166542154
0.002154735368
0.00216654214
0.00216654214
0.002169632683
0.002171822159
0.002171596875
0.002172159343
0.002172402112
0.002172259119
0.002171822166
0.002170763109
0.002169088627
0.002170763112
0.002171822159
0.002171822159
0.002172048196
0.002172400741
0.002172304559
0.002172455748
0.002172400743
0.002172259119
0.002171995659
0.002171721204
0.00217199566
0.002172259119
0.002172400741
0.002172400741
0.002172403821
0.002172479733
0.002172479734
0.002172455748
0.002172402112
0.002172321681
0.002172261444
0.002172321681
0.002172402111
0.002172455748
0.002172479733
)
;
    }
}


// ************************************************************************* //
