/*--------------------------------*- C++ -*----------------------------------*\
| =========                 |                                                 |
| \\      /  F ield         | OpenFOAM: The Open Source CFD Toolbox           |
|  \\    /   O peration     | Version:  4.x                                   |
|   \\  /    A nd           | Web:      www.OpenFOAM.org                      |
|    \\/     M anipulation  |                                                 |
\*---------------------------------------------------------------------------*/
FoamFile
{
    version     2.0;
    format      ascii;
    class       volScalarField;
    location    "6000";
    object      H2O;
}
// * * * * * * * * * * * * * * * * * * * * * * * * * * * * * * * * * * * * * //

dimensions      [0 0 0 0 0 0 0];

internalField   nonuniform List<scalar> 
1175
(
9.998917037e-07
9.998917852e-07
9.998921115e-07
9.998935554e-07
9.998987757e-07
9.999168327e-07
9.9997799e-07
1.000178088e-06
1.00080779e-06
1.002699073e-06
1.008067164e-06
1.022290421e-06
1.056955167e-06
1.13339348e-06
1.283572307e-06
9.998918408e-07
9.99891885e-07
9.998921898e-07
9.998940432e-07
9.999005654e-07
9.999241498e-07
1.000006528e-06
1.000285503e-06
1.001197484e-06
1.004049209e-06
1.012483566e-06
1.035733305e-06
1.094354603e-06
1.226447282e-06
1.485972875e-06
9.998918795e-07
9.998919113e-07
9.998924952e-07
9.998948678e-07
9.999037496e-07
9.99936836e-07
1.000056277e-06
1.000478336e-06
1.001918668e-06
1.006632971e-06
1.021249054e-06
1.063457588e-06
1.174407458e-06
1.431736766e-06
1.938551581e-06
9.998919603e-07
9.998921258e-07
9.998927732e-07
9.998956179e-07
9.999068067e-07
9.999494676e-07
1.000108248e-06
1.000686356e-06
1.002729129e-06
1.009676156e-06
1.03213186e-06
1.099894503e-06
1.285840928e-06
1.732045986e-06
2.617181678e-06
9.998919845e-07
9.998921398e-07
9.99892958e-07
9.998960581e-07
9.999081696e-07
9.999550287e-07
1.000131867e-06
1.000784564e-06
1.003129243e-06
1.011265041e-06
1.038205985e-06
1.121870704e-06
1.359014019e-06
1.946076245e-06
3.125373151e-06
9.998920372e-07
9.998920623e-07
9.998927941e-07
9.998957974e-07
9.999069899e-07
9.999495294e-07
1.000108269e-06
1.000686325e-06
1.002728944e-06
1.009676063e-06
1.032131732e-06
1.099893672e-06
1.285837451e-06
1.732035344e-06
2.617156195e-06
9.99892023e-07
9.998921272e-07
9.998926913e-07
9.998950165e-07
9.999037422e-07
9.99936801e-07
1.000056377e-06
1.000478324e-06
1.001918643e-06
1.006632963e-06
1.021248975e-06
1.063456706e-06
1.17440385e-06
1.4317249e-06
1.938522861e-06
9.998918484e-07
9.998919112e-07
9.998924014e-07
9.998942565e-07
9.999006645e-07
9.999243376e-07
1.000006602e-06
1.000285505e-06
1.00119756e-06
1.004049336e-06
1.012483337e-06
1.035732308e-06
1.094350584e-06
1.226434945e-06
1.48594423e-06
9.998917294e-07
9.998919055e-07
9.998922198e-07
9.998937576e-07
9.998990039e-07
9.99916912e-07
9.99978051e-07
1.000178175e-06
1.000807871e-06
1.002699167e-06
1.008067022e-06
1.022289563e-06
1.05695159e-06
1.133381919e-06
1.283543871e-06
9.998918672e-07
9.998918699e-07
9.998923169e-07
9.998941662e-07
9.999006831e-07
9.999241466e-07
1.000006513e-06
1.000285393e-06
1.001197398e-06
1.00404928e-06
1.012483907e-06
1.035734657e-06
1.094359734e-06
1.226467731e-06
9.998918551e-07
9.998919595e-07
9.998924187e-07
9.998947641e-07
9.99903231e-07
9.999350437e-07
1.000050452e-06
1.000459602e-06
1.001864512e-06
1.006495608e-06
1.020971535e-06
1.063144749e-06
1.174941023e-06
1.435858096e-06
1.950179812e-06
9.99891929e-07
9.998921713e-07
9.998928438e-07
9.998958108e-07
9.999078112e-07
9.999541043e-07
1.000130174e-06
1.00078584e-06
1.003163666e-06
1.011480265e-06
1.039166792e-06
1.125217022e-06
1.367839402e-06
1.961913858e-06
3.145125094e-06
9.99892171e-07
9.998922909e-07
9.998930678e-07
9.998968492e-07
9.999123514e-07
9.999740625e-07
1.000216776e-06
1.001157829e-06
1.004730126e-06
1.017891644e-06
1.064358859e-06
1.218469734e-06
1.683657211e-06
2.895132546e-06
5.367890548e-06
9.998921564e-07
9.998922895e-07
9.998932516e-07
9.998973823e-07
9.999145224e-07
9.999831491e-07
1.000258023e-06
1.001344771e-06
1.005570066e-06
1.021619732e-06
1.080518911e-06
1.285650828e-06
1.943151442e-06
3.773845118e-06
7.683174097e-06
9.99892102e-07
9.998922783e-07
9.998931457e-07
9.998969544e-07
9.999123938e-07
9.99974008e-07
1.000216794e-06
1.00115791e-06
1.004730208e-06
1.017891813e-06
1.064358776e-06
1.21846846e-06
1.683649903e-06
2.89510191e-06
5.367803457e-06
9.998920286e-07
9.998922043e-07
9.998928734e-07
9.99895904e-07
9.999078264e-07
9.999541234e-07
1.000130093e-06
1.000785909e-06
1.003163538e-06
1.011480193e-06
1.03916646e-06
1.125214702e-06
1.367828372e-06
1.96187221e-06
3.145014251e-06
9.998918998e-07
9.998920944e-07
9.998926795e-07
9.998948728e-07
9.999032807e-07
9.999351268e-07
1.000050592e-06
1.000459781e-06
1.001864699e-06
1.006495552e-06
1.020971017e-06
1.063142229e-06
1.17493048e-06
1.435820709e-06
1.950076077e-06
9.998919367e-07
9.998919233e-07
9.998924402e-07
9.998941427e-07
9.999007206e-07
9.999242622e-07
1.000006548e-06
1.000285556e-06
1.001197609e-06
1.004049218e-06
1.01248338e-06
1.035732625e-06
1.094351496e-06
1.226436504e-06
1.485945878e-06
9.998918586e-07
9.998920472e-07
9.998926368e-07
9.998949162e-07
9.999037265e-07
9.999368112e-07
1.000056434e-06
1.00047827e-06
1.001918663e-06
1.006633236e-06
1.021250214e-06
1.063462046e-06
1.174423386e-06
1.431790041e-06
9.998920243e-07
9.998920872e-07
9.998927478e-07
9.99895831e-07
9.999078387e-07
9.999541627e-07
1.000130213e-06
1.000785925e-06
1.003163649e-06
1.011480519e-06
1.039167936e-06
1.125221823e-06
1.367859518e-06
1.962000506e-06
9.998920273e-07
9.998922287e-07
9.998932538e-07
9.998973221e-07
9.999148208e-07
9.999854945e-07
1.000268627e-06
1.001388186e-06
1.005728346e-06
1.022068041e-06
1.081006075e-06
1.280518214e-06
1.893809357e-06
3.513090163e-06
6.832149877e-06
9.998922159e-07
9.998924235e-07
9.998937054e-07
9.998990145e-07
9.999221693e-07
1.000019597e-06
1.00042683e-06
1.002119456e-06
1.009072459e-06
1.037076584e-06
1.146334273e-06
1.551126977e-06
2.927560954e-06
6.956191419e-06
1.576670212e-05
9.998921722e-07
9.998924898e-07
9.998938689e-07
9.998997974e-07
9.999255355e-07
1.000035835e-06
1.000506489e-06
1.002514535e-06
1.011045149e-06
1.046954622e-06
1.195469773e-06
1.789855549e-06
4.025947092e-06
1.145610518e-05
2.98914995e-05
9.99892122e-07
9.998923637e-07
9.998936579e-07
9.998990457e-07
9.999222456e-07
1.000019529e-06
1.00042681e-06
1.002119551e-06
1.00907243e-06
1.037076425e-06
1.146332914e-06
1.551118772e-06
2.927518083e-06
6.956003908e-06
1.576610714e-05
9.998921263e-07
9.998922711e-07
9.998931926e-07
9.998973697e-07
9.999148219e-07
9.999854499e-07
1.00026852e-06
1.001388256e-06
1.005728193e-06
1.022067824e-06
1.081004557e-06
1.280509274e-06
1.893764353e-06
3.512899966e-06
6.831540578e-06
9.998920419e-07
9.99892156e-07
9.998928726e-07
9.998958908e-07
9.999078129e-07
9.999542528e-07
1.000130271e-06
1.000786034e-06
1.003163676e-06
1.011480404e-06
1.039166974e-06
1.125215987e-06
1.367830847e-06
1.961876046e-06
3.145014965e-06
9.998919982e-07
9.998920439e-07
9.99892631e-07
9.998950133e-07
9.999038782e-07
9.999369241e-07
1.000056401e-06
1.000478393e-06
1.001918731e-06
1.006633178e-06
1.021249446e-06
1.063457905e-06
1.174406496e-06
1.431729484e-06
1.938527421e-06
9.998920742e-07
9.998921007e-07
9.998928337e-07
9.998958505e-07
9.999070314e-07
9.999496199e-07
1.000108402e-06
1.000686441e-06
1.002729133e-06
1.009676659e-06
1.032134243e-06
1.099903649e-06
1.285873159e-06
1.732148541e-06
9.998921265e-07
9.998922981e-07
9.998932224e-07
9.998969322e-07
9.999123524e-07
9.999740109e-07
1.000216847e-06
1.001158079e-06
1.004730507e-06
1.017892701e-06
1.064362696e-06
1.218486417e-06
1.683724008e-06
2.89538142e-06
9.998922382e-07
9.998923639e-07
9.998936812e-07
9.99899096e-07
9.99922313e-07
1.000019391e-06
1.000426724e-06
1.002119619e-06
1.009072598e-06
1.037077547e-06
1.146339311e-06
1.55115192e-06
2.9276828e-06
6.956788501e-06
9.998923789e-07
9.998926639e-07
9.998942546e-07
9.999013885e-07
9.999327281e-07
1.000070583e-06
1.000677651e-06
1.00335674e-06
1.015175776e-06
1.067036934e-06
1.291299022e-06
2.231246621e-06
5.931636533e-06
1.873840132e-05
5.137762012e-05
9.99892369e-07
9.998927358e-07
9.998944415e-07
9.999023221e-07
9.9993769e-07
1.000096092e-06
1.000811121e-06
1.004075914e-06
1.01915414e-06
1.089576985e-06
1.421374431e-06
2.986896505e-06
1.024850393e-05
4.179949796e-05
0.0001509653295
9.998922397e-07
9.998924803e-07
9.998941097e-07
9.999012624e-07
9.999327558e-07
1.000070648e-06
1.000677773e-06
1.003356831e-06
1.015175752e-06
1.067036541e-06
1.291295447e-06
2.231221603e-06
5.931474741e-06
1.873747254e-05
5.13734903e-05
9.998922652e-07
9.998924621e-07
9.998937095e-07
9.998992478e-07
9.999222465e-07
1.000019522e-06
1.000426815e-06
1.002119637e-06
1.009072687e-06
1.037077183e-06
1.146335774e-06
1.55112853e-06
2.927547122e-06
6.956065842e-06
1.576615588e-05
9.998920801e-07
9.998922786e-07
9.998930837e-07
9.998969208e-07
9.999124906e-07
9.999741314e-07
1.000216833e-06
1.001158034e-06
1.004730451e-06
1.017892458e-06
1.064360789e-06
1.218474144e-06
1.683664338e-06
2.895128638e-06
5.367822138e-06
9.998919527e-07
9.998922261e-07
9.998928017e-07
9.99895684e-07
9.999068185e-07
9.999495692e-07
1.000108424e-06
1.000686455e-06
1.002729115e-06
1.009676449e-06
1.032132938e-06
1.099897182e-06
1.285845788e-06
1.732049984e-06
2.617170647e-06
9.998919573e-07
9.998921692e-07
9.998929059e-07
9.99895959e-07
9.999081502e-07
9.999551922e-07
1.00013199e-06
1.000784646e-06
1.003129529e-06
1.011265881e-06
1.038209674e-06
1.121884635e-06
1.359062049e-06
1.946224382e-06
9.998920901e-07
9.99892324e-07
9.998931369e-07
9.998973803e-07
9.999144235e-07
9.99983188e-07
1.000258241e-06
1.001344952e-06
1.005570618e-06
1.021621649e-06
1.080526004e-06
1.285680269e-06
1.943270016e-06
3.774276452e-06
9.998922012e-07
9.998924021e-07
9.998938116e-07
9.998998046e-07
9.999256765e-07
1.000035771e-06
1.000506525e-06
1.002514637e-06
1.011045749e-06
1.046957294e-06
1.195483318e-06
1.789923929e-06
4.026283312e-06
1.14576586e-05
9.9989229e-07
9.998926874e-07
9.998945299e-07
9.999024013e-07
9.999377467e-07
1.00009598e-06
1.000811123e-06
1.004075939e-06
1.019154762e-06
1.08957991e-06
1.421391451e-06
2.987003407e-06
1.02492049e-05
4.180433579e-05
9.998924567e-07
9.998928191e-07
9.998946798e-07
9.999035674e-07
9.999435179e-07
1.000126511e-06
1.00097868e-06
1.00503376e-06
1.024885288e-06
1.125676605e-06
1.661696975e-06
4.679935621e-06
2.285335486e-05
0.0001406336711
0.0009663788095
9.998923833e-07
9.998927046e-07
9.998944398e-07
9.999023385e-07
9.999377384e-07
1.000096048e-06
1.000811155e-06
1.004075992e-06
1.01915472e-06
1.089579526e-06
1.421386012e-06
2.986951355e-06
1.024874838e-05
4.180039942e-05
0.0001509662527
9.998922852e-07
9.998925255e-07
9.998939537e-07
9.99899846e-07
9.999255389e-07
1.000035678e-06
1.000506565e-06
1.002514696e-06
1.011045555e-06
1.046956468e-06
1.195477214e-06
1.789884428e-06
4.026046833e-06
1.145636107e-05
2.989168491e-05
9.998921452e-07
9.998923672e-07
9.998933172e-07
9.99897378e-07
9.999143871e-07
9.999832437e-07
1.00025826e-06
1.001344955e-06
1.005570363e-06
1.021620898e-06
1.080522634e-06
1.28566242e-06
1.943183784e-06
3.773910472e-06
7.683215889e-06
9.998921253e-07
9.998921805e-07
9.998929978e-07
9.998961302e-07
9.999082884e-07
9.999551597e-07
1.000131999e-06
1.000784619e-06
1.003129453e-06
1.011265578e-06
1.038207804e-06
1.121875729e-06
1.359025829e-06
1.946096334e-06
3.125385638e-06
9.998920314e-07
9.998921169e-07
9.998928183e-07
9.998957504e-07
9.999069082e-07
9.99949631e-07
1.000108446e-06
1.000686531e-06
1.002729219e-06
1.009676971e-06
1.03213514e-06
1.099906246e-06
1.285878417e-06
1.732153511e-06
9.998921666e-07
9.998923772e-07
9.998931215e-07
9.998969633e-07
9.999124451e-07
9.999741177e-07
1.000216971e-06
1.001158204e-06
1.004730727e-06
1.017893687e-06
1.064365483e-06
1.218494068e-06
1.683742779e-06
2.895401005e-06
9.998921623e-07
9.998924431e-07
9.998936836e-07
9.998992157e-07
9.999222747e-07
1.00001956e-06
1.000426828e-06
1.002119698e-06
1.009073074e-06
1.037079284e-06
1.146346144e-06
1.551177485e-06
2.92776375e-06
6.956924256e-06
9.998923983e-07
9.998926608e-07
9.998942018e-07
9.999014808e-07
9.999328246e-07
1.000070715e-06
1.000677821e-06
1.003356843e-06
1.015176479e-06
1.067040247e-06
1.291315399e-06
2.231325352e-06
5.932002034e-06
1.87399602e-05
9.998924359e-07
9.998926552e-07
9.998945002e-07
9.999024692e-07
9.999377805e-07
1.000096048e-06
1.000811029e-06
1.004076135e-06
1.019155166e-06
1.089581871e-06
1.421401393e-06
2.987050644e-06
1.024940976e-05
4.180501846e-05
9.998923164e-07
9.998926887e-07
9.998942129e-07
9.999014008e-07
9.999328711e-07
1.000070768e-06
1.000677715e-06
1.003356906e-06
1.015176409e-06
1.067039882e-06
1.291312277e-06
2.231305181e-06
5.931889696e-06
1.873952376e-05
9.998921837e-07
9.998924886e-07
9.99893672e-07
9.998991557e-07
9.999222661e-07
1.000019698e-06
1.000426871e-06
1.002119669e-06
1.009072994e-06
1.037078792e-06
1.146342958e-06
1.551159028e-06
2.92766928e-06
6.956508052e-06
1.576757058e-05
9.998921689e-07
9.998922798e-07
9.99893222e-07
9.998970037e-07
9.999124965e-07
9.999740261e-07
1.000216853e-06
1.001158017e-06
1.004730461e-06
1.017893159e-06
1.064363095e-06
1.218482833e-06
1.683694402e-06
2.895218973e-06
5.368031197e-06
9.998919593e-07
9.998921811e-07
9.998929871e-07
9.998957966e-07
9.999069684e-07
9.999496011e-07
1.000108379e-06
1.00068643e-06
1.002729246e-06
1.009676732e-06
1.032133792e-06
1.09989989e-06
1.285853943e-06
1.732070984e-06
2.617209848e-06
9.998918885e-07
9.998920174e-07
9.998925984e-07
9.998949794e-07
9.999038273e-07
9.999368663e-07
1.00005653e-06
1.000478576e-06
1.001918919e-06
1.006633775e-06
1.021251582e-06
1.063465289e-06
1.174429561e-06
1.43179464e-06
9.998920122e-07
9.998921497e-07
9.998928934e-07
9.998958495e-07
9.999078556e-07
9.999542467e-07
1.000130246e-06
1.000786182e-06
1.003164076e-06
1.011481508e-06
1.039170727e-06
1.12523042e-06
1.367880478e-06
1.962024668e-06
9.998920394e-07
9.998922922e-07
9.998933386e-07
9.9989764e-07
9.999149527e-07
9.999855516e-07
1.000268629e-06
1.001388311e-06
1.005728802e-06
1.022069977e-06
1.08101343e-06
1.280543774e-06
1.893889548e-06
3.513301701e-06
9.998922602e-07
9.998924353e-07
9.998936533e-07
9.998991739e-07
9.999222069e-07
1.000019644e-06
1.000426891e-06
1.002119737e-06
1.009073188e-06
1.037079943e-06
1.146348595e-06
1.551185231e-06
2.927782773e-06
6.95694408e-06
9.998922998e-07
9.998925856e-07
9.998938896e-07
9.99899862e-07
9.999255634e-07
1.000035794e-06
1.000506477e-06
1.002514623e-06
1.011045966e-06
1.046958784e-06
1.195489024e-06
1.789943482e-06
4.026337004e-06
1.145769613e-05
9.998921256e-07
9.998925095e-07
9.99893726e-07
9.998992062e-07
9.999222849e-07
1.000019555e-06
1.000426802e-06
1.002119754e-06
1.009073122e-06
1.037079647e-06
1.146347154e-06
1.551177731e-06
2.927752122e-06
6.956846674e-06
9.99892098e-07
9.998923115e-07
9.998932992e-07
9.998975019e-07
9.999148566e-07
9.999855139e-07
1.000268735e-06
1.001388419e-06
1.005728828e-06
1.022069648e-06
1.0810117e-06
1.280536251e-06
1.893863328e-06
3.513252842e-06
9.99892011e-07
9.998921294e-07
9.998928641e-07
9.998959799e-07
9.999079241e-07
9.999541533e-07
1.000130206e-06
1.000786003e-06
1.003163993e-06
1.011481247e-06
1.039169843e-06
1.125225644e-06
1.367862192e-06
1.961967684e-06
3.145249125e-06
9.9989199e-07
9.998920469e-07
9.998925615e-07
9.998949908e-07
9.999039005e-07
9.999369446e-07
1.000056419e-06
1.000478467e-06
1.001918844e-06
1.006633694e-06
1.021250825e-06
1.063462029e-06
1.174418021e-06
1.431757812e-06
1.93858228e-06
9.99891795e-07
9.998918284e-07
9.998922678e-07
9.998941525e-07
9.999006806e-07
9.999242474e-07
1.000006622e-06
1.000285601e-06
1.001197691e-06
1.004049841e-06
1.012484991e-06
1.035737295e-06
1.094364815e-06
1.226471486e-06
9.998918143e-07
9.998921622e-07
9.998926831e-07
9.998947971e-07
9.999034538e-07
9.999352645e-07
1.000050608e-06
1.000459911e-06
1.00186498e-06
1.006496557e-06
1.020973754e-06
1.063150717e-06
1.174955768e-06
1.435889466e-06
9.998920226e-07
9.998921851e-07
9.998929651e-07
9.998959811e-07
9.999079935e-07
9.999543618e-07
1.000130295e-06
1.000786067e-06
1.003164043e-06
1.011481611e-06
1.039171338e-06
1.125231549e-06
1.367882028e-06
1.962025378e-06
9.998921234e-07
9.998923538e-07
9.998931854e-07
9.998969408e-07
9.999124461e-07
9.999741654e-07
1.000216859e-06
1.001158134e-06
1.004730813e-06
1.017894008e-06
1.064366961e-06
1.218498269e-06
1.683751119e-06
2.895405764e-06
9.99892259e-07
9.998923099e-07
9.998931379e-07
9.998974289e-07
9.999144109e-07
9.999832886e-07
1.000258318e-06
1.001345042e-06
1.005570836e-06
1.021622504e-06
1.080529251e-06
1.285689306e-06
1.943289008e-06
3.774283154e-06
9.998921155e-07
9.998922777e-07
9.998931212e-07
9.998969652e-07
9.999124855e-07
9.999741799e-07
1.000216917e-06
1.001158112e-06
1.00473079e-06
1.017893897e-06
1.064366448e-06
1.218496087e-06
1.683743059e-06
2.895381668e-06
9.998920561e-07
9.998922385e-07
9.998928811e-07
9.998960087e-07
9.999078635e-07
9.999542533e-07
1.000130172e-06
1.00078598e-06
1.003164021e-06
1.011481435e-06
1.039170742e-06
1.125229269e-06
1.367875331e-06
1.962012996e-06
9.998919433e-07
9.998920822e-07
9.998926084e-07
9.998948707e-07
9.999033469e-07
9.999351065e-07
1.000050617e-06
1.000459813e-06
1.001864839e-06
1.006496256e-06
1.020973296e-06
1.063149089e-06
1.174951883e-06
1.435886428e-06
9.998918628e-07
9.998919559e-07
9.998924324e-07
9.998942079e-07
9.999007012e-07
9.99924271e-07
1.000006614e-06
1.000285512e-06
1.001197624e-06
1.004049759e-06
1.012484702e-06
1.035736037e-06
1.094361027e-06
1.226460749e-06
1.486000471e-06
9.998916749e-07
9.99891863e-07
9.998922224e-07
9.998935594e-07
9.998987168e-07
9.999168997e-07
9.999780857e-07
1.000178239e-06
1.000808056e-06
1.002699568e-06
1.008068116e-06
1.022292719e-06
1.05696001e-06
1.133403235e-06
9.998917321e-07
9.998919445e-07
9.99892376e-07
9.998941275e-07
9.999006376e-07
9.999242222e-07
1.00000659e-06
1.00028563e-06
1.001197834e-06
1.00404997e-06
1.012485231e-06
1.035737716e-06
1.094365269e-06
1.226472002e-06
9.998918853e-07
9.998920816e-07
9.99892677e-07
9.99895038e-07
9.999039648e-07
9.999369756e-07
1.000056488e-06
1.000478485e-06
1.001919019e-06
1.006633904e-06
1.021252065e-06
1.063466323e-06
1.174431372e-06
1.431796394e-06
9.99892004e-07
9.9989222e-07
9.998928023e-07
9.99895773e-07
9.999070186e-07
9.999496534e-07
1.000108525e-06
1.000686585e-06
1.002729429e-06
1.009677447e-06
1.032136374e-06
1.099909041e-06
1.285883378e-06
1.732157714e-06
9.998920614e-07
9.998922039e-07
9.99892933e-07
9.998960207e-07
9.999081345e-07
9.999551534e-07
1.000132156e-06
1.000784738e-06
1.003129786e-06
1.011266589e-06
1.038211469e-06
1.121888791e-06
1.359069433e-06
1.946227363e-06
9.998920727e-07
9.998922543e-07
9.998928346e-07
9.998957236e-07
9.999069491e-07
9.999495466e-07
1.000108412e-06
1.00068657e-06
1.002729441e-06
1.009677501e-06
1.032136306e-06
1.099908585e-06
1.285881716e-06
1.732151876e-06
9.998919479e-07
9.998920535e-07
9.998926753e-07
9.998949486e-07
9.99903952e-07
9.999369009e-07
1.00005644e-06
1.000478394e-06
1.001918817e-06
1.006633877e-06
1.02125181e-06
1.063465662e-06
1.174429386e-06
1.431792219e-06
9.998919433e-07
9.998919554e-07
9.998924658e-07
9.99894167e-07
9.999007693e-07
9.999242788e-07
1.000006633e-06
1.00028555e-06
1.001197777e-06
1.00404981e-06
1.012484844e-06
1.035736955e-06
1.094363719e-06
1.226470317e-06
9.998917824e-07
9.99891825e-07
9.998922162e-07
9.998937064e-07
9.998988839e-07
9.999169642e-07
9.999781275e-07
1.000178303e-06
1.000808078e-06
1.002699522e-06
1.008068013e-06
1.022292337e-06
1.056959125e-06
1.133403476e-06
)
;

boundaryField
{
    top
    {
        type            zeroGradient;
    }
    bottom
    {
        type            zeroGradient;
    }
    side-walls
    {
        type            zeroGradient;
    }
    inlet
    {
        type            zeroGradient;
    }
    outlet
    {
        type            zeroGradient;
    }
    procBoundary0to1
    {
        type            processor;
        value           nonuniform List<scalar> 
97
(
1.54453069e-06
1.485998804e-06
1.924196474e-06
2.761797429e-06
3.987110169e-06
4.860368768e-06
3.987076749e-06
2.761762658e-06
1.924165291e-06
1.544508647e-06
1.485998804e-06
1.485998804e-06
2.778545495e-06
3.14525561e-06
4.924989943e-06
8.732915884e-06
1.231839336e-05
8.732827368e-06
4.924887125e-06
2.77847954e-06
1.924168258e-06
1.938589878e-06
3.14525561e-06
3.14525561e-06
1.12540965e-05
1.576783856e-05
2.530503083e-05
4.367054025e-05
2.530455832e-05
1.125374945e-05
4.924886432e-06
2.761769913e-06
2.61725046e-06
5.368133779e-06
1.576783856e-05
1.576783856e-05
7.339480776e-05
0.0001509807098
0.0001675718611
7.339316376e-05
2.530460936e-05
8.73284953e-06
3.987097883e-06
3.125483672e-06
7.683598036e-06
2.989380038e-05
0.0001509807098
0.0001509807098
0.000572472014
0.0001509803833
0.0001675719592
5.137757115e-05
4.367063783e-05
1.231842527e-05
4.860380852e-06
2.617241639e-06
5.368053968e-06
1.576706938e-05
5.137704505e-05
0.0001509803833
5.137757115e-05
5.137757115e-05
2.530504477e-05
6.832152924e-06
8.732989543e-06
3.987133854e-06
1.938571544e-06
3.145131794e-06
6.831905776e-06
1.576708818e-05
2.989366287e-05
1.576703655e-05
6.832152924e-06
6.832152924e-06
4.924990741e-06
1.950182109e-06
2.761818132e-06
1.485968347e-06
1.950124772e-06
3.145131378e-06
5.368057135e-06
7.683575838e-06
5.368026206e-06
3.145151192e-06
1.950182109e-06
1.950182109e-06
1.924199185e-06
1.283573295e-06
1.283556994e-06
1.485969253e-06
1.938573992e-06
2.61724716e-06
3.125481793e-06
2.61723911e-06
1.938573681e-06
1.485977187e-06
1.283573295e-06
)
;
    }
}


// ************************************************************************* //
