/*--------------------------------*- C++ -*----------------------------------*\
| =========                 |                                                 |
| \\      /  F ield         | OpenFOAM: The Open Source CFD Toolbox           |
|  \\    /   O peration     | Version:  4.x                                   |
|   \\  /    A nd           | Web:      www.OpenFOAM.org                      |
|    \\/     M anipulation  |                                                 |
\*---------------------------------------------------------------------------*/
FoamFile
{
    version     2.0;
    format      ascii;
    class       volScalarField;
    location    "6000";
    object      molarConc;
}
// * * * * * * * * * * * * * * * * * * * * * * * * * * * * * * * * * * * * * //

dimensions      [0 -3 0 0 1 0 0];

internalField   nonuniform List<scalar> 
1175
(
9.96327183
9.963271451
9.963271371
9.963271175
9.963271531
9.96327211
9.963272696
9.963273056
9.963273843
9.963273533
9.963273801
9.963273957
9.96327571
9.963273986
9.963274068
9.963254115
9.963253545
9.963252496
9.963252453
9.963252353
9.963252736
9.963252442
9.963252061
9.963252393
9.963250051
9.963249983
9.963249882
9.963250312
9.963248992
9.963247498
9.963298602
9.963299531
9.963298312
9.963297763
9.963298023
9.963297735
9.963296945
9.963297875
9.96329862
9.963298752
9.963296461
9.963296722
9.963295975
9.963295337
9.963294623
9.963233225
9.963233415
9.963234327
9.963233914
9.963234241
9.963234766
9.963234874
9.963234823
9.963235776
9.963235502
9.963235347
9.963234287
9.963234838
9.963232383
9.963229139
9.963253171
9.963254452
9.963253681
9.963253585
9.963253752
9.963252099
9.963251876
9.963251644
9.963251346
9.963251464
9.963251396
9.963251057
9.963249318
9.963246664
9.963242647
9.963322999
9.963322209
9.963322655
9.963323125
9.963322732
9.963321525
9.963320179
9.963320706
9.963320717
9.963320792
9.963322269
9.963321704
9.963320518
9.963318312
9.963315565
9.963294024
9.963294371
9.963294658
9.963294629
9.963293324
9.963293717
9.963293443
9.963293267
9.96329388
9.963293605
9.96329343
9.963294228
9.963292848
9.963292622
9.963291811
9.963262935
9.963262601
9.963263887
9.96326434
9.963262839
9.963263532
9.963264801
9.963264723
9.96326521
9.963265677
9.963265742
9.963265718
9.96326491
9.963264847
9.963264997
9.963278976
9.963279607
9.963279323
9.963279584
9.963280724
9.963280917
9.963279459
9.963280257
9.963280328
9.963281469
9.963280537
9.963280158
9.963280483
9.963279097
9.963278394
9.963260026
9.963261103
9.963259625
9.963260219
9.96325899
9.963258085
9.963258103
9.963259229
9.963259336
9.963258777
9.963259368
9.96325987
9.963260514
9.96325988
9.963264121
9.963265034
9.963264576
9.963265049
9.963264513
9.963264974
9.963264576
9.963265149
9.96326549
9.963264365
9.963263134
9.963263849
9.963263513
9.963261811
9.963260215
9.963249999
9.963250239
9.963249711
9.963249447
9.963248715
9.96325004
9.9632502
9.963250549
9.963249899
9.963250384
9.963250025
9.963248851
9.963248231
9.96324579
9.963241175
9.963299126
9.963297266
9.96329687
9.963295674
9.963297366
9.963297907
9.963297215
9.963296153
9.963296609
9.963296072
9.963296004
9.963296123
9.963294459
9.963289887
9.963279891
9.963263128
9.963263371
9.963261263
9.963261914
9.963261926
9.963262139
9.963262749
9.963263454
9.963262745
9.963262833
9.963262654
9.963262163
9.963259445
9.963254258
9.963240603
9.963254603
9.963254833
9.96325547
9.96325563
9.96325641
9.963256238
9.963256427
9.963254898
9.963256182
9.963255307
9.963253231
9.963252904
9.963250876
9.963246092
9.96323694
9.963222969
9.963223598
9.963223189
9.963223229
9.963222653
9.96322346
9.963224718
9.963224523
9.963223458
9.963222876
9.96322333
9.963222182
9.963221585
9.963217579
9.963212821
9.963296746
9.963297467
9.96329603
9.963295348
9.963294466
9.963295336
9.96329389
9.963292654
9.963292943
9.963292186
9.96329115
9.963291781
9.963290588
9.963290911
9.96328869
9.963260826
9.963260114
9.963260412
9.963259515
9.963258403
9.963257488
9.963257674
9.96325804
9.963257977
9.963256211
9.963255982
9.963256712
9.963256355
9.963256421
9.963256508
9.963263868
9.963263006
9.963262651
9.963261106
9.963261475
9.963261818
9.963261233
9.963261389
9.963260385
9.963261409
9.963261582
9.963261184
9.963261996
9.963261153
9.963298818
9.963298832
9.963298638
9.963299587
9.963299726
9.963299289
9.963298083
9.963297281
9.963297097
9.963297233
9.963296691
9.963296372
9.963295079
9.963293685
9.963285607
9.963285083
9.963284685
9.963283833
9.963284607
9.963287417
9.963287762
9.963289302
9.963288047
9.963286846
9.963286076
9.963284641
9.963281157
9.963275814
9.96326467
9.963296791
9.963297308
9.963296763
9.963296158
9.963294828
9.963295694
9.963295895
9.963294107
9.963295735
9.963296261
9.963295996
9.963295583
9.96329035
9.963276406
9.963243154
9.963232368
9.963231639
9.963232781
9.963233833
9.963233729
9.963234815
9.963234663
9.963235726
9.963234552
9.963234066
9.963233349
9.963231553
9.963222735
9.963195693
9.963129143
9.963317403
9.963318849
9.963320165
9.963318964
9.963319343
9.963319937
9.963321412
9.963319719
9.963319459
9.963319949
9.963319524
9.963317633
9.963311845
9.963297116
9.963263885
9.963283907
9.963283603
9.963282956
9.963283521
9.963283227
9.963283634
9.963281945
9.963284934
9.963284953
9.963286246
9.963286191
9.963285274
9.963281886
9.963275382
9.963262582
9.963258119
9.963259035
9.963258152
9.96325762
9.963256858
9.963257733
9.963257956
9.963257985
9.963257393
9.963257681
9.963256803
9.963256172
9.963255592
9.963252618
9.96324891
9.963291899
9.963291522
9.963291345
9.963292241
9.963292838
9.963292191
9.963290671
9.963290319
9.963289373
9.963289968
9.963289459
9.963288567
9.963288439
9.96328801
9.963285605
9.963297895
9.963297466
9.963296724
9.963297714
9.963296645
9.963297233
9.9632972
9.963297621
9.963297082
9.963296886
9.963296537
9.963295733
9.963294455
9.963293025
9.963298044
9.963297226
9.96329536
9.963296341
9.96329755
9.963298753
9.963297451
9.963296529
9.963298217
9.963297004
9.963296872
9.963297142
9.963294714
9.963290049
9.963311884
9.963311271
9.963311382
9.963311205
9.963311466
9.963311463
9.963310682
9.963311734
9.963310947
9.963310167
9.963309889
9.963308156
9.963302511
9.963286763
9.963273658
9.963273397
9.963273595
9.963272783
9.963272685
9.96327195
9.963271748
9.963271123
9.96327186
9.963271302
9.963270506
9.963268231
9.963254512
9.963206859
9.963088845
9.963272112
9.963272644
9.963272694
9.963272792
9.963272428
9.963272628
9.963272509
9.963272582
9.963270429
9.963271018
9.96326919
9.963263487
9.963236866
9.963120963
9.9627531
9.96328685
9.963286704
9.963287043
9.963287924
9.963288217
9.963288563
9.963288012
9.963288118
9.963288867
9.963288764
9.963287313
9.963283959
9.963272054
9.963224174
9.963105139
9.963288584
9.963288367
9.963288611
9.963288536
9.963288743
9.963288077
9.963289703
9.963288728
9.963289283
9.96328868
9.963288932
9.963286634
9.963282373
9.963267781
9.963236795
9.963249921
9.963250365
9.963250152
9.963250859
9.963250518
9.963250037
9.963250044
9.963249125
9.963249
9.963249718
9.963249284
9.963250082
9.963248
9.963245841
9.96323573
9.963259543
9.963258763
9.963258846
9.963258741
9.963259018
9.963260196
9.963260528
9.963260996
9.963260813
9.963260188
9.963260034
9.963259203
9.963258475
9.963256673
9.963254273
9.963265572
9.963267287
9.963268278
9.963267492
9.963267899
9.963267617
9.963267468
9.963266981
9.96326612
9.963263674
9.963263522
9.963262656
9.96326265
9.963260926
9.963295147
9.963294011
9.96329324
9.963293177
9.963293577
9.963294604
9.963295183
9.963295002
9.963295864
9.963297278
9.963296912
9.963294397
9.963291956
9.963284108
9.963225538
9.963226658
9.963227213
9.963228048
9.963229393
9.963228933
9.963229637
9.963230944
9.963231203
9.963231419
9.963229799
9.963227573
9.963219039
9.963193118
9.963282849
9.963282057
9.963281771
9.963282076
9.963282867
9.963282158
9.963281046
9.963280397
9.96328095
9.963281734
9.963280303
9.96327466
9.963248156
9.963132292
9.963259621
9.963259442
9.963259638
9.963260451
9.963260758
9.963258693
9.963258387
9.963258693
9.963258852
9.963259494
9.963256855
9.963245773
9.963179848
9.962748914
10.00352666
9.963254454
9.963254547
9.963254649
9.963253869
9.963254097
9.963253276
9.963253472
9.963253482
9.963254104
9.963251867
9.963250343
9.963244859
9.963218193
9.963102566
9.962734023
9.963272244
9.963272754
9.963273837
9.963273539
9.963273622
9.963273608
9.963273546
9.963273668
9.963272444
9.963274311
9.963272311
9.963270122
9.963260241
9.96323329
9.963165499
9.963295932
9.963295835
9.963295347
9.963293937
9.963295107
9.963295378
9.963296614
9.963295026
9.963294242
9.96329562
9.963295305
9.963293962
9.963291922
9.963284747
9.963269999
9.963297004
9.963296236
9.963296502
9.963295662
9.963295198
9.963294842
9.963293268
9.9632932
9.963293315
9.963292509
9.963292658
9.963292171
9.963291327
9.963288706
9.963285532
9.963301723
9.963301883
9.963300781
9.963301576
9.96330138
9.96330275
9.963302564
9.96330302
9.963302955
9.963301862
9.963301874
9.963300278
9.963300365
9.963299882
9.963284512
9.963285658
9.963284475
9.963285372
9.963284762
9.963283747
9.963285356
9.96328612
9.963286351
9.963287262
9.963285589
9.963284925
9.963282903
9.963278824
9.963316494
9.963315504
9.96331522
9.963315678
9.963315749
9.963314973
9.963315843
9.963315425
9.963315026
9.963315125
9.963315551
9.963315553
9.963311646
9.963297408
9.963283537
9.963282927
9.963282978
9.963283234
9.963284559
9.963282784
9.963282917
9.963281647
9.963282461
9.963281828
9.963282734
9.963278648
9.963266795
9.963220378
9.963277908
9.963276384
9.963277791
9.963279131
9.963277473
9.963278007
9.963276889
9.963276693
9.963277009
9.963275832
9.963275269
9.963269013
9.963242096
9.963125156
9.963287128
9.963287785
9.963287498
9.963288352
9.963288867
9.963289733
9.963290263
9.963290301
9.963289018
9.963288919
9.963288506
9.963285016
9.963272411
9.96322556
9.963278617
9.963278582
9.963277655
9.963277299
9.963278538
9.963279264
9.963280176
9.96327954
9.963279526
9.963279888
9.963279828
9.963278765
9.963273901
9.963257784
9.963227532
9.963293337
9.963293189
9.963291308
9.963291288
9.963290845
9.96329024
9.963290645
9.963291345
9.963291058
9.963292061
9.963293018
9.963293472
9.963291156
9.963287388
9.963277606
9.963301294
9.96330187
9.963303038
9.963302329
9.963301704
9.963301787
9.963301452
9.963301187
9.963301091
9.963300021
9.96330008
9.963298689
9.963296983
9.963294968
9.963291809
9.963288868
9.963289967
9.963290328
9.963289674
9.963290093
9.963289605
9.963290116
9.963289739
9.963288488
9.963288608
9.963288452
9.963287098
9.963286215
9.963286639
9.96326833
9.963267576
9.963267495
9.963268355
9.963270047
9.963270781
9.963270807
9.963271624
9.963271665
9.9632714
9.963270011
9.96326889
9.963269354
9.963267761
9.963220045
9.963220997
9.963221427
9.963223701
9.963224128
9.963223746
9.963223781
9.963221746
9.963222676
9.963222077
9.963221286
9.963219815
9.963218481
9.96321041
9.963274056
9.963272969
9.963273161
9.96327419
9.963272446
9.963273823
9.963272451
9.963272518
9.963270615
9.963270456
9.963269219
9.963267237
9.963262293
9.963248029
9.963304074
9.963304572
9.963303426
9.963303513
9.96330252
9.963302507
9.963300996
9.963301305
9.963301835
9.963302337
9.963300796
9.963298934
9.963291165
9.963264033
9.963288631
9.963288001
9.963288839
9.963289242
9.963289034
9.963288938
9.963288339
9.963288186
9.96328734
9.963288841
9.963289502
9.963286997
9.963282428
9.963266343
9.963270974
9.963271931
9.963272322
9.96327142
9.96327156
9.963272286
9.963271966
9.963273311
9.963272178
9.963271472
9.96327081
9.963269569
9.963267364
9.963262634
9.963262116
9.963262105
9.963262079
9.963262454
9.963263165
9.963262618
9.963262391
9.963261122
9.963262033
9.963262707
9.963262835
9.963260664
9.963259257
9.963256171
9.963252206
9.963276465
9.963276122
9.963274592
9.96327532
9.963275382
9.963275131
9.963275299
9.963274923
9.963274408
9.963275314
9.96327439
9.963275071
9.96327665
9.963276011
9.963274077
9.963262803
9.963262529
9.963262625
9.963263421
9.963261913
9.963262046
9.963261651
9.963262899
9.963262149
9.963263293
9.96326367
9.963263633
9.963262765
9.963262298
9.963295645
9.963297856
9.963298627
9.963297443
9.963299095
9.963299458
9.963299233
9.963298687
9.963299624
9.963300093
9.963300396
9.963301585
9.96329985
9.963299427
9.963287022
9.963287766
9.96328622
9.963285795
9.96328574
9.963284626
9.963285466
9.963285243
9.96328366
9.963282746
9.963284196
9.963282746
9.963282537
9.963279848
9.963293252
9.963293967
9.963294738
9.963294854
9.963295118
9.963295883
9.963294978
9.963295813
9.963296136
9.963295524
9.963296536
9.963296029
9.963294254
9.963289055
9.963257821
9.963256659
9.963255671
9.963257173
9.963256287
9.963257227
9.963257403
9.963257189
9.963256107
9.963255893
9.963256834
9.963254627
9.963253224
9.96324707
9.963286059
9.96328524
9.963283653
9.963283885
9.963284371
9.963283446
9.963285415
9.963285036
9.963286046
9.963286067
9.963287454
9.963286937
9.963285109
9.963281315
9.963268136
9.963268147
9.963266989
9.963267981
9.963266853
9.963267631
9.963267118
9.963266212
9.963266625
9.963265731
9.963265738
9.963265369
9.963263442
9.963261058
9.96325297
9.963252446
9.963252031
9.963252387
9.96325081
9.963250624
9.963250689
9.963249445
9.963250209
9.963248534
9.963248373
9.963248211
9.963247578
9.963249218
9.963256344
9.963256485
9.963255861
9.963256332
9.963255746
9.963255384
9.963255528
9.963256278
9.963255921
9.963256004
9.963257163
9.963256158
9.963255634
9.963254601
9.963253981
9.963293793
9.963294773
9.963294143
9.96329382
9.96329293
9.963293209
9.963293514
9.963294158
9.963294557
9.963294529
9.963294193
9.963293766
9.963294722
9.963294595
9.963271678
9.963272509
9.96327218
9.963271961
9.963271293
9.963272073
9.963273227
9.963273796
9.963273377
9.963273927
9.963274654
9.963273818
9.963273302
9.963272445
9.963278408
9.963277858
9.96327851
9.963278709
9.963278839
9.963278301
9.963278699
9.963279162
9.96327892
9.963277848
9.963277885
9.963278684
9.963278544
9.963277455
9.963272222
9.963271862
9.963271462
9.963270829
9.963271225
9.963271782
9.963271034
9.963270128
9.963269409
9.963268676
9.963268653
9.963267739
9.963267394
9.96326563
9.963275257
9.963274617
9.963274445
9.963274573
9.963273392
9.963273611
9.963275808
9.963275815
9.963276211
9.963276891
9.963274897
9.963273979
9.963274867
9.963272653
9.963226222
9.963225897
9.963225555
9.963226449
9.963226104
9.963226151
9.963225813
9.963225086
9.963225274
9.963224785
9.963225148
9.963225896
9.963225781
9.963223872
9.963251996
9.963252031
9.963251978
9.963251992
9.963252808
9.963251868
9.963251632
9.963251702
9.963250637
9.96325156
9.963252426
9.963253043
9.963252001
9.963252342
9.963318593
9.963318687
9.963318725
9.963317977
9.963318188
9.963318757
9.963318698
9.96331826
9.963318686
9.963318707
9.963318602
9.963318672
9.963318863
9.963318472
9.963275675
9.963276518
9.963275164
9.963276218
9.963276532
9.963276334
9.963276084
9.963276898
9.963277488
9.96327733
9.963276568
9.963276831
9.963276345
9.963276608
)
;

boundaryField
{
    top
    {
        type            calculated;
        value           nonuniform List<scalar> 
134
(
9.963278976
9.963260826
9.963291899
9.963259543
9.963297004
9.963301294
9.963276465
9.963256344
9.963275675
9.963279607
9.963260114
9.963291522
9.963258763
9.963296236
9.96330187
9.963276122
9.963256485
9.963276518
9.963279323
9.963260412
9.963291345
9.963258846
9.963296502
9.963303038
9.963274592
9.963255861
9.963275164
9.963279584
9.963259515
9.963292241
9.963258741
9.963295662
9.963302329
9.96327532
9.963256332
9.963276218
9.963280724
9.963258403
9.963292838
9.963259018
9.963295198
9.963301704
9.963275382
9.963255746
9.963276532
9.963280917
9.963257488
9.963292191
9.963260196
9.963294842
9.963301787
9.963275131
9.963255384
9.963276334
9.963279459
9.963257674
9.963290671
9.963260528
9.963293268
9.963301452
9.963275299
9.963255528
9.963276084
9.963280257
9.96325804
9.963290319
9.963260996
9.9632932
9.963301187
9.963274923
9.963256278
9.963276898
9.963280328
9.963257977
9.963289373
9.963260813
9.963293315
9.963301091
9.963274408
9.963255921
9.963277488
9.963281469
9.963256211
9.963289968
9.963260188
9.963292509
9.963300021
9.963275314
9.963256004
9.96327733
9.963280537
9.963255982
9.963289459
9.963260034
9.963292658
9.96330008
9.96327439
9.963257163
9.963276568
9.963280158
9.963256712
9.963288567
9.963259203
9.963292171
9.963298689
9.963275071
9.963256158
9.963276831
9.963280483
9.963256355
9.963288439
9.963258475
9.963291327
9.963296983
9.96327665
9.963255634
9.963276345
9.963279097
9.963256421
9.96328801
9.963256673
9.963288706
9.963294968
9.963276011
9.963254601
9.963276608
9.963278394
9.963256508
9.963285605
9.963254273
9.963285532
9.963291809
9.963274077
9.963253981
)
;
    }
    bottom
    {
        type            calculated;
        value           nonuniform List<scalar> 
127
(
9.96327183
9.963260026
9.963263868
9.963297895
9.963265572
9.963301723
9.963288868
9.963262803
9.963293793
9.963271451
9.963261103
9.963263006
9.963297466
9.963267287
9.963301883
9.963289967
9.963262529
9.963294773
9.963271371
9.963259625
9.963262651
9.963296724
9.963268278
9.963300781
9.963290328
9.963262625
9.963294143
9.963271175
9.963260219
9.963261106
9.963297714
9.963267492
9.963301576
9.963289674
9.963263421
9.96329382
9.963271531
9.96325899
9.963261475
9.963296645
9.963267899
9.96330138
9.963290093
9.963261913
9.96329293
9.96327211
9.963258085
9.963261818
9.963297233
9.963267617
9.96330275
9.963289605
9.963262046
9.963293209
9.963272696
9.963258103
9.963261233
9.9632972
9.963267468
9.963302564
9.963290116
9.963261651
9.963293514
9.963273056
9.963259229
9.963261389
9.963297621
9.963266981
9.96330302
9.963289739
9.963262899
9.963294158
9.963273843
9.963259336
9.963260385
9.963297082
9.96326612
9.963302955
9.963288488
9.963262149
9.963294557
9.963273533
9.963258777
9.963261409
9.963296886
9.963263674
9.963301862
9.963288608
9.963263293
9.963294529
9.963273801
9.963259368
9.963261582
9.963296537
9.963263522
9.963301874
9.963288452
9.96326367
9.963294193
9.963273957
9.96325987
9.963261184
9.963295733
9.963262656
9.963300278
9.963287098
9.963263633
9.963293766
9.96327571
9.963260514
9.963261996
9.963294455
9.96326265
9.963300365
9.963286215
9.963262765
9.963294722
9.963273986
9.96325988
9.963261153
9.963293025
9.963260926
9.963299882
9.963286639
9.963262298
9.963294595
9.963274068
)
;
    }
    side-walls
    {
        type            calculated;
        value           nonuniform List<scalar> 
261
(
9.96327183
9.963254115
9.963298602
9.963233225
9.963253171
9.963322999
9.963294024
9.963262935
9.963278976
9.963271451
9.963253545
9.963299531
9.963233415
9.963254452
9.963322209
9.963294371
9.963262601
9.963279607
9.963271371
9.963252496
9.963298312
9.963234327
9.963253681
9.963322655
9.963294658
9.963263887
9.963279323
9.963271175
9.963252453
9.963297763
9.963233914
9.963253585
9.963323125
9.963294629
9.96326434
9.963279584
9.963271531
9.963252353
9.963298023
9.963234241
9.963253752
9.963322732
9.963293324
9.963262839
9.963280724
9.96327211
9.963252736
9.963297735
9.963234766
9.963252099
9.963321525
9.963293717
9.963263532
9.963280917
9.963272696
9.963252442
9.963296945
9.963234874
9.963251876
9.963320179
9.963293443
9.963264801
9.963279459
9.963273056
9.963252061
9.963297875
9.963234823
9.963251644
9.963320706
9.963293267
9.963264723
9.963280257
9.963273843
9.963252393
9.96329862
9.963235776
9.963251346
9.963320717
9.96329388
9.96326521
9.963280328
9.963273533
9.963250051
9.963298752
9.963235502
9.963251464
9.963320792
9.963293605
9.963265677
9.963281469
9.963273801
9.963249983
9.963296461
9.963235347
9.963251396
9.963322269
9.96329343
9.963265742
9.963280537
9.963273957
9.963249882
9.963296722
9.963234287
9.963251057
9.963321704
9.963294228
9.963265718
9.963280158
9.96327571
9.963250312
9.963295975
9.963234838
9.963249318
9.963320518
9.963292848
9.96326491
9.963280483
9.963273986
9.963248992
9.963295337
9.963232383
9.963246664
9.963318312
9.963292622
9.963264847
9.963279097
9.963274068
9.963247498
9.963294623
9.963229139
9.963242647
9.963315565
9.963291811
9.963264997
9.963278394
9.963293793
9.963271678
9.963278408
9.963272222
9.963275257
9.963226222
9.963251996
9.963318593
9.963275675
9.963294773
9.963272509
9.963277858
9.963271862
9.963274617
9.963225897
9.963252031
9.963318687
9.963276518
9.963294143
9.96327218
9.96327851
9.963271462
9.963274445
9.963225555
9.963251978
9.963318725
9.963275164
9.96329382
9.963271961
9.963278709
9.963270829
9.963274573
9.963226449
9.963251992
9.963317977
9.963276218
9.96329293
9.963271293
9.963278839
9.963271225
9.963273392
9.963226104
9.963252808
9.963318188
9.963276532
9.963293209
9.963272073
9.963278301
9.963271782
9.963273611
9.963226151
9.963251868
9.963318757
9.963276334
9.963293514
9.963273227
9.963278699
9.963271034
9.963275808
9.963225813
9.963251632
9.963318698
9.963276084
9.963294158
9.963273796
9.963279162
9.963270128
9.963275815
9.963225086
9.963251702
9.96331826
9.963276898
9.963294557
9.963273377
9.96327892
9.963269409
9.963276211
9.963225274
9.963250637
9.963318686
9.963277488
9.963294529
9.963273927
9.963277848
9.963268676
9.963276891
9.963224785
9.96325156
9.963318707
9.96327733
9.963294193
9.963274654
9.963277885
9.963268653
9.963274897
9.963225148
9.963252426
9.963318602
9.963276568
9.963293766
9.963273818
9.963278684
9.963267739
9.963273979
9.963225896
9.963253043
9.963318672
9.963276831
9.963294722
9.963273302
9.963278544
9.963267394
9.963274867
9.963225781
9.963252001
9.963318863
9.963276345
9.963294595
9.963272445
9.963277455
9.96326563
9.963272653
9.963223872
9.963252342
9.963318472
9.963276608
)
;
    }
    inlet
    {
        type            calculated;
        value           nonuniform List<scalar> 
81
(
9.96327183
9.963254115
9.963298602
9.963233225
9.963253171
9.963322999
9.963294024
9.963262935
9.963278976
9.963260026
9.963264121
9.963249999
9.963299126
9.963263128
9.963254603
9.963222969
9.963296746
9.963260826
9.963263868
9.963298818
9.963285607
9.963296791
9.963232368
9.963317403
9.963283907
9.963258119
9.963291899
9.963297895
9.963298044
9.963311884
9.963273658
9.963272112
9.96328685
9.963288584
9.963249921
9.963259543
9.963265572
9.963295147
9.963225538
9.963282849
9.963259621
9.963254454
9.963272244
9.963295932
9.963297004
9.963301723
9.963284512
9.963316494
9.963283537
9.963277908
9.963287128
9.963278617
9.963293337
9.963301294
9.963288868
9.96326833
9.963220045
9.963274056
9.963304074
9.963288631
9.963270974
9.963262116
9.963276465
9.963262803
9.963295645
9.963287022
9.963293252
9.963257821
9.963286059
9.963268136
9.96325297
9.963256344
9.963293793
9.963271678
9.963278408
9.963272222
9.963275257
9.963226222
9.963251996
9.963318593
9.963275675
)
;
    }
    outlet
    {
        type            calculated;
        value           nonuniform 0();
    }
    procBoundary0to1
    {
        type            processor;
        value           nonuniform List<scalar> 
97
(
9.963271995
9.963259871
9.963246071
9.963290865
9.963223834
9.963236261
9.963309162
9.963289045
9.963262914
9.963276995
9.963259871
9.963259871
9.963256628
9.963289028
9.963235926
9.963268372
9.963224086
9.963225284
9.963205246
9.963286316
9.96325418
9.963259479
9.963289028
9.963289028
9.963248344
9.963255882
9.963207994
9.963078927
9.963230768
9.963246697
9.963243637
9.963283268
9.963290363
9.963281333
9.963255882
9.963255882
9.963009146
9.962762409
9.962691921
9.963025585
9.963202768
9.963224268
9.963248731
9.96325773
9.963270429
9.963123996
9.962762409
9.962762409
10.00495462
9.962757369
9.962674494
9.963108547
9.963116983
9.963252581
9.963279226
9.963295877
9.963269931
9.963265363
9.963100753
9.962757369
9.963108547
9.963108547
9.963192123
9.96324962
9.963265939
9.963287253
9.96328365
9.963264312
9.963198154
9.963216267
9.963197537
9.963233083
9.96324962
9.96324962
9.963246886
9.963245476
9.963270389
9.963261998
9.963297917
9.9632759
9.963279394
9.963231172
9.963272444
9.963256155
9.963245476
9.963245476
9.963253184
9.96327662
9.963294175
9.963270461
9.963277231
9.963262438
9.963269755
9.963221154
9.963249995
9.963316898
9.96327662
)
;
    }
}


// ************************************************************************* //
