/*--------------------------------*- C++ -*----------------------------------*\
| =========                 |                                                 |
| \\      /  F ield         | OpenFOAM: The Open Source CFD Toolbox           |
|  \\    /   O peration     | Version:  4.x                                   |
|   \\  /    A nd           | Web:      www.OpenFOAM.org                      |
|    \\/     M anipulation  |                                                 |
\*---------------------------------------------------------------------------*/
FoamFile
{
    version     2.0;
    format      ascii;
    class       surfaceScalarField;
    location    "6000";
    object      phi;
}
// * * * * * * * * * * * * * * * * * * * * * * * * * * * * * * * * * * * * * //

dimensions      [1 0 -1 0 0 0 0];

internalField   nonuniform List<scalar> 
3175
(
9.428242565e-06
-1.038189172e-12
-1.619380754e-13
9.428240665e-06
-1.741819002e-12
-1.683010909e-12
9.428241084e-06
-1.01400946e-12
-1.207788166e-12
9.428242501e-06
-8.403613499e-13
-5.919299041e-13
9.428242166e-06
-6.030554565e-13
7.603749368e-13
9.4282435e-06
-6.332837823e-13
-7.58998834e-13
9.428245031e-06
-1.368527345e-12
-9.493661489e-13
9.428250868e-06
-7.749099642e-13
-1.829732535e-12
9.428256098e-06
-2.11851637e-12
-4.156640634e-12
9.428264812e-06
-3.962409454e-12
-5.233768481e-12
9.428278549e-06
-6.751176261e-12
-8.047731518e-12
9.428297199e-06
-9.143565642e-12
-9.873431909e-12
9.428332543e-06
-1.424771847e-11
-1.624323242e-11
9.428366863e-06
-1.489627464e-11
-1.630290017e-11
-3.829769236e-11
9.428224797e-06
-1.927771967e-13
-7.952042395e-13
9.428224051e-06
-2.242763877e-12
-5.528788243e-13
9.428225523e-06
-2.818493288e-13
-2.265439077e-13
9.42822412e-06
-1.593074713e-12
-1.572852206e-12
9.428224824e-06
-2.110340749e-12
-6.263919848e-13
9.42822361e-06
-1.37555519e-12
-7.879609731e-13
9.428226779e-06
-1.617157814e-12
-6.46252809e-13
9.428227259e-06
-2.752286999e-12
-3.698904238e-12
9.428231441e-06
-4.152519199e-12
-5.116256398e-12
9.428240158e-06
-7.065447332e-12
-5.820401435e-12
9.428252038e-06
-1.212830335e-11
-9.52263202e-12
9.428271284e-06
-1.753001593e-11
-1.348487223e-11
9.428303494e-06
-3.047639545e-11
-2.186960312e-11
9.428337463e-06
-3.179127125e-11
-1.941572944e-11
-7.686695832e-11
-5.820158715e-11
9.428266585e-06
-4.566855962e-13
-1.670165895e-12
9.428269589e-06
4.915975916e-13
8.169987183e-13
9.428266772e-06
-3.295528799e-13
-1.219263326e-13
9.428266669e-06
-1.820621311e-12
-1.106014602e-12
9.428266899e-06
-2.393767632e-12
-8.403994082e-13
9.42826576e-06
-2.875102167e-12
-1.785240867e-12
9.428268114e-06
-2.483312227e-12
-2.764957254e-13
9.428270665e-06
-3.938530506e-12
-3.258573737e-12
9.428272047e-06
-4.755245548e-12
-5.677365766e-12
9.428276916e-06
-7.251033505e-12
-7.528189012e-12
9.428286035e-06
-1.026746272e-11
-9.875345688e-12
9.428300965e-06
-1.623440718e-11
-1.760659127e-11
9.428328672e-06
-3.14554109e-11
-3.24859205e-11
9.428364196e-06
-3.137185159e-11
-3.519215905e-11
-9.177908116e-11
-1.25906843e-10
9.428204423e-06
-8.851599419e-13
-1.790643322e-13
9.428205801e-06
-1.542414906e-12
-7.08537905e-13
9.42820484e-06
-3.17388875e-12
-1.446962554e-12
9.428206926e-06
-5.705720055e-13
-8.705086901e-13
9.428206966e-06
-1.628783461e-12
-1.374987264e-12
9.428208201e-06
-1.639022718e-12
7.60852353e-14
9.428208386e-06
-2.875606556e-12
1.491639281e-13
9.428207739e-06
-2.588749623e-12
-4.339096721e-12
9.428209125e-06
-5.22343134e-12
-3.908722723e-12
9.428215151e-06
-6.28135056e-12
-7.678749156e-12
9.428221591e-06
-9.020523367e-12
-9.72832896e-12
9.428239016e-06
-1.474377521e-11
-1.954079026e-11
9.428266454e-06
-2.647176027e-11
-3.069922426e-11
9.428307048e-06
-3.537120346e-11
-3.966410188e-11
-8.417695422e-11
-1.877650971e-10
9.428223528e-06
-1.406276114e-12
-7.536674337e-13
9.428224374e-06
-1.454841407e-12
-8.460932539e-13
9.428225199e-06
-1.036208633e-12
7.198951568e-14
9.4282245e-06
-9.526847835e-13
-1.107766971e-12
9.42822394e-06
-5.564638063e-13
3.603904995e-13
9.428223026e-06
4.120636018e-13
-1.324615484e-12
9.428223809e-06
1.042587971e-12
9.566670691e-13
9.428219956e-06
1.296836609e-12
-3.938632413e-12
9.428221521e-06
3.414475705e-12
-3.489958828e-12
9.428221453e-06
5.02480519e-12
-9.450138911e-12
9.428219993e-06
8.711625596e-12
-1.28502655e-11
9.428227403e-06
1.334570139e-11
-3.507677285e-11
9.428232065e-06
2.599796549e-11
-6.175818111e-11
9.428276234e-06
3.369408093e-11
-1.15544688e-10
8.317748322e-11
-4.692213524e-10
9.428289318e-06
-1.580805199e-12
-3.510823721e-13
9.428289578e-06
-4.399093058e-13
-7.759294875e-16
9.42829137e-06
7.364764035e-13
-2.630787517e-13
9.428289791e-06
8.036460514e-13
-1.212726767e-12
9.428288591e-06
8.967066903e-14
-5.597281342e-13
9.428287789e-06
-1.465719318e-13
-1.168547078e-12
9.428289288e-06
1.92149683e-12
1.270858632e-13
9.428290481e-06
1.335271409e-12
-1.9945208e-12
9.428292489e-06
4.167461498e-12
-3.319388589e-12
9.428297598e-06
6.906252905e-12
-6.965863737e-12
9.428303138e-06
1.019690424e-11
-8.559745153e-12
9.428320734e-06
1.571317926e-11
-1.844242186e-11
9.428346623e-06
2.999879935e-11
-2.989253016e-11
9.428389198e-06
3.191046212e-11
-3.967431607e-11
9.397329735e-11
-1.866474288e-10
9.428262749e-06
-1.118505055e-12
-4.636222475e-13
9.428262984e-06
-6.624320825e-13
-4.744348989e-13
9.428264033e-06
-7.940365741e-13
-8.147422637e-13
9.42826242e-06
-1.273110664e-12
-8.180278545e-13
9.428262649e-06
5.844577191e-13
-1.149954262e-12
9.428265066e-06
1.200152734e-12
3.258035273e-14
9.428263018e-06
1.858009577e-12
-1.908864923e-12
9.428266789e-06
3.812457183e-12
-1.598516587e-12
9.428269993e-06
4.279595816e-12
-2.911884321e-12
9.428274032e-06
8.328302446e-12
-6.125803427e-12
9.428280775e-06
1.112156105e-11
-1.010777314e-11
9.428297036e-06
1.760915791e-11
-1.760364152e-11
9.428326638e-06
3.156622397e-11
-3.313827881e-11
9.428364261e-06
3.174707784e-11
-3.56913401e-11
7.448605793e-11
-1.273142589e-10
9.428233805e-06
-3.202462824e-14
3.685928286e-14
9.428234755e-06
-2.385491736e-13
2.198860365e-13
9.428234324e-06
-7.641532165e-13
2.400673904e-13
9.428234659e-06
-4.143863777e-13
-6.439193779e-13
9.428234878e-06
-8.99758275e-13
-6.609363629e-13
9.428237158e-06
2.353659633e-13
-1.387729052e-12
9.428238268e-06
1.438234847e-12
-1.232272144e-12
9.428241642e-06
3.3053722e-12
-1.404602612e-12
9.428247759e-06
3.181754042e-12
-2.396851521e-12
9.428253247e-06
4.005312997e-12
-5.160929979e-12
9.428266607e-06
6.840394902e-12
-6.2040783e-12
9.428284326e-06
1.049964611e-11
-1.191097675e-11
9.42831848e-06
1.863574753e-11
-2.140304054e-11
9.428353693e-06
1.636961028e-11
-1.916333532e-11
3.919051303e-11
-5.905921387e-11
9.42824941e-06
3.065935486e-13
9.428247615e-06
-7.255018784e-13
9.428250676e-06
-2.252107846e-14
9.428250394e-06
-4.695272952e-13
9.428251839e-06
7.040121581e-13
9.428254475e-06
5.507051506e-14
9.428255518e-06
-1.260067312e-12
9.428257048e-06
-3.475824081e-12
9.428263824e-06
-1.964976862e-12
9.428270916e-06
-1.989497091e-12
9.428285737e-06
-6.325248247e-12
9.428303435e-06
-1.076944849e-11
9.428336008e-06
-1.805749458e-11
9.428371094e-06
-1.539531292e-11
-3.778125049e-11
9.428230449e-06
-1.736855564e-12
-2.385873442e-12
9.428230257e-06
2.051172701e-13
-1.071009061e-12
9.428228686e-06
3.614914134e-13
-1.481165909e-12
9.428232e-06
-1.368985071e-13
-9.26105928e-13
9.428228487e-06
-4.367476003e-13
-3.099767432e-12
9.428231374e-06
-4.134962801e-13
-1.111902714e-12
9.428231806e-06
-1.482201759e-12
-1.669881927e-12
9.428237688e-06
-1.858298899e-12
-2.16112469e-12
9.42824232e-06
-3.714842155e-12
-3.774053543e-12
9.428248415e-06
-5.62978452e-12
-7.068160994e-12
9.428261657e-06
-9.094260952e-12
-1.095648267e-11
9.428277677e-06
-1.284970044e-11
-1.708823625e-11
9.428314785e-06
-1.935102854e-11
-2.899457902e-11
-1.782434349e-11
-3.039690233e-11
9.42823594e-06
-8.925140473e-13
-3.136541783e-13
9.428235038e-06
-1.388689518e-12
-1.763999404e-12
9.42823402e-06
-2.751706659e-13
-1.790939956e-12
9.428237565e-06
-8.608186964e-13
-3.148510076e-12
9.428234443e-06
-1.736830603e-12
-2.919187208e-12
9.428235241e-06
-1.857822335e-12
-2.197498262e-12
9.428236917e-06
-1.188673916e-12
-2.643578024e-12
9.428241835e-06
-1.461413716e-12
-2.643771305e-12
9.428244522e-06
-3.99382937e-12
-5.19545103e-12
9.428249411e-06
-8.854849161e-12
-7.913184067e-12
9.428259397e-06
-1.133816074e-11
-1.174659197e-11
9.428278862e-06
-2.028397566e-11
-2.129388714e-11
9.428310715e-06
-3.736069206e-11
-3.769139077e-11
9.428347937e-06
-3.856213646e-11
-3.884592386e-11
-1.213823994e-10
9.428223076e-06
7.772664179e-13
-1.356349075e-12
9.428221272e-06
-7.219875717e-13
-1.173272737e-12
9.428219832e-06
-1.70879452e-12
-2.525783295e-12
9.428221162e-06
-1.068525685e-12
-1.373667456e-12
9.428220184e-06
-1.887658829e-12
-2.994569253e-12
9.428221178e-06
-4.646301217e-13
-2.462097708e-12
9.428221251e-06
-7.018248944e-13
-3.159101655e-12
9.428223039e-06
-4.358461966e-12
-4.529097298e-12
9.428223674e-06
-4.010205892e-12
-6.72279905e-12
9.428227779e-06
-8.070663561e-12
-1.133521398e-11
9.428232266e-06
-1.236544139e-11
-1.596742943e-11
9.428245285e-06
-2.118204157e-11
-3.488999259e-11
9.428270952e-06
-3.717217874e-11
-5.695319636e-11
9.42831377e-06
-4.423094146e-11
-7.714113338e-11
-1.707742151e-10
-2.828295279e-10
9.42826581e-06
-9.987833427e-13
-1.420769221e-12
9.428266181e-06
-1.814086979e-12
-1.464813284e-12
9.428265127e-06
-1.155234566e-12
-1.296709394e-12
9.428264164e-06
-1.32736342e-12
-1.457573864e-12
9.428267556e-06
-7.518112563e-13
-1.828487942e-12
9.428266393e-06
-2.483526395e-12
-2.255722848e-12
9.428262172e-06
-2.207955404e-12
-3.724359948e-12
9.428266104e-06
-1.79884163e-12
-3.61730072e-12
9.428266287e-06
-3.61314787e-12
-5.179226101e-12
9.428268856e-06
-6.898460027e-12
-1.1233256e-11
9.428274283e-06
-9.82214652e-12
-1.148642891e-11
9.428291509e-06
-2.129066486e-11
-3.90188848e-11
9.428312109e-06
-3.904224028e-11
-4.532333793e-11
9.42838121e-06
-6.11367759e-11
-9.58931784e-11
-1.67385075e-10
-4.408345016e-10
9.428232819e-06
-1.157313377e-13
-1.56314188e-13
9.428233017e-06
8.086992625e-14
-1.64830434e-13
9.428231241e-06
-1.475838516e-12
-8.567311084e-13
9.428231967e-06
-1.440290774e-12
-8.24838404e-13
9.428230276e-06
-4.977819434e-13
-2.35553032e-12
9.428233231e-06
5.21419025e-14
-5.441081295e-13
9.428229481e-06
-9.960582189e-13
-1.682807152e-12
9.428229724e-06
1.43067706e-12
-4.307140903e-12
9.428227077e-06
2.450610117e-12
-5.604529759e-12
9.428226449e-06
5.554138141e-12
-1.514560329e-11
9.428216149e-06
1.016689232e-11
-2.005506397e-11
9.428211537e-06
2.003581735e-11
-7.664292046e-11
9.428180811e-06
3.797178172e-11
-1.094893295e-10
9.428273066e-06
5.76440243e-11
-3.247626742e-10
1.662164992e-10
-1.318024181e-09
9.428224451e-06
-2.024513623e-12
-5.83661277e-13
9.428225172e-06
-8.832049943e-13
-1.27714194e-12
9.428225763e-06
-5.375652363e-13
-7.085149703e-13
9.428228507e-06
4.915356995e-13
-1.835942773e-12
9.428226337e-06
-6.536292907e-13
-1.395798363e-12
9.428227752e-06
-3.852520068e-13
-1.307139506e-12
9.428225459e-06
9.03418038e-13
-1.349436574e-12
9.428225088e-06
2.468793881e-12
-3.087834602e-12
9.428228066e-06
4.654668771e-12
-3.084491332e-12
9.428230976e-06
7.663389291e-12
-9.166227402e-12
9.428233834e-06
9.746025534e-12
-1.289485199e-11
9.428250406e-06
1.832989936e-11
-4.073899414e-11
9.42826721e-06
3.405253741e-11
-4.612038315e-11
9.428342124e-06
4.421642294e-11
-9.546427211e-11
1.701550046e-10
-4.416651669e-10
9.428196678e-06
-8.394417533e-13
1.513933718e-12
9.428195361e-06
-1.174925371e-12
8.350279037e-14
9.42819621e-06
1.153574881e-13
3.065179177e-13
9.428195279e-06
-4.199274494e-13
-1.574388373e-12
9.428196445e-06
2.923836281e-13
-1.410168012e-12
9.428197618e-06
-5.471306638e-13
-1.497341165e-12
9.428197792e-06
1.596171866e-12
-1.440879078e-12
9.428198518e-06
3.244333529e-12
-2.694742265e-12
9.428200277e-06
5.0795976e-12
-3.902208272e-12
9.428202676e-06
8.763733538e-12
-1.084698369e-11
9.428206709e-06
1.373080085e-11
-1.565196578e-11
9.42822013e-06
2.163698616e-11
-3.278548246e-11
9.42824371e-06
3.868340888e-11
-5.687497189e-11
9.428289829e-06
4.068160051e-11
-7.640243436e-11
1.210041733e-10
-2.822772472e-10
9.428266859e-06
-2.72702655e-13
1.361676639e-12
9.428266292e-06
-2.000930546e-13
7.782272572e-13
9.428264647e-06
-2.752827562e-14
9.243653383e-13
9.428264565e-06
-4.75825464e-13
-3.493347493e-13
9.428264187e-06
-7.229094803e-14
-3.365356519e-13
9.428266049e-06
1.191035452e-12
4.677935287e-14
9.42826534e-06
1.011432207e-12
-6.940525394e-13
9.428266151e-06
9.614482453e-13
-1.053099921e-12
9.428269713e-06
3.260700958e-12
-4.284278536e-12
9.428277125e-06
5.261767724e-12
-8.60585232e-12
9.428285383e-06
6.432715985e-12
-1.228777867e-11
9.428304054e-06
1.08722525e-11
-1.975005863e-11
9.428338615e-06
2.183621334e-11
-3.755412836e-11
9.42837427e-06
2.013695358e-11
-4.013085775e-11
6.120546722e-11
-1.218019534e-10
9.428230269e-06
7.373145888e-13
9.428231249e-06
1.442521531e-12
9.42823032e-06
3.801797469e-13
9.428230966e-06
1.56823944e-12
9.428230728e-06
9.587644243e-13
9.428231393e-06
4.989538336e-13
9.428232871e-06
-3.044411924e-13
9.428235799e-06
-1.216986861e-12
9.428238836e-06
-4.84768977e-12
9.428245453e-06
-6.093638565e-12
9.428258492e-06
-1.05820368e-11
9.428279157e-06
-1.682779719e-11
9.42831084e-06
-3.196919674e-11
9.428344185e-06
-3.277987898e-11
-7.665752e-11
9.428235769e-06
-1.488156729e-13
1.712975769e-13
9.428232485e-06
-1.333664122e-12
-8.651863512e-13
9.428231037e-06
-8.253554526e-13
-2.608656769e-12
9.428232519e-06
-2.479904105e-12
-4.866930987e-13
9.428232766e-06
-1.412633691e-12
3.957130656e-13
9.42823303e-06
-1.199121467e-12
-2.834943026e-12
9.428233973e-06
-1.446693816e-12
-1.681110048e-12
9.428235363e-06
-2.207899889e-12
-5.883638978e-13
9.428239289e-06
-4.408410556e-12
-3.025985889e-12
9.428244699e-06
-6.688089247e-12
-7.115740235e-12
9.428252662e-06
-9.36453384e-12
-1.051926167e-11
9.428267528e-06
-1.817562447e-11
-1.628058127e-11
9.428297564e-06
-3.137556928e-11
-2.923072014e-11
-3.454060091e-11
-3.049262189e-11
9.428266739e-06
-1.898670209e-12
-4.215231784e-13
9.428268309e-06
-1.417982706e-12
-2.792869463e-13
9.428266144e-06
-7.441954816e-13
3.820693855e-14
9.4282692e-06
-2.623311465e-13
-2.800473485e-13
9.428268083e-06
-1.344256828e-12
-1.164955804e-12
9.428266649e-06
-2.054567941e-12
-3.425212933e-12
9.428265882e-06
-2.096592601e-12
-3.194260248e-12
9.428266356e-06
-3.754923864e-12
-2.319817506e-12
9.428270481e-06
-4.472495355e-12
-2.450286564e-12
9.428272119e-06
-1.142615983e-11
-7.433063315e-12
9.42827556e-06
-1.590987694e-11
-1.198281518e-11
9.428293233e-06
-3.370911205e-11
-2.052684489e-11
9.428315171e-06
-5.667081124e-11
-3.605710304e-11
-7.66664885e-11
-4.483379719e-11
9.428255529e-06
9.608893612e-13
9.586600616e-13
9.428254468e-06
-7.942501291e-14
5.680707793e-13
9.428253606e-06
-1.242715931e-12
-5.389895995e-13
9.428253748e-06
-1.500993664e-12
-1.137883083e-12
9.428255591e-06
-4.113219187e-13
-1.022012161e-12
9.428255548e-06
-5.029883491e-13
-2.693714129e-12
9.428254261e-06
-2.743716474e-12
-2.729329227e-12
9.428254035e-06
-3.756027872e-12
-3.970771627e-12
9.42825196e-06
-3.978279489e-12
-4.884022928e-12
9.42825026e-06
-1.000762261e-11
-1.106483788e-11
9.428244807e-06
-1.162323319e-11
-1.347871413e-11
9.42825061e-06
-3.431105829e-11
-3.666705767e-11
9.42824833e-06
-5.607549718e-11
-5.622376149e-11
9.428313103e-06
-1.08642414e-10
-1.087632687e-10
-4.724431191e-10
9.428265299e-06
3.88925393e-13
-7.964077247e-13
9.42826578e-06
2.781030499e-13
-7.684881505e-13
9.428265268e-06
-1.897389998e-13
-6.737956735e-13
9.428263183e-06
1.51565773e-13
-7.481341873e-13
9.428264536e-06
2.825970945e-13
-7.259015375e-13
9.428261864e-06
-1.114692777e-13
-2.292850301e-12
9.428260337e-06
-1.295504086e-13
-3.407212149e-12
9.428260022e-06
-1.77286666e-12
-4.572953523e-12
9.428258802e-06
-3.58277628e-12
-5.409524834e-12
9.428256943e-06
-8.85387335e-12
-1.328691761e-11
9.428253176e-06
-1.439574386e-11
-8.87413795e-12
9.428259713e-06
-3.959751787e-11
-4.793176253e-11
9.42825658e-06
-7.279385471e-11
-2.181268548e-11
9.428381395e-06
-1.571388303e-10
-1.730414227e-10
-4.962521655e-10
-8.846914526e-10
9.428203487e-06
-8.373116962e-13
-9.316830632e-13
9.428203907e-06
-9.602711119e-13
-4.447304861e-13
9.428203983e-06
-1.930775373e-12
-1.429885616e-12
9.428204388e-06
-2.238561306e-12
-1.832905185e-12
9.428206706e-06
2.198455419e-14
-2.182481075e-12
9.42820341e-06
-7.741321259e-13
-3.133864662e-12
9.428199312e-06
-7.254057563e-13
-2.460495899e-12
9.428197694e-06
1.996554369e-12
-4.35151961e-12
9.428190901e-06
3.293715066e-12
-6.056932429e-12
9.428173821e-06
7.814644996e-12
-1.963847647e-11
9.42814209e-06
1.268887509e-11
-1.733881463e-11
9.428092195e-06
3.681847313e-11
-1.114922215e-10
9.427944316e-06
7.138036777e-11
-1.053118854e-10
9.428082841e-06
1.545948714e-10
-7.725769715e-10
4.949369598e-10
-3.522534072e-09
9.428284359e-06
2.280717667e-14
-2.455625204e-13
9.428285349e-06
-2.313260267e-13
1.046109476e-12
9.428285703e-06
9.998837254e-13
1.941992384e-12
9.428288764e-06
1.078324806e-12
8.79964999e-13
9.428286099e-06
-1.163231187e-13
2.687193005e-13
9.428285766e-06
1.331420204e-13
-1.104354975e-12
9.428285257e-06
1.775001311e-12
-1.80391414e-12
9.428282907e-06
4.547181777e-12
-3.824081301e-12
9.428279229e-06
3.954003357e-12
-4.923518034e-12
9.428277176e-06
8.504925093e-12
-1.291762494e-11
9.428273449e-06
1.112233197e-11
-7.532248147e-12
9.428282301e-06
3.466878503e-11
-4.617438914e-11
9.428275145e-06
5.428994844e-11
-2.150146671e-11
9.428402276e-06
1.081956539e-10
-1.724898619e-10
4.731114574e-10
-8.849678782e-10
9.428251807e-06
-1.125548541e-13
-9.645512468e-14
9.428253376e-06
-2.340037826e-13
1.369368388e-12
9.428253039e-06
1.66524531e-13
4.547490285e-14
9.428253473e-06
1.275447554e-12
1.237801537e-12
9.428253285e-06
1.154246572e-12
8.983981921e-13
9.428252375e-06
1.397082993e-12
-5.921663794e-13
9.428252164e-06
2.087887e-12
-1.485754839e-12
9.428251455e-06
4.218429228e-12
-4.891166942e-12
9.428249303e-06
5.237747865e-12
-5.096096155e-12
9.428249583e-06
1.05541902e-11
-9.964065732e-12
9.428244912e-06
1.714576339e-11
-1.149900892e-11
9.428250102e-06
3.441054838e-11
-3.519936802e-11
9.428249421e-06
5.665139566e-11
-5.486257281e-11
9.428313769e-06
7.693019475e-11
-1.091965457e-10
2.821799845e-10
-4.751796531e-10
9.428228822e-06
-1.304622619e-12
1.141895866e-12
9.42823033e-06
6.58759676e-13
1.628372895e-12
9.428228932e-06
-5.05092221e-13
9.248523261e-13
9.428228467e-06
8.274278913e-13
1.446481742e-12
9.428227497e-06
1.230586846e-12
9.87419199e-13
9.428228732e-06
1.216710555e-12
-5.611870359e-13
9.428230184e-06
2.328847408e-12
-3.214887126e-12
9.428229149e-06
2.354924309e-13
-4.596142791e-12
9.428230627e-06
2.535457065e-12
-4.381253344e-12
9.428236561e-06
7.159563639e-12
-5.661507353e-12
9.428237399e-06
8.317424765e-12
-9.962398077e-12
9.428251254e-06
1.513086528e-11
-2.133379442e-11
9.428277082e-06
3.104275092e-11
-3.707231678e-11
9.428321418e-06
3.483083083e-11
-4.580675805e-11
1.277457361e-10
-1.71622533e-10
9.428261305e-06
6.640090353e-13
9.42825999e-06
6.44032972e-13
9.428261591e-06
1.072339441e-12
9.428261557e-06
1.527279642e-12
9.428260996e-06
3.294467601e-13
9.42826318e-06
-1.353305582e-12
9.428261083e-06
-2.023666426e-12
9.428262545e-06
-3.256942438e-12
9.428266682e-06
-4.229432989e-12
9.428270239e-06
-7.436042706e-12
9.428276336e-06
-1.100540416e-11
9.428293768e-06
-1.672842084e-11
9.428326012e-06
-2.957684188e-11
9.428359809e-06
-3.260975781e-11
-9.279833516e-11
9.428265301e-06
-1.995368395e-13
-2.417033047e-12
9.428264366e-06
-7.122915143e-13
-8.657270526e-13
9.428267149e-06
1.153330018e-12
-9.100360343e-13
9.428265862e-06
-2.515198059e-13
-2.346401608e-12
9.428262085e-06
-2.433607376e-12
-2.602418977e-12
9.428265245e-06
-2.36519677e-12
-1.942090238e-12
9.428267634e-06
-2.794717227e-12
-1.074592788e-12
9.428267246e-06
-4.739042523e-12
-2.983597498e-12
9.428269456e-06
-4.856827976e-12
-3.227949955e-12
9.428274458e-06
-7.713631816e-12
-4.081500319e-12
9.42828e-06
-1.122127497e-11
-7.303935675e-12
9.428297775e-06
-2.096565734e-11
-1.370588982e-11
9.428323522e-06
-3.008410793e-11
-2.693619472e-11
-3.953001082e-11
-3.562166529e-11
9.42826507e-06
-7.88881703e-13
-2.596387419e-12
9.428265376e-06
-1.465095599e-12
-1.134948709e-12
9.428263036e-06
-1.37072607e-12
-2.845720889e-12
9.428265344e-06
-1.320148341e-12
-1.423991942e-12
9.428265182e-06
-1.612970589e-12
3.129026872e-13
9.42826612e-06
-1.263520556e-12
1.037123508e-13
9.428265466e-06
-1.658817706e-12
-9.176506548e-13
9.428264673e-06
-5.041117579e-12
-1.965437582e-12
9.428267091e-06
-6.385867766e-12
-2.264500356e-12
9.428269362e-06
-1.324757046e-11
-4.75151869e-12
9.428275582e-06
-1.315768524e-11
-6.984706979e-12
9.42829512e-06
-4.125872512e-11
-2.071152478e-11
9.428310103e-06
-4.622138264e-11
-4.088846882e-11
-9.54492851e-11
-5.935081537e-11
9.428279653e-06
-8.152062176e-13
-1.489831719e-12
9.428279789e-06
-9.283220201e-13
-6.254447428e-13
9.428277685e-06
-2.298254109e-12
-1.169060143e-12
9.428277457e-06
-5.88613193e-13
-4.91392268e-13
9.428277871e-06
-2.242747388e-13
3.323477353e-13
9.428278176e-06
-6.652709391e-13
5.828730874e-13
9.428275995e-06
-3.552142845e-12
-1.33534767e-12
9.42827403e-06
-5.071347394e-12
-3.23863467e-12
9.428273358e-06
-5.372435657e-12
-2.931300176e-12
9.428269943e-06
-1.262502617e-11
-8.741960316e-12
9.428264611e-06
-7.465506309e-12
-1.37099345e-11
9.428275134e-06
-4.527812674e-11
-4.046403284e-11
9.428266348e-06
-2.181744977e-11
-7.419434004e-11
-1.738710255e-10
-1.575756976e-10
9.428243337e-06
3.36258727e-14
-2.217769999e-12
9.428242581e-06
1.70190377e-14
-9.168205511e-13
9.428242416e-06
-4.083266406e-13
-1.531469073e-13
9.428240691e-06
-1.794693221e-12
-9.950837874e-13
9.428241127e-06
-1.13562016e-12
-3.636192147e-14
9.428238237e-06
-7.170352862e-13
-1.027834187e-12
9.428240599e-06
8.927179292e-13
3.387371445e-13
9.42823574e-06
-1.677265217e-12
-2.469562541e-12
9.428236343e-06
-2.245542507e-12
-3.494259291e-12
9.428233059e-06
-1.142139942e-11
-1.196765603e-11
9.428248715e-06
-1.598456384e-11
-1.600362223e-11
9.428276058e-06
-6.162075256e-11
-6.353573981e-11
9.428393448e-06
-7.958048972e-11
-8.211492439e-11
9.428655789e-06
-3.054507478e-10
-3.076823985e-10
-9.072775709e-10
9.428241078e-06
1.063086713e-14
-1.044316411e-12
9.428240818e-06
3.955853976e-13
5.069065423e-13
9.428241622e-06
5.47670273e-13
1.066597296e-13
9.428242301e-06
1.147161163e-13
5.119227921e-13
9.428240728e-06
1.331576786e-12
1.401472226e-12
9.42823731e-06
9.799961014e-13
-4.729179293e-13
9.428235029e-06
1.063666055e-13
-2.545496774e-12
9.42822918e-06
2.246424555e-12
-4.095274075e-12
9.428221022e-06
3.386022476e-12
-6.286253536e-12
9.428195334e-06
1.127196543e-11
-2.031967282e-11
9.428176183e-06
1.471780231e-11
-2.945944498e-11
9.428083425e-06
6.090228897e-11
-1.412114286e-10
9.428066976e-06
7.92282356e-11
-2.46961375e-10
9.428290739e-06
3.034405624e-10
-1.606363094e-09
9.049556497e-10
-6.381889543e-09
9.42825664e-06
1.721081171e-14
2.193996339e-13
9.428256341e-06
6.862459169e-13
5.845025102e-13
9.428255509e-06
5.093408755e-13
1.503309097e-12
9.428257833e-06
1.124547856e-12
1.173600402e-12
9.428256532e-06
1.010460291e-12
4.725655483e-13
9.428253913e-06
1.097119138e-12
-6.929993434e-13
9.428253783e-06
1.470336092e-12
-1.411494605e-12
9.428251863e-06
3.998810378e-12
-3.727751881e-12
9.428251598e-06
4.370990874e-12
-6.10135157e-12
9.428248145e-06
1.204142456e-11
-1.356717245e-11
9.428263053e-06
7.981439791e-12
-1.560540602e-11
9.428290051e-06
4.506014617e-11
-6.217597829e-11
9.428406566e-06
1.923562825e-11
-8.262607116e-11
9.428668977e-06
1.709190484e-10
-3.070551421e-10
8.831125481e-10
-9.07065037e-10
9.428257433e-06
6.94043079e-13
6.072941214e-13
9.42825633e-06
6.900192092e-14
9.90500037e-13
9.428256745e-06
1.233627502e-12
1.959686055e-12
9.428257038e-06
1.895834485e-12
6.813888771e-13
9.428255124e-06
1.348056399e-12
-4.433821188e-13
9.428255018e-06
1.664574946e-12
-3.472242618e-13
9.428255727e-06
1.454812931e-12
-8.171720992e-13
9.428253324e-06
3.562393041e-12
-2.671158674e-12
9.428249842e-06
4.918466564e-12
-3.524394549e-12
9.428249369e-06
1.350630769e-11
-9.366895238e-12
9.42824289e-06
1.458121531e-11
-1.545280526e-11
9.428253352e-06
3.979934262e-11
-3.998251773e-11
9.428247578e-06
4.459169653e-11
-7.316214256e-11
9.428375522e-06
9.521978868e-11
-1.552025143e-10
4.409484346e-10
-4.966327114e-10
9.428220805e-06
-1.457619644e-12
3.338273571e-14
9.428221969e-06
-7.659211532e-13
1.881322997e-12
9.428221943e-06
-6.22572833e-13
1.650351855e-12
9.42822129e-06
1.051196515e-12
1.270509139e-12
9.428218997e-06
1.467456091e-13
-1.82276029e-12
9.428218709e-06
2.232976806e-13
-1.032585016e-12
9.428222144e-06
2.768730658e-12
1.623396816e-13
9.428220853e-06
2.31715264e-12
-2.062926711e-12
9.42822232e-06
2.656128848e-12
-3.512995057e-12
9.428224926e-06
5.952603946e-12
-7.035327648e-12
9.428226258e-06
4.762162003e-12
-1.241140007e-11
9.428248395e-06
1.797709504e-11
-2.252382524e-11
9.428267013e-06
3.039729586e-11
-3.914145847e-11
9.428341363e-06
4.00225151e-11
-5.851664658e-11
1.88734845e-10
-1.673041557e-10
9.428230415e-06
1.877895618e-12
9.42822917e-06
6.141837432e-13
9.428231149e-06
1.112396663e-12
9.428229173e-06
1.142687601e-12
9.428229545e-06
1.008330623e-13
9.428231459e-06
-3.904734169e-13
9.428232012e-06
-1.958433196e-12
9.42823414e-06
-2.924043026e-12
9.428235504e-06
-3.176533222e-12
9.42823806e-06
-4.938641552e-12
9.42824512e-06
-9.16918882e-12
9.428261064e-06
-1.428414324e-11
9.428289244e-06
-2.749099646e-11
9.428333092e-06
-3.574026449e-11
-8.517498045e-11
9.42823761e-06
-1.74980277e-13
-5.150538741e-13
9.428235119e-06
-9.318674578e-13
-1.42425636e-12
9.428238828e-06
-1.988134512e-13
3.736728885e-13
9.428239556e-06
3.433825057e-13
-7.310668648e-14
9.428236217e-06
-1.358040849e-13
1.091961003e-13
9.428237988e-06
6.480388567e-13
7.34270887e-13
9.428237715e-06
-1.767787733e-12
-6.277394128e-13
9.428237149e-06
-3.078416699e-12
-1.403296205e-13
9.428235449e-06
-4.931300988e-12
-2.492079815e-14
9.428235811e-06
-9.807835552e-12
4.067042148e-12
9.428230034e-06
-1.43504443e-11
5.566141259e-12
9.428238631e-06
-3.613277994e-11
1.244879684e-11
9.428245552e-06
-6.240391423e-11
2.249965152e-11
-1.140335443e-10
3.159611107e-11
9.428263657e-06
-6.000425e-13
-5.948496988e-13
9.428262717e-06
-7.320477915e-13
-8.071350959e-13
9.428263993e-06
3.645291499e-13
-5.425950317e-13
9.428262693e-06
-6.931929697e-13
-3.934422327e-13
9.428261549e-06
-1.766552739e-12
-1.483075073e-12
9.428260606e-06
-7.412989357e-13
-7.207175453e-15
9.428261274e-06
-1.528526264e-12
1.267360892e-12
9.428261522e-06
-5.971940717e-12
9.687434269e-13
9.428258523e-06
-7.656949205e-12
1.707868623e-12
9.428255071e-06
-2.083245051e-11
3.719220288e-12
9.428244635e-06
-2.278722833e-11
9.419791785e-12
9.428242629e-06
-7.972005823e-11
1.976730634e-11
9.428210478e-06
-1.086921897e-10
3.742537367e-11
-3.255600204e-10
5.72400204e-11
9.428199136e-06
-7.697040049e-13
-1.173084752e-12
9.42820095e-06
-5.080216576e-14
-3.505522388e-13
9.428198916e-06
-6.197666285e-13
3.444550532e-13
9.428199127e-06
-1.063409658e-12
-4.441019416e-13
9.428199769e-06
-1.366448051e-12
-5.255339576e-13
9.428197048e-06
-1.895625426e-12
-1.037060658e-12
9.428196931e-06
-1.823488674e-12
-2.309089232e-13
9.428193774e-06
-4.23786966e-12
2.063515248e-12
9.428186296e-06
-5.547191886e-12
3.363140791e-12
9.428171937e-06
-1.945113746e-11
8.601192306e-12
9.428136264e-06
-1.672133967e-11
1.286761029e-11
9.428090551e-06
-1.09379947e-10
3.979617896e-11
9.427942442e-06
-1.066318487e-10
7.260314342e-11
-7.742345369e-10
1.552592883e-10
9.428252147e-06
7.662679655e-13
9.140452169e-13
9.428252388e-06
1.434632524e-12
5.92880816e-13
9.428249348e-06
1.782514848e-13
1.350052186e-12
9.428250168e-06
1.468179339e-13
1.627643679e-13
9.4282493e-06
5.76692272e-13
-1.011329241e-12
9.428247406e-06
4.554717442e-13
2.407962317e-13
9.428243509e-06
-1.188563017e-12
1.757236678e-12
9.428236845e-06
-4.105242793e-12
2.195208085e-12
9.428230888e-06
-6.210230722e-12
3.942701222e-12
9.428206969e-06
-1.939801529e-11
1.004205623e-11
9.428184436e-06
-2.936047267e-11
1.343071164e-11
9.428091931e-06
-1.40110064e-10
6.069182175e-11
9.428075782e-06
-2.449108603e-10
7.766027434e-11
-1.605778266e-09
3.024085139e-10
9.428231484e-06
1.864713434e-12
8.891339398e-13
9.428229517e-06
1.166202525e-12
6.143880435e-13
9.428229179e-06
2.124929994e-12
1.652978876e-12
9.4282293e-06
3.882105099e-13
6.614688363e-13
9.428227313e-06
4.570974131e-13
1.131619784e-12
9.428223491e-06
-2.166275998e-13
1.565688401e-12
9.428219188e-06
1.048408594e-12
1.562642182e-12
9.428207947e-06
3.756984299e-12
4.253350936e-12
9.428187078e-06
4.617917208e-12
6.042898654e-12
9.428115698e-06
1.812852288e-11
1.728025574e-11
9.428002393e-06
2.924196304e-11
2.650407378e-11
9.427447498e-06
1.398103033e-10
1.389515126e-10
9.426463004e-06
2.448534426e-10
2.441010672e-10
9.420048062e-06
1.603056404e-09
1.605090325e-09
6.38012275e-09
9.428225619e-06
-3.281863603e-13
-9.530001692e-13
9.428224667e-06
1.24038311e-13
1.869600881e-13
9.428223167e-06
1.070730792e-12
-2.003246087e-13
9.428224499e-06
9.465852302e-13
1.100785086e-12
9.428221883e-06
-7.821052378e-13
1.285016337e-12
9.428219166e-06
-1.865878659e-14
1.144081509e-12
9.428216524e-06
4.790446641e-13
6.090828873e-14
9.428209867e-06
4.924394544e-12
2.250435163e-12
9.428203725e-06
7.127689513e-12
4.610156245e-12
9.428179431e-06
1.952077395e-11
1.0421355e-11
9.428156405e-06
1.537430336e-11
1.229138023e-11
9.428065966e-06
1.07702004e-10
5.951395016e-11
9.42804887e-06
1.043294515e-10
7.972584431e-11
9.428272496e-06
7.733271715e-10
3.062187696e-10
3.52200238e-09
9.428242396e-06
1.771083023e-13
-1.435615523e-13
9.428242666e-06
5.047569373e-13
7.308706097e-13
9.42824114e-06
6.516911112e-13
3.481454107e-13
9.428240773e-06
2.17530611e-12
1.749976798e-12
9.428242686e-06
6.835479599e-13
1.45588073e-12
9.428240614e-06
7.020537721e-13
1.153548435e-12
9.428237717e-06
2.656511935e-12
1.100592133e-12
9.428232925e-06
4.095858054e-12
1.358653895e-12
9.428226043e-06
6.262353109e-12
1.018930631e-12
9.428211327e-06
1.751791339e-11
6.686914963e-12
9.428176194e-06
2.123176742e-11