/*--------------------------------*- C++ -*----------------------------------*\
| =========                 |                                                 |
| \\      /  F ield         | OpenFOAM: The Open Source CFD Toolbox           |
|  \\    /   O peration     | Version:  4.x                                   |
|   \\  /    A nd           | Web:      www.OpenFOAM.org                      |
|    \\/     M anipulation  |                                                 |
\*---------------------------------------------------------------------------*/
FoamFile
{
    version     2.0;
    format      ascii;
    class       volScalarField;
    location    "6000";
    object      rho;
}
// * * * * * * * * * * * * * * * * * * * * * * * * * * * * * * * * * * * * * //

dimensions      [1 -3 0 0 0 0 0];

internalField   nonuniform List<scalar> 
1175
(
0.2777045757
0.2777045793
0.2777045761
0.27770458
0.2777045934
0.2777045985
0.277704602
0.2777046166
0.2777046285
0.2777046295
0.2777046294
0.2777046475
0.2777047093
0.2777047639
0.2777048471
0.2777041007
0.2777040828
0.2777040358
0.2777040644
0.2777040495
0.2777040445
0.2777040586
0.2777040505
0.2777040347
0.2777039907
0.2777040139
0.2777040006
0.2777040409
0.2777041181
0.2777043136
0.2777053411
0.2777053243
0.2777053243
0.2777053284
0.2777053209
0.2777053367
0.2777052828
0.2777053184
0.2777053349
0.277705329
0.2777053069
0.2777053464
0.2777054199
0.2777056154
0.2777059649
0.2777035228
0.2777035355
0.2777035342
0.2777035199
0.2777035154
0.2777035303
0.2777035308
0.2777035592
0.2777035971
0.2777035881
0.2777035907
0.2777036142
0.2777037765
0.2777040819
0.277704699
0.2777040572
0.2777040653
0.2777040739
0.2777040781
0.2777040568
0.2777040277
0.2777040113
0.2777040305
0.2777040058
0.2777040276
0.2777040567
0.2777041041
0.2777042714
0.2777046946
0.2777055021
0.2777060204
0.2777059866
0.2777059959
0.2777060234
0.2777060166
0.2777059785
0.2777059373
0.2777059391
0.2777059231
0.2777059577
0.2777060222
0.277706065
0.2777061762
0.2777064709
0.2777071157
0.2777052143
0.2777052198
0.2777052114
0.2777052123
0.2777051606
0.2777051746
0.2777051694
0.2777051777
0.2777051895
0.2777051823
0.2777051971
0.2777052337
0.2777053237
0.277705525
0.2777059069
0.2777043289
0.2777043141
0.2777043403
0.2777043756
0.2777043288
0.2777043719
0.2777043795
0.2777043738
0.2777044043
0.2777044205
0.2777044072
0.2777044319
0.2777044597
0.2777045526
0.2777047814
0.2777047631
0.2777047992
0.2777047841
0.2777048183
0.2777048445
0.27770481
0.2777048013
0.277704807
0.2777048141
0.2777048453
0.2777048306
0.2777048384
0.2777048768
0.2777048903
0.2777050109
0.277704273
0.2777042593
0.2777042407
0.2777042593
0.2777042323
0.2777041988
0.2777042177
0.2777042163
0.2777042304
0.2777042376
0.2777042756
0.2777042748
0.2777043212
0.2777044255
0.2777043853
0.2777043872
0.2777043636
0.2777043975
0.2777043777
0.2777043925
0.2777043745
0.277704354
0.2777043646
0.2777043631
0.2777043561
0.2777044124
0.2777044863
0.2777046787
0.2777050189
0.2777039543
0.2777039817
0.2777039633
0.2777039525
0.2777039584
0.2777039648
0.2777039825
0.277703981
0.2777039915
0.2777039977
0.27770401
0.2777040537
0.277704221
0.2777046466
0.2777054878
0.277705343
0.2777053156
0.2777052752
0.2777052611
0.2777052873
0.277705298
0.2777052777
0.2777052561
0.2777052805
0.2777052383
0.2777053105
0.2777054188
0.277705756
0.2777066375
0.277708374
0.2777043617
0.2777043403
0.2777043159
0.277704305
0.2777043347
0.2777043156
0.2777043122
0.2777043416
0.2777043349
0.2777043367
0.2777043781
0.277704559
0.2777050395
0.2777063508
0.2777091642
0.2777041132
0.2777041206
0.2777041241
0.277704127
0.2777041371
0.2777041332
0.2777041392
0.2777041112
0.2777041343
0.2777041164
0.2777041346
0.2777042401
0.2777045609
0.2777054116
0.2777071917
0.2777032451
0.2777032428
0.2777032269
0.2777032237
0.2777032167
0.2777032336
0.2777032248
0.2777032621
0.2777032056
0.2777032109
0.2777032575
0.2777033154
0.2777034983
0.2777038661
0.27770468
0.2777052385
0.2777052713
0.2777052715
0.2777052552
0.2777052159
0.2777052393
0.2777052011
0.2777051687
0.2777051904
0.2777051453
0.2777051392
0.2777051932
0.2777052484
0.2777054414
0.277705819
0.277704268
0.2777042363
0.277704259
0.2777042347
0.2777042207
0.2777041984
0.2777041989
0.2777042165
0.2777042247
0.2777041494
0.2777041443
0.2777041816
0.277704245
0.2777043677
0.2777045574
0.2777043341
0.2777043453
0.2777043465
0.2777043035
0.2777042784
0.2777043017
0.2777043029
0.2777042827
0.2777042898
0.2777042956
0.2777042942
0.2777043372
0.2777044224
0.2777046383
0.2777053284
0.2777053211
0.2777053154
0.2777053421
0.2777053488
0.2777053433
0.2777053261
0.2777053088
0.2777052893
0.2777053085
0.2777053252
0.2777053694
0.2777055042
0.2777059688
0.2777049358
0.2777049406
0.2777049487
0.2777048972
0.2777049364
0.2777050097
0.277705052
0.2777050536
0.277705049
0.2777050399
0.2777050512
0.277705173
0.2777055823
0.2777067503
0.2777091133
0.2777052871
0.2777052824
0.277705285
0.2777052343
0.2777052269
0.2777052616
0.277705259
0.2777052092
0.2777052636
0.2777053141
0.2777053908
0.277705704
0.2777066831
0.2777095653
0.2777158993
0.2777034631
0.2777034773
0.2777035038
0.277703509
0.2777035147
0.2777035678
0.2777035628
0.2777035838
0.2777035816
0.2777035867
0.2777036851
0.2777040955
0.2777056754
0.2777110263
0.2777242481
0.2777058604
0.2777058753
0.2777059096
0.2777058923
0.277705927
0.2777059437
0.2777059569
0.2777059392
0.2777059394
0.277705977
0.2777060307
0.2777063227
0.2777072712
0.2777101465
0.2777164478
0.2777049257
0.2777049143
0.2777048947
0.2777048722
0.2777048811
0.2777048932
0.2777048814
0.2777049421
0.2777049314
0.2777050014
0.2777050417
0.2777051783
0.2777055905
0.2777067494
0.2777091069
0.2777042202
0.2777042081
0.2777041939
0.2777041925
0.2777041696
0.277704213
0.2777042155
0.2777042196
0.2777041622
0.2777041806
0.2777042189
0.2777042987
0.2777044438
0.2777048611
0.2777057099
0.2777051507
0.2777051292
0.2777051242
0.2777051457
0.277705152
0.2777051604
0.2777051059
0.2777051059
0.2777050989
0.2777051019
0.2777051002
0.2777050946
0.2777051636
0.2777053676
0.2777057382
0.2777053242
0.2777052851
0.2777052906
0.2777053334
0.277705314
0.277705308
0.2777053027
0.277705303
0.2777052767
0.2777052746
0.2777052956
0.277705317
0.2777054596
0.2777057712
0.2777053176
0.2777053093
0.2777052953
0.2777052717
0.2777052811
0.2777052778
0.2777052859
0.277705295
0.2777053229
0.277705279
0.2777052924
0.2777054735
0.2777057923
0.27770665
0.2777057108
0.2777056693
0.2777056882
0.2777056875
0.2777057145
0.2777056569
0.2777056616
0.2777056942
0.2777056629
0.2777056828
0.2777057409
0.2777060317
0.2777070219
0.2777098954
0.2777046277
0.2777046235
0.277704628
0.2777046171
0.2777045922
0.277704556
0.2777045428
0.277704553
0.2777045879
0.2777046238
0.2777047987
0.2777054726
0.2777081217
0.2777172956
0.2777406658
0.2777045998
0.2777046186
0.2777046094
0.2777046042
0.2777045862
0.2777046189
0.2777046099
0.2777045942
0.2777045517
0.2777046149
0.2777048849
0.2777059755
0.2777111646
0.2777337273
0.2778128194
0.2777049884
0.2777049801
0.2777049971
0.2777050147
0.2777050348
0.2777050326
0.2777050294
0.2777050455
0.2777050692
0.2777051204
0.2777052762
0.2777059599
0.2777086302
0.277717766
0.2777411433
0.2777050576
0.2777050438
0.2777050384
0.2777050792
0.2777050485
0.2777050442
0.2777050702
0.2777050701
0.2777050949
0.2777051148
0.2777051713
0.2777054558
0.2777064653
0.2777093512
0.277715691
0.2777039774
0.2777039991
0.2777039809
0.2777039851
0.2777040128
0.2777039967
0.2777039564
0.2777039467
0.2777039814
0.2777039764
0.2777040328
0.2777041377
0.2777044794
0.277705384
0.2777071473
0.277704212
0.2777042477
0.2777042203
0.2777042202
0.2777042057
0.2777042518
0.277704278
0.2777042818
0.2777042617
0.2777042557
0.2777042793
0.2777042971
0.2777044356
0.2777047399
0.2777054137
0.2777044091
0.2777044432
0.2777044675
0.2777044557
0.277704452
0.2777044787
0.2777044546
0.2777044463
0.2777044254
0.2777043764
0.2777043939
0.2777044549
0.2777046277
0.2777050523
0.2777052149
0.2777052177
0.2777051627
0.2777051906
0.277705198
0.277705212
0.2777052448
0.2777052348
0.2777052658
0.2777053494
0.2777053562
0.2777054656
0.2777059377
0.277707217
0.2777033054
0.2777033049
0.2777033347
0.2777033526
0.277703402
0.277703393
0.2777034314
0.2777034477
0.2777034573
0.2777034478
0.2777035384
0.2777039962
0.2777056103
0.2777109121
0.2777048531
0.2777048621
0.2777048838
0.2777048791
0.2777048874
0.2777048725
0.27770486
0.2777048206
0.2777048555
0.2777049043
0.2777051483
0.2777062689
0.2777114809
0.277734078
0.277704256
0.2777042632
0.2777042528
0.277704281
0.2777042721
0.2777042369
0.2777042248
0.2777042127
0.2777042473
0.2777043593
0.2777047063
0.2777068556
0.2777199045
0.277804276
0.2796214495
0.2777041155
0.2777041127
0.2777041006
0.2777040845
0.2777040923
0.2777040913
0.2777041086
0.2777040825
0.277704085
0.2777041333
0.2777043439
0.2777054256
0.2777106255
0.2777332214
0.2778122892
0.2777046152
0.2777046119
0.2777046599
0.2777046418
0.2777046207
0.2777046015
0.277704643
0.2777046538
0.2777046339
0.2777046734
0.2777047547
0.277705175
0.2777067658
0.2777120706
0.2777252796
0.2777052461
0.2777052553
0.2777052422
0.2777052053
0.2777052205
0.2777052545
0.2777052846
0.2777052619
0.277705206
0.2777052525
0.2777052966
0.2777054398
0.2777059246
0.2777072143
0.2777100067
0.2777052784
0.2777052506
0.2777052638
0.277705263
0.2777052277
0.2777052005
0.2777051822
0.2777051865
0.2777051776
0.2777051709
0.2777052038
0.2777052489
0.2777054163
0.2777058306
0.2777067073
0.2777054265
0.2777054078
0.2777053989
0.2777054148
0.2777053996
0.2777054412
0.277705449
0.2777054573
0.2777054274
0.2777054188
0.2777054234
0.2777054601
0.2777056026
0.2777059663
0.2777049506
0.2777049798
0.2777049359
0.2777049333
0.2777049312
0.2777049189
0.2777049597
0.27770499
0.2777049994
0.2777050342
0.2777050504
0.2777051204
0.2777054496
0.2777063444
0.2777057932
0.2777058018
0.2777057933
0.2777058176
0.2777058053
0.2777058036
0.2777058
0.2777058031
0.2777058039
0.2777058359
0.2777059147
0.2777062408
0.2777072584
0.2777101618
0.2777049076
0.2777049076
0.2777048853
0.2777049223
0.2777049184
0.277704902
0.2777048921
0.2777048427
0.2777048747
0.2777049034
0.2777051097
0.2777057898
0.277708467
0.277717619
0.2777047539
0.2777047134
0.2777047524
0.2777047659
0.277704752
0.2777047514
0.2777046974
0.2777047446
0.2777047293
0.2777047432
0.277704986
0.2777061249
0.2777112983
0.2777339145
0.2777049993
0.2777050258
0.2777050135
0.2777050414
0.2777050776
0.2777051011
0.2777050614
0.2777050739
0.2777050648
0.2777050907
0.2777052723
0.2777059686
0.2777086141
0.2777177939
0.2777047632
0.2777047832
0.2777047408
0.2777047498
0.2777047632
0.2777048231
0.2777048135
0.2777047993
0.2777048119
0.2777048388
0.2777049113
0.2777052239
0.2777061903
0.2777090719
0.2777153955
0.2777051861
0.2777051673
0.2777051545
0.2777051346
0.277705137
0.2777050996
0.2777051093
0.2777051136
0.2777051128
0.2777051918
0.2777052261
0.2777053357
0.2777056987
0.2777065753
0.2777083657
0.277705395
0.2777054227
0.2777054596
0.2777054363
0.2777054184
0.277705423
0.2777054084
0.2777053943
0.2777054006
0.2777053748
0.2777053904
0.27770541
0.277705528
0.2777058361
0.2777064603
0.2777050677
0.27770508
0.277705085
0.2777050974
0.2777050822
0.2777050857
0.2777050941
0.2777050946
0.2777050522
0.2777050486
0.2777050465
0.2777050817
0.277705139
0.2777053353
0.2777044924
0.2777044699
0.2777044769
0.2777044712
0.2777045017
0.2777045477
0.2777045354
0.2777045947
0.2777045808
0.2777045836
0.2777045325
0.2777046101
0.277704833
0.2777052463
0.2777031273
0.2777031592
0.2777031819
0.2777032473
0.2777032344
0.2777032351
0.2777032345
0.2777031969
0.2777032083
0.2777032235
0.2777032478
0.277703367
0.2777037992
0.2777049438
0.2777046247
0.2777045973
0.2777046089
0.2777046319
0.2777045907
0.2777046309
0.277704606
0.2777045914
0.2777045568
0.2777045743
0.2777046239
0.2777049136
0.277705889
0.2777087855
0.2777054972
0.2777055053
0.2777054784
0.2777054538
0.2777054312
0.2777054333
0.2777054129
0.2777053829
0.2777054056
0.2777054588
0.2777055788
0.2777060053
0.277707596
0.2777129134
0.2777050037
0.2777050449
0.2777050533
0.2777050659
0.2777050498
0.2777050373
0.2777050249
0.2777050398
0.2777050212
0.2777050784
0.2777051868
0.2777054491
0.2777064678
0.2777093149
0.2777045611
0.277704581
0.2777045945
0.2777045824
0.2777045503
0.2777045712
0.2777046067
0.2777046052
0.2777045837
0.2777045773
0.2777046139
0.2777047531
0.2777051817
0.2777063859
0.2777043173
0.2777043102
0.2777043041
0.277704332
0.2777043355
0.2777043057
0.2777043028
0.2777042962
0.2777043027
0.2777043078
0.277704354
0.2777043946
0.2777045226
0.2777049382
0.2777057771
0.2777047082
0.2777046841
0.2777046533
0.2777046881
0.2777046979
0.2777047074
0.277704668
0.2777046816
0.2777046606
0.2777047098
0.2777046933
0.2777047257
0.2777048496
0.2777050465
0.2777054213
0.277704326
0.277704309
0.2777043012
0.2777043346
0.2777043086
0.2777042999
0.2777043134
0.2777043215
0.277704321
0.2777043411
0.2777043436
0.2777043617
0.2777044087
0.2777045019
0.2777052373
0.2777053317
0.2777053349
0.2777052912
0.27770534
0.2777053595
0.2777053153
0.2777053377
0.2777053669
0.2777054046
0.2777054036
0.2777054718
0.2777054992
0.2777057239
0.2777049964
0.2777049941
0.2777049749
0.2777049523
0.2777049561
0.2777049659
0.2777049409
0.2777049304
0.2777049069
0.2777048998
0.2777049329
0.2777050058
0.2777051725
0.2777056195
0.2777051818
0.277705209
0.2777052188
0.2777052038
0.277705229
0.2777052518
0.2777052219
0.2777052487
0.2777052718
0.2777052677
0.2777053195
0.2777054284
0.2777057646
0.2777066153
0.2777042177
0.2777041685
0.2777041124
0.277704169
0.277704153
0.2777041862
0.2777042071
0.2777041808
0.2777041498
0.2777041701
0.2777042303
0.2777043286
0.2777048289
0.2777061444
0.2777049722
0.2777049598
0.2777049203
0.2777049106
0.2777049314
0.2777049381
0.2777049503
0.2777049565
0.2777049874
0.2777049831
0.2777050424
0.277705153
0.2777055285
0.2777063994
0.2777044823
0.2777044844
0.277704453
0.277704483
0.2777044476
0.2777044759
0.2777044265
0.277704422
0.2777044243
0.2777044136
0.2777044446
0.2777044931
0.2777046402
0.2777050602
0.2777040359
0.2777040472
0.2777040431
0.2777040373
0.277703996
0.2777039825
0.2777039912
0.2777039683
0.2777039697
0.2777039486
0.277703958
0.2777039638
0.2777040501
0.2777042718
0.2777041393
0.2777041424
0.2777041547
0.2777041568
0.277704136
0.2777041308
0.2777041371
0.2777041271
0.2777041257
0.2777041426
0.2777041678
0.2777041656
0.2777042247
0.2777042981
0.2777044937
0.2777051869
0.2777052195
0.2777052157
0.2777051856
0.2777051699
0.2777051938
0.2777051936
0.2777051981
0.2777052194
0.2777052193
0.2777051941
0.2777052192
0.2777052423
0.2777053204
0.2777045718
0.2777046039
0.2777045977
0.2777046014
0.2777045721
0.2777045736
0.2777046063
0.2777046215
0.2777046479
0.2777046475
0.2777046631
0.2777046836
0.2777046886
0.2777047878
0.2777047373
0.2777047578
0.2777047667
0.2777047747
0.2777047931
0.2777047925
0.2777047692
0.2777047795
0.2777047957
0.2777047588
0.2777047838
0.2777048297
0.2777049081
0.2777051072
0.2777045842
0.2777045983
0.2777045564
0.2777045654
0.2777045686
0.2777045652
0.2777045681
0.2777045477
0.2777045146
0.2777045161
0.2777045304
0.2777045753
0.2777046899
0.2777050276
0.2777046651
0.2777046574
0.2777046611
0.2777046527
0.2777046225
0.2777046441
0.2777046943
0.2777046922
0.2777047065
0.2777046979
0.2777047117
0.2777047576
0.2777049584
0.2777053961
0.2777033143
0.2777033329
0.2777033
0.2777033137
0.2777033143
0.2777032964
0.2777032953
0.2777033097
0.2777032908
0.2777032956
0.277703305
0.2777033704
0.2777035376
0.277703823
0.2777040292
0.2777040254
0.2777040398
0.2777040273
0.2777040673
0.2777040452
0.2777040252
0.2777040162
0.277703991
0.2777040322
0.2777040425
0.2777041097
0.2777041747
0.2777043852
0.2777058936
0.2777058799
0.2777059054
0.2777058811
0.277705894
0.2777058841
0.2777058937
0.2777058727
0.2777059124
0.2777058974
0.2777058852
0.2777059376
0.2777059658
0.2777060634
0.2777046854
0.2777046809
0.2777046799
0.2777046987
0.2777047039
0.2777047035
0.2777047106
0.2777047354
0.2777047469
0.2777047459
0.2777047262
0.2777047502
0.2777047475
0.2777048279
)
;

boundaryField
{
    top
    {
        type            calculated;
        value           nonuniform List<scalar> 
134
(
0.2777047631
0.277704268
0.2777051507
0.277704212
0.2777052784
0.277705395
0.2777047082
0.2777041393
0.2777046854
0.2777047992
0.2777042363
0.2777051292
0.2777042477
0.2777052506
0.2777054227
0.2777046841
0.2777041424
0.2777046809
0.2777047841
0.277704259
0.2777051242
0.2777042203
0.2777052638
0.2777054596
0.2777046533
0.2777041547
0.2777046799
0.2777048183
0.2777042347
0.2777051457
0.2777042202
0.277705263
0.2777054363
0.2777046881
0.2777041568
0.2777046987
0.2777048445
0.2777042207
0.277705152
0.2777042057
0.2777052277
0.2777054184
0.2777046979
0.277704136
0.2777047039
0.27770481
0.2777041984
0.2777051604
0.2777042518
0.2777052005
0.277705423
0.2777047074
0.2777041308
0.2777047035
0.2777048013
0.2777041989
0.2777051059
0.277704278
0.2777051822
0.2777054084
0.277704668
0.2777041371
0.2777047106
0.277704807
0.2777042165
0.2777051059
0.2777042818
0.2777051865
0.2777053943
0.2777046816
0.2777041271
0.2777047354
0.2777048141
0.2777042247
0.2777050989
0.2777042617
0.2777051776
0.2777054006
0.2777046606
0.2777041257
0.2777047469
0.2777048453
0.2777041494
0.2777051019
0.2777042557
0.2777051709
0.2777053748
0.2777047098
0.2777041426
0.2777047459
0.2777048306
0.2777041443
0.2777051002
0.2777042793
0.2777052038
0.2777053904
0.2777046933
0.2777041678
0.2777047262
0.2777048384
0.2777041816
0.2777050946
0.2777042971
0.2777052489
0.27770541
0.2777047257
0.2777041656
0.2777047502
0.2777048768
0.277704245
0.2777051636
0.2777044356
0.2777054163
0.277705528
0.2777048496
0.2777042247
0.2777047475
0.2777048903
0.2777043677
0.2777053676
0.2777047399
0.2777058306
0.2777058361
0.2777050465
0.2777042981
0.2777048279
0.2777050109
0.2777045574
0.2777057382
0.2777054137
0.2777067073
0.2777064603
0.2777054213
0.2777044937
)
;
    }
    bottom
    {
        type            calculated;
        value           nonuniform List<scalar> 
127
(
0.2777045757
0.277704273
0.2777043341
0.2777053242
0.2777044091
0.2777054265
0.2777050677
0.277704326
0.2777051869
0.2777045793
0.2777042593
0.2777043453
0.2777052851
0.2777044432
0.2777054078
0.27770508
0.277704309
0.2777052195
0.2777045761
0.2777042407
0.2777043465
0.2777052906
0.2777044675
0.2777053989
0.277705085
0.2777043012
0.2777052157
0.27770458
0.2777042593
0.2777043035
0.2777053334
0.2777044557
0.2777054148
0.2777050974
0.2777043346
0.2777051856
0.2777045934
0.2777042323
0.2777042784
0.277705314
0.277704452
0.2777053996
0.2777050822
0.2777043086
0.2777051699
0.2777045985
0.2777041988
0.2777043017
0.277705308
0.2777044787
0.2777054412
0.2777050857
0.2777042999
0.2777051938
0.277704602
0.2777042177
0.2777043029
0.2777053027
0.2777044546
0.277705449
0.2777050941
0.2777043134
0.2777051936
0.2777046166
0.2777042163
0.2777042827
0.277705303
0.2777044463
0.2777054573
0.2777050946
0.2777043215
0.2777051981
0.2777046285
0.2777042304
0.2777042898
0.2777052767
0.2777044254
0.2777054274
0.2777050522
0.277704321
0.2777052194
0.2777046295
0.2777042376
0.2777042956
0.2777052746
0.2777043764
0.2777054188
0.2777050486
0.2777043411
0.2777052193
0.2777046294
0.2777042756
0.2777042942
0.2777052956
0.2777043939
0.2777054234
0.2777050465
0.2777043436
0.2777051941
0.2777046475
0.2777042748
0.2777043372
0.277705317
0.2777044549
0.2777054601
0.2777050817
0.2777043617
0.2777052192
0.2777047093
0.2777043212
0.2777044224
0.2777054596
0.2777046277
0.2777056026
0.277705139
0.2777044087
0.2777052423
0.2777047639
0.2777044255
0.2777046383
0.2777057712
0.2777050523
0.2777059663
0.2777053353
0.2777045019
0.2777053204
0.2777048471
)
;
    }
    side-walls
    {
        type            calculated;
        value           nonuniform List<scalar> 
261
(
0.2777045757
0.2777041007
0.2777053411
0.2777035228
0.2777040572
0.2777060204
0.2777052143
0.2777043289
0.2777047631
0.2777045793
0.2777040828
0.2777053243
0.2777035355
0.2777040653
0.2777059866
0.2777052198
0.2777043141
0.2777047992
0.2777045761
0.2777040358
0.2777053243
0.2777035342
0.2777040739
0.2777059959
0.2777052114
0.2777043403
0.2777047841
0.27770458
0.2777040644
0.2777053284
0.2777035199
0.2777040781
0.2777060234
0.2777052123
0.2777043756
0.2777048183
0.2777045934
0.2777040495
0.2777053209
0.2777035154
0.2777040568
0.2777060166
0.2777051606
0.2777043288
0.2777048445
0.2777045985
0.2777040445
0.2777053367
0.2777035303
0.2777040277
0.2777059785
0.2777051746
0.2777043719
0.27770481
0.277704602
0.2777040586
0.2777052828
0.2777035308
0.2777040113
0.2777059373
0.2777051694
0.2777043795
0.2777048013
0.2777046166
0.2777040505
0.2777053184
0.2777035592
0.2777040305
0.2777059391
0.2777051777
0.2777043738
0.277704807
0.2777046285
0.2777040347
0.2777053349
0.2777035971
0.2777040058
0.2777059231
0.2777051895
0.2777044043
0.2777048141
0.2777046295
0.2777039907
0.277705329
0.2777035881
0.2777040276
0.2777059577
0.2777051823
0.2777044205
0.2777048453
0.2777046294
0.2777040139
0.2777053069
0.2777035907
0.2777040567
0.2777060222
0.2777051971
0.2777044072
0.2777048306
0.2777046475
0.2777040006
0.2777053464
0.2777036142
0.2777041041
0.277706065
0.2777052337
0.2777044319
0.2777048384
0.2777047093
0.2777040409
0.2777054199
0.2777037765
0.2777042714
0.2777061762
0.2777053237
0.2777044597
0.2777048768
0.2777047639
0.2777041181
0.2777056154
0.2777040819
0.2777046946
0.2777064709
0.277705525
0.2777045526
0.2777048903
0.2777048471
0.2777043136
0.2777059649
0.277704699
0.2777055021
0.2777071157
0.2777059069
0.2777047814
0.2777050109
0.2777051869
0.2777045718
0.2777047373
0.2777045842
0.2777046651
0.2777033143
0.2777040292
0.2777058936
0.2777046854
0.2777052195
0.2777046039
0.2777047578
0.2777045983
0.2777046574
0.2777033329
0.2777040254
0.2777058799
0.2777046809
0.2777052157
0.2777045977
0.2777047667
0.2777045564
0.2777046611
0.2777033
0.2777040398
0.2777059054
0.2777046799
0.2777051856
0.2777046014
0.2777047747
0.2777045654
0.2777046527
0.2777033137
0.2777040273
0.2777058811
0.2777046987
0.2777051699
0.2777045721
0.2777047931
0.2777045686
0.2777046225
0.2777033143
0.2777040673
0.277705894
0.2777047039
0.2777051938
0.2777045736
0.2777047925
0.2777045652
0.2777046441
0.2777032964
0.2777040452
0.2777058841
0.2777047035
0.2777051936
0.2777046063
0.2777047692
0.2777045681
0.2777046943
0.2777032953
0.2777040252
0.2777058937
0.2777047106
0.2777051981
0.2777046215
0.2777047795
0.2777045477
0.2777046922
0.2777033097
0.2777040162
0.2777058727
0.2777047354
0.2777052194
0.2777046479
0.2777047957
0.2777045146
0.2777047065
0.2777032908
0.277703991
0.2777059124
0.2777047469
0.2777052193
0.2777046475
0.2777047588
0.2777045161
0.2777046979
0.2777032956
0.2777040322
0.2777058974
0.2777047459
0.2777051941
0.2777046631
0.2777047838
0.2777045304
0.2777047117
0.277703305
0.2777040425
0.2777058852
0.2777047262
0.2777052192
0.2777046836
0.2777048297
0.2777045753
0.2777047576
0.2777033704
0.2777041097
0.2777059376
0.2777047502
0.2777052423
0.2777046886
0.2777049081
0.2777046899
0.2777049584
0.2777035376
0.2777041747
0.2777059658
0.2777047475
0.2777053204
0.2777047878
0.2777051072
0.2777050276
0.2777053961
0.277703823
0.2777043852
0.2777060634
0.2777048279
)
;
    }
    inlet
    {
        type            calculated;
        value           nonuniform List<scalar> 
81
(
0.2777045757
0.2777041007
0.2777053411
0.2777035228
0.2777040572
0.2777060204
0.2777052143
0.2777043289
0.2777047631
0.277704273
0.2777043853
0.2777039543
0.277705343
0.2777043617
0.2777041132
0.2777032451
0.2777052385
0.277704268
0.2777043341
0.2777053284
0.2777049358
0.2777052871
0.2777034631
0.2777058604
0.2777049257
0.2777042202
0.2777051507
0.2777053242
0.2777053176
0.2777057108
0.2777046277
0.2777045998
0.2777049884
0.2777050576
0.2777039774
0.277704212
0.2777044091
0.2777052149
0.2777033054
0.2777048531
0.277704256
0.2777041155
0.2777046152
0.2777052461
0.2777052784
0.2777054265
0.2777049506
0.2777057932
0.2777049076
0.2777047539
0.2777049993
0.2777047632
0.2777051861
0.277705395
0.2777050677
0.2777044924
0.2777031273
0.2777046247
0.2777054972
0.2777050037
0.2777045611
0.2777043173
0.2777047082
0.277704326
0.2777052373
0.2777049964
0.2777051818
0.2777042177
0.2777049722
0.2777044823
0.2777040359
0.2777041393
0.2777051869
0.2777045718
0.2777047373
0.2777045842
0.2777046651
0.2777033143
0.2777040292
0.2777058936
0.2777046854
)
;
    }
    outlet
    {
        type            calculated;
        value           nonuniform 0();
    }
    procBoundary0to1
    {
        type            processor;
        value           nonuniform List<scalar> 
97
(
0.277705039
0.2777046595
0.2777046245
0.2777065507
0.277705711
0.2777067601
0.2777080749
0.2777064955
0.2777050927
0.2777051701
0.2777046595
0.2777046595
0.2777056278
0.277706835
0.2777067929
0.2777107905
0.2777125124
0.2777096152
0.2777059386
0.2777064454
0.2777048599
0.2777049983
0.277706835
0.277706835
0.2777123221
0.2777162235
0.2777226712
0.2777340871
0.2777232943
0.2777122815
0.2777069828
0.2777063373
0.2777064293
0.2777084404
0.2777162235
0.2777162235
0.2777564845
0.2778130781
0.2778247354
0.2777569335
0.2777225497
0.277709568
0.2777064035
0.277705906
0.2777100015
0.2777241106
0.2778130781
0.2778130781
0.2793363403
0.2778129265
0.2778241905
0.2777412333
0.2777351464
0.277713352
0.2777079442
0.2777065702
0.2777081082
0.2777164789
0.2777410461
0.2778129265
0.2777412333
0.2777412333
0.2777222624
0.2777087302
0.2777107106
0.2777074522
0.277705714
0.2777061144
0.2777073016
0.277715119
0.2777261332
0.2777155814
0.2777087302
0.2777087302
0.2777070719
0.2777046361
0.2777059638
0.2777046894
0.2777060704
0.2777064442
0.2777083895
0.2777089323
0.2777081517
0.2777058934
0.2777046361
0.2777046361
0.2777048173
0.2777049365
0.2777054418
0.2777049406
0.2777054805
0.2777056193
0.277706264
0.2777045028
0.2777047514
0.2777062664
0.2777049365
)
;
    }
}


// ************************************************************************* //
