/*--------------------------------*- C++ -*----------------------------------*\
| =========                 |                                                 |
| \\      /  F ield         | OpenFOAM: The Open Source CFD Toolbox           |
|  \\    /   O peration     | Version:  4.x                                   |
|   \\  /    A nd           | Web:      www.OpenFOAM.org                      |
|    \\/     M anipulation  |                                                 |
\*---------------------------------------------------------------------------*/
FoamFile
{
    version     2.0;
    format      ascii;
    class       volScalarField;
    location    "6000";
    object      T;
}
// * * * * * * * * * * * * * * * * * * * * * * * * * * * * * * * * * * * * * //

dimensions      [0 0 0 1 0 0 0];

internalField   nonuniform List<scalar> 
1175
(
1223.150984
1223.150968
1223.150982
1223.150965
1223.150906
1223.150884
1223.150869
1223.150805
1223.150755
1223.150757
1223.150777
1223.150748
1223.150601
1223.150636
1223.150811
1223.153076
1223.153155
1223.153362
1223.153236
1223.153302
1223.153324
1223.153262
1223.153299
1223.153372
1223.153576
1223.153504
1223.153646
1223.15368
1223.153816
1223.15389
1223.147613
1223.147687
1223.147687
1223.147669
1223.147702
1223.147632
1223.14787
1223.147715
1223.147647
1223.14769
1223.147841
1223.147819
1223.147895
1223.147961
1223.148247
1223.155622
1223.155566
1223.155571
1223.155634
1223.155654
1223.155589
1223.155587
1223.155464
1223.155304
1223.155369
1223.155439
1223.15558
1223.155535
1223.155797
1223.156268
1223.153268
1223.153232
1223.153194
1223.153176
1223.15327
1223.153398
1223.153471
1223.153389
1223.153506
1223.153439
1223.153408
1223.153501
1223.153618
1223.153869
1223.154562
1223.144621
1223.14477
1223.144729
1223.144608
1223.144638
1223.144806
1223.144988
1223.144982
1223.14506
1223.144932
1223.144729
1223.144785
1223.144965
1223.145275
1223.145624
1223.148171
1223.148147
1223.148184
1223.14818
1223.148408
1223.148347
1223.14837
1223.148335
1223.148288
1223.148337
1223.148324
1223.148315
1223.148318
1223.148359
1223.148503
1223.152071
1223.152136
1223.152021
1223.151866
1223.152072
1223.151882
1223.151849
1223.151875
1223.151744
1223.151683
1223.151772
1223.151747
1223.151835
1223.151902
1223.151829
1223.150159
1223.15
1223.150066
1223.149915
1223.1498
1223.149952
1223.149991
1223.149966
1223.149937
1223.149807
1223.149891
1223.149908
1223.149864
1223.15008
1223.150089
1223.152317
1223.152378
1223.15246
1223.152378
1223.152497
1223.152644
1223.152561
1223.152569
1223.15251
1223.152488
1223.152351
1223.152438
1223.152445
1223.152462
1223.151823
1223.151814
1223.151918
1223.151769
1223.151856
1223.151791
1223.151871
1223.151963
1223.151921
1223.151944
1223.152027
1223.151931
1223.152009
1223.152101
1223.152455
1223.153721
1223.153601
1223.153681
1223.153729
1223.153703
1223.153675
1223.153598
1223.153607
1223.153569
1223.153572
1223.153617
1223.153735
1223.153872
1223.154138
1223.154695
1223.147604
1223.147725
1223.147903
1223.147965
1223.14785
1223.147803
1223.147893
1223.147992
1223.147897
1223.148131
1223.14798
1223.148058
1223.148249
1223.148731
1223.149991
1223.151927
1223.152021
1223.152128
1223.152176
1223.152046
1223.15213
1223.152146
1223.15202
1223.152065
1223.152115
1223.152145
1223.152087
1223.15234
1223.15316
1223.154852
1223.153021
1223.152988
1223.152973
1223.15296
1223.152916
1223.152933
1223.152908
1223.153034
1223.152946
1223.153072
1223.153159
1223.15325
1223.153513
1223.154131
1223.155198
1223.156845
1223.156855
1223.156925
1223.156939
1223.15697
1223.156895
1223.156935
1223.156773
1223.15703
1223.157037
1223.156932
1223.156987
1223.157055
1223.157576
1223.158253
1223.148065
1223.14792
1223.14792
1223.147991
1223.148165
1223.148062
1223.14823
1223.148374
1223.148284
1223.148499
1223.148578
1223.148492
1223.148652
1223.148742
1223.148932
1223.15234
1223.152479
1223.152379
1223.152486
1223.152548
1223.152646
1223.152644
1223.152568
1223.152535
1223.152877
1223.15293
1223.152849
1223.152781
1223.152716
1223.152816
1223.152048
1223.151999
1223.151994
1223.152183
1223.152294
1223.152191
1223.152186
1223.152277
1223.152251
1223.152242
1223.152301
1223.152264
1223.152288
1223.152265
1223.147669
1223.147701
1223.147726
1223.147609
1223.147579
1223.147604
1223.14768
1223.147759
1223.147853
1223.147798
1223.147824
1223.14794
1223.14822
1223.148314
1223.149398
1223.149377
1223.149341
1223.149568
1223.149395
1223.149073
1223.148887
1223.148884
1223.148921
1223.149019
1223.149182
1223.149364
1223.149771
1223.15046
1223.152008
1223.147851
1223.147872
1223.14786
1223.148083
1223.148116
1223.147964
1223.147977
1223.148202
1223.147987
1223.147866
1223.147922
1223.148001
1223.148648
1223.150467
1223.154309
1223.155885
1223.155822
1223.155706
1223.155682
1223.155657
1223.155424
1223.155447
1223.155362
1223.155403
1223.15551
1223.155611
1223.155946
1223.157044
1223.160246
1223.168431
1223.145326
1223.14526
1223.145109
1223.145185
1223.145033
1223.144959
1223.144903
1223.144986
1223.145011
1223.144946
1223.145103
1223.145276
1223.146057
1223.147907
1223.151893
1223.149442
1223.149493
1223.149579
1223.149678
1223.149639
1223.149586
1223.149639
1223.149375
1223.149439
1223.149189
1223.149224
1223.149341
1223.149735
1223.150464
1223.152036
1223.15255
1223.152603
1223.152666
1223.152672
1223.152773
1223.152582
1223.152572
1223.152556
1223.152817
1223.152766
1223.152697
1223.152656
1223.152891
1223.153193
1223.153717
1223.148451
1223.148546
1223.148568
1223.148473
1223.148446
1223.148409
1223.148649
1223.148651
1223.148687
1223.148691
1223.148751
1223.148928
1223.149023
1223.149052
1223.149246
1223.147687
1223.14786
1223.147835
1223.147647
1223.147732
1223.147759
1223.147783
1223.147784
1223.147907
1223.147941
1223.14793
1223.148079
1223.148121
1223.148357
1223.147716
1223.147753
1223.147815
1223.147918
1223.147877
1223.147892
1223.147857
1223.14782
1223.14771
1223.147951
1223.14806
1223.147817
1223.148089
1223.148677
1223.145984
1223.146167
1223.146084
1223.146087
1223.145969
1223.146222
1223.146203
1223.146066
1223.146229
1223.146242
1223.14638
1223.146557
1223.147155
1223.149013
1223.150755
1223.150774
1223.150754
1223.150802
1223.150912
1223.151071
1223.151132
1223.151096
1223.150986
1223.151014
1223.151052
1223.15147
1223.153135
1223.158868
1223.173526
1223.150878
1223.150795
1223.150836
1223.150859
1223.150938
1223.150794
1223.150837
1223.150918
1223.151159
1223.151134
1223.151141
1223.151978
1223.155287
1223.169594
1223.214708
1223.149166
1223.149203
1223.149128
1223.149051
1223.148962
1223.148973
1223.148989
1223.148927
1223.148865
1223.148827
1223.148949
1223.149324
1223.150895
1223.156795
1223.171422
1223.148862
1223.148922
1223.148946
1223.148767
1223.148902
1223.148921
1223.148808
1223.148815
1223.14873
1223.148744
1223.148888
1223.149094
1223.149607
1223.15141
1223.155226
1223.153619
1223.153524
1223.153604
1223.153585
1223.153463
1223.153535
1223.153713
1223.153759
1223.153619
1223.153689
1223.153608
1223.153701
1223.153872
1223.154253
1223.155394
1223.152586
1223.152429
1223.15255
1223.15255
1223.152614
1223.152411
1223.152296
1223.152282
1223.152377
1223.152429
1223.152406
1223.152572
1223.152631
1223.152899
1223.15312
1223.151718
1223.151568
1223.15146
1223.151512
1223.151529
1223.151412
1223.151518
1223.151557
1223.151658
1223.151903
1223.151923
1223.151956
1223.152049
1223.152294
1223.148169
1223.148156
1223.148399
1223.148276
1223.148243
1223.148182
1223.148038
1223.148086
1223.147965
1223.147655
1223.147837
1223.148094
1223.148384
1223.149345
1223.156579
1223.156581
1223.15645
1223.156371
1223.156154
1223.156194
1223.156026
1223.155962
1223.15595
1223.156122
1223.156258
1223.156383
1223.15733
1223.160749
1223.149762
1223.149723
1223.149627
1223.149648
1223.149612
1223.149677
1223.149735
1223.149921
1223.149821
1223.14986
1223.149981
1223.150686
1223.153893
1223.168051
1223.152392
1223.152361
1223.152406
1223.152282
1223.152322
1223.152477
1223.152533
1223.152601
1223.152521
1223.152391
1223.152793
1223.154202
1223.162207
1223.2151
1218.229877
1223.153011
1223.153023
1223.153077
1223.153148
1223.153113
1223.153118
1223.153045
1223.153171
1223.153215
1223.153256
1223.153524
1223.1544
1223.157661
1223.171823
1223.217043
1223.15081
1223.150825
1223.150613
1223.150693
1223.150786
1223.150871
1223.15069
1223.15065
1223.150768
1223.150723
1223.1509
1223.151191
1223.152241
1223.155646
1223.163887
1223.148031
1223.147991
1223.148049
1223.148211
1223.148144
1223.147995
1223.147863
1223.147967
1223.148228
1223.148081
1223.1481
1223.148208
1223.148442
1223.149357
1223.151141
1223.147889
1223.148012
1223.147954
1223.147957
1223.148113
1223.148233
1223.148314
1223.148297
1223.148345
1223.148404
1223.148356
1223.148459
1223.148576
1223.148866
1223.149253
1223.147237
1223.147319
1223.147358
1223.147288
1223.147355
1223.147172
1223.147138
1223.147104
1223.147243
1223.147306
1223.147367
1223.147449
1223.147492
1223.147497
1223.149333
1223.149204
1223.149398
1223.149409
1223.149418
1223.149473
1223.149294
1223.149164
1223.149135
1223.14903
1223.149125
1223.149373
1223.149599
1223.150022
1223.145621
1223.145584
1223.145621
1223.145514
1223.145568
1223.145576
1223.145594
1223.145586
1223.145607
1223.145567
1223.145614
1223.145636
1223.146114
1223.14784
1223.149522
1223.149522
1223.14962
1223.149458
1223.149475
1223.149548
1223.149594
1223.149821
1223.149722
1223.149782
1223.149682
1223.150073
1223.151614
1223.157443
1223.150199
1223.150378
1223.150206
1223.150146
1223.150208
1223.150211
1223.150452
1223.150255
1223.150377
1223.150569
1223.150695
1223.15132
1223.154698
1223.168771
1223.149118
1223.149002
1223.149056
1223.148933
1223.148773
1223.148671
1223.148848
1223.148802
1223.148885
1223.148958
1223.148966
1223.149286
1223.150966
1223.156673
1223.150158
1223.15007
1223.150257
1223.150217
1223.150158
1223.149895
1223.149939
1223.150007
1223.149977
1223.149959
1223.150034
1223.150115
1223.150818
1223.15264
1223.156528
1223.148296
1223.148379
1223.148435
1223.148522
1223.148512
1223.148677
1223.148635
1223.14862
1223.148636
1223.148336
1223.148352
1223.148424
1223.148502
1223.149005
1223.150028
1223.147376
1223.147253
1223.147091
1223.147194
1223.147273
1223.147252
1223.147317
1223.147381
1223.147361
1223.1475
1223.147512
1223.14767
1223.14782
1223.148071
1223.14851
1223.148817
1223.148763
1223.148741
1223.148686
1223.148753
1223.148738
1223.148701
1223.148701
1223.148893
1223.148925
1223.148987
1223.148984
1223.149132
1223.149194
1223.151351
1223.15145
1223.151419
1223.151444
1223.15131
1223.151108
1223.151163
1223.150903
1223.150973
1223.150991
1223.151316
1223.151284
1223.151176
1223.151497
1223.157364
1223.157223
1223.157123
1223.156835
1223.156892
1223.156889
1223.156893
1223.157062
1223.157028
1223.15702
1223.157125
1223.157319
1223.157625
1223.158417
1223.150768
1223.150889
1223.150838
1223.150737
1223.150918
1223.150741
1223.150853
1223.150923
1223.1511
1223.151124
1223.1513
1223.151482
1223.152145
1223.153902
1223.146925
1223.146889
1223.147008
1223.147117
1223.147216
1223.147207
1223.147299
1223.147438
1223.147369
1223.147264
1223.147271
1223.147534
1223.148584
1223.151934
1223.149099
1223.148918
1223.148881
1223.148825
1223.148896
1223.148951
1223.149007
1223.148948
1223.149055
1223.148904
1223.14882
1223.149123
1223.149596
1223.15157
1223.151049
1223.150961
1223.150901
1223.150955
1223.151096
1223.151004
1223.150849
1223.15086
1223.15097
1223.151057
1223.151108
1223.151214
1223.151536
1223.152065
1223.152122
1223.152154
1223.152181
1223.152057
1223.152042
1223.152174
1223.152187
1223.152219
1223.152198
1223.152206
1223.152102
1223.152233
1223.152544
1223.152853
1223.153421
1223.150401
1223.150506
1223.150642
1223.150489
1223.150446
1223.150404
1223.150578
1223.15052
1223.150617
1223.150418
1223.150543
1223.150552
1223.150406
1223.150467
1223.150642
1223.152084
1223.152159
1223.152193
1223.152046
1223.152161
1223.152199
1223.15214
1223.152105
1223.152111
1223.152032
1223.152052
1223.152056
1223.15206
1223.152125
1223.14807
1223.147654
1223.14764
1223.147832
1223.147618
1223.147532
1223.147727
1223.14763
1223.147507
1223.147357
1223.147414
1223.147265
1223.147547
1223.147498
1223.149131
1223.149141
1223.149226
1223.149325
1223.149309
1223.149266
1223.149377
1223.149425
1223.149537
1223.149598
1223.149552
1223.149541
1223.149681
1223.149853
1223.148314
1223.148195
1223.148151
1223.148218
1223.148107
1223.148006
1223.148139
1223.148024
1223.147936
1223.148001
1223.14794
1223.148016
1223.148211
1223.148829
1223.152561
1223.152778
1223.153025
1223.152775
1223.152846
1223.1527
1223.152609
1223.152729
1223.152881
1223.152849
1223.152796
1223.153102
1223.153268
1223.154069
1223.149238
1223.149292
1223.149466
1223.149509
1223.149418
1223.149388
1223.149335
1223.149311
1223.149188
1223.149254
1223.149161
1223.149229
1223.149251
1223.14978
1223.151395
1223.151386
1223.151524
1223.151393
1223.151549
1223.151424
1223.151642
1223.151664
1223.151663
1223.15174
1223.151703
1223.1518
1223.152026
1223.152316
1223.153362
1223.153312
1223.15333
1223.153355
1223.153537
1223.153597
1223.153559
1223.153661
1223.15366
1223.15377
1223.153781
1223.153907
1223.15393
1223.153894
1223.152906
1223.152893
1223.152838
1223.152829
1223.152921
1223.152944
1223.152916
1223.152962
1223.152971
1223.152907
1223.152826
1223.15292
1223.152871
1223.153023
1223.153097
1223.148292
1223.148149
1223.148165
1223.148298
1223.148367
1223.148262
1223.148263
1223.148244
1223.148152
1223.14816
1223.14829
1223.14823
1223.148253
1223.148185
1223.151001
1223.15086
1223.150887
1223.150871
1223.151
1223.150993
1223.15085
1223.150784
1223.150671
1223.150683
1223.150645
1223.150638
1223.150827
1223.150866
1223.150272
1223.150182
1223.150143
1223.150108
1223.150027
1223.15003
1223.150132
1223.150089
1223.150022
1223.150202
1223.150144
1223.150094
1223.150149
1223.150199
1223.150946
1223.150885
1223.151069
1223.15103
1223.151015
1223.151031
1223.151018
1223.15111
1223.151263
1223.151282
1223.1513
1223.151346
1223.151511
1223.151632
1223.15059
1223.150624
1223.150608
1223.150645
1223.150778
1223.150683
1223.150462
1223.150474
1223.15042
1223.150487
1223.150523
1223.150622
1223.150592
1223.15078
1223.15654
1223.156458
1223.156603
1223.156543
1223.15654
1223.156619
1223.156625
1223.156563
1223.156654
1223.156658
1223.156697
1223.156653
1223.156587
1223.156938
1223.153391
1223.153408
1223.153345
1223.153399
1223.153223
1223.153321
1223.153409
1223.153451
1223.153567
1223.153402
1223.15341
1223.153266
1223.153379
1223.153379
1223.145179
1223.14524
1223.145128
1223.145235
1223.145178
1223.145221
1223.145179
1223.145273
1223.145101
1223.145177
1223.145262
1223.145115
1223.145202
1223.145248
1223.150501
1223.150521
1223.150525
1223.150443
1223.15042
1223.150421
1223.15039
1223.150281
1223.150233
1223.150244
1223.150351
1223.150296
1223.150433
1223.150354
)
;

boundaryField
{
    top
    {
        type            zeroGradient;
    }
    bottom
    {
        type            zeroGradient;
    }
    side-walls
    {
        type            zeroGradient;
    }
    inlet
    {
        type            zeroGradient;
    }
    outlet
    {
        type            zeroGradient;
    }
    procBoundary0to1
    {
        type            processor;
        value           nonuniform List<scalar> 
97
(
1223.150906
1223.152366
1223.1541
1223.148633
1223.156746
1223.155271
1223.146334
1223.148876
1223.152037
1223.150328
1223.152366
1223.152366
1223.152758
1223.148761
1223.155359
1223.15147
1223.156804
1223.156647
1223.159122
1223.149157
1223.153062
1223.152505
1223.148761
1223.148761
1223.153807
1223.152881
1223.158846
1223.174736
1223.156101
1223.153985
1223.154523
1223.149573
1223.148647
1223.149699
1223.152881
1223.152881
1223.183192
1223.213562
1223.222053
1223.181214
1223.15938
1223.156855
1223.153696
1223.152783
1223.151164
1223.169036
1223.213562
1223.213562
1218.055861
1223.21423
1223.224453
1223.171025
1223.170071
1223.153106
1223.150056
1223.148026
1223.151162
1223.151756
1223.171849
1223.21423
1223.171025
1223.171025
1223.160647
1223.153696
1223.151822
1223.149077
1223.149352
1223.151935
1223.159988
1223.157745
1223.160127
1223.155708
1223.153696
1223.153696
1223.15413
1223.154141
1223.151218
1223.152234
1223.147824
1223.150483
1223.149923
1223.155874
1223.15097
1223.152909
1223.154141
1223.154141
1223.15325
1223.150417
1223.148191
1223.151128
1223.150381
1223.152214
1223.151206
1223.157132
1223.153592
1223.145289
1223.150417
)
;
    }
}


// ************************************************************************* //
