/*--------------------------------*- C++ -*----------------------------------*\
| =========                 |                                                 |
| \\      /  F ield         | OpenFOAM: The Open Source CFD Toolbox           |
|  \\    /   O peration     | Version:  4.x                                   |
|   \\  /    A nd           | Web:      www.OpenFOAM.org                      |
|    \\/     M anipulation  |                                                 |
\*---------------------------------------------------------------------------*/
FoamFile
{
    version     2.0;
    format      ascii;
    class       volVectorField;
    location    "6000";
    object      U;
}
// * * * * * * * * * * * * * * * * * * * * * * * * * * * * * * * * * * * * * //

dimensions      [0 1 -1 0 0 0 0];

internalField   nonuniform List<vector> 
1175
(
(0.01100000017 -9.694081051e-10 -4.225723825e-10)
(0.01100000063 -4.429217694e-10 -7.90766473e-10)
(0.0110000007 -1.228310597e-09 -2.388250718e-09)
(0.01099999979 -2.059935465e-09 6.507696817e-10)
(0.01100000054 -8.94819304e-10 5.464288767e-10)
(0.0110000001 -1.242722997e-09 -1.475394428e-09)
(0.01100000257 -1.431381188e-09 -1.339328809e-09)
(0.01100000474 -1.229944946e-09 -1.594928927e-09)
(0.01100001257 5.663556904e-10 -3.911484449e-09)
(0.01100001729 -1.227308528e-09 -6.300490787e-09)
(0.01100003251 -4.554638537e-09 -5.630526064e-09)
(0.01100004304 -6.637931743e-09 -6.410432482e-09)
(0.01100008295 -8.484591204e-09 -1.075855067e-08)
(0.01100011086 -8.544234403e-09 -8.068170738e-09)
(0.01100017386 -2.109713356e-08 -2.003779192e-08)
(0.01099999939 -7.444870508e-10 -3.662049022e-11)
(0.01100000025 -2.210918629e-09 -2.579348798e-09)
(0.01100000274 7.894011929e-12 -7.097787728e-10)
(0.0109999997 -1.004706336e-09 -1.603166921e-09)
(0.01099999962 -1.560982793e-09 1.849134981e-10)
(0.01100000103 -3.444517004e-10 -9.442703145e-10)
(0.01100000211 -1.817268254e-09 -7.919117175e-10)
(0.01100000279 -2.047230711e-09 -3.52940639e-09)
(0.01100000749 -5.098683792e-09 -3.975084649e-09)
(0.01100001464 -7.368491583e-09 -4.330231779e-09)
(0.01100002966 -1.179369105e-08 -7.259873013e-09)
(0.01100003704 -1.798579076e-08 -7.77096948e-09)
(0.01100007886 -3.271311397e-08 -1.177485409e-08)
(0.0110000964 -3.447424576e-08 -8.598105942e-09)
(0.0110001693 -8.055322644e-08 -3.125020574e-08)
(0.01099999893 -2.716186666e-10 -1.203767705e-09)
(0.01100000076 -1.488998622e-09 3.366257409e-10)
(0.01100000073 -1.46333577e-09 -8.080959422e-10)
(0.01100000039 -2.597291404e-09 4.397301222e-10)
(0.01099999987 -2.197703661e-09 -3.673252535e-10)
(0.01099999977 -3.852096163e-09 -3.460882399e-09)
(0.01100000075 -4.124516571e-09 2.397110715e-10)
(0.01100000297 -4.655381898e-09 -3.315575448e-09)
(0.01100000479 -6.057662114e-09 -4.74331837e-09)
(0.01100000644 -9.948689262e-09 -5.681564554e-09)
(0.01100001863 -1.648661669e-08 -9.760334112e-09)
(0.01100002034 -2.155318114e-08 -1.261543836e-08)
(0.01100006154 -3.793778307e-08 -1.78639179e-08)
(0.01100005784 -3.569450417e-08 -1.877640739e-08)
(0.01100016126 -9.874452414e-08 -6.727767159e-08)
(0.01099999994 -1.102531012e-09 -1.678387389e-10)
(0.01099999864 -1.120837277e-10 1.500678145e-09)
(0.01099999887 -1.056051879e-09 -1.370007147e-10)
(0.01100000009 -1.379669749e-09 -1.965028246e-09)
(0.01099999959 -3.215717251e-09 -1.4759415e-09)
(0.01100000042 -2.377007206e-09 -7.966209728e-10)
(0.01100000176 -3.40209328e-09 -8.55372478e-10)
(0.01100000076 -4.238954478e-09 -3.030019122e-09)
(0.01100000035 -5.827960483e-09 -2.585370021e-09)
(0.0110000039 -9.7224063e-09 -4.998948626e-09)
(0.0110000137 -1.37729235e-08 -5.279423988e-09)
(0.0110000131 -2.441014898e-08 -1.126315475e-08)
(0.01100005779 -4.900650508e-08 -1.853900465e-08)
(0.01100003516 -5.940897529e-08 -1.66640386e-08)
(0.01100016615 -1.571985146e-07 -8.879809995e-08)
(0.01099999927 -1.042107404e-09 -1.40533199e-09)
(0.01099999988 -2.02790706e-09 -7.273679672e-10)
(0.01099999845 -3.642467997e-09 9.977959475e-10)
(0.01099999946 -1.743779863e-09 -5.693901529e-10)
(0.0109999991 -1.224845732e-09 6.060474963e-10)
(0.01100000003 -7.541677135e-10 -2.725416932e-09)
(0.01099999998 -5.488556155e-10 1.212500838e-09)
(0.01099999903 -3.281042504e-10 -5.021311092e-09)
(0.01099999902 -2.672215136e-09 -2.953176498e-09)
(0.01099999641 4.59571186e-10 -6.878641439e-09)
(0.01100000168 -7.557651686e-11 -1.14856342e-08)
(0.01099998373 -1.112255867e-09 -2.167732926e-08)
(0.01100002148 1.798988737e-10 -3.626732948e-08)
(0.01099994704 -1.29438368e-10 -5.878335728e-08)
(0.01100016503 -4.980254185e-10 -2.23478635e-07)
(0.01099999877 -1.268863937e-09 -8.158714385e-10)
(0.01099999991 -8.369878594e-10 -3.034613299e-10)
(0.0110000006 -2.573278518e-10 -1.734379316e-10)
(0.01099999978 -5.791093335e-11 -8.237952682e-10)
(0.01099999918 4.161863214e-10 -7.675985543e-10)
(0.01099999992 9.346220846e-11 -1.027654214e-09)
(0.01100000012 1.27307528e-09 1.763497734e-09)
(0.01100000006 1.689533115e-09 -2.247191715e-09)
(0.01100000529 5.726503207e-09 -1.937162065e-09)
(0.01100000436 6.630621186e-09 -4.776237093e-09)
(0.01100001337 1.468015831e-08 -5.858402804e-09)
(0.01100001218 2.391183975e-08 -9.857381967e-09)
(0.01100005616 4.710046603e-08 -1.725363954e-08)
(0.01100003557 5.738510224e-08 -1.719137329e-08)
(0.01100016691 1.5816307e-07 -8.675131237e-08)
(0.01099999969 -1.47952027e-09 1.688233037e-10)
(0.01099999935 -8.192643764e-10 -5.640305334e-10)
(0.01100000048 2.143562331e-10 4.08634226e-10)
(0.01099999844 -7.611013423e-10 -6.811788423e-10)
(0.01100000172 -7.451788266e-10 -5.853570132e-10)
(0.01099999998 -7.015340757e-11 -4.897930704e-10)
(0.01100000298 3.34735394e-09 -3.089773217e-09)
(0.01100000205 3.187361475e-09 -1.562982233e-09)
(0.01100000676 5.662587343e-09 -1.253931618e-09)
(0.01100000895 1.142724684e-08 -4.164864525e-09)
(0.01100001818 1.370899535e-08 -6.615455051e-09)
(0.01100001909 2.038656745e-08 -9.5237954e-09)
(0.011000061 3.811382464e-08 -2.001204361e-08)
(0.01100005962 3.60393191e-08 -1.870339263e-08)
(0.01100016197 9.946814312e-08 -6.576238229e-08)
(0.01100000009 -1.553318939e-09 2.722794765e-11)
(0.0109999999 -4.50302902e-10 2.254214408e-09)
(0.01100000125 -4.787159711e-10 1.181145481e-09)
(0.01099999792 -5.086117605e-10 -1.997367876e-09)
(0.01100000225 5.165408941e-10 -7.69012832e-12)
(0.01100000145 2.133664103e-09 -1.179645996e-09)
(0.01100000422 2.25368274e-09 -1.628673332e-09)
(0.01100000389 5.032599749e-09 -5.429700134e-10)
(0.0110000116 5.063184984e-09 -7.579966018e-10)
(0.01100001274 7.915254654e-09 -4.070921563e-09)
(0.01100002864 1.18850785e-08 -4.522998013e-09)
(0.01100003837 1.974139424e-08 -7.026521786e-09)
(0.01100007745 3.526843022e-08 -1.4099438e-08)
(0.01100009775 3.590739648e-08 -9.507851346e-09)
(0.01100016854 7.956091637e-08 -3.062421892e-08)
(0.01100000012 3.443716792e-10 4.603576925e-10)
(0.01099999783 -1.091948481e-09 -1.567135393e-09)
(0.01100000191 9.392338363e-11 -2.135598741e-09)
(0.0110000015 1.000425314e-09 6.956411398e-10)
(0.01099999875 -1.155688806e-10 2.500553114e-09)
(0.01100000436 -2.22818933e-10 8.134043774e-10)
(0.01100000609 1.350908873e-09 1.788294291e-09)
(0.0110000056 2.679625963e-09 -1.985399513e-09)
(0.01100001217 2.72988063e-09 -1.311330954e-09)
(0.0110000167 3.262819629e-09 7.088672504e-10)
(0.01100003325 5.258734535e-09 -3.748393191e-09)
(0.01100004648 8.280987209e-09 -6.258872431e-09)
(0.01100008034 1.161476568e-08 -1.309513752e-08)
(0.01100010945 8.133498428e-09 -8.388749482e-09)
(0.01100017046 2.110312256e-08 -2.099249999e-08)
(0.01099999943 -1.300133775e-09 -1.363608715e-09)
(0.01099999876 1.041375839e-09 -1.896924021e-09)
(0.01099999966 4.57126251e-10 -4.57541679e-10)
(0.01099999795 -3.256535208e-10 -9.945859999e-10)
(0.01100000149 -1.412983183e-09 -2.04578961e-09)
(0.01100000083 -7.840233414e-10 -2.456146855e-10)
(0.01100000213 -1.656633878e-09 -1.984417745e-09)
(0.01100000387 -2.7666538e-09 -2.614290493e-09)
(0.0110000121 -3.757865813e-09 -4.80861963e-09)
(0.01100001576 -3.523426735e-09 -6.454223508e-09)
(0.01100002875 -6.036242771e-09 -1.282758387e-08)
(0.01100003594 -6.6514836e-09 -1.890279335e-08)
(0.01100007919 -1.002613967e-08 -3.165877188e-08)
(0.011000097 -7.844344351e-09 -3.486116676e-08)
(0.01100000075 -1.817864128e-09 -5.025254654e-10)
(0.01099999987 -3.182863175e-10 -6.814037166e-10)
(0.01100000063 4.488662544e-10 -1.914740192e-09)
(0.0109999996 -1.745017945e-11 -1.934473075e-09)
(0.01100000141 -4.169960163e-10 -3.811555516e-09)
(0.01099999902 -1.392023338e-09 -1.030567597e-09)
(0.01100000041 -2.058153494e-09 -1.953803319e-09)
(0.01100000391 -1.890731925e-09 -2.861917353e-09)
(0.01100000869 -4.21745802e-09 -6.690188595e-09)
(0.01100001152 -1.016826867e-08 -8.713168726e-09)
(0.01100002368 -1.500329478e-08 -1.465795132e-08)
(0.01100002905 -2.35911543e-08 -2.499428782e-08)
(0.01100007286 -4.239074528e-08 -4.407514674e-08)
(0.01100007631 -4.270831934e-08 -4.418992761e-08)
(0.01100017115 -1.242392806e-07 -1.228859571e-07)
(0.01100000278 2.092467966e-10 -2.050467967e-09)
(0.01100000066 -1.395384308e-09 -1.485469248e-09)
(0.01099999925 -2.790916673e-09 -1.567903308e-09)
(0.01100000055 -1.930978197e-09 -3.002686827e-09)
(0.01099999921 -3.099914352e-09 -3.600348748e-09)
(0.01100000067 -2.846146886e-09 -1.748765662e-09)
(0.01099999895 -1.851681899e-09 -2.058718674e-09)
(0.01100000077 -4.564073063e-09 -3.111872329e-09)
(0.01100000243 -5.5831215e-09 -7.341916941e-09)
(0.01100000276 -1.139728639e-08 -1.144666191e-08)
(0.0110000123 -1.392581042e-08 -1.760033034e-08)
(0.01100000606 -2.527007318e-08 -3.576047683e-08)
(0.01100004767 -4.222188245e-08 -6.60367192e-08)
(0.01100001437 -4.233225145e-08 -8.080168126e-08)
(0.01100015792 -1.572762641e-07 -2.676396097e-07)
(0.01099999927 -2.26517321e-10 -2.809429887e-10)
(0.01099999838 -7.177770616e-10 -9.833405552e-10)
(0.01099999958 -4.467167516e-10 -1.945403519e-09)
(0.01100000073 -1.259709745e-09 -2.0917851e-09)
(0.01099999983 -7.950096545e-10 -1.552115888e-09)
(0.01100000167 -9.014430787e-10 -3.477378248e-10)
(0.01099999687 -1.559672554e-09 -1.245545297e-09)
(0.01100000061 -4.174596272e-09 -4.96578373e-09)
(0.01099999968 -4.980181603e-09 -5.666845755e-09)
(0.01100000244 -1.048229482e-08 -1.26882474e-08)
(0.01100000627 -1.829956488e-08 -1.661383639e-08)
(0.01100000193 -3.66119406e-08 -4.069851447e-08)
(0.01100004218 -6.708638942e-08 -6.533397726e-08)
(0.01099997537 -9.657647705e-08 -9.833546233e-08)
(0.01100015855 -3.226930512e-07 -4.113290175e-07)
(0.01099999869 -1.945948177e-10 -7.023836912e-10)
(0.01099999922 -1.853038559e-09 -5.811792316e-11)
(0.01099999991 -2.543263858e-09 -8.173705235e-10)
(0.01099999973 -2.161668163e-09 -8.719187218e-10)
(0.01099999689 -1.601906745e-09 -6.335183431e-10)
(0.01099999885 -1.998435156e-09 -6.081015819e-10)
(0.01099999862 -2.928982804e-09 -1.889276127e-09)
(0.01099999735 8.426137644e-11 -5.389985256e-09)
(0.01099999384 -1.168834033e-09 -5.793580355e-09)
(0.01099999121 -1.412113348e-09 -1.545716768e-08)
(0.01099998886 2.173730835e-10 -2.333097818e-08)
(0.01099995563 -4.685267842e-10 -7.287119327e-08)
(0.01099996601 -3.893737294e-10 -1.304260962e-07)
(0.01099978364 -4.295557747e-09 -2.643618158e-07)
(0.01100015025 -4.10702486e-10 -1.027527985e-06)
(0.01099999961 -1.943965919e-09 2.393505581e-10)
(0.01099999754 4.033226503e-10 3.015186973e-10)
(0.01099999941 -3.195288532e-10 -1.416611061e-09)
(0.0109999999 3.186724737e-10 -1.602261267e-09)
(0.01100000146 -1.58346956e-10 -6.352229696e-10)
(0.01099999959 4.767189439e-10 -1.901026918e-09)
(0.01099999863 1.059634723e-09 -1.835654491e-09)
(0.010999999 2.361676692e-09 -2.556262313e-09)
(0.01100000001 4.100572058e-09 -5.047045421e-09)
(0.01100000164 9.842679352e-09 -1.134698295e-08)
(0.01100000761 1.68675048e-08 -1.726062585e-08)
(0.01100000207 3.430950827e-08 -4.142198749e-08)
(0.01100004102 6.46698883e-08 -6.593272597e-08)
(0.01099997579 9.673766112e-08 -9.763866271e-08)
(0.01100015913 3.198653968e-07 -4.128413531e-07)
(0.01099999943 -1.873490345e-09 -1.910674187e-10)
(0.0109999999 -2.198849912e-09 -6.250286183e-10)
(0.01099999943 -1.540435831e-09 2.416798431e-11)
(0.01100000017 -1.745808753e-11 -9.646736085e-10)
(0.01099999997 -1.783492641e-09 -9.616872767e-10)
(0.01100000051 -1.024239483e-09 -7.635987575e-10)
(0.01100000254 4.828801076e-10 -2.638731645e-09)
(0.01099999997 4.756492803e-09 -1.916961313e-09)
(0.01100000553 6.216548525e-09 -4.904314459e-09)
(0.01100000343 1.101623291e-08 -1.078369599e-08)
(0.01100001129 1.397893629e-08 -1.769963017e-08)
(0.01100000568 2.353997792e-08 -3.542568001e-08)
(0.01100004796 4.221504901e-08 -6.646812877e-08)
(0.01100001388 4.234421552e-08 -7.965123432e-08)
(0.01100015931 1.589718616e-07 -2.686368359e-07)
(0.01100000076 -1.055961629e-09 5.873575094e-10)
(0.01100000056 -3.278058657e-10 1.719694627e-10)
(0.01100000023 1.107851764e-09 3.5123099e-10)
(0.01099999999 -4.079551748e-10 -5.608474282e-10)
(0.0109999999 8.638792244e-10 -5.090720794e-10)
(0.01100000124 1.419730367e-09 -9.633179619e-10)
(0.0110000025 2.795848388e-09 -1.264390148e-09)
(0.01100000465 2.234952153e-09 -2.241950471e-09)
(0.01100000657 6.096239892e-09 -6.584169033e-09)
(0.01100001328 1.011195216e-08 -9.599070767e-09)
(0.01100002403 1.431746682e-08 -1.216573136e-08)
(0.01100002904 2.43623915e-08 -2.221209211e-08)
(0.01100007213 4.364223087e-08 -4.286053813e-08)
(0.01100007776 4.510181178e-08 -4.491322437e-08)
(0.01100016853 1.248059819e-07 -1.239079094e-07)
(0.01099999882 3.725008146e-10 3.080455897e-10)
(0.01100000137 -9.090548586e-10 -6.992047003e-11)
(0.01099999934 -3.713224273e-11 7.441122982e-10)
(0.01100000081 -3.665662085e-10 3.046166269e-11)
(0.01100000094 9.465427968e-11 9.714146698e-10)
(0.01100000249 6.346072229e-10 2.690015557e-10)
(0.01100000423 8.787744497e-10 -1.722539122e-09)
(0.01100000532 5.790240913e-10 -3.888684693e-09)
(0.01100000952 2.811291553e-09 -3.794656459e-09)
(0.01100001548 2.657370512e-09 -5.113167534e-09)
(0.01100002915 4.805698394e-09 -1.210434151e-08)
(0.01100003984 5.873704118e-09 -1.996496274e-08)
(0.01100008091 1.347269314e-08 -3.443702309e-08)
(0.01100009589 1.042436858e-08 -3.548976158e-08)
(0.0110001678 3.263047798e-08 -7.936344235e-08)
(0.01100000042 1.198156762e-11 -1.123061602e-09)
(0.01100000146 3.364295305e-11 -2.090088535e-09)
(0.01099999739 -6.238759269e-10 -2.473329047e-09)
(0.01099999924 -3.486235349e-09 -2.075535436e-09)
(0.01100000097 -1.524444839e-09 -1.913233599e-09)
(0.01100000115 7.2433517e-10 -3.290162184e-09)
(0.01100000114 -3.063125214e-09 -2.754472126e-09)
(0.01100000286 -1.201121611e-09 -1.857670463e-09)
(0.01100000715 -1.979767865e-09 -4.650152594e-09)
(0.0110000085 -3.846534048e-09 -1.10651184e-08)
(0.01100002183 -3.899214376e-09 -1.518597035e-08)
(0.0110000203 -8.446524727e-09 -2.086406533e-08)
(0.01100006266 -1.967148922e-08 -3.58643871e-08)
(0.01100005916 -1.603967516e-08 -3.428777604e-08)
(0.01099999904 -2.036123749e-09 -7.950321386e-10)
(0.01099999936 -1.818412273e-09 -8.331744422e-10)
(0.01099999891 -1.096348681e-10 -5.980635599e-10)
(0.01099999958 -2.129378086e-09 -2.119341296e-09)
(0.01100000034 -1.611640249e-09 -2.668640447e-09)
(0.01100000061 -2.380913245e-09 -4.780598062e-09)
(0.01099999906 -1.311721408e-09 -3.835641377e-09)
(0.01099999915 -3.192728279e-09 -4.276736786e-09)
(0.01100000421 -5.245359963e-09 -4.564208169e-09)
(0.01100000398 -1.230218129e-08 -1.07012885e-08)
(0.01100001156 -1.894366999e-08 -1.529472147e-08)
(0.01100000622 -3.565683962e-08 -2.484018741e-08)
(0.0110000507 -6.487891415e-08 -4.136610332e-08)
(0.0110000139 -7.889033743e-08 -4.13526765e-08)
(0.01100000125 1.852512841e-10 4.190711539e-10)
(0.0110000014 -2.03908832e-09 3.116879221e-10)
(0.01099999886 -1.5465e-09 -1.855905074e-09)
(0.01100000103 -5.985059902e-10 -2.206598342e-11)
(0.01100000021 -1.130380438e-09 -1.929067478e-09)
(0.01099999925 -1.210624883e-09 -4.725561071e-09)
(0.01099999687 -3.733865754e-09 -3.883052614e-09)
(0.01099999557 -5.800049766e-09 -7.40317589e-09)
(0.01099999585 -6.685548522e-09 -8.671125595e-09)
(0.01099999251 -1.435893999e-08 -1.633530206e-08)
(0.01099999188 -1.667536082e-08 -1.816302191e-08)
(0.01099997131 -4.031641462e-08 -4.161479295e-08)
(0.01099999513 -6.096775494e-08 -6.144867544e-08)
(0.01099987262 -9.10481195e-08 -8.918701804e-08)
(0.01100011521 -3.885952917e-07 -3.942011388e-07)
(0.01099999915 1.083269426e-09 -2.337487184e-09)
(0.01099999993 1.118334062e-09 -2.060824791e-09)
(0.010999999 -1.150044195e-09 -1.817163264e-09)
(0.011 -6.749319616e-10 -1.143246416e-09)
(0.01100000052 -4.131810586e-10 -2.403510975e-09)
(0.0109999973 1.590170192e-10 -4.678648292e-09)
(0.01099999666 -1.584856523e-09 -5.903886991e-09)
(0.01099999568 -4.126199194e-09 -5.96149852e-09)
(0.01099999344 -5.146442343e-09 -6.895592267e-09)
(0.01099999026 -1.444552868e-08 -1.504712707e-08)
(0.01099998225 -2.166778543e-08 -1.10343553e-08)
(0.01099996701 -6.482215887e-08 -4.734790413e-08)
(0.01099995264 -1.135140791e-07 -1.91574415e-08)
(0.01099978412 -2.456804551e-07 -9.175325543e-08)
(0.01099999372 -9.311598745e-07 -5.627281349e-07)
(0.01099999974 -6.199833745e-10 -5.149701213e-10)
(0.01099999869 -1.143033225e-09 -1.28569812e-09)
(0.01099999897 -1.908594158e-09 -1.329826814e-09)
(0.01099999857 -1.528307603e-09 -3.056759501e-09)
(0.01100000099 3.997527272e-10 -3.712329699e-09)
(0.01099999745 -2.090789653e-09 -3.035016593e-09)
(0.01099999277 -1.740956513e-09 -2.328286269e-09)
(0.01099999157 1.031672151e-09 -6.335562749e-09)
(0.01099998241 -2.047602243e-10 -8.25286646e-09)
(0.01099997823 -4.882363037e-10 -2.415415386e-08)
(0.01099993682 -1.760423692e-09 -2.153741302e-08)
(0.01099988033 -1.138840042e-09 -1.055001365e-07)
(0.0109997394 -1.851881415e-09 -9.844875469e-08)
(0.01099924213 -2.069456387e-09 -4.800550207e-07)
(0.0109997058 -1.524528923e-09 -1.999124543e-06)
(0.01099999942 -5.361533307e-10 -5.624394416e-10)
(0.01099999971 -6.366235759e-10 -8.322222732e-11)
(0.01099999764 1.850370555e-10 1.920309249e-09)
(0.01100000134 -7.57625921e-10 -3.016368654e-10)
(0.011 -8.573322489e-10 -5.835788429e-10)
(0.01099999829 9.866468891e-10 -1.375001415e-09)
(0.01099999625 2.411325205e-09 -1.546380114e-09)
(0.01099999847 2.832487834e-09 -5.182634706e-09)
(0.01099999052 4.831488691e-09 -4.962907645e-09)
(0.01099998969 1.395710584e-08 -1.411435835e-08)
(0.01099998147 1.988536206e-08 -9.358630086e-09)
(0.01099996622 6.366819283e-08 -4.616767586e-08)
(0.01099995475 1.126496969e-07 -1.827710033e-08)
(0.01099978298 2.446972207e-07 -9.251502216e-08)
(0.01099999664 9.308163225e-07 -5.626711628e-07)
(0.01099999906 -2.322722307e-10 1.077691948e-09)
(0.01099999997 -8.738415835e-10 1.765007905e-09)
(0.01099999942 2.505095048e-10 5.350346319e-10)
(0.0110000014 2.320471829e-09 -4.927144346e-10)
(0.01100000014 9.838179543e-10 -5.021452012e-10)
(0.01099999964 9.047710821e-10 -1.849414358e-09)
(0.01100000035 2.246286706e-09 -1.903201679e-09)
(0.01099999673 7.006174494e-09 -5.254792173e-09)
(0.01099999665 6.939651558e-09 -6.015366639e-09)
(0.01099999104 1.263892087e-08 -1.391325805e-08)
(0.01099999164 1.834206662e-08 -1.748214263e-08)
(0.01099996819 4.029638311e-08 -4.03033837e-08)
(0.01099999583 6.026332043e-08 -5.968167041e-08)
(0.01099987294 8.946781533e-08 -8.94170145e-08)
(0.01100011684 3.919607691e-07 -3.932639772e-07)
(0.01099999875 -8.754074761e-10 1.882976341e-09)
(0.01099999923 2.87368569e-10 1.36045037e-09)
(0.01100000093 1.668442836e-10 1.338436953e-09)
(0.01100000058 4.5810869e-10 4.070176981e-10)
(0.01100000035 1.70001441e-09 3.873200266e-10)
(0.01099999912 1.665979315e-09 -2.681657632e-10)
(0.01100000175 2.986502833e-09 -1.614800988e-09)
(0.01100000008 3.148281616e-09 -4.025549308e-09)
(0.01100000157 4.838780432e-09 -5.29305755e-09)
(0.01100000471 1.11151709e-08 -9.690000419e-09)
(0.01100001226 1.674632766e-08 -1.521149287e-08)
(0.01100000186 3.401583861e-08 -2.438021567e-08)
(0.01100004775 6.346450993e-08 -4.295844175e-08)
(0.01100001295 7.906145977e-08 -4.301375774e-08)
(0.01100015781 2.701133643e-07 -1.593803635e-07)
(0.01100000032 -6.370934412e-10 2.072809282e-09)
(0.01099999987 1.363652399e-09 3.099262184e-09)
(0.01099999999 8.466922145e-10 7.624440453e-10)
(0.01100000046 2.805969867e-10 1.783590378e-09)
(0.01099999849 9.798167736e-10 4.548524129e-10)
(0.01099999944 1.188085198e-09 -7.441945521e-10)
(0.01100000362 3.617565868e-10 -2.654943098e-09)
(0.01100000296 -1.027696774e-09 -3.524931199e-09)
(0.01100000628 2.655452769e-09 -7.019865026e-09)
(0.01100000761 5.075498795e-09 -1.015906788e-08)
(0.01100001929 5.960724544e-09 -1.422166214e-08)
(0.01100001848 8.559593358e-09 -2.142854816e-08)
(0.01100006415 1.81678594e-08 -3.862018549e-08)
(0.01100006283 1.827596581e-08 -3.751509085e-08)
(0.01100016053 6.536634031e-08 -9.921408803e-08)
(0.01099999864 1.833813178e-10 -9.566264455e-10)
(0.01100000021 -2.307078872e-09 -4.366915751e-10)
(0.01099999977 1.159805925e-09 -2.89266226e-09)
(0.0109999996 4.735875498e-10 -8.376862848e-10)
(0.01099999898 -1.020701924e-09 -1.067879568e-09)
(0.0109999972 -1.323601409e-09 -2.838293585e-09)
(0.01100000031 -2.553222914e-09 -2.012551968e-09)
(0.01100000091 -2.794957074e-09 -3.231393239e-09)
(0.01100000298 -3.135919885e-09 -4.268795756e-09)
(0.01100000565 -4.744635097e-09 -8.657541015e-09)
(0.01100001407 -7.582560596e-09 -1.306679182e-08)
(0.01100001575 -1.147023362e-08 -2.446586563e-08)
(0.01100005859 -1.414902461e-08 -4.742513066e-08)
(0.01100003688 -1.551265316e-08 -5.805818038e-08)
(0.01099999891 -3.69345318e-10 -1.5984585e-09)
(0.01100000048 -2.271607283e-10 -1.310176304e-09)
(0.01099999824 -8.646186034e-12 -1.889279393e-09)
(0.01099999905 -8.949506995e-10 -1.583646324e-09)
(0.01099999816 -2.185764547e-09 -7.637180614e-10)
(0.01099999958 -2.129429273e-09 -1.61909478e-09)
(0.01100000018 -1.780967277e-09 -3.124938338e-09)
(0.01099999809 -6.924890507e-09 -3.189711444e-09)
(0.0109999976 -8.227848762e-09 -4.995968953e-09)
(0.01100000266 -1.511405071e-08 -8.858558495e-09)
(0.01100000763 -1.839708642e-08 -1.524993811e-08)
(0.01100000271 -4.305843462e-08 -3.539961629e-08)
(0.01100004298 -6.701513279e-08 -6.742673361e-08)
(0.0109999758 -9.667593149e-08 -9.69963438e-08)
(0.01099999953 -1.805125047e-09 -8.073096961e-10)
(0.01099999966 -2.096016622e-09 -7.493625739e-10)
(0.01099999947 -4.148430316e-09 -1.147336172e-09)
(0.01099999907 -8.559443209e-10 -1.272024903e-09)
(0.01099999579 -2.160421618e-09 -1.14503871e-09)
(0.01099999975 -1.037272396e-09 -1.189535115e-09)
(0.01099999828 -4.237852067e-09 -3.052003769e-09)
(0.01099999548 -6.943799115e-09 -3.991972842e-09)
(0.0109999922 -6.940710381e-09 -6.361583768e-09)
(0.01099999146 -1.518125158e-08 -1.511879853e-08)
(0.01099998214 -1.002054505e-08 -2.23419685e-08)
(0.01099997002 -4.604268083e-08 -6.724367243e-08)
(0.01099995474 -1.930896224e-08 -1.152660136e-07)
(0.01099978301 -9.343986965e-08 -2.476351842e-07)
(0.01099999946 3.902660433e-10 -1.507021504e-09)
(0.01099999812 1.874286406e-10 -3.778854856e-10)
(0.01099999989 1.551676554e-10 5.464806043e-10)
(0.01099999815 -1.34096484e-09 -1.453463993e-09)
(0.01099999806 -2.630719047e-10 -3.464868096e-10)
(0.01099999822 -1.560770059e-09 -1.371494165e-09)
(0.0109999959 -1.758265688e-09 -1.381397897e-09)
(0.01099999791 -5.139260377e-09 -5.08147963e-09)
(0.01099998888 -5.896954584e-09 -6.244047493e-09)
(0.01099999587 -2.018310745e-08 -2.104542002e-08)
(0.010999969 -1.987804024e-08 -2.10459137e-08)
(0.01100001653 -9.911886373e-08 -1.004182167e-07)
(0.0109998711 -1.034489972e-07 -1.043102959e-07)
(0.01099988756 -4.87062483e-07 -4.887403822e-07)
(0.01099906476 -1.928421617e-06 -1.93216932e-06)
(0.0110000017 -8.174504914e-10 -1.191816574e-09)
(0.01099999605 -8.664677501e-10 3.800949565e-10)
(0.0109999987 -9.695294255e-10 -9.051176808e-10)
(0.01099999962 -1.390255172e-09 2.075012491e-11)
(0.01099999845 -9.464630109e-11 -4.088227425e-10)
(0.0109999952 1.817149117e-10 -2.121821411e-09)
(0.01099999155 5.765032039e-10 -3.21133113e-09)
(0.01099999311 9.355964837e-10 -5.501205228e-09)
(0.01099997469 4.780515716e-10 -8.788823174e-09)
(0.01099997754 1.63148895e-10 -3.116196975e-08)
(0.01099989046 -1.111935856e-09 -3.857621967e-08)
(0.01099991442 3.458034307e-11 -2.220954359e-07)
(0.01099932943 -4.523689184e-10 -3.09118944e-07)
(0.01099900915 -1.594940788e-09 -2.11682353e-06)
(0.0109958498 -2.868467076e-09 -9.316756215e-06)
(0.01099999996 3.326341413e-10 -5.300152982e-11)
(0.01100000034 9.272022749e-10 2.166040853e-10)
(0.01100000024 1.411427463e-09 2.493693936e-10)
(0.01099999917 9.560690241e-10 1.158332198e-09)
(0.01099999893 1.361502731e-09 -1.022366711e-09)
(0.01099999755 1.343704064e-09 -1.392790763e-09)
(0.0109999954 1.760495789e-09 -1.834972518e-09)
(0.01099999763 4.485509935e-09 -5.332180037e-09)
(0.01099998739 6.659465212e-09 -8.098367171e-09)
(0.01099999703 1.94822568e-08 -2.10525778e-08)
(0.01099996852 1.934507124e-08 -1.977648425e-08)
(0.01100001388 9.787593105e-08 -1.008219143e-07)
(0.01099986875 1.020273553e-07 -1.046194243e-07)
(0.01099988536 4.841885244e-07 -4.877349974e-07)
(0.01099906396 1.928660153e-06 -1.930635437e-06)
(0.01099999893 5.360872786e-10 3.317402872e-10)
(0.01099999943 7.927059984e-10 1.092472691e-10)
(0.01099999964 1.004824846e-09 1.231333762e-09)
(0.01099999902 2.584029183e-09 1.106525095e-09)
(0.01099999805 2.101672962e-09 5.631392218e-11)
(0.01099999744 1.614967769e-09 -7.744206223e-10)
(0.01099999673 2.13355305e-09 -1.611471338e-09)
(0.01099999712 5.536533414e-09 -5.445993514e-09)
(0.01099999037 5.226060103e-09 -4.477330822e-09)
(0.01099999003 1.555915883e-08 -1.633979047e-08)
(0.01099998122 1.235924923e-08 -2.210741323e-08)
(0.01099996767 4.487784664e-08 -6.550384001e-08)
(0.01099995304 1.644455645e-08 -1.138307638e-07)
(0.01099978436 9.130868764e-08 -2.462121248e-07)
(0.01099999513 5.629047475e-07 -9.327231567e-07)
(0.010999999 -2.504785565e-10 1.176247411e-09)
(0.01099999986 -6.197718655e-10 2.093647274e-09)
(0.01100000017 7.382397397e-10 3.524516081e-10)
(0.01100000019 4.006741959e-10 2.173188937e-09)
(0.0109999985 -7.182198474e-11 -8.190570712e-10)
(0.01099999719 1.626186621e-09 -1.34732999e-09)
(0.01099999928 2.861315105e-09 -1.88368858e-09)
(0.01100000048 3.391749534e-09 -4.587131315e-09)
(0.01100000125 5.752174521e-09 -5.478512424e-09)
(0.01100000058 1.331428289e-08 -1.019782296e-08)
(0.01100000442 1.485834516e-08 -1.731691139e-08)
(0.01100000036 4.056597312e-08 -3.674255535e-08)
(0.01100004181 6.435209778e-08 -6.703052143e-08)
(0.01099997495 9.730185799e-08 -9.807800287e-08)
(0.01100015889 4.119528035e-07 -3.215766121e-07)
(0.0110000013 -8.198863622e-10 1.243225965e-10)
(0.01099999969 3.521808366e-11 2.082901847e-10)
(0.01100000011 -1.172535834e-09 1.99413507e-10)
(0.01100000009 6.898426513e-10 2.011908783e-09)
(0.01100000002 2.442748671e-10 -2.151608178e-10)
(0.01099999958 -1.066542175e-09 -7.587682692e-10)
(0.01100000045 1.603092449e-09 -1.081842884e-09)
(0.01100000091 2.415648736e-09 -2.358380136e-09)
(0.0110000029 1.835494525e-09 -4.524574231e-09)
(0.01100000682 3.870274685e-09 -9.031309548e-09)
(0.01100001207 3.361473724e-09 -1.580323476e-08)
(0.01100001296 1.04916262e-08 -2.52191429e-08)
(0.01100005693 1.741569772e-08 -4.83700254e-08)
(0.01100003934 1.685691408e-08 -6.030012904e-08)
(0.01100016675 8.790887219e-08 -1.598368898e-07)
(0.01100000007 7.124292121e-10 -1.608135756e-09)
(0.01099999855 -8.908257476e-10 -1.147057379e-09)
(0.01099999881 -2.90863476e-10 1.002539896e-09)
(0.01100000156 4.684684094e-10 -2.177587449e-09)
(0.01099999999 6.825436109e-10 -2.198381531e-09)
(0.01099999905 2.222618358e-09 -1.080521943e-10)
(0.01100000011 -1.150122617e-09 -1.039050506e-09)
(0.01100000003 -7.381587326e-10 -2.129909186e-09)
(0.01099999947 -1.529994969e-09 -2.095573414e-09)
(0.01100000056 -6.027335164e-09 -4.136599039e-11)
(0.01100000299 -8.080086074e-09 -1.428936117e-09)
(0.01099998225 -1.851703959e-08 -9.299468507e-10)
(0.01100002305 -3.53494128e-08 -3.314251335e-09)
(0.01099994742 -5.313743577e-08 -3.051998153e-09)
(0.01099999971 -1.125959753e-11 -2.19840531e-09)
(0.01100000061 -1.096320047e-10 -9.072650585e-10)
(0.01100000174 -2.074144636e-10 -2.336367666e-09)
(0.01100000026 -7.475759059e-10 -4.275078904e-10)
(0.01099999953 -2.148933637e-09 -1.044641743e-10)
(0.01099999747 -9.891203464e-10 1.761878061e-11)
(0.01099999673 -2.876067701e-09 3.12389003e-10)
(0.01099999709 -5.433087717e-09 -1.109145991e-09)
(0.01099999519 -1.020207492e-08 -4.704339788e-10)
(0.01099998838 -2.115038963e-08 3.6918305e-10)
(0.01099998408 -2.758979943e-08 1.372636467e-09)
(0.01099995426 -7.556238316e-08 -6.473955119e-10)
(0.01099996752 -1.300691658e-07 -1.769689847e-09)
(0.01099978224 -2.639265064e-07 -2.818756992e-09)
(0.01099999978 -2.004069107e-09 -2.495679375e-09)
(0.01100000211 -1.673305763e-10 -1.121835063e-09)
(0.01100000004 -1.869547962e-11 -1.155598881e-09)
(0.01099999821 -7.807355233e-10 -6.812232112e-10)
(0.01099999719 -1.860488018e-09 1.165853112e-10)
(0.0109999978 -1.799476117e-09 7.889664396e-10)
(0.01099999293 -2.816230173e-09 3.323198368e-10)
(0.0109999931 -7.767419746e-09 -2.87706329e-10)
(0.01099998137 -9.08290556e-09 3.637336862e-10)
(0.01099997726 -2.617897797e-08 4.655421069e-10)
(0.01099993652 -2.215026984e-08 -7.161173126e-10)
(0.01099988224 -1.060566676e-07 -4.709319603e-10)
(0.01099973788 -9.845988525e-08 -9.123383179e-10)
(0.01099924169 -4.818610202e-07 -7.913710744e-10)
(0.01099999993 7.03238966e-10 -3.886192753e-12)
(0.01100000032 4.580309393e-10 -1.531577093e-10)
(0.01099999956 -1.858749143e-10 2.094083422e-10)
(0.01099999745 -1.466424686e-09 -6.224526589e-10)
(0.01099999628 -2.154665551e-10 -4.663389617e-10)
(0.01099999771 -1.39372266e-09 5.622211014e-10)
(0.01099999265 -1.544905294e-09 1.090645187e-09)
(0.01099999255 -5.645922381e-09 2.408385304e-10)
(0.01099997382 -7.402930887e-09 -2.34044964e-10)
(0.01099997679 -3.052901582e-08 -1.483313127e-09)
(0.01099989121 -3.734648743e-08 -2.062244159e-09)
(0.01099991097 -2.200819841e-07 -2.629464008e-09)
(0.01099932938 -3.092055588e-07 -2.827496089e-09)
(0.01099900569 -2.11668129e-06 -4.464808698e-09)
(0.01100000067 2.042816854e-09 3.424591184e-10)
(0.01099999852 1.579794864e-09 8.903459164e-10)
(0.01099999948 6.326197986e-10 1.172435818e-09)