/*--------------------------------*- C++ -*----------------------------------*\
| =========                 |                                                 |
| \\      /  F ield         | OpenFOAM: The Open Source CFD Toolbox           |
|  \\    /   O peration     | Version:  4.x                                   |
|   \\  /    A nd           | Web:      www.OpenFOAM.org                      |
|    \\/     M anipulation  |                                                 |
\*---------------------------------------------------------------------------*/
FoamFile
{
    version     2.0;
    format      ascii;
    class       volScalarField;
    location    "6000";
    object      X_H2O;
}
// * * * * * * * * * * * * * * * * * * * * * * * * * * * * * * * * * * * * * //

dimensions      [0 0 0 0 0 0 0];

internalField   nonuniform List<scalar> 
1175
(
1.547033604e-06
1.547033685e-06
1.547034187e-06
1.547036499e-06
1.547044543e-06
1.547072511e-06
1.547167162e-06
1.547476817e-06
1.548451283e-06
1.551377756e-06
1.559684457e-06
1.581693586e-06
1.635334295e-06
1.753615759e-06
1.986004394e-06
1.54703378e-06
1.547033923e-06
1.547034401e-06
1.54703723e-06
1.547047317e-06
1.547083848e-06
1.547211309e-06
1.547642963e-06
1.549054181e-06
1.553466889e-06
1.566518293e-06
1.602495198e-06
1.693206516e-06
1.89760824e-06
2.299201585e-06
1.547033829e-06
1.547034056e-06
1.547034851e-06
1.547038464e-06
1.547052387e-06
1.547103385e-06
1.547288229e-06
1.547941279e-06
1.550170088e-06
1.557465175e-06
1.580082199e-06
1.645396087e-06
1.817081086e-06
2.215275837e-06
2.999529678e-06
1.547033983e-06
1.547034297e-06
1.547035304e-06
1.547039684e-06
1.547057095e-06
1.547123054e-06
1.547368817e-06
1.548263234e-06
1.551424192e-06
1.562174134e-06
1.59692235e-06
1.701779014e-06
1.989514728e-06
2.679979055e-06
4.049656315e-06
1.54703405e-06
1.547034385e-06
1.547035508e-06
1.547040292e-06
1.547059191e-06
1.547131703e-06
1.547405376e-06
1.548415278e-06
1.552043527e-06
1.564632904e-06
1.606321599e-06
1.735785216e-06
2.1027434e-06
3.011172843e-06
4.836045599e-06
1.547034082e-06
1.547034208e-06
1.547035386e-06
1.547039966e-06
1.547057311e-06
1.547123119e-06
1.54736882e-06
1.548263283e-06
1.551424021e-06
1.562174032e-06
1.596922153e-06
1.701777708e-06
1.989509293e-06
2.679962546e-06
4.049617034e-06
1.547034091e-06
1.547034362e-06
1.547035123e-06
1.547038692e-06
1.54705232e-06
1.54710352e-06
1.547288457e-06
1.547941498e-06
1.550170138e-06
1.557465164e-06
1.580082094e-06
1.645394801e-06
1.817075503e-06
2.215257517e-06
2.999484795e-06
1.547033937e-06
1.547034054e-06
1.547034885e-06
1.54703757e-06
1.547047429e-06
1.547084116e-06
1.547211502e-06
1.547642993e-06
1.549054316e-06
1.553467218e-06
1.566518096e-06
1.602493749e-06
1.693200337e-06
1.897589331e-06
2.29915739e-06
1.547033704e-06
1.547033903e-06
1.547034473e-06
1.547036862e-06
1.547044891e-06
1.54707273e-06
1.547167288e-06
1.547476879e-06
1.548451409e-06
1.551378046e-06
1.55968424e-06
1.581692298e-06
1.635328632e-06
1.753597824e-06
1.985960067e-06
1.547033783e-06
1.547033993e-06
1.547034581e-06
1.547037503e-06
1.547047411e-06
1.547083804e-06
1.547211183e-06
1.547642961e-06
1.549054074e-06
1.553467099e-06
1.566518979e-06
1.602497345e-06
1.693214492e-06
1.8976399e-06
1.547033872e-06
1.547034027e-06
1.547034759e-06
1.547038369e-06
1.547051436e-06
1.54710071e-06
1.547279283e-06
1.547912545e-06
1.550086559e-06
1.557252672e-06
1.579652799e-06
1.644911993e-06
1.817907013e-06
2.22165316e-06
3.017523392e-06
1.547034031e-06
1.547034286e-06
1.547035276e-06
1.547039899e-06
1.547058476e-06
1.547130134e-06
1.547402529e-06
1.548417292e-06
1.552096685e-06
1.564965962e-06
1.607808299e-06
1.7409633e-06
2.116400256e-06
3.035680333e-06
4.866609997e-06
1.547034299e-06
1.547034477e-06
1.547035769e-06
1.547041569e-06
1.547065691e-06
1.547161031e-06
1.547536608e-06
1.548992911e-06
1.554520707e-06
1.574887024e-06
1.646790872e-06
1.885263587e-06
2.605101343e-06
4.479764009e-06
8.306205821e-06
1.547034376e-06
1.547034623e-06
1.547036045e-06
1.547042443e-06
1.547068885e-06
1.547175205e-06
1.547600566e-06
1.549282156e-06
1.5558205e-06
1.580655811e-06
1.671797095e-06
1.989220459e-06
3.006646802e-06
5.839511508e-06
1.188901496e-05
1.547034213e-06
1.547034543e-06
1.54703591e-06
1.547041782e-06
1.547065686e-06
1.547161074e-06
1.547536745e-06
1.548992918e-06
1.554520857e-06
1.574887306e-06
1.646790587e-06
1.885261611e-06
2.605089823e-06
4.479716732e-06
8.306069707e-06
1.547034215e-06
1.547034325e-06
1.547035542e-06
1.547040102e-06
1.547058546e-06
1.547130189e-06
1.547402512e-06
1.548417394e-06
1.552096695e-06
1.564965795e-06
1.60780785e-06
1.740959744e-06
2.116383012e-06
3.035615869e-06
4.866438792e-06
1.547034028e-06
1.547034389e-06
1.547035041e-06
1.547038523e-06
1.547051623e-06
1.547100934e-06
1.547279527e-06
1.547912652e-06
1.550086717e-06
1.557252592e-06
1.579651974e-06
1.644908128e-06
1.817890586e-06
2.221595404e-06
3.017362652e-06
1.547034032e-06
1.54703411e-06
1.547034805e-06
1.54703746e-06
1.547047469e-06
1.54708402e-06
1.547211409e-06
1.547643067e-06
1.549054306e-06
1.553466993e-06
1.566518186e-06
1.602494294e-06
1.693201705e-06
1.897591525e-06
2.29915974e-06
1.547033968e-06
1.547034133e-06
1.547035021e-06
1.547038534e-06
1.547052269e-06
1.547103411e-06
1.547288407e-06
1.547941399e-06
1.550170067e-06
1.557465614e-06
1.580084045e-06
1.645402988e-06
1.817105974e-06
2.215358377e-06
1.5470341e-06
1.54703427e-06
1.547035391e-06
1.547040122e-06
1.547058614e-06
1.547130276e-06
1.547402668e-06
1.548417275e-06
1.552096728e-06
1.564966227e-06
1.607809982e-06
1.740970921e-06
2.116431412e-06
3.035814744e-06
1.547034277e-06
1.547034411e-06
1.547035983e-06
1.547042394e-06
1.547069375e-06
1.547178839e-06
1.547616789e-06
1.549349386e-06
1.556065336e-06
1.581349371e-06
1.672550766e-06
1.981278252e-06
2.930294247e-06
5.436010524e-06
1.057208408e-05
1.547034374e-06
1.54703478e-06
1.547036704e-06
1.54704502e-06
1.547080856e-06
1.547231447e-06
1.547861724e-06
1.550480892e-06
1.561240065e-06
1.604573882e-06
1.77364029e-06
2.400021686e-06
4.529944721e-06
1.076403199e-05
2.439833468e-05
1.547034361e-06
1.547034766e-06
1.54703683e-06
1.547046052e-06
1.547085987e-06
1.547256561e-06
1.547984772e-06
1.551092256e-06
1.564292515e-06
1.619859161e-06
1.849673305e-06
2.769434174e-06
6.229622804e-06
1.772757758e-05
4.625799777e-05
1.547034312e-06
1.547034771e-06
1.547036757e-06
1.54704516e-06
1.547080904e-06
1.547231441e-06
1.547861675e-06
1.550481035e-06
1.561239978e-06
1.604573493e-06
1.773638258e-06
2.400009218e-06
4.529878626e-06
1.076374175e-05
2.439741465e-05
1.547034212e-06
1.547034499e-06
1.547036066e-06
1.54704256e-06
1.5470694e-06
1.547178764e-06
1.5476167e-06
1.549349372e-06
1.556065179e-06
1.581349183e-06
1.672548571e-06
1.981264466e-06
2.930224594e-06
5.435715894e-06
1.057113912e-05
1.54703412e-06
1.547034429e-06
1.547035411e-06
1.547040156e-06
1.547058615e-06
1.547130355e-06
1.547402774e-06
1.548417447e-06
1.552096721e-06
1.564966168e-06
1.607808549e-06
1.740961596e-06
2.11638688e-06
3.035621813e-06
4.866439804e-06
1.547034081e-06
1.547034217e-06
1.547035116e-06
1.547038786e-06
1.547052504e-06
1.547103587e-06
1.547288388e-06
1.547941463e-06
1.550170205e-06
1.557465393e-06
1.580082824e-06
1.645396647e-06
1.817079807e-06
2.215264708e-06
2.999491941e-06
1.547034153e-06
1.547034261e-06
1.547035414e-06
1.547039955e-06
1.547057195e-06
1.547123244e-06
1.547368893e-06
1.548263327e-06
1.5514243e-06
1.56217496e-06
1.596926017e-06
1.701793136e-06
1.989564517e-06
2.680137589e-06
1.547034321e-06
1.54703454e-06
1.547035792e-06
1.547041705e-06
1.547065617e-06
1.547161182e-06
1.547536825e-06
1.548993199e-06
1.554521301e-06
1.574888611e-06
1.646796918e-06
1.88528945e-06
2.605204363e-06
4.480149482e-06
1.547034422e-06
1.54703464e-06
1.547036575e-06
1.547045136e-06
1.547080932e-06
1.54723132e-06
1.547861508e-06
1.550481106e-06
1.561240235e-06
1.604575298e-06
1.773648297e-06
2.400060553e-06
4.530133022e-06
1.076495509e-05
1.547034727e-06
1.547035148e-06
1.547037609e-06
1.547048632e-06
1.547097189e-06
1.547310428e-06
1.548250026e-06
1.5523955e-06
1.570684468e-06
1.65093487e-06
1.997960368e-06
3.452451053e-06
9.178574236e-06
2.899721034e-05
7.951360025e-05
1.547034685e-06
1.547035119e-06
1.547037822e-06
1.547050171e-06
1.547104824e-06
1.547349916e-06
1.548456302e-06
1.553508271e-06
1.576840531e-06
1.685813534e-06
2.19924077e-06
4.621762002e-06
1.585881569e-05
6.468833134e-05
0.0002337076119
1.547034518e-06
1.547034965e-06
1.547037398e-06
1.547048525e-06
1.547097091e-06
1.547310585e-06
1.548249943e-06
1.552395544e-06
1.570684386e-06
1.650934132e-06
1.997955014e-06
3.452411976e-06
9.178323361e-06
2.899577081e-05
7.950720435e-05
1.547034427e-06
1.547034845e-06
1.547036818e-06
1.547045325e-06
1.547080971e-06
1.547231382e-06
1.547861698e-06
1.550481075e-06
1.561240332e-06
1.60457463e-06
1.773642608e-06
2.400024058e-06
4.529923202e-06
1.076383756e-05
2.439749249e-05
1.547034086e-06
1.547034459e-06
1.547035748e-06
1.547041596e-06
1.547065659e-06
1.547161272e-06
1.547536887e-06
1.548993102e-06
1.554521054e-06
1.5748881e-06
1.646793462e-06
1.885270598e-06
2.605112285e-06
4.479758726e-06
8.306100013e-06
1.547034118e-06
1.547034346e-06
1.54703542e-06
1.547039705e-06
1.547056958e-06
1.547123221e-06
1.547368999e-06
1.548263479e-06
1.551424373e-06
1.562174722e-06
1.59692411e-06
1.701783118e-06
1.989522157e-06
2.679985145e-06
4.049639162e-06
1.547034064e-06
1.547034325e-06
1.547035552e-06
1.547040223e-06
1.547059168e-06
1.547131861e-06
1.547405538e-06
1.548415357e-06
1.55204385e-06
1.564634171e-06
1.606327167e-06
1.735806648e-06
2.102817922e-06
3.011402381e-06
1.547034313e-06
1.5470345e-06
1.547035835e-06
1.547042441e-06
1.547068754e-06
1.547175241e-06
1.547600834e-06
1.549282431e-06
1.555821148e-06
1.580658717e-06
1.671807947e-06
1.989265935e-06
3.006830468e-06
5.84017849e-06
1.547034404e-06
1.547034779e-06
1.547036856e-06
1.547046166e-06
1.547086167e-06
1.547256499e-06
1.54798492e-06
1.551092561e-06
1.564293474e-06
1.619863497e-06
1.849694193e-06
2.769540099e-06
6.23014324e-06
1.772998495e-05
1.547034691e-06
1.54703515e-06
1.547037951e-06
1.547050177e-06
1.547104855e-06
1.547349814e-06
1.548456369e-06
1.553508357e-06
1.576841449e-06
1.685818063e-06
2.199267243e-06
4.621927623e-06
1.585990037e-05
6.469581328e-05
1.547034758e-06
1.547035202e-06
1.547038276e-06
1.547051872e-06
1.547113764e-06
1.547396993e-06
1.548715586e-06
1.554990591e-06
1.585708972e-06
1.741674548e-06
2.571119452e-06
7.241630421e-06
3.53654643e-05
0.0002177065811
0.001499644016
1.547034699e-06
1.54703517e-06
1.547037786e-06
1.54705017e-06
1.547104898e-06
1.547349743e-06
1.548456377e-06
1.553508521e-06
1.576841547e-06
1.685817401e-06
2.19925864e-06
4.621846941e-06
1.585919433e-05
6.468972663e-05
0.0002337089874
1.547034522e-06
1.547034873e-06
1.547037123e-06
1.547046353e-06
1.547086e-06
1.547256462e-06
1.547984966e-06
1.551092418e-06
1.564293179e-06
1.619862065e-06
1.84968464e-06
2.769479001e-06
6.229776893e-06
1.772797464e-05
4.625828381e-05
1.547034375e-06
1.547034635e-06
1.547036083e-06
1.54704235e-06
1.547068807e-06
1.547175268e-06
1.547600825e-06
1.549282344e-06
1.555820783e-06
1.580657609e-06
1.671802764e-06
1.989238417e-06
3.006697049e-06
5.839612808e-06
1.18890795e-05
1.547034301e-06
1.547034484e-06
1.547035686e-06
1.547040443e-06
1.547059304e-06
1.547131899e-06
1.547405511e-06
1.548415345e-06
1.552043703e-06
1.564633633e-06
1.606324421e-06
1.735792965e-06
2.102761894e-06
3.011204168e-06
4.836065082e-06
1.547034108e-06
1.547034382e-06
1.547035336e-06
1.547039862e-06
1.547057146e-06
1.5471233e-06
1.547369062e-06
1.548263554e-06
1.55142462e-06
1.562175452e-06
1.596927496e-06
1.701797047e-06
1.989572887e-06
2.680145382e-06
1.547034304e-06
1.547034685e-06
1.547035756e-06
1.54704186e-06
1.547065758e-06
1.54716116e-06
1.547536984e-06
1.548993434e-06
1.554521584e-06
1.574890045e-06
1.646800887e-06
1.885301278e-06
2.605233561e-06
4.480179767e-06
1.547034469e-06
1.547034765e-06
1.547036671e-06
1.547045207e-06
1.547081006e-06
1.547231491e-06
1.547861732e-06
1.550481257e-06
1.561240916e-06
1.604577983e-06
1.773658887e-06
2.400100032e-06
4.530258796e-06
1.076516636e-05
1.547034732e-06
1.54703519e-06
1.547037603e-06
1.54704874e-06
1.547097484e-06
1.547310641e-06
1.548250088e-06
1.552395704e-06
1.570685434e-06
1.650940035e-06
1.997985863e-06
3.452572603e-06
9.179140507e-06
2.899962694e-05
1.547034808e-06
1.547035146e-06
1.547037965e-06
1.547050291e-06
1.547104958e-06
1.547349841e-06
1.548456177e-06
1.553508727e-06
1.576842154e-06
1.685821225e-06
2.199282689e-06
4.622000351e-06
1.586021657e-05
6.469686731e-05
1.547034561e-06
1.547035167e-06
1.547037584e-06
1.547048598e-06
1.547097196e-06
1.547310673e-06
1.548249983e-06
1.552395691e-06
1.570685274e-06
1.650939346e-06
1.997981303e-06
3.452541638e-06
9.178965627e-06
2.899894716e-05
1.547034443e-06
1.547034842e-06
1.547036602e-06
1.547045105e-06
1.547080911e-06
1.547231658e-06
1.547861915e-06
1.550481298e-06
1.561240896e-06
1.604577279e-06
1.773653942e-06
2.400071517e-06
4.530112482e-06
1.076452249e-05
2.43996819e-05
1.547034338e-06
1.54703465e-06
1.547035924e-06
1.547041833e-06
1.547065736e-06
1.547161131e-06
1.547536788e-06
1.548993188e-06
1.554521102e-06
1.574889223e-06
1.646797242e-06
1.885284038e-06
2.605158801e-06
4.479898319e-06
8.306422274e-06
1.547034116e-06
1.547034441e-06
1.547035535e-06
1.547039935e-06
1.547057202e-06
1.547123274e-06
1.547368882e-06
1.548263396e-06
1.551424473e-06
1.562175079e-06
1.59692539e-06
1.701787401e-06
1.989534824e-06
2.68001754e-06
4.049699906e-06
1.547033929e-06
1.547034145e-06
1.547034951e-06
1.547038678e-06
1.54705237e-06
1.54710366e-06
1.54728876e-06
1.547941687e-06
1.550170525e-06
1.557466442e-06
1.580086024e-06
1.645407993e-06
1.817115409e-06
2.215365503e-06
1.547034098e-06
1.547034282e-06
1.547035406e-06
1.547040177e-06
1.547058681e-06
1.547130457e-06
1.547402769e-06
1.548417675e-06
1.552097332e-06
1.564967741e-06
1.607814359e-06
1.740984014e-06
2.116463658e-06
3.035852073e-06
1.547034185e-06
1.547034683e-06
1.547036132e-06
1.547042941e-06
1.547069698e-06
1.547178868e-06
1.54761701e-06
1.549349426e-06
1.556066131e-06
1.581352595e-06
1.672562105e-06
1.981317856e-06
2.930418357e-06
5.436337818e-06
1.547034508e-06
1.547034803e-06
1.547036753e-06
1.547045276e-06
1.547080903e-06
1.547231606e-06
1.547861742e-06
1.550481293e-06
1.561241193e-06
1.604579017e-06
1.773662593e-06
2.400112033e-06
4.530287949e-06
1.076519708e-05
1.547034649e-06
1.547035003e-06
1.547037001e-06
1.547046232e-06
1.547086106e-06
1.547256534e-06
1.547984934e-06
1.551092346e-06
1.564293919e-06
1.619865651e-06
1.849703039e-06
2.769570311e-06
6.230226365e-06
1.773004209e-05
1.54703431e-06
1.547034827e-06
1.54703685e-06
1.547045252e-06
1.547080951e-06
1.547231436e-06
1.547861679e-06
1.550481268e-06
1.561241102e-06
1.604578721e-06
1.773660394e-06
2.400100452e-06
4.530240631e-06
1.076504638e-05
1.547034257e-06
1.547034521e-06
1.547036134e-06
1.547042606e-06
1.547069473e-06
1.547178921e-06
1.547617061e-06
1.549349708e-06
1.556065997e-06
1.5813521e-06
1.672559442e-06
1.981306095e-06
2.930377938e-06
5.436262247e-06
1.547034184e-06
1.547034329e-06
1.547035409e-06
1.547040165e-06
1.547058647e-06
1.547130271e-06
1.547402762e-06
1.548417514e-06
1.552097176e-06
1.5649675e-06
1.607813079e-06
1.740976523e-06
2.116435362e-06
3.035763733e-06
4.866802356e-06
1.54703408e-06
1.547034191e-06
1.547034953e-06
1.547038714e-06
1.547052518e-06
1.54710362e-06
1.547288617e-06
1.547941716e-06
1.550170438e-06
1.557466309e-06
1.580084876e-06
1.64540287e-06
1.817097556e-06
2.215308494e-06
2.999576788e-06
1.547033781e-06
1.547033885e-06
1.547034558e-06
1.547037506e-06
1.547047552e-06
1.547084072e-06
1.547211392e-06
1.547643226e-06
1.549054591e-06
1.553468044e-06
1.566520685e-06
1.602501536e-06
1.693222339e-06
1.897645774e-06
1.547033761e-06
1.547034299e-06
1.54703507e-06
1.547038466e-06
1.54705181e-06
1.547100983e-06
1.547279595e-06
1.547912943e-06
1.550087153e-06
1.557253977e-06
1.579656077e-06
1.644921317e-06
1.817929759e-06
2.221701826e-06
1.547034178e-06
1.547034607e-06
1.547035541e-06
1.547040289e-06
1.547058786e-06
1.547130499e-06
1.547402849e-06
1.548417538e-06
1.552097338e-06
1.564967947e-06
1.60781526e-06
1.740985718e-06
2.116466126e-06
3.035852897e-06
1.547034272e-06
1.547034485e-06
1.547036049e-06
1.547041794e-06
1.547065808e-06
1.547161258e-06
1.547536726e-06
1.548993365e-06
1.5545217e-06
1.574890492e-06
1.646803384e-06
1.885307914e-06
2.605246425e-06
4.480187045e-06
1.547034389e-06
1.547034637e-06
1.547035878e-06
1.547042617e-06
1.547068814e-06
1.547175282e-06
1.547600981e-06
1.549282588e-06
1.555821649e-06
1.580659996e-06
1.671813062e-06
1.989280065e-06
3.00686007e-06
5.840189771e-06
1.547034315e-06
1.547034425e-06
1.547035755e-06
1.54704176e-06
1.547065734e-06
1.5471611e-06
1.547537016e-06
1.548993307e-06
1.554521682e-06
1.574890422e-06
1.646802641e-06
1.885304338e-06
2.605234133e-06
4.480149961e-06
1.547034213e-06
1.547034374e-06
1.547035444e-06
1.54704018e-06
1.547058588e-06
1.547130312e-06
1.547402724e-06
1.548417567e-06
1.552097338e-06
1.56496772e-06
1.607814525e-06
1.740982431e-06
2.116455891e-06
3.035834087e-06
1.547033965e-06
1.547034322e-06
1.547035114e-06
1.54703847e-06
1.547051566e-06
1.547100804e-06
1.547279676e-06
1.547912808e-06
1.55008696e-06
1.557253659e-06
1.579655455e-06
1.644918819e-06
1.817923725e-06
2.221697277e-06
1.547033881e-06
1.547034083e-06
1.547034755e-06
1.547037408e-06
1.547047662e-06
1.547084082e-06
1.5472114e-06
1.547643094e-06
1.549054432e-06
1.553467819e-06
1.566520112e-06
1.602499567e-06
1.693216354e-06
1.897628948e-06
2.299244143e-06
1.547033677e-06
1.547033963e-06
1.547034413e-06
1.547036554e-06
1.547044516e-06
1.547072618e-06
1.547167356e-06
1.547477022e-06
1.548451687e-06
1.551378571e-06
1.559686021e-06
1.581697197e-06
1.635341745e-06
1.753630752e-06
1.547033697e-06
1.547033996e-06
1.547034561e-06
1.547037337e-06
1.547047454e-06
1.547084039e-06
1.547211476e-06
1.547643222e-06
1.549054748e-06
1.553468128e-06
1.566520977e-06
1.602502072e-06
1.693223044e-06
1.897646482e-06
1.547033983e-06
1.547034349e-06
1.547035332e-06
1.547038839e-06
1.547052678e-06
1.547103648e-06
1.547288684e-06
1.547941662e-06
1.550170708e-06
1.557466559e-06
1.580086896e-06
1.645409618e-06
1.817118125e-06
2.215367984e-06
1.547034154e-06
1.547034377e-06
1.547035415e-06
1.547039977e-06
1.547057362e-06
1.547123342e-06
1.547369039e-06
1.548263607e-06
1.551424733e-06
1.562176124e-06
1.596929397e-06
1.701801516e-06
1.989580402e-06
2.680151827e-06
1.54703429e-06
1.547034412e-06
1.547035606e-06
1.547040336e-06
1.547059116e-06
1.547131855e-06
1.547405653e-06
1.548415544e-06
1.552044298e-06
1.564635322e-06
1.606329966e-06
1.735813181e-06
2.102829472e-06
3.01140686e-06
1.54703416e-06
1.54703433e-06
1.54703533e-06
1.54703989e-06
1.547057258e-06
1.547123159e-06
1.547369e-06
1.54826363e-06
1.551424836e-06
1.562176215e-06
1.596929273e-06
1.701800805e-06
1.989577772e-06
2.680142812e-06
1.547034012e-06
1.547034184e-06
1.547035164e-06
1.547038655e-06
1.547052586e-06
1.547103485e-06
1.547288603e-06
1.547941571e-06
1.550170419e-06
1.557466521e-06
1.580086533e-06
1.645408654e-06
1.817115175e-06
2.215361648e-06
1.547033985e-06
1.547034092e-06
1.547034827e-06
1.547037476e-06
1.54704756e-06
1.547084075e-06
1.547211417e-06
1.547643092e-06
1.549054534e-06
1.553467837e-06
1.566520416e-06
1.602500925e-06
1.693220655e-06
1.897643981e-06
1.547033778e-06
1.547033878e-06
1.54703445e-06
1.547036646e-06
1.547044778e-06
1.547072686e-06
1.547167396e-06
1.547477052e-06
1.548451615e-06
1.551378518e-06
1.559685757e-06
1.581696585e-06
1.635340432e-06
1.753631222e-06
)
;

boundaryField
{
    top
    {
        type            calculated;
        value           nonuniform List<scalar> 
134
(
1.547033704e-06
1.547034032e-06
1.547034081e-06
1.547034118e-06
1.547034301e-06
1.547034116e-06
1.54703408e-06
1.547033881e-06
1.547033778e-06
1.547033903e-06
1.54703411e-06
1.547034217e-06
1.547034346e-06
1.547034484e-06
1.547034441e-06
1.547034191e-06
1.547034083e-06
1.547033878e-06
1.547034473e-06
1.547034805e-06
1.547035116e-06
1.54703542e-06
1.547035686e-06
1.547035535e-06
1.547034953e-06
1.547034755e-06
1.54703445e-06
1.547036862e-06
1.54703746e-06
1.547038786e-06
1.547039705e-06
1.547040443e-06
1.547039935e-06
1.547038714e-06
1.547037408e-06
1.547036646e-06
1.547044891e-06
1.547047469e-06
1.547052504e-06
1.547056958e-06
1.547059304e-06
1.547057202e-06
1.547052518e-06
1.547047662e-06
1.547044778e-06
1.54707273e-06
1.54708402e-06
1.547103587e-06
1.547123221e-06
1.547131899e-06
1.547123274e-06
1.54710362e-06
1.547084082e-06
1.547072686e-06
1.547167288e-06
1.547211409e-06
1.547288388e-06
1.547368999e-06
1.547405511e-06
1.547368882e-06
1.547288617e-06
1.5472114e-06
1.547167396e-06
1.547476879e-06
1.547643067e-06
1.547941463e-06
1.548263479e-06
1.548415345e-06
1.548263396e-06
1.547941716e-06
1.547643094e-06
1.547477052e-06
1.548451409e-06
1.549054306e-06
1.550170205e-06
1.551424373e-06
1.552043703e-06
1.551424473e-06
1.550170438e-06
1.549054432e-06
1.548451615e-06
1.551378046e-06
1.553466993e-06
1.557465393e-06
1.562174722e-06
1.564633633e-06
1.562175079e-06
1.557466309e-06
1.553467819e-06
1.551378518e-06
1.55968424e-06
1.566518186e-06
1.580082824e-06
1.59692411e-06
1.606324421e-06
1.59692539e-06
1.580084876e-06
1.566520112e-06
1.559685757e-06
1.581692298e-06
1.602494294e-06
1.645396647e-06
1.701783118e-06
1.735792965e-06
1.701787401e-06
1.64540287e-06
1.602499567e-06
1.581696585e-06
1.635328632e-06
1.693201705e-06
1.817079807e-06
1.989522157e-06
2.102761894e-06
1.989534824e-06
1.817097556e-06
1.693216354e-06
1.635340432e-06
1.753597824e-06
1.897591525e-06
2.215264708e-06
2.679985145e-06
3.011204168e-06
2.68001754e-06
2.215308494e-06
1.897628948e-06
1.753631222e-06
1.985960067e-06
2.29915974e-06
2.999491941e-06
4.049639162e-06
4.836065082e-06
4.049699906e-06
2.999576788e-06
2.299244143e-06
)
;
    }
    bottom
    {
        type            calculated;
        value           nonuniform List<scalar> 
127
(
1.547033604e-06
1.547033783e-06
1.547033968e-06
1.547034153e-06
1.547034064e-06
1.547034108e-06
1.547033929e-06
1.547033781e-06
1.547033677e-06
1.547033685e-06
1.547033993e-06
1.547034133e-06
1.547034261e-06
1.547034325e-06
1.547034382e-06
1.547034145e-06
1.547033885e-06
1.547033963e-06
1.547034187e-06
1.547034581e-06
1.547035021e-06
1.547035414e-06
1.547035552e-06
1.547035336e-06
1.547034951e-06
1.547034558e-06
1.547034413e-06
1.547036499e-06
1.547037503e-06
1.547038534e-06
1.547039955e-06
1.547040223e-06
1.547039862e-06
1.547038678e-06
1.547037506e-06
1.547036554e-06
1.547044543e-06
1.547047411e-06
1.547052269e-06
1.547057195e-06
1.547059168e-06
1.547057146e-06
1.54705237e-06
1.547047552e-06
1.547044516e-06
1.547072511e-06
1.547083804e-06
1.547103411e-06
1.547123244e-06
1.547131861e-06
1.5471233e-06
1.54710366e-06
1.547084072e-06
1.547072618e-06
1.547167162e-06
1.547211183e-06
1.547288407e-06
1.547368893e-06
1.547405538e-06
1.547369062e-06
1.54728876e-06
1.547211392e-06
1.547167356e-06
1.547476817e-06
1.547642961e-06
1.547941399e-06
1.548263327e-06
1.548415357e-06
1.548263554e-06
1.547941687e-06
1.547643226e-06
1.547477022e-06
1.548451283e-06
1.549054074e-06
1.550170067e-06
1.5514243e-06
1.55204385e-06
1.55142462e-06
1.550170525e-06
1.549054591e-06
1.548451687e-06
1.551377756e-06
1.553467099e-06
1.557465614e-06
1.56217496e-06
1.564634171e-06
1.562175452e-06
1.557466442e-06
1.553468044e-06
1.551378571e-06
1.559684457e-06
1.566518979e-06
1.580084045e-06
1.596926017e-06
1.606327167e-06
1.596927496e-06
1.580086024e-06
1.566520685e-06
1.559686021e-06
1.581693586e-06
1.602497345e-06
1.645402988e-06
1.701793136e-06
1.735806648e-06
1.701797047e-06
1.645407993e-06
1.602501536e-06
1.581697197e-06
1.635334295e-06
1.693214492e-06
1.817105974e-06
1.989564517e-06
2.102817922e-06
1.989572887e-06
1.817115409e-06
1.693222339e-06
1.635341745e-06
1.753615759e-06
1.8976399e-06
2.215358377e-06
2.680137589e-06
3.011402381e-06
2.680145382e-06
2.215365503e-06
1.897645774e-06
1.753630752e-06
1.986004394e-06
)
;
    }
    side-walls
    {
        type            calculated;
        value           nonuniform List<scalar> 
261
(
1.547033604e-06
1.54703378e-06
1.547033829e-06
1.547033983e-06
1.54703405e-06
1.547034082e-06
1.547034091e-06
1.547033937e-06
1.547033704e-06
1.547033685e-06
1.547033923e-06
1.547034056e-06
1.547034297e-06
1.547034385e-06
1.547034208e-06
1.547034362e-06
1.547034054e-06
1.547033903e-06
1.547034187e-06
1.547034401e-06
1.547034851e-06
1.547035304e-06
1.547035508e-06
1.547035386e-06
1.547035123e-06
1.547034885e-06
1.547034473e-06
1.547036499e-06
1.54703723e-06
1.547038464e-06
1.547039684e-06
1.547040292e-06
1.547039966e-06
1.547038692e-06
1.54703757e-06
1.547036862e-06
1.547044543e-06
1.547047317e-06
1.547052387e-06
1.547057095e-06
1.547059191e-06
1.547057311e-06
1.54705232e-06
1.547047429e-06
1.547044891e-06
1.547072511e-06
1.547083848e-06
1.547103385e-06
1.547123054e-06
1.547131703e-06
1.547123119e-06
1.54710352e-06
1.547084116e-06
1.54707273e-06
1.547167162e-06
1.547211309e-06
1.547288229e-06
1.547368817e-06
1.547405376e-06
1.54736882e-06
1.547288457e-06
1.547211502e-06
1.547167288e-06
1.547476817e-06
1.547642963e-06
1.547941279e-06
1.548263234e-06
1.548415278e-06
1.548263283e-06
1.547941498e-06
1.547642993e-06
1.547476879e-06
1.548451283e-06
1.549054181e-06
1.550170088e-06
1.551424192e-06
1.552043527e-06
1.551424021e-06
1.550170138e-06
1.549054316e-06
1.548451409e-06
1.551377756e-06
1.553466889e-06
1.557465175e-06
1.562174134e-06
1.564632904e-06
1.562174032e-06
1.557465164e-06
1.553467218e-06
1.551378046e-06
1.559684457e-06
1.566518293e-06
1.580082199e-06
1.59692235e-06
1.606321599e-06
1.596922153e-06
1.580082094e-06
1.566518096e-06
1.55968424e-06
1.581693586e-06
1.602495198e-06
1.645396087e-06
1.701779014e-06
1.735785216e-06
1.701777708e-06
1.645394801e-06
1.602493749e-06
1.581692298e-06
1.635334295e-06
1.693206516e-06
1.817081086e-06
1.989514728e-06
2.1027434e-06
1.989509293e-06
1.817075503e-06
1.693200337e-06
1.635328632e-06
1.753615759e-06
1.89760824e-06
2.215275837e-06
2.679979055e-06
3.011172843e-06
2.679962546e-06
2.215257517e-06
1.897589331e-06
1.753597824e-06
1.986004394e-06
2.299201585e-06
2.999529678e-06
4.049656315e-06
4.836045599e-06
4.049617034e-06
2.999484795e-06
2.29915739e-06
1.985960067e-06
1.547033677e-06
1.547033697e-06
1.547033983e-06
1.547034154e-06
1.54703429e-06
1.54703416e-06
1.547034012e-06
1.547033985e-06
1.547033778e-06
1.547033963e-06
1.547033996e-06
1.547034349e-06
1.547034377e-06
1.547034412e-06
1.54703433e-06
1.547034184e-06
1.547034092e-06
1.547033878e-06
1.547034413e-06
1.547034561e-06
1.547035332e-06
1.547035415e-06
1.547035606e-06
1.54703533e-06
1.547035164e-06
1.547034827e-06
1.54703445e-06
1.547036554e-06
1.547037337e-06
1.547038839e-06
1.547039977e-06
1.547040336e-06
1.54703989e-06
1.547038655e-06
1.547037476e-06
1.547036646e-06
1.547044516e-06
1.547047454e-06
1.547052678e-06
1.547057362e-06
1.547059116e-06
1.547057258e-06
1.547052586e-06
1.54704756e-06
1.547044778e-06
1.547072618e-06
1.547084039e-06
1.547103648e-06
1.547123342e-06
1.547131855e-06
1.547123159e-06
1.547103485e-06
1.547084075e-06
1.547072686e-06
1.547167356e-06
1.547211476e-06
1.547288684e-06
1.547369039e-06
1.547405653e-06
1.547369e-06
1.547288603e-06
1.547211417e-06
1.547167396e-06
1.547477022e-06
1.547643222e-06
1.547941662e-06
1.548263607e-06
1.548415544e-06
1.54826363e-06
1.547941571e-06
1.547643092e-06
1.547477052e-06
1.548451687e-06
1.549054748e-06
1.550170708e-06
1.551424733e-06
1.552044298e-06
1.551424836e-06
1.550170419e-06
1.549054534e-06
1.548451615e-06
1.551378571e-06
1.553468128e-06
1.557466559e-06
1.562176124e-06
1.564635322e-06
1.562176215e-06
1.557466521e-06
1.553467837e-06
1.551378518e-06
1.559686021e-06
1.566520977e-06
1.580086896e-06
1.596929397e-06
1.606329966e-06
1.596929273e-06
1.580086533e-06
1.566520416e-06
1.559685757e-06
1.581697197e-06
1.602502072e-06
1.645409618e-06
1.701801516e-06
1.735813181e-06
1.701800805e-06
1.645408654e-06
1.602500925e-06
1.581696585e-06
1.635341745e-06
1.693223044e-06
1.817118125e-06
1.989580402e-06
2.102829472e-06
1.989577772e-06
1.817115175e-06
1.693220655e-06
1.635340432e-06
1.753630752e-06
1.897646482e-06
2.215367984e-06
2.680151827e-06
3.01140686e-06
2.680142812e-06
2.215361648e-06
1.897643981e-06
1.753631222e-06
)
;
    }
    inlet
    {
        type            calculated;
        value           nonuniform List<scalar> 
81
(
1.547033604e-06
1.54703378e-06
1.547033829e-06
1.547033983e-06
1.54703405e-06
1.547034082e-06
1.547034091e-06
1.547033937e-06
1.547033704e-06
1.547033783e-06
1.547033872e-06
1.547034031e-06
1.547034299e-06
1.547034376e-06
1.547034213e-06
1.547034215e-06
1.547034028e-06
1.547034032e-06
1.547033968e-06
1.5470341e-06
1.547034277e-06
1.547034374e-06
1.547034361e-06
1.547034312e-06
1.547034212e-06
1.54703412e-06
1.547034081e-06
1.547034153e-06
1.547034321e-06
1.547034422e-06
1.547034727e-06
1.547034685e-06
1.547034518e-06
1.547034427e-06
1.547034086e-06
1.547034118e-06
1.547034064e-06
1.547034313e-06
1.547034404e-06
1.547034691e-06
1.547034758e-06
1.547034699e-06
1.547034522e-06
1.547034375e-06
1.547034301e-06
1.547034108e-06
1.547034304e-06
1.547034469e-06
1.547034732e-06
1.547034808e-06
1.547034561e-06
1.547034443e-06
1.547034338e-06
1.547034116e-06
1.547033929e-06
1.547034098e-06
1.547034185e-06
1.547034508e-06
1.547034649e-06
1.54703431e-06
1.547034257e-06
1.547034184e-06
1.54703408e-06
1.547033781e-06
1.547033761e-06
1.547034178e-06
1.547034272e-06
1.547034389e-06
1.547034315e-06
1.547034213e-06
1.547033965e-06
1.547033881e-06
1.547033677e-06
1.547033697e-06
1.547033983e-06
1.547034154e-06
1.54703429e-06
1.54703416e-06
1.547034012e-06
1.547033985e-06
1.547033778e-06
)
;
    }
    outlet
    {
        type            calculated;
        value           nonuniform 0();
    }
    procBoundary0to1
    {
        type            processor;
        value           nonuniform List<scalar> 
97
(
2.389814796e-06
2.299241606e-06
2.977315999e-06
4.273438362e-06
6.169525952e-06
7.520841853e-06
6.169474332e-06
4.273384611e-06
2.977267751e-06
2.389780834e-06
2.299241606e-06