/*--------------------------------*- C++ -*----------------------------------*\
| =========                 |                                                 |
| \\      /  F ield         | OpenFOAM: The Open Source CFD Toolbox           |
|  \\    /   O peration     | Version:  4.x                                   |
|   \\  /    A nd           | Web:      www.OpenFOAM.org                      |
|    \\/     M anipulation  |                                                 |
\*---------------------------------------------------------------------------*/
FoamFile
{
    version     2.0;
    format      ascii;
    class       volScalarField;
    location    "4000";
    object      CO;
}
// * * * * * * * * * * * * * * * * * * * * * * * * * * * * * * * * * * * * * //

dimensions      [0 0 0 0 0 0 0];

internalField   nonuniform List<scalar> 
1175
(
0.3315827252
0.3315827252
0.3315827252
0.3315827252
0.3315827251
0.331582725
0.3315827246
0.3315827233
0.3315827193
0.3315827071
0.3315826725
0.3315825809
0.3315823577
0.3315818655
0.3315808986
0.3315827252
0.3315827252
0.3315827252
0.3315827252
0.3315827251
0.331582725
0.3315827244
0.3315827227
0.3315827168
0.3315826984
0.3315826441
0.3315824944
0.331582117
0.3315812667
0.331579596
0.3315827252
0.3315827252
0.3315827252
0.3315827252
0.3315827251
0.3315827249
0.3315827241
0.3315827214
0.3315827121
0.3315826818
0.3315825877
0.331582316
0.3315816019
0.3315799456
0.3315766837
0.3315827252
0.3315827252
0.3315827252
0.3315827252
0.3315827251
0.3315827248
0.3315827238
0.3315827201
0.3315827069
0.3315826622
0.3315825177
0.3315820816
0.3315808849
0.3315780135
0.3315723174
0.3315827252
0.3315827252
0.3315827252
0.3315827252
0.3315827251
0.3315827248
0.3315827236
0.3315827194
0.3315827043
0.331582652
0.3315824786
0.3315819402
0.3315804142
0.3315766367
0.3315690478
0.3315827252
0.3315827252
0.3315827252
0.3315827252
0.3315827251
0.3315827248
0.3315827238
0.3315827201
0.3315827069
0.3315826622
0.3315825177
0.3315820816
0.3315808849
0.3315780135
0.3315723175
0.3315827252
0.3315827252
0.3315827252
0.3315827252
0.3315827251
0.3315827249
0.3315827241
0.3315827214
0.3315827121
0.3315826818
0.3315825877
0.331582316
0.3315816019
0.3315799457
0.3315766838
0.3315827252
0.3315827252
0.3315827252
0.3315827252
0.3315827251
0.331582725
0.3315827244
0.3315827227
0.3315827168
0.3315826984
0.3315826441
0.3315824944
0.331582117
0.3315812667
0.3315795961
0.3315827252
0.3315827252
0.3315827252
0.3315827252
0.3315827251
0.331582725
0.3315827246
0.3315827233
0.3315827193
0.3315827071
0.3315826725
0.3315825809
0.3315823577
0.3315818656
0.3315808986
0.3315827252
0.3315827252
0.3315827252
0.3315827252
0.3315827251
0.331582725
0.3315827244
0.3315827227
0.3315827168
0.3315826984
0.3315826441
0.3315824944
0.331582117
0.3315812666
0.3315827252
0.3315827252
0.3315827252
0.3315827252
0.3315827251
0.3315827249
0.3315827242
0.3315827215
0.3315827125
0.3315826827
0.3315825895
0.331582318
0.3315815985
0.3315799194
0.3315766094
0.3315827252
0.3315827252
0.3315827252
0.3315827252
0.3315827251
0.3315827248
0.3315827237
0.3315827194
0.3315827041
0.3315826506
0.3315824724
0.3315819187
0.3315803576
0.3315765351
0.3315689219
0.3315827252
0.3315827252
0.3315827252
0.3315827252
0.3315827251
0.3315827247
0.3315827231
0.331582717
0.331582694
0.3315826093
0.3315823104
0.3315813189
0.3315783262
0.3315705327
0.3315546239
0.3315827252
0.3315827252
0.3315827252
0.3315827252
0.331582725
0.3315827246
0.3315827228
0.3315827158
0.3315826886
0.3315825854
0.3315822064
0.3315808869
0.3315766576
0.331564882
0.3315397304
0.3315827252
0.3315827252
0.3315827252
0.3315827252
0.3315827251
0.3315827247
0.3315827231
0.331582717
0.331582694
0.3315826093
0.3315823104
0.3315813189
0.3315783263
0.3315705328
0.3315546242
0.3315827252
0.3315827252
0.3315827252
0.3315827252
0.3315827251
0.3315827248
0.3315827237
0.3315827194
0.3315827041
0.3315826506
0.3315824724
0.3315819187
0.3315803576
0.3315765353
0.3315689221
0.3315827252
0.3315827252
0.3315827252
0.3315827252
0.3315827251
0.3315827249
0.3315827242
0.3315827215
0.3315827125
0.3315826827
0.3315825895
0.331582318
0.3315815986
0.3315799194
0.3315766097
0.3315827252
0.3315827252
0.3315827252
0.3315827252
0.3315827251
0.331582725
0.3315827244
0.3315827227
0.3315827168
0.3315826984
0.3315826441
0.3315824944
0.331582117
0.3315812667
0.3315795961
0.3315827252
0.3315827252
0.3315827252
0.3315827252
0.3315827251
0.3315827249
0.3315827241
0.3315827214
0.3315827121
0.3315826818
0.3315825877
0.331582316
0.3315816018
0.3315799455
0.3315827252
0.3315827252
0.3315827252
0.3315827252
0.3315827251
0.3315827248
0.3315827237
0.3315827194
0.3315827041
0.3315826506
0.3315824724
0.3315819187
0.3315803575
0.331576535
0.3315827252
0.3315827252
0.3315827252
0.3315827252
0.331582725
0.3315827246
0.3315827228
0.3315827156
0.3315826876
0.3315825825
0.3315822033
0.3315809198
0.3315769749
0.3315665591
0.3315452084
0.3315827252
0.3315827252
0.3315827252
0.3315827251
0.331582725
0.3315827244
0.3315827217
0.3315827108
0.3315826661
0.331582486
0.3315817832
0.3315791797
0.3315703278
0.3315444197
0.3314877503
0.3315827252
0.3315827252
0.3315827252
0.3315827251
0.331582725
0.3315827243
0.3315827212
0.3315827083
0.3315826534
0.3315824224
0.3315814673
0.3315776451
0.3315632673
0.3315154925
0.3313969088
0.3315827252
0.3315827252
0.3315827252
0.3315827251
0.331582725
0.3315827244
0.3315827217
0.3315827108
0.3315826661
0.331582486
0.3315817832
0.3315791798
0.331570328
0.3315444202
0.3314877518
0.3315827252
0.3315827252
0.3315827252
0.3315827252
0.331582725
0.3315827246
0.3315827228
0.3315827156
0.3315826876
0.3315825825
0.3315822033
0.3315809199
0.331576975
0.3315665596
0.3315452098
0.3315827252
0.3315827252
0.3315827252
0.3315827252
0.3315827251
0.3315827248
0.3315827237
0.3315827194
0.3315827041
0.3315826506
0.3315824724
0.3315819187
0.3315803576
0.3315765352
0.3315689221
0.3315827252
0.3315827252
0.3315827252
0.3315827252
0.3315827251
0.3315827249
0.3315827241
0.3315827214
0.3315827121
0.3315826818
0.3315825877
0.331582316
0.3315816019
0.3315799457
0.3315766838
0.3315827252
0.3315827252
0.3315827252
0.3315827252
0.3315827251
0.3315827248
0.3315827238
0.3315827201
0.3315827069
0.3315826622
0.3315825177
0.3315820815
0.3315808849
0.3315780133
0.3315827252
0.3315827252
0.3315827252
0.3315827252
0.3315827251
0.3315827247
0.3315827231
0.331582717
0.331582694
0.3315826093
0.3315823104
0.3315813188
0.3315783261
0.3315705323
0.3315827252
0.3315827252
0.3315827252
0.3315827251
0.331582725
0.3315827244
0.3315827217
0.3315827108
0.3315826661
0.3315824859
0.3315817832
0.3315791797
0.3315703276
0.3315444185
0.3315827252
0.3315827252
0.3315827252
0.3315827251
0.3315827249
0.331582724
0.3315827201
0.3315827029
0.3315826269
0.3315822933
0.3315808512
0.3315748076
0.3315510178
0.3314686852
0.3312588121
0.3315827252
0.3315827252
0.3315827252
0.3315827251
0.3315827249
0.3315827239
0.3315827193
0.3315826983
0.3315826013
0.3315821484
0.3315800151
0.3315699514
0.331523278
0.3313205001
0.33061864
0.3315827252
0.3315827252
0.3315827252
0.3315827251
0.3315827249
0.331582724
0.3315827201
0.3315827029
0.3315826269
0.3315822933
0.3315808512
0.3315748077
0.3315510182
0.3314686875
0.3312588217
0.3315827252
0.3315827252
0.3315827252
0.3315827251
0.331582725
0.3315827244
0.3315827217
0.3315827108
0.3315826661
0.331582486
0.3315817832
0.3315791797
0.3315703279
0.3315444201
0.3314877517
0.3315827252
0.3315827252
0.3315827252
0.3315827252
0.3315827251
0.3315827247
0.3315827231
0.331582717
0.331582694
0.3315826093
0.3315823104
0.3315813189
0.3315783262
0.3315705328
0.3315546241
0.3315827252
0.3315827252
0.3315827252
0.3315827252
0.3315827251
0.3315827248
0.3315827238
0.3315827201
0.3315827069
0.3315826622
0.3315825177
0.3315820816
0.3315808849
0.3315780135
0.3315723174
0.3315827252
0.3315827252
0.3315827252
0.3315827252
0.3315827251
0.3315827248
0.3315827236
0.3315827194
0.3315827043
0.331582652
0.3315824786
0.3315819402
0.3315804141
0.3315766364
0.3315827252
0.3315827252
0.3315827252
0.3315827252
0.331582725
0.3315827246
0.3315827228
0.3315827158
0.3315826886
0.3315825854
0.3315822064
0.3315808868
0.3315766574
0.3315648813
0.3315827252
0.3315827252
0.3315827252
0.3315827251
0.331582725
0.3315827243
0.3315827212
0.3315827083
0.3315826534
0.3315824224
0.3315814672
0.3315776449
0.3315632666
0.3315154896
0.3315827252
0.3315827252
0.3315827252
0.3315827251
0.3315827249
0.3315827239
0.3315827193
0.3315826983
0.3315826013
0.3315821484
0.3315800151
0.3315699511
0.3315232764
0.3313204894
0.3315827252
0.3315827252
0.3315827252
0.3315827251
0.3315827249
0.3315827237
0.3315827182
0.3315826921
0.3315825644
0.3315819164
0.3315784709
0.3315590745
0.3314423118
0.3306857339
0.3253799323
0.3315827252
0.3315827252
0.3315827252
0.3315827251
0.3315827249
0.3315827239
0.3315827193
0.3315826983
0.3315826013
0.3315821484
0.3315800151
0.3315699512
0.3315232775
0.3313204983
0.3306186367
0.3315827252
0.3315827252
0.3315827252
0.3315827251
0.331582725
0.3315827243
0.3315827212
0.3315827083
0.3315826534
0.3315824224
0.3315814673
0.331577645
0.3315632671
0.3315154921
0.3313969082
0.3315827252
0.3315827252
0.3315827252
0.3315827252
0.331582725
0.3315827246
0.3315827228
0.3315827158
0.3315826886
0.3315825854
0.3315822064
0.3315808868
0.3315766576
0.3315648819
0.3315397303
0.3315827252
0.3315827252
0.3315827252
0.3315827252
0.3315827251
0.3315827248
0.3315827236
0.3315827194
0.3315827043
0.331582652
0.3315824786
0.3315819402
0.3315804142
0.3315766367
0.3315690478
0.3315827252
0.3315827252
0.3315827252
0.3315827252
0.3315827251
0.3315827248
0.3315827238
0.3315827201
0.3315827069
0.3315826622
0.3315825177
0.3315820815
0.3315808849
0.3315780133
0.3315827252
0.3315827252
0.3315827252
0.3315827252
0.3315827251
0.3315827247
0.3315827231
0.331582717
0.331582694
0.3315826093
0.3315823103
0.3315813188
0.3315783261
0.3315705323
0.3315827252
0.3315827252
0.3315827252
0.3315827251
0.331582725
0.3315827244
0.3315827217
0.3315827108
0.3315826661
0.3315824859
0.3315817831
0.3315791796
0.3315703274
0.3315444185
0.3315827252
0.3315827252
0.3315827252
0.3315827251
0.3315827249
0.331582724
0.3315827201
0.3315827029
0.3315826269
0.3315822933
0.3315808511
0.3315748074
0.3315510171
0.3314686827
0.3315827252
0.3315827252
0.3315827252
0.3315827251
0.3315827249
0.3315827239
0.3315827193
0.3315826983
0.3315826013
0.3315821484
0.331580015
0.331569951
0.3315232761
0.3313204887
0.3315827252
0.3315827252
0.3315827252
0.3315827251
0.3315827249
0.331582724
0.3315827201
0.3315827029
0.3315826269
0.3315822933
0.3315808511
0.3315748075
0.3315510173
0.3314686832
0.3315827252
0.3315827252
0.3315827252
0.3315827251
0.331582725
0.3315827244
0.3315827217
0.3315827108
0.3315826661
0.3315824859
0.3315817832
0.3315791797
0.3315703276
0.3315444191
0.3314877486
0.3315827252
0.3315827252
0.3315827252
0.3315827252
0.3315827251
0.3315827247
0.3315827231
0.331582717
0.331582694
0.3315826093
0.3315823104
0.3315813189
0.3315783262
0.3315705326
0.3315546237
0.3315827252
0.3315827252
0.3315827252
0.3315827252
0.3315827251
0.3315827248
0.3315827238
0.3315827201
0.3315827069
0.3315826622
0.3315825177
0.3315820815
0.3315808849
0.3315780135
0.3315723173
0.3315827252
0.3315827252
0.3315827252
0.3315827252
0.3315827251
0.3315827249
0.3315827241
0.3315827214
0.3315827121
0.3315826818
0.3315825877
0.331582316
0.3315816018
0.3315799455
0.3315827252
0.3315827252
0.3315827252
0.3315827252
0.3315827251
0.3315827248
0.3315827237
0.3315827194
0.3315827041
0.3315826506
0.3315824724
0.3315819187
0.3315803575
0.331576535
0.3315827252
0.3315827252
0.3315827252
0.3315827252
0.331582725
0.3315827246
0.3315827228
0.3315827156
0.3315826876
0.3315825825
0.3315822033
0.3315809198
0.3315769747
0.3315665588
0.3315827252
0.3315827252
0.3315827252
0.3315827251
0.331582725
0.3315827244
0.3315827217
0.3315827108
0.3315826661
0.3315824859
0.3315817831
0.3315791796
0.3315703274
0.3315444185
0.3315827252
0.3315827252
0.3315827252
0.3315827251
0.331582725
0.3315827243
0.3315827212
0.3315827083
0.3315826534
0.3315824224
0.3315814672
0.3315776449
0.3315632665
0.3315154897
0.3315827252
0.3315827252
0.3315827252
0.3315827251
0.331582725
0.3315827244
0.3315827217
0.3315827108
0.3315826661
0.3315824859
0.3315817831
0.3315791796
0.3315703275
0.3315444187
0.3315827252
0.3315827252
0.3315827252
0.3315827252
0.331582725
0.3315827246
0.3315827228
0.3315827156
0.3315826876
0.3315825825
0.3315822033
0.3315809198
0.3315769748
0.3315665588
0.3315827252
0.3315827252
0.3315827252
0.3315827252
0.3315827251
0.3315827248
0.3315827237
0.3315827194
0.3315827041
0.3315826506
0.3315824724
0.3315819187
0.3315803575
0.3315765351
0.3315689216
0.3315827252
0.3315827252
0.3315827252
0.3315827252
0.3315827251
0.3315827249
0.3315827241
0.3315827214
0.3315827121
0.3315826818
0.3315825877
0.331582316
0.3315816019
0.3315799456
0.3315766836
0.3315827252
0.3315827252
0.3315827252
0.3315827252
0.3315827251
0.331582725
0.3315827244
0.3315827227
0.3315827168
0.3315826984
0.3315826441
0.3315824944
0.331582117
0.3315812666
0.3315827252
0.3315827252
0.3315827252
0.3315827252
0.3315827251
0.3315827249
0.3315827242
0.3315827215
0.3315827125
0.3315826827
0.3315825895
0.331582318
0.3315815985
0.3315799193
0.3315827252
0.3315827252
0.3315827252
0.3315827252
0.3315827251
0.3315827248
0.3315827237
0.3315827194
0.3315827041
0.3315826506
0.3315824724
0.3315819187
0.3315803575
0.331576535
0.3315827252
0.3315827252
0.3315827252
0.3315827252
0.3315827251
0.3315827247
0.3315827231
0.331582717
0.331582694
0.3315826093
0.3315823103
0.3315813188
0.3315783261
0.3315705323
0.3315827252
0.3315827252
0.3315827252
0.3315827252
0.331582725
0.3315827246
0.3315827228
0.3315827158
0.3315826886
0.3315825854
0.3315822064
0.3315808868
0.3315766574
0.3315648813
0.3315827252
0.3315827252
0.3315827252
0.3315827252
0.3315827251
0.3315827247
0.3315827231
0.331582717
0.331582694
0.3315826093
0.3315823103
0.3315813188
0.3315783261
0.3315705323
0.3315827252
0.3315827252
0.3315827252
0.3315827252
0.3315827251
0.3315827248
0.3315827237
0.3315827194
0.3315827041
0.3315826506
0.3315824724
0.3315819187
0.3315803575
0.331576535
0.3315827252
0.3315827252
0.3315827252
0.3315827252
0.3315827251
0.3315827249
0.3315827242
0.3315827215
0.3315827125
0.3315826827
0.3315825895
0.331582318
0.3315815985
0.3315799193
0.3315827252
0.3315827252
0.3315827252
0.3315827252
0.3315827251
0.331582725
0.3315827244
0.3315827227
0.3315827168
0.3315826984
0.3315826441
0.3315824944
0.331582117
0.3315812666
0.3315795959
0.3315827252
0.3315827252
0.3315827252
0.3315827252
0.3315827251
0.331582725
0.3315827246
0.3315827233
0.3315827193
0.3315827071
0.3315826725
0.3315825809
0.3315823577
0.3315818655
0.3315827252
0.3315827252
0.3315827252
0.3315827252
0.3315827251
0.331582725
0.3315827244
0.3315827227
0.3315827168
0.3315826984
0.3315826441
0.3315824944
0.331582117
0.3315812666
0.3315827252
0.3315827252
0.3315827252
0.3315827252
0.3315827251
0.3315827249
0.3315827241
0.3315827214
0.3315827121
0.3315826818
0.3315825877
0.331582316
0.3315816018
0.3315799455
0.3315827252
0.3315827252
0.3315827252
0.3315827252
0.3315827251
0.3315827248
0.3315827238
0.3315827201
0.3315827069
0.3315826622
0.3315825177
0.3315820815
0.3315808848
0.3315780133
0.3315827252
0.3315827252
0.3315827252
0.3315827252
0.3315827251
0.3315827248
0.3315827236
0.3315827194
0.3315827043
0.331582652
0.3315824786
0.3315819402
0.3315804141
0.3315766364
0.3315827252
0.3315827252
0.3315827252
0.3315827252
0.3315827251
0.3315827248
0.3315827238
0.3315827201
0.3315827069
0.3315826622
0.3315825177
0.3315820815
0.3315808848
0.3315780133
0.3315827252
0.3315827252
0.3315827252
0.3315827252
0.3315827251
0.3315827249
0.3315827241
0.3315827214
0.3315827121
0.3315826818
0.3315825877
0.331582316
0.3315816018
0.3315799455
0.3315827252
0.3315827252
0.3315827252
0.3315827252
0.3315827251
0.331582725
0.3315827244
0.3315827227
0.3315827168
0.3315826984
0.3315826441
0.3315824944
0.331582117
0.3315812666
0.3315827252
0.3315827252
0.3315827252
0.3315827252
0.3315827251
0.331582725
0.3315827246
0.3315827233
0.3315827193
0.3315827071
0.3315826725
0.3315825809
0.3315823577
0.3315818655
)
;

boundaryField
{
    top
    {
        type            zeroGradient;
    }
    bottom
    {
        type            zeroGradient;
    }
    side-walls
    {
        type            zeroGradient;
    }
    inlet
    {
        type            zeroGradient;
    }
    outlet
    {
        type            zeroGradient;
    }
    procBoundary0to1
    {
        type            processor;
        value           nonuniform List<scalar> 
97
(
0.331579218
0.3315795959
0.3315767745
0.3315713844
0.3315635005
0.3315578823
0.3315635007
0.3315713846
0.3315767746
0.3315792181
0.3315795959
0.3315795959
0.3315712772
0.3315689216
0.3315574679
0.3315329733
0.3315099121
0.3315329736
0.3315574682
0.3315712775
0.3315767746
0.3315766836
0.3315689216
0.3315689216
0.3315167578
0.331487748
0.3314263974
0.3313083031
0.3314263989
0.331516759
0.3315574682
0.3315713846
0.3315723172
0.3315546235
0.331487748
0.331487748
0.331117206
0.3306186245
0.3305118117
0.3311172113
0.3314263989
0.3315329736
0.3315635006
0.3315690476
0.3315397297
0.3313969056
0.3306186245
0.3306186245
0.3279082211
0.3306186248
0.3305118108
0.331258816
0.3313083029
0.3315099122
0.3315578824
0.3315723173
0.3315546237
0.3314877499
0.3312588168
0.3306186248
0.331258816
0.331258816
0.3314263971
0.3315452085
0.3315329733
0.3315635006
0.3315766837
0.3315689219
0.3315452091
0.33148775
0.3313969062
0.3314877503
0.3315452085
0.3315452085
0.3315574679
0.3315766094
0.3315713844
0.331579596
0.3315766096
0.3315689219
0.3315546238
0.3315397299
0.3315546238
0.3315689219
0.3315766094
0.3315766094
0.3315767745
0.3315808986
0.3315808986
0.331579596
0.3315766837
0.3315723173
0.3315690476
0.3315723173
0.3315766837
0.331579596
0.3315808986
)
;
    }
}


// ************************************************************************* //
