/*--------------------------------*- C++ -*----------------------------------*\
| =========                 |                                                 |
| \\      /  F ield         | OpenFOAM: The Open Source CFD Toolbox           |
|  \\    /   O peration     | Version:  4.x                                   |
|   \\  /    A nd           | Web:      www.OpenFOAM.org                      |
|    \\/     M anipulation  |                                                 |
\*---------------------------------------------------------------------------*/
FoamFile
{
    version     2.0;
    format      ascii;
    class       volScalarField;
    location    "4000";
    object      Cpv;
}
// * * * * * * * * * * * * * * * * * * * * * * * * * * * * * * * * * * * * * //

dimensions      [0 2 -2 -1 0 0 0];

internalField   nonuniform List<scalar> 
1175
(
1245.090837
1245.090846
1245.090875
1245.090843
1245.090852
1245.090845
1245.090842
1245.090829
1245.090812
1245.090816
1245.090809
1245.090843
1245.090823
1245.090829
1245.090832
1245.09088
1245.090886
1245.090902
1245.090899
1245.090911
1245.090922
1245.09091
1245.090906
1245.090875
1245.090866
1245.090878
1245.090878
1245.090881
1245.090892
1245.090876
1245.090382
1245.09039
1245.090383
1245.090401
1245.090365
1245.09036
1245.09034
1245.090341
1245.090338
1245.090325
1245.090308
1245.090306
1245.090339
1245.09034
1245.090327
1245.09146
1245.091465
1245.091475
1245.091483
1245.09151
1245.091514
1245.091479
1245.091493
1245.091497
1245.091493
1245.091506
1245.091481
1245.09146
1245.091457
1245.09142
1245.091148
1245.091141
1245.091143
1245.091152
1245.091161
1245.09117
1245.091195
1245.091192
1245.091182
1245.09117
1245.09117
1245.091212
1245.091196
1245.091192
1245.091186
1245.089962
1245.089942
1245.089928
1245.089938
1245.089933
1245.089934
1245.089952
1245.089951
1245.089961
1245.089971
1245.089984
1245.08998
1245.089985
1245.089948
1245.089931
1245.090492
1245.090513
1245.0905
1245.090497
1245.090493
1245.090511
1245.090497
1245.090517
1245.090505
1245.090521
1245.09051
1245.090525
1245.090528
1245.090513
1245.090493
1245.09118
1245.091167
1245.091184
1245.091194
1245.091175
1245.091172
1245.091159
1245.091137
1245.091138
1245.091134
1245.091135
1245.091142
1245.091164
1245.091148
1245.09118
1245.090743
1245.090774
1245.09077
1245.090771
1245.090767
1245.090755
1245.090748
1245.090783
1245.090768
1245.090753
1245.090729
1245.090733
1245.090746
1245.090734
1245.090724
1245.091041
1245.091062
1245.091054
1245.091073
1245.091067
1245.091059
1245.091095
1245.091062
1245.091047
1245.091061
1245.091068
1245.091048
1245.091054
1245.091057
1245.091017
1245.091058
1245.091032
1245.091039
1245.091029
1245.091042
1245.09104
1245.091036
1245.091032
1245.091027
1245.091016
1245.091018
1245.091018
1245.090997
1245.09096
1245.091115
1245.091109
1245.091124
1245.091104
1245.091089
1245.091096
1245.091093
1245.091096
1245.091086
1245.091111
1245.091125
1245.091102
1245.091101
1245.091089
1245.091089
1245.091217
1245.091225
1245.091224
1245.091222
1245.091207
1245.091185
1245.091219
1245.091214
1245.091225
1245.091236
1245.091229
1245.091259
1245.091273
1245.091235
1245.091205
1245.09093
1245.090924
1245.090919
1245.090914
1245.090915
1245.090941
1245.090927
1245.090947
1245.090949
1245.090933
1245.090962
1245.090972
1245.090974
1245.090979
1245.090926
1245.091077
1245.091066
1245.09107
1245.091079
1245.091073
1245.09106
1245.091056
1245.091053
1245.091063
1245.091055
1245.091061
1245.091051
1245.091058
1245.091031
1245.090985
1245.091514
1245.091505
1245.091479
1245.091472
1245.091468
1245.091476
1245.091494
1245.091477
1245.091471
1245.09148
1245.091492
1245.091508
1245.091498
1245.091487
1245.091482
1245.09052
1245.090543
1245.09053
1245.090511
1245.090502
1245.090494
1245.090493
1245.090524
1245.090534
1245.090532
1245.090536
1245.090528
1245.090491
1245.090468
1245.090417
1245.091395
1245.091403
1245.091374
1245.091403
1245.091417
1245.09141
1245.09144
1245.091413
1245.0914
1245.091411
1245.091415
1245.091411
1245.091401
1245.091407
1245.091447
1245.090814
1245.090797
1245.090803
1245.090822
1245.090831
1245.090829
1245.090841
1245.090833
1245.090813
1245.090814
1245.090791
1245.090805
1245.090809
1245.0908
1245.090184
1245.090194
1245.09021
1245.090209
1245.090183
1245.090186
1245.0902
1245.090204
1245.090206
1245.090187
1245.090163
1245.090171
1245.090164
1245.09016
1245.090551
1245.090551
1245.090538
1245.090547
1245.090571
1245.090564
1245.090584
1245.090612
1245.090604
1245.090632
1245.090655
1245.090659
1245.090641
1245.090646
1245.090637
1245.090596
1245.090586
1245.090604
1245.090628
1245.090635
1245.090645
1245.090641
1245.090658
1245.090645
1245.090635
1245.090685
1245.090677
1245.090646
1245.090589
1245.090447
1245.091363
1245.091373
1245.091372
1245.09137
1245.091364
1245.091374
1245.091384
1245.091396
1245.091414
1245.091437
1245.091395
1245.091378
1245.091332
1245.091224
1245.09102
1245.090459
1245.090428
1245.090392
1245.090408
1245.090406
1245.090404
1245.090389
1245.090376
1245.090343
1245.090349
1245.090349
1245.090357
1245.090326
1245.090291
1245.090205
1245.091075
1245.091081
1245.091074
1245.091077
1245.091085
1245.091107
1245.09112
1245.091127
1245.091128
1245.091124
1245.09113
1245.091125
1245.091104
1245.091086
1245.09105
1245.091006
1245.09101
1245.09101
1245.091017
1245.090993
1245.090957
1245.090934
1245.09092
1245.090942
1245.090942
1245.090924
1245.090903
1245.090927
1245.090916
1245.090919
1245.090463
1245.090472
1245.090487
1245.090486
1245.090471
1245.090488
1245.090488
1245.090456
1245.090462
1245.090467
1245.090443
1245.090456
1245.090483
1245.090486
1245.090478
1245.090518
1245.090523
1245.09055
1245.090546
1245.090543
1245.090505
1245.090516
1245.090496
1245.090506
1245.090513
1245.090523
1245.090521
1245.090506
1245.090537
1245.090383
1245.090398
1245.09038
1245.090363
1245.090352
1245.090373
1245.09036
1245.090352
1245.090348
1245.090351
1245.090341
1245.090342
1245.090361
1245.09035
1245.090578
1245.090563
1245.090583
1245.09058
1245.0906
1245.090591
1245.090598
1245.090606
1245.090602
1245.090587
1245.090588
1245.090588
1245.090579
1245.090512
1245.090552
1245.090561
1245.090549
1245.090546
1245.090559
1245.090555
1245.090556
1245.090593
1245.09057
1245.090594
1245.090596
1245.090551
1245.09052
1245.090369
1245.089979
1245.090753
1245.090736
1245.090723
1245.090697
1245.090691
1245.090707
1245.090697
1245.090684
1245.090719
1245.090713
1245.090755
1245.090748
1245.090653
1245.090276
1245.087929
1245.090545
1245.09056
1245.090545
1245.09058
1245.090575
1245.090584
1245.090576
1245.090576
1245.090593
1245.090586
1245.090555
1245.090535
1245.090487
1245.090363
1245.089954
1245.090451
1245.090421
1245.090429
1245.090407
1245.090378
1245.090376
1245.090362
1245.090356
1245.090354
1245.090346
1245.090342
1245.090354
1245.090328
1245.090308
1245.0902
1245.091602
1245.091595
1245.091612
1245.09163
1245.091621
1245.091642
1245.091619
1245.091629
1245.091599
1245.091611
1245.091614
1245.091602
1245.091614
1245.091607
1245.091559
1245.090883
1245.090872
1245.090864
1245.090886
1245.090894
1245.090886
1245.090888
1245.090888
1245.090915
1245.090923
1245.090938
1245.090967
1245.090965
1245.090981
1245.090949
1245.091054
1245.091058
1245.091073
1245.091087
1245.091095
1245.091068
1245.091062
1245.091061
1245.091064
1245.091032
1245.091032
1245.09103
1245.091017
1245.091017
1245.090384
1245.090365
1245.090367
1245.090408
1245.090387
1245.09038
1245.090362
1245.090381
1245.090373
1245.090366
1245.090335
1245.09032
1245.090298
1245.090286
1245.091282
1245.091278
1245.091277
1245.091281
1245.091285
1245.091284
1245.091316
1245.091329
1245.091324
1245.091313
1245.091308
1245.091297
1245.09128
1245.091177
1245.091084
1245.091092
1245.091091
1245.091104
1245.091104
1245.091119
1245.091102
1245.091099
1245.091087
1245.091091
1245.09109
1245.091094
1245.090994
1245.09063
1245.091041
1245.091041
1245.091076
1245.091061
1245.091089
1245.091086
1245.091093
1245.091086
1245.091101
1245.091078
1245.09108
1245.091079
1245.090862
1245.089442
1243.925496
1245.091544
1245.091518
1245.091518
1245.091502
1245.091504
1245.091504
1245.091512
1245.09152
1245.091529
1245.091564
1245.091544
1245.091534
1245.091443
1245.091065
1245.08867
1245.090809
1245.090808
1245.090801
1245.09082
1245.090814
1245.090809
1245.090803
1245.090807
1245.090816
1245.090847
1245.090868
1245.09086
1245.090817
1245.09072
1245.090532
1245.090624
1245.0906
1245.090594
1245.090606
1245.090598
1245.090592
1245.0906
1245.090564
1245.090562
1245.090539
1245.09055
1245.090542
1245.090524
1245.090513
1245.090456
1245.090242
1245.090258
1245.090249
1245.090218
1245.090223
1245.090213
1245.090224
1245.090236
1245.090238
1245.090228
1245.090238
1245.09022
1245.090221
1245.090187
1245.090192
1245.090218
1245.090211
1245.090212
1245.090217
1245.090209
1245.09021
1245.090197
1245.090193
1245.090199
1245.090204
1245.090223
1245.090196
1245.090202
1245.090234
1245.090651
1245.090652
1245.090651
1245.09064
1245.090663
1245.09066
1245.09064
1245.090634
1245.090633
1245.09062
1245.090615
1245.090638
1245.090621
1245.090586
1245.090666
1245.090667
1245.090684
1245.090716
1245.090713
1245.090697
1245.09071
1245.090701
1245.090711
1245.09071
1245.090696
1245.090701
1245.090715
1245.090661
1245.090912
1245.09094
1245.090951
1245.090951
1245.090942
1245.09097
1245.090965
1245.090943
1245.090969
1245.090972
1245.090949
1245.090947
1245.090935
1245.090779
1245.091307
1245.091301
1245.091324
1245.09132
1245.091323
1245.091346
1245.091365
1245.091388
1245.091367
1245.091366
1245.091377
1245.091367
1245.091285
1245.090936
1245.090522
1245.090539
1245.090568
1245.090544
1245.090549
1245.090535
1245.090494
1245.090481
1245.090484
1245.090507
1245.090513
1245.090537
1245.090475
1245.090348
1245.09074
1245.090735
1245.090734
1245.09075
1245.090755
1245.090743
1245.090762
1245.090786
1245.090785
1245.090798
1245.090818
1245.090803
1245.090802
1245.090758
1245.090631
1245.090131
1245.090124
1245.090109
1245.090114
1245.090112
1245.090102
1245.090112
1245.09012
1245.090127
1245.090109
1245.09011
1245.090108
1245.09012
1245.090075
1245.090064
1245.090577
1245.090574
1245.090579
1245.09058
1245.090557
1245.090566
1245.090558
1245.090568
1245.090583
1245.090581
1245.090604
1245.090615
1245.090598
1245.0906
1245.090598
1245.090828
1245.090813
1245.090827
1245.090839
1245.090839
1245.090831
1245.09083
1245.090816
1245.090806
1245.090814
1245.090832
1245.090857
1245.090869
1245.09086
1245.091374
1245.091399
1245.091421
1245.09144
1245.091438
1245.091451
1245.091473
1245.091504
1245.091488
1245.091512
1245.091505
1245.091506
1245.091509
1245.091513
1245.091632
1245.091684
1245.091677
1245.091694
1245.091683
1245.091687
1245.09166
1245.091652
1245.091653
1245.091644
1245.091634
1245.091623
1245.091629
1245.091618
1245.090838
1245.090841
1245.090874
1245.090846
1245.09085
1245.090834
1245.090832
1245.090838
1245.090838
1245.090838
1245.090848
1245.090852
1245.090813
1245.090794
1245.090597
1245.090618
1245.090613
1245.090603
1245.090585
1245.090582
1245.090583
1245.090573
1245.09055
1245.090549
1245.090559
1245.090541
1245.090516
1245.090404
1245.090554
1245.090579
1245.090547
1245.090541
1245.090569
1245.090584
1245.090581
1245.090583
1245.090563
1245.090564
1245.090541
1245.090546
1245.090551
1245.090533
1245.090829
1245.090834
1245.090823
1245.09082
1245.090823
1245.090818
1245.090845
1245.09085
1245.090849
1245.090855
1245.090883
1245.090911
1245.090935
1245.090916
1245.090736
1245.09074
1245.090779
1245.090779
1245.090788
1245.090749
1245.090764
1245.090734
1245.090752
1245.090752
1245.090751
1245.090761
1245.090757
1245.090724
1245.090735
1245.090867
1245.090858
1245.090877
1245.090892
1245.090886
1245.090855
1245.090846
1245.090846
1245.090825
1245.090829
1245.090819
1245.09085
1245.090853
1245.090852
1245.090833
1245.091207
1245.09117
1245.091188
1245.091197
1245.091213
1245.091188
1245.091176
1245.091169
1245.09118
1245.091158
1245.091155
1245.091133
1245.091132
1245.091148
1245.090468
1245.090488
1245.09047
1245.090486
1245.090494
1245.090495
1245.090461
1245.090428
1245.090432
1245.090439
1245.090464
1245.090477
1245.090509
1245.090514
1245.090725
1245.090694
1245.090704
1245.090709
1245.090713
1245.090742
1245.090749
1245.090763
1245.090762
1245.090759
1245.090759
1245.090761
1245.090772
1245.090771
1245.090489
1245.09051
1245.090507
1245.090496
1245.090514
1245.090532
1245.090527
1245.090512
1245.090526
1245.090544
1245.090547
1245.090565
1245.090581
1245.090548
1245.090954
1245.090955
1245.090973
1245.090945
1245.090955
1245.090939
1245.090965
1245.090974
1245.090956
1245.090972
1245.090966
1245.090992
1245.090973
1245.090915
1245.091055
1245.091052
1245.091043
1245.091046
1245.09104
1245.090999
1245.09101
1245.091005
1245.090992
1245.091011
1245.091048
1245.09105
1245.091024
1245.09102
1245.090902
1245.090906
1245.090915
1245.09093
1245.090914
1245.090934
1245.090949
1245.090926
1245.090899
1245.0909
1245.090887
1245.090905
1245.090892
1245.090899
1245.090983
1245.090973
1245.090967
1245.090958
1245.090952
1245.090936
1245.090917
1245.09091
1245.090928
1245.090955
1245.090961
1245.090989
1245.090957
1245.090981
1245.090991
1245.090985
1245.090983
1245.090976
1245.090959
1245.090959
1245.090967
1245.090964
1245.090984
1245.090981
1245.090993
1245.090989
1245.090975
1245.090982
1245.090967
1245.090674
1245.090677
1245.090681
1245.090692
1245.09069
1245.090697
1245.090699
1245.090688
1245.090696
1245.090705
1245.09072
1245.090724
1245.090723
1245.090729
1245.090694
1245.090682
1245.090683
1245.090709
1245.09071
1245.090693
1245.090704
1245.090675
1245.090707
1245.090719
1245.090678
1245.090655
1245.090682
1245.09067
1245.091143
1245.091154
1245.091155
1245.091156
1245.091166
1245.091157
1245.091133
1245.091142
1245.091132
1245.09114
1245.091128
1245.091127
1245.091105
1245.091107
1245.090876
1245.090886
1245.090883
1245.090903
1245.090889
1245.090871
1245.090909
1245.090903
1245.090911
1245.090917
1245.090886
1245.0909
1245.090883
1245.090876
1245.090765
1245.090782
1245.090799
1245.090824
1245.090832
1245.090832
1245.090849
1245.090842
1245.09086
1245.090869
1245.090883
1245.090862
1245.090845
1245.090844
1245.091571
1245.091578
1245.091573
1245.091573
1245.091593
1245.091597
1245.091617
1245.091619
1245.091617
1245.091604
1245.091584
1245.091552
1245.091553
1245.091545
1245.091006
1245.091001
1245.090996
1245.090983
1245.090986
1245.090989
1245.090987
1245.090981
1245.090982
1245.091
1245.091018
1245.090997
1245.090984
1245.090972
1245.090319
1245.090325
1245.090328
1245.090329
1245.090335
1245.090343
1245.090346
1245.090345
1245.090338
1245.090317
1245.090306
1245.090288
1245.090313
1245.090309
1245.090573
1245.090584
1245.0906
1245.090609
1245.09062
1245.090629
1245.090637
1245.090649
1245.090646
1245.090648
1245.090629
1245.090648
1245.090658
1245.090653
)
;

boundaryField
{
    top
    {
        type            calculated;
        value           nonuniform List<scalar> 
134
(
1245.090743
1245.091395
1245.090463
1245.090883
1245.090242
1245.090577
1245.090867
1245.090991
1245.090573
1245.090774
1245.091403
1245.090472
1245.090872
1245.090258
1245.090574
1245.090858
1245.090985
1245.090584
1245.09077
1245.091374
1245.090487
1245.090864
1245.090249
1245.090579
1245.090877
1245.090983
1245.0906
1245.090771
1245.091403
1245.090486
1245.090886
1245.090218
1245.09058
1245.090892
1245.090976
1245.090609
1245.090767
1245.091417
1245.090471
1245.090894
1245.090223
1245.090557
1245.090886
1245.090959
1245.09062
1245.090755
1245.09141
1245.090488
1245.090886
1245.090213
1245.090566
1245.090855
1245.090959
1245.090629
1245.090748
1245.09144
1245.090488
1245.090888
1245.090224
1245.090558
1245.090846
1245.090967
1245.090637
1245.090783
1245.091413
1245.090456
1245.090888
1245.090236
1245.090568
1245.090846
1245.090964
1245.090649
1245.090768
1245.0914
1245.090462
1245.090915
1245.090238
1245.090583
1245.090825
1245.090984
1245.090646
1245.090753
1245.091411
1245.090467
1245.090923
1245.090228
1245.090581
1245.090829
1245.090981
1245.090648
1245.090729
1245.091415
1245.090443
1245.090938
1245.090238
1245.090604
1245.090819
1245.090993
1245.090629
1245.090733
1245.091411
1245.090456
1245.090967
1245.09022
1245.090615
1245.09085
1245.090989
1245.090648
1245.090746
1245.091401
1245.090483
1245.090965
1245.090221
1245.090598
1245.090853
1245.090975
1245.090658
1245.090734
1245.091407
1245.090486
1245.090981
1245.090187
1245.0906
1245.090852
1245.090982
1245.090653
1245.090724
1245.091447
1245.090478
1245.090949
1245.090192
1245.090598
1245.090833
1245.090967
)
;
    }
    bottom
    {
        type            calculated;
        value           nonuniform List<scalar> 
127
(
1245.090837
1245.091041
1245.090814
1245.090518
1245.091054
1245.090218
1245.090828
1245.091207
1245.090674
1245.090846
1245.091062
1245.090797
1245.090523
1245.091058
1245.090211
1245.090813
1245.09117
1245.090677
1245.090875
1245.091054
1245.090803
1245.09055
1245.091073
1245.090212
1245.090827
1245.091188
1245.090681
1245.090843
1245.091073
1245.090822
1245.090546
1245.091087
1245.090217
1245.090839
1245.091197
1245.090692
1245.090852
1245.091067
1245.090831
1245.090543
1245.091095
1245.090209
1245.090839
1245.091213
1245.09069
1245.090845
1245.091059
1245.090829
1245.090505
1245.091068
1245.09021
1245.090831
1245.091188
1245.090697
1245.090842
1245.091095
1245.090841
1245.090516
1245.091062
1245.090197
1245.09083
1245.091176
1245.090699
1245.090829
1245.091062
1245.090833
1245.090496
1245.091061
1245.090193
1245.090816
1245.091169
1245.090688
1245.090812
1245.091047
1245.090813
1245.090506
1245.091064
1245.090199
1245.090806
1245.09118
1245.090696
1245.090816
1245.091061
1245.090814
1245.090513
1245.091032
1245.090204
1245.090814
1245.091158
1245.090705
1245.090809
1245.091068
1245.090791
1245.090523
1245.091032
1245.090223
1245.090832
1245.091155
1245.09072
1245.090843
1245.091048
1245.090805
1245.090521
1245.09103
1245.090196
1245.090857
1245.091133
1245.090724
1245.090823
1245.091054
1245.090809
1245.090506
1245.091017
1245.090202
1245.090869
1245.091132
1245.090723
1245.090829
1245.091057
1245.0908
1245.090537
1245.091017
1245.090234
1245.09086
1245.091148
1245.090729
1245.090832
)
;
    }
    side-walls
    {
        type            calculated;
        value           nonuniform List<scalar> 
261
(
1245.090837
1245.09088
1245.090382
1245.09146
1245.091148
1245.089962
1245.090492
1245.09118
1245.090743
1245.090846
1245.090886
1245.09039
1245.091465
1245.091141
1245.089942
1245.090513
1245.091167
1245.090774
1245.090875
1245.090902
1245.090383
1245.091475
1245.091143
1245.089928
1245.0905
1245.091184
1245.09077
1245.090843
1245.090899
1245.090401
1245.091483
1245.091152
1245.089938
1245.090497
1245.091194
1245.090771
1245.090852
1245.090911
1245.090365
1245.09151
1245.091161
1245.089933
1245.090493
1245.091175
1245.090767
1245.090845
1245.090922
1245.09036
1245.091514
1245.09117
1245.089934
1245.090511
1245.091172
1245.090755
1245.090842
1245.09091
1245.09034
1245.091479
1245.091195
1245.089952
1245.090497
1245.091159
1245.090748
1245.090829
1245.090906
1245.090341
1245.091493
1245.091192
1245.089951
1245.090517
1245.091137
1245.090783
1245.090812
1245.090875
1245.090338
1245.091497
1245.091182
1245.089961
1245.090505
1245.091138
1245.090768
1245.090816
1245.090866
1245.090325
1245.091493
1245.09117
1245.089971
1245.090521
1245.091134
1245.090753
1245.090809
1245.090878
1245.090308
1245.091506
1245.09117
1245.089984
1245.09051
1245.091135
1245.090729
1245.090843
1245.090878
1245.090306
1245.091481
1245.091212
1245.08998
1245.090525
1245.091142
1245.090733
1245.090823
1245.090881
1245.090339
1245.09146
1245.091196
1245.089985
1245.090528
1245.091164
1245.090746
1245.090829
1245.090892
1245.09034
1245.091457
1245.091192
1245.089948
1245.090513
1245.091148
1245.090734
1245.090832
1245.090876
1245.090327
1245.09142
1245.091186
1245.089931
1245.090493
1245.09118
1245.090724
1245.090674
1245.090694
1245.091143
1245.090876
1245.090765
1245.091571
1245.091006
1245.090319
1245.090573
1245.090677
1245.090682
1245.091154
1245.090886
1245.090782
1245.091578
1245.091001
1245.090325
1245.090584
1245.090681
1245.090683
1245.091155
1245.090883
1245.090799
1245.091573
1245.090996
1245.090328
1245.0906
1245.090692
1245.090709
1245.091156
1245.090903
1245.090824
1245.091573
1245.090983
1245.090329
1245.090609
1245.09069
1245.09071
1245.091166
1245.090889
1245.090832
1245.091593
1245.090986
1245.090335
1245.09062
1245.090697
1245.090693
1245.091157
1245.090871
1245.090832
1245.091597
1245.090989
1245.090343
1245.090629
1245.090699
1245.090704
1245.091133
1245.090909
1245.090849
1245.091617
1245.090987
1245.090346
1245.090637
1245.090688
1245.090675
1245.091142
1245.090903
1245.090842
1245.091619
1245.090981
1245.090345
1245.090649
1245.090696
1245.090707
1245.091132
1245.090911
1245.09086
1245.091617
1245.090982
1245.090338
1245.090646
1245.090705
1245.090719
1245.09114
1245.090917
1245.090869
1245.091604
1245.091
1245.090317
1245.090648
1245.09072
1245.090678
1245.091128
1245.090886
1245.090883
1245.091584
1245.091018
1245.090306
1245.090629
1245.090724
1245.090655
1245.091127
1245.0909
1245.090862
1245.091552
1245.090997
1245.090288
1245.090648
1245.090723
1245.090682
1245.091105
1245.090883
1245.090845
1245.091553
1245.090984
1245.090313
1245.090658
1245.090729
1245.09067
1245.091107
1245.090876
1245.090844
1245.091545
1245.090972
1245.090309
1245.090653
)
;
    }
    inlet
    {
        type            calculated;
        value           nonuniform List<scalar> 
81
(
1245.090837
1245.09088
1245.090382
1245.09146
1245.091148
1245.089962
1245.090492
1245.09118
1245.090743
1245.091041
1245.091017
1245.091115
1245.091217
1245.09093
1245.091077
1245.091514
1245.09052
1245.091395
1245.090814
1245.090184
1245.090551
1245.090596
1245.091363
1245.090459
1245.091075
1245.091006
1245.090463
1245.090518
1245.090383
1245.090578
1245.090552
1245.090753
1245.090545
1245.090451
1245.091602
1245.090883
1245.091054
1245.090384
1245.091282
1245.091084
1245.091041
1245.091544
1245.090809
1245.090624
1245.090242
1245.090218
1245.090651
1245.090666
1245.090912
1245.091307
1245.090522
1245.09074
1245.090131
1245.090577
1245.090828
1245.091374
1245.091632
1245.090838
1245.090597
1245.090554
1245.090829
1245.090736
1245.090867
1245.091207
1245.090468
1245.090725
1245.090489
1245.090954
1245.091055
1245.090902
1245.090983
1245.090991
1245.090674
1245.090694
1245.091143
1245.090876
1245.090765
1245.091571
1245.091006
1245.090319
1245.090573
)
;
    }
    outlet
    {
        type            calculated;
        value           nonuniform 0();
    }
    procBoundary0to1
    {
        type            processor;
        value           nonuniform List<scalar> 
97
(
1245.09083
1245.091065
1245.090891
1245.090347
1245.091401
1245.09115
1245.089908
1245.0905
1245.091157
1245.090725
1245.091065
1245.091065
1245.09093
1245.090193
1245.091052
1245.091168
1245.090861
1245.090978
1245.091446
1245.09043
1245.091455
1245.09075
1245.090193
1245.090193
1245.090582
1245.09042
1245.09033
1245.090856
1245.090082
1245.090979
1245.090913
1245.090467
1245.090518
1245.090301
1245.09042
1245.09042
1245.089735
1245.088271
1245.087774
1245.089723
1245.090078
1245.091546
1245.090919
1245.090997
1245.090264
1245.090952
1245.088271
1245.088271
1243.932282
1245.088583
1245.088471
1245.089982
1245.090404
1245.090417
1245.090151
1245.090187
1245.090537
1245.090564
1245.09039
1245.088583
1245.089982
1245.089982
1245.09052
1245.090889
1245.090016
1245.090592
1245.090838
1245.091481
1245.091577
1245.090696
1245.090208
1245.090406
1245.090889
1245.090889
1245.090717
1245.090974
1245.090812
1245.091126
1245.090479
1245.090775
1245.09051
1245.090864
1245.091016
1245.090867
1245.090974
1245.090974
1245.090966
1245.090664
1245.090717
1245.090691
1245.091085
1245.090884
1245.09083
1245.091526
1245.090981
1245.090296
1245.090664
)
;
    }
}


// ************************************************************************* //
