/*--------------------------------*- C++ -*----------------------------------*\
| =========                 |                                                 |
| \\      /  F ield         | OpenFOAM: The Open Source CFD Toolbox           |
|  \\    /   O peration     | Version:  4.x                                   |
|   \\  /    A nd           | Web:      www.OpenFOAM.org                      |
|    \\/     M anipulation  |                                                 |
\*---------------------------------------------------------------------------*/
FoamFile
{
    version     2.0;
    format      ascii;
    class       volScalarField;
    location    "4000";
    object      H2;
}
// * * * * * * * * * * * * * * * * * * * * * * * * * * * * * * * * * * * * * //

dimensions      [0 0 0 0 0 0 0];

internalField   nonuniform List<scalar> 
1175
(
0.002172513348
0.002172513348
0.002172513348
0.002172513348
0.002172513347
0.002172513344
0.002172513334
0.002172513303
0.002172513204
0.002172512908
0.002172512068
0.002172509841
0.002172504413
0.002172492445
0.002172468933
0.002172513348
0.002172513348
0.002172513348
0.002172513347
0.002172513346
0.002172513343
0.00217251333
0.002172513286
0.002172513143
0.002172512697
0.002172511376
0.002172507736
0.002172498558
0.002172477876
0.002172437244
0.002172513348
0.002172513348
0.002172513348
0.002172513347
0.002172513346
0.002172513341
0.002172513322
0.002172513256
0.00217251303
0.002172512292
0.002172510004
0.002172503396
0.002172486024
0.002172445735
0.002172366385
0.002172513348
0.002172513348
0.002172513348
0.002172513347
0.002172513345
0.002172513339
0.002172513314
0.002172513223
0.002172512904
0.002172511816
0.0021725083
0.002172497691
0.002172468579
0.002172398716
0.002172260129
0.002172513348
0.002172513348
0.002172513348
0.002172513347
0.002172513345
0.002172513338
0.00217251331
0.002172513208
0.002172512841
0.002172511567
0.002172507349
0.002172494251
0.002172457123
0.002172365206
0.002172180548
0.002172513348
0.002172513348
0.002172513348
0.002172513347
0.002172513345
0.002172513339
0.002172513314
0.002172513223
0.002172512904
0.002172511816
0.0021725083
0.002172497691
0.002172468579
0.002172398718
0.002172260132
0.002172513348
0.002172513348
0.002172513348
0.002172513347
0.002172513346
0.002172513341
0.002172513322
0.002172513256
0.00217251303
0.002172512292
0.002172510004
0.002172503396
0.002172486025
0.002172445735
0.002172366386
0.002172513348
0.002172513348
0.002172513348
0.002172513347
0.002172513346
0.002172513343
0.00217251333
0.002172513286
0.002172513143
0.002172512697
0.002172511376
0.002172507736
0.002172498558
0.002172477877
0.002172437245
0.002172513348
0.002172513348
0.002172513348
0.002172513348
0.002172513347
0.002172513344
0.002172513334
0.002172513303
0.002172513204
0.002172512908
0.002172512068
0.002172509841
0.002172504413
0.002172492446
0.002172468935
0.002172513348
0.002172513348
0.002172513348
0.002172513347
0.002172513346
0.002172513343
0.00217251333
0.002172513286
0.002172513143
0.002172512697
0.002172511376
0.002172507736
0.002172498557
0.002172477875
0.002172513348
0.002172513348
0.002172513348
0.002172513347
0.002172513346
0.002172513341
0.002172513323
0.002172513259
0.002172513039
0.002172512314
0.002172510048
0.002172503445
0.002172485942
0.002172445094
0.002172364575
0.002172513348
0.002172513348
0.002172513348
0.002172513347
0.002172513345
0.002172513338
0.00217251331
0.002172513208
0.002172512836
0.002172511534
0.002172507199
0.002172493728
0.002172455744
0.002172362737
0.002172177489
0.002172513348
0.002172513348
0.002172513348
0.002172513347
0.002172513345
0.002172513335
0.002172513297
0.00217251315
0.00217251259
0.00217251053
0.002172503256
0.002172479131
0.002172406306
0.002172216638
0.002171829467
0.002172513348
0.002172513348
0.002172513348
0.002172513347
0.002172513344
0.002172513333
0.00217251329
0.00217251312
0.002172512459
0.002172509946
0.002172500727
0.002172468616
0.002172365687
0.002172079074
0.002171466872
0.002172513348
0.002172513348
0.002172513348
0.002172513347
0.002172513345
0.002172513335
0.002172513297
0.00217251315
0.00217251259
0.00217251053
0.002172503256
0.002172479131
0.002172406307
0.00217221664
0.002171829472
0.002172513348
0.002172513348
0.002172513348
0.002172513347
0.002172513345
0.002172513338
0.00217251331
0.002172513208
0.002172512836
0.002172511534
0.002172507199
0.002172493728
0.002172455745
0.002172362739
0.002172177494
0.002172513348
0.002172513348
0.002172513348
0.002172513347
0.002172513346
0.002172513341
0.002172513323
0.002172513259
0.002172513039
0.002172512314
0.002172510048
0.002172503445
0.002172485943
0.002172445095
0.002172364579
0.002172513348
0.002172513348
0.002172513348
0.002172513347
0.002172513346
0.002172513343
0.00217251333
0.002172513286
0.002172513143
0.002172512697
0.002172511376
0.002172507736
0.002172498558
0.002172477877
0.002172437245
0.002172513348
0.002172513348
0.002172513348
0.002172513347
0.002172513346
0.002172513341
0.002172513322
0.002172513256
0.00217251303
0.002172512292
0.002172510004
0.002172503395
0.002172486024
0.002172445733
0.002172513348
0.002172513348
0.002172513348
0.002172513347
0.002172513345
0.002172513338
0.00217251331
0.002172513208
0.002172512836
0.002172511534
0.002172507199
0.002172493728
0.002172455744
0.002172362734
0.002172513348
0.002172513348
0.002172513348
0.002172513347
0.002172513344
0.002172513333
0.002172513289
0.002172513114
0.002172512434
0.002172509876
0.002172500651
0.00217246942
0.002172373416
0.002172119924
0.002171600296
0.002172513348
0.002172513348
0.002172513348
0.002172513347
0.002172513343
0.002172513328
0.002172513264
0.002172512999
0.002172511911
0.002172507527
0.002172490426
0.002172427066
0.002172211613
0.002171580957
0.002170201457
0.002172513348
0.002172513348
0.002172513347
0.002172513347
0.002172513343
0.002172513325
0.002172513252
0.002172512937
0.002172511602
0.002172505981
0.002172482736
0.002172389706
0.002172039712
0.002170876617
0.002167989438
0.002172513348
0.002172513348
0.002172513348
0.002172513347
0.002172513343
0.002172513328
0.002172513264
0.002172512999
0.002172511911
0.002172507527
0.002172490426
0.002172427066
0.002172211615
0.002171580967
0.002170201483
0.002172513348
0.002172513348
0.002172513348
0.002172513347
0.002172513344
0.002172513333
0.002172513289
0.002172513114
0.002172512434
0.002172509876
0.002172500651
0.00217246942
0.002172373418
0.002172119932
0.00217160032
0.002172513348
0.002172513348
0.002172513348
0.002172513347
0.002172513345
0.002172513338
0.00217251331
0.002172513208
0.002172512836
0.002172511534
0.002172507199
0.002172493728
0.002172455745
0.002172362739
0.002172177494
0.002172513348
0.002172513348
0.002172513348
0.002172513347
0.002172513346
0.002172513341
0.002172513322
0.002172513256
0.00217251303
0.002172512292
0.002172510004
0.002172503396
0.002172486025
0.002172445735
0.002172366386
0.002172513348
0.002172513348
0.002172513348
0.002172513347
0.002172513345
0.002172513339
0.002172513314
0.002172513223
0.002172512904
0.002172511816
0.0021725083
0.002172497691
0.002172468578
0.002172398714
0.002172513348
0.002172513348
0.002172513348
0.002172513347
0.002172513345
0.002172513335
0.002172513297
0.00217251315
0.00217251259
0.00217251053
0.002172503256
0.00217247913
0.002172406304
0.002172216631
0.002172513348
0.002172513348
0.002172513348
0.002172513347
0.002172513343
0.002172513328
0.002172513264
0.002172512999
0.002172511911
0.002172507527
0.002172490426
0.002172427065
0.002172211608
0.002171580936
0.002172513348
0.002172513348
0.002172513347
0.002172513346
0.002172513341
0.00217251332
0.002172513225
0.002172512805
0.002172510956
0.002172502839
0.002172467741
0.002172320635
0.0021717415
0.002169736998
0.002164627003
0.002172513348
0.002172513348
0.002172513347
0.002172513346
0.002172513341
0.002172513316
0.002172513204
0.002172512693
0.002172510333
0.002172499312
0.002172447387
0.0021722024
0.002171066045
0.002166128398
0.002149036347
0.002172513348
0.002172513348
0.002172513347
0.002172513346
0.002172513341
0.00217251332
0.002172513225
0.002172512805
0.002172510956
0.002172502839
0.002172467741
0.002172320637
0.002171741508
0.002169737039
0.002164627168
0.002172513348
0.002172513348
0.002172513348
0.002172513347
0.002172513343
0.002172513328
0.002172513264
0.002172512999
0.002172511911
0.002172507527
0.002172490426
0.002172427066
0.002172211614
0.002171580965
0.002170201482
0.002172513348
0.002172513348
0.002172513348
0.002172513347
0.002172513345
0.002172513335
0.002172513297
0.00217251315
0.00217251259
0.00217251053
0.002172503256
0.002172479131
0.002172406306
0.002172216639
0.002171829471
0.002172513348
0.002172513348
0.002172513348
0.002172513347
0.002172513345
0.002172513339
0.002172513314
0.002172513223
0.002172512904
0.002172511816
0.0021725083
0.002172497691
0.002172468579
0.002172398717
0.002172260131
0.002172513348
0.002172513348
0.002172513348
0.002172513347
0.002172513345
0.002172513338
0.00217251331
0.002172513208
0.002172512841
0.002172511567
0.002172507349
0.002172494251
0.002172457122
0.002172365202
0.002172513348
0.002172513348
0.002172513348
0.002172513347
0.002172513344
0.002172513333
0.00217251329
0.00217251312
0.002172512459
0.002172509946
0.002172500726
0.002172468615
0.002172365684
0.002172079062
0.002172513348
0.002172513348
0.002172513347
0.002172513347
0.002172513343
0.002172513325
0.002172513252
0.002172512937
0.002172511602
0.002172505981
0.002172482736
0.002172389704
0.002172039701
0.002170876568
0.002172513348
0.002172513348
0.002172513347
0.002172513346
0.002172513341
0.002172513316
0.002172513204
0.002172512693
0.002172510333
0.002172499312
0.002172447387
0.002172202396
0.002171066016
0.002166128213
0.002172513348
0.002172513348
0.002172513347
0.002172513346
0.00217251334
0.002172513311
0.002172513178
0.002172512543
0.002172509436
0.002172493664
0.002172409791
0.002171937555
0.002169094348
0.002150669032
0.002021439917
0.002172513348
0.002172513348
0.002172513347
0.002172513346
0.002172513341
0.002172513316
0.002172513204
0.002172512693
0.002172510333
0.002172499312
0.002172447387
0.002172202398
0.002171066035
0.002166128364
0.002149036278
0.002172513348
0.002172513348
0.002172513347
0.002172513347
0.002172513343
0.002172513325
0.002172513252
0.002172512937
0.002172511602
0.002172505981
0.002172482736
0.002172389705
0.00217203971
0.002170876609
0.002167989426
0.002172513348
0.002172513348
0.002172513348
0.002172513347
0.002172513344
0.002172513333
0.00217251329
0.00217251312
0.002172512459
0.002172509946
0.002172500727
0.002172468615
0.002172365687
0.002172079072
0.002171466871
0.002172513348
0.002172513348
0.002172513348
0.002172513347
0.002172513345
0.002172513338
0.00217251331
0.002172513208
0.002172512841
0.002172511567
0.002172507349
0.002172494251
0.002172457123
0.002172365206
0.002172180548
0.002172513348
0.002172513348
0.002172513348
0.002172513347
0.002172513345
0.002172513339
0.002172513314
0.002172513223
0.002172512904
0.002172511816
0.0021725083
0.002172497691
0.002172468578
0.002172398714
0.002172513348
0.002172513348
0.002172513348
0.002172513347
0.002172513345
0.002172513335
0.002172513297
0.00217251315
0.00217251259
0.00217251053
0.002172503256
0.00217247913
0.002172406304
0.002172216632
0.002172513348
0.002172513348
0.002172513348
0.002172513347
0.002172513343
0.002172513328
0.002172513264
0.002172512999
0.002172511911
0.002172507527
0.002172490425
0.002172427064
0.002172211606
0.002171580937
0.002172513348
0.002172513348
0.002172513347
0.002172513346
0.002172513341
0.00217251332
0.002172513225
0.002172512805
0.002172510956
0.002172502839
0.00217246774
0.002172320632
0.002171741488
0.002169736957
0.002172513348
0.002172513348
0.002172513347
0.002172513346
0.002172513341
0.002172513316
0.002172513204
0.002172512693
0.002172510333
0.002172499312
0.002172447386
0.002172202394
0.002171066011
0.0021661282
0.002172513348
0.002172513348
0.002172513347
0.002172513346
0.002172513341
0.00217251332
0.002172513225
0.002172512805
0.002172510956
0.002172502839
0.00217246774
0.002172320634
0.002171741492
0.002169736965
0.002172513348
0.002172513348
0.002172513348
0.002172513347
0.002172513343
0.002172513328
0.002172513264
0.002172512999
0.002172511911
0.002172507527
0.002172490426
0.002172427065
0.002172211609
0.002171580947
0.002170201428
0.002172513348
0.002172513348
0.002172513348
0.002172513347
0.002172513345
0.002172513335
0.002172513297
0.00217251315
0.00217251259
0.00217251053
0.002172503256
0.002172479131
0.002172406305
0.002172216636
0.002171829464
0.002172513348
0.002172513348
0.002172513348
0.002172513347
0.002172513345
0.002172513339
0.002172513314
0.002172513223
0.002172512904
0.002172511816
0.0021725083
0.002172497691
0.002172468579
0.002172398716
0.00217226013
0.002172513348
0.002172513348
0.002172513348
0.002172513347
0.002172513346
0.002172513341
0.002172513322
0.002172513256
0.00217251303
0.002172512292
0.002172510004
0.002172503395
0.002172486024
0.002172445733
0.002172513348
0.002172513348
0.002172513348
0.002172513347
0.002172513345
0.002172513338
0.00217251331
0.002172513208
0.002172512836
0.002172511534
0.002172507199
0.002172493728
0.002172455743
0.002172362734
0.002172513348
0.002172513348
0.002172513348
0.002172513347
0.002172513344
0.002172513333
0.002172513289
0.002172513114
0.002172512434
0.002172509876
0.00217250065
0.002172469419
0.002172373414
0.002172119919
0.002172513348
0.002172513348
0.002172513348
0.002172513347
0.002172513343
0.002172513328
0.002172513264
0.002172512999
0.002172511911
0.002172507527
0.002172490425
0.002172427064
0.002172211606
0.002171580937
0.002172513348
0.002172513348
0.002172513347
0.002172513347
0.002172513343
0.002172513325
0.002172513252
0.002172512937
0.002172511602
0.002172505981
0.002172482736
0.002172389703
0.0021720397
0.002170876571
0.002172513348
0.002172513348
0.002172513348
0.002172513347
0.002172513343
0.002172513328
0.002172513264
0.002172512999
0.002172511911
0.002172507527
0.002172490426
0.002172427064
0.002172211607
0.002171580941
0.002172513348
0.002172513348
0.002172513348
0.002172513347
0.002172513344
0.002172513333
0.002172513289
0.002172513114
0.002172512434
0.002172509876
0.00217250065
0.002172469419
0.002172373415
0.002172119919
0.002172513348
0.002172513348
0.002172513348
0.002172513347
0.002172513345
0.002172513338
0.00217251331
0.002172513208
0.002172512836
0.002172511534
0.002172507199
0.002172493728
0.002172455744
0.002172362736
0.002172177486
0.002172513348
0.002172513348
0.002172513348
0.002172513347
0.002172513346
0.002172513341
0.002172513322
0.002172513256
0.00217251303
0.002172512292
0.002172510004
0.002172503395
0.002172486024
0.002172445734
0.002172366384
0.002172513348
0.002172513348
0.002172513348
0.002172513347
0.002172513346
0.002172513343
0.00217251333
0.002172513286
0.002172513143
0.002172512697
0.002172511376
0.002172507736
0.002172498557
0.002172477876
0.002172513348
0.002172513348
0.002172513348
0.002172513347
0.002172513346
0.002172513341
0.002172513323
0.002172513259
0.002172513039
0.002172512314
0.002172510047
0.002172503445
0.002172485942
0.002172445093
0.002172513348
0.002172513348
0.002172513348
0.002172513347
0.002172513345
0.002172513338
0.00217251331
0.002172513208
0.002172512836
0.002172511534
0.002172507199
0.002172493728
0.002172455743
0.002172362734
0.002172513348
0.002172513348
0.002172513348
0.002172513347
0.002172513345
0.002172513335
0.002172513297
0.00217251315
0.00217251259
0.00217251053
0.002172503256
0.00217247913
0.002172406303
0.002172216632
0.002172513348
0.002172513348
0.002172513348
0.002172513347
0.002172513344
0.002172513333
0.00217251329
0.00217251312
0.002172512459
0.002172509946
0.002172500726
0.002172468615
0.002172365683
0.002172079062
0.002172513348
0.002172513348
0.002172513348
0.002172513347
0.002172513345
0.002172513335
0.002172513297
0.00217251315
0.00217251259
0.00217251053
0.002172503256
0.00217247913
0.002172406304
0.002172216632
0.002172513348
0.002172513348
0.002172513348
0.002172513347
0.002172513345
0.002172513338
0.00217251331
0.002172513208
0.002172512836
0.002172511534
0.002172507199
0.002172493728
0.002172455744
0.002172362734
0.002172513348
0.002172513348
0.002172513348
0.002172513347
0.002172513346
0.002172513341
0.002172513323
0.002172513259
0.002172513039
0.002172512314
0.002172510047
0.002172503445
0.002172485942
0.002172445093
0.002172513348
0.002172513348
0.002172513348
0.002172513347
0.002172513346
0.002172513343
0.00217251333
0.002172513286
0.002172513143
0.002172512697
0.002172511376
0.002172507736
0.002172498557
0.002172477876
0.002172437243
0.002172513348
0.002172513348
0.002172513348
0.002172513348
0.002172513347
0.002172513344
0.002172513334
0.002172513303
0.002172513204
0.002172512908
0.002172512068
0.002172509841
0.002172504413
0.002172492445
0.002172513348
0.002172513348
0.002172513348
0.002172513347
0.002172513346
0.002172513343
0.00217251333
0.002172513286
0.002172513143
0.002172512697
0.002172511376
0.002172507736
0.002172498557
0.002172477876
0.002172513348
0.002172513348
0.002172513348
0.002172513347
0.002172513346
0.002172513341
0.002172513322
0.002172513256
0.00217251303
0.002172512292
0.002172510004
0.002172503395
0.002172486024
0.002172445733
0.002172513348
0.002172513348
0.002172513348
0.002172513347
0.002172513345
0.002172513339
0.002172513314
0.002172513223
0.002172512904
0.002172511816
0.0021725083
0.002172497691
0.002172468578
0.002172398714
0.002172513348
0.002172513348
0.002172513348
0.002172513347
0.002172513345
0.002172513338
0.00217251331
0.002172513208
0.002172512841
0.002172511567
0.002172507349
0.002172494251
0.002172457122
0.002172365202
0.002172513348
0.002172513348
0.002172513348
0.002172513347
0.002172513345
0.002172513339
0.002172513314
0.002172513223
0.002172512904
0.002172511816
0.0021725083
0.002172497691
0.002172468577
0.002172398714
0.002172513348
0.002172513348
0.002172513348
0.002172513347
0.002172513346
0.002172513341
0.002172513322
0.002172513256
0.00217251303
0.002172512292
0.002172510004
0.002172503395
0.002172486024
0.002172445733
0.002172513348
0.002172513348
0.002172513348
0.002172513347
0.002172513346
0.002172513343
0.00217251333
0.002172513286
0.002172513143
0.002172512697
0.002172511376
0.002172507736
0.002172498557
0.002172477876
0.002172513348
0.002172513348
0.002172513348
0.002172513348
0.002172513347
0.002172513344
0.002172513334
0.002172513303
0.002172513204
0.002172512908
0.002172512068
0.002172509841
0.002172504413
0.002172492445
)
;

boundaryField
{
    top
    {
        type            zeroGradient;
    }
    bottom
    {
        type            zeroGradient;
    }
    side-walls
    {
        type            zeroGradient;
    }
    inlet
    {
        type            zeroGradient;
    }
    outlet
    {
        type            zeroGradient;
    }
    procBoundary0to1
    {
        type            processor;
        value           nonuniform List<scalar> 
97
(
0.002172428071
0.002172437243
0.002172368627
0.002172237484
0.002172045634
0.002171908893
0.002172045638
0.002172237487
0.002172368629
0.002172428072
0.002172437243
0.002172437243
0.002172234868
0.002172177485
0.002171898813
0.002171302622
0.002170741213
0.002171302629
0.00217189882
0.002172234873
0.002172368629
0.002172366384
0.002172177485
0.002172177485
0.002170907947
0.002170201418
0.002168708216
0.002165832796
0.002168708242
0.002170907969
0.00217189882
0.002172237487
0.002172260128
0.00217182946
0.002170201418
0.002170201418
0.002161180163
0.002149036136
0.00214643776
0.002161180259
0.002168708243
0.002171302628
0.002172045637
0.002172180545
0.002171466862
0.002167989387
0.002149036136
0.002149036136
0.002083029297
0.002149036135
0.002146437737
0.002164627079
0.002165832791
0.002170741215
0.002171908896
0.002172260129
0.002171829464
0.002170201451
0.002164627093
0.002149036135
0.002164627079
0.002164627079
0.002168708209
0.002171600297
0.002171302623
0.002172045636
0.002172366384
0.00217217749
0.002171600307
0.002170201454
0.0021679894
0.00217020146
0.002171600297
0.002171600297
0.002171898814
0.002172364575
0.002172237484
0.002172437245
0.002172364578
0.00217217749
0.002171829465
0.002171466864
0.002171829466
0.002172177489
0.002172364575
0.002172364575
0.002172368627
0.002172468934
0.002172468934
0.002172437245
0.002172366384
0.002172260129
0.002172180545
0.002172260128
0.002172366384
0.002172437244
0.002172468934
)
;
    }
}


// ************************************************************************* //
