/*--------------------------------*- C++ -*----------------------------------*\
| =========                 |                                                 |
| \\      /  F ield         | OpenFOAM: The Open Source CFD Toolbox           |
|  \\    /   O peration     | Version:  4.x                                   |
|   \\  /    A nd           | Web:      www.OpenFOAM.org                      |
|    \\/     M anipulation  |                                                 |
\*---------------------------------------------------------------------------*/
FoamFile
{
    version     2.0;
    format      ascii;
    class       volScalarField;
    location    "4000";
    object      H2O;
}
// * * * * * * * * * * * * * * * * * * * * * * * * * * * * * * * * * * * * * //

dimensions      [0 0 0 0 0 0 0];

internalField   nonuniform List<scalar> 
1175
(
9.998644797e-07
9.998645542e-07
9.998650571e-07
9.998669816e-07
9.99873752e-07
9.998976111e-07
9.999782493e-07
1.000241965e-06
1.001071846e-06
1.003564161e-06
1.010638367e-06
1.029382144e-06
1.075065996e-06
1.175807511e-06
1.37374816e-06
9.998645451e-07
9.998646801e-07
9.998652422e-07
9.998675963e-07
9.998762112e-07
9.999072728e-07
1.000015739e-06
1.000383239e-06
1.001585082e-06
1.005342881e-06
1.016456578e-06
1.047092752e-06
1.124340794e-06
1.298415764e-06
1.640451681e-06
9.998647024e-07
9.998648267e-07
9.998655699e-07
9.998685065e-07
9.998803822e-07
9.999238985e-07
1.00008141e-06
1.000637416e-06
1.002535166e-06
1.008746528e-06
1.028003793e-06
1.083616204e-06
1.229806026e-06
1.56889162e-06
2.236792647e-06
9.99864854e-07
9.99865039e-07
9.998659623e-07
9.998697056e-07
9.998844345e-07
9.999406356e-07
1.000149902e-06
1.000911429e-06
1.003602552e-06
1.012754901e-06
1.042338843e-06
1.131613308e-06
1.376600976e-06
1.964532084e-06
3.130957157e-06
9.998648707e-07
9.998651085e-07
9.998661063e-07
9.998702578e-07
9.998862721e-07
9.999480603e-07
1.000180967e-06
1.001040698e-06
1.004129747e-06
1.014847641e-06
1.050339064e-06
1.160558382e-06
1.472984156e-06
2.246486927e-06
3.800592976e-06
9.998647895e-07
9.99864962e-07
9.998659446e-07
9.998696884e-07
9.998844812e-07
9.999406587e-07
1.000149895e-06
1.000911321e-06
1.003602535e-06
1.012754787e-06
1.042338394e-06
1.131611672e-06
1.376595121e-06
1.964515521e-06
3.130917055e-06
9.99864557e-07
9.998647177e-07
9.998654875e-07
9.998685089e-07
9.998803687e-07
9.999238597e-07
1.000081439e-06
1.000637391e-06
1.002535114e-06
1.008746463e-06
1.028003463e-06
1.083614604e-06
1.229800197e-06
1.568873759e-06
2.236749422e-06
9.998644046e-07
9.998645042e-07
9.998651315e-07
9.998675001e-07
9.998761229e-07
9.999071636e-07
1.000015711e-06
1.000383365e-06
1.001585045e-06
1.005342722e-06
1.016456145e-06
1.047091136e-06
1.124335028e-06
1.298398393e-06
1.640410716e-06
9.99864432e-07
9.998644922e-07
9.998649194e-07
9.998667951e-07
9.998737106e-07
9.998976049e-07
9.999781904e-07
1.000241781e-06
1.001071666e-06
1.003563974e-06
1.01063787e-06
1.029380645e-06
1.075060619e-06
1.175790769e-06
1.373706613e-06
9.998645882e-07
9.998646306e-07
9.998653486e-07
9.99867622e-07
9.998762566e-07
9.999072909e-07
1.000015599e-06
1.000383397e-06
1.001585211e-06
1.005342981e-06
1.016456957e-06
1.047094656e-06
1.124348475e-06
1.298446079e-06
9.99864717e-07
9.998648215e-07
9.998654951e-07
9.998685409e-07
9.998796777e-07
9.99921577e-07
1.000073681e-06
1.000612976e-06
1.002464026e-06
1.008565473e-06
1.027637932e-06
1.083202951e-06
1.230506091e-06
1.574315828e-06
2.252107912e-06
9.998648354e-07
9.998649659e-07
9.998658429e-07
9.998700075e-07
9.998857425e-07
9.999467525e-07
1.000178729e-06
1.001042565e-06
1.004175072e-06
1.015131211e-06
1.051604269e-06
1.164965473e-06
1.484607345e-06
2.267334716e-06
3.826503201e-06
9.998649516e-07
9.998651971e-07
9.998664867e-07
9.998713708e-07
9.998917227e-07
9.99972968e-07
1.00029287e-06
1.001532546e-06
1.006238157e-06
1.023575491e-06
1.084783465e-06
1.287785328e-06
1.900580423e-06
3.496628549e-06
6.754985735e-06
9.998649784e-07
9.998652972e-07
9.998665889e-07
9.998720567e-07
9.99894483e-07
9.999849352e-07
1.00034717e-06
1.001778546e-06
1.007344472e-06
1.028484646e-06
1.10606359e-06
1.376252253e-06
2.242314174e-06
4.6539981e-06
9.805740442e-06
9.998647554e-07
9.998651367e-07
9.998663224e-07
9.998713092e-07
9.998916614e-07
9.999729102e-07
1.000292782e-06
1.001532567e-06
1.006238212e-06
1.023575396e-06
1.084782813e-06
1.287782433e-06
1.900566852e-06
3.49657726e-06
6.754844292e-06
9.998646126e-07
9.998648921e-07
9.9986593e-07
9.998698919e-07
9.998856995e-07
9.999466633e-07
1.000178586e-06
1.001042571e-06
1.00417508e-06
1.015130973e-06
1.051603687e-06
1.164961657e-06
1.484590106e-06
2.267272169e-06
3.82633754e-06
9.998645289e-07
9.998646026e-07
9.998653456e-07
9.998683124e-07
9.998796702e-07
9.999214989e-07
1.000073625e-06
1.000612779e-06
1.002463775e-06
1.008565237e-06
1.027636974e-06
1.08319901e-06
1.230490539e-06
1.574261149e-06
2.25195568e-06
9.998644287e-07
9.998644831e-07
9.998651885e-07
9.998674871e-07
9.998761915e-07
9.999071753e-07
1.000015663e-06
1.000383207e-06
1.001585027e-06
1.005342777e-06
1.016456262e-06
1.047091614e-06
1.124336481e-06
1.298400531e-06
1.640413296e-06
9.998647129e-07
9.998648785e-07
9.998655993e-07
9.998686586e-07
9.998803391e-07
9.999238799e-07
1.000081458e-06
1.000637484e-06
1.002535306e-06
1.008746787e-06
1.028005636e-06
1.083622761e-06
1.229829309e-06
1.568969501e-06
9.998647624e-07
9.998649579e-07
9.998659512e-07
9.998699452e-07
9.998857622e-07
9.999467323e-07
1.00017869e-06
1.001042672e-06
1.004175157e-06
1.015131578e-06
1.051606136e-06
1.164972579e-06
1.484636799e-06
2.267461642e-06
9.998649988e-07
9.998652227e-07
9.998665633e-07
9.998721066e-07
9.99894948e-07
9.999879568e-07
1.000360817e-06
1.001835705e-06
1.007552745e-06
1.029075467e-06
1.106707883e-06
1.36950537e-06
2.177371982e-06
4.310611287e-06
8.68402611e-06
9.998653357e-07
9.998656247e-07
9.998672761e-07
9.998743133e-07
9.999048711e-07
1.000032875e-06
1.000569231e-06
1.002798855e-06
1.011956769e-06
1.048839673e-06
1.192734592e-06
1.725855729e-06
3.538724427e-06
8.845331662e-06
2.045399629e-05
9.99865143e-07
9.99865492e-07
9.998672931e-07
9.998751978e-07
9.999091523e-07
1.00005423e-06
1.000674039e-06
1.003318899e-06
1.014554079e-06
1.061845501e-06
1.257426345e-06
2.040161694e-06
4.984894622e-06
1.477082353e-05
3.906380276e-05
9.998648378e-07
9.998653012e-07
9.998670022e-07
9.998741983e-07
9.99904678e-07
1.000032717e-06
1.000569087e-06
1.002798926e-06
1.011956645e-06
1.048839456e-06
1.192732882e-06
1.725844983e-06
3.538666029e-06
8.845067596e-06
2.045314818e-05
9.998647292e-07
9.998651466e-07
9.998663844e-07
9.998719318e-07
9.998948565e-07
9.999878389e-07
1.000360765e-06
1.001835605e-06
1.007552594e-06
1.029075105e-06
1.106705778e-06
1.36949264e-06
2.177307534e-06
4.310336031e-06
8.683138463e-06
9.998647409e-07
9.99864877e-07
9.998658227e-07
9.998697134e-07
9.998855811e-07
9.999465418e-07
1.000178507e-06
1.001042511e-06
1.004174987e-06
1.015131176e-06
1.051604341e-06
1.164963621e-06
1.484594309e-06
2.267278861e-06
3.826341694e-06
9.998645865e-07
9.99864768e-07
9.99865473e-07
9.998684648e-07
9.998803232e-07
9.999237425e-07
1.000081338e-06
1.000637405e-06
1.002535101e-06
1.008746635e-06
1.028004293e-06
1.083616593e-06
1.229804525e-06
1.568880926e-06
2.23675686e-06
9.998648275e-07
9.998649695e-07
9.99865861e-07
9.998696576e-07
9.998843922e-07
9.999406454e-07
1.000149925e-06
1.000911566e-06
1.003602879e-06
1.012755931e-06
1.042342608e-06
1.131627098e-06
1.376648815e-06
1.964683384e-06
9.998648813e-07
9.998651913e-07
9.998664403e-07
9.998713799e-07
9.998917261e-07
9.999729199e-07
1.000292898e-06
1.001532625e-06
1.006238556e-06
1.023576842e-06
1.08478922e-06
1.287809514e-06
1.900677211e-06
3.49699068e-06
9.998651426e-07
9.998655717e-07
9.998671119e-07
9.998742069e-07
9.999046089e-07
1.000032817e-06
1.000569244e-06
1.00279895e-06
1.01195689e-06
1.048841241e-06
1.192742604e-06
1.725893937e-06
3.538907241e-06
8.846217079e-06
9.998653668e-07
9.998656725e-07
9.998677789e-07
9.998771628e-07
9.99918511e-07
1.000100207e-06
1.00089989e-06
1.004428258e-06
1.019993339e-06
1.088288708e-06
1.383604294e-06
2.621333903e-06
7.494133405e-06
2.436019598e-05
6.735920525e-05
9.998653088e-07
9.99865743e-07
9.998680912e-07
9.998784632e-07
9.999250669e-07
1.000133595e-06
1.001075427e-06
1.005375114e-06
1.025231226e-06
1.117961703e-06
1.554831937e-06
3.616006337e-06
1.317643083e-05
5.471746012e-05
0.0001985160485
9.998650834e-07
9.998654885e-07
9.998676694e-07
9.99877069e-07
9.999186101e-07
1.000100147e-06
1.000899723e-06
1.0044282e-06
1.019993451e-06
1.088288224e-06
1.383599699e-06
2.62129931e-06
7.493901424e-06
2.435885435e-05
6.735318924e-05
9.998648629e-07
9.998651487e-07
9.998668024e-07
9.998741096e-07
9.999045213e-07
1.000032656e-06
1.000569135e-06
1.002798955e-06
1.01195688e-06
1.048840373e-06
1.192736822e-06
1.72585825e-06
3.538704885e-06
8.845150701e-06
2.04532045e-05
9.998648344e-07
9.99865063e-07
9.998662547e-07
9.998712221e-07
9.998916963e-07
9.999728302e-07
1.000292739e-06
1.001532568e-06
1.006238442e-06
1.023576285e-06
1.08478588e-06
1.287791336e-06
1.900589506e-06
3.496619652e-06
6.754878711e-06
9.998646639e-07
9.998648738e-07
9.998658898e-07
9.998695962e-07
9.998842879e-07
9.99940541e-07
1.000149813e-06
1.000911456e-06
1.003602536e-06
1.012755357e-06
1.042340262e-06
1.131617072e-06
1.376607792e-06
1.964537582e-06
3.130939529e-06
9.998648821e-07
9.998650527e-07
9.998659869e-07
9.998700524e-07
9.998861361e-07
9.999480126e-07
1.000181017e-06
1.001040791e-06
1.004130028e-06
1.014849107e-06
1.050344737e-06
1.160579498e-06
1.473056387e-06
2.246708012e-06
9.998650387e-07
9.998653109e-07
9.998665301e-07
9.998719392e-07
9.998942722e-07
9.999848203e-07
1.000347194e-06
1.001778729e-06
1.007344894e-06
1.028487135e-06
1.106074108e-06
1.376296368e-06
2.242490882e-06
4.654636464e-06
9.998651762e-07
9.998655543e-07
9.998672593e-07
9.998750896e-07
9.999091132e-07
1.000054167e-06
1.000674134e-06
1.00331907e-06
1.014554877e-06
1.061849756e-06
1.257447237e-06
2.040264528e-06
4.985395307e-06
1.477313092e-05
9.998652961e-07
9.998657148e-07
9.998680556e-07
9.998783848e-07
9.999250384e-07
1.000133511e-06
1.001075349e-06
1.005375132e-06
1.025232068e-06
1.117966608e-06
1.554859822e-06
3.616174063e-06
1.317749816e-05
5.472466871e-05
9.998653658e-07
9.998657453e-07
9.998683127e-07
9.998798656e-07
9.999325899e-07
1.000173658e-06
1.001296111e-06
1.006636314e-06
1.032775927e-06
1.165480137e-06
1.871141139e-06
5.844156478e-06
2.976389896e-05
0.000184771082
0.001271920451
9.99865336e-07
9.998657952e-07
9.998679784e-07
9.998784298e-07
9.999249614e-07
1.000133504e-06
1.00107529e-06
1.005375181e-06
1.025232119e-06
1.11796576e-06
1.554850969e-06
3.616094494e-06
1.317681782e-05
5.471887039e-05
0.0001985176216
9.998650919e-07
9.99865434e-07
9.998671499e-07
9.998751123e-07
9.999089879e-07
1.00005414e-06
1.0006742e-06
1.00331911e-06
1.01455484e-06
1.061848404e-06
1.25743834e-06
2.040208138e-06
4.985054355e-06
1.477124278e-05
3.906417339e-05
9.998648298e-07
9.998651247e-07
9.998663942e-07
9.998718761e-07
9.998942722e-07
9.99984949e-07
1.000347153e-06
1.001778773e-06
1.007344855e-06
1.028486263e-06
1.106069011e-06
1.376270395e-06
2.242365857e-06
4.654104704e-06
9.805822079e-06
9.998646921e-07
9.998649139e-07
9.99865975e-07
9.998700682e-07
9.998861135e-07
9.999479505e-07
1.0001809e-06
1.00104061e-06
1.004129906e-06
1.014848462e-06
1.050341697e-06
1.160566149e-06
1.473002602e-06
2.246519598e-06
3.800615642e-06
9.998647803e-07
9.998649693e-07
9.998658509e-07
9.998697419e-07
9.998844509e-07
9.999405778e-07
1.000149896e-06
1.000911576e-06
1.003602957e-06
1.012756398e-06
1.042344128e-06
1.131631226e-06
1.376657246e-06
1.964692071e-06
9.998649862e-07
9.998652606e-07
9.998664606e-07
9.998714817e-07
9.998916638e-07
9.999728748e-07
1.000292801e-06
1.001532722e-06
1.006238818e-06
1.023577842e-06
1.084793043e-06
1.28782149e-06
1.900707294e-06
3.497025653e-06
9.998651856e-07
9.998654916e-07
9.998670744e-07
9.99874057e-07
9.999045063e-07
1.00003277e-06
1.000569261e-06
1.002798995e-06
1.011957573e-06
1.048843934e-06
1.19275341e-06
1.725934584e-06
3.53903729e-06
8.846447525e-06
9.998652787e-07
9.99865712e-07
9.998676578e-07
9.998770744e-07
9.99918496e-07
1.000100075e-06
1.000899798e-06
1.004428477e-06
1.019994638e-06
1.08829442e-06
1.383631281e-06
2.621459672e-06
7.494703638e-06
2.436258969e-05
9.998653218e-07
9.998657633e-07
9.998679281e-07
9.998783204e-07
9.999250605e-07
1.000133531e-06
1.001075412e-06
1.005375244e-06
1.025232753e-06
1.117969914e-06
1.554875694e-06
3.616247127e-06
1.317781313e-05
5.472570412e-05
9.998652427e-07
9.998656019e-07
9.9986768e-07
9.998771142e-07
9.99918394e-07
1.000100115e-06
1.000899899e-06
1.004428488e-06
1.019994505e-06
1.088293453e-06
1.383625502e-06
2.621426129e-06
7.494526694e-06
2.436190685e-05
9.998650618e-07
9.998654622e-07
9.998670118e-07
9.998741558e-07
9.999045828e-07
1.000032864e-06
1.000569406e-06
1.002799065e-06
1.011957489e-06
1.048843059e-06
1.192748021e-06
1.725904684e-06
3.538889579e-06
8.845814009e-06
2.045531201e-05
9.998648492e-07
9.998650749e-07
9.998663082e-07
9.998712632e-07
9.998916532e-07
9.99972884e-07
1.000292679e-06
1.001532691e-06
1.006238667e-06
1.023577138e-06
1.084789233e-06
1.28780379e-06
1.900632959e-06
3.496751222e-06
6.755182331e-06
9.99864732e-07
9.9986486e-07
9.998657951e-07
9.998696026e-07
9.998844759e-07
9.999405321e-07
1.000149843e-06
1.000911479e-06
1.003602771e-06
1.012755878e-06
1.042341731e-06
1.131621297e-06
1.376620399e-06
1.964569573e-06
3.130999312e-06
9.998646867e-07
9.99864863e-07
9.998656448e-07
9.998685891e-07
9.998803976e-07
9.999238888e-07
1.000081442e-06
1.000637526e-06
1.002535441e-06
1.008747587e-06
1.028007542e-06
1.08362781e-06
1.229839686e-06
1.568979567e-06
9.998649509e-07
9.998649906e-07
9.998659074e-07
9.998697313e-07
9.998856188e-07
9.999466221e-07
1.000178678e-06
1.001042616e-06
1.004175512e-06
1.015132883e-06
1.051610709e-06
1.164986082e-06
1.484669885e-06
2.267503195e-06
9.998651566e-07
9.998652855e-07
9.998665399e-07
9.998720785e-07
9.998949625e-07
9.999879293e-07
1.00036082e-06
1.001835848e-06
1.007553504e-06
1.029078297e-06
1.106718762e-06
1.369543867e-06
2.177492531e-06
4.310929497e-06
9.998650644e-07
9.99865351e-07
9.998670244e-07
9.99874148e-07
9.999046355e-07
1.000032826e-06
1.00056928e-06
1.002799123e-06
1.011957836e-06
1.048844805e-06
1.192756648e-06
1.725944635e-06
3.539060938e-06
8.846464687e-06
9.99865072e-07
9.998653401e-07
9.998672205e-07
9.99875129e-07
9.999090377e-07
1.000054149e-06
1.000674116e-06
1.003319214e-06
1.0145556e-06
1.061852263e-06
1.257456739e-06
2.040298364e-06
4.985492842e-06
1.477323743e-05
9.998651323e-07
9.998653522e-07
9.998670232e-07
9.99874251e-07
9.999046628e-07
1.000032856e-06
1.00056929e-06
1.002799072e-06
1.01195782e-06
1.048844431e-06
1.192754336e-06
1.725932958e-06
3.539013022e-06
8.846315675e-06
9.998649228e-07
9.998651667e-07
9.998664521e-07
9.998720182e-07
9.998949528e-07
9.999880248e-07
1.000360877e-06
1.001835846e-06
1.00755333e-06
1.029077791e-06
1.106716048e-06
1.369531933e-06
2.177452439e-06
4.310853676e-06
9.998647046e-07
9.998648416e-07
9.998658136e-07
9.998698089e-07
9.998855638e-07
9.999466423e-07
1.000178656e-06
1.001042618e-06
1.004175341e-06
1.015132305e-06
1.051608505e-06
1.164977803e-06
1.484640038e-06
2.267412831e-06
3.826683359e-06
9.998646656e-07
9.998647536e-07
9.998654787e-07
9.99868551e-07
9.998802395e-07
9.99923778e-07
1.000081455e-06
1.000637536e-06
1.002535278e-06
1.00874711e-06
1.028006179e-06
1.083622344e-06
1.22982124e-06
1.568922414e-06
2.236837491e-06
9.998645722e-07
9.998648048e-07
9.998653012e-07
9.998675245e-07
9.998762711e-07
9.999072546e-07
1.000015893e-06
1.000383499e-06
1.001585337e-06
1.005343601e-06
1.016458669e-06
1.047098706e-06
1.124356499e-06
1.298453449e-06
9.998646379e-07
9.998647767e-07
9.998654931e-07
9.998684716e-07
9.998796355e-07
9.999214384e-07
1.000073868e-06
1.000613078e-06
1.002464225e-06
1.008566445e-06
1.027640924e-06
1.08321183e-06
1.230528791e-06
1.574364707e-06
9.998648199e-07
9.998650212e-07
9.998659158e-07
9.998699032e-07
9.99885663e-07
9.999466387e-07
1.00017869e-06
1.001042639e-06
1.004175607e-06
1.015133066e-06
1.051611045e-06
1.164987091e-06
1.484671025e-06
2.26750189e-06
9.998650287e-07
9.998651774e-07
9.998662514e-07
9.998713971e-07
9.99891774e-07
9.999728992e-07
1.000292759e-06
1.001532685e-06
1.006238927e-06
1.023578551e-06
1.084795217e-06
1.287827589e-06
1.900719149e-06
3.497032561e-06
9.998649168e-07
9.998651922e-07
9.998665391e-07
9.998719636e-07
9.998943598e-07
9.999848937e-07
1.000347053e-06
1.001778829e-06
1.007345386e-06
1.02848863e-06
1.106078949e-06
1.376310708e-06
2.242522372e-06
4.654657392e-06
9.998648849e-07
9.99865109e-07
9.9986629e-07
9.998712965e-07
9.998917379e-07
9.99972886e-07
1.000292786e-06
1.00153269e-06
1.006239077e-06
1.023578467e-06
1.084794416e-06
1.287824415e-06
1.900707758e-06
3.496998335e-06
9.998647879e-07
9.99864953e-07
9.998658577e-07
9.998698997e-07
9.998856392e-07
9.999467076e-07
1.000178655e-06
1.001042614e-06
1.004175393e-06
1.015132684e-06
1.051609923e-06
1.164983488e-06
1.484660454e-06
2.2674816e-06
9.998645362e-07
9.998646639e-07
9.998653987e-07
9.998685116e-07
9.998797159e-07
9.999216274e-07
1.000073937e-06
1.00061315e-06
1.00246417e-06
1.00856625e-06
1.027640135e-06
1.08320907e-06
1.230521639e-06
1.574356885e-06
9.998644966e-07
9.998646731e-07
9.998652919e-07
9.998676688e-07
9.998763087e-07
9.999073683e-07
1.000015746e-06
1.000383287e-06
1.001585229e-06
1.005343323e-06
1.016457881e-06
1.047096499e-06
1.124349912e-06
1.298435552e-06
1.640492257e-06
9.998645481e-07
9.998646612e-07
9.998651166e-07
9.998669939e-07
9.998738729e-07
9.998976882e-07
9.999782511e-07
1.000242021e-06
1.001071907e-06
1.003564531e-06
1.010639517e-06
1.029385482e-06
1.075073536e-06
1.175823024e-06
9.998645796e-07
9.998646994e-07
9.998653093e-07
9.998675684e-07
9.998761736e-07
9.999073195e-07
1.000015782e-06
1.000383436e-06
1.001585384e-06
1.005343527e-06
1.016458863e-06
1.047099178e-06
1.124357004e-06
1.298453774e-06
9.998646885e-07
9.998648377e-07
9.998655132e-07
9.998685569e-07
9.998803058e-07
9.99923849e-07
1.000081468e-06
1.000637537e-06
1.002535511e-06
1.008747723e-06
1.028008123e-06
1.0836292e-06
1.22984216e-06
1.568981646e-06
9.998648355e-07
9.99864914e-07
9.998658429e-07
9.998696045e-07
9.99884409e-07
9.999405143e-07
1.000149785e-06
1.000911489e-06
1.003603054e-06
1.012756835e-06
1.042345563e-06
1.131634855e-06
1.376664147e-06
1.964698451e-06
9.998648842e-07
9.998650237e-07
9.998659812e-07
9.998699825e-07
9.998861692e-07
9.99947999e-07
1.00018091e-06
1.001040855e-06
1.004130434e-06
1.01484996e-06
1.050347235e-06
1.160585829e-06
1.47306788e-06
2.24671453e-06
9.998647283e-07
9.998648987e-07
9.998659337e-07
9.99869696e-07
9.998844194e-07
9.999406233e-07
1.000149783e-06
1.000911419e-06
1.003603012e-06
1.012756825e-06
1.042345407e-06
1.131634143e-06
1.376661209e-06
1.964689169e-06
9.998646459e-07
9.998647666e-07
9.998655964e-07
9.998685818e-07
9.998803376e-07
9.999238704e-07
1.000081448e-06
1.000637407e-06
1.002535364e-06
1.008747592e-06
1.028007548e-06
1.083627791e-06
1.229838103e-06
1.568973157e-06
9.99864502e-07
9.998645681e-07
9.998651245e-07
9.998674215e-07
9.998761563e-07
9.999071876e-07
1.000015685e-06
1.000383329e-06
1.001585237e-06
1.005343382e-06
1.016458319e-06
1.047097879e-06
1.124354155e-06
1.298450101e-06
9.998644659e-07
9.998644975e-07
9.998650968e-07
9.998669142e-07
9.998737182e-07
9.998975115e-07
9.999781541e-07
1.000241866e-06
1.001071851e-06
1.003564398e-06
1.010639195e-06
1.029384493e-06
1.075071566e-06
1.175822013e-06
)
;

boundaryField
{
    top
    {
        type            zeroGradient;
    }
    bottom
    {
        type            zeroGradient;
    }
    side-walls
    {
        type            zeroGradient;
    }
    inlet
    {
        type            zeroGradient;
    }
    outlet
    {
        type            zeroGradient;
    }
    procBoundary0to1
    {
        type            processor;
        value           nonuniform List<scalar> 
97
(
1.717707755e-06
1.640490153e-06
2.218018878e-06
3.321736148e-06
4.936270853e-06
6.086933292e-06
4.936217704e-06
3.321683699e-06
2.217974717e-06
1.71767643e-06
1.640490153e-06
1.640490153e-06
3.343777534e-06
3.826693891e-06
6.171940131e-06
1.118895979e-05
1.591287618e-05
1.118880995e-05
6.17178411e-06
3.343680373e-06
2.217979491e-06
2.236848226e-06
3.826693891e-06
3.826693891e-06
1.451048798e-05
2.045568379e-05
3.302066767e-05
5.721443052e-05
3.302000402e-05
1.450998623e-05
6.171787868e-06
3.32169514e-06
3.13105959e-06
6.75533677e-06
2.045568379e-05
2.045568379e-05
9.636518831e-05
0.0001985389175
0.0002204040343
9.636282995e-05
3.302005768e-05
1.118884981e-05
4.936250961e-06
3.800761654e-06
9.806377442e-06
3.906725287e-05
0.0001985389175
0.0001985389175
0.0007539023573
0.0001985384777
0.0002204043931
6.735928226e-05
5.721465505e-05
1.591294803e-05
6.086959197e-06
3.131049821e-06
6.755234208e-06
2.04546258e-05
6.735858011e-05
0.0001985384777
6.735928226e-05
6.735928226e-05
3.302074134e-05
8.684036945e-06
1.118905535e-05
4.936307473e-06
2.236827526e-06
3.826524922e-06
8.683683604e-06
2.045463326e-05
3.906715865e-05
2.045454085e-05
8.684036945e-06
8.684036945e-06
6.171939109e-06
2.252110533e-06
3.32176743e-06
1.640449777e-06
2.252033916e-06
3.826519989e-06
6.755236907e-06
9.806365798e-06
6.75519383e-06
3.826545586e-06
2.252110533e-06
2.252110533e-06
2.21802354e-06
1.373749479e-06
1.373728294e-06
1.640450247e-06
2.236831271e-06
3.131058179e-06
3.800763567e-06
3.131045119e-06
2.236825604e-06
1.640459332e-06
1.373749479e-06
)
;
    }
}


// ************************************************************************* //
