/*--------------------------------*- C++ -*----------------------------------*\
| =========                 |                                                 |
| \\      /  F ield         | OpenFOAM: The Open Source CFD Toolbox           |
|  \\    /   O peration     | Version:  4.x                                   |
|   \\  /    A nd           | Web:      www.OpenFOAM.org                      |
|    \\/     M anipulation  |                                                 |
\*---------------------------------------------------------------------------*/
FoamFile
{
    version     2.0;
    format      ascii;
    class       volScalarField;
    location    "4000";
    object      molarConc;
}
// * * * * * * * * * * * * * * * * * * * * * * * * * * * * * * * * * * * * * //

dimensions      [0 -3 0 0 1 0 0];

internalField   nonuniform List<scalar> 
1175
(
9.963275231
9.963274754
9.963273272
9.96327493
9.963274443
9.963274845
9.963275007
9.963275664
9.963276558
9.963276344
9.963276674
9.963274794
9.96327567
9.963274933
9.963273996
9.963273018
9.963272678
9.963271861
9.963271984
9.963271353
9.963270809
9.963271415
9.963271624
9.963273232
9.9632737
9.963273054
9.96327292
9.963272423
9.963271133
9.963270594
9.963299123
9.963298701
9.963299104
9.963298153
9.963300005
9.963300295
9.963301338
9.963301297
9.963301444
9.963302072
9.963302908
9.963302758
9.963300431
9.963298998
9.963296947
9.963242536
9.963242283
9.963241738
9.963241319
9.963239926
9.96323971
9.963241523
9.963240804
9.96324056
9.963240771
9.963239975
9.963240916
9.963240981
9.963238706
9.963235883
9.963258925
9.963259316
9.963259189
9.963258725
9.963258263
9.963257787
9.963256466
9.963256597
9.963257098
9.963257731
9.963257539
9.963254917
9.963254439
9.963251482
9.963245378
9.963321197
9.963322247
9.963322974
9.963322465
9.963322683
9.963322633
9.963321688
9.96332175
9.963321234
9.963320649
9.963319851
9.963319686
9.963318434
9.963317956
9.963314071
9.963293388
9.96329225
9.963292966
9.963293099
9.963293325
9.963292362
9.963293105
9.963292063
9.963292692
9.96329182
9.963292314
9.963291282
9.963290534
9.96328991
9.963288208
9.963257263
9.963257919
9.963257047
9.963256488
9.963257486
9.963257664
9.96325836
9.963259477
9.963259416
9.963259658
9.96325952
9.963259047
9.963257586
9.963257685
9.963254627
9.963280207
9.963278556
9.963278793
9.963278734
9.963278922
9.96327956
9.963279941
9.963278091
9.963278872
9.963279664
9.963280882
9.963280581
9.96327971
9.963279946
9.963279667
9.963264529
9.963263436
9.963263853
9.963262883
9.963263168
9.963263597
9.963261708
9.963263453
9.963264229
9.963263475
9.963263029
9.963263971
9.963263338
9.963262481
9.963265783
9.963263622
9.963265009
9.963264669
9.963265149
9.963264476
9.963264589
9.963264812
9.963264981
9.963265258
9.963265723
9.963265411
9.963264798
9.963264509
9.96326368
9.963260644
9.963260983
9.963260206
9.963261214
9.963262023
9.963261655
9.963261824
9.963261639
9.963262145
9.963260782
9.963259932
9.963260651
9.963259376
9.963256794
9.963250371
9.963255293
9.963254859
9.963254929
9.963255052
9.963255813
9.963256981
9.9632552
9.963255428
9.963254841
9.963254231
9.963254323
9.963251892
9.963248627
9.963244063
9.963232178
9.963270391
9.963270691
9.963270938
9.963271222
9.963271159
9.96326977
9.963270539
9.963269478
9.963269335
9.963270082
9.963268258
9.96326661
9.963262896
9.963252705
9.963234173
9.963262638
9.963263241
9.963263023
9.963262531
9.963262876
9.963263521
9.963263752
9.963263878
9.963263382
9.963263728
9.963263164
9.963262803
9.963259937
9.963254732
9.963243755
9.963239689
9.963240206
9.963241524
9.963241911
9.963242106
9.963241721
9.963240771
9.963241624
9.963241968
9.963241414
9.963240626
9.963239353
9.963238537
9.9632359
9.963229769
9.963291884
9.963290684
9.963291368
9.963292341
9.963292827
9.963293253
9.963293317
9.963291666
9.963291135
9.963291234
9.963290942
9.963291136
9.963292469
9.963292257
9.963292131
9.963245939
9.963245526
9.963247041
9.963245541
9.96324482
9.963245179
9.963243586
9.963245008
9.963245685
9.963245069
9.963244852
9.963244934
9.963245108
9.96324408
9.963240608
9.963276479
9.963277358
9.963277052
9.963276022
9.963275559
9.963275682
9.96327503
9.963275464
9.963276485
9.963276404
9.963277532
9.963276594
9.963275789
9.963274839
9.963309507
9.963309022
9.963308158
9.963308241
9.963309585
9.963309404
9.963308698
9.963308496
9.963308357
9.963309323
9.963310443
9.963309549
9.963308608
9.963305597
9.96329028
9.96329028
9.963290958
9.963290466
9.963289205
9.963289595
9.963288531
9.96328707
9.963287425
9.963285883
9.963284351
9.963283066
9.963280675
9.963271643
9.963254068
9.963287882
9.963288439
9.963287508
9.963286244
9.963285843
9.963285341
9.963285513
9.963284659
9.963285284
9.963285671
9.963282439
9.963280645
9.963274785
9.963255814
9.963215324
9.963247647
9.963247097
9.96324718
9.963247251
9.963247563
9.963247036
9.96324655
9.963245895
9.963244885
9.963243518
9.963244879
9.963242537
9.963232776
9.963197829
9.963107894
9.963295114
9.9632967
9.963298605
9.963297774
9.963297897
9.963297976
9.96329876
9.963299436
9.963301158
9.963300689
9.963300059
9.963297447
9.963291584
9.963271456
9.963227992
9.96326278
9.963262466
9.963262789
9.963262666
9.963262209
9.963261097
9.963260402
9.96326004
9.963259942
9.96326007
9.963259451
9.96325863
9.963256354
9.963248487
9.963232377
9.963266372
9.963266192
9.963266155
9.963265774
9.963267043
9.963268963
9.963270167
9.963270871
9.963269724
9.963269689
9.963270456
9.963271116
9.963268552
9.963265888
9.963259299
9.963294893
9.963294407
9.963293634
9.963293663
9.963294482
9.963293577
9.963293581
9.96329525
9.963294919
9.963294652
9.963295823
9.963294888
9.963292887
9.963291327
9.963289043
9.963292015
9.963291742
9.963290337
9.963290547
9.963290676
9.96329266
9.963292085
9.963293168
9.963292601
9.963292219
9.963291582
9.96329129
9.963291061
9.963287042
9.963299075
9.963298282
9.963299234
9.963300117
9.9633007
9.9632996
9.963300288
9.963300714
9.963300903
9.963300685
9.963300918
9.963300065
9.963296527
9.963290516
9.963288842
9.963289641
9.963288611
9.963288754
9.963287713
9.963288155
9.963287807
9.963287388
9.96328754
9.963288179
9.963287503
9.963285349
9.963278306
9.963259891
9.963290197
9.963289714
9.963290362
9.963290507
9.963289855
9.963290055
9.96328998
9.963288041
9.96328916
9.963287622
9.963286326
9.963283543
9.963264999
9.963203043
9.963045581
9.96327966
9.963280527
9.963281252
9.963282603
9.963282915
9.963282082
9.963282575
9.963283243
9.963281327
9.96328125
9.963277256
9.963269081
9.96323437
9.963081618
9.962607579
9.963290597
9.963289789
9.963290594
9.963288723
9.963288988
9.963288526
9.963288969
9.963288922
9.963287964
9.963288048
9.963288471
9.963284406
9.96326673
9.96320327
9.96304657
9.963295493
9.963297116
9.963296667
9.963297825
9.963299329
9.963299471
9.963300192
9.963300499
9.963300582
9.963300827
9.963300459
9.963297623
9.963291458
9.963270584
9.963228245
9.963235105
9.96323547
9.963234548
9.963233636
9.963234078
9.963233
9.963234188
9.963233643
9.963235232
9.963234514
9.963234084
9.963233886
9.963230752
9.963224531
9.963213596
9.963272829
9.96327342
9.963273849
9.963272682
9.963272244
9.963272662
9.963272572
9.963272569
9.963271148
9.963270671
9.963269777
9.963267905
9.963267002
9.963263727
9.963260603
9.963263842
9.963263641
9.963262864
9.963262151
9.963261729
9.963263124
9.963263436
9.963263463
9.96326329
9.963264925
9.963264831
9.963264463
9.96326386
9.963260696
9.963299056
9.963300032
9.963299899
9.96329776
9.963298884
9.963299248
9.963300178
9.96329918
9.963299597
9.963299867
9.963301141
9.963300843
9.963298442
9.963289086
9.963251903
9.963252108
9.963252125
9.963251941
9.963251722
9.963251803
9.963250099
9.963249421
9.963249614
9.963249991
9.963249468
9.963246775
9.963235511
9.963200448
9.963262297
9.963261848
9.963261935
9.963261208
9.963261241
9.963260446
9.963261354
9.963261467
9.96326201
9.963261446
9.963259655
9.963250896
9.963216517
9.963063422
9.963264545
9.963264514
9.963262727
9.963263476
9.963262007
9.963262177
9.9632618
9.963262135
9.963261238
9.963261916
9.963258882
9.963242447
9.963154406
9.96258439
10.01906741
9.963238118
9.963239477
9.963239493
9.963240324
9.963240242
9.963240215
9.963239827
9.963239384
9.963238837
9.963236593
9.963235842
9.963227805
9.963192921
9.96304027
9.96256878
9.963276715
9.963276787
9.963277116
9.963276148
9.963276442
9.963276702
9.963277013
9.963276831
9.963276309
9.963274477
9.963272552
9.963269729
9.963259824
9.963224341
9.963133567
9.96328644
9.9632877
9.963287987
9.963287364
9.963287778
9.963288093
9.963287702
9.963289588
9.96328965
9.963290779
9.963289866
9.963289182
9.963286574
9.963277168
9.963258854
9.963306503
9.963305668
9.963306141
9.963307738
9.963307496
9.963307989
9.96330742
9.963306789
9.963306706
9.963307155
9.963306501
9.963306969
9.963305641
9.963304229
9.963297563
9.963307753
9.963308106
9.963308054
9.963307792
9.963308199
9.963308173
9.963308859
9.963309032
9.96330871
9.963308451
9.963307332
9.96330837
9.963307063
9.963302943
9.96328501
9.963284979
9.963285005
9.96328557
9.963284394
9.963284555
9.963285608
9.963285918
9.963285919
9.963286563
9.963286581
9.963284492
9.963282854
9.963278164
9.963284214
9.963284185
9.96328329
9.963281607
9.963281765
9.963282594
9.963281917
9.963282361
9.963281791
9.963281726
9.963281868
9.963279419
9.963271147
9.96325209
9.963271303
9.963269851
9.963269278
9.963269259
9.96326976
9.963268276
9.963268521
9.963269643
9.963268229
9.963267797
9.963267773
9.96326278
9.963243242
9.963181647
9.963250587
9.963250865
9.963249678
9.963249874
9.963249742
9.96324854
9.963247505
9.963246283
9.963247335
9.963246989
9.963244604
9.963236576
9.963201262
9.963047419
9.963291799
9.963290871
9.963289352
9.963290649
9.96329035
9.963291114
9.963293262
9.963293931
9.963293711
9.963292188
9.963290692
9.963284295
9.963267362
9.963204259
9.963280344
9.963280581
9.963280632
9.963279843
9.963279581
9.96328019
9.963279188
9.963277934
9.963277955
9.963277112
9.963275452
9.963274036
9.96326657
9.963246981
9.9632057
9.963312299
9.963312681
9.963313452
9.963313231
9.963313328
9.963313856
9.963313333
9.963312872
9.963312518
9.963313357
9.963313056
9.963312336
9.963309199
9.963304929
9.96329211
9.963288887
9.963289048
9.963288818
9.963288753
9.963289975
9.963289472
9.963289917
9.96328939
9.963288549
9.963288643
9.96328733
9.963286355
9.963286228
9.963283731
9.963279012
9.963275705
9.963276495
9.963275756
9.96327514
9.963275119
9.963275583
9.9632756
9.963276367
9.96327689
9.963276398
9.963275394
9.963273878
9.963272607
9.963271726
9.963247068
9.963245766
9.963244602
9.963243603
9.96324372
9.96324304
9.963241866
9.963240253
9.963241078
9.963239751
9.963239989
9.963239454
9.963237951
9.963234546
9.963233522
9.963230786
9.963231139
9.963230281
9.963230816
9.963230635
9.963232065
9.963232465
9.963232391
9.963232764
9.963232951
9.963232472
9.963228804
9.963220585
9.963275218
9.963275028
9.963273323
9.963274784
9.963274578
9.963275431
9.963275503
9.963275182
9.96327514
9.963275002
9.963273899
9.963271454
9.963266014
9.96324513
9.963287864
9.963286767
9.963287011
9.963287516
9.96328848
9.963288633
9.963288595
9.963289095
9.963290257
9.963290093
9.963288778
9.963286478
9.963275622
9.963241043
9.963290124
9.96328878
9.963290455
9.963290773
9.963289304
9.963288556
9.9632887
9.963288587
9.96328956
9.963289406
9.963289973
9.963287556
9.96327979
9.963258796
9.963275666
9.963275416
9.96327598
9.963276153
9.963275959
9.963276272
9.963274848
9.963274575
9.963274609
9.963274205
9.963272407
9.963269861
9.96326525
9.963257435
9.963280532
9.963280364
9.963278284
9.963278283
9.963277847
9.963279846
9.963279064
9.963280648
9.963279675
9.963279656
9.963279552
9.963278577
9.963277465
9.963275989
9.963268991
9.96327368
9.963274163
9.963273176
9.963272386
9.963272699
9.963274327
9.963274753
9.963274769
9.963275873
9.963275641
9.963276089
9.963274222
9.963273443
9.963272144
9.96327039
9.96325585
9.963257778
9.963256833
9.963256376
9.963255534
9.963256826
9.963257434
9.963257836
9.963257219
9.963258364
9.963258484
9.963259515
9.96325927
9.963257724
9.963294628
9.963293549
9.963294531
9.963293695
9.963293243
9.963293209
9.963294968
9.963296721
9.96329649
9.963296103
9.96329472
9.963293819
9.963291536
9.963289848
9.963281121
9.963282781
9.96328221
9.963281976
9.963281751
9.963280229
9.963279854
9.963279153
9.963279174
9.963279264
9.963279146
9.963278567
9.963276693
9.963273511
9.963293511
9.963292425
9.963292595
9.963293171
9.96329222
9.963291275
9.963291508
9.963292289
9.963291532
9.963290549
9.963290115
9.963288321
9.963285001
9.963280115
9.963269082
9.963269081
9.96326811
9.963269575
9.963269052
9.963269893
9.963268507
9.963268042
9.96326897
9.96326806
9.963268027
9.96326557
9.96326299
9.963256067
9.963263789
9.963263968
9.963264455
9.963264277
9.963264589
9.96326673
9.963266182
9.963266426
9.963267113
9.963266006
9.963263812
9.963262873
9.963261728
9.96325537
9.963271853
9.963271603
9.963271143
9.963270368
9.963271216
9.963270179
9.963269344
9.963270592
9.963271959
9.963271897
9.96327242
9.963270992
9.963270369
9.963266797
9.963267572
9.963268121
9.963268439
9.963268914
9.963269208
9.963270069
9.963271038
9.963271415
9.963270454
9.963269019
9.963268606
9.963266917
9.963268002
9.963265327
9.963267173
9.963267482
9.963267575
9.963267952
9.963268838
9.963268858
9.96326843
9.963268593
9.963267532
9.963267647
9.963266969
9.963267059
9.963267495
9.963266429
9.96326578
9.963283818
9.963283662
9.963283421
9.963282872
9.963282947
9.9632826
9.963282515
9.963283097
9.963282644
9.96328214
9.963281356
9.963281078
9.963280925
9.963280203
9.963282756
9.963283398
9.963283331
9.963281948
9.963281923
9.963282811
9.963282236
9.963283736
9.96328207
9.96328142
9.963283534
9.963284629
9.963282883
9.963282821
9.963259181
9.963258592
9.963258573
9.963258529
9.963257961
9.963258464
9.963259728
9.963259236
9.963259778
9.963259296
9.963259845
9.963259677
9.963260256
9.963258732
9.963273183
9.963272696
9.96327285
9.963271775
9.963272539
9.96327345
9.963271466
9.963271757
9.96327137
9.963271008
9.963272515
9.963271421
9.963271298
9.963269223
9.963279053
9.963278129
9.96327727
9.963275918
9.963275536
9.963275506
9.963274641
9.963274959
9.963274029
9.963273519
9.963272607
9.963273292
9.963272865
9.963269775
9.96323672
9.963236326
9.963236622
9.963236611
9.963235565
9.963235336
9.963234276
9.963234174
9.963234293
9.963234938
9.96323586
9.963237169
9.963236127
9.963234093
9.963266363
9.963266649
9.9632669
9.96326758
9.963267427
9.963267287
9.96326737
9.963267674
9.963267629
9.963266633
9.963265628
9.963266498
9.963266573
9.96326583
9.963302432
9.963302153
9.963301952
9.963301896
9.963301618
9.963301201
9.963301016
9.963301085
9.963301451
9.963302513
9.963303075
9.963303882
9.963302225
9.963301766
9.963289094
9.963288515
9.963287674
9.963287246
9.963286653
9.963286175
9.963285764
9.963285129
9.963285257
9.96328515
9.963286115
9.963285039
9.963284365
9.963284167
)
;

boundaryField
{
    top
    {
        type            calculated;
        value           nonuniform List<scalar> 
134
(
9.963280207
9.963245939
9.963294893
9.963272829
9.963306503
9.963288887
9.96327368
9.963267173
9.963289094
9.963278556
9.963245526
9.963294407
9.96327342
9.963305668
9.963289048
9.963274163
9.963267482
9.963288515
9.963278793
9.963247041
9.963293634
9.963273849
9.963306141
9.963288818
9.963273176
9.963267575
9.963287674
9.963278734
9.963245541
9.963293663
9.963272682
9.963307738
9.963288753
9.963272386
9.963267952
9.963287246
9.963278922
9.96324482
9.963294482
9.963272244
9.963307496
9.963289975
9.963272699
9.963268838
9.963286653
9.96327956
9.963245179
9.963293577
9.963272662
9.963307989
9.963289472
9.963274327
9.963268858
9.963286175
9.963279941
9.963243586
9.963293581
9.963272572
9.96330742
9.963289917
9.963274753
9.96326843
9.963285764
9.963278091
9.963245008
9.96329525
9.963272569
9.963306789
9.96328939
9.963274769
9.963268593
9.963285129
9.963278872
9.963245685
9.963294919
9.963271148
9.963306706
9.963288549
9.963275873
9.963267532
9.963285257
9.963279664
9.963245069
9.963294652
9.963270671
9.963307155
9.963288643
9.963275641
9.963267647
9.96328515
9.963280882
9.963244852
9.963295823
9.963269777
9.963306501
9.96328733
9.963276089
9.963266969
9.963286115
9.963280581
9.963244934
9.963294888
9.963267905
9.963306969
9.963286355
9.963274222
9.963267059
9.963285039
9.96327971
9.963245108
9.963292887
9.963267002
9.963305641
9.963286228
9.963273443
9.963267495
9.963284365
9.963279946
9.96324408
9.963291327
9.963263727
9.963304229
9.963283731
9.963272144
9.963266429
9.963284167
9.963279667
9.963240608
9.963289043
9.963260603
9.963297563
9.963279012
9.96327039
9.96326578
)
;
    }
    bottom
    {
        type            calculated;
        value           nonuniform List<scalar> 
127
(
9.963275231
9.963264529
9.963276479
9.963292015
9.963263842
9.963307753
9.963275705
9.96325585
9.963283818
9.963274754
9.963263436
9.963277358
9.963291742
9.963263641
9.963308106
9.963276495
9.963257778
9.963283662
9.963273272
9.963263853
9.963277052
9.963290337
9.963262864
9.963308054
9.963275756
9.963256833
9.963283421
9.96327493
9.963262883
9.963276022
9.963290547
9.963262151
9.963307792
9.96327514
9.963256376
9.963282872
9.963274443
9.963263168
9.963275559
9.963290676
9.963261729
9.963308199
9.963275119
9.963255534
9.963282947
9.963274845
9.963263597
9.963275682
9.96329266
9.963263124
9.963308173
9.963275583
9.963256826
9.9632826
9.963275007
9.963261708
9.96327503
9.963292085
9.963263436
9.963308859
9.9632756
9.963257434
9.963282515
9.963275664
9.963263453
9.963275464
9.963293168
9.963263463
9.963309032
9.963276367
9.963257836
9.963283097
9.963276558
9.963264229
9.963276485
9.963292601
9.96326329
9.96330871
9.96327689
9.963257219
9.963282644
9.963276344
9.963263475
9.963276404
9.963292219
9.963264925
9.963308451
9.963276398
9.963258364
9.96328214
9.963276674
9.963263029
9.963277532
9.963291582
9.963264831
9.963307332
9.963275394
9.963258484
9.963281356
9.963274794
9.963263971
9.963276594
9.96329129
9.963264463
9.96330837
9.963273878
9.963259515
9.963281078
9.96327567
9.963263338
9.963275789
9.963291061
9.96326386
9.963307063
9.963272607
9.96325927
9.963280925
9.963274933
9.963262481
9.963274839
9.963287042
9.963260696
9.963302943
9.963271726
9.963257724
9.963280203
9.963273996
)
;
    }
    side-walls
    {
        type            calculated;
        value           nonuniform List<scalar> 
261
(
9.963275231
9.963273018
9.963299123
9.963242536
9.963258925
9.963321197
9.963293388
9.963257263
9.963280207
9.963274754
9.963272678
9.963298701
9.963242283
9.963259316
9.963322247
9.96329225
9.963257919
9.963278556
9.963273272
9.963271861
9.963299104
9.963241738
9.963259189
9.963322974
9.963292966
9.963257047
9.963278793
9.96327493
9.963271984
9.963298153
9.963241319
9.963258725
9.963322465
9.963293099
9.963256488
9.963278734
9.963274443
9.963271353
9.963300005
9.963239926
9.963258263
9.963322683
9.963293325
9.963257486
9.963278922
9.963274845
9.963270809
9.963300295
9.96323971
9.963257787
9.963322633
9.963292362
9.963257664
9.96327956
9.963275007
9.963271415
9.963301338
9.963241523
9.963256466
9.963321688
9.963293105
9.96325836
9.963279941
9.963275664
9.963271624
9.963301297
9.963240804
9.963256597
9.96332175
9.963292063
9.963259477
9.963278091
9.963276558
9.963273232
9.963301444
9.96324056
9.963257098
9.963321234
9.963292692
9.963259416
9.963278872
9.963276344
9.9632737
9.963302072
9.963240771
9.963257731
9.963320649
9.96329182
9.963259658
9.963279664
9.963276674
9.963273054
9.963302908
9.963239975
9.963257539
9.963319851
9.963292314
9.96325952
9.963280882
9.963274794
9.96327292
9.963302758
9.963240916
9.963254917
9.963319686
9.963291282
9.963259047
9.963280581
9.96327567
9.963272423
9.963300431
9.963240981
9.963254439
9.963318434
9.963290534
9.963257586
9.96327971
9.963274933
9.963271133
9.963298998
9.963238706
9.963251482
9.963317956
9.96328991
9.963257685
9.963279946
9.963273996
9.963270594
9.963296947
9.963235883
9.963245378
9.963314071
9.963288208
9.963254627
9.963279667
9.963283818
9.963282756
9.963259181
9.963273183
9.963279053
9.96323672
9.963266363
9.963302432
9.963289094
9.963283662
9.963283398
9.963258592
9.963272696
9.963278129
9.963236326
9.963266649
9.963302153
9.963288515
9.963283421
9.963283331
9.963258573
9.96327285
9.96327727
9.963236622
9.9632669
9.963301952
9.963287674
9.963282872
9.963281948
9.963258529
9.963271775
9.963275918
9.963236611
9.96326758
9.963301896
9.963287246
9.963282947
9.963281923
9.963257961
9.963272539
9.963275536
9.963235565
9.963267427
9.963301618
9.963286653
9.9632826
9.963282811
9.963258464
9.96327345
9.963275506
9.963235336
9.963267287
9.963301201
9.963286175
9.963282515
9.963282236
9.963259728
9.963271466
9.963274641
9.963234276
9.96326737
9.963301016
9.963285764
9.963283097
9.963283736
9.963259236
9.963271757
9.963274959
9.963234174
9.963267674
9.963301085
9.963285129
9.963282644
9.96328207
9.963259778
9.96327137
9.963274029
9.963234293
9.963267629
9.963301451
9.963285257
9.96328214
9.96328142
9.963259296
9.963271008
9.963273519
9.963234938
9.963266633
9.963302513
9.96328515
9.963281356
9.963283534
9.963259845
9.963272515
9.963272607
9.96323586
9.963265628
9.963303075
9.963286115
9.963281078
9.963284629
9.963259677
9.963271421
9.963273292
9.963237169
9.963266498
9.963303882
9.963285039
9.963280925
9.963282883
9.963260256
9.963271298
9.963272865
9.963236127
9.963266573
9.963302225
9.963284365
9.963280203
9.963282821
9.963258732
9.963269223
9.963269775
9.963234093
9.96326583
9.963301766
9.963284167
)
;
    }
    inlet
    {
        type            calculated;
        value           nonuniform List<scalar> 
81
(
9.963275231
9.963273018
9.963299123
9.963242536
9.963258925
9.963321197
9.963293388
9.963257263
9.963280207
9.963264529
9.963265783
9.963260644
9.963255293
9.963270391
9.963262638
9.963239689
9.963291884
9.963245939
9.963276479
9.963309507
9.96329028
9.963287882
9.963247647
9.963295114
9.96326278
9.963266372
9.963294893
9.963292015
9.963299075
9.963288842
9.963290197
9.96327966
9.963290597
9.963295493
9.963235105
9.963272829
9.963263842
9.963299056
9.963251903
9.963262297
9.963264545
9.963238118
9.963276715
9.96328644
9.963306503
9.963307753
9.96328501
9.963284214
9.963271303
9.963250587
9.963291799
9.963280344
9.963312299
9.963288887
9.963275705
9.963247068
9.963233522
9.963275218
9.963287864
9.963290124
9.963275666
9.963280532
9.96327368
9.96325585
9.963294628
9.963281121
9.963293511
9.963269082
9.963263789
9.963271853
9.963267572
9.963267173
9.963283818
9.963282756
9.963259181
9.963273183
9.963279053
9.96323672
9.963266363
9.963302432
9.963289094
)
;
    }
    outlet
    {
        type            calculated;
        value           nonuniform 0();
    }
    procBoundary0to1
    {
        type            processor;
        value           nonuniform List<scalar> 
97
(
9.963272686
9.963260642
9.963267406
9.963291445
9.963229486
9.963237869
9.963307825
9.963283423
9.963253466
9.963278213
9.963260642
9.963260642
9.963260752
9.963297448
9.963242716
9.963215912
9.963212455
9.96322588
9.963221988
9.963287011
9.963237808
9.963274769
9.963297448
9.963297448
9.963232944
9.963216831
9.963169628
9.963041755
9.963182628
9.963212101
9.96325
9.963285156
9.963283226
9.963279687
9.963216831
9.963216831
9.962938617
9.962591279
9.962527272
9.962939187
9.963182849
9.963196015
9.963254769
9.963255307
9.963268958
9.963111669
9.962591279
9.962591279
10.02097488
9.962574886
9.962490703
9.963045485
9.963065487
9.963235747
9.963290348
9.963300638
9.963267272
9.963209181
9.963023969
9.962574886
9.963045485
9.963045485
9.963159639
9.963240846
9.963276369
9.963271957
9.963270144
9.96322979
9.96320472
9.963202269
9.963150725
9.963217484
9.963240846
9.963240846
9.963260298
9.963262947
9.963267061
9.963257468
9.963288882
9.963266875
9.963268706
9.963237466
9.963242132
9.963262038
9.963262947
9.963262947
9.963263496
9.963282808
9.963280019
9.963280293
9.963257179
9.963264032
9.963264114
9.963230314
9.963262627
9.963301035
9.963282808
)
;
    }
}


// ************************************************************************* //
