/*--------------------------------*- C++ -*----------------------------------*\
| =========                 |                                                 |
| \\      /  F ield         | OpenFOAM: The Open Source CFD Toolbox           |
|  \\    /   O peration     | Version:  4.x                                   |
|   \\  /    A nd           | Web:      www.OpenFOAM.org                      |
|    \\/     M anipulation  |                                                 |
\*---------------------------------------------------------------------------*/
FoamFile
{
    version     2.0;
    format      ascii;
    class       volScalarField;
    location    "4000";
    object      N2;
}
// * * * * * * * * * * * * * * * * * * * * * * * * * * * * * * * * * * * * * //

dimensions      [0 0 0 0 0 0 0];

internalField   nonuniform List<scalar> 
1175
(
0.6030939064
0.6030939064
0.6030939064
0.6030939064
0.6030939064
0.6030939064
0.6030939062
0.6030939057
0.6030939042
0.6030938995
0.6030938863
0.6030938514
0.6030937662
0.6030935782
0.6030932091
0.6030939064
0.6030939064
0.6030939064
0.6030939064
0.6030939064
0.6030939064
0.6030939062
0.6030939055
0.6030939032
0.6030938962
0.6030938755
0.6030938183
0.6030936743
0.6030933496
0.6030927117
0.6030939064
0.6030939064
0.6030939064
0.6030939064
0.6030939064
0.6030939063
0.603093906
0.603093905
0.6030939015
0.6030938899
0.603093854
0.6030937502
0.6030934776
0.6030928452
0.6030915997
0.6030939064
0.6030939064
0.6030939064
0.6030939064
0.6030939064
0.6030939063
0.6030939059
0.6030939045
0.6030938995
0.6030938824
0.6030938272
0.6030936607
0.6030932038
0.6030921074
0.6030899325
0.6030939064
0.6030939064
0.6030939064
0.6030939064
0.6030939064
0.6030939063
0.6030939059
0.6030939043
0.6030938985
0.6030938785
0.6030938123
0.6030936067
0.6030930241
0.6030915817
0.603088684
0.6030939064
0.6030939064
0.6030939064
0.6030939064
0.6030939064
0.6030939063
0.6030939059
0.6030939045
0.6030938995
0.6030938824
0.6030938272
0.6030936607
0.6030932038
0.6030921075
0.6030899325
0.6030939064
0.6030939064
0.6030939064
0.6030939064
0.6030939064
0.6030939063
0.603093906
0.603093905
0.6030939015
0.6030938899
0.603093854
0.6030937502
0.6030934776
0.6030928452
0.6030915997
0.6030939064
0.6030939064
0.6030939064
0.6030939064
0.6030939064
0.6030939064
0.6030939062
0.6030939055
0.6030939032
0.6030938962
0.6030938755
0.6030938183
0.6030936743
0.6030933496
0.6030927117
0.6030939064
0.6030939064
0.6030939064
0.6030939064
0.6030939064
0.6030939064
0.6030939062
0.6030939057
0.6030939042
0.6030938995
0.6030938863
0.6030938514
0.6030937662
0.6030935783
0.6030932091
0.6030939064
0.6030939064
0.6030939064
0.6030939064
0.6030939064
0.6030939064
0.6030939062
0.6030939055
0.6030939032
0.6030938962
0.6030938755
0.6030938183
0.6030936742
0.6030933496
0.6030939064
0.6030939064
0.6030939064
0.6030939064
0.6030939064
0.6030939063
0.6030939061
0.6030939051
0.6030939016
0.6030938902
0.6030938546
0.603093751
0.6030934763
0.6030928351
0.6030915713
0.6030939064
0.6030939064
0.6030939064
0.6030939064
0.6030939064
0.6030939063
0.6030939059
0.6030939043
0.6030938984
0.603093878
0.6030938099
0.6030935985
0.6030930025
0.6030915429
0.6030886358
0.6030939064
0.6030939064
0.6030939064
0.6030939064
0.6030939064
0.6030939062
0.6030939057
0.6030939033
0.6030938946
0.6030938622
0.6030937481
0.6030933695
0.6030922268
0.6030892509
0.6030831762
0.6030939064
0.6030939064
0.6030939064
0.6030939064
0.6030939064
0.6030939062
0.6030939055
0.6030939029
0.6030938925
0.6030938531
0.6030937084
0.6030932045
0.6030915897
0.6030870932
0.6030774889
0.6030939064
0.6030939064
0.6030939064
0.6030939064
0.6030939064
0.6030939062
0.6030939057
0.6030939033
0.6030938946
0.6030938622
0.6030937481
0.6030933695
0.6030922268
0.603089251
0.6030831763
0.6030939064
0.6030939064
0.6030939064
0.6030939064
0.6030939064
0.6030939063
0.6030939059
0.6030939043
0.6030938984
0.603093878
0.6030938099
0.6030935985
0.6030930025
0.603091543
0.603088636
0.6030939064
0.6030939064
0.6030939064
0.6030939064
0.6030939064
0.6030939063
0.6030939061
0.6030939051
0.6030939016
0.6030938902
0.6030938546
0.603093751
0.6030934763
0.6030928352
0.6030915714
0.6030939064
0.6030939064
0.6030939064
0.6030939064
0.6030939064
0.6030939064
0.6030939062
0.6030939055
0.6030939032
0.6030938962
0.6030938755
0.6030938183
0.6030936743
0.6030933496
0.6030927117
0.6030939064
0.6030939064
0.6030939064
0.6030939064
0.6030939064
0.6030939063
0.603093906
0.603093905
0.6030939015
0.6030938899
0.603093854
0.6030937502
0.6030934775
0.6030928451
0.6030939064
0.6030939064
0.6030939064
0.6030939064
0.6030939064
0.6030939063
0.6030939059
0.6030939043
0.6030938984
0.603093878
0.6030938099
0.6030935985
0.6030930024
0.6030915428
0.6030939064
0.6030939064
0.6030939064
0.6030939064
0.6030939064
0.6030939062
0.6030939055
0.6030939028
0.6030938921
0.603093852
0.6030937072
0.6030932171
0.6030917108
0.6030877336
0.6030795805
0.6030939064
0.6030939064
0.6030939064
0.6030939064
0.6030939064
0.6030939061
0.6030939051
0.603093901
0.6030938839
0.6030938151
0.6030935468
0.6030925527
0.6030891727
0.6030792796
0.6030576395
0.6030939064
0.6030939064
0.6030939064
0.6030939064
0.6030939064
0.6030939061
0.6030939049
0.6030939
0.6030938791
0.6030937909
0.6030934261
0.6030919667
0.6030864766
0.6030682335
0.60302295
0.6030939064
0.6030939064
0.6030939064
0.6030939064
0.6030939064
0.6030939061
0.6030939051
0.603093901
0.6030938839
0.6030938151
0.6030935468
0.6030925527
0.6030891727
0.6030792798
0.6030576403
0.6030939064
0.6030939064
0.6030939064
0.6030939064
0.6030939064
0.6030939062
0.6030939055
0.6030939028
0.6030938921
0.603093852
0.6030937072
0.6030932171
0.6030917109
0.6030877338
0.6030795814
0.6030939064
0.6030939064
0.6030939064
0.6030939064
0.6030939064
0.6030939063
0.6030939059
0.6030939043
0.6030938984
0.603093878
0.6030938099
0.6030935985
0.6030930025
0.603091543
0.603088636
0.6030939064
0.6030939064
0.6030939064
0.6030939064
0.6030939064
0.6030939063
0.603093906
0.603093905
0.6030939015
0.6030938899
0.603093854
0.6030937502
0.6030934776
0.6030928452
0.6030915997
0.6030939064
0.6030939064
0.6030939064
0.6030939064
0.6030939064
0.6030939063
0.6030939059
0.6030939045
0.6030938995
0.6030938824
0.6030938272
0.6030936607
0.6030932038
0.6030921073
0.6030939064
0.6030939064
0.6030939064
0.6030939064
0.6030939064
0.6030939062
0.6030939057
0.6030939033
0.6030938946
0.6030938622
0.6030937481
0.6030933695
0.6030922267
0.6030892506
0.6030939064
0.6030939064
0.6030939064
0.6030939064
0.6030939064
0.6030939061
0.6030939051
0.603093901
0.6030938839
0.6030938151
0.6030935468
0.6030925527
0.6030891725
0.6030792788
0.6030939064
0.6030939064
0.6030939064
0.6030939064
0.6030939063
0.603093906
0.6030939045
0.6030938979
0.6030938689
0.6030937415
0.6030931909
0.6030908832
0.603081799
0.603050359
0.6029702128
0.6030939064
0.6030939064
0.6030939064
0.6030939064
0.6030939063
0.6030939059
0.6030939042
0.6030938962
0.6030938591
0.6030936862
0.6030928717
0.6030890288
0.6030712063
0.602993772
0.6027257473
0.6030939064
0.6030939064
0.6030939064
0.6030939064
0.6030939063
0.603093906
0.6030939045
0.6030938979
0.6030938689
0.6030937415
0.6030931909
0.6030908832
0.6030817992
0.6030503603
0.6029702185
0.6030939064
0.6030939064
0.6030939064
0.6030939064
0.6030939064
0.6030939061
0.6030939051
0.603093901
0.6030938839
0.6030938151
0.6030935468
0.6030925527
0.6030891727
0.6030792798
0.6030576403
0.6030939064
0.6030939064
0.6030939064
0.6030939064
0.6030939064
0.6030939062
0.6030939057
0.6030939033
0.6030938946
0.6030938622
0.6030937481
0.6030933695
0.6030922268
0.603089251
0.6030831763
0.6030939064
0.6030939064
0.6030939064
0.6030939064
0.6030939064
0.6030939063
0.6030939059
0.6030939045
0.6030938995
0.6030938824
0.6030938272
0.6030936607
0.6030932038
0.6030921074
0.6030899325
0.6030939064
0.6030939064
0.6030939064
0.6030939064
0.6030939064
0.6030939063
0.6030939059
0.6030939043
0.6030938985
0.6030938785
0.6030938123
0.6030936067
0.603093024
0.6030915815
0.6030939064
0.6030939064
0.6030939064
0.6030939064
0.6030939064
0.6030939062
0.6030939055
0.6030939029
0.6030938925
0.6030938531
0.6030937084
0.6030932045
0.6030915895
0.6030870927
0.6030939064
0.6030939064
0.6030939064
0.6030939064
0.6030939064
0.6030939061
0.6030939049
0.6030939
0.603093879
0.6030937909
0.6030934261
0.6030919666
0.6030864761
0.6030682315
0.6030939064
0.6030939064
0.6030939064
0.6030939064
0.6030939063
0.6030939059
0.6030939042
0.6030938962
0.6030938591
0.6030936862
0.6030928716
0.6030890287
0.6030712053
0.6029937653
0.6030939064
0.6030939064
0.6030939064
0.6030939064
0.6030939063
0.6030939059
0.6030939038
0.6030938938
0.6030938451
0.6030935976
0.603092282
0.6030848754
0.6030402876
0.6027513689
0.6007251685
0.6030939064
0.6030939064
0.6030939064
0.6030939064
0.6030939063
0.6030939059
0.6030939042
0.6030938962
0.6030938591
0.6030936862
0.6030928716
0.6030890288
0.6030712059
0.6029937708
0.6027257456
0.6030939064
0.6030939064
0.6030939064
0.6030939064
0.6030939064
0.6030939061
0.6030939049
0.6030939
0.603093879
0.6030937909
0.6030934261
0.6030919667
0.6030864765
0.6030682331
0.6030229497
0.6030939064
0.6030939064
0.6030939064
0.6030939064
0.6030939064
0.6030939062
0.6030939055
0.6030939029
0.6030938925
0.6030938531
0.6030937084
0.6030932045
0.6030915896
0.6030870931
0.6030774889
0.6030939064
0.6030939064
0.6030939064
0.6030939064
0.6030939064
0.6030939063
0.6030939059
0.6030939043
0.6030938985
0.6030938785
0.6030938123
0.6030936067
0.6030930241
0.6030915817
0.603088684
0.6030939064
0.6030939064
0.6030939064
0.6030939064
0.6030939064
0.6030939063
0.6030939059
0.6030939045
0.6030938995
0.6030938824
0.6030938272
0.6030936607
0.6030932038
0.6030921073
0.6030939064
0.6030939064
0.6030939064
0.6030939064
0.6030939064
0.6030939062
0.6030939057
0.6030939033
0.6030938946
0.6030938622
0.6030937481
0.6030933695
0.6030922267
0.6030892506
0.6030939064
0.6030939064
0.6030939064
0.6030939064
0.6030939064
0.6030939061
0.6030939051
0.603093901
0.6030938839
0.6030938151
0.6030935468
0.6030925526
0.6030891724
0.6030792786
0.6030939064
0.6030939064
0.6030939064
0.6030939064
0.6030939063
0.603093906
0.6030939045
0.6030938979
0.6030938689
0.6030937415
0.6030931909
0.6030908831
0.6030817985
0.603050357
0.6030939064
0.6030939064
0.6030939064
0.6030939064
0.6030939063
0.6030939059
0.6030939042
0.6030938962
0.6030938591
0.6030936862
0.6030928716
0.6030890286
0.603071205
0.6029937646
0.6030939064
0.6030939064
0.6030939064
0.6030939064
0.6030939063
0.603093906
0.6030939045
0.6030938979
0.6030938689
0.6030937415
0.6030931909
0.6030908831
0.6030817986
0.6030503575
0.6030939064
0.6030939064
0.6030939064
0.6030939064
0.6030939064
0.6030939061
0.6030939051
0.603093901
0.6030938839
0.6030938151
0.6030935468
0.6030925527
0.6030891725
0.6030792791
0.6030576383
0.6030939064
0.6030939064
0.6030939064
0.6030939064
0.6030939064
0.6030939062
0.6030939057
0.6030939033
0.6030938946
0.6030938622
0.6030937481
0.6030933695
0.6030922268
0.6030892508
0.603083176
0.6030939064
0.6030939064
0.6030939064
0.6030939064
0.6030939064
0.6030939063
0.6030939059
0.6030939045
0.6030938995
0.6030938824
0.6030938272
0.6030936607
0.6030932038
0.6030921074
0.6030899324
0.6030939064
0.6030939064
0.6030939064
0.6030939064
0.6030939064
0.6030939063
0.603093906
0.603093905
0.6030939015
0.6030938899
0.603093854
0.6030937502
0.6030934775
0.6030928451
0.6030939064
0.6030939064
0.6030939064
0.6030939064
0.6030939064
0.6030939063
0.6030939059
0.6030939043
0.6030938984
0.603093878
0.6030938099
0.6030935985
0.6030930024
0.6030915428
0.6030939064
0.6030939064
0.6030939064
0.6030939064
0.6030939064
0.6030939062
0.6030939055
0.6030939028
0.6030938921
0.603093852
0.6030937072
0.6030932171
0.6030917107
0.6030877333
0.6030939064
0.6030939064
0.6030939064
0.6030939064
0.6030939064
0.6030939061
0.6030939051
0.603093901
0.6030938839
0.6030938151
0.6030935468
0.6030925526
0.6030891724
0.6030792786
0.6030939064
0.6030939064
0.6030939064
0.6030939064
0.6030939064
0.6030939061
0.6030939049
0.6030939
0.603093879
0.6030937908
0.6030934261
0.6030919666
0.6030864761
0.6030682314
0.6030939064
0.6030939064
0.6030939064
0.6030939064
0.6030939064
0.6030939061
0.6030939051
0.603093901
0.6030938839
0.6030938151
0.6030935468
0.6030925526
0.6030891724
0.6030792788
0.6030939064
0.6030939064
0.6030939064
0.6030939064
0.6030939064
0.6030939062
0.6030939055
0.6030939028
0.6030938921
0.603093852
0.6030937072
0.6030932171
0.6030917107
0.6030877334
0.6030939064
0.6030939064
0.6030939064
0.6030939064
0.6030939064
0.6030939063
0.6030939059
0.6030939043
0.6030938984
0.603093878
0.6030938099
0.6030935985
0.6030930024
0.6030915429
0.6030886357
0.6030939064
0.6030939064
0.6030939064
0.6030939064
0.6030939064
0.6030939063
0.603093906
0.603093905
0.6030939015
0.6030938899
0.603093854
0.6030937502
0.6030934776
0.6030928452
0.6030915997
0.6030939064
0.6030939064
0.6030939064
0.6030939064
0.6030939064
0.6030939064
0.6030939062
0.6030939055
0.6030939032
0.6030938962
0.6030938755
0.6030938183
0.6030936742
0.6030933496
0.6030939064
0.6030939064
0.6030939064
0.6030939064
0.6030939064
0.6030939063
0.6030939061
0.6030939051
0.6030939016
0.6030938902
0.6030938546
0.603093751
0.6030934763
0.6030928351
0.6030939064
0.6030939064
0.6030939064
0.6030939064
0.6030939064
0.6030939063
0.6030939059
0.6030939043
0.6030938984
0.603093878
0.6030938099
0.6030935985
0.6030930024
0.6030915428
0.6030939064
0.6030939064
0.6030939064
0.6030939064
0.6030939064
0.6030939062
0.6030939057
0.6030939033
0.6030938946
0.6030938622
0.6030937481
0.6030933695
0.6030922267
0.6030892506
0.6030939064
0.6030939064
0.6030939064
0.6030939064
0.6030939064
0.6030939062
0.6030939055
0.6030939029
0.6030938925
0.6030938531
0.6030937084
0.6030932045
0.6030915895
0.6030870927
0.6030939064
0.6030939064
0.6030939064
0.6030939064
0.6030939064
0.6030939062
0.6030939057
0.6030939033
0.6030938946
0.6030938622
0.6030937481
0.6030933695
0.6030922267
0.6030892506
0.6030939064
0.6030939064
0.6030939064
0.6030939064
0.6030939064
0.6030939063
0.6030939059
0.6030939043
0.6030938984
0.603093878
0.6030938099
0.6030935985
0.6030930024
0.6030915428
0.6030939064
0.6030939064
0.6030939064
0.6030939064
0.6030939064
0.6030939063
0.6030939061
0.6030939051
0.6030939016
0.6030938902
0.6030938546
0.603093751
0.6030934763
0.6030928351
0.6030939064
0.6030939064
0.6030939064
0.6030939064
0.6030939064
0.6030939064
0.6030939062
0.6030939055
0.6030939032
0.6030938962
0.6030938755
0.6030938183
0.6030936742
0.6030933496
0.6030927117
0.6030939064
0.6030939064
0.6030939064
0.6030939064
0.6030939064
0.6030939064
0.6030939062
0.6030939057
0.6030939042
0.6030938995
0.6030938863
0.6030938514
0.6030937662
0.6030935782
0.6030939064
0.6030939064
0.6030939064
0.6030939064
0.6030939064
0.6030939064
0.6030939062
0.6030939055
0.6030939032
0.6030938962
0.6030938755
0.6030938183
0.6030936742
0.6030933496
0.6030939064
0.6030939064
0.6030939064
0.6030939064
0.6030939064
0.6030939063
0.603093906
0.603093905
0.6030939015
0.6030938899
0.603093854
0.6030937502
0.6030934775
0.6030928451
0.6030939064
0.6030939064
0.6030939064
0.6030939064
0.6030939064
0.6030939063
0.6030939059
0.6030939045
0.6030938995
0.6030938824
0.6030938272
0.6030936607
0.6030932038
0.6030921073
0.6030939064
0.6030939064
0.6030939064
0.6030939064
0.6030939064
0.6030939063
0.6030939059
0.6030939043
0.6030938985
0.6030938785
0.6030938123
0.6030936067
0.603093024
0.6030915815
0.6030939064
0.6030939064
0.6030939064
0.6030939064
0.6030939064
0.6030939063
0.6030939059
0.6030939045
0.6030938995
0.6030938824
0.6030938272
0.6030936607
0.6030932038
0.6030921073
0.6030939064
0.6030939064
0.6030939064
0.6030939064
0.6030939064
0.6030939063
0.603093906
0.603093905
0.6030939015
0.6030938899
0.603093854
0.6030937502
0.6030934775
0.6030928451
0.6030939064
0.6030939064
0.6030939064
0.6030939064
0.6030939064
0.6030939064
0.6030939062
0.6030939055
0.6030939032
0.6030938962
0.6030938755
0.6030938183
0.6030936742
0.6030933496
0.6030939064
0.6030939064
0.6030939064
0.6030939064
0.6030939064
0.6030939064
0.6030939062
0.6030939057
0.6030939042
0.6030938995
0.6030938863
0.6030938514
0.6030937662
0.6030935782
)
;

boundaryField
{
    top
    {
        type            zeroGradient;
    }
    bottom
    {
        type            zeroGradient;
    }
    side-walls
    {
        type            zeroGradient;
    }
    inlet
    {
        type            zeroGradient;
    }
    outlet
    {
        type            zeroGradient;
    }
    procBoundary0to1
    {
        type            processor;
        value           nonuniform List<scalar> 
97
(
0.6030925674
0.6030927117
0.6030916344
0.6030895763
0.603086566
0.6030844207
0.603086566
0.6030895764
0.6030916345
0.6030925675
0.6030927117
0.6030927117
0.6030895354
0.6030886357
0.6030842623
0.603074909
0.6030661028
0.6030749092
0.6030842625
0.6030895355
0.6030916345
0.6030915996
0.6030886357
0.6030886357
0.6030687169
0.603057638
0.6030342115
0.6029891145
0.6030342122
0.6030687175
0.6030842625
0.6030895764
0.6030899324
0.6030831758
0.603057638
0.603057638
0.6029161391
0.6027257313
0.6026849501
0.6029161418
0.6030342122
0.6030749091
0.603086566
0.6030886838
0.6030774884
0.6030229474
0.6027257313
0.6027257313
0.6016906642
0.6027257316
0.6026849496
0.6029702138
0.6029891143
0.6030661028
0.6030844207
0.6030899324
0.603083176
0.603057639
0.6029702144
0.6027257316
0.6029702138
0.6029702138
0.6030342114
0.6030795806
0.6030749089
0.603086566
0.6030915997
0.6030886358
0.6030795809
0.6030576391
0.6030229476
0.6030576392
0.6030795806
0.6030795806
0.6030842623
0.6030915713
0.6030895763
0.6030927117
0.6030915714
0.6030886358
0.603083176
0.6030774885
0.603083176
0.6030886358
0.6030915713
0.6030915713
0.6030916344
0.6030932091
0.6030932091
0.6030927117
0.6030915997
0.6030899324
0.6030886839
0.6030899324
0.6030915997
0.6030927117
0.6030932091
)
;
    }
}


// ************************************************************************* //
