/*--------------------------------*- C++ -*----------------------------------*\
| =========                 |                                                 |
| \\      /  F ield         | OpenFOAM: The Open Source CFD Toolbox           |
|  \\    /   O peration     | Version:  4.x                                   |
|   \\  /    A nd           | Web:      www.OpenFOAM.org                      |
|    \\/     M anipulation  |                                                 |
\*---------------------------------------------------------------------------*/
FoamFile
{
    version     2.0;
    format      ascii;
    class       surfaceScalarField;
    location    "4000";
    object      phi;
}
// * * * * * * * * * * * * * * * * * * * * * * * * * * * * * * * * * * * * * //

dimensions      [1 0 -1 0 0 0 0];

internalField   nonuniform List<scalar> 
3175
(
9.428244636e-06
1.313866999e-13
5.196513982e-13
9.428246208e-06
1.570712147e-12
7.520258007e-13
9.428243994e-06
8.588320849e-13
-2.836384648e-13
9.428244292e-06
-1.416092445e-12
6.642663805e-13
9.428244141e-06
-1.467674903e-13
-9.033639383e-13
9.428246643e-06
9.098163472e-13
-1.148762575e-12
9.428248803e-06
-6.043714871e-13
-1.346979212e-12
9.428251964e-06
-1.493850258e-12
-1.502179113e-12
9.428258744e-06
-2.06849164e-12
-2.781778053e-12
9.428265778e-06
-1.756241213e-12
-4.701099674e-12
9.428278675e-06
-6.700742377e-12
-8.399987432e-12
9.428297178e-06
-1.063097462e-11
-1.19179763e-11
9.428341086e-06
-2.12053688e-11
-2.132607492e-11
9.428381728e-06
-1.950197465e-11
-1.987809229e-11
-5.263239753e-11
9.42824438e-06
6.395014171e-13
7.291946698e-13
9.428243145e-06
-5.139966892e-13
-1.124444723e-13
9.428240227e-06
-6.859304721e-13
-5.354365995e-13
9.428242726e-06
3.616477679e-13
1.743435177e-12
9.428241945e-06
-1.538215666e-12
-1.562687617e-12
9.428241829e-06
2.766257793e-13
-1.697385454e-12
9.428244283e-06
-2.214269963e-12
-1.823137139e-12
9.428248281e-06
-1.612381537e-12
-1.287108159e-12
9.428254536e-06
-3.41494978e-12
-2.613827782e-12
9.428258597e-06
-5.977503989e-12
-5.508443877e-12
9.428268868e-06
-1.31986184e-11
-8.398460796e-12
9.428287243e-06
-1.866250679e-11
-1.137697009e-11
9.428331804e-06
-3.55928228e-11
-2.446894614e-11
9.428369941e-06
-3.484206476e-11
-2.213006066e-11
-1.018396509e-10
-8.047213235e-11
9.428267719e-06
-4.334397089e-13
-9.529261832e-14
9.428266875e-06
-5.82269334e-13
-4.862645467e-13
9.42826697e-06
1.397191775e-12
-5.136602016e-13
9.428267769e-06
7.524807133e-13
9.827891744e-13
9.42827038e-06
1.13672928e-12
2.760668068e-13
9.428268287e-06
-8.827457615e-13
-2.41512722e-12
9.428272037e-06
-6.425296276e-14
1.940866165e-14
9.428272264e-06
-1.079415378e-12
-1.163576036e-12
9.428274906e-06
-2.851407433e-12
-3.893188216e-12
9.428278687e-06
-6.021652438e-12
-4.990117505e-12
9.428285756e-06
-9.418437558e-12
-9.818089366e-12
9.428299163e-06
-1.494021047e-11
-1.577482601e-11
9.428333571e-06
-3.454080068e-11
-3.721864034e-11
9.4283676e-06
-3.351732121e-11
-3.579428618e-11
-1.221040758e-10
-1.698079927e-10
9.42821561e-06
-2.300211407e-13
5.973109955e-13
9.428214998e-06
-6.605399904e-13
-4.029384251e-13
9.428211055e-06
2.468361712e-14
-5.338186995e-13
9.428212633e-06
2.298065662e-13
-4.975065246e-13
9.428212155e-06
-1.55342644e-13
-9.301021649e-13
9.428210893e-06
-9.352057772e-13
-2.613921977e-12
9.428212276e-06
-7.593614981e-14
-1.17181741e-12
9.428214128e-06
-5.88808353e-13
-3.622345985e-12
9.428215246e-06
-1.166681598e-12
-3.56274091e-12
9.428217661e-06
-2.682482185e-12
-5.946515382e-12
9.428220659e-06
-7.772906185e-12
-8.338973969e-12
9.428238761e-06
-1.20930838e-11
-1.590000078e-11
9.42826864e-06
-3.062039444e-11
-3.518119741e-11
9.428308918e-06
-3.831370215e-11
-3.72020331e-11
-1.129362115e-10
-2.590367438e-10
9.428229821e-06
-1.187306616e-12
-9.186472067e-13
9.428231262e-06
-2.106129265e-12
-9.677316831e-13
9.428227138e-06
-1.814615458e-12
-9.456064177e-13
9.42822654e-06
4.816734304e-13
-5.535592531e-13
9.428226935e-06
-2.331721359e-13
-3.349110146e-13
9.428226686e-06
1.179933601e-13
-1.069151597e-12
9.42822732e-06
6.180960275e-13
-2.466485507e-12
9.428226428e-06
2.899113212e-12
-5.313298959e-12
9.428227268e-06
3.065747166e-12
-4.054640825e-12
9.428223877e-06
5.446276508e-12
-8.109017167e-12
9.428217867e-06
9.821521027e-12
-1.024689204e-11
9.428219179e-06
1.39653631e-11
-2.734619003e-11
9.428223565e-06
3.069690546e-11
-6.641421947e-11
9.428247227e-06
3.812520826e-11
-9.591639186e-11
1.126008599e-10
-6.272687065e-10
9.428288203e-06
-6.476611662e-13
-1.959493315e-12
9.42829186e-06
1.48559533e-12
2.395252787e-15
9.428291509e-06
-3.983557867e-13
4.959162367e-14
9.428286506e-06
-1.725643744e-12
-1.144841745e-12
9.428288974e-06
-2.540891428e-13
-2.121380076e-13
9.428288673e-06
8.303746889e-13
-5.089693055e-13
9.428291447e-06
-1.076786206e-13
-1.37947288e-12
9.428289453e-06
1.133542071e-12
-3.86223378e-12
9.428290776e-06
3.855472546e-12
-3.061054996e-12
9.428292659e-06
6.525046102e-12
-6.010244205e-12
9.428296196e-06
1.0910151e-11
-7.211290021e-12
9.428311994e-06
1.636262859e-11
-1.600424897e-11
9.428341327e-06
3.615900134e-11
-3.416065601e-11
9.428382597e-06
3.468524638e-11
-3.633173861e-11
1.226659067e-10
-2.578026019e-10
9.428263108e-06
9.211877386e-13
-5.728538235e-13
9.428262716e-06
1.127439881e-12
-9.000549631e-14
9.428262597e-06
4.068813296e-13
9.899083968e-14
9.428261934e-06
9.501270439e-13
-1.6494883e-13
9.428261848e-06
7.270071255e-13
-3.534099115e-13
9.428260548e-06
1.078938673e-12
-1.63172464e-12
9.428264434e-06
2.812155669e-12
-1.2804757e-13
9.42826359e-06
3.782414432e-12
-1.503089758e-12
9.428266783e-06
6.591109163e-12
-1.895216443e-12
9.428268674e-06
6.641920455e-12
-6.889868123e-12
9.428274739e-06
1.304615345e-11
-1.047583474e-11
9.428291267e-06
1.777164275e-11
-1.546524851e-11
9.428325312e-06
3.534672655e-11
-3.709282262e-11
9.42835912e-06
3.571782029e-11
-3.512146934e-11
1.033932801e-10
-1.685555235e-10
9.428228889e-06
-2.169916896e-13
-1.138388056e-12
9.428229506e-06
4.392338712e-13
-1.220767313e-12
9.428228952e-06
4.686718855e-13
-3.502920173e-15
9.42822703e-06
7.11962506e-13
-1.187077064e-12
9.428228999e-06
2.514950612e-12
-7.12099741e-13
9.428229301e-06
2.231634827e-12
-2.148838966e-12
9.42823336e-06
2.407833158e-12
-1.574744704e-12
9.428236099e-06
5.945106174e-13
-3.309241982e-12
9.428237693e-06
1.449818478e-12
-4.202466266e-12
9.428246483e-06
5.166371227e-12
-6.175134817e-12
9.428255322e-06
6.96559704e-12
-9.412476933e-12
9.428275042e-06
9.881366158e-12
-1.181871019e-11
9.428317897e-06
2.244993004e-11
-2.458659298e-11
9.428355838e-06
1.946518253e-11
-2.212083941e-11
5.19384098e-11
-7.941308818e-11
9.428249821e-06
2.306216943e-13
9.428249162e-06
-1.353003356e-12
9.428249463e-06
-5.793421001e-13
9.428249848e-06
-1.895742554e-12
9.428250967e-06
-6.783395024e-13
9.428250488e-06
-2.758388154e-12
9.428252945e-06
-2.162590466e-12
9.428256448e-06
-3.062790876e-12
9.428261125e-06
-4.769094978e-12
9.428268539e-06
-4.75243215e-12
9.428283163e-06
-8.05302471e-12
9.428301859e-06
-1.110462255e-11
9.42834586e-06
-2.159589983e-11
9.428386897e-06
-1.867854625e-11
-5.158396387e-11
9.428235551e-06
4.762862242e-13
-1.005800678e-13
9.428234629e-06
1.766233609e-12
-1.97501456e-13
9.428232271e-06
2.105908219e-13
-8.62289354e-13
9.42823048e-06
2.301490003e-13
-5.909128991e-13
9.428233909e-06
2.208498121e-13
-2.058877013e-12
9.428235817e-06
-3.106876988e-13
-2.217679752e-12
9.428237508e-06
-9.906081069e-13
-9.067045195e-13
9.428239943e-06
-8.364596487e-13
-1.784939281e-12
9.42824356e-06
-1.842596899e-12
-3.865157082e-12
9.428250298e-06
-4.48524957e-12
-8.353772412e-12
9.428263027e-06
-6.134034159e-12
-1.288554131e-11
9.428281323e-06
-9.886135542e-12
-1.713021444e-11
9.42832268e-06
-2.511719052e-11
-3.619278642e-11
-2.161674421e-11
-3.565291532e-11
9.428236152e-06
3.040496258e-13
-6.584256211e-13
9.42823495e-06
-9.113490609e-13
-1.590730291e-12
9.42823384e-06
-1.074782512e-12
-1.7774502e-12
9.428232815e-06
-1.105726889e-12
-2.769986427e-12
9.428235269e-06
-4.246243074e-13
-1.547169766e-12
9.428236e-06
-9.691662444e-14
-2.790723688e-12
9.428239858e-06
-2.356141482e-13
-1.565275695e-12
9.428238695e-06
-1.980603495e-12
-2.894111775e-12
9.428241435e-06
-3.775947348e-12
-4.287160006e-12
9.428249481e-06
-5.261385743e-12
-7.963985689e-12
9.428256349e-06
-1.340413537e-11
-1.318312957e-11
9.428273442e-06
-1.967008685e-11
-2.094741992e-11
9.428313547e-06
-4.350624061e-11
-4.427163822e-11
9.428355886e-06
-4.161288815e-11
-4.25880598e-11
-1.646433324e-10
9.428231912e-06
-1.449721075e-13
-2.457903898e-13
9.42823122e-06
-1.51526289e-12
-2.282914721e-13
9.428231426e-06
1.07555993e-12
3.364100028e-13
9.428230052e-06
1.84283858e-13
-8.914605719e-13
9.428232891e-06
2.239002371e-13
-1.561738266e-12
9.428232286e-06
-1.039535341e-12
-2.123870214e-12
9.428231944e-06
-1.650533834e-12
-2.799358611e-12
9.428233398e-06
-3.381751686e-12
-3.976527817e-12
9.428234547e-06
-3.170543238e-12
-5.936062468e-12
9.428233897e-06
-7.054130346e-12
-1.152395574e-11
9.428237962e-06
-9.717475349e-12
-1.336021446e-11
9.428247694e-06
-1.865369164e-11
-2.836211392e-11
9.428274807e-06
-4.200917393e-11
-6.363069929e-11
9.428315739e-06
-4.22217887e-11
-7.507630166e-11
-2.314638175e-10
-3.812321104e-10
9.428225774e-06
-1.287222613e-12
-4.705400227e-13
9.428226849e-06
-8.288821016e-13
-7.195024756e-14
9.428224236e-06
-1.466268327e-13
-7.086347748e-13
9.428224886e-06
-5.577202243e-15
-8.51371656e-13
9.428227068e-06
1.297542367e-13
-2.729769142e-12
9.428225862e-06
2.600614878e-13
-1.242415944e-12
9.428224095e-06
1.926410554e-13
-1.706506605e-12
9.428227377e-06
-2.057918127e-12
-2.689310334e-12
9.428226577e-06
-1.789312547e-12
-4.898413412e-12
9.428226391e-06
-4.548758531e-12
-1.012387376e-11
9.42822642e-06
-8.460769581e-12
-9.142742221e-12
9.428241012e-06
-1.662814087e-11
-3.218726883e-11
9.428258136e-06
-4.332563626e-11
-4.731002483e-11
9.428327167e-06
-5.964457138e-11
-9.186005395e-11
-2.269471569e-10
-6.149881363e-10
9.428240453e-06
-2.822039495e-12
-1.434356499e-12
9.428241739e-06
-1.500235815e-12
-8.447992211e-13
9.428239038e-06
2.43903757e-13
-1.441671616e-12
9.428238456e-06
-1.992324018e-13
-2.466249597e-12
9.428239264e-06
5.886414426e-13
-2.219107883e-12
9.428237185e-06
3.830859694e-13
-2.947384334e-12
9.428236733e-06
3.997828532e-13
-2.567664483e-12
9.428238218e-06
3.290049498e-12
-3.366898056e-12
9.428233638e-06
3.441573672e-12
-4.663291644e-12
9.428229713e-06
6.075443467e-12
-1.232968735e-11
9.42821343e-06
1.012556596e-11
-1.494514009e-11
9.428203049e-06
1.784218886e-11
-5.778468105e-11
9.428152755e-06
4.436724646e-11
-1.067191652e-10
9.428196994e-06
5.984710819e-11
-2.657372432e-10
2.259304479e-10
-1.784940666e-09
9.428235172e-06
8.012259069e-13
8.03005244e-14
9.42823634e-06
8.340279498e-13
5.138669876e-13
9.428232242e-06
-1.561918572e-12
-1.682969056e-12
9.428232078e-06
-1.402308689e-12
-1.602995808e-12
9.42823398e-06
1.473814492e-13
-1.310066141e-12
9.428232446e-06
3.281842073e-13
-2.767889664e-12
9.428233696e-06
1.18568853e-12
-3.127443554e-12
9.428233336e-06
3.551926534e-12
-3.936042736e-12
9.428234055e-06
5.139545059e-12
-3.611369815e-12
9.428236147e-06
4.828811222e-12
-1.056219007e-11
9.428236097e-06
8.54830232e-12
-9.887484221e-12
9.428251557e-06
1.83504837e-11
-3.366426861e-11
9.428267281e-06
4.302631965e-11
-4.944519301e-11
9.428336124e-06
4.406747605e-11
-9.232431949e-11
2.327407343e-10
-6.139591193e-10
9.428212559e-06
6.381360768e-13
1.049965982e-13
9.42821324e-06
-2.286296748e-14
-1.610287263e-13
9.428211551e-06
-9.592872934e-14
6.618876411e-14
9.428211791e-06
9.720617307e-13
-1.573629645e-12
9.428213186e-06
3.152096357e-13
-2.371635319e-12
9.428212839e-06
9.789020114e-13
-2.319141493e-12
9.428214168e-06
1.245922293e-12
-2.980160593e-12
9.428213802e-06
1.715258133e-12
-5.088725591e-12
9.428213176e-06
4.105573846e-12
-7.110673117e-12
9.428217344e-06
7.198540588e-12
-1.057164879e-11
9.428219613e-06
1.401783495e-11
-1.272754222e-11
9.428229889e-06
1.943479014e-11
-2.907412441e-11
9.42825465e-06
4.308505382e-11
-6.530764665e-11
9.428294703e-06
4.135977195e-11
-7.462451676e-11
1.666175662e-10
-3.801872554e-10
9.428260525e-06
4.404370474e-13
-4.753309207e-14
9.428262294e-06
1.61704476e-12
7.181173103e-13
9.42826076e-06
1.854127425e-12
-2.133890602e-13
9.428261567e-06
-2.0909936e-14
-1.742233785e-12
9.428262662e-06
2.045686388e-12
-1.859875276e-12
9.428263282e-06
5.12848007e-13
-2.051882331e-12
9.428264774e-06
9.496567286e-13
-3.006629375e-12
9.428265703e-06
1.307402511e-12
-3.178199262e-12
9.428265867e-06
1.11320784e-12
-6.608918655e-12
9.42827342e-06
4.589153976e-12
-8.692543273e-12
9.428281775e-06
7.966839088e-12
-1.3871551e-11
9.428300412e-06
9.96438557e-12
-2.123280798e-11
9.4283394e-06
2.469734816e-11
-4.428739235e-11
9.428382678e-06
2.272096936e-11
-4.223406356e-11
7.994811139e-11
-1.677696684e-10
9.428217472e-06
-3.506772746e-13
9.428219581e-06
-2.368619189e-13
9.428215133e-06
-1.234474189e-12
9.428218699e-06
-8.008206135e-13
9.428215476e-06
-2.550137807e-12
9.428217606e-06
-1.939632572e-12
9.428219374e-06
-2.62596421e-12
9.428221736e-06
-2.930428763e-12
9.428226924e-06
-5.161664332e-12
9.428233108e-06
-8.566406681e-12
9.428244465e-06
-1.502172932e-11
9.428263713e-06
-1.824782704e-11
9.428304365e-06
-3.696042002e-11
9.428342751e-06
-3.757426019e-11
-1.02771045e-10
9.428247474e-06
-5.644626202e-13
5.208789192e-13
9.428247091e-06
-1.633925139e-13
-8.43517275e-13
9.42824652e-06
-1.305853684e-12
-7.870570593e-13
9.428241636e-06
-1.60859649e-12
-9.241592246e-13
9.428246095e-06
2.553933459e-14
2.820447573e-13
9.428247066e-06
-1.301132837e-13
-5.38584399e-13
9.428246589e-06
-2.594512114e-12
-2.916466515e-12
9.428247022e-06
-1.628121476e-12
-2.61049389e-12
9.428250584e-06
-1.948844683e-12
-3.406105212e-12
9.428257261e-06
-3.551733493e-12
-3.96854274e-12
9.428262526e-06
-6.432030255e-12
-1.020249655e-11
9.428275665e-06
-1.466355018e-11
-1.588768224e-11
9.428310517e-06
-3.640815476e-11
-3.6438195e-11
-3.586086338e-11
-3.436571696e-11
9.428277209e-06
1.046520992e-12
2.895772389e-13
9.428275713e-06
4.238659981e-13
-7.016607466e-13
9.428276192e-06
1.472569809e-12
8.324721231e-13
9.428275191e-06
6.719885691e-13
-3.620257735e-13
9.42827522e-06
-3.869508573e-13
-4.96258684e-13
9.428276612e-06
-2.083427567e-14
-9.776476824e-13
9.428277191e-06
-1.661501666e-12
-7.044999883e-13
9.428277213e-06
-3.368592113e-12
-2.421198692e-12
9.428277734e-06
-4.842176648e-12
-3.195636005e-12
9.428283019e-06
-8.761054875e-12
-5.703592824e-12
9.428282516e-06
-1.348247032e-11
-1.108997751e-11
9.42829599e-06
-2.649847648e-11
-1.768324921e-11
9.428318652e-06
-6.306705169e-11
-4.157725224e-11
-7.423911219e-11
-4.42803424e-11
9.428260445e-06
-6.196107881e-14
-8.116708578e-13
9.428259572e-06
-3.01099206e-13
-5.636701736e-14
9.428258603e-06
3.015780088e-13
-9.331047273e-13
9.428256568e-06
1.154747726e-12
-1.187761053e-12
9.428257754e-06
-2.035737021e-13
-5.147504301e-13
9.428256516e-06
-7.548709724e-13
-1.65206615e-12
9.42825702e-06
-8.059790726e-13
-1.852420438e-12
9.428255285e-06
-2.24804656e-12
-3.364257976e-12
9.428252027e-06
-2.345353752e-12
-4.248630923e-12
9.428249698e-06
-6.445469194e-12
-8.376899326e-12
9.428239146e-06
-9.999589307e-12
-1.099055757e-11
9.428236116e-06
-2.862587246e-11
-3.024839147e-11
9.428227248e-06
-5.978255488e-11
-6.061815014e-11
9.42826666e-06
-9.108225715e-11
-9.193232463e-11
-6.354664639e-10
9.428255705e-06
-2.030870301e-12
-1.068059436e-12
9.428256884e-06
-1.148068965e-12
-1.216188827e-13
9.42825428e-06
-1.788896744e-12
-7.257038848e-13
9.428251054e-06
-1.734467663e-12
-2.456073158e-12
9.428253356e-06
9.357127575e-14
-1.248739836e-12
9.428251818e-06
-6.124731727e-13
-8.703388898e-13
9.428251875e-06
-8.848138144e-13
-2.222836926e-12
9.428250253e-06
-1.259984894e-12
-2.302145076e-12
9.428249475e-06
-1.471873951e-12
-3.168164106e-12
9.428245863e-06
-5.617758837e-12
-7.714969767e-12
9.428236628e-06
-1.251857781e-11
-1.283581956e-12
9.428238619e-06
-3.087234102e-11
-3.333734126e-11
9.428222343e-06
-7.81309839e-11
-1.195294023e-11
9.428320416e-06
-1.434322446e-10
-1.424988483e-10
-6.707894927e-10
-1.220192755e-09
9.428218995e-06
-8.574399339e-13
-1.254066456e-12
9.42821819e-06
4.115802246e-13
-4.750447679e-13
9.4282175e-06
5.42035355e-13
-5.472407168e-13
9.428216615e-06
-2.58920717e-13
-6.508626419e-13
9.428216654e-06
2.904597818e-13
-1.340218321e-12
9.428215614e-06
7.641361044e-13
-1.446417698e-12
9.428214296e-06
3.89860687e-13
-1.394905485e-12
9.428210036e-06
2.472492296e-12
-2.664698681e-12
9.428203204e-06
3.509430739e-12
-1.424775399e-12
9.42818941e-06
7.696442283e-12
-1.077411761e-11
9.428155242e-06
1.360378517e-11
-3.089831949e-12
9.428098163e-06
3.251368715e-11
-6.262157124e-11
9.427909107e-06
7.773066701e-11
-6.887850131e-11
9.427853561e-06
1.434965581e-10
-4.915812614e-10
6.706201209e-10
-4.734383529e-09
9.428266713e-06
6.518663695e-13
1.402446752e-14
9.428266465e-06
2.040884824e-13
-5.528735189e-13
9.428264796e-06
1.491677114e-13
-1.087401306e-12
9.428264474e-06
-7.492243139e-13
-1.092878017e-12
9.428264137e-06
-8.485800836e-13
-8.468060164e-13
9.428265834e-06
-1.55218872e-13
-2.314669086e-12
9.428267575e-06
1.074105251e-12
-2.606882452e-12
9.428265904e-06
2.47254442e-12
-3.125289566e-12
9.428263149e-06
2.847141029e-12
-2.596643223e-12
9.428259069e-06
5.541442376e-12
-9.206322758e-12
9.428251209e-06
9.630492839e-12
-3.102087407e-12
9.428252119e-06
2.809308748e-11
-3.244760845e-11
9.428236174e-06
6.00707102e-11
-1.178739307e-11
9.42833398e-06
9.319533976e-11
-1.416853433e-10
6.385295051e-10
-1.220444327e-09
9.428232944e-06
3.459685868e-13
1.429368453e-12
9.428232985e-06
-3.771011285e-13
-1.574619294e-13
9.428229984e-06
-4.974518936e-13
-1.349532231e-12
9.428231652e-06
6.916146334e-13
4.162612033e-13
9.428232438e-06
2.862502051e-13
8.606704121e-14
9.428231092e-06
1.277380419e-12
-1.199495985e-12
9.428231194e-06
9.416852697e-13
-1.999443713e-12
9.428229315e-06
2.994774035e-12
-3.089167762e-12
9.428224903e-06
5.299460276e-12
-5.015534043e-12
9.428225946e-06
9.514351531e-12
-7.634639411e-12
9.428213673e-06
1.311091189e-11
-1.200121811e-11
9.428212046e-06
2.746746586e-11
-3.029391881e-11
9.42820785e-06
6.390404587e-11
-6.112081792e-11
9.428243212e-06
7.359637453e-11
-9.436279903e-11
3.796893338e-10
-6.383110729e-10
9.428235938e-06
-3.76977615e-13
9.121926417e-13
9.428236188e-06
1.953668965e-13
9.253574639e-14
9.428235278e-06
6.005086139e-13
-7.627975167e-13
9.428235549e-06
4.243958681e-13
4.833568264e-13
9.42823826e-06
1.524977028e-12
-4.625104603e-14
9.428239645e-06
7.856414187e-13
-1.035346098e-12
9.428242834e-06
1.190396117e-12
-7.288668542e-13
9.428241149e-06
1.483087293e-12
-2.330454208e-12
9.428241601e-06
2.634658172e-12
-5.215569754e-12
9.428244712e-06
4.891280785e-12
-6.87504977e-12
9.428245356e-06
7.702648155e-12
-1.205575104e-11
9.428259668e-06
1.452126714e-11
-2.0646975e-11
9.428285487e-06
3.685532698e-11
-4.391993141e-11
9.428324307e-06
3.518028565e-11
-4.559765616e-11
1.701044948e-10
-2.328027105e-10
9.428263586e-06
6.648481592e-13
9.428262871e-06
-5.198700648e-13
9.428260322e-06
-1.233979157e-12
9.428263337e-06
-4.634501007e-13
9.428261619e-06
-2.11864142e-12
9.428264257e-06
2.579337887e-13
9.428266035e-06
-9.035790438e-13
9.428265825e-06
-2.779649772e-12
9.428267058e-06
-6.172975809e-12
9.4282723e-06
-7.378842824e-12
9.428278593e-06
-1.170208966e-11
9.428293638e-06
-1.576915831e-11
9.428328179e-06
-3.779793556e-11
9.42836302e-06
-3.499881005e-11
-1.238669494e-10
9.428261469e-06
-1.340422264e-13
-8.059328241e-13
9.428260245e-06
-1.147881424e-13
-5.930163195e-13
9.428258823e-06
-2.555225537e-13
-6.026212233e-13
9.428256159e-06
-5.044069978e-13
-1.133451569e-12
9.42826049e-06
3.758395395e-13
3.437291945e-13
9.428260002e-06
-1.190361211e-12
-4.489322432e-13
9.428261619e-06
-2.192022043e-13
-1.210931419e-12
9.428262558e-06
-1.373261272e-12
-1.431544961e-12
9.428264486e-06
-1.86454735e-12
-3.309595767e-12
9.428265772e-06
-5.855341428e-12
-5.237984642e-12
9.428269699e-06
-6.160444984e-12
-9.342884473e-12
9.428284944e-06
-1.47505007e-11
-1.375997271e-11
9.428314906e-06
-3.134338405e-11
-3.035733648e-11
-3.729344968e-11
-3.722791429e-11
9.428267203e-06
-8.008767008e-13
1.018852394e-13
9.428266049e-06
2.17703104e-14
-3.55440091e-13
9.42826458e-06
-7.307601329e-13
-1.236209983e-12
9.428266853e-06
-7.338315434e-13
-4.226223905e-13
9.428268322e-06
-7.397575372e-13
4.91120893e-13
9.428267471e-06
2.701092679e-13
-1.466786205e-13
9.428268157e-06
-1.431333471e-12
-1.100753129e-12
9.428269707e-06
-3.419491294e-12
-1.811149998e-12
9.428268433e-06
-4.997364611e-12
-1.662263114e-12
9.428271805e-06
-9.519281946e-12
-5.334861762e-12
9.428270846e-06
-9.162089664e-12
-1.075882601e-11
9.428286101e-06
-3.239323355e-11
-1.955572482e-11
9.428298993e-06
-4.732221841e-11
-4.500502465e-11
-9.039233291e-11
-6.050983612e-11
9.428259106e-06
-8.702423331e-13
-9.376434302e-13
9.428256806e-06
-1.037410179e-12
-1.887951523e-12
9.428255443e-06
3.342620252e-13
-3.19586058e-12
9.428255382e-06
-7.010927619e-13
-2.788723534e-12
9.428256085e-06
-1.026166356e-12
-6.101225469e-13
9.428255225e-06
-2.605362517e-13
-2.061189392e-14
9.428255246e-06
-2.13569447e-13
-1.018869706e-12
9.428253757e-06
-2.87442561e-13
-2.394025408e-12
9.428251348e-06
-1.524062168e-12
-2.623760439e-12
9.428249722e-06
-7.064901573e-12
-7.211342205e-12
9.428240752e-06
-2.551934191e-13
-1.280629226e-11
9.428243437e-06
-3.202419644e-11
-3.072896075e-11
9.428224347e-06
-1.215316987e-11
-7.802836365e-11
-1.414142622e-10
-1.431813958e-10
9.428260405e-06
-1.956224136e-12
-1.304915644e-12
9.428259813e-06
-1.446941893e-12
-6.360141238e-13
9.42825679e-06
-1.280256672e-12
-2.114387899e-12
9.428257985e-06
9.834333975e-13
-9.519242136e-14
9.428259408e-06
-7.672808293e-14
4.52339529e-13
9.428256224e-06
-6.950373103e-13
-1.038863406e-12
9.428254939e-06
-4.911014113e-13
-2.237580215e-12
9.428252247e-06
-1.407217272e-12
-2.450164844e-12
9.428254258e-06
3.307370463e-13
-1.772769209e-12
9.428251764e-06
-6.574396646e-12
-8.638640744e-12
9.428268964e-06
-1.022258247e-11
-1.174451275e-11
9.428291061e-06
-4.323949549e-11
-4.244088907e-11
9.428411138e-06
-7.090896942e-11
-6.988594553e-11
9.428711111e-06
-2.903891926e-10
-2.920243239e-10
-1.289830655e-09
9.428251326e-06
3.053330979e-13
5.906111234e-13
9.428252072e-06
4.043738828e-14
-7.219573442e-13
9.42825081e-06
-9.610184285e-13
-8.700084051e-13
9.428249526e-06
-6.374931645e-13
-2.025727658e-12
9.428250143e-06
9.250441746e-13
-8.786455185e-14
9.428248117e-06
1.457700917e-13
-3.867798625e-13
9.428246872e-06
-5.644320744e-13
-1.54544037e-12
9.428243323e-06
3.878478334e-13
-2.256241888e-12
9.428237696e-06
1.219761904e-12
-3.890683061e-12
9.4282201e-06
6.897729973e-12
-1.125261759e-11
9.428211182e-06
9.201895303e-12
-1.36601671e-11
9.428133844e-06
4.450000919e-11
-7.023142495e-11
9.428074922e-06
7.104245325e-11
-1.46486019e-10
9.427912506e-06
2.915753945e-10
-9.153492889e-10
1.289627219e-09
-8.848066669e-09
9.428260892e-06
2.079380172e-12
2.001989982e-12
9.428259708e-06
8.262806142e-13
8.401900685e-13
9.428259476e-06
2.403736864e-13
8.269034314e-13
9.428256799e-06
5.738252315e-13
8.808850966e-13
9.428254538e-06
2.581474514e-13
-1.152515829e-12
9.42825508e-06
4.349605965e-13
-7.428588576e-13
9.428256405e-06
2.332796374e-12
2.466825305e-13
9.428254299e-06
2.842925291e-12
-1.076179383e-12
9.428252138e-06
1.032835554e-13
-3.644204419e-12
9.428251488e-06
6.809078736e-12
-8.448641991e-12
9.428271205e-06
5.526462234e-13
-1.010012179e-11
9.428289709e-06
3.052424536e-11
-4.438236208e-11
9.428411428e-06
1.024135402e-11
-7.066658732e-11
9.428711023e-06
1.410660304e-10
-2.932441596e-10
1.220549821e-09
-1.290557719e-09
9.428264036e-06
1.569361297e-14
-1.074200223e-13
9.428265643e-06
-1.711712165e-13
5.475006585e-14
9.428265676e-06
9.015918165e-13
2.846477636e-13
9.428267511e-06
7.293823423e-13
1.028969017e-12
9.428266397e-06
-1.143958207e-14
-1.092850456e-12
9.428268797e-06
9.855010606e-13
8.595708486e-13
9.428267138e-06
1.794473655e-12
1.629008566e-12
9.428263666e-06
3.956535275e-12
-1.3364693e-12
9.428263577e-06
3.926448215e-12
-1.650368118e-12
9.428260134e-06
8.812070181e-12
-6.947571514e-12
9.428253492e-06
8.082206977e-12
-1.30797763e-11
9.428255369e-06
3.006739567e-11
-3.110651141e-11
9.428236836e-06
4.743040651e-11
-7.865941375e-11
9.428333744e-06
8.989123607e-11
-1.445742203e-10
6.132079508e-10
-6.708838867e-10
9.42820547e-06
1.402147163e-13
5.615746384e-13
9.428207274e-06
3.135603934e-13
1.081868055e-13
9.428206264e-06
4.523151602e-13
-1.043776684e-12
9.428205403e-06
-1.110836515e-12
1.106604038e-13
9.428203339e-06
-1.594918165e-12
-1.465724893e-12
9.42820539e-06
1.630099319e-12
5.653353745e-13
9.428205408e-06
1.846052895e-12
-3.712451322e-13
9.428203857e-06
1.529049116e-12
-2.805783061e-12
9.428206534e-06
1.876907978e-12
-1.793891281e-12
9.428206433e-06
3.634723367e-12
-5.563739904e-12
9.428208674e-06
5.505838484e-12
-1.062216583e-11
9.428225279e-06
1.679620443e-11
-2.044281208e-11
9.428239658e-06
3.373886293e-11
-4.552123561e-11
9.428311286e-06
3.719500438e-11
-6.086438244e-11
2.58617007e-10
-2.289157326e-10
9.428242724e-06
8.659712938e-13
9.428242873e-06
5.444496067e-13
9.428242198e-06
-3.770194727e-13
9.428241531e-06
3.582172467e-13
9.42824355e-06
-3.749866991e-13
9.428243567e-06
-1.105724103e-12
9.428241461e-06
-7.304950937e-13
9.42824062e-06
-2.081573791e-12
9.428242729e-06
-2.632896518e-12
9.428246465e-06
-5.417513984e-12
9.428252314e-06
-8.526656055e-12
9.428263333e-06
-1.555727707e-11
9.428294063e-06
-3.068331068e-11
9.42833386e-06
-3.852788704e-11
-1.137169155e-10
9.428234469e-06
5.125694905e-13
-1.760910158e-12
9.428234014e-06
1.091705601e-13
-1.399461846e-12
9.428231661e-06
-1.093065945e-12
-1.908951018e-12
9.428232573e-06
-2.385646341e-13
6.249997307e-13
9.428230788e-06
-4.370908105e-13
-1.144918789e-12
9.428231438e-06
1.146853393e-14
-2.022691866e-12
9.428234824e-06
-7.733160427e-13
-1.559816567e-12
9.428233582e-06
-1.978142823e-12
-1.336648793e-13
9.428233542e-06
-1.057620047e-12
1.534131161e-13
9.428232621e-06
-6.660451423e-12
2.080151813e-12
9.428228274e-06
-8.825428309e-12
7.345806325e-12
9.428229497e-06
-2.548994248e-11
1.286993775e-11
9.428231233e-06
-6.55403477e-11
3.073952098e-11
-9.762840868e-11
3.689538932e-11
9.428266985e-06
-1.778106046e-12
-2.314799686e-12
9.428267699e-06
-9.049526338e-13
-2.056176027e-12
9.428267283e-06
-2.365859288e-12
1.718177966e-13
9.428265409e-06
-3.310526797e-12
8.077756808e-13
9.428266539e-06
-1.431397945e-12
-6.053376772e-13
9.42826695e-06
-6.975006376e-14
-6.754517837e-13
9.428267656e-06
-1.21394918e-12
-4.43784467e-13
9.428267355e-06
-4.431962688e-12
7.280148912e-13
9.428260105e-06
-5.617494209e-12
-3.843866004e-13
9.428258618e-06
-1.225804994e-11
3.554689246e-12
9.428245091e-06
-1.300048069e-11
8.69573881e-12
9.428236667e-06
-5.438112578e-11
1.810386608e-11
9.428185271e-06
-1.043064753e-10
4.317274313e-11
-2.634874598e-10
5.963761259e-11
9.428223064e-06
-7.838578789e-13
-1.039830519e-12
9.428221993e-06
4.030150647e-13
-9.230983053e-13
9.428222224e-06
1.966648783e-12
4.054176635e-13
9.428223182e-06
1.802776801e-12
1.298020639e-12
9.42822158e-06
8.165479028e-13
-4.322561883e-13
9.428218669e-06
-1.083545756e-12
-1.739367351e-12
9.428218272e-06
-1.22141923e-12
5.891475135e-13
9.42821537e-06
-1.516008649e-12
1.477337864e-12
9.428207536e-06
-1.766125948e-12
2.377634674e-12
9.428196681e-06
-9.322290182e-12
7.700578973e-12
9.428159467e-06
-3.909529758e-12
1.073993524e-11
9.428103228e-06
-6.163161877e-11
2.929206301e-11
9.427910743e-06
-6.727828096e-11
7.577761296e-11
-4.921502714e-10
1.408519819e-10
9.428232809e-06
-7.035308665e-13
-1.775077468e-12
9.428232627e-06
-1.334588477e-12
-1.297911818e-12
9.428232403e-06
2.13924026e-14
-1.004360991e-12
9.428231109e-06
-4.921380843e-13
-9.128105927e-13
9.42822857e-06
-6.452732204e-13
-9.257012858e-15
9.428226779e-06
8.187357507e-13
7.686960329e-13
9.428229096e-06
-2.00985462e-13
1.921607446e-12
9.428223867e-06
-1.632676105e-12
2.073964803e-13
9.428219712e-06
-6.656689418e-13
1.879388361e-12
9.428202879e-06
-9.010663916e-12
7.450610541e-12
9.428195182e-06
-1.272855737e-11
7.988544921e-12
9.428116734e-06
-7.017441153e-11
4.094637584e-11
9.428054662e-06
-1.475575703e-10
6.815715977e-11
-9.141968287e-10
2.903107994e-10
9.428235989e-06
1.754801688e-12
-5.257098863e-13
9.428235818e-06
1.679100105e-12
1.546959959e-12
9.428232966e-06
4.509255478e-14
7.133923514e-13
9.428232727e-06
2.140879961e-12
6.589094092e-13
9.428231675e-06
5.366182282e-13
1.791771139e-12
9.428227258e-06
-9.579649429e-13
-3.362971566e-14
9.42822624e-06
1.397868127e-12
7.513506484e-13
9.428219855e-06
1.692682094e-12
1.121269837e-12
9.428206486e-06
1.557109403e-12
4.91808914e-13
9.428167969e-06
9.252995913e-12
8.203632571e-12
9.428116642e-06
1.246188607e-11
1.111789456e-11
9.4278304e-06
6.935372688e-11
6.918022416e-11
9.427243946e-06
1.463900341e-10
1.457589402e-10
9.42359209e-06
9.132184204e-10
9.127882175e-10
8.848189785e-09
9.428209163e-06
7.330483398e-14
-1.044184914e-12
9.428210277e-06
-3.40932245e-14
1.833022969e-13
9.428212397e-06
9.271998087e-14
1.580400929e-12
9.428209694e-06
2.411132135e-13
-5.484666843e-13
9.42820941e-06
2.005458913e-13
-1.408945894e-14
9.428208455e-06
2.235870015e-12
1.62538802e-12
9.428207798e-06
3.599888156e-12
8.150871143e-13
9.428201359e-06
3.336323547e-12
1.640141057e-13
9.428195821e-06
2.674950509e-12
6.669146087e-13
9.428179315e-06
9.37111077e-12
5.731323209e-12
9.4281719e-06
2.314386753e-12
7.786825377e-12
9.428095586e-06
6.195155318e-11
4.223768144e-11
9.428034104e-06
6.702951939e-11
7.081031636e-11
9.427875232e-06
4.915651724e-10
2.91254142e-10
4.734584025e-09
9.428243673e-06
6.887126562e-14
-1.706348937e-12
9.428246136e-06
1.006939215e-13
4.334033207e-13
9.428246259e-06
3.362222802e-13
2.134871379e-12
9.428244191e-06
9.551380821e-13
-4.269084836e-13
9.428245492e-06
9.109226747e-13
-3.307121495e-13
9.428245305e-06
1.361365314e-12
-1.408725103e-12
9.428241753e-06
3.816224714e-13
5.720114697e-13
9.428236825e-06
2.711035456e-12
9.157810351e-13
9.428230271e-06
4.490984172e-12
1.650125828e-12
9.42821667e-06
1.098161192e-11
6.06322291e-12
9.428181415e-06