/*--------------------------------*- C++ -*----------------------------------*\
| =========                 |                                                 |
| \\      /  F ield         | OpenFOAM: The Open Source CFD Toolbox           |
|  \\    /   O peration     | Version:  4.x                                   |
|   \\  /    A nd           | Web:      www.OpenFOAM.org                      |
|    \\/     M anipulation  |                                                 |
\*---------------------------------------------------------------------------*/
FoamFile
{
    version     2.0;
    format      ascii;
    class       volScalarField;
    location    "4000";
    object      rho;
}
// * * * * * * * * * * * * * * * * * * * * * * * * * * * * * * * * * * * * * //

dimensions      [1 -3 0 0 0 0 0];

internalField   nonuniform List<scalar> 
1175
(
0.2777046661
0.2777046561
0.2777046479
0.2777046683
0.2777046501
0.2777046553
0.2777046746
0.2777046813
0.2777047075
0.277704712
0.2777047382
0.2777047168
0.277704763
0.2777048268
0.2777049695
0.2777046028
0.2777046124
0.2777045961
0.2777046024
0.2777045789
0.2777045725
0.2777045779
0.2777045622
0.2777046046
0.2777046304
0.2777046559
0.2777046685
0.2777047088
0.2777048083
0.2777050721
0.2777053465
0.277705337
0.277705347
0.2777053019
0.277705363
0.2777053842
0.2777053815
0.2777054023
0.2777054287
0.2777054348
0.277705454
0.277705518
0.277705612
0.2777058341
0.2777063292
0.2777037555
0.2777037479
0.2777037412
0.2777037248
0.2777037052
0.2777037049
0.2777037246
0.2777037315
0.277703723
0.27770372
0.2777037224
0.2777038063
0.2777040347
0.2777044781
0.2777053979
0.2777042252
0.2777042369
0.2777042371
0.2777042459
0.2777042139
0.2777042046
0.2777041641
0.2777041521
0.2777041714
0.2777041755
0.2777042124
0.2777042622
0.277704502
0.2777050624
0.2777062537
0.2777059745
0.2777059761
0.2777060015
0.2777059819
0.2777059919
0.2777059829
0.2777059795
0.277705948
0.2777059731
0.2777059713
0.2777059747
0.2777060465
0.2777062056
0.2777067163
0.2777075893
0.2777051669
0.2777051559
0.2777051609
0.277705139
0.2777051715
0.2777051644
0.2777051672
0.2777051563
0.2777051644
0.2777051748
0.2777051658
0.2777051781
0.2777052839
0.2777055705
0.2777060847
0.277704171
0.2777041744
0.2777041784
0.2777041923
0.2777041907
0.277704185
0.2777042103
0.2777042453
0.2777042376
0.2777042333
0.2777042566
0.2777042619
0.2777042827
0.2777044497
0.2777046771
0.2777048223
0.2777048004
0.2777047757
0.2777047653
0.2777047827
0.2777048018
0.277704806
0.2777047608
0.2777047839
0.2777048082
0.277704828
0.2777048428
0.2777048775
0.277704944
0.2777051011
0.2777043554
0.2777043303
0.2777043641
0.2777043361
0.2777043418
0.2777043411
0.2777042889
0.277704356
0.2777043698
0.2777043389
0.2777043192
0.2777043622
0.277704436
0.2777045537
0.2777044098
0.277704388
0.2777043741
0.2777043984
0.2777043649
0.2777043659
0.2777043565
0.2777043939
0.2777044093
0.2777043855
0.2777044317
0.2777044768
0.277704584
0.2777048675
0.2777054021
0.277704286
0.2777042728
0.2777042279
0.2777042933
0.2777042983
0.2777042971
0.2777043038
0.2777042979
0.2777043075
0.2777043156
0.2777042826
0.2777043809
0.2777046548
0.2777052395
0.2777064156
0.2777041056
0.277704114
0.2777041518
0.2777041178
0.2777041185
0.2777041367
0.2777041586
0.277704127
0.2777040975
0.2777041239
0.2777041797
0.2777042842
0.2777047267
0.2777059387
0.2777084026
0.2777045381
0.2777045575
0.2777045723
0.2777045715
0.277704577
0.2777045314
0.2777045306
0.2777045029
0.2777045502
0.2777045285
0.2777045841
0.2777047753
0.2777054036
0.2777072186
0.2777110906
0.2777043022
0.2777043379
0.2777043272
0.2777043192
0.2777043219
0.2777043411
0.2777043721
0.2777043734
0.2777043615
0.2777043795
0.2777043927
0.2777045792
0.2777050314
0.2777062489
0.2777087151
0.2777036717
0.277703707
0.2777037422
0.2777037481
0.2777037609
0.2777037384
0.2777037146
0.2777037379
0.2777037519
0.277703734
0.277703785
0.2777038393
0.2777040825
0.277704685
0.2777058325
0.2777051486
0.2777051254
0.2777051244
0.277705141
0.2777051636
0.2777051759
0.2777051594
0.2777051321
0.2777051236
0.277705129
0.2777051401
0.2777051933
0.2777053453
0.2777056542
0.2777062119
0.277703854
0.2777038361
0.2777038733
0.2777038544
0.2777038509
0.27770382
0.2777038129
0.277703818
0.2777038507
0.2777038403
0.2777038405
0.2777038525
0.2777039708
0.2777040758
0.2777042748
0.2777047231
0.2777047303
0.2777047203
0.2777047138
0.2777046871
0.2777046858
0.277704683
0.2777047027
0.2777047341
0.2777046885
0.2777047648
0.2777047932
0.2777048908
0.2777051617
0.2777056181
0.2777056083
0.27770561
0.2777056034
0.2777056298
0.2777056152
0.2777056057
0.2777056234
0.2777056074
0.277705645
0.2777057023
0.2777057759
0.2777060208
0.2777066136
0.2777050943
0.2777050838
0.2777051025
0.2777051018
0.277705073
0.2777050755
0.277705043
0.2777050184
0.2777050185
0.2777050226
0.2777050498
0.2777052263
0.2777058263
0.2777074075
0.2777107052
0.2777050739
0.2777050595
0.2777050508
0.2777049806
0.2777050103
0.2777049596
0.2777049353
0.2777049122
0.2777049749
0.2777049893
0.2777050537
0.2777054415
0.2777068304
0.2777108643
0.2777197038
0.2777039077
0.2777038982
0.2777038909
0.2777038894
0.2777038989
0.2777038931
0.2777038506
0.2777038496
0.2777038603
0.2777038622
0.2777040288
0.2777046615
0.2777069285
0.2777143101
0.2777326859
0.2777052232
0.2777052795
0.277705308
0.2777053037
0.277705317
0.2777052948
0.2777052936
0.2777053621
0.2777054031
0.2777054566
0.277705524
0.2777059282
0.2777073159
0.2777113017
0.2777200613
0.2777043114
0.2777043504
0.2777043252
0.2777043096
0.2777042902
0.2777042717
0.2777042617
0.2777042447
0.2777042448
0.277704289
0.2777043628
0.2777045434
0.2777051736
0.2777067665
0.2777100809
0.2777044545
0.2777044338
0.2777044282
0.2777044086
0.2777044597
0.2777044719
0.2777045055
0.2777045548
0.2777045306
0.2777045416
0.2777045942
0.2777047061
0.2777049138
0.2777054919
0.2777066738
0.2777052187
0.2777052204
0.2777051962
0.2777051742
0.2777052163
0.2777051927
0.2777051865
0.2777052241
0.277705224
0.2777052358
0.2777052855
0.2777052854
0.2777053695
0.2777056262
0.2777061383
0.2777051555
0.2777051396
0.2777051233
0.277705118
0.2777051213
0.2777051559
0.2777051513
0.2777051741
0.2777051849
0.2777051763
0.2777051781
0.2777052271
0.2777054135
0.2777058264
0.2777053322
0.277705343
0.2777053762
0.2777053749
0.2777053746
0.2777053628
0.2777054022
0.2777053719
0.277705388
0.2777054186
0.2777054711
0.2777056312
0.2777060489
0.2777072267
0.2777050547
0.2777050963
0.2777050703
0.2777050367
0.2777050192
0.27770504
0.277705026
0.2777050384
0.277705019
0.2777050622
0.2777051808
0.2777055904
0.2777069654
0.277710967
0.2777051074
0.2777050799
0.2777050909
0.2777050924
0.2777050765
0.2777050855
0.2777050944
0.2777050658
0.2777050654
0.2777051123
0.2777053204
0.2777062683
0.2777099799
0.2777226906
0.2777552151
0.2777048115
0.277704827
0.2777048616
0.2777048616
0.2777048781
0.2777048887
0.2777048956
0.2777049093
0.2777048897
0.2777049321
0.2777052168
0.2777067514
0.2777139776
0.277745415
0.2778556961
0.2777050798
0.2777050654
0.2777050785
0.2777050533
0.2777050951
0.277705046
0.2777050206
0.2777050412
0.2777050845
0.2777051213
0.2777053584
0.277706356
0.2777100086
0.2777227331
0.2777552405
0.2777052495
0.2777052477
0.2777052562
0.2777053092
0.2777053167
0.2777053359
0.2777053441
0.2777053836
0.2777053976
0.2777054198
0.2777055344
0.2777059217
0.2777072893
0.2777113009
0.2777200536
0.2777035727
0.2777035734
0.2777035682
0.2777035242
0.2777035439
0.2777035128
0.2777035385
0.2777035175
0.2777035535
0.2777035772
0.2777036197
0.277703757
0.2777041936
0.2777054031
0.2777078944
0.2777046121
0.2777046177
0.2777046499
0.2777046196
0.277704585
0.2777045971
0.2777045992
0.277704615
0.2777045508
0.2777045645
0.2777045283
0.2777045879
0.2777047738
0.2777052023
0.2777060917
0.2777043663
0.2777043601
0.2777043314
0.2777043235
0.277704317
0.2777043349
0.2777043514
0.2777043433
0.2777043326
0.277704361
0.2777043973
0.2777044938
0.2777047692
0.2777053543
0.2777053683
0.2777053808
0.2777053718
0.2777053374
0.2777053238
0.2777053201
0.2777053788
0.2777053723
0.277705364
0.2777054101
0.2777054819
0.2777057044
0.2777063994
0.27770818
0.2777040359
0.2777040355
0.2777040243
0.2777040217
0.2777040385
0.277704011
0.2777039762
0.2777039529
0.277703972
0.2777040241
0.2777041929
0.277704785
0.277706986
0.2777144253
0.2777042965
0.2777042977
0.2777043134
0.2777042772
0.2777042964
0.2777042868
0.2777042888
0.277704286
0.2777043303
0.277704412
0.2777047306
0.2777062893
0.2777134956
0.2777449085
0.2777043627
0.2777043394
0.2777043436
0.2777043287
0.2777043271
0.2777042963
0.2777043239
0.277704332
0.2777043348
0.2777044454
0.2777049845
0.277707957
0.2777259903
0.2778432171
0.2803607167
0.2777036576
0.277703686
0.2777036754
0.2777036983
0.2777036933
0.2777037065
0.2777036738
0.2777036764
0.2777037012
0.2777037475
0.2777040651
0.2777056007
0.2777128074
0.2777442251
0.2778545927
0.2777047152
0.2777047226
0.277704717
0.2777047329
0.2777047113
0.2777047226
0.2777047348
0.2777047139
0.2777047379
0.2777047054
0.277704835
0.2777054431
0.2777076856
0.2777150784
0.2777334516
0.2777050033
0.2777050259
0.2777050289
0.2777050307
0.2777050323
0.2777050512
0.2777050379
0.2777050922
0.2777051068
0.2777051286
0.277705144
0.2777053787
0.2777060685
0.2777078668
0.2777117528
0.2777055409
0.2777055386
0.277705557
0.2777055703
0.2777055708
0.2777055882
0.2777055661
0.2777055282
0.2777055631
0.2777055743
0.2777056013
0.2777056969
0.2777059178
0.2777065517
0.2777077141
0.2777055758
0.2777055807
0.2777055692
0.2777055975
0.2777055882
0.2777055838
0.2777056053
0.2777056258
0.2777056137
0.2777056196
0.2777056339
0.2777057255
0.2777058858
0.2777062944
0.2777049526
0.2777049743
0.2777049798
0.2777050049
0.2777049421
0.2777049297
0.2777049595
0.2777049823
0.2777049888
0.2777049992
0.2777050558
0.2777052006
0.2777056788
0.2777068859
0.2777049223
0.2777049268
0.2777049074
0.2777048448
0.2777048396
0.2777048805
0.2777048827
0.2777048488
0.2777048753
0.2777049141
0.2777050221
0.2777054023
0.277706763
0.2777107761
0.2777045419
0.2777045481
0.277704499
0.2777045111
0.2777045244
0.2777044764
0.2777044778
0.2777045083
0.2777045226
0.2777045587
0.2777047902
0.2777056969
0.2777093524
0.2777221532
0.2777039858
0.2777039926
0.2777039557
0.2777039343
0.2777039732
0.2777039572
0.277703946
0.2777038915
0.277703912
0.2777039859
0.2777043201
0.27770583
0.277713054
0.2777444413
0.2777051201
0.2777050908
0.2777050844
0.2777051055
0.277705075
0.2777050909
0.2777051596
0.2777051857
0.2777052092
0.2777052053
0.2777054144
0.2777063591
0.2777100469
0.2777227291
0.2777048143
0.2777048493
0.2777048231
0.2777048087
0.277704792
0.2777048214
0.2777048223
0.2777047554
0.2777047676
0.2777047852
0.2777048891
0.2777052595
0.2777065726
0.2777106233
0.2777194187
0.2777057185
0.2777057252
0.2777057594
0.277705741
0.2777057464
0.2777057401
0.2777057173
0.2777057445
0.2777057263
0.2777057608
0.2777058022
0.2777059332
0.2777064036
0.2777076428
0.2777100846
0.277705065
0.2777050476
0.2777050461
0.2777050546
0.2777050867
0.2777050568
0.2777050739
0.277705075
0.2777050454
0.2777050683
0.2777050578
0.2777051014
0.2777053047
0.2777057567
0.2777066215
0.2777046797
0.2777046989
0.2777047129
0.2777046676
0.2777046827
0.2777046899
0.2777046856
0.2777047144
0.2777047165
0.2777047143
0.2777047109
0.2777047216
0.2777048276
0.2777050829
0.2777039062
0.2777038557
0.2777038277
0.2777037637
0.2777037964
0.2777037707
0.2777037626
0.2777037095
0.2777037129
0.2777037152
0.2777037759
0.277703809
0.2777040795
0.2777046456
0.2777035181
0.2777034593
0.27770344
0.2777034426
0.2777034375
0.2777034531
0.2777034487
0.2777034629
0.2777034885
0.2777034927
0.2777035499
0.2777038178
0.2777044108
0.2777060072
0.2777046505
0.2777046456
0.2777046536
0.2777046446
0.2777046605
0.2777046802
0.2777046779
0.2777046713
0.2777046984
0.2777047166
0.2777048142
0.2777051959
0.2777065819
0.2777105698
0.2777050142
0.2777049837
0.2777050065
0.2777050301
0.2777050341
0.2777050386
0.2777050225
0.2777050515
0.2777051089
0.2777051536
0.2777052956
0.2777058707
0.2777081269
0.2777155314
0.2777050903
0.2777050659
0.2777050747
0.2777050865
0.2777050686
0.277705079
0.2777050509
0.2777050202
0.2777050839
0.2777051279
0.2777052785
0.2777056439
0.2777069891
0.2777109858
0.2777046822
0.2777046788
0.2777046871
0.2777046964
0.277704692
0.2777047045
0.2777046593
0.2777046396
0.2777046358
0.2777046645
0.2777046945
0.2777048419
0.2777054388
0.2777070424
0.2777048152
0.2777047925
0.2777047671
0.2777047534
0.277704743
0.2777047802
0.2777047956
0.2777048131
0.277704804
0.2777047879
0.277704853
0.2777049634
0.2777051471
0.2777057774
0.2777069184
0.2777046462
0.2777046361
0.2777046198
0.2777046155
0.2777046012
0.2777046278
0.2777046556
0.2777046897
0.2777046844
0.2777046724
0.2777047361
0.2777047107
0.2777048501
0.2777050856
0.277705598
0.2777041626
0.2777041977
0.2777041681
0.2777041446
0.2777041617
0.2777041559
0.2777042027
0.2777041996
0.2777041922
0.2777042168
0.277704247
0.2777042627
0.2777043242
0.2777044566
0.2777052001
0.2777051896
0.2777051953
0.2777052135
0.277705179
0.2777051718
0.2777052583
0.2777052714
0.2777052584
0.277705247
0.2777052266
0.2777052508
0.2777053021
0.2777055562
0.277704845
0.2777048791
0.2777048826
0.2777048721
0.2777048616
0.2777048294
0.277704826
0.2777047958
0.2777048184
0.2777048065
0.2777048232
0.2777048939
0.2777051108
0.2777057388
0.2777052121
0.2777051867
0.2777051495
0.2777051915
0.2777051871
0.2777051375
0.2777051392
0.2777051301
0.2777051055
0.2777051135
0.2777051511
0.2777053165
0.2777057424
0.2777069506
0.2777044886
0.2777044857
0.2777045066
0.2777045047
0.2777045061
0.2777045049
0.277704457
0.277704481
0.2777045002
0.2777045125
0.2777045356
0.2777047323
0.2777054148
0.2777072849
0.277704364
0.2777043767
0.2777043882
0.2777043815
0.2777044068
0.2777044039
0.2777044253
0.2777044129
0.2777044574
0.2777044345
0.2777044083
0.2777045745
0.2777050517
0.2777062568
0.2777046062
0.2777045941
0.277704562
0.2777045596
0.2777045438
0.2777045503
0.2777045401
0.2777045573
0.277704563
0.2777045804
0.277704623
0.2777047237
0.2777049647
0.2777055344
0.2777044631
0.2777044582
0.2777044561
0.2777045076
0.2777045057
0.2777045284
0.2777045707
0.2777045817
0.2777045355
0.2777045286
0.2777045266
0.2777045381
0.2777046565
0.2777048907
0.2777044398
0.2777044607
0.2777044772
0.2777045021
0.2777045101
0.2777045131
0.2777044888
0.2777044616
0.2777044829
0.2777044696
0.2777044711
0.2777045038
0.277704572
0.2777047146
0.2777049364
0.2777049131
0.2777049111
0.2777049089
0.2777049023
0.2777049161
0.2777048965
0.2777048712
0.2777048848
0.2777048754
0.2777048684
0.2777048597
0.2777048769
0.2777048905
0.2777049663
0.2777048949
0.2777048969
0.2777048977
0.277704867
0.2777048546
0.2777048871
0.2777048806
0.2777048892
0.2777049043
0.2777048672
0.2777049401
0.2777049856
0.2777049889
0.2777051383
0.2777042239
0.2777042188
0.2777041962
0.2777041955
0.2777042003
0.2777042185
0.2777042392
0.2777042474
0.2777042581
0.2777042335
0.2777042685
0.277704305
0.2777044456
0.2777046929
0.277704619
0.2777045883
0.2777045938
0.2777045811
0.2777046046
0.2777045909
0.2777045711
0.2777045808
0.2777045833
0.2777045888
0.2777046165
0.2777046744
0.2777048469
0.2777053359
0.2777047893
0.2777047687
0.2777047406
0.277704688
0.2777046909
0.2777046814
0.2777046395
0.2777046551
0.2777046726
0.2777046381
0.2777046539
0.2777047743
0.2777050244
0.2777055937
0.2777035914
0.2777035878
0.2777036117
0.2777036016
0.2777035719
0.2777035711
0.2777035282
0.2777035167
0.2777035384
0.2777035734
0.2777036124
0.2777037255
0.2777038999
0.2777043652
0.277704435
0.2777044304
0.2777044647
0.2777044509
0.2777044661
0.2777044841
0.2777044855
0.2777044713
0.2777044735
0.2777044582
0.2777044284
0.2777045036
0.2777046055
0.2777048848
0.2777054369
0.2777054237
0.2777054124
0.277705403
0.2777054173
0.2777053884
0.2777053904
0.2777053994
0.2777054243
0.2777054386
0.2777054899
0.2777055329
0.2777055408
0.2777056788
0.2777050572
0.2777050267
0.2777050406
0.2777050121
0.2777049918
0.2777049764
0.2777049747
0.2777049631
0.2777049765
0.2777049623
0.2777049754
0.2777049739
0.2777049926
0.2777050802
)
;

boundaryField
{
    top
    {
        type            calculated;
        value           nonuniform List<scalar> 
134
(
0.2777048223
0.277703854
0.2777052187
0.2777046121
0.2777055409
0.277705065
0.2777046462
0.2777044398
0.2777050572
0.2777048004
0.2777038361
0.2777052204
0.2777046177
0.2777055386
0.2777050476
0.2777046361
0.2777044607
0.2777050267
0.2777047757
0.2777038733
0.2777051962
0.2777046499
0.277705557
0.2777050461
0.2777046198
0.2777044772
0.2777050406
0.2777047653
0.2777038544
0.2777051742
0.2777046196
0.2777055703
0.2777050546
0.2777046155
0.2777045021
0.2777050121
0.2777047827
0.2777038509
0.2777052163
0.277704585
0.2777055708
0.2777050867
0.2777046012
0.2777045101
0.2777049918
0.2777048018
0.27770382
0.2777051927
0.2777045971
0.2777055882
0.2777050568
0.2777046278
0.2777045131
0.2777049764
0.277704806
0.2777038129
0.2777051865
0.2777045992
0.2777055661
0.2777050739
0.2777046556
0.2777044888
0.2777049747
0.2777047608
0.277703818
0.2777052241
0.277704615
0.2777055282
0.277705075
0.2777046897
0.2777044616
0.2777049631
0.2777047839
0.2777038507
0.277705224
0.2777045508
0.2777055631
0.2777050454
0.2777046844
0.2777044829
0.2777049765
0.2777048082
0.2777038403
0.2777052358
0.2777045645
0.2777055743
0.2777050683
0.2777046724
0.2777044696
0.2777049623
0.277704828
0.2777038405
0.2777052855
0.2777045283
0.2777056013
0.2777050578
0.2777047361
0.2777044711
0.2777049754
0.2777048428
0.2777038525
0.2777052854
0.2777045879
0.2777056969
0.2777051014
0.2777047107
0.2777045038
0.2777049739
0.2777048775
0.2777039708
0.2777053695
0.2777047738
0.2777059178
0.2777053047
0.2777048501
0.277704572
0.2777049926
0.277704944
0.2777040758
0.2777056262
0.2777052023
0.2777065517
0.2777057567
0.2777050856
0.2777047146
0.2777050802
0.2777051011
0.2777042748
0.2777061383
0.2777060917
0.2777077141
0.2777066215
0.277705598
0.2777049364
)
;
    }
    bottom
    {
        type            calculated;
        value           nonuniform List<scalar> 
127
(
0.2777046661
0.2777043554
0.2777047231
0.2777051555
0.2777043663
0.2777055758
0.2777046797
0.2777041626
0.2777049131
0.2777046561
0.2777043303
0.2777047303
0.2777051396
0.2777043601
0.2777055807
0.2777046989
0.2777041977
0.2777049111
0.2777046479
0.2777043641
0.2777047203
0.2777051233
0.2777043314
0.2777055692
0.2777047129
0.2777041681
0.2777049089
0.2777046683
0.2777043361
0.2777047138
0.277705118
0.2777043235
0.2777055975
0.2777046676
0.2777041446
0.2777049023
0.2777046501
0.2777043418
0.2777046871
0.2777051213
0.277704317
0.2777055882
0.2777046827
0.2777041617
0.2777049161
0.2777046553
0.2777043411
0.2777046858
0.2777051559
0.2777043349
0.2777055838
0.2777046899
0.2777041559
0.2777048965
0.2777046746
0.2777042889
0.277704683
0.2777051513
0.2777043514
0.2777056053
0.2777046856
0.2777042027
0.2777048712
0.2777046813
0.277704356
0.2777047027
0.2777051741
0.2777043433
0.2777056258
0.2777047144
0.2777041996
0.2777048848
0.2777047075
0.2777043698
0.2777047341
0.2777051849
0.2777043326
0.2777056137
0.2777047165
0.2777041922
0.2777048754
0.277704712
0.2777043389
0.2777046885
0.2777051763
0.277704361
0.2777056196
0.2777047143
0.2777042168
0.2777048684
0.2777047382
0.2777043192
0.2777047648
0.2777051781
0.2777043973
0.2777056339
0.2777047109
0.277704247
0.2777048597
0.2777047168
0.2777043622
0.2777047932
0.2777052271
0.2777044938
0.2777057255
0.2777047216
0.2777042627
0.2777048769
0.277704763
0.277704436
0.2777048908
0.2777054135
0.2777047692
0.2777058858
0.2777048276
0.2777043242
0.2777048905
0.2777048268
0.2777045537
0.2777051617
0.2777058264
0.2777053543
0.2777062944
0.2777050829
0.2777044566
0.2777049663
0.2777049695
)
;
    }
    side-walls
    {
        type            calculated;
        value           nonuniform List<scalar> 
261
(
0.2777046661
0.2777046028
0.2777053465
0.2777037555
0.2777042252
0.2777059745
0.2777051669
0.277704171
0.2777048223
0.2777046561
0.2777046124
0.277705337
0.2777037479
0.2777042369
0.2777059761
0.2777051559
0.2777041744
0.2777048004
0.2777046479
0.2777045961
0.277705347
0.2777037412
0.2777042371
0.2777060015
0.2777051609
0.2777041784
0.2777047757
0.2777046683
0.2777046024
0.2777053019
0.2777037248
0.2777042459
0.2777059819
0.277705139
0.2777041923
0.2777047653
0.2777046501
0.2777045789
0.277705363
0.2777037052
0.2777042139
0.2777059919
0.2777051715
0.2777041907
0.2777047827
0.2777046553
0.2777045725
0.2777053842
0.2777037049
0.2777042046
0.2777059829
0.2777051644
0.277704185
0.2777048018
0.2777046746
0.2777045779
0.2777053815
0.2777037246
0.2777041641
0.2777059795
0.2777051672
0.2777042103
0.277704806
0.2777046813
0.2777045622
0.2777054023
0.2777037315
0.2777041521
0.277705948
0.2777051563
0.2777042453
0.2777047608
0.2777047075
0.2777046046
0.2777054287
0.277703723
0.2777041714
0.2777059731
0.2777051644
0.2777042376
0.2777047839
0.277704712
0.2777046304
0.2777054348
0.27770372
0.2777041755
0.2777059713
0.2777051748
0.2777042333
0.2777048082
0.2777047382
0.2777046559
0.277705454
0.2777037224
0.2777042124
0.2777059747
0.2777051658
0.2777042566
0.277704828
0.2777047168
0.2777046685
0.277705518
0.2777038063
0.2777042622
0.2777060465
0.2777051781
0.2777042619
0.2777048428
0.277704763
0.2777047088
0.277705612
0.2777040347
0.277704502
0.2777062056
0.2777052839
0.2777042827
0.2777048775
0.2777048268
0.2777048083
0.2777058341
0.2777044781
0.2777050624
0.2777067163
0.2777055705
0.2777044497
0.277704944
0.2777049695
0.2777050721
0.2777063292
0.2777053979
0.2777062537
0.2777075893
0.2777060847
0.2777046771
0.2777051011
0.2777049131
0.2777048949
0.2777042239
0.277704619
0.2777047893
0.2777035914
0.277704435
0.2777054369
0.2777050572
0.2777049111
0.2777048969
0.2777042188
0.2777045883
0.2777047687
0.2777035878
0.2777044304
0.2777054237
0.2777050267
0.2777049089
0.2777048977
0.2777041962
0.2777045938
0.2777047406
0.2777036117
0.2777044647
0.2777054124
0.2777050406
0.2777049023
0.277704867
0.2777041955
0.2777045811
0.277704688
0.2777036016
0.2777044509
0.277705403
0.2777050121
0.2777049161
0.2777048546
0.2777042003
0.2777046046
0.2777046909
0.2777035719
0.2777044661
0.2777054173
0.2777049918
0.2777048965
0.2777048871
0.2777042185
0.2777045909
0.2777046814
0.2777035711
0.2777044841
0.2777053884
0.2777049764
0.2777048712
0.2777048806
0.2777042392
0.2777045711
0.2777046395
0.2777035282
0.2777044855
0.2777053904
0.2777049747
0.2777048848
0.2777048892
0.2777042474
0.2777045808
0.2777046551
0.2777035167
0.2777044713
0.2777053994
0.2777049631
0.2777048754
0.2777049043
0.2777042581
0.2777045833
0.2777046726
0.2777035384
0.2777044735
0.2777054243
0.2777049765
0.2777048684
0.2777048672
0.2777042335
0.2777045888
0.2777046381
0.2777035734
0.2777044582
0.2777054386
0.2777049623
0.2777048597
0.2777049401
0.2777042685
0.2777046165
0.2777046539
0.2777036124
0.2777044284
0.2777054899
0.2777049754
0.2777048769
0.2777049856
0.277704305
0.2777046744
0.2777047743
0.2777037255
0.2777045036
0.2777055329
0.2777049739
0.2777048905
0.2777049889
0.2777044456
0.2777048469
0.2777050244
0.2777038999
0.2777046055
0.2777055408
0.2777049926
0.2777049663
0.2777051383
0.2777046929
0.2777053359
0.2777055937
0.2777043652
0.2777048848
0.2777056788
0.2777050802
)
;
    }
    inlet
    {
        type            calculated;
        value           nonuniform List<scalar> 
81
(
0.2777046661
0.2777046028
0.2777053465
0.2777037555
0.2777042252
0.2777059745
0.2777051669
0.277704171
0.2777048223
0.2777043554
0.2777044098
0.277704286
0.2777041056
0.2777045381
0.2777043022
0.2777036717
0.2777051486
0.277703854
0.2777047231
0.2777056181
0.2777050943
0.2777050739
0.2777039077
0.2777052232
0.2777043114
0.2777044545
0.2777052187
0.2777051555
0.2777053322
0.2777050547
0.2777051074
0.2777048115
0.2777050798
0.2777052495
0.2777035727
0.2777046121
0.2777043663
0.2777053683
0.2777040359
0.2777042965
0.2777043627
0.2777036576
0.2777047152
0.2777050033
0.2777055409
0.2777055758
0.2777049526
0.2777049223
0.2777045419
0.2777039858
0.2777051201
0.2777048143
0.2777057185
0.277705065
0.2777046797
0.2777039062
0.2777035181
0.2777046505
0.2777050142
0.2777050903
0.2777046822
0.2777048152
0.2777046462
0.2777041626
0.2777052001
0.277704845
0.2777052121
0.2777044886
0.277704364
0.2777046062
0.2777044631
0.2777044398
0.2777049131
0.2777048949
0.2777042239
0.277704619
0.2777047893
0.2777035914
0.277704435
0.2777054369
0.2777050572
)
;
    }
    outlet
    {
        type            calculated;
        value           nonuniform 0();
    }
    procBoundary0to1
    {
        type            processor;
        value           nonuniform List<scalar> 
97
(
0.2777052385
0.2777048009
0.2777055163
0.2777071423
0.2777067942
0.2777079999
0.277708959
0.2777069018
0.2777051031
0.2777053816
0.2777048009
0.2777048009
0.2777062613
0.2777077397
0.2777082086
0.2777117774
0.2777157426
0.2777120816
0.277707654
0.2777070116
0.2777046788
0.2777057008
0.2777077397
0.2777077397
0.2777150923
0.2777197442
0.2777292129
0.2777464279
0.2777295725
0.2777145172
0.2777084063
0.2777069368
0.2777067291
0.2777097386
0.2777197442
0.2777197442
0.2777771163
0.2778552203
0.2778722524
0.2777771961
0.2777295871
0.2777112296
0.2777074874
0.2777065167
0.2777121047
0.2777328044
0.2778552203
0.2778552203
0.2799640659
0.2778547767
0.2778712235
0.2777552479
0.2777470584
0.2777163546
0.2777094647
0.2777071842
0.2777094242
0.2777195365
0.2777546028
0.2778547767
0.2777552479
0.2777552479
0.2777289185
0.2777103066
0.2777134266
0.277707962
0.2777055495
0.2777058306
0.2777093006
0.2777193755
0.2777338808
0.2777197606
0.2777103066
0.2777103066
0.2777086968
0.2777054269
0.2777064504
0.2777047199
0.2777061393
0.277706858
0.2777094299
0.277711196
0.2777086815
0.2777067551
0.2777054269
0.2777054269
0.2777054012
0.2777052225
0.2777051213
0.2777053698
0.2777052655
0.2777061716
0.2777067843
0.2777052844
0.2777053785
0.2777059359
0.2777052225
)
;
    }
}


// ************************************************************************* //
