/*--------------------------------*- C++ -*----------------------------------*\
| =========                 |                                                 |
| \\      /  F ield         | OpenFOAM: The Open Source CFD Toolbox           |
|  \\    /   O peration     | Version:  4.x                                   |
|   \\  /    A nd           | Web:      www.OpenFOAM.org                      |
|    \\/     M anipulation  |                                                 |
\*---------------------------------------------------------------------------*/
FoamFile
{
    version     2.0;
    format      ascii;
    class       volScalarField;
    location    "4000";
    object      T;
}
// * * * * * * * * * * * * * * * * * * * * * * * * * * * * * * * * * * * * * //

dimensions      [0 0 0 1 0 0 0];

internalField   nonuniform List<scalar> 
1175
(
1223.150586
1223.15063
1223.150666
1223.150576
1223.150656
1223.150633
1223.150549
1223.15052
1223.150408
1223.150398
1223.150309
1223.150474
1223.150444
1223.150543
1223.150664
1223.150865
1223.150822
1223.150894
1223.150866
1223.15097
1223.150998
1223.150975
1223.151046
1223.150863
1223.150764
1223.150693
1223.150754
1223.150869
1223.151089
1223.15122
1223.147589
1223.147631
1223.147587
1223.147786
1223.147516
1223.147423
1223.147436
1223.147346
1223.147237
1223.147234
1223.147222
1223.14715
1223.147289
1223.147594
1223.147938
1223.154597
1223.15463
1223.15466
1223.154732
1223.154818
1223.15482
1223.154734
1223.154706
1223.154754
1223.154802
1223.154903
1223.154871
1223.154792
1223.155062
1223.155421
1223.152528
1223.152476
1223.152475
1223.152436
1223.152577
1223.152619
1223.152798
1223.152854
1223.152781
1223.152804
1223.152775
1223.152973
1223.153098
1223.153555
1223.154184
1223.144823
1223.144816
1223.144704
1223.144791
1223.144747
1223.144786
1223.144802
1223.144944
1223.144843
1223.144886
1223.144983
1223.145004
1223.14523
1223.145204
1223.145769
1223.14838
1223.148429
1223.148407
1223.148503
1223.14836
1223.148391
1223.14838
1223.14843
1223.148401
1223.148379
1223.148491
1223.148647
1223.148734
1223.148754
1223.149015
1223.152767
1223.152751
1223.152734
1223.152673
1223.15268
1223.152705
1223.152594
1223.152441
1223.152479
1223.152513
1223.152452
1223.152545
1223.152745
1223.152668
1223.15296
1223.149898
1223.149994
1223.150103
1223.150149
1223.150072
1223.149988
1223.14997
1223.15017
1223.150071
1223.149974
1223.149913
1223.149919
1223.149939
1223.150027
1223.150084
1223.151954
1223.152065
1223.151916
1223.152039
1223.152014
1223.152017
1223.152248
1223.151954
1223.151897
1223.152048
1223.152177
1223.152103
1223.15207
1223.15221
1223.151715
1223.151811
1223.151872
1223.151765
1223.151912
1223.151908
1223.15195
1223.151788
1223.151727
1223.151855
1223.151723
1223.151735
1223.15182
1223.151871
1223.152079
1223.15226
1223.152318
1223.152516
1223.152228
1223.152206
1223.152211
1223.152183
1223.152212
1223.152182
1223.152187
1223.152471
1223.152467
1223.152469
1223.152854
1223.153569
1223.153054
1223.153018
1223.152851
1223.153001
1223.152998
1223.152918
1223.152823
1223.152966
1223.153114
1223.153063
1223.153049
1223.153357
1223.153725
1223.154422
1223.15589
1223.15115
1223.151064
1223.150999
1223.151002
1223.150978
1223.15118
1223.151184
1223.151312
1223.151125
1223.1513
1223.151349
1223.151528
1223.152036
1223.153161
1223.155586
1223.152188
1223.152031
1223.152078
1223.152114
1223.152102
1223.152018
1223.151882
1223.151881
1223.151952
1223.151938
1223.152111
1223.152057
1223.152383
1223.153056
1223.154513
1223.154966
1223.15481
1223.154655
1223.154629
1223.154573
1223.154672
1223.154778
1223.154679
1223.154629
1223.154749
1223.154662
1223.154852
1223.154989
1223.155296
1223.156137
1223.148461
1223.148563
1223.148567
1223.148494
1223.148395
1223.148341
1223.148414
1223.148536
1223.148581
1223.14858
1223.148603
1223.148579
1223.148466
1223.148406
1223.148512
1223.154163
1223.154242
1223.154078
1223.154161
1223.154176
1223.154313
1223.154344
1223.154323
1223.154184
1223.154244
1223.154285
1223.154348
1223.154119
1223.154315
1223.154732
1223.150335
1223.150303
1223.150347
1223.150376
1223.150493
1223.150499
1223.150512
1223.150427
1223.150297
1223.150521
1223.150257
1223.150343
1223.150466
1223.150555
1223.146393
1223.146436
1223.146429
1223.146457
1223.146341
1223.146406
1223.146449
1223.146374
1223.146456
1223.146332
1223.146218
1223.146322
1223.146452
1223.146801
1223.1487
1223.148746
1223.148664
1223.148667
1223.148794
1223.148783
1223.148927
1223.149042
1223.149063
1223.149126
1223.1493
1223.149516
1223.149929
1223.15103
1223.153039
1223.14879
1223.148853
1223.148891
1223.149201
1223.14907
1223.149294
1223.149403
1223.149513
1223.149271
1223.149347
1223.149608
1223.149916
1223.150654
1223.152952
1223.157908
1223.153926
1223.153968
1223.154
1223.154007
1223.153965
1223.153991
1223.154181
1223.154195
1223.15419
1223.154361
1223.154367
1223.15454
1223.15569
1223.160181
1223.1711
1223.148132
1223.147884
1223.147758
1223.147778
1223.147719
1223.147817
1223.147825
1223.147531
1223.147385
1223.147289
1223.147536
1223.147772
1223.148515
1223.151025
1223.156333
1223.152148
1223.151977
1223.152087
1223.152156
1223.152242
1223.152324
1223.152369
1223.152449
1223.152471
1223.152357
1223.152326
1223.152524
1223.152804
1223.153853
1223.155788
1223.151518
1223.151609
1223.151634
1223.15172
1223.151495
1223.151441
1223.151294
1223.151081
1223.151199
1223.151192
1223.151098
1223.151034
1223.151328
1223.151741
1223.152431
1223.148152
1223.148144
1223.148251
1223.148348
1223.148163
1223.148267
1223.148295
1223.148131
1223.148139
1223.14811
1223.147964
1223.148175
1223.148357
1223.148509
1223.148779
1223.14843
1223.1485
1223.148572
1223.148596
1223.148581
1223.148429
1223.14845
1223.148352
1223.148315
1223.148387
1223.148491
1223.148613
1223.148719
1223.149124
1223.147652
1223.147604
1223.147458
1223.147464
1223.147465
1223.147518
1223.147345
1223.147484
1223.14743
1223.147361
1223.147361
1223.147424
1223.147902
1223.148749
1223.148874
1223.148691
1223.148806
1223.148953
1223.149031
1223.148939
1223.149003
1223.148957
1223.149077
1223.149027
1223.149048
1223.14926
1223.150059
1223.152499
1223.148642
1223.148763
1223.148715
1223.148708
1223.148778
1223.148739
1223.148703
1223.148843
1223.148903
1223.148955
1223.149155
1223.149661
1223.151738
1223.159524
1223.178855
1223.149945
1223.149877
1223.149725
1223.149725
1223.149652
1223.149606
1223.149579
1223.149535
1223.149697
1223.149861
1223.150259
1223.151294
1223.155617
1223.174239
1223.232517
1223.148764
1223.148827
1223.148769
1223.148881
1223.148697
1223.148914
1223.149028
1223.148951
1223.148819
1223.148915
1223.148988
1223.149274
1223.151611
1223.159336
1223.17874
1223.148016
1223.148024
1223.147987
1223.147753
1223.14772
1223.147636
1223.147602
1223.147437
1223.14741
1223.147451
1223.147491
1223.147801
1223.148633
1223.151028
1223.156367
1223.155402
1223.155399
1223.155422
1223.155615
1223.155529
1223.155666
1223.155554
1223.155651
1223.155511
1223.155472
1223.155516
1223.155679
1223.156073
1223.156781
1223.158128
1223.150824
1223.150799
1223.150657
1223.150791
1223.150943
1223.15089
1223.150881
1223.150815
1223.151108
1223.151082
1223.151353
1223.151429
1223.151537
1223.151872
1223.152366
1223.151906
1223.151933
1223.15206
1223.152095
1223.152123
1223.152045
1223.151973
1223.152012
1223.152071
1223.151987
1223.15196
1223.151953
1223.151921
1223.152269
1223.147493
1223.147438
1223.147478
1223.147629
1223.147689
1223.147706
1223.147449
1223.147483
1223.14754
1223.147417
1223.147395
1223.147436
1223.14765
1223.148927
1223.153362
1223.153363
1223.153412
1223.153424
1223.15335
1223.153472
1223.153627
1223.15374
1223.153699
1223.153648
1223.153644
1223.153996
1223.155437
1223.159674
1223.152214
1223.152209
1223.152139
1223.152299
1223.152215
1223.152258
1223.152252
1223.152281
1223.152161
1223.152151
1223.152401
1223.153329
1223.15774
1223.176472
1223.151922
1223.152025
1223.152006
1223.152072
1223.152079
1223.152216
1223.152099
1223.152083
1223.15217
1223.152184
1223.152478
1223.154409
1223.165427
1223.235472
1216.340749
1223.155028
1223.154903
1223.154949
1223.154848
1223.154871
1223.154814
1223.154961
1223.154966
1223.154931
1223.155078
1223.155332
1223.156362
1223.160771
1223.179479
1223.237377
1223.15037
1223.150337
1223.150362
1223.150291
1223.150387
1223.150338
1223.150286
1223.150388
1223.150325
1223.150647
1223.150816
1223.151098
1223.152356
1223.156797
1223.167728
1223.1491
1223.149001
1223.148988
1223.14898
1223.148973
1223.14889
1223.14895
1223.148716
1223.148673
1223.148657
1223.148883
1223.148871
1223.149108
1223.150306
1223.152669
1223.146733
1223.146743
1223.146662
1223.146603
1223.146601
1223.146525
1223.146623
1223.146793
1223.146651
1223.146642
1223.146658
1223.146653
1223.146862
1223.146995
1223.147752
1223.146579
1223.146558
1223.146608
1223.146484
1223.146524
1223.146544
1223.14645
1223.146363
1223.146426
1223.146435
1223.146484
1223.146418
1223.146639
1223.147062
1223.149324
1223.149228
1223.149204
1223.149093
1223.14937
1223.149425
1223.149295
1223.1492
1223.149189
1223.149208
1223.14919
1223.149321
1223.149532
1223.15025
1223.149458
1223.149438
1223.149523
1223.149799
1223.149822
1223.149642
1223.149634
1223.149792
1223.14971
1223.149679
1223.149747
1223.150089
1223.150951
1223.15334
1223.151133
1223.151106
1223.151322
1223.151268
1223.15121
1223.151422
1223.151419
1223.151298
1223.151294
1223.151393
1223.15149
1223.152177
1223.154502
1223.161891
1223.153582
1223.153552
1223.153715
1223.153809
1223.153638
1223.153709
1223.153762
1223.154018
1223.154003
1223.154028
1223.154208
1223.155352
1223.159685
1223.178529
1223.148586
1223.148715
1223.148744
1223.14865
1223.148785
1223.148716
1223.148416
1223.148315
1223.14827
1223.148545
1223.148741
1223.149261
1223.151443
1223.159355
1223.149933
1223.149779
1223.149894
1223.149958
1223.150031
1223.149902
1223.1499
1223.150204
1223.150185
1223.150247
1223.150333
1223.150718
1223.15179
1223.154013
1223.159164
1223.14595
1223.145921
1223.145771
1223.145852
1223.145828
1223.145856
1223.145958
1223.145842
1223.14594
1223.145854
1223.145903
1223.146094
1223.146339
1223.146917
1223.148481
1223.148829
1223.148906
1223.148912
1223.148875
1223.148733
1223.148865
1223.148791
1223.148789
1223.148929
1223.148863
1223.149021
1223.149167
1223.149198
1223.149431
1223.150032
1223.150526
1223.150441
1223.15038
1223.150579
1223.150513
1223.150481
1223.150501
1223.150376
1223.150374
1223.150407
1223.150495
1223.150658
1223.150744
1223.150902
1223.153933
1223.154155
1223.154279
1223.15456
1223.154416
1223.15453
1223.154566
1223.154804
1223.154801
1223.154832
1223.154702
1223.154985
1223.155003
1223.155469
1223.155642
1223.155901
1223.155986
1223.155975
1223.155998
1223.155929
1223.15595
1223.155893
1223.155802
1223.155864
1223.155906
1223.15572
1223.156163
1223.157198
1223.150655
1223.150676
1223.150641
1223.15068
1223.15061
1223.150524
1223.150536
1223.150574
1223.150489
1223.150548
1223.150663
1223.150998
1223.151748
1223.154249
1223.149053
1223.149187
1223.149087
1223.148983
1223.148965
1223.148946
1223.149019
1223.148901
1223.148691
1223.148673
1223.148787
1223.149214
1223.150412
1223.154802
1223.148718
1223.148825
1223.148786
1223.148734
1223.148813
1223.148768
1223.148894
1223.149037
1223.148791
1223.148737
1223.148618
1223.149025
1223.149955
1223.152416
1223.150515
1223.15053
1223.150493
1223.150452
1223.150472
1223.150417
1223.150618
1223.15071
1223.150748
1223.150703
1223.150865
1223.15121
1223.151635
1223.152638
1223.149929
1223.150029
1223.150141
1223.150201
1223.150247
1223.150084
1223.150017
1223.149943
1223.149995
1223.150107
1223.149958
1223.149901
1223.1503
1223.150484
1223.151354
1223.150673
1223.150718
1223.15079
1223.150809
1223.150872
1223.150755
1223.150633
1223.150485
1223.150515
1223.150592
1223.150384
1223.150706
1223.150645
1223.15089
1223.151159
1223.152804
1223.152649
1223.152779
1223.152883
1223.152807
1223.152833
1223.152628
1223.152642
1223.15268
1223.152585
1223.152494
1223.152541
1223.152562
1223.152638
1223.148234
1223.14828
1223.148255
1223.148175
1223.148327
1223.148358
1223.147978
1223.147923
1223.147987
1223.14806
1223.148222
1223.148326
1223.148657
1223.148838
1223.149798
1223.149648
1223.149632
1223.149678
1223.149725
1223.149867
1223.149883
1223.150019
1223.149931
1223.150025
1223.15009
1223.150207
1223.15046
1223.150654
1223.148181
1223.148293
1223.148457
1223.148272
1223.148291
1223.14851
1223.148504
1223.148548
1223.148675
1223.148705
1223.148771
1223.14881
1223.149252
1223.149966
1223.151368
1223.151381
1223.151288
1223.151297
1223.151291
1223.151296
1223.151509
1223.151408
1223.151345
1223.15137
1223.151562
1223.151718
1223.151987
1223.15287
1223.151916
1223.15186
1223.15181
1223.151839
1223.151728
1223.151741
1223.151648
1223.151707
1223.151529
1223.151696
1223.152043
1223.152078
1223.152294
1223.153021
1223.15085
1223.150903
1223.151044
1223.151055
1223.151125
1223.151096
1223.151142
1223.151069
1223.151056
1223.151021
1223.150971
1223.150957
1223.151104
1223.151555
1223.15148
1223.151502
1223.151511
1223.151284
1223.151292
1223.151193
1223.151007
1223.15096
1223.151171
1223.151224
1223.151305
1223.151465
1223.1515
1223.151769
1223.151582
1223.151491
1223.151418
1223.151308
1223.151273
1223.15126
1223.151368
1223.151488
1223.151399
1223.151472
1223.151508
1223.151479
1223.151471
1223.151501
1223.151818
1223.149498
1223.149507
1223.149516
1223.149546
1223.149485
1223.149571
1223.149683
1223.149624
1223.149669
1223.149709
1223.149774
1223.149769
1223.149882
1223.149929
1223.149578
1223.149569
1223.149566
1223.149701
1223.149756
1223.149613
1223.149641
1223.149605
1223.149543
1223.149721
1223.149442
1223.149357
1223.149635
1223.149635
1223.152533
1223.152556
1223.152655
1223.152659
1223.152637
1223.152558
1223.152467
1223.152433
1223.152393
1223.152525
1223.152443
1223.152493
1223.152427
1223.15262
1223.150793
1223.150928
1223.150904
1223.15096
1223.150857
1223.150917
1223.151005
1223.150966
1223.150964
1223.150975
1223.150965
1223.151048
1223.151214
1223.151284
1223.150043
1223.150134
1223.150258
1223.15049
1223.150477
1223.150519
1223.150704
1223.150639
1223.150573
1223.150766
1223.15083
1223.150717
1223.150797
1223.151215
1223.155319
1223.155335
1223.15523
1223.155275
1223.155405
1223.155409
1223.155599
1223.155652
1223.155567
1223.155448
1223.155388
1223.155227
1223.155386
1223.15556
1223.151604
1223.151624
1223.151473
1223.151534
1223.151467
1223.151388
1223.151382
1223.151447
1223.151444
1223.151535
1223.151739
1223.151618
1223.151723
1223.151775
1223.147191
1223.147249
1223.147299
1223.14734
1223.147277
1223.147405
1223.147396
1223.147358
1223.147253
1223.147204
1223.14702
1223.146947
1223.147204
1223.147254
1223.148863
1223.148997
1223.148936
1223.149062
1223.149151
1223.149219
1223.149227
1223.149279
1223.149223
1223.149295
1223.149264
1223.149342
1223.149432
1223.149427
)
;

boundaryField
{
    top
    {
        type            zeroGradient;
    }
    bottom
    {
        type            zeroGradient;
    }
    side-walls
    {
        type            zeroGradient;
    }
    inlet
    {
        type            zeroGradient;
    }
    outlet
    {
        type            zeroGradient;
    }
    procBoundary0to1
    {
        type            processor;
        value           nonuniform List<scalar> 
97
(
1223.15078
1223.152415
1223.151448
1223.14846
1223.156098
1223.155138
1223.146563
1223.149519
1223.153268
1223.15015
1223.152415
1223.152415
1223.152423
1223.147737
1223.15454
1223.157791
1223.158187
1223.156451
1223.156983
1223.149119
1223.155137
1223.150706
1223.147737
1223.147737
1223.155749
1223.15773
1223.163543
1223.179206
1223.161958
1223.158281
1223.153669
1223.149365
1223.149558
1223.150005
1223.15773
1223.15773
1223.192102
1223.234604
1223.242388
1223.191748
1223.161894
1223.160204
1223.153045
1223.153026
1223.151119
1223.170578
1223.234604
1223.234604
1216.109052
1223.236557
1223.246918
1223.178707
1223.176429
1223.155492
1223.148687
1223.147554
1223.15139
1223.158645
1223.181547
1223.236557
1223.178707
1223.178707
1223.16484
1223.154795
1223.150527
1223.150955
1223.151373
1223.156145
1223.159225
1223.159353
1223.165836
1223.157657
1223.154795
1223.154795
1223.15239
1223.15197
1223.151508
1223.152772
1223.148832
1223.15162
1223.151365
1223.155121
1223.154661
1223.152073
1223.15197
1223.15197
1223.151955
1223.149549
1223.149995
1223.149909
1223.152623
1223.152014
1223.151847
1223.155921
1223.152126
1223.147415
1223.149549
)
;
    }
}


// ************************************************************************* //
