/*--------------------------------*- C++ -*----------------------------------*\
| =========                 |                                                 |
| \\      /  F ield         | OpenFOAM: The Open Source CFD Toolbox           |
|  \\    /   O peration     | Version:  4.x                                   |
|   \\  /    A nd           | Web:      www.OpenFOAM.org                      |
|    \\/     M anipulation  |                                                 |
\*---------------------------------------------------------------------------*/
FoamFile
{
    version     2.0;
    format      ascii;
    class       volVectorField;
    location    "4000";
    object      U;
}
// * * * * * * * * * * * * * * * * * * * * * * * * * * * * * * * * * * * * * //

dimensions      [0 1 -1 0 0 0 0];

internalField   nonuniform List<vector> 
1175
(
(0.01100000045 1.809347972e-10 4.303547779e-10)
(0.01100000002 1.706649997e-09 2.407843065e-11)
(0.01100000172 9.366632223e-10 -1.516852806e-10)
(0.01099999698 -3.381745542e-09 2.248427925e-09)
(0.01100000037 -5.32170292e-10 -5.754465107e-10)
(0.01100000097 -8.576846026e-11 -9.659271664e-10)
(0.01100000325 4.757922687e-11 -1.700384029e-11)
(0.01100000489 -2.12793722e-09 -1.103704274e-10)
(0.01100000984 1.991192835e-10 -3.903375339e-09)
(0.01100001656 1.515330212e-09 -6.492659758e-09)
(0.011000031 -3.172020329e-09 -8.069651031e-09)
(0.01100004228 -5.262116942e-09 -8.381704614e-09)
(0.01100008563 -1.363488393e-08 -1.48415679e-08)
(0.01100011872 -1.145975882e-08 -1.256053993e-08)
(0.01100019967 -3.0055954e-08 -2.86141511e-08)
(0.01100000067 1.483544075e-10 1.196529647e-09)
(0.01100000149 -4.119468666e-10 -1.269156409e-09)
(0.0109999993 7.607821366e-11 -1.670906504e-09)
(0.01099999992 3.904592692e-10 2.171408257e-09)
(0.01100000027 -7.800528607e-10 -1.981276759e-09)
(0.01100000152 8.497206174e-10 -8.649142097e-10)
(0.0110000011 -1.743531416e-09 -6.808221857e-10)
(0.01100000515 -1.616039752e-09 -7.781186007e-10)
(0.01100001003 -4.424821854e-09 -2.068916375e-09)
(0.01100001187 -6.098167203e-09 -3.951562682e-09)
(0.01100002579 -1.456616659e-08 -6.66290621e-09)
(0.01100002914 -2.079587801e-08 -7.025740586e-09)
(0.01100007985 -3.988375355e-08 -1.432058478e-08)
(0.01100010014 -3.948723627e-08 -1.143469898e-08)
(0.01100019129 -1.071440484e-07 -4.366723941e-08)
(0.0109999998 3.146865146e-10 3.15675141e-10)
(0.01099999947 -8.762602871e-10 5.327174572e-10)
(0.01099999903 2.889025298e-10 2.83753179e-11)
(0.01100000148 5.159237864e-10 2.826184937e-09)
(0.01100000085 -6.003543625e-10 9.814647083e-10)
(0.01099999978 -1.49146492e-09 -2.254632532e-09)
(0.01100000109 -2.666282624e-09 2.094891179e-09)
(0.01100000103 -1.285289205e-09 -2.59329645e-09)
(0.01100000519 -4.1339186e-09 -6.003570681e-09)
(0.01100000277 -8.687658021e-09 -4.520384707e-09)
(0.01100001624 -1.47031547e-08 -8.929837848e-09)
(0.01100000983 -2.158135475e-08 -1.14297458e-08)
(0.01100005849 -4.49251595e-08 -2.256250636e-08)
(0.0110000464 -4.06068851e-08 -2.043514147e-08)
(0.01100016812 -1.332107819e-07 -9.012066786e-08)
(0.01099999968 -2.612856449e-10 6.23841234e-10)
(0.01100000352 -5.830576574e-10 1.401958597e-09)
(0.01099999819 5.427348588e-10 8.058442765e-10)
(0.01099999915 9.793311601e-10 -7.017562504e-10)
(0.01100000057 9.74537454e-10 -1.229460441e-09)
(0.01099999957 -7.209238983e-10 -3.050032148e-09)
(0.01099999726 3.049471022e-11 -3.189349408e-10)
(0.01100000038 -1.615338773e-09 -2.299113346e-09)
(0.01100000324 -3.01244805e-09 -2.982784515e-09)
(0.01100000051 -6.208835069e-09 -3.76835576e-09)
(0.01100001245 -1.401448488e-08 -6.191386595e-09)
(0.01099999929 -2.286405059e-08 -9.296614027e-09)
(0.01100005495 -5.489668605e-08 -2.357077928e-08)
(0.01100001059 -6.32927094e-08 -1.770735823e-08)
(0.0110001659 -2.095126114e-07 -1.253561494e-07)
(0.01100000025 -1.151544224e-09 -2.261295897e-09)
(0.01100000035 -1.821486817e-09 -8.824591089e-10)
(0.01099999907 -1.425257365e-09 -6.230895272e-10)
(0.01099999704 3.456819084e-10 -1.817904657e-11)
(0.01099999681 -4.194794961e-10 -8.57578875e-10)
(0.01099999876 -4.832330396e-10 -3.103705655e-09)
(0.0109999982 5.282449132e-10 -2.435966815e-09)
(0.01099999845 6.933520846e-10 -4.876202996e-09)
(0.0109999993 1.032817438e-09 -2.456483869e-09)
(0.01099999255 2.709636599e-09 -5.022616268e-09)
(0.01099999923 1.762470217e-09 -8.23272418e-09)
(0.01099996654 2.063958268e-09 -1.80659869e-08)
(0.01100001232 7.851410916e-10 -4.052822358e-08)
(0.01099989363 9.385696744e-10 -4.981998149e-08)
(0.01100013544 4.808841544e-10 -3.031751608e-07)
(0.01099999886 -1.217391832e-09 -1.44761641e-09)
(0.01100000106 -5.916025502e-10 -5.018332831e-10)
(0.01099999967 -4.525503821e-10 -4.340208098e-10)
(0.01100000024 -4.735253594e-10 -4.534634628e-10)
(0.01099999632 -1.649103256e-10 -7.129042553e-10)
(0.01100000039 7.789504725e-10 -6.582342945e-10)
(0.01099999954 1.020858035e-09 4.629520576e-10)
(0.01100000238 3.707144578e-09 -2.373169199e-09)
(0.01100000282 5.12034619e-09 -2.476608736e-09)
(0.01100000014 7.325642248e-09 -4.348145945e-09)
(0.01100001167 1.542846985e-08 -5.355635082e-09)
(0.01099999905 2.398210774e-08 -9.315028495e-09)
(0.01100005383 5.521119269e-08 -1.903064797e-08)
(0.01100000878 6.227772419e-08 -1.590754488e-08)
(0.0110001677 2.090438276e-07 -1.254605968e-07)
(0.01100000026 -1.024310367e-10 -7.293131145e-10)
(0.01100000242 1.840130023e-09 -8.499869999e-10)
(0.01099999887 -3.505011071e-10 -2.62656853e-10)
(0.0110000005 -4.158143799e-11 8.06206718e-11)
(0.01099999904 -2.765730111e-10 -2.309048729e-10)
(0.01099999899 1.302178081e-09 -1.360840822e-09)
(0.01100000143 2.128406469e-09 -1.133747779e-09)
(0.01100000271 3.301986331e-09 -1.712909475e-09)
(0.0110000062 7.180263079e-09 5.063877551e-10)
(0.01100000213 8.637110977e-09 -4.714534844e-09)
(0.01100001653 1.549732023e-08 -5.498235567e-09)
(0.01100000914 2.26930484e-08 -8.735621463e-09)
(0.01100006035 4.505144404e-08 -2.262304908e-08)
(0.01100004765 4.2269124e-08 -1.810443758e-08)
(0.01100016818 1.341418087e-07 -8.803571579e-08)
(0.01099999958 9.680731853e-10 -6.253524317e-10)
(0.01100000131 5.948673184e-10 1.911735917e-09)
(0.01100000126 4.258665496e-10 2.396013157e-10)
(0.01100000065 1.478461644e-09 -2.638646192e-09)
(0.01100000054 2.098644543e-09 -1.463701573e-09)
(0.01100000065 2.15097881e-09 -1.481426621e-09)
(0.01100000239 3.389213903e-09 -2.2897951e-09)
(0.01100000457 3.507637447e-09 -3.06209106e-09)
(0.01100000874 5.138301895e-09 -2.303762079e-09)
(0.01100001051 7.423275004e-09 -3.967849878e-09)
(0.01100002533 1.413897315e-08 -5.456279333e-09)
(0.01100002945 1.87865394e-08 -6.886890575e-09)
(0.0110000809 4.047583531e-08 -1.781920256e-08)
(0.01100009907 3.982462383e-08 -1.203190824e-08)
(0.01100018888 1.07437009e-07 -4.242319554e-08)
(0.01099999994 -3.83225748e-10 1.70368491e-10)
(0.01100000143 5.059676317e-10 -2.884033214e-09)
(0.01099999997 5.675078207e-10 -2.177689291e-09)
(0.01100000214 -7.066565283e-11 -1.174292865e-09)
(0.01100000168 1.367238697e-09 1.006826944e-09)
(0.01100000076 5.907515364e-10 -1.386198672e-09)
(0.01100000177 2.087636626e-09 1.624017126e-09)
(0.01100000694 2.477054077e-10 -2.264700027e-09)
(0.01100001396 2.858856246e-09 -3.515825815e-09)
(0.01100001292 4.008717556e-09 -1.058992619e-09)
(0.01100003104 5.207409403e-09 -4.346193775e-09)
(0.01100004091 6.54656821e-09 -6.286271275e-09)
(0.01100008609 1.503642346e-08 -1.612616649e-08)
(0.01100011843 1.084896846e-08 -1.080277767e-08)
(0.0110001983 2.895412736e-08 -2.931928518e-08)
(0.01100000051 1.980675171e-10 3.569188791e-11)
(0.0110000018 3.327499852e-09 3.444094576e-10)
(0.01099999911 1.006116226e-09 -1.503573144e-09)
(0.01099999714 5.727371539e-10 -5.695144776e-10)
(0.01099999922 -1.713055542e-10 -2.075196355e-09)
(0.01100000011 -7.130617388e-11 -1.536602349e-09)
(0.01100000505 -8.239611128e-10 -2.023833693e-09)
(0.01100000396 -1.732833446e-09 -3.277914686e-09)
(0.01100000955 -6.808486798e-10 -3.845721774e-09)
(0.01100001103 -3.16446313e-09 -7.955530503e-09)
(0.0110000275 -3.296222878e-09 -1.355072792e-08)
(0.01100003357 -4.419707777e-09 -1.958091246e-08)
(0.01100008034 -1.598930855e-08 -3.897962472e-08)
(0.01100009913 -1.023935817e-08 -4.009228256e-08)
(0.01100000011 9.956305401e-10 -1.945654618e-10)
(0.01100000084 7.084852016e-10 -8.877490139e-10)
(0.01099999935 -1.604355004e-09 -1.532446151e-09)
(0.01099999642 -1.912533501e-10 -1.402700385e-09)
(0.01099999918 3.204716439e-10 -1.530885673e-09)
(0.01100000023 2.801598795e-11 -3.706530408e-09)
(0.01100000429 -7.280580957e-10 -3.275084592e-09)
(0.01100000221 -1.712281504e-09 -3.378415988e-09)
(0.01100000624 -4.132512152e-09 -5.412724055e-09)
(0.01100000784 -6.741702044e-09 -9.240685288e-09)
(0.01100002215 -1.527372809e-08 -1.510752322e-08)
(0.01100001811 -2.241427176e-08 -2.314031321e-08)
(0.01100007049 -4.955770159e-08 -4.979707205e-08)
(0.01100006829 -4.806494041e-08 -4.887778676e-08)
(0.0110001825 -1.666330662e-07 -1.682540393e-07)
(0.01100000114 -2.336026588e-10 -2.403761992e-10)
(0.01099999956 -2.574542679e-09 -6.117098597e-10)
(0.01100000131 2.59395885e-10 -1.760265462e-10)
(0.01099999766 -3.005560711e-10 -7.537248546e-10)
(0.01099999848 4.767179292e-10 -1.4156061e-09)
(0.01099999955 -1.619642486e-09 -3.184950634e-09)
(0.01100000033 -2.350897014e-09 -3.158606901e-09)
(0.01099999873 -3.251631057e-09 -4.46376332e-09)
(0.01100000297 -6.052696343e-09 -5.433522147e-09)
(0.01099999764 -7.584428357e-09 -1.058292954e-08)
(0.01100001103 -1.427436887e-08 -1.600787439e-08)
(0.01099999182 -2.283793125e-08 -3.08981685e-08)
(0.01100004126 -4.952648755e-08 -7.454815799e-08)
(0.01099998101 -4.348175948e-08 -8.003849376e-08)
(0.01100014739 -2.188402105e-07 -3.585531305e-07)
(0.01100000071 -9.553239361e-10 4.759068787e-11)
(0.0110000006 -8.050820736e-10 -1.063097883e-09)
(0.01099999726 1.087512479e-09 -5.996737922e-10)
(0.01100000065 -3.772968295e-10 -1.684844928e-09)
(0.01099999713 -1.245767285e-10 -2.963033768e-09)
(0.01100000056 -9.857069076e-10 -1.957092112e-09)
(0.0109999971 -6.46058748e-10 -1.282901789e-09)
(0.0109999981 -3.6661903e-09 -4.095669903e-09)
(0.01100000231 -2.615213401e-09 -5.542048249e-09)
(0.01099999773 -8.746355115e-09 -1.166155281e-08)
(0.01100000521 -1.494272197e-08 -1.389960874e-08)
(0.01099998503 -2.970635856e-08 -3.33451016e-08)
(0.01100003347 -7.41841584e-08 -7.206178871e-08)
(0.01099992139 -9.288009687e-08 -9.238353242e-08)
(0.01100013182 -4.310283333e-07 -5.628092085e-07)
(0.01100000019 -2.468124141e-09 -1.085489942e-09)
(0.01099999999 -1.063302623e-09 -1.138588517e-09)
(0.01099999835 -5.242921988e-10 -1.342506107e-09)
(0.01099999761 3.633182958e-10 -2.299888879e-09)
(0.01099999701 4.497744651e-10 -9.125006702e-10)
(0.01099999897 1.42847635e-09 -1.450960619e-09)
(0.01099999521 9.198552695e-10 -3.341351056e-09)
(0.01099999817 7.879367918e-10 -5.156873219e-09)
(0.01099999593 2.011451273e-10 -5.952438903e-09)
(0.01099998617 -1.655908322e-10 -1.333862175e-08)
(0.01099998817 7.851121836e-10 -2.076714193e-08)
(0.01099993274 5.60625309e-11 -5.710762294e-08)
(0.01099995416 3.226984478e-10 -1.379425623e-07)
(0.01099965888 -1.11510972e-10 -2.257835115e-07)
(0.01100005165 -1.233232742e-09 -1.372326715e-06)
(0.01100000157 -1.382828901e-09 -1.392028409e-09)
(0.01100000156 -1.138942317e-09 5.078393874e-10)
(0.01100000066 -1.143853094e-09 -7.767311164e-10)
(0.01099999873 -1.793352189e-09 -8.717522795e-10)
(0.01099999884 1.025515228e-09 1.812349671e-10)
(0.01099999876 4.623416162e-10 -1.548077255e-09)
(0.01099999853 1.012809718e-09 -2.362536641e-09)
(0.01099999792 4.342311987e-09 -5.149182019e-09)
(0.01100000068 5.517874869e-09 -4.790844769e-09)
(0.01099999689 9.275642142e-09 -1.143677089e-08)
(0.01100000645 1.484744608e-08 -1.364842147e-08)
(0.01099998363 3.107918577e-08 -3.565827102e-08)
(0.01100003308 7.459148947e-08 -7.422558643e-08)
(0.01099991912 9.361063351e-08 -9.240627504e-08)
(0.0110001307 4.311552388e-07 -5.600281019e-07)
(0.01100000031 1.93706965e-09 -4.030281211e-10)
(0.01100000115 1.158816999e-09 8.197429576e-10)
(0.01099999775 -1.212986684e-09 3.154264115e-10)
(0.0109999989 -1.634620075e-10 -1.424733013e-09)
(0.01099999793 -4.471272312e-10 -1.585539789e-09)
(0.01100000117 5.691876849e-10 -2.324349325e-09)
(0.01100000137 2.680534687e-09 -1.257592703e-09)
(0.0109999989 3.514696763e-09 -3.915639531e-09)
(0.01099999958 7.457846549e-09 -6.173333007e-09)
(0.01099999984 8.316214065e-09 -1.13265872e-08)
(0.01100000985 1.434587304e-08 -1.745984976e-08)
(0.01099999263 2.412435273e-08 -3.127243858e-08)
(0.01100004304 5.145940281e-08 -7.676924066e-08)
(0.01099997921 4.581925258e-08 -8.015676353e-08)
(0.01100014711 2.214955286e-07 -3.583085538e-07)
(0.01100000009 1.737289485e-10 -7.739013578e-10)
(0.01100000116 8.543046152e-10 -1.343135183e-09)
(0.01100000055 1.181572197e-09 -2.483797032e-10)
(0.01100000026 1.668994745e-09 -1.280864641e-09)
(0.01099999989 1.237122455e-09 -1.251710183e-09)
(0.01100000061 9.534921689e-10 -2.360064784e-09)
(0.01100000172 1.163767886e-09 -2.392298081e-09)
(0.01100000463 2.645598441e-09 -3.492342257e-09)
(0.01100000741 3.553495299e-09 -6.071297298e-09)
(0.0110000076 8.376487665e-09 -9.351225962e-09)
(0.011000022 1.560059072e-08 -1.690710992e-08)
(0.01100002135 1.960743201e-08 -2.398188918e-08)
(0.01100007005 4.863957518e-08 -4.846829143e-08)
(0.01100006788 4.809415595e-08 -4.846636274e-08)
(0.01100018034 1.673679245e-07 -1.681784877e-07)
(0.01100000004 6.267413058e-10 4.076304465e-10)
(0.01100000131 7.099898792e-10 -3.257047299e-10)
(0.0109999995 1.921300303e-09 -1.35839488e-09)
(0.01099999964 -3.863591835e-10 -9.209325734e-10)
(0.01099999872 1.206129531e-09 -2.316268316e-09)
(0.011000001 1.365063508e-10 -2.494475171e-09)
(0.01100000387 1.216320115e-09 -4.178622893e-09)
(0.01100000413 8.264201335e-10 -3.713934952e-09)
(0.01100000913 7.805447427e-10 -6.348596173e-09)
(0.01100001175 2.707097114e-09 -8.749585573e-09)
(0.0110000261 4.879048392e-09 -1.583273546e-08)
(0.01100003391 6.296590959e-09 -2.058228971e-08)
(0.01100008004 1.60504274e-08 -4.121859007e-08)
(0.01100009901 1.183779428e-08 -4.110907981e-08)
(0.01100019099 4.364402662e-08 -1.07142139e-07)
(0.01099999993 -5.058025449e-10 3.189884068e-10)
(0.01099999949 -4.130671008e-10 -1.588455563e-09)
(0.01100000053 -5.306687221e-10 -7.156116575e-11)
(0.01099999586 -2.499216808e-09 -1.465193632e-09)
(0.01099999855 -3.901585919e-11 -1.163853145e-09)
(0.01100000193 6.524523483e-10 -1.351391561e-09)
(0.01100000211 -2.543042977e-09 -3.081762127e-09)
(0.01100000103 -8.407607821e-11 -2.139995306e-09)
(0.01100000261 2.026863519e-10 -5.450709944e-09)
(0.0110000059 -1.04484268e-09 -7.836351216e-09)
(0.01100001805 -4.083876341e-09 -1.473866089e-08)
(0.01100001024 -6.697213912e-09 -2.143082866e-08)
(0.01100005934 -2.446920403e-08 -4.619338126e-08)
(0.01100004706 -1.837338368e-08 -4.050379984e-08)
(0.01099999872 2.308268722e-10 -5.132379043e-10)
(0.01099999996 1.988917095e-10 -1.332285199e-09)
(0.01099999874 -2.673795343e-10 1.9316377e-10)
(0.01099999889 -1.141680894e-09 -2.424128177e-09)
(0.01099999814 -4.96642367e-10 -5.799777437e-10)
(0.01099999793 -4.784450882e-11 -2.24269112e-09)
(0.01100000091 -3.359798295e-09 -1.160585152e-09)
(0.01099999973 -3.982725331e-09 -3.456950414e-09)
(0.01100000146 -6.21301085e-09 -4.913979954e-09)
(0.01099999862 -8.982726536e-09 -9.883063263e-09)
(0.01100000962 -1.451116506e-08 -1.502631726e-08)
(0.0109999905 -3.056601183e-08 -2.396437776e-08)
(0.01100004176 -7.363836389e-08 -5.120515122e-08)
(0.0109999779 -7.946100044e-08 -4.541639165e-08)
(0.01099999991 1.252308785e-09 -5.729706093e-10)
(0.01100000119 -2.762886523e-10 -6.821421511e-10)
(0.01099999832 1.260570382e-09 -8.42250979e-10)
(0.01099999806 1.268125153e-09 -1.99318893e-09)
(0.01099999788 4.575494992e-10 -7.31769484e-10)
(0.01099999847 -6.314005788e-10 -2.441691933e-09)
(0.01099999878 -1.013354479e-09 -1.881555984e-09)
(0.01099999905 -3.11109929e-09 -4.457394549e-09)
(0.01099999664 -4.364979617e-09 -7.468031677e-09)
(0.0109999909 -1.048626828e-08 -1.455658702e-08)
(0.01099999334 -1.43024532e-08 -1.456983181e-08)
(0.01099994944 -3.345208862e-08 -3.530239247e-08)
(0.01099997991 -6.802969426e-08 -6.853289444e-08)
(0.01099978588 -8.325379179e-08 -8.507854014e-08)
(0.01100004343 -5.319230372e-07 -5.378398396e-07)
(0.01099999843 -1.093472632e-09 -2.845029738e-10)
(0.01099999846 -2.693329319e-10 1.610766486e-10)
(0.01099999828 2.169546065e-10 -7.583270093e-10)
(0.01099999745 6.823499664e-11 -2.101312977e-09)
(0.01099999616 -9.677576438e-10 -1.902720849e-09)
(0.01099999718 -5.388061903e-10 -1.669409015e-09)
(0.01099999716 -4.939525174e-10 -3.506729223e-09)
(0.01099999797 -2.523082753e-09 -4.296841099e-09)
(0.01099999298 -2.443782182e-09 -4.967905661e-09)
(0.01099998923 -1.001757543e-08 -1.080504978e-08)
(0.01099998392 -1.748301376e-08 -3.315920689e-09)
(0.01099994887 -5.039073434e-08 -3.851044055e-08)
(0.01099993209 -1.192566013e-07 -1.450258878e-08)
(0.01099965135 -2.101857338e-07 -9.616259322e-08)
(0.01099983629 -1.24258877e-06 -8.065546877e-07)
(0.01100000111 -3.054038341e-09 -2.078459814e-09)
(0.01099999978 -1.259303782e-09 -1.491382464e-09)
(0.01099999892 -1.281253359e-09 -2.574373343e-09)
(0.01099999945 -1.926825045e-09 -3.2541481e-09)
(0.01099999576 9.932635458e-10 -2.88241845e-09)
(0.01099999765 1.435052961e-10 -3.960200034e-09)
(0.01099999748 -5.839054914e-10 -3.397562381e-09)
(0.01099999572 5.04952362e-10 -4.933860351e-09)
(0.01099998678 8.253069413e-10 -5.10796469e-09)
(0.01099997669 1.636603579e-09 -1.537805478e-08)
(0.01099994857 4.118414104e-10 -8.596928593e-09)
(0.01099985636 1.320319025e-09 -7.099868731e-08)
(0.01099972392 5.025082433e-11 -7.538406402e-08)
(0.01099892531 4.164782918e-10 -3.976681786e-07)
(0.01099921666 -4.975352223e-10 -2.757784861e-06)
(0.0110000017 7.94778935e-11 -5.789316676e-11)
(0.01100000128 1.151109721e-09 -3.596688473e-10)
(0.01099999856 3.603004061e-10 -1.674478227e-09)
(0.01099999884 -5.835094814e-10 -3.449438033e-09)
(0.01099999766 -1.405006602e-09 -1.906861153e-09)
(0.01099999783 6.31902186e-10 -3.622220059e-09)
(0.01100000064 6.302912807e-10 -4.639597992e-09)
(0.01099999687 3.203308923e-09 -4.810217944e-09)
(0.01099999557 4.1330624e-09 -3.633150228e-09)
(0.01099998749 1.060535334e-08 -1.285002926e-08)
(0.01099998257 1.896108786e-08 -6.155293766e-09)
(0.0109999465 5.072394019e-08 -3.627077156e-08)
(0.01099992912 1.195013339e-07 -1.613221509e-08)
(0.01099965171 2.104443375e-07 -9.637246686e-08)
(0.01099983726 1.243157911e-06 -8.060334787e-07)
(0.01100000072 1.751602479e-09 1.491764186e-09)
(0.0109999994 -6.396143147e-10 -2.926167015e-10)
(0.01099999776 -9.171530148e-10 -1.801937337e-09)
(0.01099999787 1.194201565e-09 -9.614590985e-10)
(0.01099999923 6.269736406e-10 -2.800664606e-09)
(0.01100000117 1.18792651e-10 -2.860998387e-09)
(0.01099999993 1.852685171e-09 -4.444724535e-09)
(0.01099999946 3.50620882e-09 -5.513561187e-09)
(0.01099999727 5.073028589e-09 -7.905381225e-09)
(0.01099999033 1.01212147e-08 -1.256596739e-08)
(0.01099999237 1.345706503e-08 -1.567312277e-08)
(0.01099994876 3.406301391e-08 -3.62947304e-08)
(0.0109999813 6.871613193e-08 -6.739952032e-08)
(0.01099978568 8.445383268e-08 -8.61077523e-08)
(0.01100004241 5.374724364e-07 -5.360946681e-07)
(0.01099999924 -3.730546172e-10 6.547721361e-10)
(0.01099999983 -3.055000871e-10 8.634958283e-10)
(0.01099999913 1.019135402e-09 -1.008121668e-09)
(0.01099999962 5.391662355e-10 -5.97182824e-10)
(0.01099999878 9.044456347e-11 -9.211784453e-10)
(0.01100000004 8.032251156e-10 -2.155449606e-09)
(0.01100000161 2.984140786e-10 -2.445641355e-09)
(0.01100000109 3.372445263e-09 -3.846013504e-09)
(0.01100000161 5.720364249e-09 -9.029288075e-09)
(0.01099999992 8.956368138e-09 -1.118046988e-08)
(0.01100000924 1.577414936e-08 -1.639550002e-08)
(0.01099999076 2.917368483e-08 -2.549048802e-08)
(0.01100004527 7.484108314e-08 -5.287715898e-08)
(0.01099998269 7.893000211e-08 -4.608037255e-08)
(0.011000147 3.591009435e-07 -2.208743298e-07)
(0.01099999988 -5.717483351e-10 -1.468023358e-10)
(0.01100000104 5.998100624e-10 -1.212317502e-09)
(0.01099999865 4.858950792e-10 -1.149531717e-09)
(0.01099999945 5.244795049e-10 -6.954740709e-10)
(0.01099999839 1.256782793e-09 -3.098392832e-09)
(0.01100000166 1.165794555e-09 -6.410494329e-10)
(0.01100000223 2.489694381e-09 -1.816743416e-09)
(0.01100000182 1.275259183e-09 -4.184210091e-09)
(0.01100000371 1.813476275e-09 -8.639714658e-09)
(0.01100000414 4.233151075e-09 -1.115742075e-08)
(0.01100001479 4.656713718e-09 -1.891794394e-08)
(0.01100001082 9.081764444e-09 -2.244915975e-08)
(0.01100006161 2.228967903e-08 -4.623669862e-08)
(0.01100004867 1.874300153e-08 -4.257669025e-08)
(0.01100016834 8.844063689e-08 -1.33821719e-07)
(0.01099999992 -4.966052411e-11 4.535127759e-10)
(0.01100000034 -9.827651404e-10 2.556987353e-10)
(0.01099999892 -4.349838536e-10 -3.706341417e-10)
(0.01099999645 7.260978525e-10 -2.650012686e-10)
(0.01099999799 3.008311714e-10 9.263440152e-10)
(0.01099999974 -9.181396821e-10 -9.428246137e-10)
(0.01100000024 3.364528059e-10 -2.501953438e-09)
(0.01099999962 -1.124514259e-09 -4.01191524e-09)
(0.01100000363 -1.540237609e-09 -4.779307066e-09)
(0.01100000052 -4.127113691e-09 -7.417749391e-09)
(0.01100001092 -3.901524325e-09 -1.574867003e-08)
(0.01099999936 -8.024452699e-09 -2.330503046e-08)
(0.01100005409 -1.744538464e-08 -5.571358224e-08)
(0.01100001027 -1.592061692e-08 -6.19074348e-08)
(0.01100000024 1.709525572e-11 7.275314261e-10)
(0.01099999935 -2.493076728e-10 -1.869640756e-09)
(0.01099999737 -2.054208347e-10 -8.988865751e-10)
(0.01099999627 -8.505568086e-10 -1.355949933e-10)
(0.01099999826 -4.98593819e-10 -1.176456325e-09)
(0.0110000012 2.005353182e-10 -9.292335963e-10)
(0.01099999646 -8.858287658e-10 -1.326762903e-09)
(0.01099999913 -3.247929712e-09 -3.123868135e-09)
(0.01100000105 -5.189524791e-09 -2.886079821e-09)
(0.01099999757 -1.107422198e-08 -7.203683303e-09)
(0.01100000318 -1.359484331e-08 -1.74214659e-08)
(0.01099998397 -3.380653598e-08 -3.163703894e-08)
(0.01100003088 -7.050291156e-08 -7.463252987e-08)
(0.01099992018 -9.25238064e-08 -9.52680421e-08)
(0.01100000102 -1.710170782e-09 -1.344491301e-09)
(0.01099999918 -8.358433867e-10 -9.025146364e-10)
(0.0109999984 -1.626051055e-09 -1.591011712e-09)
(0.01099999818 -9.88612045e-10 -1.078307703e-09)
(0.01099999738 -1.355427604e-09 -1.071010379e-09)
(0.01099999835 5.840788097e-11 -1.071778856e-09)
(0.01099999737 -1.56174533e-09 -9.94340876e-10)
(0.01099999796 -1.694038177e-09 -3.138258509e-09)
(0.01099999448 -3.497985841e-09 -4.623513432e-09)
(0.0109999899 -1.008607626e-08 -1.088257658e-08)
(0.01099998364 -3.460102813e-09 -1.855953387e-08)
(0.01099994892 -3.607660065e-08 -5.011841984e-08)
(0.01099992996 -1.49519761e-08 -1.197078601e-07)
(0.01099965096 -9.431916405e-08 -2.089336798e-07)
(0.01099999994 -9.823393506e-10 -1.449947201e-09)
(0.0110000015 -1.555162047e-09 -9.785678734e-10)
(0.01099999874 -2.463936942e-11 -1.573155896e-09)
(0.01099999833 1.621973524e-10 -1.869471953e-09)
(0.01099999904 -1.216408147e-09 -1.739624259e-09)
(0.01099999883 -2.060101596e-09 -1.024566587e-09)
(0.01099999568 -1.461951067e-09 -1.228230015e-09)
(0.01099999672 -2.445506912e-09 -2.194619009e-09)
(0.01099999152 -2.601131063e-09 -3.485009183e-09)
(0.01099999664 -1.19702173e-08 -1.22534536e-08)
(0.01099997408 -9.507303749e-09 -1.088016881e-08)
(0.01100000719 -6.695846361e-08 -6.739769443e-08)
(0.0109997991 -8.22358439e-08 -8.218341776e-08)
(0.01099975927 -4.029890216e-07 -4.05098129e-07)
(0.01099851779 -2.65137821e-06 -2.6538163e-06)
(0.01100000148 -1.326907182e-09 -1.221764411e-10)
(0.01100000237 -7.225220906e-10 -2.118877123e-10)
(0.01099999852 -2.044299574e-09 6.90158935e-10)
(0.01099999885 7.448055e-10 -1.169201396e-09)
(0.01099999726 1.745801868e-09 -9.892045052e-10)
(0.01099999661 3.181605437e-10 -1.317302748e-09)
(0.0109999938 -1.11759872e-09 -6.111216899e-10)
(0.01099999224 -1.081340759e-09 -2.675281504e-09)
(0.01099998369 2.081320775e-09 -2.812753295e-09)
(0.01099998318 2.609606792e-10 -1.720893313e-08)
(0.01099991888 2.609088698e-10 -1.291822729e-08)
(0.01099991457 1.50026495e-09 -1.143802141e-07)
(0.01099928388 -3.501884012e-10 -2.00149921e-07)
(0.01099853057 9.966818277e-12 -1.181123426e-06)
(0.0109935036 -7.869433282e-10 -1.25882776e-05)
(0.01100000155 3.241823796e-10 1.744215344e-09)
(0.01100000076 4.058479679e-10 1.137398095e-10)
(0.01100000009 -1.552499123e-10 -2.147871299e-10)
(0.01100000139 -6.30997662e-11 1.977249036e-10)
(0.01099999494 1.085279484e-09 -9.371436344e-10)
(0.01099999752 4.717686003e-11 -2.691614134e-09)
(0.01099999713 8.426999949e-10 -2.406596499e-09)
(0.0109999979 2.984089458e-09 -3.535236809e-09)
(0.01099999122 9.757161558e-10 -5.248788647e-09)
(0.01099999589 1.225865175e-08 -1.33191381e-08)
(0.0109999716 7.985114962e-09 -9.900977807e-09)
(0.01100000614 6.576836261e-08 -6.854710909e-08)
(0.01099979812 8.213106298e-08 -8.241825026e-08)
(0.01099975784 4.048021687e-07 -4.041980007e-07)
(0.01099851863 2.653373219e-06 -2.654966515e-06)
(0.01099999942 1.351343199e-09 3.226355804e-10)
(0.01099999825 1.07289491e-10 -3.110348131e-10)
(0.01100000095 7.576873715e-10 1.864053517e-10)
(0.0109999994 1.501251633e-09 1.074010438e-09)
(0.01099999924 -6.47305276e-10 -1.937656495e-10)
(0.01099999948 1.973647343e-09 6.375857379e-11)
(0.01099999842 3.446148639e-09 -3.573933015e-10)
(0.01099999651 4.653687889e-09 -2.741377266e-09)
(0.01099999375 2.911285489e-09 -4.550497233e-09)
(0.01099998893 9.365481511e-09 -1.122192858e-08)
(0.01099998301 2.93566944e-09 -1.957121091e-08)
(0.01099994836 3.413442852e-08 -5.110161551e-08)
(0.01099993241 1.317168569e-08 -1.228227336e-07)
(0.01099965107 9.298177627e-08 -2.118110206e-07)
(0.01099983591 8.050993111e-07 -1.244500869e-06)
(0.01099999952 3.391636512e-10 1.775778671e-10)
(0.01099999839 6.034280774e-10 2.991284438e-10)
(0.0110000001 1.501940238e-09 -4.856273885e-10)
(0.01099999992 -8.129496333e-10 -2.618197704e-10)
(0.01099999674 6.18638834e-10 -1.474175311e-09)
(0.01099999911 1.217967049e-09 -2.303889997e-10)
(0.01099999901 1.563948617e-09 -3.117945668e-10)
(0.01099999746 3.495672025e-09 -3.438108735e-09)
(0.01099999854 3.51027469e-09 -5.067669637e-09)
(0.01099999656 8.370012045e-09 -9.355022049e-09)
(0.01100000301 1.317964088e-08 -1.78458956e-08)
(0.01099998594 3.303520459e-08 -3.421460413e-08)
(0.01100003455 7.204210493e-08 -7.778750516e-08)
(0.01099992395 9.16751204e-08 -9.520891038e-08)
(0.01100013312 5.606390425e-07 -4.335847545e-07)
(0.01099999924 1.225219007e-11 3.699899144e-10)
(0.01099999996 1.824380954e-10 1.047192825e-10)
(0.01099999835 -3.683149647e-10 -1.357151455e-09)
(0.01099999826 -4.270418232e-10 -2.707222394e-10)
(0.01099999952 -1.945827089e-09 -1.430151223e-09)
(0.01100000158 1.323433765e-09 -1.74098729e-09)
(0.01100000036 1.518689274e-09 -1.587572163e-09)
(0.0109999972 1.267239436e-09 -3.336034199e-09)
(0.01100000221 2.333473705e-09 -5.659376317e-09)
(0.01099999934 4.158728145e-09 -9.19236809e-09)
(0.0110000149 3.094230944e-09 -1.435110851e-08)
(0.01100000233 1.072663052e-08 -2.443215878e-08)
(0.011000054 2.057533506e-08 -5.64080891e-08)
(0.01100001354 1.746758012e-08 -6.236568932e-08)
(0.01100016693 1.257533876e-07 -2.106494038e-07)
(0.01099999985 9.983321771e-10 -1.563252436e-09)
(0.01100000045 -3.691216446e-11 -2.295681369e-09)
(0.01099999892 -1.260929539e-09 -2.83313462e-09)
(0.01099999896 -1.23693151e-09 9.436635795e-11)
(0.01099999806 -1.406943179e-10 -1.399916466e-09)
(0.01099999702 2.027730472e-09 -2.071087302e-09)
(0.01100000075 3.077991224e-11 -1.086678771e-09)
(0.01099999885 7.231724842e-10 -1.074015012e-09)
(0.01099999999 -1.297637879e-09 -1.985019587e-09)
(0.01099999479 -4.39505067e-09 -2.649242048e-09)
(0.01100000117 -6.006163111e-09 -9.917766171e-10)
(0.01099996699 -1.233671591e-08 -1.086621991e-09)
(0.01100001383 -3.948786889e-08 5.68151713e-10)
(0.01099988968 -4.812435743e-08 -4.582257174e-12)
(0.01099999948 2.863004615e-10 -1.809227433e-09)
(0.01099999883 3.105211073e-10 -1.395271527e-09)
(0.01100000021 -1.074236659e-09 -6.416380018e-10)
(0.01099999918 -1.431391501e-09 1.35582065e-09)
(0.01099999629 -1.88546935e-09 3.369149597e-10)
(0.01100000043 -1.05459718e-09 -5.780923249e-10)
(0.01099999886 -1.968905663e-09 -1.01398445e-09)
(0.01099999852 -4.332175661e-09 -7.883044415e-10)
(0.01099999618 -3.632454814e-09 -2.001665543e-09)
(0.01099998682 -1.168439427e-08 -2.12066622e-09)
(0.01099998578 -1.776500457e-08 -1.450542942e-09)
(0.01099993279 -5.51559754e-08 -1.645092938e-10)
(0.01099995246 -1.370012895e-07 -1.461809286e-09)
(0.01099965968 -2.260705337e-07 -4.044020453e-10)
(0.01099999977 -2.149143301e-09 -1.202819894e-09)
(0.01099999888 -2.991389738e-10 -1.853426084e-09)
(0.01099999941 -1.227066344e-09 -2.163460029e-09)
(0.01100000053 -9.580623957e-10 -1.655771228e-09)
(0.01099999852 -3.532569301e-10 -1.179809402e-09)
(0.01099999813 -2.599275443e-10 -8.41288297e-10)
(0.0109999952 -1.07356384e-09 -2.104851093e-10)
(0.01099999641 -3.356328442e-09 -1.513065312e-09)
(0.0109999873 -5.469565538e-09 5.361361119e-10)
(0.01099997815 -1.478227727e-08 6.540715326e-11)
(0.01099995041 -7.143204774e-09 -8.851145063e-10)
(0.01099985743 -6.804809515e-08 -1.593748518e-09)
(0.01099972485 -7.297550693e-08 -1.102656532e-09)
(0.01099892373 -3.953699943e-07 -1.85917875e-09)
(0.01099999859 -6.410003955e-10 -3.157558727e-09)
(0.01100000164 1.694839705e-10 -2.058836499e-09)
(0.01099999846 1.388126707e-09 -2.680995548e-09)
(0.01100000089 -4.312996917e-10 -2.150006536e-11)
(0.0109999974 -8.870423923e-11 8.028886838e-10)
(0.01099999819 -1.316007027e-09 -2.303684063e-10)
(0.01099999306 -1.056930428e-09 -1.89128752e-09)
(0.01099999566 -2.931636886e-09 -1.666699683e-09)
(0.01099998356 -1.95794198e-09 3.907201544e-10)
(0.01099998361 -1.479310593e-08 -1.722873865e-09)
(0.01099991837 -1.321620656e-08 -2.484246895e-09)
(0.0109999158 -1.139191912e-07 -7.124986462e-10)
(0.01099928132 -1.989662933e-07 -1.770453359e-09)
(0.0109985292 -1.180917648e-06 -3.188315159e-12)
(0.01100000041 5.289429814e-10 -6.770292456e-10)
(0.01100000261 -3.041757601e-10 -2.487993788e-10)
(0.01099999989 5.26897734e-10 -3.821855249e-10)
(0.01099999949 1.989986336e-09 -1.001335229e-09)