/*--------------------------------*- C++ -*----------------------------------*\
| =========                 |                                                 |
| \\      /  F ield         | OpenFOAM: The Open Source CFD Toolbox           |
|  \\    /   O peration     | Version:  4.x                                   |
|   \\  /    A nd           | Web:      www.OpenFOAM.org                      |
|    \\/     M anipulation  |                                                 |
\*---------------------------------------------------------------------------*/
FoamFile
{
    version     2.0;
    format      ascii;
    class       volScalarField;
    location    "4000";
    object      X_CO2;
}
// * * * * * * * * * * * * * * * * * * * * * * * * * * * * * * * * * * * * * //

dimensions      [0 0 0 0 0 0 0];

internalField   nonuniform List<scalar> 
1175
(
0.03999466436
0.03999466436
0.03999466436
0.03999466437
0.0399946644
0.03999466449
0.0399946648
0.03999466581
0.039994669
0.03999467858
0.03999470577
0.0399947778
0.03999495333
0.03999534037
0.03999610074
0.03999466436
0.03999466436
0.03999466437
0.03999466437
0.03999466441
0.03999466453
0.03999466494
0.03999466636
0.03999467098
0.03999468542
0.03999472812
0.03999484584
0.03999514261
0.03999581129
0.03999712503
0.03999466436
0.03999466436
0.03999466437
0.03999466438
0.03999466442
0.03999466459
0.0399946652
0.03999466733
0.03999467463
0.0399946985
0.03999477249
0.03999498614
0.0399955477
0.03999685009
0.03999941512
0.03999466436
0.03999466436
0.03999466437
0.03999466438
0.03999466444
0.03999466466
0.03999466546
0.03999466839
0.03999467873
0.0399947139
0.03999482755
0.03999517049
0.03999611148
0.03999836944
0.04000284859
0.03999466436
0.03999466436
0.03999466437
0.03999466438
0.03999466445
0.03999466468
0.03999466558
0.03999466888
0.03999468075
0.03999472193
0.03999485828
0.03999528166
0.03999648161
0.0399994521
0.04000541963
0.03999466436
0.03999466436
0.03999466437
0.03999466438
0.03999466444
0.03999466466
0.03999466546
0.03999466839
0.03999467873
0.03999471389
0.03999482755
0.03999517049
0.03999611146
0.0399983694
0.0400028485
0.03999466436
0.03999466436
0.03999466437
0.03999466438
0.03999466442
0.03999466459
0.0399946652
0.03999466733
0.03999467463
0.0399946985
0.03999477249
0.03999498613
0.03999554769
0.03999685006
0.03999941506
0.03999466436
0.03999466436
0.03999466437
0.03999466437
0.03999466441
0.03999466453
0.03999466494
0.03999466636
0.03999467098
0.03999468542
0.03999472812
0.03999484583
0.0399951426
0.03999581127
0.03999712498
0.03999466436
0.03999466436
0.03999466436
0.03999466437
0.0399946644
0.03999466449
0.0399946648
0.03999466581
0.039994669
0.03999467858
0.03999470577
0.0399947778
0.03999495333
0.03999534035
0.03999610069
0.03999466436
0.03999466436
0.03999466437
0.03999466437
0.03999466441
0.03999466453
0.03999466494
0.03999466636
0.03999467098
0.03999468542
0.03999472813
0.03999484584
0.03999514262
0.03999581132
0.03999466436
0.03999466436
0.03999466437
0.03999466438
0.03999466442
0.03999466458
0.03999466517
0.03999466724
0.03999467435
0.0399946978
0.03999477108
0.03999498453
0.03999555033
0.03999687074
0.03999947348
0.03999466436
0.03999466436
0.03999466437
0.03999466438
0.03999466444
0.03999466468
0.03999466557
0.03999466889
0.03999468093
0.03999472302
0.03999486313
0.03999529856
0.03999652616
0.03999953191
0.04000551859
0.03999466436
0.03999466436
0.03999466437
0.03999466439
0.03999466447
0.03999466478
0.03999466601
0.03999467077
0.03999468885
0.03999475546
0.03999499057
0.03999577023
0.03999812349
0.04000425194
0.04001676188
0.03999466436
0.03999466437
0.03999466437
0.03999466439
0.03999466448
0.03999466483
0.03999466622
0.03999467172
0.0399946931
0.03999477431
0.03999507229
0.03999610995
0.03999943562
0.04000869539
0.04002847366
0.03999466436
0.03999466436
0.03999466437
0.03999466439
0.03999466447
0.03999466478
0.03999466601
0.03999467077
0.03999468885
0.03999475546
0.03999499057
0.03999577023
0.03999812347
0.04000425186
0.04001676169
0.03999466436
0.03999466436
0.03999466437
0.03999466438
0.03999466444
0.03999466468
0.03999466557
0.03999466889
0.03999468093
0.03999472302
0.03999486313
0.03999529855
0.03999652614
0.03999953184
0.04000551841
0.03999466436
0.03999466436
0.03999466437
0.03999466438
0.03999466442
0.03999466458
0.03999466517
0.03999466724
0.03999467435
0.0399946978
0.03999477107
0.03999498452
0.03999555031
0.03999687068
0.03999947332
0.03999466436
0.03999466436
0.03999466437
0.03999466437
0.03999466441
0.03999466453
0.03999466494
0.03999466636
0.03999467098
0.03999468542
0.03999472812
0.03999484584
0.0399951426
0.03999581128
0.03999712499
0.03999466436
0.03999466436
0.03999466437
0.03999466438
0.03999466442
0.03999466459
0.0399946652
0.03999466733
0.03999467463
0.0399946985
0.03999477249
0.03999498614
0.03999554771
0.03999685014
0.03999466436
0.03999466436
0.03999466437
0.03999466438
0.03999466444
0.03999466468
0.03999466557
0.03999466889
0.03999468093
0.03999472302
0.03999486313
0.03999529856
0.03999652618
0.039999532
0.03999466436
0.03999466437
0.03999466437
0.03999466439
0.03999466448
0.03999466484
0.03999466627
0.03999467194
0.0399946939
0.03999477658
0.03999507476
0.03999608401
0.03999918613
0.04000737651
0.04002416573
0.03999466436
0.03999466437
0.03999466437
0.0399946644
0.03999466452
0.03999466501
0.03999466707
0.03999467564
0.03999471082
0.03999485249
0.03999540513
0.03999745235
0.04000441303
0.04002478615
0.04006935063
0.03999466436
0.03999466437
0.03999466437
0.0399946644
0.03999466453
0.03999466509
0.03999466747
0.03999467764
0.03999472079
0.03999490244
0.03999565354
0.03999865913
0.04000996514
0.04004753409
0.04014079467
0.03999466436
0.03999466437
0.03999466437
0.0399946644
0.03999466452
0.03999466501
0.03999466707
0.03999467564
0.03999471082
0.03999485249
0.03999540512
0.03999745232
0.04000441293
0.04002478578
0.04006934964
0.03999466436
0.03999466437
0.03999466437
0.03999466439
0.03999466448
0.03999466484
0.03999466627
0.03999467194
0.0399946939
0.03999477658
0.03999507476
0.03999608399
0.03999918606
0.04000737622
0.04002416483
0.03999466436
0.03999466436
0.03999466437
0.03999466438
0.03999466444
0.03999466468
0.03999466557
0.03999466889
0.03999468093
0.03999472302
0.03999486313
0.03999529855
0.03999652614
0.03999953184
0.04000551841
0.03999466436
0.03999466436
0.03999466437
0.03999466438
0.03999466442
0.03999466459
0.0399946652
0.03999466733
0.03999467463
0.0399946985
0.03999477249
0.03999498613
0.03999554769
0.03999685007
0.03999941507
0.03999466436
0.03999466436
0.03999466437
0.03999466438
0.03999466444
0.03999466466
0.03999466546
0.03999466839
0.03999467873
0.0399947139
0.03999482756
0.0399951705
0.03999611151
0.03999836952
0.03999466436
0.03999466436
0.03999466437
0.03999466439
0.03999466447
0.03999466478
0.03999466601
0.03999467077
0.03999468885
0.03999475546
0.03999499057
0.03999577025
0.03999812355
0.04000425217
0.03999466436
0.03999466437
0.03999466437
0.0399946644
0.03999466452
0.03999466501
0.03999466707
0.03999467564
0.03999471082
0.03999485249
0.03999540513
0.03999745238
0.04000441318
0.0400247869
0.03999466437
0.03999466437
0.03999466437
0.03999466441
0.03999466457
0.03999466527
0.03999466834
0.0399946819
0.03999474168
0.03999500398
0.03999613801
0.04000089035
0.0400195976
0.04008434407
0.04024941742
0.03999466437
0.03999466437
0.03999466438
0.03999466442
0.03999466459
0.0399946654
0.03999466901
0.03999468553
0.0399947618
0.03999511792
0.03999679544
0.04000470903
0.04004141159
0.04020089427
0.04075321268
0.03999466437
0.03999466437
0.03999466437
0.03999466441
0.03999466457
0.03999466527
0.03999466834
0.0399946819
0.03999474168
0.03999500398
0.039996138
0.04000089029
0.0400195973
0.04008434255
0.04024941131
0.03999466436
0.03999466437
0.03999466437
0.0399946644
0.03999466452
0.03999466501
0.03999466707
0.03999467564
0.03999471082
0.03999485249
0.03999540512
0.03999745233
0.04000441295
0.04002478584
0.0400693497
0.03999466436
0.03999466436
0.03999466437
0.03999466439
0.03999466447
0.03999466478
0.03999466601
0.03999467077
0.03999468885
0.03999475546
0.03999499057
0.03999577023
0.03999812348
0.0400042519
0.04001676174
0.03999466436
0.03999466436
0.03999466437
0.03999466438
0.03999466444
0.03999466466
0.03999466546
0.03999466839
0.03999467873
0.0399947139
0.03999482755
0.03999517049
0.03999611148
0.03999836942
0.04000284854
0.03999466436
0.03999466436
0.03999466437
0.03999466438
0.03999466445
0.03999466468
0.03999466558
0.03999466888
0.03999468075
0.03999472194
0.03999485829
0.03999528167
0.03999648166
0.03999945223
0.03999466436
0.03999466437
0.03999466437
0.03999466439
0.03999466448
0.03999466483
0.03999466622
0.03999467172
0.0399946931
0.03999477432
0.0399950723
0.03999610998
0.03999943574
0.04000869579
0.03999466436
0.03999466437
0.03999466437
0.0399946644
0.03999466453
0.03999466509
0.03999466747
0.03999467764
0.0399947208
0.03999490244
0.03999565356
0.03999865921
0.04000996555
0.04004753578
0.03999466437
0.03999466437
0.03999466438
0.03999466442
0.03999466459
0.0399946654
0.03999466901
0.03999468553
0.0399947618
0.03999511793
0.03999679547
0.0400047092
0.04004141261
0.04020090092
0.03999466437
0.03999466437
0.03999466438
0.03999466442
0.03999466462
0.03999466555
0.03999466986
0.03999469038
0.03999479077
0.03999530036
0.03999800973
0.04001326206
0.04010508564
0.04070039307
0.04489129435
0.03999466437
0.03999466437
0.03999466438
0.03999466442
0.03999466459
0.0399946654
0.03999466901
0.03999468553
0.0399947618
0.03999511793
0.03999679546
0.04000470911
0.04004141189
0.0402008953
0.04075321488
0.03999466436
0.03999466437
0.03999466437
0.0399946644
0.03999466453
0.03999466509
0.03999466747
0.03999467764
0.0399947208
0.03999490244
0.03999565354
0.03999865915
0.04000996523
0.04004753434
0.04014079506
0.03999466436
0.03999466437
0.03999466437
0.03999466439
0.03999466448
0.03999466483
0.03999466622
0.03999467172
0.0399946931
0.03999477431
0.03999507229
0.03999610995
0.03999943564
0.04000869544
0.0400284737
0.03999466436
0.03999466436
0.03999466437
0.03999466438
0.03999466445
0.03999466468
0.03999466558
0.03999466888
0.03999468075
0.03999472193
0.03999485828
0.03999528166
0.03999648162
0.0399994521
0.04000541961
0.03999466436
0.03999466436
0.03999466437
0.03999466438
0.03999466444
0.03999466466
0.03999466546
0.03999466839
0.03999467873
0.0399947139
0.03999482756
0.0399951705
0.03999611151
0.03999836951
0.03999466436
0.03999466436
0.03999466437
0.03999466439
0.03999466447
0.03999466478
0.03999466601
0.03999467077
0.03999468885
0.03999475546
0.03999499057
0.03999577026
0.03999812357
0.04000425216
0.03999466436
0.03999466437
0.03999466437
0.0399946644
0.03999466452
0.03999466501
0.03999466707
0.03999467564
0.03999471082
0.03999485249
0.03999540514
0.0399974524
0.04000441324
0.0400247868
0.03999466437
0.03999466437
0.03999466437
0.03999466441
0.03999466457
0.03999466527
0.03999466834
0.0399946819
0.03999474169
0.03999500399
0.03999613803
0.04000089044
0.040019598
0.04008434539
0.03999466437
0.03999466437
0.03999466438
0.03999466442
0.03999466459
0.0399946654
0.03999466901
0.03999468553
0.0399947618
0.03999511793
0.03999679548
0.04000470924
0.04004141275
0.0402009012
0.03999466437
0.03999466437
0.03999466437
0.03999466441
0.03999466457
0.03999466527
0.03999466834
0.0399946819
0.03999474169
0.03999500398
0.03999613803
0.04000089041
0.04001959786
0.04008434517
0.03999466436
0.03999466437
0.03999466437
0.0399946644
0.03999466452
0.03999466501
0.03999466707
0.03999467564
0.03999471082
0.03999485249
0.03999540513
0.03999745238
0.04000441314
0.04002478649
0.04006935161
0.03999466436
0.03999466436
0.03999466437
0.03999466439
0.03999466447
0.03999466478
0.03999466601
0.03999467077
0.03999468885
0.03999475546
0.03999499057
0.03999577024
0.03999812351
0.040004252
0.04001676199
0.03999466436
0.03999466436
0.03999466437
0.03999466438
0.03999466444
0.03999466466
0.03999466546
0.03999466839
0.03999467873
0.0399947139
0.03999482755
0.03999517049
0.03999611148
0.03999836945
0.04000284858
0.03999466436
0.03999466436
0.03999466437
0.03999466438
0.03999466442
0.03999466459
0.0399946652
0.03999466733
0.03999467463
0.0399946985
0.03999477249
0.03999498614
0.03999554772
0.03999685014
0.03999466436
0.03999466436
0.03999466437
0.03999466438
0.03999466444
0.03999466468
0.03999466557
0.03999466889
0.03999468093
0.03999472302
0.03999486314
0.03999529857
0.0399965262
0.03999953201
0.03999466436
0.03999466437
0.03999466437
0.03999466439
0.03999466448
0.03999466484
0.03999466627
0.03999467194
0.0399946939
0.03999477658
0.03999507477
0.03999608404
0.03999918621
0.04000737666
0.03999466436
0.03999466437
0.03999466437
0.0399946644
0.03999466452
0.03999466501
0.03999466707
0.03999467564
0.03999471082
0.03999485249
0.03999540514
0.03999745241
0.04000441325
0.0400247868
0.03999466436
0.03999466437
0.03999466437
0.0399946644
0.03999466453
0.03999466509
0.03999466747
0.03999467764
0.0399947208
0.03999490244
0.03999565356
0.03999865922
0.04000996556
0.04004753568
0.03999466436
0.03999466437
0.03999466437
0.0399946644
0.03999466452
0.03999466501
0.03999466707
0.03999467564
0.03999471082
0.03999485249
0.03999540514
0.03999745239
0.04000441321
0.0400247867
0.03999466436
0.03999466437
0.03999466437
0.03999466439
0.03999466448
0.03999466484
0.03999466627
0.03999467194
0.0399946939
0.03999477658
0.03999507476
0.03999608402
0.03999918619
0.04000737668
0.03999466436
0.03999466436
0.03999466437
0.03999466438
0.03999466444
0.03999466468
0.03999466557
0.03999466889
0.03999468093
0.03999472302
0.03999486314
0.03999529856
0.03999652618
0.03999953196
0.04000551872
0.03999466436
0.03999466436
0.03999466437
0.03999466438
0.03999466442
0.03999466459
0.0399946652
0.03999466733
0.03999467463
0.0399946985
0.03999477249
0.03999498614
0.03999554771
0.03999685011
0.03999941515
0.03999466436
0.03999466436
0.03999466437
0.03999466437
0.03999466441
0.03999466453
0.03999466494
0.03999466636
0.03999467098
0.03999468542
0.03999472813
0.03999484584
0.03999514262
0.03999581131
0.03999466436
0.03999466436
0.03999466437
0.03999466438
0.03999466442
0.03999466458
0.03999466517
0.03999466724
0.03999467435
0.0399946978
0.03999477108
0.03999498453
0.03999555034
0.03999687075
0.03999466436
0.03999466436
0.03999466437
0.03999466438
0.03999466444
0.03999466468
0.03999466557
0.03999466889
0.03999468093
0.03999472302
0.03999486314
0.03999529857
0.0399965262
0.039999532
0.03999466436
0.03999466436
0.03999466437
0.03999466439
0.03999466447
0.03999466478
0.03999466601
0.03999467077
0.03999468885
0.03999475546
0.03999499058
0.03999577026
0.03999812357
0.04000425216
0.03999466436
0.03999466437
0.03999466437
0.03999466439
0.03999466448
0.03999466483
0.03999466622
0.03999467172
0.0399946931
0.03999477432
0.0399950723
0.03999610998
0.03999943575
0.04000869578
0.03999466436
0.03999466436
0.03999466437
0.03999466439
0.03999466447
0.03999466478
0.03999466601
0.03999467077
0.03999468885
0.03999475546
0.03999499058
0.03999577026
0.03999812357
0.04000425214
0.03999466436
0.03999466436
0.03999466437
0.03999466438
0.03999466444
0.03999466468
0.03999466557
0.03999466889
0.03999468093
0.03999472302
0.03999486314
0.03999529857
0.03999652619
0.039999532
0.03999466436
0.03999466436
0.03999466437
0.03999466438
0.03999466442
0.03999466458
0.03999466517
0.03999466724
0.03999467435
0.0399946978
0.03999477108
0.03999498453
0.03999555034
0.03999687077
0.03999466436
0.03999466436
0.03999466437
0.03999466437
0.03999466441
0.03999466453
0.03999466494
0.03999466636
0.03999467098
0.03999468542
0.03999472813
0.03999484584
0.03999514261
0.03999581131
0.03999712506
0.03999466436
0.03999466436
0.03999466436
0.03999466437
0.0399946644
0.03999466449
0.0399946648
0.03999466581
0.039994669
0.03999467858
0.03999470577
0.0399947778
0.03999495334
0.03999534037
0.03999466436
0.03999466436
0.03999466437
0.03999466437
0.03999466441
0.03999466453
0.03999466494
0.03999466636
0.03999467098
0.03999468542
0.03999472813
0.03999484584
0.03999514262
0.03999581131
0.03999466436
0.03999466436
0.03999466437
0.03999466438
0.03999466442
0.03999466459
0.0399946652
0.03999466733
0.03999467463
0.0399946985
0.03999477249
0.03999498614
0.03999554772
0.03999685014
0.03999466436
0.03999466436
0.03999466437
0.03999466438
0.03999466444
0.03999466466
0.03999466546
0.03999466839
0.03999467873
0.0399947139
0.03999482756
0.03999517051
0.03999611152
0.03999836953
0.03999466436
0.03999466436
0.03999466437
0.03999466438
0.03999466445
0.03999466468
0.03999466558
0.03999466888
0.03999468075
0.03999472194
0.03999485829
0.03999528168
0.03999648167
0.03999945223
0.03999466436
0.03999466436
0.03999466437
0.03999466438
0.03999466444
0.03999466466
0.03999466546
0.03999466839
0.03999467873
0.0399947139
0.03999482756
0.03999517051
0.03999611152
0.03999836953
0.03999466436
0.03999466436
0.03999466437
0.03999466438
0.03999466442
0.03999466459
0.0399946652
0.03999466733
0.03999467463
0.0399946985
0.03999477249
0.03999498614
0.03999554772
0.03999685014
0.03999466436
0.03999466436
0.03999466437
0.03999466437
0.03999466441
0.03999466453
0.03999466494
0.03999466636
0.03999467098
0.03999468542
0.03999472813
0.03999484584
0.03999514262
0.03999581131
0.03999466436
0.03999466436
0.03999466436
0.03999466437
0.0399946644
0.03999466449
0.0399946648
0.03999466581
0.039994669
0.03999467858
0.03999470577
0.0399947778
0.03999495334
0.03999534038
)
;

boundaryField
{
    top
    {
        type            calculated;
        value           nonuniform List<scalar> 
134
(
0.03999466436
0.03999466436
0.03999466436
0.03999466436
0.03999466436
0.03999466436
0.03999466436
0.03999466436
0.03999466436
0.03999466436
0.03999466436
0.03999466436
0.03999466436
0.03999466436
0.03999466436
0.03999466436
0.03999466436
0.03999466436
0.03999466436
0.03999466437
0.03999466437
0.03999466437
0.03999466437
0.03999466437
0.03999466437
0.03999466437
0.03999466436
0.03999466437
0.03999466437
0.03999466438
0.03999466438
0.03999466438
0.03999466438
0.03999466438
0.03999466437
0.03999466437
0.0399946644
0.03999466441
0.03999466442
0.03999466444
0.03999466445
0.03999466444
0.03999466442
0.03999466441
0.0399946644
0.03999466449
0.03999466453
0.03999466459
0.03999466466
0.03999466468
0.03999466466
0.03999466459
0.03999466453
0.03999466449
0.0399946648
0.03999466494
0.0399946652
0.03999466546
0.03999466558
0.03999466546
0.0399946652
0.03999466494
0.0399946648
0.03999466581
0.03999466636
0.03999466733
0.03999466839
0.03999466888
0.03999466839
0.03999466733
0.03999466636
0.03999466581
0.039994669
0.03999467098
0.03999467463
0.03999467873
0.03999468075
0.03999467873
0.03999467463
0.03999467098
0.039994669
0.03999467858
0.03999468542
0.0399946985
0.0399947139
0.03999472193
0.0399947139
0.0399946985
0.03999468542
0.03999467858
0.03999470577
0.03999472812
0.03999477249
0.03999482755
0.03999485828
0.03999482755
0.03999477249
0.03999472813
0.03999470577
0.0399947778
0.03999484584
0.03999498613
0.03999517049
0.03999528166
0.03999517049
0.03999498614
0.03999484584
0.0399947778
0.03999495333
0.0399951426
0.03999554769
0.03999611148
0.03999648162
0.03999611148
0.03999554771
0.03999514261
0.03999495334
0.03999534035
0.03999581128
0.03999685007
0.03999836942
0.0399994521
0.03999836945
0.03999685011
0.03999581131
0.03999534038
0.03999610069
0.03999712499
0.03999941507
0.04000284854
0.04000541961
0.04000284858
0.03999941515
0.03999712506
)
;
    }
    bottom
    {
        type            calculated;
        value           nonuniform List<scalar> 
127
(
0.03999466436
0.03999466436
0.03999466436
0.03999466436
0.03999466436
0.03999466436
0.03999466436
0.03999466436
0.03999466436
0.03999466436
0.03999466436
0.03999466436
0.03999466436
0.03999466436
0.03999466436
0.03999466436
0.03999466436
0.03999466436
0.03999466436
0.03999466437
0.03999466437
0.03999466437
0.03999466437
0.03999466437
0.03999466437
0.03999466437
0.03999466436
0.03999466437
0.03999466437
0.03999466438
0.03999466438
0.03999466438
0.03999466438
0.03999466438
0.03999466437
0.03999466437
0.0399946644
0.03999466441
0.03999466442
0.03999466444
0.03999466445
0.03999466444
0.03999466442
0.03999466441
0.0399946644
0.03999466449
0.03999466453
0.03999466459
0.03999466466
0.03999466468
0.03999466466
0.03999466459
0.03999466453
0.03999466449
0.0399946648
0.03999466494
0.0399946652
0.03999466546
0.03999466558
0.03999466546
0.0399946652
0.03999466494
0.0399946648
0.03999466581
0.03999466636
0.03999466733
0.03999466839
0.03999466888
0.03999466839
0.03999466733
0.03999466636
0.03999466581
0.039994669
0.03999467098
0.03999467463
0.03999467873
0.03999468075
0.03999467873
0.03999467463
0.03999467098
0.039994669
0.03999467858
0.03999468542
0.0399946985
0.0399947139
0.03999472194
0.0399947139
0.0399946985
0.03999468542
0.03999467858
0.03999470577
0.03999472813
0.03999477249
0.03999482756
0.03999485829
0.03999482756
0.03999477249
0.03999472813
0.03999470577
0.0399947778
0.03999484584
0.03999498614
0.0399951705
0.03999528167
0.0399951705
0.03999498614
0.03999484584
0.0399947778
0.03999495333
0.03999514262
0.03999554771
0.03999611151
0.03999648166
0.03999611151
0.03999554772
0.03999514262
0.03999495334
0.03999534037
0.03999581132
0.03999685014
0.03999836952
0.03999945223
0.03999836951
0.03999685014
0.03999581131
0.03999534037
0.03999610074
)
;
    }
    side-walls
    {
        type            calculated;
        value           nonuniform List<scalar> 
261
(
0.03999466436
0.03999466436
0.03999466436
0.03999466436
0.03999466436
0.03999466436
0.03999466436
0.03999466436
0.03999466436
0.03999466436
0.03999466436
0.03999466436
0.03999466436
0.03999466436
0.03999466436
0.03999466436
0.03999466436
0.03999466436
0.03999466436
0.03999466437
0.03999466437
0.03999466437
0.03999466437
0.03999466437
0.03999466437
0.03999466437
0.03999466436
0.03999466437
0.03999466437
0.03999466438
0.03999466438
0.03999466438
0.03999466438
0.03999466438
0.03999466437
0.03999466437
0.0399946644
0.03999466441
0.03999466442
0.03999466444
0.03999466445
0.03999466444
0.03999466442
0.03999466441
0.0399946644
0.03999466449
0.03999466453
0.03999466459
0.03999466466
0.03999466468
0.03999466466
0.03999466459
0.03999466453
0.03999466449
0.0399946648
0.03999466494
0.0399946652
0.03999466546
0.03999466558
0.03999466546
0.0399946652
0.03999466494
0.0399946648
0.03999466581
0.03999466636
0.03999466733
0.03999466839
0.03999466888
0.03999466839
0.03999466733
0.03999466636
0.03999466581
0.039994669
0.03999467098
0.03999467463
0.03999467873
0.03999468075
0.03999467873
0.03999467463
0.03999467098
0.039994669
0.03999467858
0.03999468542
0.0399946985
0.0399947139
0.03999472193
0.03999471389
0.0399946985
0.03999468542
0.03999467858
0.03999470577
0.03999472812
0.03999477249
0.03999482755
0.03999485828
0.03999482755
0.03999477249
0.03999472812
0.03999470577
0.0399947778
0.03999484584
0.03999498614
0.03999517049
0.03999528166
0.03999517049
0.03999498613
0.03999484583
0.0399947778
0.03999495333
0.03999514261
0.0399955477
0.03999611148
0.03999648161
0.03999611146
0.03999554769
0.0399951426
0.03999495333
0.03999534037
0.03999581129
0.03999685009
0.03999836944
0.0399994521
0.0399983694
0.03999685006
0.03999581127
0.03999534035
0.03999610074
0.03999712503
0.03999941512
0.04000284859
0.04000541963
0.0400028485
0.03999941506
0.03999712498
0.03999610069
0.03999466436
0.03999466436
0.03999466436
0.03999466436
0.03999466436
0.03999466436
0.03999466436
0.03999466436
0.03999466436
0.03999466436
0.03999466436
0.03999466436
0.03999466436
0.03999466436
0.03999466436
0.03999466436
0.03999466436
0.03999466436
0.03999466436
0.03999466437
0.03999466437
0.03999466437
0.03999466437
0.03999466437
0.03999466437
0.03999466437
0.03999466436
0.03999466437
0.03999466437
0.03999466438
0.03999466438
0.03999466438
0.03999466438
0.03999466438
0.03999466437
0.03999466437
0.0399946644
0.03999466441
0.03999466442
0.03999466444
0.03999466445
0.03999466444
0.03999466442
0.03999466441
0.0399946644
0.03999466449
0.03999466453
0.03999466459
0.03999466466
0.03999466468
0.03999466466
0.03999466459
0.03999466453
0.03999466449
0.0399946648
0.03999466494
0.0399946652
0.03999466546
0.03999466558
0.03999466546
0.0399946652
0.03999466494
0.0399946648
0.03999466581
0.03999466636
0.03999466733
0.03999466839
0.03999466888
0.03999466839
0.03999466733
0.03999466636
0.03999466581
0.039994669
0.03999467098
0.03999467463
0.03999467873
0.03999468075
0.03999467873
0.03999467463
0.03999467098
0.039994669
0.03999467858
0.03999468542
0.0399946985
0.0399947139
0.03999472194
0.0399947139
0.0399946985
0.03999468542
0.03999467858
0.03999470577
0.03999472813
0.03999477249
0.03999482756
0.03999485829
0.03999482756
0.03999477249
0.03999472813
0.03999470577
0.0399947778
0.03999484584
0.03999498614
0.03999517051
0.03999528168
0.03999517051
0.03999498614
0.03999484584
0.0399947778
0.03999495334
0.03999514262
0.03999554772
0.03999611152
0.03999648167
0.03999611152
0.03999554772
0.03999514262
0.03999495334
0.03999534037
0.03999581131
0.03999685014
0.03999836953
0.03999945223
0.03999836953
0.03999685014
0.03999581131
0.03999534038
)
;
    }
    inlet
    {
        type            calculated;
        value           nonuniform List<scalar> 
81
(
0.03999466436
0.03999466436
0.03999466436
0.03999466436
0.03999466436
0.03999466436
0.03999466436
0.03999466436
0.03999466436
0.03999466436
0.03999466436
0.03999466436
0.03999466436
0.03999466436
0.03999466436
0.03999466436
0.03999466436
0.03999466436
0.03999466436
0.03999466436
0.03999466436
0.03999466436
0.03999466436
0.03999466436
0.03999466436
0.03999466436
0.03999466436
0.03999466436
0.03999466436
0.03999466436
0.03999466437
0.03999466437
0.03999466437
0.03999466436
0.03999466436
0.03999466436
0.03999466436
0.03999466436
0.03999466436
0.03999466437
0.03999466437
0.03999466437
0.03999466436
0.03999466436
0.03999466436
0.03999466436
0.03999466436
0.03999466436
0.03999466437
0.03999466437
0.03999466437
0.03999466436
0.03999466436
0.03999466436
0.03999466436
0.03999466436
0.03999466436
0.03999466436
0.03999466436
0.03999466436
0.03999466436
0.03999466436
0.03999466436
0.03999466436
0.03999466436
0.03999466436
0.03999466436
0.03999466436
0.03999466436
0.03999466436
0.03999466436
0.03999466436
0.03999466436
0.03999466436
0.03999466436
0.03999466436
0.03999466436
0.03999466436
0.03999466436
0.03999466436
0.03999466436
)
;
    }
    outlet
    {
        type            calculated;
        value           nonuniform 0();
    }
    procBoundary0to1
    {
        type            processor;
        value           nonuniform List<scalar> 
97
(
0.0399974223
0.03999712507
0.03999934373
0.04000358224
0.04000978181
0.04001419972
0.04000978168
0.04000358214
0.03999934366
0.03999742224
0.03999712507
0.03999712507
0.04000366654
0.04000551875
0.04001452559
0.04003378746
0.04005192255
0.04003378721
0.04001452534
0.04000366636
0.03999934366
0.03999941517
0.04000551875
0.04000551875
0.0400465391
0.040069352
0.04011760202
0.04021048796
0.04011760102
0.0400465382
0.04001452532
0.04000358215
0.04000284865
0.04001676214
0.040069352
0.040069352
0.0403608223
0.04075321797
0.04083731995
0.04036081851
0.04011760098
0.04003378722
0.04000978171
0.04000541974
0.04002847402
0.04014079626
0.04075321797
0.04075321797
0.04289073451
0.04075321793
0.04083732059
0.04024941407
0.04021048803
0.04005192246
0.04001419963
0.04000284861
0.04001676197
0.04006935072
0.04024941357
0.04075321793
0.04024941407
0.04024941407
0.04011760225
0.04002416564
0.04003378742
0.04000978174
0.03999941513
0.04000551856
0.04002416528
0.04006935063
0.04014079576
0.04006935041
0.04002416564
0.04002416564
0.04001452556
0.03999947347
0.04000358224
0.03999712502
0.03999947338
0.04000551854
0.04001676193
0.04002847389
0.0400167619
0.04000551858
0.03999947347
0.03999947347
0.03999934373
0.03999610073
0.03999610071
0.03999712501
0.03999941513
0.04000284861
0.0400054197
0.04000284861
0.03999941513
0.03999712503
0.03999610073
)
;
    }
}


// ************************************************************************* //
