/*--------------------------------*- C++ -*----------------------------------*\
| =========                 |                                                 |
| \\      /  F ield         | OpenFOAM: The Open Source CFD Toolbox           |
|  \\    /   O peration     | Version:  4.x                                   |
|   \\  /    A nd           | Web:      www.OpenFOAM.org                      |
|    \\/     M anipulation  |                                                 |
\*---------------------------------------------------------------------------*/
FoamFile
{
    version     2.0;
    format      ascii;
    class       volScalarField;
    location    "4000";
    object      X_H2O;
}
// * * * * * * * * * * * * * * * * * * * * * * * * * * * * * * * * * * * * * //

dimensions      [0 0 0 0 0 0 0];

internalField   nonuniform List<scalar> 
1175
(
1.54699154e-06
1.54699168e-06
1.546992263e-06
1.546995394e-06
1.547005834e-06
1.547042765e-06
1.547167645e-06
1.547575714e-06
1.548859806e-06
1.552716477e-06
1.563663306e-06
1.592668011e-06
1.663360844e-06
1.819251794e-06
2.125552275e-06
1.546991611e-06
1.546991799e-06
1.5469926e-06
1.546996362e-06
1.547009573e-06
1.547057691e-06
1.547225527e-06
1.547794308e-06
1.549654092e-06
1.555469009e-06
1.572666628e-06
1.620074025e-06
1.739610405e-06
2.008980194e-06
2.538259551e-06
1.546991815e-06
1.546991993e-06
1.546993237e-06
1.546997782e-06
1.547016154e-06
1.547083438e-06
1.547327312e-06
1.548187663e-06
1.551124216e-06
1.560735845e-06
1.590535307e-06
1.676591796e-06
1.902810946e-06
2.427524577e-06
3.461062558e-06
1.546992133e-06
1.546992408e-06
1.54699374e-06
1.546999608e-06
1.547022392e-06
1.547109251e-06
1.547433241e-06
1.548611656e-06
1.552775908e-06
1.566938638e-06
1.612717729e-06
1.750864186e-06
2.129966649e-06
3.039754464e-06
4.844736519e-06
1.546992114e-06
1.546992445e-06
1.546994006e-06
1.547000417e-06
1.547025216e-06
1.547120838e-06
1.547481185e-06
1.548811594e-06
1.553591735e-06
1.570177041e-06
1.62509764e-06
1.795654582e-06
2.279113634e-06
3.476063846e-06
5.880968866e-06
1.54699193e-06
1.546992421e-06
1.546993842e-06
1.546999547e-06
1.547022585e-06
1.547109366e-06
1.547433203e-06
1.548611521e-06
1.552775867e-06
1.566938424e-06
1.612717037e-06
1.750861472e-06
2.129957594e-06
3.039728826e-06
4.844674439e-06
1.546991686e-06
1.54699186e-06
1.546993146e-06
1.546997895e-06
1.547016148e-06
1.54708336e-06
1.547327263e-06
1.548187524e-06
1.551124135e-06
1.560735738e-06
1.590534724e-06
1.676589305e-06
1.902801885e-06
2.427496987e-06
3.46099577e-06
1.546991411e-06
1.546991555e-06
1.546992368e-06
1.54699614e-06
1.5470096e-06
1.547057564e-06
1.547225562e-06
1.547794379e-06
1.54965393e-06
1.55546874e-06
1.572665871e-06
1.620071688e-06
1.739601569e-06
2.008953252e-06
2.538195925e-06
1.546991426e-06
1.546991449e-06
1.546992177e-06
1.5469952e-06
1.547005773e-06
1.547042693e-06
1.547167492e-06
1.547575301e-06
1.548859527e-06
1.552716258e-06
1.563662667e-06
1.592665757e-06
1.663352547e-06
1.819225941e-06
2.125488132e-06
1.546991715e-06
1.546991739e-06
1.54699282e-06
1.546996346e-06
1.547009723e-06
1.547057792e-06
1.547225375e-06
1.547794597e-06
1.549654273e-06
1.555469186e-06
1.572667325e-06
1.620077219e-06
1.739622397e-06
2.009027079e-06
1.546991928e-06
1.546992022e-06
1.546993066e-06
1.546997644e-06
1.547015087e-06
1.547079851e-06
1.547315443e-06
1.548149735e-06
1.55101402e-06
1.56045583e-06
1.58996909e-06
1.675952298e-06
1.903894238e-06
2.435918137e-06
3.484762089e-06
1.546991994e-06
1.546992313e-06
1.546993692e-06
1.547000035e-06
1.54702447e-06
1.547118892e-06
1.547477729e-06
1.548814498e-06
1.55366189e-06
1.570615549e-06
1.627055489e-06
1.802474438e-06
2.29709978e-06
3.508324469e-06
5.921063653e-06
1.546992249e-06
1.54699262e-06
1.546994512e-06
1.547002177e-06
1.547033727e-06
1.547159432e-06
1.547654457e-06
1.549572816e-06
1.556854496e-06
1.5836827e-06
1.678398016e-06
1.992530171e-06
2.940792726e-06
5.410596307e-06
1.045281489e-05
1.546992307e-06
1.546992747e-06
1.546994894e-06
1.547003262e-06
1.547037912e-06
1.547177865e-06
1.547738373e-06
1.549953487e-06
1.558566225e-06
1.591279294e-06
1.711327527e-06
2.12942674e-06
3.469606202e-06
7.201580932e-06
1.517386514e-05
1.546992039e-06
1.546992554e-06
1.54699432e-06
1.547002076e-06
1.547033585e-06
1.547159316e-06
1.547654309e-06
1.549572693e-06
1.55685438e-06
1.583682499e-06
1.67839691e-06
1.992525587e-06
2.940771755e-06
5.410516542e-06
1.045259534e-05
1.546991678e-06
1.546992099e-06
1.546993592e-06
1.546999915e-06
1.547024392e-06
1.547118715e-06
1.547477664e-06
1.548814406e-06
1.553661785e-06
1.570615459e-06
1.627054497e-06
1.802468423e-06
2.297072866e-06
3.50822747e-06
5.920807499e-06
1.546991553e-06
1.546991817e-06
1.546992866e-06
1.546997548e-06
1.547015024e-06
1.547079855e-06
1.547315121e-06
1.548149336e-06
1.551013829e-06
1.560455415e-06
1.589967538e-06
1.675946191e-06
1.90387017e-06
2.435833498e-06
3.484526248e-06
1.546991467e-06
1.546991631e-06
1.54699262e-06
1.546996135e-06
1.547009607e-06
1.547057664e-06
1.547225393e-06
1.547794315e-06
1.549654001e-06
1.555468782e-06
1.57266624e-06
1.620072398e-06
1.739603607e-06
2.008956609e-06
2.538199982e-06
1.546991876e-06
1.546992139e-06
1.546993241e-06
1.546997915e-06
1.547016159e-06
1.547083431e-06
1.547327262e-06
1.54818763e-06
1.551124429e-06
1.560736431e-06
1.590538106e-06
1.676601868e-06
1.90284694e-06
2.427645048e-06
1.546991962e-06
1.546992224e-06
1.546993836e-06
1.546999963e-06
1.547024515e-06
1.547118885e-06
1.5474778e-06
1.548814621e-06
1.553661902e-06
1.570616333e-06
1.627058237e-06
1.802485383e-06
2.297145431e-06
3.508520954e-06
1.546992378e-06
1.546992731e-06
1.546994681e-06
1.547003274e-06
1.547038734e-06
1.547182508e-06
1.547759552e-06
1.550041802e-06
1.558888616e-06
1.592193532e-06
1.712324457e-06
2.118986541e-06
3.369111988e-06
6.670202586e-06
1.34379993e-05
1.54699286e-06
1.54699322e-06
1.546995758e-06
1.547006612e-06
1.547053928e-06
1.547252001e-06
1.548082147e-06
1.551532403e-06
1.565703511e-06
1.622777271e-06
1.845445142e-06
2.670416399e-06
5.475737321e-06
1.368761753e-05
3.165276562e-05
1.546992618e-06
1.546993132e-06
1.546995849e-06
1.547008066e-06
1.547060725e-06
1.547285157e-06
1.548244347e-06
1.552337017e-06
1.569722642e-06
1.642902831e-06
1.945551611e-06
3.156786352e-06
7.713632655e-06
2.285753062e-05
6.045531378e-05
1.5469921e-06
1.546992817e-06
1.546995406e-06
1.547006486e-06
1.547053808e-06
1.547251945e-06
1.548082027e-06
1.551532398e-06
1.565703362e-06
1.622776937e-06
1.84544252e-06
2.670399869e-06
5.475646912e-06
1.368720952e-05
3.165145135e-05
1.546991998e-06
1.546992536e-06
1.546994505e-06
1.547003116e-06
1.547038616e-06
1.547182423e-06
1.547759508e-06
1.550041752e-06
1.558888408e-06
1.592193056e-06
1.712321222e-06
2.118966818e-06
3.369012108e-06
6.669775867e-06
1.34366232e-05
1.54699185e-06
1.546992103e-06
1.546993485e-06
1.546999632e-06
1.547024179e-06
1.54711849e-06
1.54747746e-06
1.548814426e-06
1.55366172e-06
1.570615638e-06
1.627055381e-06
1.802471466e-06
2.2970796e-06
3.508238013e-06
5.920814133e-06
1.546991711e-06
1.546991908e-06
1.546993043e-06
1.546997789e-06
1.547016023e-06
1.547083266e-06
1.547327088e-06
1.548187638e-06
1.551124103e-06
1.560736128e-06
1.590536002e-06
1.676592389e-06
1.902808651e-06
2.427507892e-06
3.461007005e-06
1.546992053e-06
1.546992235e-06
1.546993664e-06
1.546999362e-06
1.547022365e-06
1.547109467e-06
1.547433162e-06
1.548611731e-06
1.552776443e-06
1.566940112e-06
1.612723524e-06
1.750885384e-06
2.13004082e-06
3.039988795e-06
1.546992265e-06
1.546992627e-06
1.546994466e-06
1.547002139e-06
1.547033762e-06
1.547159455e-06
1.5476545e-06
1.549572903e-06
1.556854932e-06
1.583684818e-06
1.678406811e-06
1.992567441e-06
2.940942489e-06
5.411157071e-06
1.546992594e-06
1.546993227e-06
1.546995631e-06
1.547006617e-06
1.547053717e-06
1.547251999e-06
1.548082133e-06
1.551532481e-06
1.56570384e-06
1.62277978e-06
1.845457433e-06
2.670475551e-06
5.476019704e-06
1.368898835e-05
1.546992845e-06
1.546993353e-06
1.546996686e-06
1.547011172e-06
1.547075157e-06
1.547356357e-06
1.548593857e-06
1.554053661e-06
1.578139647e-06
1.683822057e-06
2.140803601e-06
4.056118477e-06
1.159663646e-05
3.769814079e-05
0.0001042546771
1.546992864e-06
1.546993489e-06
1.546997136e-06
1.547013116e-06
1.547085348e-06
1.547407966e-06
1.548865324e-06
1.555518856e-06
1.586244688e-06
1.729738983e-06
2.405767416e-06
5.595326559e-06
2.039011218e-05
8.46851312e-05
0.0003073766803
1.546992589e-06
1.54699319e-06
1.546996508e-06
1.547011027e-06
1.547075251e-06
1.547356162e-06
1.548593609e-06
1.5540537e-06
1.578139627e-06
1.683821307e-06
2.140796555e-06
4.056064562e-06
1.159627625e-05
3.76960586e-05
0.0001042453655
1.546992055e-06
1.546992542e-06
1.546995037e-06
1.547006271e-06
1.547053487e-06
1.547251878e-06
1.548081997e-06
1.551532372e-06
1.565703659e-06
1.622778489e-06
1.845448627e-06
2.670420503e-06
5.475706942e-06
1.368733804e-05
3.16515376e-05
1.546992002e-06
1.546992421e-06
1.546994261e-06
1.547001938e-06
1.547033555e-06
1.547159281e-06
1.547654282e-06
1.549572733e-06
1.556854842e-06
1.583683802e-06
1.67840157e-06
1.992539323e-06
2.940806859e-06
5.410582256e-06
1.045264808e-05
1.546991791e-06
1.546992116e-06
1.546993667e-06
1.54699941e-06
1.54702225e-06
1.547109177e-06
1.547433017e-06
1.548611571e-06
1.552775933e-06
1.566939386e-06
1.61272002e-06
1.750869885e-06
2.129977262e-06
3.039762797e-06
4.844709414e-06
1.546992109e-06
1.546992406e-06
1.546993797e-06
1.547000136e-06
1.547024916e-06
1.547120687e-06
1.547481375e-06
1.548811843e-06
1.553592246e-06
1.570179377e-06
1.62510645e-06
1.79568736e-06
2.27922545e-06
3.476405793e-06
1.546992238e-06
1.546992706e-06
1.546994659e-06
1.547002844e-06
1.547037622e-06
1.54717776e-06
1.547738505e-06
1.549953733e-06
1.558566846e-06
1.591283141e-06
1.711343784e-06
2.129495184e-06
3.469879661e-06
7.202569439e-06
1.546992547e-06
1.546993141e-06
1.546995961e-06
1.547008117e-06
1.547060532e-06
1.547285032e-06
1.548244458e-06
1.55233727e-06
1.569723967e-06
1.642909627e-06
1.945583775e-06
3.156945602e-06
7.714407041e-06
2.286109911e-05
1.546992838e-06
1.546993461e-06
1.546997059e-06
1.547012986e-06
1.547085126e-06
1.547407775e-06
1.548865338e-06
1.55551892e-06
1.586246228e-06
1.729746625e-06
2.405810764e-06
5.595586311e-06
2.039176407e-05
8.46962874e-05
1.546992981e-06
1.546993657e-06
1.546997446e-06
1.547015379e-06
1.547096882e-06
1.547469789e-06
1.5492068e-06
1.557470398e-06
1.597919756e-06
1.803270772e-06
2.895236273e-06
9.043315738e-06
4.606133271e-05
0.0002860820931
0.001975967336
1.546992739e-06
1.546993535e-06
1.546996961e-06
1.547013033e-06
1.547085053e-06
1.547407822e-06
1.548865243e-06
1.555518963e-06
1.586246171e-06
1.729745243e-06
2.405796873e-06
5.595462938e-06
2.039071151e-05
8.468731987e-05
0.0003073791202
1.546992456e-06
1.546992996e-06
1.54699576e-06
1.547007891e-06
1.547060259e-06
1.547284967e-06
1.548244442e-06
1.552337347e-06
1.569723875e-06
1.642907554e-06
1.945569997e-06
3.156858052e-06
7.713879314e-06
2.285817735e-05
6.045587683e-05
1.546991997e-06
1.546992499e-06
1.546994524e-06
1.547002901e-06
1.547037696e-06
1.547177724e-06
1.547738333e-06
1.549953826e-06
1.558566755e-06
1.591281867e-06
1.711336008e-06
2.129455243e-06
3.469686153e-06
7.201746581e-06
1.517399335e-05
1.5469918e-06
1.546992114e-06
1.546993703e-06
1.547000196e-06
1.547025051e-06
1.547120717e-06
1.547481084e-06
1.548811543e-06
1.553591967e-06
1.570178302e-06
1.625101682e-06
1.795666686e-06
2.279142156e-06
3.476114207e-06
5.881004057e-06
1.54699203e-06
1.546992304e-06
1.54699372e-06
1.546999649e-06
1.5470224e-06
1.547109409e-06
1.547433327e-06
1.548611854e-06
1.552776586e-06
1.566940858e-06
1.612725873e-06
1.750891855e-06
2.130053687e-06
3.040001904e-06
1.546992368e-06
1.54699279e-06
1.546994438e-06
1.547002344e-06
1.547033513e-06
1.547159261e-06
1.547654448e-06
1.54957299e-06
1.556855349e-06
1.583686447e-06
1.678412735e-06
1.992585932e-06
2.940988959e-06
5.411210431e-06
1.546992672e-06
1.546993042e-06
1.546995411e-06
1.547006437e-06
1.547053589e-06
1.547251995e-06
1.548082072e-06
1.551532485e-06
1.565704775e-06
1.622783948e-06
1.845474325e-06
2.670538615e-06
5.476220827e-06
1.368934431e-05
1.546992841e-06
1.546993374e-06
1.546996492e-06
1.547011086e-06
1.547075108e-06
1.547356049e-06
1.548593623e-06
1.554054061e-06
1.578141413e-06
1.683830767e-06
2.140845379e-06
4.056313423e-06
1.159751785e-05
3.770184257e-05
1.546992997e-06
1.546993483e-06
1.546996817e-06
1.547013056e-06
1.547085138e-06
1.547407799e-06
1.5488653e-06
1.555519071e-06
1.586247228e-06
1.729751826e-06
2.405835303e-06
5.595699447e-06
2.039225254e-05
8.469789185e-05
1.546992706e-06
1.546993169e-06
1.546996502e-06
1.547011198e-06
1.547075002e-06
1.547356097e-06
1.548593883e-06
1.5540541e-06
1.578141434e-06
1.683829388e-06
2.140836551e-06
4.056261033e-06
1.159724336e-05
3.770078618e-05
1.54699237e-06
1.546993044e-06
1.54699541e-06
1.547006554e-06
1.547053612e-06
1.547252137e-06
1.548082302e-06
1.551532645e-06
1.565704622e-06
1.622782597e-06
1.845465889e-06
2.670492381e-06
5.475992891e-06
1.368836507e-05
3.165480213e-05
1.546992064e-06
1.546992416e-06
1.546994336e-06
1.547002036e-06
1.547033685e-06
1.547159324e-06
1.547654135e-06
1.549572867e-06
1.556855028e-06
1.58368538e-06
1.678406854e-06
1.992558793e-06
2.940874181e-06
5.410786058e-06
1.045311927e-05
1.546991902e-06
1.546992152e-06
1.546993532e-06
1.546999428e-06
1.547022437e-06
1.54710926e-06
1.547433237e-06
1.548611725e-06
1.552776351e-06
1.566940077e-06
1.612722218e-06
1.750876512e-06
2.129996703e-06
3.039812284e-06
4.844801761e-06
1.54699189e-06
1.546992215e-06
1.546993279e-06
1.546997863e-06
1.547016073e-06
1.547083454e-06
1.547327287e-06
1.548187704e-06
1.55112463e-06
1.56073761e-06
1.590540951e-06
1.67660963e-06
1.902862915e-06
2.427660497e-06
1.546992283e-06
1.546992346e-06
1.546993724e-06
1.546999683e-06
1.547024252e-06
1.547118662e-06
1.547477809e-06
1.548814477e-06
1.553662495e-06
1.570618365e-06
1.627065268e-06
1.802506321e-06
2.297196377e-06
3.508585037e-06
1.54699254e-06
1.546992723e-06
1.546994605e-06
1.547003228e-06
1.547038631e-06
1.547182586e-06
1.547759673e-06
1.550042107e-06
1.558889723e-06
1.592198026e-06
1.712341461e-06
2.11904601e-06
3.369298551e-06
6.670694388e-06
1.546992511e-06
1.546992922e-06
1.546995332e-06
1.547006452e-06
1.547053639e-06
1.547252052e-06
1.548082127e-06
1.55153257e-06
1.565705184e-06
1.622785358e-06
1.845479225e-06
2.670554107e-06
5.476257837e-06
1.368937085e-05
1.546992474e-06
1.546992911e-06
1.546995822e-06
1.547008071e-06
1.547060482e-06
1.547284989e-06
1.548244371e-06
1.552337556e-06
1.569725033e-06
1.642913405e-06
1.945598541e-06
3.156997918e-06
7.714557697e-06
2.286126555e-05
1.546992485e-06
1.546992974e-06
1.546995487e-06
1.54700669e-06
1.547053804e-06
1.547252123e-06
1.548082146e-06
1.551532652e-06
1.565705165e-06
1.62278467e-06
1.845475572e-06
2.670535975e-06
5.476183197e-06
1.368913987e-05
1.546992266e-06
1.546992541e-06
1.546994626e-06
1.547003277e-06
1.547038773e-06
1.547182704e-06
1.547759696e-06
1.550042225e-06
1.558889675e-06
1.592197261e-06
1.712337291e-06
2.119027616e-06
3.36923602e-06
6.670576984e-06
1.546991944e-06
1.546992209e-06
1.546993606e-06
1.546999735e-06
1.547024141e-06
1.547118817e-06
1.547477631e-06
1.54881466e-06
1.553662397e-06
1.570617496e-06
1.627061912e-06
1.802493327e-06
2.297150291e-06
3.508445246e-06
5.921342758e-06
1.54699168e-06
1.54699195e-06
1.54699297e-06
1.546997777e-06
1.547015946e-06
1.547083499e-06
1.547327244e-06
1.548187642e-06
1.551124517e-06
1.560736824e-06
1.590538797e-06
1.676601228e-06
1.90283442e-06
2.427572056e-06
3.461131964e-06
1.546991557e-06
1.546991916e-06
1.546992723e-06
1.546996281e-06
1.547009558e-06
1.547057857e-06
1.547225793e-06
1.547794636e-06
1.549654461e-06
1.555470052e-06
1.572669855e-06
1.620083401e-06
1.73963476e-06
2.009038306e-06
1.546991794e-06
1.546992017e-06
1.546993098e-06
1.546997613e-06
1.547015039e-06
1.547079845e-06
1.547315467e-06
1.548149841e-06
1.551014523e-06
1.560457277e-06
1.589973702e-06
1.675966019e-06
1.903929393e-06
2.435994039e-06
1.546992081e-06
1.546992341e-06
1.546993813e-06
1.546999945e-06
1.547024252e-06
1.547118668e-06
1.547477794e-06
1.548814618e-06
1.553662683e-06
1.570618615e-06
1.627065919e-06
1.802507898e-06
2.297198369e-06
3.508582913e-06
1.546992257e-06
1.54699255e-06
1.546994294e-06
1.547002169e-06
1.547033626e-06
1.547159287e-06
1.547654287e-06
1.549573043e-06
1.55685565e-06
1.583687456e-06
1.678416144e-06
1.99259537e-06
2.941007307e-06
5.411221519e-06
1.546992155e-06
1.546992546e-06
1.546994597e-06
1.547003145e-06
1.547037773e-06
1.54717795e-06
1.547738323e-06
1.549953922e-06
1.558567806e-06
1.591285522e-06
1.711351395e-06
2.12951744e-06
3.469928152e-06
7.202601669e-06
1.546992081e-06
1.54699249e-06
1.546994217e-06
1.54700206e-06
1.547033647e-06
1.547159403e-06
1.547654237e-06
1.549572957e-06
1.556855751e-06
1.583687299e-06
1.678415017e-06
1.992590657e-06
2.940989992e-06
5.411168515e-06
1.546991944e-06
1.54699223e-06
1.54699362e-06
1.546999787e-06
1.547024188e-06
1.547118656e-06
1.547477534e-06
1.548814581e-06
1.553662443e-06
1.570618041e-06
1.627064207e-06
1.802502157e-06
2.297181811e-06
3.508551528e-06
1.546991601e-06
1.546991885e-06
1.546993036e-06
1.546997759e-06
1.547015166e-06
1.547079975e-06
1.547315529e-06
1.548149877e-06
1.551014337e-06
1.560456919e-06
1.589972488e-06
1.675961666e-06
1.903918311e-06
2.435981519e-06
1.546991568e-06
1.546991714e-06
1.546992684e-06
1.546996421e-06
1.547009846e-06
1.547057824e-06
1.547225598e-06
1.547794404e-06
1.549654202e-06
1.555469583e-06
1.5726688e-06
1.620079826e-06
1.739624566e-06
2.009010597e-06
2.538322311e-06
1.546991623e-06
1.546991837e-06
1.546992502e-06
1.546995423e-06
1.547006016e-06
1.547042859e-06
1.547167562e-06
1.547575764e-06
1.548859956e-06
1.552717186e-06
1.563665171e-06
1.59267324e-06
1.66337257e-06
1.819275892e-06
1.54699164e-06
1.546991852e-06
1.54699281e-06
1.546996232e-06
1.547009675e-06
1.54705779e-06
1.547225598e-06
1.547794548e-06
1.549654368e-06
1.555469932e-06
1.572670165e-06
1.620084021e-06
1.739635533e-06
2.009038892e-06
1.546991865e-06
1.546991969e-06
1.546993185e-06
1.546997895e-06
1.547016067e-06
1.547083291e-06
1.547327372e-06
1.548187662e-06
1.55112475e-06
1.560737785e-06
1.590541899e-06
1.676611883e-06
1.902866863e-06
2.427663985e-06
1.546992078e-06
1.546992184e-06
1.546993614e-06
1.546999404e-06
1.547022356e-06
1.547109271e-06
1.547433059e-06
1.548611675e-06
1.552776657e-06
1.566941452e-06
1.612728165e-06
1.75089748e-06
2.1300648e-06
3.04001203e-06
1.546992215e-06
1.546992351e-06
1.546993828e-06
1.547000035e-06
1.547025149e-06
1.547120831e-06
1.547481177e-06
1.548811895e-06
1.553592786e-06
1.570180625e-06
1.625110255e-06
1.795697103e-06
2.279243097e-06
3.476415854e-06
1.54699195e-06
1.546992265e-06
1.546993752e-06
1.546999488e-06
1.547022319e-06
1.547109312e-06
1.547433039e-06
1.548611661e-06
1.552776617e-06
1.566941507e-06
1.61272789e-06
1.750896457e-06
2.130059892e-06
3.039997573e-06
1.546991719e-06
1.546991925e-06
1.546993175e-06
1.546997892e-06
1.547016046e-06
1.547083326e-06
1.547327231e-06
1.54818748e-06
1.551124511e-06
1.56073746e-06
1.590541012e-06
1.676609711e-06
1.902860632e-06
2.427650926e-06
1.546991521e-06
1.546991614e-06
1.546992569e-06
1.546996153e-06
1.547009639e-06
1.547057639e-06
1.547225517e-06
1.547794372e-06
1.549654184e-06
1.555469823e-06
1.572669346e-06
1.620081858e-06
1.739631117e-06
2.009033288e-06
1.546991587e-06
1.546991617e-06
1.546992475e-06
1.546995342e-06
1.547005824e-06
1.547042707e-06
1.547167399e-06
1.547575473e-06
1.548859888e-06
1.552716865e-06
1.563664623e-06
1.592671834e-06
1.663369528e-06
1.819274152e-06
)
;

boundaryField
{
    top
    {
        type            calculated;
        value           nonuniform List<scalar> 
134
(
1.546991426e-06
1.546991467e-06
1.546991711e-06
1.546991791e-06
1.5469918e-06
1.546991902e-06
1.54699168e-06
1.546991568e-06
1.546991587e-06
1.546991449e-06
1.546991631e-06
1.546991908e-06
1.546992116e-06
1.546992114e-06
1.546992152e-06
1.54699195e-06
1.546991714e-06
1.546991617e-06
1.546992177e-06
1.54699262e-06
1.546993043e-06
1.546993667e-06
1.546993703e-06
1.546993532e-06
1.54699297e-06
1.546992684e-06
1.546992475e-06
1.5469952e-06
1.546996135e-06
1.546997789e-06
1.54699941e-06
1.547000196e-06
1.546999428e-06
1.546997777e-06
1.546996421e-06
1.546995342e-06
1.547005773e-06
1.547009607e-06
1.547016023e-06
1.54702225e-06
1.547025051e-06
1.547022437e-06
1.547015946e-06
1.547009846e-06
1.547005824e-06
1.547042693e-06
1.547057664e-06
1.547083266e-06
1.547109177e-06
1.547120717e-06
1.54710926e-06
1.547083499e-06
1.547057824e-06
1.547042707e-06
1.547167492e-06
1.547225393e-06
1.547327088e-06
1.547433017e-06
1.547481084e-06
1.547433237e-06
1.547327244e-06
1.547225598e-06
1.547167399e-06
1.547575301e-06
1.547794315e-06
1.548187638e-06
1.548611571e-06
1.548811543e-06
1.548611725e-06
1.548187642e-06
1.547794404e-06
1.547575473e-06
1.548859527e-06
1.549654001e-06
1.551124103e-06
1.552775933e-06
1.553591967e-06
1.552776351e-06
1.551124517e-06
1.549654202e-06
1.548859888e-06
1.552716258e-06
1.555468782e-06
1.560736128e-06
1.566939386e-06
1.570178302e-06
1.566940077e-06
1.560736824e-06
1.555469583e-06
1.552716865e-06
1.563662667e-06
1.57266624e-06
1.590536002e-06
1.61272002e-06
1.625101682e-06
1.612722218e-06
1.590538797e-06
1.5726688e-06
1.563664623e-06
1.592665757e-06
1.620072398e-06
1.676592389e-06
1.750869885e-06
1.795666686e-06
1.750876512e-06
1.676601228e-06
1.620079826e-06
1.592671834e-06
1.663352547e-06
1.739603607e-06
1.902808651e-06
2.129977262e-06
2.279142156e-06
2.129996703e-06
1.90283442e-06
1.739624566e-06
1.663369528e-06
1.819225941e-06
2.008956609e-06
2.427507892e-06
3.039762797e-06
3.476114207e-06
3.039812284e-06
2.427572056e-06
2.009010597e-06
1.819274152e-06
2.125488132e-06
2.538199982e-06
3.461007005e-06
4.844709414e-06
5.881004057e-06
4.844801761e-06
3.461131964e-06
2.538322311e-06
)
;
    }
    bottom
    {
        type            calculated;
        value           nonuniform List<scalar> 
127
(
1.54699154e-06
1.546991715e-06
1.546991876e-06
1.546992053e-06
1.546992109e-06
1.54699203e-06
1.54699189e-06
1.546991557e-06
1.546991623e-06
1.54699168e-06
1.546991739e-06
1.546992139e-06
1.546992235e-06
1.546992406e-06
1.546992304e-06
1.546992215e-06
1.546991916e-06
1.546991837e-06
1.546992263e-06
1.54699282e-06
1.546993241e-06
1.546993664e-06
1.546993797e-06
1.54699372e-06
1.546993279e-06
1.546992723e-06
1.546992502e-06
1.546995394e-06
1.546996346e-06
1.546997915e-06
1.546999362e-06
1.547000136e-06
1.546999649e-06
1.546997863e-06
1.546996281e-06
1.546995423e-06
1.547005834e-06
1.547009723e-06
1.547016159e-06
1.547022365e-06
1.547024916e-06
1.5470224e-06
1.547016073e-06
1.547009558e-06
1.547006016e-06
1.547042765e-06
1.547057792e-06
1.547083431e-06
1.547109467e-06
1.547120687e-06
1.547109409e-06
1.547083454e-06
1.547057857e-06
1.547042859e-06
1.547167645e-06
1.547225375e-06
1.547327262e-06
1.547433162e-06
1.547481375e-06
1.547433327e-06
1.547327287e-06
1.547225793e-06
1.547167562e-06
1.547575714e-06
1.547794597e-06
1.54818763e-06
1.548611731e-06
1.548811843e-06
1.548611854e-06
1.548187704e-06
1.547794636e-06
1.547575764e-06
1.548859806e-06
1.549654273e-06
1.551124429e-06
1.552776443e-06
1.553592246e-06
1.552776586e-06
1.55112463e-06
1.549654461e-06
1.548859956e-06
1.552716477e-06
1.555469186e-06
1.560736431e-06
1.566940112e-06
1.570179377e-06
1.566940858e-06
1.56073761e-06
1.555470052e-06
1.552717186e-06
1.563663306e-06
1.572667325e-06
1.590538106e-06
1.612723524e-06
1.62510645e-06
1.612725873e-06
1.590540951e-06
1.572669855e-06
1.563665171e-06
1.592668011e-06
1.620077219e-06
1.676601868e-06
1.750885384e-06
1.79568736e-06
1.750891855e-06
1.67660963e-06
1.620083401e-06
1.59267324e-06
1.663360844e-06
1.739622397e-06
1.90284694e-06
2.13004082e-06
2.27922545e-06
2.130053687e-06
1.902862915e-06
1.73963476e-06
1.66337257e-06
1.819251794e-06
2.009027079e-06
2.427645048e-06
3.039988795e-06
3.476405793e-06
3.040001904e-06
2.427660497e-06
2.009038306e-06
1.819275892e-06
2.125552275e-06
)
;
    }
    side-walls
    {
        type            calculated;
        value           nonuniform List<scalar> 
261
(
1.54699154e-06
1.546991611e-06
1.546991815e-06
1.546992133e-06
1.546992114e-06
1.54699193e-06
1.546991686e-06
1.546991411e-06
1.546991426e-06
1.54699168e-06
1.546991799e-06
1.546991993e-06
1.546992408e-06
1.546992445e-06
1.546992421e-06
1.54699186e-06
1.546991555e-06
1.546991449e-06
1.546992263e-06
1.5469926e-06
1.546993237e-06
1.54699374e-06
1.546994006e-06
1.546993842e-06
1.546993146e-06
1.546992368e-06
1.546992177e-06
1.546995394e-06
1.546996362e-06
1.546997782e-06
1.546999608e-06
1.547000417e-06
1.546999547e-06
1.546997895e-06
1.54699614e-06
1.5469952e-06
1.547005834e-06
1.547009573e-06
1.547016154e-06
1.547022392e-06
1.547025216e-06
1.547022585e-06
1.547016148e-06
1.5470096e-06
1.547005773e-06
1.547042765e-06
1.547057691e-06
1.547083438e-06
1.547109251e-06
1.547120838e-06
1.547109366e-06
1.54708336e-06
1.547057564e-06
1.547042693e-06
1.547167645e-06
1.547225527e-06
1.547327312e-06
1.547433241e-06
1.547481185e-06
1.547433203e-06
1.547327263e-06
1.547225562e-06
1.547167492e-06
1.547575714e-06
1.547794308e-06
1.548187663e-06
1.548611656e-06
1.548811594e-06
1.548611521e-06
1.548187524e-06
1.547794379e-06
1.547575301e-06
1.548859806e-06
1.549654092e-06
1.551124216e-06
1.552775908e-06
1.553591735e-06
1.552775867e-06
1.551124135e-06
1.54965393e-06
1.548859527e-06
1.552716477e-06
1.555469009e-06
1.560735845e-06
1.566938638e-06
1.570177041e-06
1.566938424e-06
1.560735738e-06
1.55546874e-06
1.552716258e-06
1.563663306e-06
1.572666628e-06
1.590535307e-06
1.612717729e-06
1.62509764e-06
1.612717037e-06
1.590534724e-06
1.572665871e-06
1.563662667e-06
1.592668011e-06
1.620074025e-06
1.676591796e-06
1.750864186e-06
1.795654582e-06
1.750861472e-06
1.676589305e-06
1.620071688e-06
1.592665757e-06
1.663360844e-06
1.739610405e-06
1.902810946e-06
2.129966649e-06
2.279113634e-06
2.129957594e-06
1.902801885e-06
1.739601569e-06
1.663352547e-06
1.819251794e-06
2.008980194e-06
2.427524577e-06
3.039754464e-06
3.476063846e-06
3.039728826e-06
2.427496987e-06
2.008953252e-06
1.819225941e-06
2.125552275e-06
2.538259551e-06
3.461062558e-06
4.844736519e-06
5.880968866e-06
4.844674439e-06
3.46099577e-06
2.538195925e-06
2.125488132e-06
1.546991623e-06
1.54699164e-06
1.546991865e-06
1.546992078e-06
1.546992215e-06
1.54699195e-06
1.546991719e-06
1.546991521e-06
1.546991587e-06
1.546991837e-06
1.546991852e-06
1.546991969e-06
1.546992184e-06
1.546992351e-06
1.546992265e-06
1.546991925e-06
1.546991614e-06
1.546991617e-06
1.546992502e-06
1.54699281e-06
1.546993185e-06
1.546993614e-06
1.546993828e-06
1.546993752e-06
1.546993175e-06
1.546992569e-06
1.546992475e-06
1.546995423e-06
1.546996232e-06
1.546997895e-06
1.546999404e-06
1.547000035e-06
1.546999488e-06
1.546997892e-06
1.546996153e-06
1.546995342e-06
1.547006016e-06
1.547009675e-06
1.547016067e-06
1.547022356e-06
1.547025149e-06
1.547022319e-06
1.547016046e-06
1.547009639e-06
1.547005824e-06
1.547042859e-06
1.54705779e-06
1.547083291e-06
1.547109271e-06
1.547120831e-06
1.547109312e-06
1.547083326e-06
1.547057639e-06
1.547042707e-06
1.547167562e-06
1.547225598e-06
1.547327372e-06
1.547433059e-06
1.547481177e-06
1.547433039e-06
1.547327231e-06
1.547225517e-06
1.547167399e-06
1.547575764e-06
1.547794548e-06
1.548187662e-06
1.548611675e-06
1.548811895e-06
1.548611661e-06
1.54818748e-06
1.547794372e-06
1.547575473e-06
1.548859956e-06
1.549654368e-06
1.55112475e-06
1.552776657e-06
1.553592786e-06
1.552776617e-06
1.551124511e-06
1.549654184e-06
1.548859888e-06
1.552717186e-06
1.555469932e-06
1.560737785e-06
1.566941452e-06
1.570180625e-06
1.566941507e-06
1.56073746e-06
1.555469823e-06
1.552716865e-06
1.563665171e-06
1.572670165e-06
1.590541899e-06
1.612728165e-06
1.625110255e-06
1.61272789e-06
1.590541012e-06
1.572669346e-06
1.563664623e-06
1.59267324e-06
1.620084021e-06
1.676611883e-06
1.75089748e-06
1.795697103e-06
1.750896457e-06
1.676609711e-06
1.620081858e-06
1.592671834e-06
1.66337257e-06
1.739635533e-06
1.902866863e-06
2.1300648e-06
2.279243097e-06
2.130059892e-06
1.902860632e-06
1.739631117e-06
1.663369528e-06
1.819275892e-06
2.009038892e-06
2.427663985e-06
3.04001203e-06
3.476415854e-06
3.039997573e-06
2.427650926e-06
2.009033288e-06
1.819274152e-06
)
;
    }
    inlet
    {
        type            calculated;
        value           nonuniform List<scalar> 
81
(
1.54699154e-06
1.546991611e-06
1.546991815e-06
1.546992133e-06
1.546992114e-06
1.54699193e-06
1.546991686e-06
1.546991411e-06
1.546991426e-06
1.546991715e-06
1.546991928e-06
1.546991994e-06
1.546992249e-06
1.546992307e-06
1.546992039e-06
1.546991678e-06
1.546991553e-06
1.546991467e-06
1.546991876e-06
1.546991962e-06
1.546992378e-06
1.54699286e-06
1.546992618e-06
1.5469921e-06
1.546991998e-06
1.54699185e-06
1.546991711e-06
1.546992053e-06
1.546992265e-06
1.546992594e-06
1.546992845e-06
1.546992864e-06
1.546992589e-06
1.546992055e-06
1.546992002e-06
1.546991791e-06
1.546992109e-06
1.546992238e-06
1.546992547e-06
1.546992838e-06
1.546992981e-06
1.546992739e-06
1.546992456e-06
1.546991997e-06
1.5469918e-06
1.54699203e-06
1.546992368e-06
1.546992672e-06
1.546992841e-06
1.546992997e-06
1.546992706e-06
1.54699237e-06
1.546992064e-06
1.546991902e-06
1.54699189e-06
1.546992283e-06
1.54699254e-06
1.546992511e-06
1.546992474e-06
1.546992485e-06
1.546992266e-06
1.546991944e-06
1.54699168e-06
1.546991557e-06
1.546991794e-06
1.546992081e-06
1.546992257e-06
1.546992155e-06
1.546992081e-06
1.546991944e-06
1.546991601e-06
1.546991568e-06
1.546991623e-06
1.54699164e-06
1.546991865e-06
1.546992078e-06
1.546992215e-06
1.54699195e-06
1.546991719e-06
1.546991521e-06
1.546991587e-06
)
;
    }
    outlet
    {
        type            calculated;
        value           nonuniform 0();
    }
    procBoundary0to1
    {
        type            processor;
        value           nonuniform List<scalar> 
97
(
2.657808535e-06
2.538319127e-06
3.432011227e-06
5.139958413e-06
7.638391103e-06
9.419013779e-06
7.638309041e-06
5.139877409e-06
3.431942909e-06
2.657760182e-06
2.538319127e-06
2.538319127e-06