/*--------------------------------*- C++ -*----------------------------------*\
| =========                 |                                                 |
| \\      /  F ield         | OpenFOAM: The Open Source CFD Toolbox           |
|  \\    /   O peration     | Version:  4.x                                   |
|   \\  /    A nd           | Web:      www.OpenFOAM.org                      |
|    \\/     M anipulation  |                                                 |
\*---------------------------------------------------------------------------*/
FoamFile
{
    version     2.0;
    format      ascii;
    class       volScalarField;
    location    "10000";
    object      CO;
}
// * * * * * * * * * * * * * * * * * * * * * * * * * * * * * * * * * * * * * //

dimensions      [0 0 0 0 0 0 0];

internalField   nonuniform List<scalar> 
1175
(
0.3999999993
0.3999999993
0.3999999993
0.3999999993
0.3999999993
0.3999999992
0.399999999
0.3999999983
0.3999999963
0.39999999
0.3999999722
0.3999999248
0.399999809
0.3999995532
0.3999990496
0.3999999993
0.3999999993
0.3999999993
0.3999999993
0.3999999993
0.3999999992
0.3999999989
0.399999998
0.399999995
0.3999999855
0.3999999574
0.3999998797
0.3999996834
0.3999992401
0.3999983674
0.3999999993
0.3999999993
0.3999999993
0.3999999993
0.3999999992
0.3999999991
0.3999999987
0.3999999973
0.3999999926
0.3999999769
0.399999928
0.3999997867
0.3999994142
0.3999985482
0.3999968392
0.3999999993
0.3999999993
0.3999999993
0.3999999993
0.3999999992
0.3999999991
0.3999999986
0.3999999967
0.3999999899
0.3999999667
0.3999998915
0.3999996642
0.3999990386
0.3999975338
0.3999945425
0.3999999993
0.3999999993
0.3999999993
0.3999999993
0.3999999992
0.3999999991
0.3999999985
0.3999999963
0.3999999885
0.3999999614
0.3999998711
0.3999995901
0.3999987913
0.399996809
0.3999928184
0.3999999993
0.3999999993
0.3999999993
0.3999999993
0.3999999992
0.3999999991
0.3999999986
0.3999999967
0.3999999899
0.3999999667
0.3999998915
0.3999996642
0.3999990386
0.3999975338
0.3999945425
0.3999999993
0.3999999993
0.3999999993
0.3999999993
0.3999999992
0.3999999991
0.3999999987
0.3999999973
0.3999999926
0.3999999769
0.399999928
0.3999997867
0.3999994142
0.3999985483
0.3999968392
0.3999999993
0.3999999993
0.3999999993
0.3999999993
0.3999999993
0.3999999992
0.3999999989
0.399999998
0.399999995
0.3999999855
0.3999999574
0.3999998797
0.3999996835
0.3999992402
0.3999983675
0.3999999993
0.3999999993
0.3999999993
0.3999999993
0.3999999993
0.3999999992
0.399999999
0.3999999983
0.3999999963
0.39999999
0.3999999722
0.3999999248
0.399999809
0.3999995533
0.3999990497
0.3999999993
0.3999999993
0.3999999993
0.3999999993
0.3999999993
0.3999999992
0.3999999989
0.399999998
0.399999995
0.3999999855
0.3999999574
0.3999998797
0.3999996834
0.3999992401
0.3999999993
0.3999999993
0.3999999993
0.3999999993
0.3999999993
0.3999999991
0.3999999988
0.3999999974
0.3999999927
0.3999999773
0.3999999289
0.3999997877
0.3999994122
0.3999985338
0.3999967987
0.3999999993
0.3999999993
0.3999999993
0.3999999993
0.3999999992
0.3999999991
0.3999999985
0.3999999963
0.3999999884
0.3999999606
0.3999998679
0.3999995788
0.3999987615
0.3999967557
0.3999927522
0.3999999993
0.3999999993
0.3999999993
0.3999999993
0.3999999992
0.399999999
0.3999999982
0.3999999951
0.3999999832
0.3999999391
0.3999997831
0.3999992642
0.3999976936
0.3999935935
0.3999852066
0.3999999993
0.3999999993
0.3999999993
0.3999999993
0.3999999992
0.399999999
0.3999999981
0.3999999945
0.3999999803
0.3999999266
0.3999997286
0.399999037
0.3999968138
0.3999906078
0.3999773273
0.3999999993
0.3999999993
0.3999999993
0.3999999993
0.3999999992
0.399999999
0.3999999982
0.3999999951
0.3999999832
0.3999999391
0.3999997831
0.3999992642
0.3999976937
0.3999935936
0.3999852069
0.3999999993
0.3999999993
0.3999999993
0.3999999993
0.3999999992
0.3999999991
0.3999999985
0.3999999963
0.3999999884
0.3999999606
0.3999998679
0.3999995788
0.3999987615
0.3999967558
0.3999927525
0.3999999993
0.3999999993
0.3999999993
0.3999999993
0.3999999993
0.3999999991
0.3999999988
0.3999999974
0.3999999927
0.3999999773
0.3999999289
0.3999997877
0.3999994122
0.3999985339
0.3999967989
0.3999999993
0.3999999993
0.3999999993
0.3999999993
0.3999999993
0.3999999992
0.3999999989
0.399999998
0.399999995
0.3999999855
0.3999999574
0.3999998797
0.3999996835
0.3999992402
0.3999983675
0.3999999993
0.3999999993
0.3999999993
0.3999999993
0.3999999992
0.3999999991
0.3999999987
0.3999999973
0.3999999926
0.3999999769
0.399999928
0.3999997867
0.3999994142
0.3999985481
0.3999999993
0.3999999993
0.3999999993
0.3999999993
0.3999999992
0.3999999991
0.3999999985
0.3999999963
0.3999999884
0.3999999606
0.3999998679
0.3999995787
0.3999987615
0.3999967555
0.3999999993
0.3999999993
0.3999999993
0.3999999993
0.3999999992
0.399999999
0.399999998
0.3999999943
0.3999999798
0.3999999251
0.399999727
0.3999990548
0.3999969829
0.3999914994
0.3999802359
0.3999999993
0.3999999993
0.3999999993
0.3999999993
0.3999999992
0.3999999989
0.3999999975
0.3999999919
0.3999999686
0.3999998746
0.3999995066
0.3999981395
0.3999934782
0.3999798015
0.3999498269
0.3999999993
0.3999999993
0.3999999993
0.3999999993
0.3999999992
0.3999999988
0.3999999972
0.3999999905
0.399999962
0.3999998412
0.3999993404
0.3999973297
0.3999897435
0.3999644697
0.3999016348
0.3999999993
0.3999999993
0.3999999993
0.3999999993
0.3999999992
0.3999999989
0.3999999975
0.3999999919
0.3999999686
0.3999998746
0.3999995066
0.3999981395
0.3999934783
0.399979802
0.3999498283
0.3999999993
0.3999999993
0.3999999993
0.3999999993
0.3999999992
0.399999999
0.399999998
0.3999999943
0.3999999798
0.3999999251
0.399999727
0.3999990548
0.3999969831
0.3999914999
0.3999802373
0.3999999993
0.3999999993
0.3999999993
0.3999999993
0.3999999992
0.3999999991
0.3999999985
0.3999999963
0.3999999884
0.3999999606
0.3999998679
0.3999995788
0.3999987615
0.3999967558
0.3999927525
0.3999999993
0.3999999993
0.3999999993
0.3999999993
0.3999999992
0.3999999991
0.3999999987
0.3999999973
0.3999999926
0.3999999769
0.399999928
0.3999997867
0.3999994142
0.3999985483
0.3999968392
0.3999999993
0.3999999993
0.3999999993
0.3999999993
0.3999999992
0.3999999991
0.3999999986
0.3999999967
0.3999999899
0.3999999667
0.3999998915
0.3999996641
0.3999990385
0.3999975336
0.3999999993
0.3999999993
0.3999999993
0.3999999993
0.3999999992
0.399999999
0.3999999982
0.3999999951
0.3999999832
0.3999999391
0.3999997831
0.3999992641
0.3999976935
0.399993593
0.3999999993
0.3999999993
0.3999999993
0.3999999993
0.3999999992
0.3999999989
0.3999999975
0.3999999919
0.3999999686
0.3999998746
0.3999995066
0.3999981394
0.3999934779
0.3999798002
0.3999999993
0.3999999993
0.3999999993
0.3999999993
0.3999999992
0.3999999987
0.3999999967
0.3999999877
0.3999999481
0.3999997735
0.3999990164
0.3999958337
0.3999832694
0.3999396761
0.3998283372
0.3999999993
0.3999999993
0.3999999993
0.3999999993
0.3999999991
0.3999999986
0.3999999962
0.3999999853
0.3999999347
0.3999996973
0.3999985753
0.399993264
0.3999685546
0.3998609058
0.3994876897
0.3999999993
0.3999999993
0.3999999993
0.3999999993
0.3999999992
0.3999999987
0.3999999967
0.3999999877
0.3999999481
0.3999997735
0.3999990164
0.3999958338
0.3999832698
0.3999396782
0.3998283464
0.3999999993
0.3999999993
0.3999999993
0.3999999993
0.3999999992
0.3999999989
0.3999999975
0.3999999919
0.3999999686
0.3999998746
0.3999995066
0.3999981395
0.3999934782
0.3999798018
0.3999498281
0.3999999993
0.3999999993
0.3999999993
0.3999999993
0.3999999992
0.399999999
0.3999999982
0.3999999951
0.3999999832
0.3999999391
0.3999997831
0.3999992642
0.3999976936
0.3999935935
0.3999852068
0.3999999993
0.3999999993
0.3999999993
0.3999999993
0.3999999992
0.3999999991
0.3999999986
0.3999999967
0.3999999899
0.3999999667
0.3999998915
0.3999996641
0.3999990386
0.3999975338
0.3999945425
0.3999999993
0.3999999993
0.3999999993
0.3999999993
0.3999999992
0.3999999991
0.3999999985
0.3999999963
0.3999999885
0.3999999614
0.3999998711
0.39999959
0.3999987912
0.3999968087
0.3999999993
0.3999999993
0.3999999993
0.3999999993
0.3999999992
0.399999999
0.3999999981
0.3999999945
0.3999999803
0.3999999266
0.3999997286
0.3999990369
0.3999968136
0.3999906069
0.3999999993
0.3999999993
0.3999999993
0.3999999993
0.3999999992
0.3999999988
0.3999999972
0.3999999905
0.399999962
0.3999998412
0.3999993404
0.3999973295
0.3999897428
0.3999644663
0.3999999993
0.3999999993
0.3999999993
0.3999999993
0.3999999991
0.3999999986
0.3999999962
0.3999999853
0.3999999347
0.3999996973
0.3999985752
0.3999932638
0.399968553
0.3998608951
0.3999999993
0.3999999993
0.3999999993
0.3999999993
0.3999999991
0.3999999985
0.3999999957
0.3999999821
0.3999999153
0.399999575
0.3999977585
0.3999874945
0.3999254938
0.3995225236
0.3966916814
0.3999999993
0.3999999993
0.3999999993
0.3999999993
0.3999999991
0.3999999986
0.3999999962
0.3999999853
0.3999999347
0.3999996973
0.3999985752
0.3999932639
0.3999685539
0.3998609033
0.3994876859
0.3999999993
0.3999999993
0.3999999993
0.3999999993
0.3999999992
0.3999999988
0.3999999972
0.3999999905
0.399999962
0.3999998412
0.3999993404
0.3999973296
0.3999897432
0.3999644689
0.3999016338
0.3999999993
0.3999999993
0.3999999993
0.3999999993
0.3999999992
0.399999999
0.3999999981
0.3999999945
0.3999999803
0.3999999266
0.3999997286
0.3999990369
0.3999968137
0.3999906076
0.399977327
0.3999999993
0.3999999993
0.3999999993
0.3999999993
0.3999999992
0.3999999991
0.3999999985
0.3999999963
0.3999999885
0.3999999614
0.3999998711
0.3999995901
0.3999987913
0.3999968089
0.3999928183
0.3999999993
0.3999999993
0.3999999993
0.3999999993
0.3999999992
0.3999999991
0.3999999986
0.3999999967
0.3999999899
0.3999999667
0.3999998915
0.3999996641
0.3999990385
0.3999975336
0.3999999993
0.3999999993
0.3999999993
0.3999999993
0.3999999992
0.399999999
0.3999999982
0.3999999951
0.3999999832
0.3999999391
0.3999997831
0.3999992641
0.3999976935
0.3999935929
0.3999999993
0.3999999993
0.3999999993
0.3999999993
0.3999999992
0.3999999989
0.3999999975
0.3999999919
0.3999999686
0.3999998746
0.3999995066
0.3999981394
0.3999934777
0.3999798
0.3999999993
0.3999999993
0.3999999993
0.3999999993
0.3999999992
0.3999999987
0.3999999967
0.3999999877
0.3999999481
0.3999997735
0.3999990164
0.3999958335
0.3999832686
0.3999396729
0.3999999993
0.3999999993
0.3999999993
0.3999999993
0.3999999991
0.3999999986
0.3999999962
0.3999999853
0.3999999347
0.3999996973
0.3999985752
0.3999932636
0.3999685523
0.3998608928
0.3999999993
0.3999999993
0.3999999993
0.3999999993
0.3999999992
0.3999999987
0.3999999967
0.3999999877
0.3999999481
0.3999997735
0.3999990164
0.3999958336
0.3999832688
0.3999396736
0.3999999993
0.3999999993
0.3999999993
0.3999999993
0.3999999992
0.3999999989
0.3999999975
0.3999999919
0.3999999686
0.3999998746
0.3999995066
0.3999981394
0.3999934779
0.3999798008
0.399949825
0.3999999993
0.3999999993
0.3999999993
0.3999999993
0.3999999992
0.399999999
0.3999999982
0.3999999951
0.3999999832
0.3999999391
0.3999997831
0.3999992641
0.3999976936
0.3999935933
0.3999852063
0.3999999993
0.3999999993
0.3999999993
0.3999999993
0.3999999992
0.3999999991
0.3999999986
0.3999999967
0.3999999899
0.3999999667
0.3999998915
0.3999996641
0.3999990385
0.3999975337
0.3999945424
0.3999999993
0.3999999993
0.3999999993
0.3999999993
0.3999999992
0.3999999991
0.3999999987
0.3999999973
0.3999999926
0.3999999769
0.399999928
0.3999997867
0.3999994141
0.3999985481
0.3999999993
0.3999999993
0.3999999993
0.3999999993
0.3999999992
0.3999999991
0.3999999985
0.3999999963
0.3999999884
0.3999999606
0.3999998678
0.3999995787
0.3999987614
0.3999967555
0.3999999993
0.3999999993
0.3999999993
0.3999999993
0.3999999992
0.399999999
0.399999998
0.3999999943
0.3999999798
0.3999999251
0.399999727
0.3999990547
0.3999969828
0.399991499
0.3999999993
0.3999999993
0.3999999993
0.3999999993
0.3999999992
0.3999999989
0.3999999975
0.3999999919
0.3999999686
0.3999998746
0.3999995066
0.3999981393
0.3999934777
0.3999797999
0.3999999993
0.3999999993
0.3999999993
0.3999999993
0.3999999992
0.3999999988
0.3999999972
0.3999999905
0.399999962
0.3999998412
0.3999993403
0.3999973295
0.3999897426
0.3999644659
0.3999999993
0.3999999993
0.3999999993
0.3999999993
0.3999999992
0.3999999989
0.3999999975
0.3999999919
0.3999999686
0.3999998746
0.3999995066
0.3999981394
0.3999934778
0.3999798001
0.3999999993
0.3999999993
0.3999999993
0.3999999993
0.3999999992
0.399999999
0.399999998
0.3999999943
0.3999999798
0.3999999251
0.399999727
0.3999990548
0.3999969828
0.3999914991
0.3999999993
0.3999999993
0.3999999993
0.3999999993
0.3999999992
0.3999999991
0.3999999985
0.3999999963
0.3999999884
0.3999999606
0.3999998679
0.3999995787
0.3999987615
0.3999967556
0.3999927519
0.3999999993
0.3999999993
0.3999999993
0.3999999993
0.3999999992
0.3999999991
0.3999999987
0.3999999973
0.3999999926
0.3999999769
0.399999928
0.3999997867
0.3999994142
0.3999985482
0.3999968391
0.3999999993
0.3999999993
0.3999999993
0.3999999993
0.3999999993
0.3999999992
0.3999999989
0.399999998
0.399999995
0.3999999855
0.3999999574
0.3999998797
0.3999996834
0.3999992401
0.3999999993
0.3999999993
0.3999999993
0.3999999993
0.3999999993
0.3999999991
0.3999999988
0.3999999974
0.3999999927
0.3999999773
0.3999999289
0.3999997876
0.3999994121
0.3999985337
0.3999999993
0.3999999993
0.3999999993
0.3999999993
0.3999999992
0.3999999991
0.3999999985
0.3999999963
0.3999999884
0.3999999606
0.3999998678
0.3999995787
0.3999987614
0.3999967555
0.3999999993
0.3999999993
0.3999999993
0.3999999993
0.3999999992
0.399999999
0.3999999982
0.3999999951
0.3999999832
0.3999999391
0.3999997831
0.3999992641
0.3999976934
0.3999935929
0.3999999993
0.3999999993
0.3999999993
0.3999999993
0.3999999992
0.399999999
0.3999999981
0.3999999945
0.3999999803
0.3999999266
0.3999997286
0.3999990369
0.3999968135
0.3999906069
0.3999999993
0.3999999993
0.3999999993
0.3999999993
0.3999999992
0.399999999
0.3999999982
0.3999999951
0.3999999832
0.3999999391
0.3999997831
0.3999992641
0.3999976935
0.399993593
0.3999999993
0.3999999993
0.3999999993
0.3999999993
0.3999999992
0.3999999991
0.3999999985
0.3999999963
0.3999999884
0.3999999606
0.3999998679
0.3999995787
0.3999987614
0.3999967555
0.3999999993
0.3999999993
0.3999999993
0.3999999993
0.3999999993
0.3999999991
0.3999999988
0.3999999974
0.3999999927
0.3999999773
0.3999999289
0.3999997877
0.3999994122
0.3999985337
0.3999999993
0.3999999993
0.3999999993
0.3999999993
0.3999999993
0.3999999992
0.3999999989
0.399999998
0.399999995
0.3999999855
0.3999999574
0.3999998797
0.3999996834
0.3999992401
0.3999983673
0.3999999993
0.3999999993
0.3999999993
0.3999999993
0.3999999993
0.3999999992
0.399999999
0.3999999983
0.3999999963
0.39999999
0.3999999722
0.3999999248
0.399999809
0.3999995532
0.3999999993
0.3999999993
0.3999999993
0.3999999993
0.3999999993
0.3999999992
0.3999999989
0.399999998
0.399999995
0.3999999855
0.3999999574
0.3999998797
0.3999996834
0.3999992401
0.3999999993
0.3999999993
0.3999999993
0.3999999993
0.3999999992
0.3999999991
0.3999999987
0.3999999973
0.3999999926
0.3999999769
0.399999928
0.3999997867
0.3999994141
0.3999985481
0.3999999993
0.3999999993
0.3999999993
0.3999999993
0.3999999992
0.3999999991
0.3999999986
0.3999999967
0.3999999899
0.3999999667
0.3999998915
0.3999996641
0.3999990385
0.3999975336
0.3999999993
0.3999999993
0.3999999993
0.3999999993
0.3999999992
0.3999999991
0.3999999985
0.3999999963
0.3999999885
0.3999999614
0.3999998711
0.39999959
0.3999987912
0.3999968087
0.3999999993
0.3999999993
0.3999999993
0.3999999993
0.3999999992
0.3999999991
0.3999999986
0.3999999967
0.3999999899
0.3999999667
0.3999998915
0.3999996641
0.3999990385
0.3999975336
0.3999999993
0.3999999993
0.3999999993
0.3999999993
0.3999999992
0.3999999991
0.3999999987
0.3999999973
0.3999999926
0.3999999769
0.399999928
0.3999997867
0.3999994141
0.3999985481
0.3999999993
0.3999999993
0.3999999993
0.3999999993
0.3999999993
0.3999999992
0.3999999989
0.399999998
0.399999995
0.3999999855
0.3999999574
0.3999998797
0.3999996834
0.3999992401
0.3999999993
0.3999999993
0.3999999993
0.3999999993
0.3999999993
0.3999999992
0.399999999
0.3999999983
0.3999999963
0.39999999
0.3999999722
0.3999999248
0.399999809
0.3999995532
)
;

boundaryField
{
    top
    {
        type            zeroGradient;
    }
    bottom
    {
        type            zeroGradient;
    }
    side-walls
    {
        type            zeroGradient;
    }
    inlet
    {
        type            zeroGradient;
    }
    outlet
    {
        type            zeroGradient;
    }
    procBoundary0to1
    {
        type            processor;
        value           nonuniform List<scalar> 
97
(
0.3999981728
0.3999983673
0.3999968908
0.3999940576
0.3999899037
0.399986936
0.3999899038
0.3999940577
0.3999968909
0.3999981729
0.3999983673
0.3999983673
0.3999939986
0.3999927519
0.3999867175
0.3999737687
0.3999615443
0.399973769
0.3999867178
0.3999939987
0.3999968909
0.3999968391
0.3999927519
0.3999927519
0.3999651945
0.3999498245
0.3999172902
0.3998545093
0.3999172915
0.3999651955
0.3999867178
0.3999940577
0.3999945423
0.3999852062
0.3999498245
0.3999498245
0.3997529542
0.3994876595
0.3994302482
0.3997529583
0.3999172913
0.3999737689
0.3999899037
0.3999928182
0.3999773264
0.39990163
0.3994876595
0.3994876595
0.3980407918
0.3994876581
0.3994302468
0.3998283378
0.3998545085
0.3999615441
0.3999869359
0.3999945423
0.3999852063
0.3999498261
0.399828339
0.3994876581
0.3998283378
0.3998283378
0.3999172901
0.3999802359
0.3999737685
0.3999899036
0.3999968391
0.3999927522
0.3999802365
0.399949826
0.3999016296
0.3999498262
0.3999802359
0.3999802359
0.3999867175
0.3999967987
0.3999940575
0.3999983674
0.3999967988
0.3999927522
0.3999852063
0.3999773263
0.3999852064
0.3999927522
0.3999967987
0.3999967987
0.3999968908
0.3999990496
0.3999990497
0.3999983674
0.3999968391
0.3999945423
0.3999928182
0.3999945424
0.3999968391
0.3999983674
0.3999990496
)
;
    }
}


// ************************************************************************* //
