/*--------------------------------*- C++ -*----------------------------------*\
| =========                 |                                                 |
| \\      /  F ield         | OpenFOAM: The Open Source CFD Toolbox           |
|  \\    /   O peration     | Version:  4.x                                   |
|   \\  /    A nd           | Web:      www.OpenFOAM.org                      |
|    \\/     M anipulation  |                                                 |
\*---------------------------------------------------------------------------*/
FoamFile
{
    version     2.0;
    format      ascii;
    class       volScalarField;
    location    "10000";
    object      CO2;
}
// * * * * * * * * * * * * * * * * * * * * * * * * * * * * * * * * * * * * * //

dimensions      [0 0 0 0 0 0 0];

internalField   nonuniform List<scalar> 
1175
(
1.364560307e-09
1.364879493e-09
1.366424547e-09
1.372408312e-09
1.394091231e-09
1.469915941e-09
1.727087908e-09
2.570852431e-09
5.233540214e-09
1.325261332e-08
3.607312993e-08
9.668977069e-08
2.447760163e-07
5.720515071e-07
1.216392214e-06
1.364790045e-09
1.365173668e-09
1.3670484e-09
1.374451892e-09
1.401954478e-09
1.500947475e-09
1.847730139e-09
3.026612773e-09
6.892066589e-09
1.901352223e-08
5.496040468e-08
1.543092001e-07
4.054220158e-07
9.725636659e-07
2.089188786e-06
1.365151965e-09
1.365639835e-09
1.368055232e-09
1.377818763e-09
1.415158459e-09
1.55410772e-09
2.059145266e-09
3.846402342e-09
9.9655374e-09
3.005271879e-08
9.250372459e-08
2.733311394e-07
7.498562535e-07
1.857673227e-06
4.044204167e-06
1.365477115e-09
1.36606353e-09
1.368995749e-09
1.38105356e-09
1.428166581e-09
1.607879847e-09
2.279567771e-09
4.731911476e-09
1.342485519e-08
4.307774371e-08
1.392038152e-07
4.300751593e-07
1.230330104e-06
3.155301849e-06
6.98214331e-06
1.365606803e-09
1.36623432e-09
1.369383746e-09
1.382419992e-09
1.433782069e-09
1.631664421e-09
2.379997763e-09
5.150495481e-09
1.513633001e-08
4.989130214e-08
1.653231219e-07
5.248247903e-07
1.546591454e-06
4.082412199e-06
9.187513278e-06
1.365475081e-09
1.36606162e-09
1.368993727e-09
1.381051764e-09
1.428165055e-09
1.607879562e-09
2.279571475e-09
4.731924911e-09
1.342488735e-08
4.30777646e-08
1.392035341e-07
4.300730186e-07
1.23031995e-06
3.155266244e-06
6.982050018e-06
1.365147773e-09
1.365635711e-09
1.36805127e-09
1.377814995e-09
1.415155087e-09
1.554105498e-09
2.059144768e-09
3.84640093e-09
9.965510812e-09
3.005251869e-08
9.250261748e-08
2.733261746e-07
7.498374172e-07
1.857614178e-06
4.044063475e-06
1.364783333e-09
1.365167267e-09
1.367042469e-09
1.374446701e-09
1.401949922e-09
1.500943256e-09
1.847724741e-09
3.026595119e-09
6.891983799e-09
1.901314233e-08
5.495878888e-08
1.543029907e-07
4.054008079e-07
9.725012826e-07
2.089045868e-06
1.364549974e-09
1.36487127e-09
1.366417896e-09
1.372402955e-09
1.394087311e-09
1.469913701e-09
1.727086948e-09
2.570846536e-09
5.233488623e-09
1.325232437e-08
3.607181382e-08
9.668457675e-08
2.447578034e-07
5.719958204e-07
1.216255877e-06
1.364789871e-09
1.365173495e-09
1.367048375e-09
1.374451967e-09
1.401954919e-09
1.500949063e-09
1.847737047e-09
3.026641097e-09
6.892180192e-09
1.901396151e-08
5.49620682e-08
1.54315422e-07
4.054453927e-07
9.726557098e-07
1.365049413e-09
1.365517822e-09
1.367835663e-09
1.377208025e-09
1.413086686e-09
1.546859335e-09
2.034597369e-09
3.768276052e-09
9.738449511e-09
2.947669972e-08
9.135007469e-08
2.720957294e-07
7.524547643e-07
1.876200578e-06
4.096082502e-06
1.365459117e-09
1.36606603e-09
1.369120251e-09
1.381820283e-09
1.432162287e-09
1.627568888e-09
2.372918477e-09
5.158030121e-09
1.528893652e-08
5.083032652e-08
1.694928693e-07
5.393157466e-07
1.584754425e-06
4.150732103e-06
9.272459566e-06
1.365828618e-09
1.366568508e-09
1.370338879e-09
1.386345799e-09
1.451472694e-09
1.712101108e-09
2.741696213e-09
6.746272623e-09
2.199533545e-08
7.835477016e-08
2.779267806e-07
9.417063829e-07
2.950707632e-06
8.19562151e-06
1.892456866e-05
1.365976692e-09
1.36677253e-09
1.37084828e-09
1.388294017e-09
1.460024909e-09
1.750806894e-09
2.91772858e-09
7.545272584e-09
2.559844183e-08
9.439405111e-08
3.476518897e-07
1.232341878e-06
4.07605159e-06
1.201448504e-05
2.900308617e-05
1.365826798e-09
1.366566544e-09
1.370337039e-09
1.386343962e-09
1.451470653e-09
1.712098372e-09
2.741689656e-09
6.746244998e-09
2.199520158e-08
7.835411554e-08
2.779236944e-07
9.416926519e-07
2.950652246e-06
8.195430231e-06
1.892407076e-05
1.365454919e-09
1.366062039e-09
1.369116681e-09
1.381816881e-09
1.432159391e-09
1.627567e-09
2.372918228e-09
5.158023743e-09
1.528885933e-08
5.082978358e-08
1.694898122e-07
5.393009873e-07
1.584692797e-06
4.150517595e-06
9.271905347e-06
1.365042975e-09
1.365511716e-09
1.367830144e-09
1.377203211e-09
1.413082901e-09
1.546857384e-09
2.034597229e-09
3.768269838e-09
9.738376462e-09
2.947619937e-08
9.134739699e-08
2.720833895e-07
7.524048362e-07
1.876026914e-06
4.095602541e-06
1.364780747e-09
1.365166419e-09
1.367042625e-09
1.374447719e-09
1.40195203e-09
1.500947693e-09
1.847736019e-09
3.026627773e-09
6.892081077e-09
1.901341855e-08
5.495954061e-08
1.54304822e-07
4.054046467e-07
9.725080993e-07
2.089054743e-06
1.365152011e-09
1.36563989e-09
1.36805547e-09
1.377819203e-09
1.415160168e-09
1.554115134e-09
2.059174966e-09
3.846518696e-09
9.965990078e-09
3.005443445e-08
9.251005212e-08
2.733537417e-07
7.499338416e-07
1.857925441e-06
1.365459252e-09
1.366066186e-09
1.369120542e-09
1.38182077e-09
1.432164387e-09
1.627577269e-09
2.372952158e-09
5.158162721e-09
1.52894571e-08
5.083234303e-08
1.69500535e-07
5.393447843e-07
1.584864311e-06
4.151165426e-06
1.365945653e-09
1.366750343e-09
1.37088277e-09
1.38864225e-09
1.461988342e-09
1.760542233e-09
2.962180117e-09
7.730441263e-09
2.627326406e-08
9.629808141e-08
3.496243151e-07
1.209555779e-06
3.859869038e-06
1.087452038e-05
2.528400769e-05
1.366387083e-09
1.367384237e-09
1.372585849e-09
1.395501919e-09
1.493132619e-09
1.905409361e-09
3.637312705e-09
1.086046678e-08
4.062692497e-08
1.608977648e-07
6.315587409e-07
2.380344131e-06
8.342827699e-06
2.583742178e-05
6.418112748e-05
1.366565167e-09
1.367644237e-09
1.373310061e-09
1.39852317e-09
1.507354925e-09
1.974522574e-09
3.977778067e-09
1.25541543e-08
4.911326999e-08
2.03521344e-07
8.441788842e-07
3.416088083e-06
1.311955886e-05
4.544740639e-05
0.0001258211583
1.366385304e-09
1.367382358e-09
1.372584118e-09
1.395500106e-09
1.4931305e-09
1.905406167e-09
3.637303115e-09
1.086041888e-08
4.062665561e-08
1.60896247e-07
6.315503521e-07
2.380300622e-06
8.342616123e-06
2.583652749e-05
6.417834717e-05
1.365941927e-09
1.366746533e-09
1.370879017e-09
1.388638734e-09
1.461984709e-09
1.760537219e-09
2.962165015e-09
7.730367692e-09
2.627286738e-08
9.629598727e-08
3.49613556e-07
1.209503585e-06
3.859634587e-06
1.08735868e-05
2.528110782e-05
1.365453368e-09
1.366060692e-09
1.369115523e-09
1.381816197e-09
1.432160082e-09
1.627571861e-09
2.372936924e-09
5.158090607e-09
1.528909639e-08
5.08305799e-08
1.69492273e-07
5.393078799e-07
1.584708965e-06
4.15054549e-06
9.271929924e-06
1.36514353e-09
1.365633515e-09
1.368050263e-09
1.377815421e-09
1.41515771e-09
1.554113503e-09
2.059169991e-09
3.846482638e-09
9.965771467e-09
3.005331159e-08
9.250486912e-08
2.733318581e-07
7.498496799e-07
1.857634447e-06
4.044081764e-06
1.365477371e-09
1.366063653e-09
1.368995976e-09
1.381054355e-09
1.428169708e-09
1.607892715e-09
2.279620166e-09
4.73212299e-09
1.342569831e-08
4.308103024e-08
1.392162707e-07
4.301203211e-07
1.230484511e-06
3.155782951e-06
1.36582901e-09
1.366568835e-09
1.370339108e-09
1.386346427e-09
1.451474975e-09
1.712111277e-09
2.741741211e-09
6.74647293e-09
2.199622504e-08
7.835870042e-08
2.779437873e-07
9.417782822e-07
2.950999247e-06
8.196720752e-06
1.36638728e-09
1.367384198e-09
1.372586091e-09
1.395502422e-09
1.493134371e-09
1.905417803e-09
3.637353928e-09
1.086066633e-08
4.062789451e-08
1.60902504e-07
6.315819339e-07
2.380457476e-06
8.343378782e-06
2.584012817e-05
1.366896698e-09
1.368147239e-09
1.374791063e-09
1.404896111e-09
1.537788178e-09
2.123335376e-09
4.710318602e-09
1.616613778e-08
6.687799085e-08
2.901318398e-07
1.258578068e-06
5.329663428e-06
2.14009652e-05
7.716242383e-05
0.0002195836346
1.367102815e-09
1.368462783e-09
1.375742163e-09
1.409116853e-09
1.558750857e-09
2.231386977e-09
5.281203562e-09
1.925684241e-08
8.403414005e-08
3.876326764e-07
1.822858691e-06
8.616354408e-06
4.022135877e-05
0.0001779102586
0.0006552752619
1.366894965e-09
1.368145494e-09
1.374789398e-09
1.404894491e-09
1.537786529e-09
2.123333188e-09
4.710309879e-09
1.616607975e-08
6.68775789e-08
2.90128903e-07
1.258558576e-06
5.329536327e-06
2.140018472e-05
7.715808448e-05
0.0002195646139
1.366383901e-09
1.367380691e-09
1.372582616e-09
1.395499451e-09
1.493132291e-09
1.905417309e-09
3.637352561e-09
1.086062767e-08
4.062751032e-08
1.608996531e-07
6.315632128e-07
2.380344731e-06
8.342747257e-06
2.583681173e-05
6.417859555e-05
1.365823486e-09
1.36656365e-09
1.370334571e-09
1.386342712e-09
1.451472878e-09
1.712112775e-09
2.741748988e-09
6.746475048e-09
2.199605457e-08
7.835715958e-08
2.779338436e-07
9.417233466e-07
2.950731713e-06
8.195583916e-06
1.892421545e-05
1.365469401e-09
1.366057921e-09
1.368991553e-09
1.381051308e-09
1.428168297e-09
1.60789357e-09
2.279622003e-09
4.732102037e-09
1.342548716e-08
4.307971114e-08
1.392093888e-07
4.300888433e-07
1.230356426e-06
3.1553304e-06
6.982111996e-06
1.365607235e-09
1.366234604e-09
1.369384293e-09
1.382421307e-09
1.433786898e-09
1.631683865e-09
2.380076837e-09
5.150814365e-09
1.513759894e-08
4.989625113e-08
1.653418545e-07
5.248925897e-07
1.546820628e-06
4.083108852e-06
1.365977048e-09
1.366772889e-09
1.370848625e-09
1.388295089e-09
1.460029565e-09
1.750826659e-09
2.917815528e-09
7.545657635e-09
2.560014281e-08
9.440154542e-08
3.476842946e-07
1.232478547e-06
4.076597333e-06
1.201646075e-05
1.366565368e-09
1.36764442e-09
1.373310512e-09
1.398524485e-09
1.507360527e-09
1.974548405e-09
3.9778992e-09
1.255472776e-08
4.911603924e-08
2.035348381e-07
8.442452611e-07
3.416414111e-06
1.312113695e-05
4.54546256e-05
1.367102873e-09
1.36846281e-09
1.37574248e-09
1.409117695e-09
1.558755512e-09
2.231408849e-09
5.281309735e-09
1.925737879e-08
8.40369527e-08
3.876480328e-07
1.82294601e-06
8.616878322e-06
4.022468591e-05
0.0001779327056
1.367320883e-09
1.36880272e-09
1.37679879e-09
1.41392723e-09
1.583263012e-09
2.36182649e-09
6.00027325e-09
2.338067067e-08
1.087907361e-07
5.440811641e-07
2.867513707e-06
1.599591647e-05
9.529754918e-05
0.0006107066556
0.004231385871
1.36710138e-09
1.368461219e-09
1.375741013e-09
1.409116778e-09
1.558756082e-09
2.231416669e-09
5.281344777e-09
1.925750713e-08
8.403727361e-08
3.876475135e-07
1.822928397e-06
8.616675826e-06
4.02227486e-05
0.0001779152781
0.0006552816153
1.366561937e-09
1.367641191e-09
1.373307549e-09
1.398522099e-09
1.507359225e-09
1.974551002e-09
3.977910301e-09
1.255473491e-08
4.911578077e-08
2.03531964e-07
8.442225269e-07
3.416256674e-06
1.312014072e-05
4.544895931e-05
0.0001258228706
1.365971978e-09
1.366767969e-09
1.37084452e-09
1.388291694e-09
1.460027958e-09
1.750829027e-09
2.917825221e-09
7.545658535e-09
2.559993473e-08
9.43996275e-08
3.476717111e-07
1.232406942e-06
4.076235876e-06
1.201488105e-05
2.900347447e-05
1.365599506e-09
1.366229116e-09
1.369380005e-09
1.382418585e-09
1.433786175e-09
1.631685317e-09
2.380078011e-09
5.150786536e-09
1.513734526e-08
4.98946885e-08
1.653336932e-07
5.248547963e-07
1.546664789e-06
4.082550739e-06
9.187657686e-06
1.365475596e-09
1.366062055e-09
1.368994471e-09
1.381053331e-09
1.428170611e-09
1.607901184e-09
2.279657354e-09
4.732264093e-09
1.342620054e-08
4.30827201e-08
1.392215208e-07
4.301347037e-07
1.230515987e-06
3.155823206e-06
1.365827084e-09
1.366567076e-09
1.370337549e-09
1.386345693e-09
1.451476877e-09
1.712124214e-09
2.74179893e-09
6.746707416e-09
2.199714033e-08
7.836212841e-08
2.779558638e-07
9.418161318e-07
2.951094056e-06
8.196834891e-06
1.366385754e-09
1.367382837e-09
1.372584849e-09
1.395502073e-09
1.493138623e-09
1.90544046e-09
3.637457386e-09
1.086111985e-08
4.062985035e-08
1.609107471e-07
6.316153708e-07
2.3805836e-06
8.343781797e-06
2.584084117e-05
1.366895252e-09
1.368145688e-09
1.374789987e-09
1.404896249e-09
1.53779367e-09
2.123366118e-09
4.710466315e-09
1.616684044e-08
6.688135919e-08
2.901480188e-07
1.258655877e-06
5.330033737e-06
2.140266718e-05
7.716964869e-05
1.367101385e-09
1.368461377e-09
1.375741363e-09
1.409117885e-09
1.558760833e-09
2.231438771e-09
5.281454132e-09
1.925805434e-08
8.404011799e-08
3.876628656e-07
1.823015116e-06
8.61719183e-06
4.022599492e-05
0.0001779370512
1.366893709e-09
1.368144074e-09
1.37478856e-09
1.404894988e-09
1.537792898e-09
2.123366236e-09
4.710468211e-09
1.616682621e-08
6.688113762e-08
2.901460311e-07
1.258641486e-06
5.329942024e-06
2.140216691e-05
7.71677061e-05
1.366382622e-09
1.367379583e-09
1.372581835e-09
1.395499424e-09
1.493136266e-09
1.905438553e-09
3.637449554e-09
1.086105392e-08
4.062937246e-08
1.609077205e-07
6.315977451e-07
2.38048883e-06
8.343321373e-06
2.583887154e-05
6.418513414e-05
1.365822367e-09
1.366562445e-09
1.370333669e-09
1.386342561e-09
1.451475225e-09
1.712125498e-09
2.741803574e-09
6.746695536e-09
2.199692983e-08
7.836055913e-08
2.779466052e-07
9.417694165e-07
2.950885575e-06
8.196036706e-06
1.892525143e-05
1.36546831e-09
1.366056851e-09
1.368990667e-09
1.381050955e-09
1.428169813e-09
1.607902127e-09
2.279656674e-09
4.732233375e-09
1.342596489e-08
4.308138427e-08
1.392150034e-07
4.301064942e-07
1.230407197e-06
3.155456452e-06
6.982352184e-06
1.365148297e-09
1.365636316e-09
1.368051977e-09
1.377816461e-09
1.415159866e-09
1.554123382e-09
2.059213378e-09
3.846663951e-09
9.966492528e-09
3.005606334e-08
9.251486084e-08
2.73366041e-07
7.499571346e-07
1.857937415e-06
1.365455594e-09
1.36606273e-09
1.369117366e-09
1.381818457e-09
1.432165234e-09
1.627590134e-09
2.373011764e-09
5.158401157e-09
1.529035841e-08
5.083558764e-08
1.695114147e-07
5.393772027e-07
1.584941388e-06
4.151237325e-06
1.365942477e-09
1.366747174e-09
1.370879856e-09
1.388640847e-09
1.461992437e-09
1.760569227e-09
2.962301741e-09
7.730953122e-09
2.627535294e-08
9.630632921e-08
3.496554949e-07
1.209666068e-06
3.860218544e-06
1.08754505e-05
1.366384418e-09
1.367381365e-09
1.372583428e-09
1.395501287e-09
1.493139869e-09
1.905450472e-09
3.637503688e-09
1.086131415e-08
4.063062755e-08
1.609137553e-07
6.316261448e-07
2.380617518e-06
8.343866115e-06
2.584092935e-05
1.366562099e-09
1.367641504e-09
1.37330795e-09
1.398523214e-09
1.507364501e-09
1.974574619e-09
3.978020451e-09
1.255525895e-08
4.911830119e-08
2.035442164e-07
8.442824719e-07
3.416550047e-06
1.312154864e-05
4.545529856e-05
1.366382841e-09
1.367379741e-09
1.372581949e-09
1.395499911e-09
1.493138573e-09
1.905448766e-09
3.637496718e-09
1.086127328e-08
4.063038271e-08
1.609123812e-07
6.316189317e-07
2.380583316e-06
8.343725423e-06
2.584048875e-05
1.365939296e-09
1.366744025e-09
1.37087697e-09
1.388638211e-09
1.461990108e-09
1.760566175e-09
2.96229225e-09
7.730898705e-09
2.627503922e-08
9.630468736e-08
3.496475758e-07
1.209632208e-06
3.860101517e-06
1.087523144e-05
1.365450984e-09
1.366058449e-09
1.369113779e-09
1.381815602e-09
1.432163384e-09
1.627589795e-09
2.373011479e-09
5.15838299e-09
1.529020336e-08
5.083465407e-08
1.695067775e-07
5.393570799e-07
1.584865647e-06
4.15099487e-06
9.273059955e-06
1.365141488e-09
1.365631605e-09
1.368048658e-09
1.377814552e-09
1.415159465e-09
1.554124565e-09
2.059214812e-09
3.846648787e-09
9.966360749e-09
3.005532839e-08
9.251143732e-08
2.733520579e-07
7.499068927e-07
1.85777648e-06
4.044360026e-06
1.364783877e-09
1.365167857e-09
1.367043313e-09
1.374448124e-09
1.401954234e-09
1.500957725e-09
1.847777245e-09
3.026786091e-09
6.892662074e-09
1.901545595e-08
5.496633538e-08
1.543261347e-07
4.054664184e-07
9.726701942e-07
1.365043686e-09
1.365512457e-09
1.367831107e-09
1.377204876e-09
1.413087779e-09
1.54687494e-09
2.034664138e-09
3.768524998e-09
9.739328056e-09
2.947964681e-08
9.135934742e-08
2.721224552e-07
7.525229695e-07
1.87634638e-06
1.365453843e-09
1.366061134e-09
1.369116208e-09
1.381817963e-09
1.432166046e-09
1.627595041e-09
2.373030235e-09
5.158466965e-09
1.529058507e-08
5.083631096e-08
1.695135532e-07
5.393826849e-07
1.584952109e-06
4.151248107e-06
1.365823945e-09
1.36656398e-09
1.370335091e-09
1.386344348e-09
1.451478492e-09
1.712135772e-09
2.74184686e-09
6.746891207e-09
2.199780917e-08
7.836442732e-08
2.77963102e-07
9.418361538e-07
2.951135399e-06
8.19686873e-06
1.365972237e-09
1.366768191e-09
1.370845024e-09
1.388292855e-09
1.460032068e-09
1.750846949e-09
2.917903815e-09
7.546007694e-09
2.560147822e-08
9.440637706e-08
3.47700697e-07
1.232527459e-06
4.076710709e-06
1.201657282e-05
1.36582249e-09
1.366562856e-09
1.370333984e-09
1.386343078e-09
1.451477299e-09
1.712134775e-09
2.741845059e-09
6.746880764e-09
2.199774012e-08
7.836402866e-08
2.779610932e-07
9.418271325e-07
2.951101833e-06
8.196767384e-06
1.365451171e-09
1.366058603e-09
1.369113699e-09
1.381815542e-09
1.432163635e-09
1.627591086e-09
2.373018571e-09
5.15841808e-09
1.529037142e-08
5.083539422e-08
1.695099468e-07
5.393699356e-07
1.584915107e-06
4.151177861e-06
1.365039665e-09
1.365508721e-09
1.367827799e-09
1.37720189e-09
1.413084968e-09
1.546871064e-09
2.034652973e-09
3.768479842e-09
9.739138786e-09
2.947887979e-08
9.135650603e-08
2.721131079e-07
7.524984101e-07
1.876317122e-06
1.364777718e-09
1.365163801e-09
1.367040666e-09
1.374446688e-09
1.401953565e-09
1.500957365e-09
1.847773743e-09
3.026761636e-09
6.892541595e-09
1.901494432e-08
5.496437841e-08
1.543194437e-07
4.054462275e-07
9.726157072e-07
2.089297847e-06
1.36455065e-09
1.364872116e-09
1.366418716e-09
1.372404479e-09
1.394090849e-09
1.469924938e-09
1.727126584e-09
2.570985471e-09
5.233963495e-09
1.325388323e-08
3.607668446e-08
9.669886456e-08
2.447967844e-07
5.720932007e-07
1.364781381e-09
1.365167265e-09
1.367043645e-09
1.374449326e-09
1.401956419e-09
1.500962554e-09
1.847789645e-09
3.02682183e-09
6.892767031e-09
1.901575517e-08
5.496711843e-08
1.54327972e-07
4.054701455e-07
9.726760302e-07
1.365144191e-09
1.36563419e-09
1.368051288e-09
1.377817104e-09
1.41516273e-09
1.554131856e-09
2.059239728e-09
3.846747007e-09
9.966750281e-09
3.005682417e-08
9.251692381e-08
2.733708162e-07
7.499660051e-07
1.857947021e-06
1.365469845e-09
1.366058408e-09
1.368992248e-09
1.381052866e-09
1.428173412e-09
1.607913229e-09
2.279699214e-09
4.732407297e-09
1.342666869e-08
4.30841594e-08
1.392255161e-07
4.301441742e-07
1.230532266e-06
3.155830094e-06
1.365599907e-09
1.366229322e-09
1.369380411e-09
1.382419528e-09
1.433789642e-09
1.631699967e-09
2.38013842e-09
5.151035725e-09
1.513835338e-08
4.989867121e-08
1.653488993e-07
5.249101965e-07
1.546852416e-06
4.083122544e-06
1.365468667e-09
1.366057112e-09
1.368991081e-09
1.381051598e-09
1.428171996e-09
1.607910968e-09
2.279692954e-09
4.732384095e-09
1.342657876e-08
4.308379933e-08
1.392241534e-07
4.301393739e-07
1.230516962e-06
3.155788811e-06
1.365141632e-09
1.365631598e-09
1.368048903e-09
1.37781494e-09
1.415160364e-09
1.554128193e-09
2.05923048e-09
3.846712966e-09
9.966617756e-09
3.005631799e-08
9.25151159e-08
2.733650996e-07
7.499503718e-07
1.857912792e-06
1.364777772e-09
1.365163634e-09
1.367040573e-09
1.374446724e-09
1.401954015e-09
1.500959232e-09
1.847780681e-09
3.026788165e-09
6.892638795e-09
1.901529204e-08
5.496558355e-08
1.543235084e-07
4.054596728e-07
9.726607597e-07
1.364545442e-09
1.364868882e-09
1.366416992e-09
1.372403792e-09
1.39409109e-09
1.46992535e-09
1.727124353e-09
2.570968655e-09
5.233885663e-09
1.325358162e-08
3.607567313e-08
9.66959831e-08
2.447905467e-07
5.720893679e-07
)
;

boundaryField
{
    top
    {
        type            zeroGradient;
    }
    bottom
    {
        type            zeroGradient;
    }
    side-walls
    {
        type            zeroGradient;
    }
    inlet
    {
        type            zeroGradient;
    }
    outlet
    {
        type            zeroGradient;
    }
    procBoundary0to1
    {
        type            processor;
        value           nonuniform List<scalar> 
97
(
2.338170409e-06
2.089306027e-06
3.978280737e-06
7.602816895e-06
1.291663767e-05
1.671286511e-05
1.291652468e-05
7.602642754e-06
3.978114764e-06
2.338056976e-06
2.089306027e-06
2.089306027e-06
7.678353338e-06
9.273130377e-06
1.699270386e-05
3.355693234e-05
4.91937584e-05
3.355637404e-05
1.699214884e-05
7.678030951e-06
3.978130255e-06
4.044401996e-06
9.273130377e-06
9.273130377e-06
4.452553077e-05
6.418630383e-05
0.0001058036317
0.0001861079106
0.0001058013735
4.452375234e-05
1.69921811e-05
7.60267115e-06
6.982490914e-06
1.892562175e-05
6.418630383e-05
6.418630383e-05
0.0003160146659
0.0006553464197
0.000728787531
0.0003160070317
0.0001058016386
3.355656949e-05
1.291661696e-05
9.1880681e-06
2.900506083e-05
0.0001258320136
0.0006553464197
0.0006553464197
0.002506028866
0.0006553475199
0.0007287896359
0.0002195839309
0.0001861093027
4.919417984e-05
1.671306286e-05
6.98248881e-06
1.892531709e-05
6.418302668e-05
0.0002195813789
0.0006553475199
0.0002195839309
0.0002195839309
0.0001058037718
2.528398075e-05
3.355734899e-05
1.291688153e-05
4.044302938e-06
9.272502957e-06
2.528286282e-05
6.418312358e-05
0.0001258324655
6.418288982e-05
2.528398075e-05
2.528398075e-05
1.699277238e-05
4.096071334e-06
7.602945268e-06
2.089166588e-06
4.0958457e-06
9.272517636e-06
1.892535348e-05
2.900513549e-05
1.892523263e-05
9.27257955e-06
4.096071334e-06
4.096071334e-06
3.97826839e-06
1.216383817e-06
1.2163208e-06
2.089178451e-06
4.044318711e-06
6.982491121e-06
9.188062765e-06
6.982425226e-06
4.044286488e-06
2.089197202e-06
1.216383817e-06
)
;
    }
}


// ************************************************************************* //
