/*--------------------------------*- C++ -*----------------------------------*\
| =========                 |                                                 |
| \\      /  F ield         | OpenFOAM: The Open Source CFD Toolbox           |
|  \\    /   O peration     | Version:  4.x                                   |
|   \\  /    A nd           | Web:      www.OpenFOAM.org                      |
|    \\/     M anipulation  |                                                 |
\*---------------------------------------------------------------------------*/
FoamFile
{
    version     2.0;
    format      ascii;
    class       volScalarField;
    location    "10000";
    object      Cpv;
}
// * * * * * * * * * * * * * * * * * * * * * * * * * * * * * * * * * * * * * //

dimensions      [0 2 -2 -1 0 0 0];

internalField   nonuniform List<scalar> 
1175
(
1210.459943
1210.459946
1210.459942
1210.459936
1210.459938
1210.459944
1210.459954
1210.459947
1210.459943
1210.459921
1210.459922
1210.459946
1210.459952
1210.459983
1210.460018
1210.460893
1210.460896
1210.460894
1210.460898
1210.460906
1210.460894
1210.460898
1210.460885
1210.460895
1210.460911
1210.460914
1210.4609
1210.460936
1210.460969
1210.461036
1210.46017
1210.460177
1210.460186
1210.460188
1210.460185
1210.460215
1210.460226
1210.46022
1210.460222
1210.460203
1210.460223
1210.460258
1210.460286
1210.460366
1210.460508
1210.459113
1210.459092
1210.459104
1210.459106
1210.459102
1210.459105
1210.459107
1210.459111
1210.459121
1210.459136
1210.459135
1210.459153
1210.459201
1210.459313
1210.459566
1210.459147
1210.459146
1210.459162
1210.459141
1210.459154
1210.459159
1210.459148
1210.459138
1210.459138
1210.459141
1210.459148
1210.459184
1210.459263
1210.459446
1210.459757
1210.459944
1210.459939
1210.459939
1210.459942
1210.459938
1210.459945
1210.459956
1210.459978
1210.459946
1210.459957
1210.459958
1210.459947
1210.460005
1210.460118
1210.460368
1210.459909
1210.459918
1210.459942
1210.459954
1210.459932
1210.459945
1210.459941
1210.459943
1210.459969
1210.459945
1210.459965
1210.459978
1210.460014
1210.460078
1210.460192
1210.459405
1210.459399
1210.459413
1210.459419
1210.459454
1210.459456
1210.459447
1210.459443
1210.459437
1210.459418
1210.459421
1210.459401
1210.45941
1210.45945
1210.459514
1210.460065
1210.460066
1210.460057
1210.460044
1210.460036
1210.460043
1210.460035
1210.460019
1210.460038
1210.460032
1210.460067
1210.46007
1210.460083
1210.460101
1210.460141
1210.460122
1210.460114
1210.460113
1210.460148
1210.460122
1210.460102
1210.46012
1210.460125
1210.460118
1210.460127
1210.460146
1210.46015
1210.460196
1210.460222
1210.45858
1210.458563
1210.458572
1210.458584
1210.458591
1210.458601
1210.458572
1210.458522
1210.458546
1210.458555
1210.458556
1210.458551
1210.458571
1210.458652
1210.45879
1210.458379
1210.458369
1210.45836
1210.458379
1210.458373
1210.45837
1210.458402
1210.4584
1210.458431
1210.458431
1210.458416
1210.458438
1210.458474
1210.458631
1210.458994
1210.460546
1210.460535
1210.46051
1210.460529
1210.460522
1210.460509
1210.46052
1210.46052
1210.460525
1210.4605
1210.460519
1210.460552
1210.460658
1210.460996
1210.461667
1210.461051
1210.461053
1210.461052
1210.461035
1210.46102
1210.461028
1210.461014
1210.461014
1210.461014
1210.461025
1210.461051
1210.461139
1210.461321
1210.461814
1210.462925
1210.459696
1210.459727
1210.459725
1210.459706
1210.459707
1210.459729
1210.459728
1210.45974
1210.459732
1210.459758
1210.459758
1210.459797
1210.459947
1210.460282
1210.460957
1210.4592
1210.459199
1210.459178
1210.459167
1210.459177
1210.459181
1210.45918
1210.459162
1210.459174
1210.459192
1210.459191
1210.459247
1210.459339
1210.459497
1210.459818
1210.460274
1210.460267
1210.460248
1210.460271
1210.46026
1210.460247
1210.460264
1210.460257
1210.460249
1210.46027
1210.460279
1210.460298
1210.460334
1210.460379
1210.4605
1210.459931
1210.459927
1210.459928
1210.459912
1210.459906
1210.459896
1210.459876
1210.459894
1210.4599
1210.459905
1210.459859
1210.459871
1210.459894
1210.459932
1210.459989
1210.460126
1210.460133
1210.460138
1210.460149
1210.460153
1210.460132
1210.460125
1210.46011
1210.460088
1210.460086
1210.46011
1210.460134
1210.460149
1210.460208
1210.461057
1210.461047
1210.461086
1210.461085
1210.46111
1210.46108
1210.461078
1210.461102
1210.461108
1210.461118
1210.461135
1210.461155
1210.461228
1210.461384
1210.460249
1210.460242
1210.460242
1210.460277
1210.460253
1210.460256
1210.460303
1210.460286
1210.460271
1210.460283
1210.46031
1210.460358
1210.460508
1210.460974
1210.461868
1210.460135
1210.46014
1210.460116
1210.460131
1210.46014
1210.460148
1210.460149
1210.460132
1210.460128
1210.46014
1210.460185
1210.460293
1210.460701
1210.461766
1210.464196
1210.460197
1210.460203
1210.460192
1210.460173
1210.460174
1210.460175
1210.46017
1210.460151
1210.46016
1210.460186
1210.460209
1210.460374
1210.460979
1210.462992
1210.468076
1210.459689
1210.459687
1210.459674
1210.459684
1210.45969
1210.459708
1210.459712
1210.459702
1210.4597
1210.459691
1210.459719
1210.459798
1210.460166
1210.461254
1210.463707
1210.458956
1210.458972
1210.459
1210.459027
1210.459035
1210.459041
1210.459016
1210.459017
1210.459021
1210.459016
1210.459033
1210.459084
1210.459241
1210.459675
1210.460591
1210.45895
1210.458945
1210.458949
1210.458922
1210.458929
1210.458929
1210.458914
1210.458952
1210.458941
1210.458904
1210.458933
1210.458963
1210.459019
1210.459191
1210.459534
1210.459671
1210.459668
1210.459666
1210.459661
1210.45966
1210.459664
1210.459653
1210.459651
1210.45964
1210.459663
1210.459649
1210.459655
1210.459681
1210.459763
1210.459899
1210.459481
1210.459484
1210.459473
1210.459473
1210.459463
1210.459459
1210.459447
1210.459463
1210.459459
1210.459472
1210.459468
1210.459494
1210.459554
1210.459696
1210.459146
1210.459141
1210.459164
1210.459156
1210.459156
1210.459175
1210.459158
1210.45916
1210.459148
1210.45913
1210.459141
1210.459192
1210.459326
1210.459653
1210.459578
1210.459581
1210.45956
1210.45957
1210.459573
1210.459584
1210.459566
1210.459568
1210.459561
1210.459562
1210.45959
1210.459685
1210.460085
1210.461176
1210.460536
1210.460531
1210.460533
1210.460575
1210.460559
1210.460553
1210.46054
1210.460549
1210.460574
1210.46059
1210.460654
1210.460904
1210.461955
1210.465492
1210.474502
1210.458136
1210.458141
1210.458147
1210.458134
1210.45813
1210.458156
1210.458164
1210.458195
1210.458205
1210.458204
1210.458316
1210.458736
1210.460728
1210.46948
1210.499558
1210.459597
1210.459612
1210.459611
1210.459624
1210.459595
1210.459607
1210.459616
1210.459633
1210.459652
1210.459657
1210.459702
1210.459962
1210.460961
1210.464524
1210.473541
1210.459348
1210.459347
1210.459353
1210.459347
1210.459341
1210.459335
1210.459365
1210.459372
1210.459348
1210.45937
1210.45938
1210.459495
1210.459873
1210.460972
1210.463387
1210.460331
1210.460345
1210.460356
1210.460362
1210.460368
1210.460376
1210.460387
1210.460392
1210.460402
1210.460396
1210.460388
1210.460451
1210.460594
1210.460941
1210.46162
1210.459267
1210.459253
1210.459276
1210.459266
1210.459271
1210.459272
1210.45926
1210.459236
1210.459244
1210.459251
1210.459272
1210.4593
1210.459347
1210.459451
1210.459705
1210.45983
1210.459839
1210.459837
1210.459833
1210.459838
1210.459839
1210.459841
1210.459841
1210.459846
1210.459858
1210.459845
1210.45986
1210.459919
1210.460073
1210.460141
1210.460142
1210.46016
1210.46019
1210.460186
1210.460174
1210.460185
1210.460156
1210.460153
1210.460159
1210.460164
1210.460216
1210.46039
1210.460891
1210.460402
1210.460388
1210.460404
1210.460388
1210.460393
1210.460375
1210.460389
1210.460375
1210.460385
1210.460405
1210.460452
1210.460636
1210.461239
1210.463279
1210.458717
1210.458737
1210.45874
1210.458746
1210.458716
1210.458687
1210.458689
1210.458681
1210.458683
1210.458694
1210.458799
1210.459232
1210.461229
1210.469947
1210.460938
1210.460951
1210.460949
1210.46093
1210.460928
1210.460908
1210.460887
1210.460882
1210.460899
1210.460922
1210.461098
1210.461919
1210.466929
1210.499526
1210.297202
1210.459717
1210.459706
1210.459702
1210.459702
1210.459731
1210.459729
1210.459746
1210.459742
1210.45976
1210.459771
1210.459873
1210.460312
1210.462306
1210.471009
1210.501056
1210.460398
1210.460398
1210.460366
1210.460371
1210.460338
1210.460329
1210.46034
1210.46036
1210.460363
1210.460396
1210.460415
1210.460585
1210.461183
1210.463266
1210.468318
1210.460704
1210.460692
1210.460686
1210.460695
1210.460689
1210.460681
1210.460694
1210.460706
1210.460719
1210.460709
1210.460717
1210.460774
1210.46096
1210.46146
1210.46252
1210.459426
1210.459409
1210.459411
1210.459369
1210.459372
1210.459375
1210.459369
1210.459375
1210.459384
1210.459388
1210.459406
1210.45944
1210.459505
1210.459688
1210.460006
1210.460425
1210.460435
1210.460448
1210.460452
1210.460478
1210.460475
1210.460469
1210.460458
1210.46045
1210.460484
1210.460514
1210.46056
1210.460622
1210.460755
1210.459786
1210.459794
1210.459781
1210.459764
1210.459763
1210.459762
1210.459741
1210.459741
1210.459759
1210.459767
1210.459778
1210.459816
1210.459937
1210.460242
1210.460175
1210.460169
1210.460163
1210.460174
1210.460161
1210.460177
1210.460197
1210.460217
1210.460233
1210.460249
1210.460294
1210.460427
1210.460791
1210.461914
1210.459531
1210.459555
1210.459571
1210.459551
1210.459546
1210.459535
1210.459545
1210.459521
1210.459517
1210.459537
1210.459613
1210.459877
1210.460899
1210.464434
1210.460471
1210.460463
1210.46046
1210.460445
1210.460427
1210.460428
1210.460436
1210.460434
1210.460447
1210.46044
1210.460514
1210.460949
1210.462935
1210.471646
1210.459197
1210.459219
1210.4592
1210.459204
1210.45919
1210.459203
1210.459215
1210.459228
1210.459224
1210.459258
1210.459277
1210.45954
1210.460547
1210.464092
1210.459488
1210.459485
1210.459488
1210.459494
1210.459506
1210.459517
1210.459506
1210.459508
1210.459528
1210.4595
1210.459528
1210.459654
1210.460014
1210.461127
1210.463564
1210.46067
1210.460691
1210.460671
1210.460688
1210.460673
1210.460675
1210.460679
1210.46066
1210.460658
1210.460698
1210.460714
1210.460745
1210.4609
1210.461232
1210.461924
1210.459915
1210.459923
1210.459923
1210.459912
1210.459914
1210.459907
1210.459894
1210.459921
1210.459929
1210.45993
1210.459938
1210.459957
1210.460003
1210.460085
1210.460316
1210.459303
1210.459304
1210.459319
1210.45931
1210.459311
1210.459321
1210.459319
1210.45933
1210.459341
1210.459344
1210.459346
1210.459352
1210.45938
1210.459437
1210.459014
1210.458995
1210.459006
1210.459021
1210.459044
1210.459051
1210.459047
1210.459059
1210.459044
1210.459024
1210.459039
1210.459065
1210.459118
1210.4593
1210.459793
1210.459796
1210.45981
1210.459834
1210.459838
1210.45982
1210.459818
1210.459807
1210.459793
1210.459803
1210.4598
1210.459851
1210.46005
1210.46049
1210.460072
1210.460076
1210.460086
1210.460102
1210.460087
1210.460102
1210.460088
1210.460099
1210.460118
1210.460139
1210.460184
1210.460305
1210.460666
1210.461774
1210.460183
1210.460163
1210.460166
1210.460167
1210.460181
1210.46016
1210.460164
1210.46013
1210.460126
1210.46015
1210.460188
1210.460343
1210.460958
1210.463002
1210.459683
1210.459702
1210.459721
1210.459719
1210.459725
1210.459735
1210.459736
1210.459739
1210.459733
1210.459758
1210.459803
1210.459914
1210.460298
1210.461387
1210.459599
1210.459609
1210.459608
1210.4596
1210.459572
1210.459563
1210.459569
1210.459543
1210.459525
1210.459533
1210.459534
1210.459578
1210.459743
1210.460174
1210.45995
1210.459944
1210.45991
1210.459912
1210.459895
1210.459897
1210.459897
1210.459905
1210.459908
1210.459903
1210.459922
1210.459935
1210.459984
1210.460133
1210.460454
1210.459706
1210.459701
1210.459729
1210.459733
1210.459727
1210.459717
1210.459731
1210.459712
1210.459712
1210.459729
1210.459753
1210.459778
1210.459796
1210.459865
1210.460004
1210.459733
1210.459732
1210.459742
1210.459733
1210.459719
1210.459719
1210.45972
1210.459713
1210.459702
1210.459726
1210.459694
1210.459695
1210.459711
1210.45975
1210.459506
1210.459506
1210.459507
1210.459514
1210.459515
1210.459532
1210.459538
1210.459522
1210.459549
1210.459538
1210.45955
1210.459568
1210.459593
1210.459653
1210.459339
1210.45933
1210.45935
1210.459338
1210.459343
1210.459334
1210.45932
1210.459291
1210.459275
1210.459287
1210.459328
1210.459372
1210.459419
1210.459602
1210.4597
1210.459705
1210.459709
1210.459717
1210.459724
1210.459704
1210.459669
1210.459671
1210.45968
1210.459668
1210.459651
1210.459686
1210.459828
1210.460158
1210.460193
1210.460211
1210.460187
1210.460182
1210.460201
1210.46019
1210.4602
1210.460202
1210.460213
1210.460195
1210.460208
1210.460242
1210.460421
1210.460911
1210.460188
1210.460151
1210.460156
1210.460163
1210.460181
1210.460173
1210.460185
1210.460187
1210.460178
1210.460185
1210.46021
1210.46026
1210.460382
1210.460709
1210.458422
1210.45845
1210.458454
1210.458456
1210.458452
1210.45847
1210.458483
1210.458487
1210.458465
1210.458492
1210.458485
1210.458533
1210.458579
1210.45874
1210.458217
1210.458214
1210.45823
1210.45822
1210.458237
1210.458244
1210.458237
1210.45825
1210.458241
1210.458255
1210.458251
1210.458269
1210.458282
1210.458343
1210.459289
1210.4593
1210.459291
1210.459305
1210.459318
1210.459311
1210.459311
1210.459324
1210.459312
1210.459308
1210.459283
1210.459293
1210.459305
1210.459334
1210.459431
1210.459018
1210.459011
1210.459009
1210.459003
1210.458997
1210.458994
1210.459009
1210.459007
1210.459007
1210.458999
1210.458989
1210.459004
1210.459028
1210.459054
1210.460453
1210.460438
1210.460439
1210.46044
1210.460429
1210.460418
1210.460425
1210.460444
1210.460473
1210.46048
1210.460499
1210.460522
1210.460547
1210.460592
1210.459793
1210.459806
1210.459795
1210.459808
1210.459825
1210.459821
1210.459832
1210.459843
1210.459831
1210.459831
1210.459829
1210.459848
1210.459865
1210.459947
1210.459937
1210.459934
1210.459918
1210.459928
1210.45995
1210.45994
1210.459954
1210.459939
1210.459946
1210.459943
1210.459961
1210.459963
1210.460005
1210.460139
1210.458921
1210.458926
1210.458931
1210.458931
1210.458914
1210.458926
1210.45893
1210.458925
1210.458898
1210.458916
1210.458908
1210.458935
1210.45899
1210.45914
1210.459463
1210.459467
1210.459477
1210.459456
1210.45946
1210.459455
1210.459467
1210.459443
1210.459436
1210.459446
1210.459444
1210.45947
1210.459544
1210.459671
1210.459575
1210.459574
1210.459564
1210.459577
1210.459585
1210.459607
1210.45959
1210.459606
1210.459595
1210.459613
1210.459604
1210.459581
1210.4596
1210.459673
1210.459959
1210.459976
1210.459952
1210.459927
1210.45994
1210.459949
1210.459924
1210.459935
1210.459929
1210.459907
1210.459921
1210.459944
1210.459955
1210.459965
1210.4592
1210.4592
1210.459188
1210.459201
1210.459197
1210.459198
1210.459213
1210.459217
1210.459201
1210.459202
1210.459202
1210.459208
1210.459216
1210.459233
)
;

boundaryField
{
    top
    {
        type            calculated;
        value           nonuniform List<scalar> 
134
(
1210.460065
1210.459931
1210.459671
1210.459267
1210.459426
1210.459915
1210.459706
1210.459289
1210.4592
1210.460066
1210.459927
1210.459668
1210.459253
1210.459409
1210.459923
1210.459701
1210.4593
1210.4592
1210.460057
1210.459928
1210.459666
1210.459276
1210.459411
1210.459923
1210.459729
1210.459291
1210.459188
1210.460044
1210.459912
1210.459661
1210.459266
1210.459369
1210.459912
1210.459733
1210.459305
1210.459201
1210.460036
1210.459906
1210.45966
1210.459271
1210.459372
1210.459914
1210.459727
1210.459318
1210.459197
1210.460043
1210.459896
1210.459664
1210.459272
1210.459375
1210.459907
1210.459717
1210.459311
1210.459198
1210.460035
1210.459876
1210.459653
1210.45926
1210.459369
1210.459894
1210.459731
1210.459311
1210.459213
1210.460019
1210.459894
1210.459651
1210.459236
1210.459375
1210.459921
1210.459712
1210.459324
1210.459217
1210.460038
1210.4599
1210.45964
1210.459244
1210.459384
1210.459929
1210.459712
1210.459312
1210.459201
1210.460032
1210.459905
1210.459663
1210.459251
1210.459388
1210.45993
1210.459729
1210.459308
1210.459202
1210.460067
1210.459859
1210.459649
1210.459272
1210.459406
1210.459938
1210.459753
1210.459283
1210.459202
1210.46007
1210.459871
1210.459655
1210.4593
1210.45944
1210.459957
1210.459778
1210.459293
1210.459208
1210.460083
1210.459894
1210.459681
1210.459347
1210.459505
1210.460003
1210.459796
1210.459305
1210.459216
1210.460101
1210.459932
1210.459763
1210.459451
1210.459688
1210.460085
1210.459865
1210.459334
1210.459233
1210.460141
1210.459989
1210.459899
1210.459705
1210.460006
1210.460316
1210.460004
1210.459431
)
;
    }
    bottom
    {
        type            calculated;
        value           nonuniform List<scalar> 
127
(
1210.459943
1210.460122
1210.460126
1210.459481
1210.45983
1210.460425
1210.459303
1210.459733
1210.459018
1210.459946
1210.460114
1210.460133
1210.459484
1210.459839
1210.460435
1210.459304
1210.459732
1210.459011
1210.459942
1210.460113
1210.460138
1210.459473
1210.459837
1210.460448
1210.459319
1210.459742
1210.459009
1210.459936
1210.460148
1210.460149
1210.459473
1210.459833
1210.460452
1210.45931
1210.459733
1210.459003
1210.459938
1210.460122
1210.460153
1210.459463
1210.459838
1210.460478
1210.459311
1210.459719
1210.458997
1210.459944
1210.460102
1210.460132
1210.459459
1210.459839
1210.460475
1210.459321
1210.459719
1210.458994
1210.459954
1210.46012
1210.460125
1210.459447
1210.459841
1210.460469
1210.459319
1210.45972
1210.459009
1210.459947
1210.460125
1210.46011
1210.459463
1210.459841
1210.460458
1210.45933
1210.459713
1210.459007
1210.459943
1210.460118
1210.460088
1210.459459
1210.459846
1210.46045
1210.459341
1210.459702
1210.459007
1210.459921
1210.460127
1210.460086
1210.459472
1210.459858
1210.460484
1210.459344
1210.459726
1210.458999
1210.459922
1210.460146
1210.46011
1210.459468
1210.459845
1210.460514
1210.459346
1210.459694
1210.458989
1210.459946
1210.46015
1210.460134
1210.459494
1210.45986
1210.46056
1210.459352
1210.459695
1210.459004
1210.459952
1210.460196
1210.460149
1210.459554
1210.459919
1210.460622
1210.45938
1210.459711
1210.459028
1210.459983
1210.460222
1210.460208
1210.459696
1210.460073
1210.460755
1210.459437
1210.45975
1210.459054
1210.460018
)
;
    }
    side-walls
    {
        type            calculated;
        value           nonuniform List<scalar> 
261
(
1210.459943
1210.460893
1210.46017
1210.459113
1210.459147
1210.459944
1210.459909
1210.459405
1210.460065
1210.459946
1210.460896
1210.460177
1210.459092
1210.459146
1210.459939
1210.459918
1210.459399
1210.460066
1210.459942
1210.460894
1210.460186
1210.459104
1210.459162
1210.459939
1210.459942
1210.459413
1210.460057
1210.459936
1210.460898
1210.460188
1210.459106
1210.459141
1210.459942
1210.459954
1210.459419
1210.460044
1210.459938
1210.460906
1210.460185
1210.459102
1210.459154
1210.459938
1210.459932
1210.459454
1210.460036
1210.459944
1210.460894
1210.460215
1210.459105
1210.459159
1210.459945
1210.459945
1210.459456
1210.460043
1210.459954
1210.460898
1210.460226
1210.459107
1210.459148
1210.459956
1210.459941
1210.459447
1210.460035
1210.459947
1210.460885
1210.46022
1210.459111
1210.459138
1210.459978
1210.459943
1210.459443
1210.460019
1210.459943
1210.460895
1210.460222
1210.459121
1210.459138
1210.459946
1210.459969
1210.459437
1210.460038
1210.459921
1210.460911
1210.460203
1210.459136
1210.459141
1210.459957
1210.459945
1210.459418
1210.460032
1210.459922
1210.460914
1210.460223
1210.459135
1210.459148
1210.459958
1210.459965
1210.459421
1210.460067
1210.459946
1210.4609
1210.460258
1210.459153
1210.459184
1210.459947
1210.459978
1210.459401
1210.46007
1210.459952
1210.460936
1210.460286
1210.459201
1210.459263
1210.460005
1210.460014
1210.45941
1210.460083
1210.459983
1210.460969
1210.460366
1210.459313
1210.459446
1210.460118
1210.460078
1210.45945
1210.460101
1210.460018
1210.461036
1210.460508
1210.459566
1210.459757
1210.460368
1210.460192
1210.459514
1210.460141
1210.459018
1210.460453
1210.459793
1210.459937
1210.458921
1210.459463
1210.459575
1210.459959
1210.4592
1210.459011
1210.460438
1210.459806
1210.459934
1210.458926
1210.459467
1210.459574
1210.459976
1210.4592
1210.459009
1210.460439
1210.459795
1210.459918
1210.458931
1210.459477
1210.459564
1210.459952
1210.459188
1210.459003
1210.46044
1210.459808
1210.459928
1210.458931
1210.459456
1210.459577
1210.459927
1210.459201
1210.458997
1210.460429
1210.459825
1210.45995
1210.458914
1210.45946
1210.459585
1210.45994
1210.459197
1210.458994
1210.460418
1210.459821
1210.45994
1210.458926
1210.459455
1210.459607
1210.459949
1210.459198
1210.459009
1210.460425
1210.459832
1210.459954
1210.45893
1210.459467
1210.45959
1210.459924
1210.459213
1210.459007
1210.460444
1210.459843
1210.459939
1210.458925
1210.459443
1210.459606
1210.459935
1210.459217
1210.459007
1210.460473
1210.459831
1210.459946
1210.458898
1210.459436
1210.459595
1210.459929
1210.459201
1210.458999
1210.46048
1210.459831
1210.459943
1210.458916
1210.459446
1210.459613
1210.459907
1210.459202
1210.458989
1210.460499
1210.459829
1210.459961
1210.458908
1210.459444
1210.459604
1210.459921
1210.459202
1210.459004
1210.460522
1210.459848
1210.459963
1210.458935
1210.45947
1210.459581
1210.459944
1210.459208
1210.459028
1210.460547
1210.459865
1210.460005
1210.45899
1210.459544
1210.4596
1210.459955
1210.459216
1210.459054
1210.460592
1210.459947
1210.460139
1210.45914
1210.459671
1210.459673
1210.459965
1210.459233
)
;
    }
    inlet
    {
        type            calculated;
        value           nonuniform List<scalar> 
81
(
1210.459943
1210.460893
1210.46017
1210.459113
1210.459147
1210.459944
1210.459909
1210.459405
1210.460065
1210.460122
1210.45858
1210.458379
1210.460546
1210.461051
1210.459696
1210.4592
1210.460274
1210.459931
1210.460126
1210.461057
1210.460249
1210.460135
1210.460197
1210.459689
1210.458956
1210.45895
1210.459671
1210.459481
1210.459146
1210.459578
1210.460536
1210.458136
1210.459597
1210.459348
1210.460331
1210.459267
1210.45983
1210.460141
1210.460402
1210.458717
1210.460938
1210.459717
1210.460398
1210.460704
1210.459426
1210.460425
1210.459786
1210.460175
1210.459531
1210.460471
1210.459197
1210.459488
1210.46067
1210.459915
1210.459303
1210.459014
1210.459793
1210.460072
1210.460183
1210.459683
1210.459599
1210.45995
1210.459706
1210.459733
1210.459506
1210.459339
1210.4597
1210.460193
1210.460188
1210.458422
1210.458217
1210.459289
1210.459018
1210.460453
1210.459793
1210.459937
1210.458921
1210.459463
1210.459575
1210.459959
1210.4592
)
;
    }
    outlet
    {
        type            calculated;
        value           nonuniform 0();
    }
    procBoundary0to1
    {
        type            processor;
        value           nonuniform List<scalar> 
97
(
1210.460111
1210.460291
1210.461167
1210.460714
1210.459921
1210.460262
1210.460744
1210.460427
1210.459624
1210.460204
1210.460291
1210.460291
1210.459015
1210.46169
1210.459457
1210.462622
1210.464188
1210.461894
1210.46033
1210.46075
1210.460097
1210.460381
1210.46169
1210.46169
1210.463066
1210.463603
1210.466834
1210.471874
1210.466305
1210.461795
1210.460019
1210.460124
1210.459909
1210.460355
1210.463603
1210.463603
1210.480602
1210.499992
1210.504217
1210.479641
1210.466018
1210.462522
1210.460069
1210.460378
1210.461958
1210.468361
1210.499992
1210.499992
1210.188449
1210.501695
1210.505692
1210.473093
1210.472132
1210.463814
1210.460477
1210.460996
1210.460948
1210.464333
1210.473426
1210.501695
1210.473093
1210.473093
1210.466201
1210.461111
1210.462834
1210.460704
1210.459552
1210.459598
1210.461387
1210.46417
1210.468107
1210.463815
1210.461111
1210.461111
1210.460948
1210.458493
1210.460213
1210.45985
1210.45979
1210.459937
1210.460826
1210.462008
1210.461382
1210.459056
1210.458493
1210.458493
1210.459561
1210.459276
1210.459101
1210.460649
1210.46008
1210.460377
1210.459462
1210.459898
1210.459817
1210.460069
1210.459276
)
;
    }
}


// ************************************************************************* //
