/*--------------------------------*- C++ -*----------------------------------*\
| =========                 |                                                 |
| \\      /  F ield         | OpenFOAM: The Open Source CFD Toolbox           |
|  \\    /   O peration     | Version:  4.x                                   |
|   \\  /    A nd           | Web:      www.OpenFOAM.org                      |
|    \\/     M anipulation  |                                                 |
\*---------------------------------------------------------------------------*/
FoamFile
{
    version     2.0;
    format      ascii;
    class       volScalarField;
    location    "10000";
    object      N2;
}
// * * * * * * * * * * * * * * * * * * * * * * * * * * * * * * * * * * * * * //

dimensions      [0 0 0 0 0 0 0];

internalField   nonuniform List<scalar> 
1175
(
0.5999999993
0.5999999993
0.5999999993
0.5999999993
0.5999999993
0.5999999993
0.5999999993
0.5999999991
0.5999999985
0.5999999968
0.5999999918
0.5999999785
0.5999999462
0.5999998747
0.599999734
0.5999999993
0.5999999993
0.5999999993
0.5999999993
0.5999999993
0.5999999993
0.5999999992
0.599999999
0.5999999981
0.5999999955
0.5999999876
0.599999966
0.5999999111
0.5999997873
0.5999995434
0.5999999993
0.5999999993
0.5999999993
0.5999999993
0.5999999993
0.5999999993
0.5999999992
0.5999999988
0.5999999975
0.5999999931
0.5999999795
0.59999994
0.599999836
0.5999995941
0.5999991166
0.5999999993
0.5999999993
0.5999999993
0.5999999993
0.5999999993
0.5999999993
0.5999999991
0.5999999986
0.5999999967
0.5999999902
0.5999999693
0.5999999058
0.5999997311
0.5999993109
0.5999984754
0.5999999993
0.5999999993
0.5999999993
0.5999999993
0.5999999993
0.5999999993
0.5999999991
0.5999999985
0.5999999963
0.5999999888
0.5999999636
0.5999998851
0.5999996621
0.5999991086
0.5999979941
0.5999999993
0.5999999993
0.5999999993
0.5999999993
0.5999999993
0.5999999993
0.5999999991
0.5999999986
0.5999999967
0.5999999902
0.5999999693
0.5999999058
0.5999997311
0.5999993109
0.5999984754
0.5999999993
0.5999999993
0.5999999993
0.5999999993
0.5999999993
0.5999999993
0.5999999992
0.5999999988
0.5999999975
0.5999999931
0.5999999795
0.59999994
0.599999836
0.5999995941
0.5999991167
0.5999999993
0.5999999993
0.5999999993
0.5999999993
0.5999999993
0.5999999993
0.5999999992
0.599999999
0.5999999981
0.5999999955
0.5999999876
0.599999966
0.5999999111
0.5999997873
0.5999995435
0.5999999993
0.5999999993
0.5999999993
0.5999999993
0.5999999993
0.5999999993
0.5999999993
0.5999999991
0.5999999985
0.5999999968
0.5999999918
0.5999999785
0.5999999462
0.5999998747
0.599999734
0.5999999993
0.5999999993
0.5999999993
0.5999999993
0.5999999993
0.5999999993
0.5999999992
0.599999999
0.5999999981
0.5999999955
0.5999999876
0.599999966
0.5999999111
0.5999997872
0.5999999993
0.5999999993
0.5999999993
0.5999999993
0.5999999993
0.5999999993
0.5999999992
0.5999999988
0.5999999975
0.5999999932
0.5999999797
0.5999999402
0.5999998354
0.59999959
0.5999991052
0.5999999993
0.5999999993
0.5999999993
0.5999999993
0.5999999993
0.5999999993
0.5999999991
0.5999999985
0.5999999963
0.5999999885
0.5999999626
0.5999998819
0.5999996537
0.5999990936
0.5999979753
0.5999999993
0.5999999993
0.5999999993
0.5999999993
0.5999999993
0.5999999993
0.599999999
0.5999999982
0.5999999948
0.5999999825
0.599999939
0.5999997941
0.5999993557
0.5999982109
0.5999958688
0.5999999993
0.5999999993
0.5999999993
0.5999999993
0.5999999993
0.5999999993
0.599999999
0.599999998
0.5999999941
0.599999979
0.5999999238
0.5999997307
0.5999991101
0.5999973777
0.5999936697
0.5999999993
0.5999999993
0.5999999993
0.5999999993
0.5999999993
0.5999999993
0.599999999
0.5999999982
0.5999999948
0.5999999825
0.599999939
0.5999997941
0.5999993557
0.599998211
0.599995869
0.5999999993
0.5999999993
0.5999999993
0.5999999993
0.5999999993
0.5999999993
0.5999999991
0.5999999985
0.5999999963
0.5999999885
0.5999999626
0.5999998819
0.5999996538
0.5999990937
0.5999979756
0.5999999993
0.5999999993
0.5999999993
0.5999999993
0.5999999993
0.5999999993
0.5999999992
0.5999999988
0.5999999975
0.5999999932
0.5999999797
0.5999999403
0.5999998354
0.5999995901
0.5999991055
0.5999999993
0.5999999993
0.5999999993
0.5999999993
0.5999999993
0.5999999993
0.5999999992
0.599999999
0.5999999981
0.5999999955
0.5999999876
0.599999966
0.5999999111
0.5999997873
0.5999995435
0.5999999993
0.5999999993
0.5999999993
0.5999999993
0.5999999993
0.5999999993
0.5999999992
0.5999999988
0.5999999975
0.5999999931
0.5999999794
0.59999994
0.5999998359
0.599999594
0.5999999993
0.5999999993
0.5999999993
0.5999999993
0.5999999993
0.5999999993
0.5999999991
0.5999999985
0.5999999963
0.5999999885
0.5999999626
0.5999998819
0.5999996537
0.5999990934
0.5999999993
0.5999999993
0.5999999993
0.5999999993
0.5999999993
0.5999999993
0.599999999
0.599999998
0.5999999939
0.5999999786
0.5999999233
0.5999997357
0.5999991572
0.599997626
0.5999944801
0.5999999993
0.5999999993
0.5999999993
0.5999999993
0.5999999993
0.5999999992
0.5999999988
0.5999999973
0.5999999908
0.5999999645
0.5999998618
0.5999994802
0.599998179
0.5999943611
0.599985992
0.5999999993
0.5999999993
0.5999999993
0.5999999993
0.5999999993
0.5999999992
0.5999999988
0.5999999969
0.5999999889
0.5999999552
0.5999998154
0.5999992542
0.5999971369
0.5999900829
0.599972544
0.5999999993
0.5999999993
0.5999999993
0.5999999993
0.5999999993
0.5999999992
0.5999999988
0.5999999973
0.5999999908
0.5999999645
0.5999998618
0.5999994802
0.5999981791
0.5999943615
0.5999859934
0.5999999993
0.5999999993
0.5999999993
0.5999999993
0.5999999993
0.5999999993
0.599999999
0.599999998
0.5999999939
0.5999999786
0.5999999233
0.5999997357
0.5999991573
0.5999976265
0.5999944816
0.5999999993
0.5999999993
0.5999999993
0.5999999993
0.5999999993
0.5999999993
0.5999999991
0.5999999985
0.5999999963
0.5999999885
0.5999999626
0.5999998819
0.5999996538
0.5999990937
0.5999979756
0.5999999993
0.5999999993
0.5999999993
0.5999999993
0.5999999993
0.5999999993
0.5999999992
0.5999999988
0.5999999975
0.5999999931
0.5999999795
0.59999994
0.599999836
0.5999995941
0.5999991167
0.5999999993
0.5999999993
0.5999999993
0.5999999993
0.5999999993
0.5999999993
0.5999999991
0.5999999986
0.5999999967
0.5999999902
0.5999999693
0.5999999057
0.599999731
0.5999993106
0.5999999993
0.5999999993
0.5999999993
0.5999999993
0.5999999993
0.5999999993
0.599999999
0.5999999982
0.5999999948
0.5999999825
0.599999939
0.5999997941
0.5999993555
0.5999982103
0.5999999993
0.5999999993
0.5999999993
0.5999999993
0.5999999993
0.5999999992
0.5999999988
0.5999999973
0.5999999908
0.5999999645
0.5999998618
0.5999994801
0.5999981787
0.5999943596
0.5999999993
0.5999999993
0.5999999993
0.5999999993
0.5999999993
0.5999999992
0.5999999986
0.5999999961
0.599999985
0.5999999363
0.599999725
0.5999988366
0.5999953297
0.5999831615
0.5999520792
0.5999999993
0.5999999993
0.5999999993
0.5999999993
0.5999999993
0.5999999992
0.5999999985
0.5999999954
0.5999999813
0.5999999151
0.5999996019
0.5999981196
0.599991224
0.5999611839
0.5998570351
0.5999999993
0.5999999993
0.5999999993
0.5999999993
0.5999999993
0.5999999992
0.5999999986
0.5999999961
0.599999985
0.5999999363
0.599999725
0.5999988367
0.59999533
0.5999831637
0.599952089
0.5999999993
0.5999999993
0.5999999993
0.5999999993
0.5999999993
0.5999999992
0.5999999988
0.5999999973
0.5999999908
0.5999999645
0.5999998618
0.5999994802
0.599998179
0.5999943613
0.5999859933
0.5999999993
0.5999999993
0.5999999993
0.5999999993
0.5999999993
0.5999999993
0.599999999
0.5999999982
0.5999999948
0.5999999825
0.599999939
0.5999997941
0.5999993556
0.5999982109
0.599995869
0.5999999993
0.5999999993
0.5999999993
0.5999999993
0.5999999993
0.5999999993
0.5999999991
0.5999999986
0.5999999967
0.5999999902
0.5999999693
0.5999999058
0.5999997311
0.5999993109
0.5999984754
0.5999999993
0.5999999993
0.5999999993
0.5999999993
0.5999999993
0.5999999993
0.5999999991
0.5999999985
0.5999999963
0.5999999888
0.5999999636
0.5999998851
0.599999662
0.5999991082
0.5999999993
0.5999999993
0.5999999993
0.5999999993
0.5999999993
0.5999999993
0.599999999
0.599999998
0.5999999941
0.599999979
0.5999999238
0.5999997306
0.5999991098
0.5999973766
0.5999999993
0.5999999993
0.5999999993
0.5999999993
0.5999999993
0.5999999992
0.5999999988
0.5999999969
0.5999999889
0.5999999552
0.5999998154
0.599999254
0.5999971361
0.5999900791
0.5999999993
0.5999999993
0.5999999993
0.5999999993
0.5999999993
0.5999999992
0.5999999985
0.5999999954
0.5999999813
0.599999915
0.5999996018
0.5999981193
0.5999912223
0.5999611722
0.5999999993
0.5999999993
0.5999999993
0.5999999993
0.5999999993
0.5999999991
0.5999999983
0.5999999945
0.5999999759
0.5999998809
0.599999374
0.5999965096
0.5999792087
0.5998667697
0.5990769327
0.5999999993
0.5999999993
0.5999999993
0.5999999993
0.5999999993
0.5999999992
0.5999999985
0.5999999954
0.5999999813
0.599999915
0.5999996019
0.5999981195
0.5999912233
0.5999611815
0.5998570324
0.5999999993
0.5999999993
0.5999999993
0.5999999993
0.5999999993
0.5999999992
0.5999999988
0.5999999969
0.5999999889
0.5999999552
0.5999998154
0.5999992541
0.5999971366
0.5999900822
0.5999725433
0.5999999993
0.5999999993
0.5999999993
0.5999999993
0.5999999993
0.5999999993
0.599999999
0.599999998
0.5999999941
0.599999979
0.5999999238
0.5999997307
0.59999911
0.5999973775
0.5999936695
0.5999999993
0.5999999993
0.5999999993
0.5999999993
0.5999999993
0.5999999993
0.5999999991
0.5999999985
0.5999999963
0.5999999888
0.5999999636
0.5999998851
0.599999662
0.5999991085
0.599997994
0.5999999993
0.5999999993
0.5999999993
0.5999999993
0.5999999993
0.5999999993
0.5999999991
0.5999999986
0.5999999967
0.5999999902
0.5999999693
0.5999999057
0.599999731
0.5999993106
0.5999999993
0.5999999993
0.5999999993
0.5999999993
0.5999999993
0.5999999993
0.599999999
0.5999999982
0.5999999948
0.5999999825
0.599999939
0.5999997941
0.5999993554
0.5999982102
0.5999999993
0.5999999993
0.5999999993
0.5999999993
0.5999999993
0.5999999992
0.5999999988
0.5999999973
0.5999999908
0.5999999645
0.5999998618
0.5999994801
0.5999981785
0.5999943592
0.5999999993
0.5999999993
0.5999999993
0.5999999993
0.5999999993
0.5999999992
0.5999999986
0.5999999961
0.599999985
0.5999999363
0.599999725
0.5999988364
0.5999953287
0.5999831575
0.5999999993
0.5999999993
0.5999999993
0.5999999993
0.5999999993
0.5999999992
0.5999999985
0.5999999954
0.5999999813
0.599999915
0.5999996018
0.5999981192
0.5999912217
0.5999611701
0.5999999993
0.5999999993
0.5999999993
0.5999999993
0.5999999993
0.5999999992
0.5999999986
0.5999999961
0.599999985
0.5999999363
0.599999725
0.5999988365
0.599995329
0.5999831587
0.5999999993
0.5999999993
0.5999999993
0.5999999993
0.5999999993
0.5999999992
0.5999999988
0.5999999973
0.5999999908
0.5999999645
0.5999998618
0.5999994801
0.5999981787
0.5999943603
0.5999859898
0.5999999993
0.5999999993
0.5999999993
0.5999999993
0.5999999993
0.5999999993
0.599999999
0.5999999982
0.5999999948
0.5999999825
0.599999939
0.5999997941
0.5999993556
0.5999982107
0.5999958684
0.5999999993
0.5999999993
0.5999999993
0.5999999993
0.5999999993
0.5999999993
0.5999999991
0.5999999986
0.5999999967
0.5999999902
0.5999999693
0.5999999058
0.5999997311
0.5999993108
0.5999984753
0.5999999993
0.5999999993
0.5999999993
0.5999999993
0.5999999993
0.5999999993
0.5999999992
0.5999999988
0.5999999975
0.5999999931
0.5999999794
0.59999994
0.5999998359
0.5999995939
0.5999999993
0.5999999993
0.5999999993
0.5999999993
0.5999999993
0.5999999993
0.5999999991
0.5999999985
0.5999999963
0.5999999885
0.5999999626
0.5999998819
0.5999996536
0.5999990933
0.5999999993
0.5999999993
0.5999999993
0.5999999993
0.5999999993
0.5999999993
0.599999999
0.599999998
0.5999999939
0.5999999786
0.5999999233
0.5999997356
0.599999157
0.5999976255
0.5999999993
0.5999999993
0.5999999993
0.5999999993
0.5999999993
0.5999999992
0.5999999988
0.5999999973
0.5999999908
0.5999999645
0.5999998618
0.59999948
0.5999981784
0.5999943591
0.5999999993
0.5999999993
0.5999999993
0.5999999993
0.5999999993
0.5999999992
0.5999999988
0.5999999969
0.5999999889
0.5999999552
0.5999998154
0.599999254
0.5999971359
0.5999900788
0.5999999993
0.5999999993
0.5999999993
0.5999999993
0.5999999993
0.5999999992
0.5999999988
0.5999999973
0.5999999908
0.5999999645
0.5999998618
0.5999994801
0.5999981785
0.5999943594
0.5999999993
0.5999999993
0.5999999993
0.5999999993
0.5999999993
0.5999999993
0.599999999
0.599999998
0.5999999939
0.5999999786
0.5999999233
0.5999997356
0.5999991571
0.5999976256
0.5999999993
0.5999999993
0.5999999993
0.5999999993
0.5999999993
0.5999999993
0.5999999991
0.5999999985
0.5999999963
0.5999999885
0.5999999626
0.5999998819
0.5999996537
0.5999990934
0.599997975
0.5999999993
0.5999999993
0.5999999993
0.5999999993
0.5999999993
0.5999999993
0.5999999992
0.5999999988
0.5999999975
0.5999999931
0.5999999794
0.59999994
0.5999998359
0.599999594
0.5999991166
0.5999999993
0.5999999993
0.5999999993
0.5999999993
0.5999999993
0.5999999993
0.5999999992
0.599999999
0.5999999981
0.5999999955
0.5999999876
0.5999999659
0.5999999111
0.5999997872
0.5999999993
0.5999999993
0.5999999993
0.5999999993
0.5999999993
0.5999999993
0.5999999992
0.5999999988
0.5999999975
0.5999999932
0.5999999797
0.5999999402
0.5999998353
0.5999995899
0.5999999993
0.5999999993
0.5999999993
0.5999999993
0.5999999993
0.5999999993
0.5999999991
0.5999999985
0.5999999963
0.5999999885
0.5999999626
0.5999998819
0.5999996536
0.5999990933
0.5999999993
0.5999999993
0.5999999993
0.5999999993
0.5999999993
0.5999999993
0.599999999
0.5999999982
0.5999999948
0.5999999825
0.599999939
0.599999794
0.5999993554
0.5999982102
0.5999999993
0.5999999993
0.5999999993
0.5999999993
0.5999999993
0.5999999993
0.599999999
0.599999998
0.5999999941
0.599999979
0.5999999237
0.5999997306
0.5999991098
0.5999973765
0.5999999993
0.5999999993
0.5999999993
0.5999999993
0.5999999993
0.5999999993
0.599999999
0.5999999982
0.5999999948
0.5999999825
0.599999939
0.5999997941
0.5999993554
0.5999982103
0.5999999993
0.5999999993
0.5999999993
0.5999999993
0.5999999993
0.5999999993
0.5999999991
0.5999999985
0.5999999963
0.5999999885
0.5999999626
0.5999998819
0.5999996536
0.5999990933
0.5999999993
0.5999999993
0.5999999993
0.5999999993
0.5999999993
0.5999999993
0.5999999992
0.5999999988
0.5999999975
0.5999999932
0.5999999797
0.5999999402
0.5999998354
0.5999995899
0.5999999993
0.5999999993
0.5999999993
0.5999999993
0.5999999993
0.5999999993
0.5999999992
0.599999999
0.5999999981
0.5999999955
0.5999999876
0.599999966
0.5999999111
0.5999997873
0.5999995434
0.5999999993
0.5999999993
0.5999999993
0.5999999993
0.5999999993
0.5999999993
0.5999999993
0.5999999991
0.5999999985
0.5999999967
0.5999999918
0.5999999785
0.5999999462
0.5999998747
0.5999999993
0.5999999993
0.5999999993
0.5999999993
0.5999999993
0.5999999993
0.5999999992
0.599999999
0.5999999981
0.5999999955
0.5999999876
0.5999999659
0.5999999111
0.5999997872
0.5999999993
0.5999999993
0.5999999993
0.5999999993
0.5999999993
0.5999999993
0.5999999992
0.5999999988
0.5999999975
0.5999999931
0.5999999794
0.59999994
0.5999998359
0.5999995939
0.5999999993
0.5999999993
0.5999999993
0.5999999993
0.5999999993
0.5999999993
0.5999999991
0.5999999986
0.5999999967
0.5999999902
0.5999999692
0.5999999057
0.599999731
0.5999993106
0.5999999993
0.5999999993
0.5999999993
0.5999999993
0.5999999993
0.5999999993
0.5999999991
0.5999999985
0.5999999963
0.5999999888
0.5999999635
0.5999998851
0.5999996619
0.5999991082
0.5999999993
0.5999999993
0.5999999993
0.5999999993
0.5999999993
0.5999999993
0.5999999991
0.5999999986
0.5999999967
0.5999999902
0.5999999692
0.5999999057
0.599999731
0.5999993106
0.5999999993
0.5999999993
0.5999999993
0.5999999993
0.5999999993
0.5999999993
0.5999999992
0.5999999988
0.5999999975
0.5999999931
0.5999999794
0.59999994
0.5999998359
0.599999594
0.5999999993
0.5999999993
0.5999999993
0.5999999993
0.5999999993
0.5999999993
0.5999999992
0.599999999
0.5999999981
0.5999999955
0.5999999876
0.5999999659
0.5999999111
0.5999997872
0.5999999993
0.5999999993
0.5999999993
0.5999999993
0.5999999993
0.5999999993
0.5999999993
0.5999999991
0.5999999985
0.5999999968
0.5999999918
0.5999999785
0.5999999462
0.5999998747
)
;

boundaryField
{
    top
    {
        type            zeroGradient;
    }
    bottom
    {
        type            zeroGradient;
    }
    side-walls
    {
        type            zeroGradient;
    }
    inlet
    {
        type            zeroGradient;
    }
    outlet
    {
        type            zeroGradient;
    }
    procBoundary0to1
    {
        type            processor;
        value           nonuniform List<scalar> 
97
(
0.599999489
0.5999995434
0.5999991309
0.5999983396
0.5999971796
0.5999963511
0.5999971797
0.5999983397
0.599999131
0.599999489
0.5999995434
0.5999995434
0.5999983231
0.599997975
0.5999962898
0.5999926744
0.5999892619
0.5999926746
0.59999629
0.5999983232
0.599999131
0.5999991165
0.599997975
0.599997975
0.5999902799
0.5999859892
0.5999769061
0.5999593828
0.5999769072
0.5999902807
0.59999629
0.5999983397
0.5999984752
0.5999958682
0.5999859892
0.5999859892
0.5999310311
0.5998569941
0.5998409642
0.5999310347
0.599976907
0.5999926745
0.5999971796
0.5999979938
0.5999936686
0.599972538
0.5998569941
0.5998569941
0.5994531793
0.5998569944
0.5998409636
0.5999520783
0.5999593822
0.5999892617
0.599996351
0.5999984752
0.5999958684
0.5999859909
0.5999520796
0.5998569944
0.5999520783
0.5999520783
0.5999769061
0.5999944801
0.5999926742
0.5999971795
0.5999991166
0.5999979753
0.5999944807
0.5999859909
0.5999725379
0.5999859909
0.5999944801
0.5999944801
0.5999962898
0.5999991052
0.5999983395
0.5999995434
0.5999991053
0.5999979753
0.5999958683
0.5999936685
0.5999958684
0.5999979752
0.5999991052
0.5999991052
0.5999991309
0.599999734
0.599999734
0.5999995434
0.5999991166
0.5999984752
0.5999979938
0.5999984752
0.5999991166
0.5999995434
0.599999734
)
;
    }
}


// ************************************************************************* //
