/*--------------------------------*- C++ -*----------------------------------*\
| =========                 |                                                 |
| \\      /  F ield         | OpenFOAM: The Open Source CFD Toolbox           |
|  \\    /   O peration     | Version:  4.x                                   |
|   \\  /    A nd           | Web:      www.OpenFOAM.org                      |
|    \\/     M anipulation  |                                                 |
\*---------------------------------------------------------------------------*/
FoamFile
{
    version     2.0;
    format      ascii;
    class       surfaceScalarField;
    location    "10000";
    object      phi;
}
// * * * * * * * * * * * * * * * * * * * * * * * * * * * * * * * * * * * * * //

dimensions      [1 0 -1 0 0 0 0];

internalField   nonuniform List<scalar> 
3175
(
9.475327322e-06
9.732719638e-13
-3.977006632e-13
9.475327579e-06
1.024486526e-12
-8.989718283e-14
9.475329097e-06
1.944797866e-12
1.360469703e-12
9.475328575e-06
8.210462769e-13
2.015178075e-12
9.475330103e-06
1.453237165e-12
2.931888539e-12
9.475331269e-06
1.1310504e-12
-4.493953612e-13
9.47533086e-06
-9.457714193e-13
-2.127656915e-12
9.475334511e-06
-6.973846312e-13
-2.460201115e-12
9.475339688e-06
2.90020688e-14
-2.802560966e-12
9.475345621e-06
-2.417983717e-12
-4.732497363e-12
9.475355539e-06
-2.8768554e-12
-5.290827196e-12
9.475367809e-06
-5.146224635e-12
-8.832568192e-12
9.475388388e-06
-7.424046825e-12
-9.520455676e-12
9.475404483e-06
-8.500608309e-12
-1.017469091e-11
-2.028153116e-11
9.475277476e-06
4.511774287e-13
6.326346675e-14
9.475277851e-06
1.228043491e-12
-8.079093554e-13
9.475278351e-06
8.710510897e-13
-8.574503321e-13
9.475277818e-06
-4.0250757e-13
6.444076194e-13
9.475280722e-06
-7.617220733e-13
1.073275073e-12
9.475278384e-06
-1.310960068e-12
-2.786062742e-12
9.475281162e-06
-1.200653204e-12
-1.442801765e-12
9.475283875e-06
-2.896117474e-12
-3.196995622e-12
9.475286338e-06
-3.983270938e-12
-3.842746368e-12
9.475294394e-06
-6.338590807e-12
-4.503463941e-12
9.475303585e-06
-8.128264963e-12
-5.663872262e-12
9.475315906e-06
-1.217212265e-11
-1.049190383e-11
9.475334849e-06
-1.790669332e-11
-1.25658859e-11
9.475353514e-06
-1.97116898e-11
-1.310222656e-11
-3.661169529e-11
-2.76674928e-11
9.47531661e-06
9.159877946e-13
-2.827171611e-15
9.475315227e-06
-1.716098079e-13
8.730126585e-13
9.475315042e-06
3.797570112e-13
-5.539954608e-13
9.475314358e-06
7.84904222e-13
1.73746055e-12
9.475315539e-06
1.947954615e-12
1.494483239e-12
9.475313665e-06
6.254750442e-13
-4.375774353e-13
9.475315863e-06
1.770135757e-12
1.949125457e-13
9.475317273e-06
-1.760212612e-12
-2.992783478e-12
9.475319081e-06
-3.534331847e-12
-5.055152028e-12
9.475326247e-06
-3.649550208e-12
-7.259917872e-12
9.475332047e-06
-6.818597578e-12
-7.815294834e-12
9.47534337e-06
-1.253829672e-11
-1.567320762e-11
9.475360899e-06
-1.68406113e-11
-2.023774796e-11
9.475385085e-06
-1.987095774e-11
-2.742439458e-11
-4.448410021e-11
-6.612955581e-11
9.475370774e-06
-7.654486551e-13
-3.063778837e-13
9.475372143e-06
-2.36689161e-13
5.853450558e-13
9.475371463e-06
1.854158733e-13
-1.699803714e-14
9.475371676e-06
8.076693409e-13
-1.508269944e-12
9.475369858e-06
-3.719195925e-14
4.139511876e-14
9.475372045e-06
-5.04544914e-13
-2.4526784e-13
9.475370446e-06
-1.928378239e-12
-1.987197247e-12
9.475373313e-06
-8.234845306e-13
-2.111060468e-12
9.475376152e-06
-1.388504692e-12
-2.531008941e-12
9.475379041e-06
-4.604959444e-12
-7.896079225e-12
9.475386678e-06
-6.064149493e-12
-6.605790698e-12
9.475402678e-06
-1.317013675e-11
-1.877004691e-11
9.475419605e-06
-1.865251186e-11
-1.706417543e-11
9.475454312e-06
-2.839942846e-11
-2.84015088e-11
-4.687426281e-11
-9.198059913e-11
9.475368863e-06
-5.281651526e-13
1.025185548e-12
9.475369505e-06
7.938002656e-13
1.073951246e-12
9.475367566e-06
2.356298422e-13
4.741772771e-13
9.475368389e-06
-2.403073353e-13
-6.850771877e-13
9.47536951e-06
2.755454906e-13
4.112485419e-14
9.47536839e-06
1.290862359e-12
-3.732849191e-13
9.475369182e-06
1.527366876e-12
-7.173855388e-14
9.475369714e-06
3.41084765e-12
-2.09030446e-12
9.475369599e-06
3.364804688e-12
-4.705062471e-12
9.475371909e-06
4.282298022e-12
-9.775758503e-12
9.475370786e-06
6.711648089e-12
-1.227791441e-11
9.4753818e-06
1.267089932e-11
-3.760227113e-11
9.475386235e-06
1.798866879e-11
-4.360711432e-11
9.475443972e-06
2.850743571e-11
-1.143147174e-10
4.582630921e-11
-2.595887174e-10
9.475327581e-06
1.335653123e-12
5.515022631e-13
9.475328132e-06
1.23554911e-12
-6.126001547e-13
9.475327138e-06
8.207620283e-13
1.169588748e-13
9.475329285e-06
1.003901538e-12
-4.737617784e-13
9.475328402e-06
1.064015967e-12
-1.419614809e-12
9.475326757e-06
1.424453236e-12
-8.665939671e-13
9.475329128e-06
1.388143782e-12
4.261180007e-13
9.475328304e-06
-2.345791754e-13
-3.009585223e-12
9.475331236e-06
2.17335183e-12
-3.87915669e-12
9.475337621e-06
5.354369548e-12
-6.527868968e-12
9.475345643e-06
7.814026692e-12
-6.972691029e-12
9.475361062e-06
1.38117875e-11
-1.810386378e-11
9.475380256e-06
1.842081901e-11
-1.498209524e-11
9.47541402e-06
2.015354535e-11
-2.65148272e-11
4.760591479e-11
-8.84706787e-11
9.475329334e-06
9.968123236e-13
-8.405361736e-13
9.475327918e-06
-2.738602847e-13
-5.736818125e-13
9.475327143e-06
4.09071046e-13
-1.265273557e-13
9.475328699e-06
4.444040409e-13
-7.350439079e-13
9.475328116e-06
-5.794164771e-13
-1.012062916e-12
9.475326909e-06
-1.0850582e-13
-2.129641343e-12
9.475328491e-06
6.768662406e-13
-1.948951292e-12
9.475332761e-06
3.300038745e-12
-1.467583577e-12
9.475333684e-06
2.099912474e-12
-2.414133951e-12
9.475338841e-06
5.474432055e-12
-4.650439868e-12
9.47534464e-06
7.132124074e-12
-6.809258744e-12
9.475357977e-06
1.233193664e-11
-1.542560221e-11
9.475375593e-06
1.750023478e-11
-1.897289765e-11
9.475405697e-06
1.947683296e-11
-2.622805435e-11
3.817099769e-11
-6.62559088e-11
9.475354559e-06
1.6822045e-13
-1.37035296e-12
9.475355033e-06
1.99191102e-13
7.06332411e-13
9.475354985e-06
-3.10779431e-13
5.774749147e-13
9.475354705e-06
-4.876952549e-14
-2.264247316e-12
9.475354777e-06
-9.474986437e-13
-2.848551463e-12
9.4753544e-06
-1.025745132e-12
-2.111160031e-12
9.475356948e-06
1.084788854e-12
-1.293553549e-12
9.475358072e-06
-5.859058496e-13
-1.921995326e-12
9.475366781e-06
1.529221832e-12
-2.061051821e-12
9.475370665e-06
1.773610002e-12
-3.154849489e-12
9.475381945e-06
4.050128368e-12
-4.958273823e-12
9.475395158e-06
7.230965422e-12
-8.439739779e-12
9.475413685e-06
9.215884257e-12
-1.237658989e-11
9.475435618e-06
9.613532571e-12
-1.262785941e-11
1.703818276e-11
-2.835212052e-11
9.475321375e-06
-6.007476699e-14
9.475320766e-06
-4.97721847e-13
9.475321541e-06
-1.362810143e-12
9.475321613e-06
-1.625759566e-12
9.475324864e-06
4.627068785e-13
9.475326618e-06
2.427880889e-13
9.475323383e-06
-1.666130161e-12
9.475327508e-06
-1.708862509e-12
9.475333775e-06
-2.323396825e-13
9.4753398e-06
-1.989593776e-12
9.475349785e-06
-3.351961025e-12
9.475360168e-06
-5.847332371e-12
9.475381157e-06
-9.289815484e-12
9.475399583e-06
-8.740491984e-12
-1.659781171e-11
9.475319385e-06
1.272696559e-12
1.177428358e-12
9.475319669e-06
1.384500435e-12
3.84653116e-13
9.475318692e-06
-1.626094186e-13
-6.249154381e-13
9.475318997e-06
1.666388272e-13
-9.183138326e-13
9.475318138e-06
4.427903572e-13
-1.367888938e-12
9.475322345e-06
-3.94865527e-13
-1.329163017e-12
9.475322538e-06
3.022155263e-13
-1.775950171e-12
9.475323757e-06
-7.198848616e-13
-3.111676699e-12
9.475327406e-06
-1.699606356e-12
-3.707206488e-12
9.475333114e-06
-4.272882585e-12
-5.80690666e-12
9.475340656e-06
-4.212470437e-12
-8.808751442e-12
9.475356475e-06
-6.809686663e-12
-1.223153753e-11
9.475375551e-06
-1.077493904e-11
-1.82035235e-11
-1.181025655e-11
-1.966002054e-11
9.475398632e-06
3.945529213e-13
-1.393679042e-13
9.475399611e-06
2.375962104e-12
-3.086501261e-13
9.475400076e-06
-4.297239635e-14
7.245696923e-13
9.475397517e-06
-3.897073517e-13
-1.968182319e-12
9.475396576e-06
3.560745014e-13
-2.995342415e-12
9.475400649e-06
1.145913438e-12
-1.96310085e-12
9.47540254e-06
-5.961249749e-13
-2.283101328e-12
9.475405985e-06
-2.505963001e-12
-3.070157048e-12
9.475408891e-06
-3.756467334e-12
-2.952604027e-12
9.475415796e-06
-7.857234711e-12
-6.744491921e-12
9.475422404e-06
-9.562161667e-12
-1.077202037e-11
9.475439129e-06
-1.49288757e-11
-1.885932032e-11
9.475458387e-06
-2.151034152e-11
-2.281260064e-11
9.475485482e-06
-2.345406262e-11
-2.509188986e-11
-5.790526611e-11
9.475410572e-06
8.944810682e-13
-4.4314391e-13
9.475407835e-06
-1.409151724e-12
-2.007050248e-12
9.475411866e-06
4.051493425e-13
1.614033753e-13
9.47541149e-06
-7.834591705e-13
-3.669612113e-13
9.475409431e-06
3.95761033e-13
-1.29550978e-12
9.475409192e-06
4.229908048e-13
-2.656391627e-12
9.475408679e-06
-9.154795173e-13
-1.079365399e-12
9.475409917e-06
-1.288427732e-12
-1.979615529e-12
9.475411976e-06
-2.381286452e-12
-4.622567748e-12
9.475417963e-06
-6.60104687e-12
-1.06924187e-11
9.475423224e-06
-7.4561832e-12
-1.268140548e-11
9.47543546e-06
-1.856786928e-11
-3.148898152e-11
9.475452647e-06
-2.010135189e-11
-3.617716215e-11
9.47549654e-06
-3.104486199e-11
-6.222203985e-11
-8.39730444e-11
-1.507372178e-10
9.4752949e-06
6.595106043e-13
-1.539722883e-12
9.475297178e-06
-3.010299539e-14
-7.848239898e-13
9.475298559e-06
1.380019437e-12
-8.069247977e-13
9.47529929e-06
2.589756112e-13
-3.034333799e-13
9.475296741e-06
-1.132125611e-12
-1.293754652e-12
9.475295718e-06
-3.831966615e-13
-1.302724213e-12
9.475297241e-06
5.062008832e-13
-1.758555383e-12
9.475297826e-06
-7.835741066e-13
-3.926408343e-12
9.475298731e-06
-3.68599599e-12
-5.229881398e-12
9.475307269e-06
-3.856908965e-12
-1.267455697e-11
9.475311314e-06
-8.365863732e-12
-1.215709143e-11
9.47533315e-06
-1.970164036e-11
-3.81909487e-11
9.475350801e-06
-2.696077372e-11
-2.54395787e-11
9.475411535e-06
-5.201972194e-11
-7.228537657e-11
-8.699491598e-11
-2.099423899e-10
9.475266954e-06
-8.249598135e-13
-3.931384516e-13
9.475269258e-06
-4.04099479e-13
1.061206442e-13
9.475268215e-06
2.029592691e-13
-2.194865069e-12
9.475271447e-06
-1.899451569e-13
-7.453366992e-13
9.475270951e-06
-8.755699283e-13
-1.826066549e-13
9.475270432e-06
8.298780853e-13
-2.880080923e-12
9.475270684e-06
1.06300942e-12
-2.435854017e-12
9.475267172e-06
1.557675287e-12
-4.786281477e-12
9.475266962e-06
3.583529173e-12
-5.807265012e-12
9.475264316e-06
6.26126894e-12
-1.970575823e-11
9.475259253e-06
8.277705067e-12
-2.181082045e-11
9.475265201e-06
2.053170666e-11
-8.660051185e-11
9.475252467e-06
2.917740286e-11
-8.478253152e-11
9.475381866e-06
5.345763989e-11
-3.461964499e-10
8.951791952e-11
-7.198729657e-10
9.475339012e-06
-4.946552366e-13
-3.327979562e-13
9.475337996e-06
7.808658184e-13
-1.739399115e-13
9.475338434e-06
6.23732238e-13
-8.749904064e-13
9.475339261e-06
5.980153005e-14
-2.139670376e-12
9.47534023e-06
1.06172025e-12
-2.330248406e-12
9.475339341e-06
-4.759628389e-13
-2.717676379e-12
9.475337776e-06
8.312588824e-14
-3.240181393e-12
9.47533818e-06
1.671444927e-12
-4.437231741e-12
9.475341533e-06
3.189110859e-12
-4.123442173e-12
9.475343429e-06
6.774779639e-12
-1.329825878e-11
9.475350708e-06
8.677814367e-12
-1.122121794e-11
9.475372585e-06
1.83177336e-11
-3.744678683e-11
9.475387978e-06
2.048584316e-11
-2.615939283e-11
9.475449115e-06
3.138504893e-11
-7.3946366e-11
8.345998914e-11
-2.108463941e-10
9.475367962e-06
6.037790629e-13
1.425026965e-13
9.475366681e-06
1.005449425e-12
-7.789992182e-13
9.475366459e-06
9.174507339e-14
-1.554093614e-12
9.475366188e-06
-7.234713138e-13
-2.503307504e-12
9.47536742e-06
-9.860148313e-13
-2.368499145e-12
9.475368472e-06
2.997147185e-13
-6.74869842e-13
9.475368143e-06
1.188084811e-12
-1.575454946e-12
9.475368694e-06
3.017825362e-12
-3.164754031e-12
9.475370425e-06
2.830214381e-12
-4.683282053e-12
9.47537494e-06
6.527092322e-12
-1.049001586e-11
9.475378187e-06
7.64754156e-12
-1.231963362e-11
9.475394754e-06
1.66654521e-11
-2.967932721e-11
9.475408687e-06
2.098491492e-11
-3.534221973e-11
9.475452418e-06
2.468471251e-11
-6.080778155e-11
5.971040334e-11
-1.486710683e-10
9.475311327e-06
5.26307091e-13
-1.009020271e-12
9.4753108e-06
-4.830387241e-14
-6.354159823e-13
9.475309588e-06
-2.238069818e-13
1.183981865e-14
9.475309487e-06
5.77750446e-13
-3.269398447e-12
9.475313957e-06
9.099220575e-13
-1.810531973e-12
9.475312306e-06
5.631298441e-13
-9.120095096e-13
9.475314687e-06
7.133865952e-14
-1.922175298e-12
9.475313933e-06
-3.999742129e-13
-3.728648317e-12
9.475319927e-06
2.966397882e-12
-3.845851847e-12
9.475323377e-06
2.020991705e-12
-8.925809978e-12
9.475332642e-06
5.038044769e-12
-9.287008029e-12
9.475347835e-06
9.493493268e-12
-1.66765649e-11
9.475366282e-06
1.150421943e-11
-2.161432237e-11
9.475396367e-06
1.226473663e-11
-2.370121655e-11
2.855733959e-11
-5.960276335e-11
9.475328768e-06
-1.315248128e-12
9.475328219e-06
-8.271366368e-13
9.475327781e-06
-1.650810541e-14
9.475330118e-06
-1.909460149e-12
9.475331352e-06
-1.775927139e-12
9.475331906e-06
-3.897924149e-13
9.475333069e-06
1.925117535e-13
9.475336646e-06
-2.874693812e-13
9.475338687e-06
-3.740195255e-12
9.475347797e-06
-6.16253774e-12
9.47535821e-06
-6.423093338e-12
9.475370663e-06
-1.348130276e-11
9.475390265e-06
-1.971126523e-11
9.475411178e-06
-1.877547302e-11
-3.800240501e-11
9.475318305e-06
4.682010475e-13
5.18393734e-14
9.475316264e-06
-1.326782888e-14
-1.462226253e-12
9.475317286e-06
4.905190144e-13
-2.67565891e-12
9.47531664e-06
-7.266243223e-13
-2.240865267e-12
9.475317773e-06
-1.150278352e-12
-1.123862199e-12
9.475318721e-06
-1.415714218e-12
-3.136508776e-13
9.475321022e-06
2.356125949e-13
-9.021986624e-14
9.475323738e-06
-6.504472411e-14
-8.796754388e-13
9.475326007e-06
-2.274897395e-13
-2.815033587e-12
9.475329751e-06
-5.409880839e-12
-5.175430737e-12
9.4753369e-06
-5.89263904e-12
-7.01608582e-12
9.475348991e-06
-1.522544181e-11
-1.271220539e-11
9.47536731e-06
-1.906487443e-11
-1.60322185e-11
-2.570371474e-11
-1.869265213e-11
9.475269e-06
5.199619481e-13
-1.397151814e-13
9.475269129e-06
1.022847706e-12
-2.958933769e-13
9.475267243e-06
-1.111982514e-12
-2.210549497e-12
9.475266094e-06
3.610671308e-13
-2.462546938e-12
9.475266877e-06
1.452002633e-12
-2.069810934e-12
9.475268969e-06
8.707310038e-13
-2.28206545e-13
9.475268893e-06
3.444080612e-13
-1.102594781e-12
9.475268667e-06
-2.008101481e-12
-3.751624657e-12
9.475267937e-06
-4.436895588e-12
-4.981768128e-12
9.475273854e-06
-1.003864239e-11
-7.612030001e-12
9.475278037e-06
-1.104252272e-11
-8.976760177e-12
9.475295634e-06
-2.83047779e-11
-1.758636064e-11
9.475309743e-06
-3.47958691e-11
-2.087772376e-11
-6.086433569e-11
-3.335195345e-11
9.475311417e-06
-5.492182017e-13
-4.825138721e-13
9.47531025e-06
2.64484014e-13
-1.481234735e-12
9.475311161e-06
-3.294917855e-13
-1.052156532e-12
9.475310629e-06
-2.736329822e-13
-3.143063279e-14
9.475310495e-06
2.55080467e-13
-1.752423577e-12
9.475311319e-06
1.651260247e-12
-2.26320904e-12
9.475308665e-06
-1.338086621e-12
-2.818964812e-12
9.475307781e-06
-3.458689922e-12
-4.744932735e-12
9.475307499e-06
-3.523295892e-12
-4.7507722e-12
9.475309295e-06
-1.019151016e-11
-1.132434494e-11
9.47530604e-06
-1.088634847e-11
-1.163835144e-11
9.475319025e-06
-3.518472296e-11
-3.670545998e-11
9.475319552e-06
-3.61905965e-11
-3.653691762e-11
9.475407411e-06
-1.024710815e-10
-1.044992106e-10
-2.565484534e-10
9.47531836e-06
2.196987258e-12
-5.643597244e-13
9.475316182e-06
9.526077695e-13
-1.393985095e-12
9.475318299e-06
9.596426991e-13
-1.186551589e-12
9.475319926e-06
3.625116427e-13
-6.693401521e-13
9.475315861e-06
-3.379082514e-13
-1.357244631e-12
9.475314921e-06
-9.88554652e-13
-3.288171701e-12
9.475314634e-06
-1.140153572e-12
-2.292823774e-12
9.475314525e-06
-1.468552549e-12
-4.65908685e-12
9.47531323e-06
-3.088183387e-12
-5.398823331e-12
9.475314217e-06
-7.903875241e-12
-1.29861871e-11
9.475313567e-06
-1.414817277e-11
-9.354610497e-12
9.475331305e-06
-4.258111263e-11
-5.258448297e-11
9.475337341e-06
-5.588247738e-11
-1.005691003e-11
9.475484925e-06
-1.565204406e-10
-1.717058123e-10
-2.730448041e-10
-4.443028838e-10
9.475312441e-06
-1.097654107e-12
-6.205371129e-13
9.475312283e-06
-1.145853762e-12
-1.535288755e-12
9.475313434e-06
5.998923534e-13
-9.981594216e-13
9.475315796e-06
-6.526392287e-13
-9.262848601e-13
9.47531302e-06
-1.690814627e-12
-2.109970451e-12
9.475313719e-06
1.283254125e-12
-1.281390641e-12
9.475312406e-06
1.142433386e-12
-2.269873027e-12
9.475307807e-06
2.566476167e-12
-5.967879691e-12
9.475300561e-06
3.760300681e-12
-6.270652461e-12
9.475284322e-06
8.79422806e-12
-2.514118574e-11
9.475260197e-06
1.389449375e-11
-2.236132227e-11
9.475231609e-06
4.345964447e-11
-1.442057549e-10
9.475137486e-06
5.6870244e-11
-1.057558013e-10
9.475494136e-06
1.560004743e-10
-1.016751362e-09
2.750642788e-10
-2.000278266e-09
9.475340468e-06
-2.62577213e-13
9.136174259e-14
9.475340392e-06
-3.33826341e-14
9.982979288e-13
9.475339617e-06
-8.238684273e-13
-5.024302878e-13
9.475340561e-06
-4.827135909e-13
-7.186916813e-13
9.47534274e-06
1.932926968e-13
-6.249117176e-14
9.475338401e-06
6.246116086e-13
-1.787642294e-12
9.475338718e-06
1.773969065e-12
-1.538312468e-12
9.475337616e-06
3.496976168e-12
-4.238439497e-12
9.475336601e-06
3.678710817e-12
-4.815687611e-12
9.475337624e-06
1.035127414e-11
-1.422863789e-11
9.475338393e-06
1.099745838e-11
-8.596806971e-12
9.475356058e-06
3.604576584e-11
-5.033355616e-11
9.475363588e-06
3.790045664e-11
-1.070630806e-11
9.47551398e-06
1.050696747e-10
-1.688131534e-10
2.584444193e-10
-4.423811514e-10
9.47537873e-06
1.828367486e-13
1.55339864e-14
9.475377138e-06
1.557505145e-13
-5.744285897e-13
9.475375247e-06
6.90033297e-13
-1.943886751e-12
9.475374608e-06
-3.336988228e-13
-1.077424165e-13
9.475376649e-06
3.707148756e-13
-2.298597167e-13
9.475374749e-06
1.873894136e-13
-1.245009953e-12
9.475375293e-06
1.101396228e-12
2.74599665e-13
9.475375052e-06
2.867687734e-12
-2.181429517e-12
9.47537498e-06
2.783285642e-12
-3.645036089e-12
9.475376541e-06
9.46571939e-12
-1.053553386e-11
9.475373176e-06
1.107824833e-11
-1.069210738e-11
9.475386887e-06
3.019231905e-11
-3.747063576e-11
9.475387449e-06
3.438098892e-11
-3.771310499e-11
9.475475697e-06
6.015929256e-11
-1.045606034e-10
1.482407737e-10
-2.578658675e-10
9.475379887e-06
1.833567264e-13
7.729441441e-13
9.475379342e-06
7.259360103e-13
-1.511988449e-12
9.475376523e-06
6.783214611e-13
-1.163191246e-12
9.475381164e-06
1.304342981e-12
3.281229814e-13
9.475383311e-06
9.570866241e-13
6.581649962e-13
9.475380851e-06
6.140869124e-13
-1.887071025e-12
9.475382642e-06
1.287101532e-12
-7.62442422e-14
9.475380594e-06
1.480122675e-12
4.367897432e-14
9.475385309e-06
3.163415324e-12
-8.635164232e-13
9.475389847e-06
5.490231741e-12
-5.798711437e-12
9.475393234e-06
8.948837782e-12
-6.900421125e-12
9.475409798e-06
1.490644777e-11
-1.761101096e-11
9.475424657e-06
1.804316363e-11
-1.968308817e-11
9.475467922e-06
2.685827545e-11
-3.137879531e-11
6.644414385e-11
-8.43479838e-11
9.475341953e-06
1.738613758e-12
9.475341661e-06
-7.626250613e-14
9.47534045e-06
-1.177794878e-12
9.475342826e-06
-1.633652262e-12
9.475345713e-06
-1.250268841e-12
9.475344324e-06
-1.802283527e-12
9.475345155e-06
9.613245768e-13
9.475347074e-06
3.924099903e-13
9.475349778e-06
-1.195521754e-12
9.475356802e-06
-3.80458093e-12
9.475360177e-06
-6.335424444e-12
9.475375418e-06
-1.198158141e-11
9.475394891e-06
-1.634427775e-11
9.475421133e-06
-1.936427196e-11
-4.569923352e-11
9.475350151e-06
2.73272976e-13
-1.564046472e-12
9.475351359e-06
1.644902339e-12
-1.287727329e-12
9.475353935e-06
7.333324303e-13
-4.853020643e-13
9.475352836e-06
4.347279262e-13
-8.808352313e-13
9.475352964e-06
-1.956378843e-12
-1.281278773e-12
9.47535278e-06
-3.295250224e-13
-1.135397656e-12
9.47535449e-06
-1.258027161e-12
-1.315595496e-12
9.475355362e-06
-2.470228735e-12
-3.144304136e-12
9.47535766e-06
-4.158900145e-12
-2.423250963e-12
9.475361717e-06
-8.096072677e-12
-4.095532191e-12
9.47536826e-06
-8.219654735e-12
-6.003859211e-12
9.475385421e-06
-1.803224377e-11
-1.330323104e-11
9.475401536e-06
-1.648054767e-11
-1.784133496e-11
-2.968034168e-11
-2.779053102e-11
9.475368416e-06
-2.518093402e-13
-1.6213901e-12
9.475366881e-06
-7.172430334e-13
-2.288280062e-12
9.475368991e-06
1.519962221e-12
-2.135562549e-12
9.475368261e-06
2.587352294e-12
-2.545284764e-13
9.475370721e-06
1.200356209e-12
1.025656525e-12
9.47536782e-06
-3.400665733e-13
1.980795513e-14
9.475368363e-06
-9.998713054e-14
-7.891973718e-13
9.475369717e-06
-2.695814074e-12
-3.047039305e-12
9.475372137e-06
-4.346094059e-12
-2.3420676e-12
9.475376574e-06
-1.259403704e-11
-5.327137043e-12
9.475383134e-06
-1.042599815e-11
-7.930210961e-12
9.475404535e-06
-3.734948821e-11
-1.959801173e-11
9.475418883e-06
-2.451743121e-11
-2.808301993e-11
-7.174669033e-11
-5.060714923e-11
9.475345681e-06
-1.222944214e-12
-8.68656618e-13
9.475347933e-06
-5.787714089e-14
-6.431631705e-13
9.47534836e-06
-9.942169394e-13
-1.698658207e-13
9.475344835e-06
-5.260736664e-13
-9.113218001e-13
9.4753464e-06
1.066230846e-12
-1.038210126e-13
9.475346863e-06
-9.170689225e-13
-6.138161577e-13
9.475346173e-06
-1.59864332e-13
-1.064558391e-12
9.475343833e-06
-3.150243151e-12
-3.3290077e-12
9.47534302e-06
-3.312435979e-12
-3.40781746e-12
9.475345509e-06
-1.229701529e-11
-8.582091622e-12
9.475342765e-06
-8.603892396e-12
-1.364624999e-11
9.475362192e-06
-5.107302057e-11
-4.15337509e-11
9.475366394e-06
-9.776054718e-12
-5.71637872e-11
-1.690267195e-10
-1.558873091e-10
9.475296461e-06
1.954522473e-12
-3.054505186e-13
9.475295918e-06
1.830639679e-12
-6.722070531e-15
9.475298203e-06
8.762554431e-13
1.047316335e-12
9.475295948e-06
-6.690579358e-13
-3.839254422e-14
9.475292286e-06
-1.240580325e-12
-1.291706569e-12
9.47529459e-06
3.137092104e-13
-3.398737598e-13
9.475292019e-06
-3.533039165e-13
-1.883237645e-12
9.47528937e-06
-1.207549043e-12
-3.541190374e-12
9.475288782e-06
-2.108357229e-12
-3.607794378e-12
9.475289124e-06
-1.353129738e-11
-1.447270642e-11
9.475308302e-06
-1.625765023e-11
-1.832785197e-11
9.475353638e-06
-7.014335712e-11
-7.015915923e-11
9.475467813e-06
-6.989076668e-11
-7.080438208e-11
9.47569776e-06
-2.802301276e-10
-2.820440462e-10
-4.200952233e-10
9.475421597e-06
6.397823896e-14
-1.635552279e-12
9.475420543e-06
8.301500461e-13
-1.547426789e-13
9.475420313e-06
9.04929005e-13
7.851014812e-13
9.475422288e-06
-2.783461505e-13
3.507061254e-14
9.475420128e-06
-1.984830987e-14
-1.896666094e-12
9.475417606e-06
5.469189783e-13
-3.00123634e-12
9.475412737e-06
1.298799326e-12
-1.987011995e-12
9.475405293e-06
3.181333925e-12
-4.483383083e-12
9.475394179e-06
4.262121456e-12
-7.84685506e-12
9.475368918e-06
1.400430558e-11
-2.441464435e-11
9.47534839e-06
1.837139523e-11
-4.035663804e-11
9.475262279e-06
7.231113585e-11
-2.030777962e-10
9.475334184e-06
6.951780138e-11
-3.192939392e-10
9.476080405e-06
2.825876125e-10
-2.325840022e-09
4.22831958e-10
-3.363435278e-09
9.4753465e-06
-3.62394463e-13
-6.478951383e-13
9.475343899e-06
-6.052507382e-13
-2.528670052e-12
9.475343447e-06
-1.617951243e-12
-5.0591761e-13
9.475344584e-06
-1.595567817e-13
3.437468474e-13
9.475344668e-06
8.297510983e-13
-1.014366547e-12
9.475343253e-06
1.980070394e-12
-1.967353862e-12
9.475340898e-06
3.150413222e-12
-2.008187217e-12
9.475338216e-06
4.55796036e-12
-3.728205955e-12
9.475337085e-06
5.032590628e-12
-5.409031826e-12
9.475339592e-06
1.461366114e-11
-1.359408751e-11
9.475358468e-06
9.060448737e-12
-1.880656911e-11
9.475401583e-06
4.99979112e-11
-7.209066412e-11
9.475523245e-06
1.055228184e-11
-6.918245123e-11
9.475749084e-06
1.692544334e-10
-2.826521934e-10
4.426832142e-10
-4.225960449e-10
9.475358747e-06
2.964585313e-13
-7.54897972e-13
9.475356499e-06
3.150423392e-13
-1.187813678e-12
9.475358575e-06
1.181683529e-12
5.636226071e-13
9.475357966e-06
4.8195534e-13
-2.797810773e-13
9.475359241e-06
8.650728928e-13
-8.993239539e-13
9.475357331e-06
-3.443449499e-13
-2.570806145e-12
9.475355856e-06
1.084568004e-12
-2.672292795e-12
9.475355369e-06
4.002460822e-12
-2.607592757e-12
9.475353925e-06
4.013624828e-12
-3.404572411e-12
9.475354842e-06
1.221760836e-11
-9.495067113e-12
9.475352617e-06
1.101316425e-11
-1.419821682e-11
9.475374853e-06
3.971813857e-11
-4.265524671e-11
9.475379592e-06
2.653874661e-11
-5.911053228e-11
9.475527824e-06
7.275329666e-11
-1.578547582e-10
2.102520997e-10
-2.765732156e-10
9.475306037e-06
8.516494192e-13
-7.778632243e-13
9.475305193e-06
1.766425e-12
-3.155697062e-13
9.475305504e-06
1.378444925e-12
-3.067857274e-13
9.475304637e-06
-9.209323074e-13
-6.197974244e-13
9.475304623e-06
-1.101798906e-12
-2.185894843e-13
9.475306801e-06
1.037558496e-12
-8.359405569e-13
9.475304535e-06
2.354651191e-12
-1.103099348e-12
9.47530353e-06
2.060285772e-12
-1.370208168e-12
9.475306831e-06
2.46457928e-12
-1.644370622e-12
9.475311901e-06
6.731841954e-12
-5.512244526e-12
9.475316976e-06
7.021634103e-12
-7.604832395e-12
9.475338738e-06
1.790735629e-11
-2.006407833e-11
9.475352411e-06
1.571129803e-11
-2.985303212e-11
9.475415446e-06
2.855596716e-11
-5.242021865e-11
9.126409551e-11
-8.868612185e-11
9.475361408e-06
-7.901481385e-13
9.475360721e-06
2.307993933e-14
9.47536119e-06
-1.086898502e-12
9.475362471e-06
-1.03029207e-13
9.475365654e-06
3.305005916e-13
9.475365728e-06
-1.192612244e-12
9.475364745e-06
-9.388585169e-13
9.475365272e-06
-1.404989717e-12
9.475369191e-06
-7.380365184e-13
9.475374349e-06
-2.548494872e-12
9.475381015e-06
-5.248048337e-12
9.475395751e-06
-1.463007515e-11
9.475415179e-06
-2.049795862e-11
9.475448308e-06
-2.917177363e-11
-4.650596275e-11
9.475332403e-06
6.908548185e-13
-3.160184489e-13
9.475331551e-06
4.283749342e-13
5.182793734e-13
9.475332467e-06
-3.89042331e-13
-2.541561173e-14
9.475333079e-06
2.239595054e-13
-1.748016647e-12
9.475334569e-06
7.613769482e-13
-6.693082583e-13
9.475331817e-06
1.208933749e-12
-5.441405559e-13
9.475333406e-06
-1.36848234e-13
1.400896119e-13
9.475335063e-06
-2.713195176e-12
1.219747223e-12
9.475333779e-06
-5.151796284e-12
1.241810817e-12
9.475336921e-06
-1.082573193e-11
4.44627282e-12
9.47533481e-06
-1.218940511e-11
4.924940455e-12
9.475350053e-06
-3.585598507e-11
1.168693321e-11
9.475352147e-06
-4.46548228e-11
1.629796525e-11
-1.146998843e-10
2.625458205e-11
9.475315912e-06
9.453276334e-13
-1.754404637e-12
9.475315558e-06
1.749705794e-12
1.23209786e-13
9.475318146e-06
3.151340361e-12
-4.053365043e-13
9.475315024e-06
1.727492518e-12
-1.091505404e-12
9.47531538e-06
1.555680085e-12
-1.420251192e-12
9.475313369e-06
-8.506839125e-13
-1.04773657e-12
9.475314497e-06
9.321066641e-14
5.475188818e-13
9.475315101e-06
-3.471552243e-12
2.338169389e-12
9.475312692e-06
-4.948160962e-12
2.901810482e-12
9.475310543e-06
-1.963682194e-11
6.664869786e-12
9.475306642e-06
-2.074496987e-11
8.855669901e-12
9.475313325e-06
-8.605121627e-11
1.911241836e-11
9.475300004e-06
-8.413292668e-11
2.562032539e-11
-3.476903175e-10
4.9937269e-11
9.475303195e-06
2.351108939e-13
-9.054583268e-13
9.475304666e-06
3.719004236e-13
-7.515566871e-13
9.475304447e-06
-4.683968525e-13
-7.976250239e-13
9.475303082e-06
-5.318798309e-13
-1.535834224e-12
9.475301859e-06
-1.072990721e-12
-1.244408465e-12
9.475302877e-06
-4.712384061e-13
-8.082375417e-14
9.475298615e-06
-1.981828417e-12
3.068400368e-13
9.475297313e-06
-4.331213771e-12
3.290651583e-12
9.475288196e-06
-5.828385135e-12
3.328134722e-12
9.47527335e-06
-2.471756586e-11
9.742139413e-12
9.475246012e-06
-2.313223217e-11
1.407401314e-11
9.475215676e-06
-1.439627683e-10
4.249175248e-11
9.475121298e-06
-1.042118842e-10
5.691581254e-11
-1.01568325e-09
1.57741643e-10
9.475390753e-06
1.07476495e-12
-1.278432391e-12
9.47539002e-06
1.105940573e-12
-1.944924724e-12
9.475390853e-06
6.954802303e-14
-3.9765837e-13
9.47539025e-06
-8.873839422e-13
-2.415966148e-13
9.475390108e-06
-2.212460039e-12
-4.640281479e-13
9.475388769e-06
-2.240334353e-12
-2.701724998e-13
9.475385959e-06
-2.055127464e-12
3.248477816e-13
9.47538029e-06
-2.601359834e-12
2.160867239e-12
9.475369718e-06
-6.254566856e-12
4.203337261e-12
9.475343405e-06
-2.355848479e-11
1.319041738e-11
9.475323549e-06
-3.834087636e-11
1.793338393e-11
9.475236742e-06
-2.018462991e-10
7.173723852e-11
9.475309487e-06
-3.185572244e-10
7.029980154e-11
-2.32465469e-09
2.83215941e-10
9.475275542e-06
4.109812351e-13
-4.058557803e-13
9.475274701e-06
-6.550647639e-13
-2.048940353e-12
9.475273403e-06
3.688127964e-14
-8.527792521e-13
9.475274474e-06
-3.616459457e-13
-1.746693503e-13
9.475274062e-06
4.200879961e-13
-7.728120523e-13
9.475273484e-06
1.72475889e-12
8.954454474e-13
9.475267339e-06
8.348296225e-13
3.482979095e-13
9.475250982e-06
3.665473687e-12
2.366727492e-12
9.475225313e-06
6.247681159e-12
6.737361592e-12
9.475125574e-06
2.483436743e-11
2.483784597e-11
9.474973338e-06
3.981003241e-11
3.921837094e-11
9.474162045e-06
2.035347246e-10
2.034239365e-10
9.472884294e-06
3.195386471e-10
3.189165948e-10
9.463576814e-06
2.326492571e-09
2.325818871e-09
3.362666252e-09
9.475337893e-06
-7.303465255e-13
-1.154866694e-12
9.475340575e-06
3.202617935e-13
-4.234693576e-13
9.475338798e-06
-1.3868665e-13
-6.157114054e-14
9.475339257e-06
7.223204582e-13
-8.970854346e-13
9.475337484e-06
1.122065228e-12
6.492983448e-13
9.47533639e-06
1.262586261e-12
8.720139729e-13
9.475332453e-06
3.247502992e-12
-4.491381722e-13
9.475324605e-06
6.559447208e-12
1.907335566e-12
9.475315568e-06
7.671455774e-12
4.987973875e-12
9.475288635e-06
2.508472114e-11
1.444729295e-11
9.475266863e-06
2.300688068e-11
1.662282355e-11
9.475180104e-06
1.436657344e-10
7.118464732e-11
9.475253924e-06
1.030469061e-10
6.975724839e-11
9.47600067e-06
1.01591312e-09
2.820070885e-10
1.998756597e-09
9.475303409e-06
6.386280288e-13
-2.174702147e-13
9.475303127e-06
5.558682069e-13
5.370237033e-13
9.475303825e-06
7.154641429e-13
2.191294313e-13
9.475304046e-06
5.413557996e-14
-1.63924812e-12
9.475305223e-06
8.980983783e-13
-1.098315218e-12
9.475306031e-06
1.276082715e-12
-9.6845187e-13
9.475303315e-06
2.423501896e-12
-1.203558974e-12
9.475297689e-06
5.444617359e-12
1.554265289e-12
9.475289873e-06
7.520189143e-12
4.6029795e-12
9.475274667e-06
1.883117803e-11
8.558911154e-12
9.475247684e-06
2.223830891e-11
1.3579541e-11
9.47521875e-06
8.762234479e-11