/*--------------------------------*- C++ -*----------------------------------*\
| =========                 |                                                 |
| \\      /  F ield         | OpenFOAM: The Open Source CFD Toolbox           |
|  \\    /   O peration     | Version:  4.x                                   |
|   \\  /    A nd           | Web:      www.OpenFOAM.org                      |
|    \\/     M anipulation  |                                                 |
\*---------------------------------------------------------------------------*/
FoamFile
{
    version     2.0;
    format      ascii;
    class       volScalarField;
    location    "10000";
    object      rhoeps;
}
// * * * * * * * * * * * * * * * * * * * * * * * * * * * * * * * * * * * * * //

dimensions      [1 -3 0 0 0 0 0];

internalField   nonuniform List<scalar> 
1175
(
0.2790914487
0.2790914584
0.2790914534
0.279091451
0.2790914573
0.2790914586
0.279091453
0.2790914358
0.2790914609
0.2790915108
0.2790914918
0.2790914611
0.2790914868
0.2790915204
0.2790915701
0.2790900111
0.279090009
0.2790900002
0.2790899899
0.2790899723
0.2790900067
0.2790900009
0.2790900389
0.2790899859
0.2790899681
0.279089984
0.2790900077
0.2790900252
0.2790900786
0.2790901968
0.2790911268
0.2790911143
0.279091093
0.279091087
0.2790911029
0.2790910494
0.2790910214
0.2790910331
0.2790910478
0.279091052
0.2790910591
0.279091042
0.2790910743
0.2790911903
0.2790914079
0.279092745
0.279092747
0.2790927546
0.2790927491
0.2790927695
0.2790927655
0.2790927572
0.2790927438
0.2790927287
0.2790927347
0.2790927213
0.279092771
0.279092863
0.2790930565
0.279093461
0.2790926642
0.2790926777
0.2790926814
0.2790926938
0.2790926648
0.2790926551
0.2790926756
0.2790926782
0.2790926961
0.2790926928
0.2790927041
0.2790927157
0.2790928122
0.2790930159
0.2790935675
0.2790914541
0.2790914783
0.2790914592
0.2790914888
0.2790914843
0.2790914532
0.2790914527
0.2790914276
0.279091463
0.2790914618
0.2790914573
0.2790915198
0.2790916083
0.2790918157
0.279092203
0.2790915106
0.2790914912
0.2790914724
0.2790914525
0.2790914692
0.2790914709
0.2790914687
0.2790914381
0.2790914332
0.2790914628
0.2790914535
0.2790914669
0.2790914839
0.2790916076
0.2790918612
0.2790922979
0.2790922857
0.279092259
0.2790922654
0.2790922202
0.2790922228
0.2790922298
0.2790922297
0.2790922116
0.2790922627
0.2790922733
0.2790923156
0.2790923763
0.2790924221
0.2790925423
0.2790912753
0.279091272
0.27909129
0.2790912798
0.2790912961
0.2790913115
0.2790913243
0.2790913388
0.279091313
0.2790913333
0.2790912769
0.2790913068
0.2790912991
0.2790913248
0.2790913953
0.279091178
0.2790911723
0.2790911846
0.2790911681
0.279091172
0.2790911913
0.2790911813
0.2790912121
0.2790912109
0.2790911725
0.2790911621
0.2790911784
0.2790911703
0.2790912335
0.2790935639
0.2790935898
0.2790935728
0.2790935992
0.2790935851
0.2790935194
0.2790935604
0.2790936184
0.279093599
0.2790936092
0.2790936097
0.2790936749
0.2790937111
0.2790938241
0.2790940394
0.2790938931
0.2790938759
0.2790938561
0.2790938798
0.279093853
0.2790938631
0.2790938292
0.2790938329
0.2790937809
0.2790937831
0.2790938293
0.2790938729
0.2790940146
0.279094277
0.2790947553
0.2790905169
0.2790905508
0.2790905605
0.2790905526
0.2790905822
0.2790905695
0.2790905779
0.2790905654
0.2790905798
0.2790905789
0.2790906438
0.2790907104
0.2790909271
0.279091484
0.2790925444
0.2790897535
0.2790897846
0.2790897685
0.279089812
0.2790898045
0.2790898078
0.2790897972
0.279089812
0.2790898418
0.2790898199
0.2790898166
0.2790898631
0.2790901714
0.2790909638
0.2790926618
0.2790918457
0.279091806
0.2790918229
0.2790918104
0.2790917998
0.2790917819
0.2790918054
0.2790917811
0.2790917963
0.2790917688
0.2790918208
0.2790918735
0.2790920583
0.2790925948
0.2790936944
0.2790925766
0.2790926024
0.2790926572
0.2790926676
0.279092643
0.2790926233
0.2790926534
0.2790926834
0.2790926469
0.2790926423
0.2790926605
0.2790926514
0.2790927155
0.279092969
0.2790934799
0.2790909407
0.2790909634
0.2790909525
0.2790909689
0.2790909946
0.2790909824
0.279090984
0.2790909659
0.2790909842
0.2790909933
0.279090981
0.2790910016
0.2790909955
0.2790911735
0.279091425
0.2790914876
0.2790914816
0.2790914741
0.2790915057
0.2790915016
0.2790915249
0.2790915562
0.279091567
0.2790915341
0.2790915122
0.2790915838
0.2790916048
0.2790916108
0.279091688
0.2790918368
0.2790911674
0.2790911638
0.2790911782
0.2790911496
0.2790911412
0.2790911577
0.2790911665
0.2790911799
0.2790912504
0.2790912395
0.27909123
0.279091237
0.2790912847
0.2790914071
0.2790897535
0.2790897394
0.2790897103
0.2790897006
0.2790896753
0.2790896943
0.2790897126
0.2790897028
0.2790896818
0.2790896887
0.2790896295
0.2790897025
0.2790898069
0.2790900951
0.2790909764
0.2790910168
0.2790909932
0.2790909684
0.2790909949
0.2790909788
0.2790909545
0.2790909391
0.2790909556
0.2790909607
0.2790909905
0.2790910723
0.2790913372
0.2790920584
0.2790935095
0.2790911212
0.2790911749
0.279091177
0.2790911785
0.2790911686
0.2790911587
0.2790911383
0.2790911662
0.2790911733
0.2790911799
0.2790912344
0.2790913834
0.2790919683
0.2790938023
0.2790976705
0.2790910977
0.2790910999
0.2790910961
0.2790911012
0.2790911169
0.2790911016
0.2790910911
0.2790911306
0.2790911321
0.2790911629
0.2790912252
0.2790914972
0.27909249
0.2790957753
0.2791039471
0.2790918408
0.2790918725
0.2790918929
0.2790918655
0.2790918299
0.2790918201
0.2790918148
0.2790918345
0.2790918395
0.2790918646
0.2790919228
0.2790921569
0.2790927702
0.2790945606
0.2790984149
0.2790929607
0.2790929505
0.2790928977
0.2790928927
0.2790928686
0.2790928745
0.2790928928
0.2790928922
0.2790928556
0.2790928995
0.2790929263
0.2790930223
0.2790933225
0.2790940214
0.279095481
0.2790929896
0.2790929924
0.2790929966
0.2790930107
0.2790929974
0.2790930111
0.2790930473
0.2790929889
0.2790930065
0.2790930649
0.2790930463
0.2790930833
0.2790931752
0.2790934056
0.2790939275
0.2790918937
0.2790919018
0.2790918725
0.2790918813
0.2790918961
0.2790918851
0.2790919039
0.2790919131
0.2790919132
0.2790919125
0.2790919382
0.2790919461
0.279091994
0.2790921159
0.2790923364
0.2790921854
0.2790921523
0.2790921564
0.2790921766
0.2790922093
0.2790922114
0.2790922201
0.2790922157
0.2790922063
0.2790922076
0.2790922225
0.279092229
0.279092309
0.2790924729
0.2790927088
0.2790927178
0.2790926717
0.2790926571
0.279092664
0.2790926497
0.2790926655
0.2790926552
0.2790926665
0.2790927129
0.2790927378
0.2790927955
0.2790930073
0.2790935284
0.2790919998
0.2790920014
0.2790920444
0.2790920515
0.2790920254
0.2790920071
0.2790920204
0.2790920466
0.2790920469
0.2790920596
0.2790921395
0.2790923272
0.2790928821
0.2790946818
0.279090534
0.2790905502
0.2790905351
0.2790904946
0.2790905174
0.2790905244
0.279090532
0.279090526
0.2790904919
0.2790905329
0.2790906244
0.2790910333
0.2790926477
0.2790982798
0.2791126977
0.2790942351
0.2790942333
0.2790942038
0.2790942461
0.2790942351
0.2790942157
0.2790941981
0.2790941647
0.2790941686
0.2790941932
0.2790943516
0.279095035
0.2790982573
0.2791121524
0.2791607493
0.2790919747
0.2790919761
0.2790919754
0.2790919499
0.2790919804
0.2790919731
0.2790919468
0.2790919445
0.2790919463
0.2790919429
0.2790920936
0.2790924686
0.2790941212
0.2790997422
0.2791141499
0.2790924135
0.2790923663
0.2790923678
0.2790923858
0.2790923979
0.2790924043
0.2790923632
0.2790923637
0.2790923429
0.2790923724
0.2790924318
0.2790926178
0.2790932319
0.2790950066
0.2790989116
0.2790908424
0.2790908573
0.2790908394
0.279090804
0.2790907951
0.2790908009
0.2790907735
0.2790907766
0.2790907459
0.2790907601
0.2790908221
0.2790908671
0.2790910599
0.2790915947
0.2790926224
0.2790925025
0.2790925207
0.2790925
0.2790924922
0.2790925005
0.2790924913
0.2790925231
0.2790925357
0.279092521
0.2790925433
0.279092512
0.2790925367
0.2790926138
0.2790928552
0.2790932301
0.2790916327
0.2790916085
0.2790916456
0.2790916484
0.2790916097
0.2790916122
0.2790916365
0.2790916158
0.2790916039
0.2790915987
0.2790916407
0.2790916857
0.2790918165
0.2790920816
0.2790911363
0.2790911565
0.279091096
0.2790910971
0.2790911194
0.2790911054
0.2790910955
0.279091143
0.2790911674
0.2790911994
0.279091181
0.2790912965
0.2790915977
0.2790923946
0.279090771
0.2790907693
0.2790907696
0.2790907701
0.2790907708
0.2790907678
0.2790907787
0.2790907643
0.2790907961
0.2790908129
0.2790908784
0.2790911086
0.2790920881
0.2790953499
0.279093352
0.2790933216
0.2790933181
0.2790932973
0.2790933505
0.2790933863
0.2790933919
0.2790933897
0.2790934178
0.2790934623
0.2790935978
0.2790942641
0.2790974812
0.2791114135
0.2790899448
0.2790899145
0.2790899131
0.2790899636
0.2790899447
0.2790899749
0.279090005
0.2790900169
0.2790900273
0.2790900556
0.2790902538
0.2790915954
0.2790996552
0.2791519029
0.2788076506
0.2790918346
0.2790918005
0.2790918179
0.2790918207
0.279091774
0.2790917904
0.2790917505
0.2790917559
0.2790917514
0.2790917779
0.2790919195
0.2790926134
0.2790958326
0.2791097841
0.2791584499
0.279090757
0.2790907826
0.2790908037
0.2790908275
0.2790908167
0.2790908427
0.2790908371
0.2790908245
0.2790908313
0.2790908161
0.2790909033
0.2790911536
0.2790921414
0.2790953838
0.2791035951
0.2790903138
0.2790902961
0.2790903075
0.2790902816
0.2790903122
0.2790903106
0.2790903239
0.2790903018
0.2790902999
0.2790902876
0.2790903249
0.2790904457
0.2790907213
0.2790915363
0.2790932537
0.2790922608
0.2790922869
0.2790922623
0.2790923078
0.2790923505
0.2790923485
0.2790923445
0.279092336
0.2790923243
0.2790923208
0.2790923257
0.2790923406
0.2790924433
0.279092689
0.2790931742
0.2790907218
0.2790907144
0.2790906893
0.2790906669
0.2790906587
0.2790906363
0.2790906722
0.2790906678
0.2790906622
0.2790906397
0.2790906184
0.2790906082
0.2790906511
0.2790908354
0.2790916726
0.279091703
0.2790916954
0.2790917356
0.2790917226
0.2790917287
0.2790917745
0.2790917674
0.2790917466
0.2790917398
0.2790917899
0.2790918406
0.2790920595
0.2790926126
0.2790910936
0.279091118
0.279091124
0.2790910947
0.2790911389
0.2790910994
0.2790910885
0.2790910616
0.2790910337
0.2790910039
0.2790910416
0.2790912209
0.2790918108
0.2790935905
0.2790920801
0.2790920511
0.2790920624
0.2790920668
0.279092069
0.2790920813
0.2790920571
0.279092072
0.27909211
0.2790921426
0.279092215
0.2790926299
0.2790942716
0.2790999006
0.279090658
0.2790906571
0.2790906748
0.2790906966
0.2790907043
0.2790907078
0.2790907339
0.279090706
0.2790907303
0.2790907728
0.2790909429
0.2790916449
0.2790948301
0.2791088258
0.2790926075
0.2790925611
0.2790926255
0.2790926121
0.2790926395
0.2790925959
0.2790925892
0.27909257
0.2790925823
0.2790925916
0.2790926942
0.2790931196
0.2790947886
0.2791004053
0.2790921681
0.2790921501
0.2790921621
0.2790921465
0.279092131
0.279092128
0.2790921481
0.279092143
0.2790921144
0.2790921448
0.2790922208
0.2790923687
0.279092989
0.2790947717
0.2790986391
0.2790903481
0.279090312
0.2790903285
0.2790903174
0.2790903142
0.2790903347
0.2790903626
0.2790903626
0.2790903283
0.2790903245
0.2790903078
0.2790904031
0.2790905808
0.2790911241
0.2790921805
0.2790914955
0.2790914974
0.2790914846
0.2790914924
0.2790915028
0.2790914997
0.2790915081
0.279091509
0.2790914934
0.2790915112
0.2790914993
0.2790915121
0.2790916027
0.2790918552
0.2790922838
0.279092449
0.2790924494
0.279092419
0.2790924052
0.27909241
0.2790924312
0.2790924037
0.2790924035
0.2790923897
0.2790924007
0.2790923842
0.2790924393
0.2790924661
0.2790926188
0.2790929
0.2790929283
0.2790929199
0.2790928862
0.2790928548
0.2790928282
0.2790928488
0.2790928537
0.2790928493
0.2790929025
0.2790928731
0.2790928952
0.2790930529
0.2790932878
0.2790916886
0.2790916935
0.2790916463
0.2790916461
0.2790916398
0.2790916411
0.2790916319
0.279091663
0.2790917
0.2790916854
0.2790917251
0.2790918506
0.2790920665
0.2790927912
0.2790912853
0.2790912668
0.2790912408
0.279091222
0.2790912356
0.2790911962
0.2790912409
0.2790912387
0.2790911842
0.2790912022
0.2790912218
0.2790913619
0.2790919837
0.2790937635
0.2790910823
0.2790911424
0.2790911329
0.2790911142
0.2790911146
0.2790911301
0.2790911263
0.279091157
0.2790911992
0.2790911951
0.2790912679
0.2790915196
0.2790925051
0.2790957905
0.2790918753
0.2790918293
0.2790918119
0.279091795
0.2790917955
0.2790917799
0.2790917828
0.2790918149
0.2790917675
0.2790917842
0.2790918017
0.2790919694
0.2790925702
0.2790943694
0.2790919763
0.2790919803
0.2790919599
0.2790919897
0.279092017
0.2790920001
0.2790920388
0.2790920965
0.2790921164
0.2790921405
0.2790921678
0.2790922551
0.279092522
0.2790932664
0.2790914515
0.2790914737
0.279091526
0.2790915413
0.2790915369
0.2790915484
0.2790915544
0.2790915291
0.2790915061
0.2790915278
0.2790915377
0.2790915857
0.2790917156
0.2790919675
0.2790924895
0.2790918187
0.2790918389
0.279091802
0.2790917826
0.2790917883
0.2790917841
0.2790917879
0.279091807
0.2790917933
0.2790918194
0.2790917763
0.2790917659
0.279091833
0.2790919391
0.2790921716
0.2790917844
0.2790917709
0.2790917621
0.2790917659
0.2790918113
0.2790918074
0.2790917937
0.2790917967
0.2790918176
0.2790917951
0.2790918467
0.2790918944
0.2790919097
0.2790919501
0.2790921241
0.2790921303
0.2790921327
0.2790921412
0.2790921379
0.2790920992
0.2790921053
0.2790921142
0.2790920725
0.2790920975
0.2790920803
0.2790920926
0.279092155
0.2790922805
0.2790923871
0.2790923904
0.2790923825
0.2790923936
0.279092386
0.2790924007
0.2790924198
0.279092451
0.2790924994
0.2790924874
0.2790924481
0.2790924709
0.2790925949
0.2790928254
0.2790918508
0.2790918219
0.2790917933
0.2790918116
0.2790918101
0.2790918417
0.2790918663
0.2790918742
0.2790918613
0.2790918769
0.279091926
0.2790920375
0.2790922195
0.2790927518
0.2790910806
0.2790910281
0.2790910734
0.2790910704
0.2790910787
0.279091085
0.2790910583
0.2790910531
0.2790910752
0.2790910763
0.2790911397
0.2790912433
0.2790915222
0.2790923586
0.2790910848
0.2790911497
0.2790911414
0.2790911091
0.2790910823
0.279091089
0.2790910832
0.279091106
0.2790911039
0.2790911026
0.2790911174
0.2790911615
0.2790913968
0.2790919203
0.2790937949
0.2790937807
0.2790937456
0.2790937376
0.2790937395
0.2790937269
0.2790937187
0.2790936856
0.2790937285
0.2790936799
0.2790937012
0.2790937262
0.2790938653
0.279094136
0.2790941226
0.2790941361
0.2790941267
0.2790941045
0.2790941038
0.2790940752
0.2790940746
0.2790940726
0.2790940778
0.2790940687
0.2790940607
0.2790940786
0.2790941832
0.2790943238
0.2790924549
0.279092458
0.2790924614
0.279092459
0.2790924345
0.2790924308
0.2790924427
0.2790923988
0.2790924297
0.2790924581
0.2790924791
0.2790924917
0.2790925261
0.279092589
0.2790926847
0.2790928781
0.2790929101
0.2790928919
0.2790929132
0.2790929101
0.2790929054
0.2790929262
0.2790929182
0.2790929035
0.279092919
0.2790929154
0.279092914
0.2790929306
0.2790929339
0.2790906839
0.2790907169
0.2790907013
0.2790907116
0.2790907187
0.2790907326
0.2790907259
0.2790907074
0.279090679
0.279090638
0.2790906041
0.2790906026
0.279090615
0.2790906491
0.2790916971
0.2790916873
0.2790916925
0.2790916549
0.2790916517
0.2790916449
0.2790916353
0.2790916245
0.2790916131
0.2790916373
0.2790916892
0.2790916785
0.2790917106
0.2790918235
0.2790914842
0.2790914976
0.2790914932
0.2790914773
0.2790914747
0.2790914861
0.2790914637
0.2790914993
0.2790914753
0.2790914799
0.2790914681
0.279091515
0.2790916223
0.2790917987
0.2790930298
0.279093015
0.2790930008
0.2790930162
0.2790930346
0.2790930482
0.2790930242
0.2790930457
0.2790930538
0.2790930675
0.2790930762
0.2790931428
0.2790932463
0.2790934922
0.2790922162
0.2790921933
0.2790922026
0.2790921944
0.2790922165
0.2790922402
0.2790921988
0.2790922235
0.2790922498
0.2790922422
0.2790922388
0.2790922622
0.2790923305
0.2790925216
0.2790920302
0.2790920219
0.2790920467
0.2790920296
0.2790920076
0.279091964
0.2790919879
0.2790919864
0.2790919852
0.2790919888
0.2790919953
0.2790920643
0.2790921332
0.2790922414
0.2790914448
0.2790914071
0.2790914257
0.2790914617
0.2790914716
0.2790914758
0.2790914891
0.2790914808
0.2790915003
0.2790915213
0.2790914998
0.2790914956
0.2790915418
0.2790916106
0.279092594
0.2790926116
0.279092621
0.2790926091
0.2790925981
0.2790925691
0.2790925754
0.279092589
0.2790925984
0.2790926034
0.279092597
0.279092616
0.2790926247
0.2790926561
)
;

boundaryField
{
    top
    {
        type            calculated;
        value           nonuniform List<scalar> 
134
(
0.2790912753
0.2790914876
0.2790918937
0.2790925025
0.2790922608
0.2790914955
0.2790918187
0.2790924549
0.279092594
0.279091272
0.2790914816
0.2790919018
0.2790925207
0.2790922869
0.2790914974
0.2790918389
0.279092458
0.2790926116
0.27909129
0.2790914741
0.2790918725
0.2790925
0.2790922623
0.2790914846
0.279091802
0.2790924614
0.279092621
0.2790912798
0.2790915057
0.2790918813
0.2790924922
0.2790923078
0.2790914924
0.2790917826
0.279092459
0.2790926091
0.2790912961
0.2790915016
0.2790918961
0.2790925005
0.2790923505
0.2790915028
0.2790917883
0.2790924345
0.2790925981
0.2790913115
0.2790915249
0.2790918851
0.2790924913
0.2790923485
0.2790914997
0.2790917841
0.2790924308
0.2790925691
0.2790913243
0.2790915562
0.2790919039
0.2790925231
0.2790923445
0.2790915081
0.2790917879
0.2790924427
0.2790925754
0.2790913388
0.279091567
0.2790919131
0.2790925357
0.279092336
0.279091509
0.279091807
0.2790923988
0.279092589
0.279091313
0.2790915341
0.2790919132
0.279092521
0.2790923243
0.2790914934
0.2790917933
0.2790924297
0.2790925984
0.2790913333
0.2790915122
0.2790919125
0.2790925433
0.2790923208
0.2790915112
0.2790918194
0.2790924581
0.2790926034
0.2790912769
0.2790915838
0.2790919382
0.279092512
0.2790923257
0.2790914993
0.2790917763
0.2790924791
0.279092597
0.2790913068
0.2790916048
0.2790919461
0.2790925367
0.2790923406
0.2790915121
0.2790917659
0.2790924917
0.279092616
0.2790912991
0.2790916108
0.279091994
0.2790926138
0.2790924433
0.2790916027
0.279091833
0.2790925261
0.2790926247
0.2790913248
0.279091688
0.2790921159
0.2790928552
0.279092689
0.2790918552
0.2790919391
0.279092589
0.2790926561
0.2790913953
0.2790918368
0.2790923364
0.2790932301
0.2790931742
0.2790922838
0.2790921716
0.2790926847
)
;
    }
    bottom
    {
        type            calculated;
        value           nonuniform List<scalar> 
127
(
0.2790914487
0.279091178
0.2790911674
0.2790921854
0.2790916327
0.2790907218
0.279092449
0.2790917844
0.2790928781
0.2790914584
0.2790911723
0.2790911638
0.2790921523
0.2790916085
0.2790907144
0.2790924494
0.2790917709
0.2790929101
0.2790914534
0.2790911846
0.2790911782
0.2790921564
0.2790916456
0.2790906893
0.279092419
0.2790917621
0.2790928919
0.279091451
0.2790911681
0.2790911496
0.2790921766
0.2790916484
0.2790906669
0.2790924052
0.2790917659
0.2790929132
0.2790914573
0.279091172
0.2790911412
0.2790922093
0.2790916097
0.2790906587
0.27909241
0.2790918113
0.2790929101
0.2790914586
0.2790911913
0.2790911577
0.2790922114
0.2790916122
0.2790906363
0.2790924312
0.2790918074
0.2790929054
0.279091453
0.2790911813
0.2790911665
0.2790922201
0.2790916365
0.2790906722
0.2790924037
0.2790917937
0.2790929262
0.2790914358
0.2790912121
0.2790911799
0.2790922157
0.2790916158
0.2790906678
0.2790924035
0.2790917967
0.2790929182
0.2790914609
0.2790912109
0.2790912504
0.2790922063
0.2790916039
0.2790906622
0.2790923897
0.2790918176
0.2790929035
0.2790915108
0.2790911725
0.2790912395
0.2790922076
0.2790915987
0.2790906397
0.2790924007
0.2790917951
0.279092919
0.2790914918
0.2790911621
0.27909123
0.2790922225
0.2790916407
0.2790906184
0.2790923842
0.2790918467
0.2790929154
0.2790914611
0.2790911784
0.279091237
0.279092229
0.2790916857
0.2790906082
0.2790924393
0.2790918944
0.279092914
0.2790914868
0.2790911703
0.2790912847
0.279092309
0.2790918165
0.2790906511
0.2790924661
0.2790919097
0.2790929306
0.2790915204
0.2790912335
0.2790914071
0.2790924729
0.2790920816
0.2790908354
0.2790926188
0.2790919501
0.2790929339
0.2790915701
)
;
    }
    side-walls
    {
        type            calculated;
        value           nonuniform List<scalar> 
261
(
0.2790914487
0.2790900111
0.2790911268
0.279092745
0.2790926642
0.2790914541
0.2790915106
0.2790922979
0.2790912753
0.2790914584
0.279090009
0.2790911143
0.279092747
0.2790926777
0.2790914783
0.2790914912
0.2790922857
0.279091272
0.2790914534
0.2790900002
0.279091093
0.2790927546
0.2790926814
0.2790914592
0.2790914724
0.279092259
0.27909129
0.279091451
0.2790899899
0.279091087
0.2790927491
0.2790926938
0.2790914888
0.2790914525
0.2790922654
0.2790912798
0.2790914573
0.2790899723
0.2790911029
0.2790927695
0.2790926648
0.2790914843
0.2790914692
0.2790922202
0.2790912961
0.2790914586
0.2790900067
0.2790910494
0.2790927655
0.2790926551
0.2790914532
0.2790914709
0.2790922228
0.2790913115
0.279091453
0.2790900009
0.2790910214
0.2790927572
0.2790926756
0.2790914527
0.2790914687
0.2790922298
0.2790913243
0.2790914358
0.2790900389
0.2790910331
0.2790927438
0.2790926782
0.2790914276
0.2790914381
0.2790922297
0.2790913388
0.2790914609
0.2790899859
0.2790910478
0.2790927287
0.2790926961
0.279091463
0.2790914332
0.2790922116
0.279091313
0.2790915108
0.2790899681
0.279091052
0.2790927347
0.2790926928
0.2790914618
0.2790914628
0.2790922627
0.2790913333
0.2790914918
0.279089984
0.2790910591
0.2790927213
0.2790927041
0.2790914573
0.2790914535
0.2790922733
0.2790912769
0.2790914611
0.2790900077
0.279091042
0.279092771
0.2790927157
0.2790915198
0.2790914669
0.2790923156
0.2790913068
0.2790914868
0.2790900252
0.2790910743
0.279092863
0.2790928122
0.2790916083
0.2790914839
0.2790923763
0.2790912991
0.2790915204
0.2790900786
0.2790911903
0.2790930565
0.2790930159
0.2790918157
0.2790916076
0.2790924221
0.2790913248
0.2790915701
0.2790901968
0.2790914079
0.279093461
0.2790935675
0.279092203
0.2790918612
0.2790925423
0.2790913953
0.2790928781
0.2790906839
0.2790916971
0.2790914842
0.2790930298
0.2790922162
0.2790920302
0.2790914448
0.279092594
0.2790929101
0.2790907169
0.2790916873
0.2790914976
0.279093015
0.2790921933
0.2790920219
0.2790914071
0.2790926116
0.2790928919
0.2790907013
0.2790916925
0.2790914932
0.2790930008
0.2790922026
0.2790920467
0.2790914257
0.279092621
0.2790929132
0.2790907116
0.2790916549
0.2790914773
0.2790930162
0.2790921944
0.2790920296
0.2790914617
0.2790926091
0.2790929101
0.2790907187
0.2790916517
0.2790914747
0.2790930346
0.2790922165
0.2790920076
0.2790914716
0.2790925981
0.2790929054
0.2790907326
0.2790916449
0.2790914861
0.2790930482
0.2790922402
0.279091964
0.2790914758
0.2790925691
0.2790929262
0.2790907259
0.2790916353
0.2790914637
0.2790930242
0.2790921988
0.2790919879
0.2790914891
0.2790925754
0.2790929182
0.2790907074
0.2790916245
0.2790914993
0.2790930457
0.2790922235
0.2790919864
0.2790914808
0.279092589
0.2790929035
0.279090679
0.2790916131
0.2790914753
0.2790930538
0.2790922498
0.2790919852
0.2790915003
0.2790925984
0.279092919
0.279090638
0.2790916373
0.2790914799
0.2790930675
0.2790922422
0.2790919888
0.2790915213
0.2790926034
0.2790929154
0.2790906041
0.2790916892
0.2790914681
0.2790930762
0.2790922388
0.2790919953
0.2790914998
0.279092597
0.279092914
0.2790906026
0.2790916785
0.279091515
0.2790931428
0.2790922622
0.2790920643
0.2790914956
0.279092616
0.2790929306
0.279090615
0.2790917106
0.2790916223
0.2790932463
0.2790923305
0.2790921332
0.2790915418
0.2790926247
0.2790929339
0.2790906491
0.2790918235
0.2790917987
0.2790934922
0.2790925216
0.2790922414
0.2790916106
0.2790926561
)
;
    }
    inlet
    {
        type            calculated;
        value           nonuniform List<scalar> 
81
(
0.2790914487
0.2790900111
0.2790911268
0.279092745
0.2790926642
0.2790914541
0.2790915106
0.2790922979
0.2790912753
0.279091178
0.2790935639
0.2790938931
0.2790905169
0.2790897535
0.2790918457
0.2790925766
0.2790909407
0.2790914876
0.2790911674
0.2790897535
0.2790909764
0.2790911212
0.2790910977
0.2790918408
0.2790929607
0.2790929896
0.2790918937
0.2790921854
0.2790927088
0.2790919998
0.279090534
0.2790942351
0.2790919747
0.2790924135
0.2790908424
0.2790925025
0.2790916327
0.2790911363
0.279090771
0.279093352
0.2790899448
0.2790918346
0.279090757
0.2790903138
0.2790922608
0.2790907218
0.2790916726
0.2790910936
0.2790920801
0.279090658
0.2790926075
0.2790921681
0.2790903481
0.2790914955
0.279092449
0.2790929
0.2790916886
0.2790912853
0.2790910823
0.2790918753
0.2790919763
0.2790914515
0.2790918187
0.2790917844
0.2790921241
0.2790923871
0.2790918508
0.2790910806
0.2790910848
0.2790937949
0.2790941226
0.2790924549
0.2790928781
0.2790906839
0.2790916971
0.2790914842
0.2790930298
0.2790922162
0.2790920302
0.2790914448
0.279092594
)
;
    }
    outlet
    {
        type            calculated;
        value           nonuniform 0();
    }
    procBoundary0to1
    {
        type            processor;
        value           nonuniform List<scalar> 
97
(
0.2790916735
0.2790913499
0.2790903875
0.279091758
0.2790940366
0.2790942989
0.2790928187
0.2790922106
0.2790927349
0.2790915169
0.2790913499
0.2790913499
0.2790943965
0.2790906198
0.279095583
0.2790940035
0.2790946891
0.2790951371
0.2790942745
0.279091749
0.2790919778
0.2790916009
0.2790906198
0.2790906198
0.2790954959
0.2790985671
0.2791019176
0.2791100862
0.2791026901
0.2790974809
0.2790947173
0.279092704
0.2790928892
0.2790945898
0.2790985671
0.2790985671
0.2791224499
0.2791600589
0.2791681798
0.2791239511
0.279103139
0.2790941594
0.2790938476
0.2790926304
0.2790941107
0.2791035389
0.2791600589
0.2791600589
0.2800081767
0.2791574442
0.279165925
0.2791148726
0.2791096918
0.2790952727
0.2790939398
0.2790912222
0.2790936755
0.2790974607
0.2791143495
0.2791574442
0.2791148726
0.2791148726
0.2791028446
0.2790946992
0.2790936878
0.2790928565
0.2790928615
0.2790938253
0.2790942521
0.2790977091
0.2791039221
0.2790982753
0.2790946992
0.2790946992
0.2790933062
0.279094488
0.2790925664
0.2790920429
0.279092514
0.279093308
0.2790938561
0.2790940529
0.2790930163
0.2790946633
0.279094488
0.279094488
0.2790928431
0.2790927345
0.2790930139
0.2790907868
0.2790920605
0.2790921769
0.2790940278
0.279092933
0.2790924417
0.2790917199
0.2790927345
)
;
    }
}


// ************************************************************************* //
