/*--------------------------------*- C++ -*----------------------------------*\
| =========                 |                                                 |
| \\      /  F ield         | OpenFOAM: The Open Source CFD Toolbox           |
|  \\    /   O peration     | Version:  4.x                                   |
|   \\  /    A nd           | Web:      www.OpenFOAM.org                      |
|    \\/     M anipulation  |                                                 |
\*---------------------------------------------------------------------------*/
FoamFile
{
    version     2.0;
    format      ascii;
    class       volScalarField;
    location    "10000";
    object      T;
}
// * * * * * * * * * * * * * * * * * * * * * * * * * * * * * * * * * * * * * //

dimensions      [0 0 0 1 0 0 0];

internalField   nonuniform List<scalar> 
1175
(
1223.151479
1223.151437
1223.151459
1223.151469
1223.151441
1223.151436
1223.15146
1223.151536
1223.151427
1223.151212
1223.151306
1223.151467
1223.15142
1223.151419
1223.151487
1223.15778
1223.157789
1223.157827
1223.157873
1223.157949
1223.157799
1223.157824
1223.157659
1223.157893
1223.157976
1223.157922
1223.157863
1223.157898
1223.157916
1223.157894
1223.15289
1223.152945
1223.153038
1223.153064
1223.152994
1223.153229
1223.153352
1223.153301
1223.15324
1223.15323
1223.153227
1223.153383
1223.153453
1223.153437
1223.153456
1223.145798
1223.145789
1223.145756
1223.14578
1223.14569
1223.145708
1223.145745
1223.145805
1223.145874
1223.145862
1223.145963
1223.145875
1223.145827
1223.145835
1223.145764
1223.146152
1223.146093
1223.146077
1223.146022
1223.146149
1223.146192
1223.146102
1223.146093
1223.146018
1223.146048
1223.14605
1223.146159
1223.14619
1223.146426
1223.146278
1223.151455
1223.151349
1223.151433
1223.151303
1223.151323
1223.15146
1223.151462
1223.151573
1223.151422
1223.15144
1223.151503
1223.151358
1223.151326
1223.151273
1223.151277
1223.151208
1223.151293
1223.151375
1223.151462
1223.151389
1223.151382
1223.151392
1223.151526
1223.151551
1223.15143
1223.151499
1223.15152
1223.151658
1223.151608
1223.151469
1223.147757
1223.147811
1223.147928
1223.1479
1223.148098
1223.148086
1223.148056
1223.148057
1223.148138
1223.14792
1223.147889
1223.147748
1223.147594
1223.147645
1223.147614
1223.152239
1223.152254
1223.152175
1223.152219
1223.152148
1223.152081
1223.152024
1223.151961
1223.152075
1223.15199
1223.152248
1223.152143
1223.152243
1223.152276
1223.152253
1223.152665
1223.15269
1223.152637
1223.152709
1223.152692
1223.152607
1223.152651
1223.152517
1223.152524
1223.152697
1223.152759
1223.152732
1223.152879
1223.152854
1223.142209
1223.142096
1223.14217
1223.142054
1223.142116
1223.142404
1223.142225
1223.141971
1223.142059
1223.142023
1223.142048
1223.141843
1223.141898
1223.141902
1223.141946
1223.140766
1223.140841
1223.140928
1223.140825
1223.140942
1223.140898
1223.141047
1223.141032
1223.141264
1223.14127
1223.14112
1223.141094
1223.140938
1223.140929
1223.14111
1223.155563
1223.155414
1223.155372
1223.155406
1223.155277
1223.155333
1223.155296
1223.155353
1223.155296
1223.155325
1223.15513
1223.155133
1223.155076
1223.154968
1223.155092
1223.158909
1223.158772
1223.158843
1223.158652
1223.158685
1223.15867
1223.158718
1223.158655
1223.158532
1223.158659
1223.158786
1223.158976
1223.158889
1223.158946
1223.159059
1223.149739
1223.149913
1223.149839
1223.149894
1223.14994
1223.150019
1223.149916
1223.150025
1223.149965
1223.15011
1223.149971
1223.150035
1223.150119
1223.1501
1223.150052
1223.146536
1223.146423
1223.146182
1223.146137
1223.146245
1223.146331
1223.1462
1223.146069
1223.146234
1223.14627
1223.146243
1223.146447
1223.146631
1223.146661
1223.146699
1223.153705
1223.153606
1223.153654
1223.153582
1223.153469
1223.153523
1223.153516
1223.153596
1223.153519
1223.153488
1223.153569
1223.153559
1223.153799
1223.153519
1223.153403
1223.151309
1223.151335
1223.151368
1223.151229
1223.151247
1223.151145
1223.151008
1223.150961
1223.151107
1223.151208
1223.150911
1223.150863
1223.150948
1223.150862
1223.150706
1223.152712
1223.152727
1223.152665
1223.15279
1223.152827
1223.152754
1223.152716
1223.152658
1223.152352
1223.152409
1223.152478
1223.152528
1223.152531
1223.152487
1223.158909
1223.15897
1223.159098
1223.15914
1223.159251
1223.159168
1223.159088
1223.159132
1223.159229
1223.159214
1223.159527
1223.159371
1223.159378
1223.159257
1223.153549
1223.153372
1223.153475
1223.153584
1223.153468
1223.153539
1223.153645
1223.153715
1223.153651
1223.15366
1223.153642
1223.153666
1223.153684
1223.153642
1223.15369
1223.152914
1223.152679
1223.15267
1223.152663
1223.152707
1223.15275
1223.15284
1223.152721
1223.152703
1223.152728
1223.152699
1223.152823
1223.152911
1223.152653
1223.152751
1223.153017
1223.153008
1223.153025
1223.153002
1223.152933
1223.153
1223.153047
1223.152878
1223.152888
1223.152821
1223.152833
1223.152785
1223.152749
1223.152727
1223.152656
1223.149761
1223.149622
1223.149532
1223.149653
1223.149809
1223.149851
1223.149876
1223.149793
1223.149784
1223.149727
1223.149682
1223.149433
1223.149396
1223.149329
1223.149488
1223.144853
1223.144897
1223.145129
1223.145151
1223.145256
1223.145231
1223.145151
1223.145156
1223.145324
1223.145163
1223.145158
1223.14512
1223.144982
1223.145039
1223.145049
1223.144726
1223.144714
1223.144695
1223.144634
1223.144692
1223.144632
1223.144474
1223.144731
1223.144658
1223.144418
1223.144552
1223.144554
1223.144616
1223.144748
1223.144738
1223.149529
1223.149493
1223.149622
1223.149583
1223.149518
1223.149567
1223.149484
1223.149445
1223.149447
1223.149459
1223.149374
1223.14942
1223.149422
1223.14938
1223.149386
1223.14825
1223.148396
1223.148377
1223.148289
1223.148146
1223.148136
1223.148099
1223.148119
1223.148164
1223.148172
1223.148149
1223.14825
1223.148255
1223.148393
1223.145957
1223.145917
1223.146119
1223.146183
1223.146153
1223.146216
1223.146147
1223.146194
1223.146151
1223.145973
1223.145952
1223.145995
1223.14596
1223.146009
1223.149064
1223.149057
1223.148869
1223.148837
1223.148952
1223.149032
1223.148974
1223.148863
1223.148875
1223.148873
1223.148732
1223.148687
1223.148906
1223.1488
1223.155488
1223.155417
1223.155483
1223.15566
1223.155561
1223.15553
1223.155498
1223.15553
1223.155702
1223.155621
1223.155651
1223.155669
1223.15574
1223.155854
1223.156004
1223.139267
1223.139275
1223.139405
1223.139219
1223.139268
1223.139353
1223.139431
1223.139584
1223.139596
1223.139623
1223.139567
1223.139593
1223.139525
1223.139861
1223.139221
1223.149174
1223.149168
1223.149171
1223.149282
1223.149149
1223.149181
1223.149298
1223.149313
1223.149327
1223.149442
1223.149212
1223.149379
1223.149282
1223.149443
1223.149632
1223.147251
1223.147457
1223.147451
1223.147372
1223.147319
1223.147291
1223.147472
1223.147473
1223.147578
1223.147502
1223.147451
1223.147413
1223.147373
1223.147375
1223.147311
1223.154136
1223.154071
1223.154149
1223.154305
1223.154344
1223.154318
1223.154439
1223.154427
1223.154568
1223.154531
1223.154348
1223.154446
1223.154495
1223.154483
1223.15475
1223.146861
1223.146781
1223.146872
1223.146906
1223.14687
1223.14691
1223.146771
1223.146717
1223.146785
1223.1467
1223.14688
1223.146901
1223.146919
1223.146717
1223.146776
1223.150673
1223.150779
1223.150616
1223.150604
1223.150774
1223.150763
1223.150657
1223.150748
1223.150805
1223.150843
1223.150711
1223.150673
1223.150554
1223.150521
1223.152848
1223.15276
1223.153025
1223.15302
1223.152922
1223.152984
1223.153028
1223.152822
1223.152722
1223.152613
1223.152806
1223.152694
1223.152638
1223.152676
1223.154449
1223.154457
1223.154455
1223.154453
1223.15445
1223.154464
1223.154417
1223.154483
1223.15436
1223.154355
1223.154353
1223.154488
1223.154511
1223.154594
1223.143138
1223.143271
1223.143286
1223.143378
1223.143144
1223.142988
1223.142964
1223.14298
1223.142886
1223.142826
1223.14287
1223.142971
1223.142928
1223.14311
1223.15807
1223.158203
1223.158209
1223.157988
1223.158071
1223.157939
1223.157808
1223.157764
1223.157756
1223.157826
1223.15799
1223.157949
1223.157891
1223.158159
1220.258232
1223.149788
1223.149937
1223.149861
1223.149849
1223.150054
1223.149982
1223.150158
1223.150141
1223.150189
1223.150208
1223.150226
1223.150206
1223.150152
1223.150242
1223.149299
1223.15451
1223.154398
1223.154306
1223.154202
1223.154249
1223.154135
1223.15416
1223.15422
1223.154206
1223.154341
1223.154244
1223.154291
1223.154277
1223.154443
1223.154199
1223.156453
1223.15653
1223.15648
1223.156594
1223.15646
1223.156467
1223.156409
1223.156508
1223.156525
1223.156609
1223.156558
1223.156422
1223.156479
1223.156437
1223.156465
1223.14792
1223.147806
1223.147913
1223.147714
1223.147527
1223.147536
1223.147553
1223.147592
1223.147648
1223.147679
1223.147708
1223.147803
1223.147807
1223.147858
1223.148002
1223.154665
1223.154697
1223.154807
1223.154905
1223.154941
1223.15504
1223.154883
1223.154903
1223.154931
1223.155043
1223.155179
1223.155353
1223.155521
1223.15557
1223.150498
1223.150365
1223.150398
1223.150222
1223.150279
1223.150252
1223.150052
1223.150085
1223.150182
1223.150237
1223.150107
1223.15018
1223.150114
1223.150022
1223.153035
1223.152928
1223.152902
1223.15303
1223.152837
1223.15301
1223.153059
1223.15318
1223.153315
1223.153499
1223.153543
1223.153535
1223.153602
1223.153583
1223.148712
1223.148839
1223.148789
1223.14877
1223.14876
1223.148707
1223.148814
1223.148754
1223.14861
1223.148567
1223.14868
1223.148672
1223.148624
1223.148754
1223.154944
1223.154948
1223.154871
1223.154775
1223.154741
1223.154727
1223.154614
1223.154742
1223.154664
1223.154613
1223.154506
1223.15445
1223.154547
1223.154452
1223.1464
1223.146604
1223.146322
1223.146381
1223.14626
1223.146452
1223.146482
1223.146572
1223.14654
1223.146598
1223.146579
1223.146525
1223.146358
1223.146541
1223.148326
1223.148405
1223.148353
1223.148421
1223.148489
1223.148502
1223.148415
1223.148441
1223.148579
1223.148499
1223.148375
1223.148505
1223.148438
1223.148405
1223.148508
1223.156302
1223.156461
1223.156388
1223.156437
1223.156451
1223.156361
1223.15624
1223.156241
1223.156399
1223.15644
1223.156602
1223.15648
1223.156594
1223.156546
1223.156687
1223.151274
1223.151266
1223.151322
1223.151288
1223.151242
1223.151256
1223.151219
1223.151216
1223.151289
1223.151224
1223.151318
1223.151392
1223.15135
1223.1511
1223.150923
1223.147095
1223.147093
1223.147226
1223.147287
1223.147266
1223.147173
1223.147294
1223.147295
1223.147359
1223.14732
1223.14742
1223.147259
1223.147353
1223.147176
1223.145119
1223.144994
1223.145031
1223.145179
1223.145317
1223.145434
1223.145344
1223.145323
1223.145347
1223.145129
1223.145311
1223.145379
1223.145153
1223.145265
1223.150428
1223.150406
1223.150613
1223.150614
1223.150641
1223.150636
1223.150677
1223.150543
1223.150389
1223.150484
1223.150422
1223.150255
1223.150488
1223.150431
1223.152195
1223.152276
1223.15239
1223.152472
1223.152413
1223.152586
1223.152391
1223.152403
1223.152656
1223.15263
1223.152754
1223.152918
1223.152844
1223.152825
1223.153085
1223.152822
1223.152863
1223.152945
1223.152943
1223.152876
1223.152893
1223.152762
1223.152594
1223.15268
1223.152646
1223.152687
1223.152683
1223.152663
1223.149609
1223.149811
1223.149887
1223.149961
1223.149959
1223.150028
1223.150016
1223.149878
1223.150099
1223.15008
1223.150212
1223.150255
1223.150274
1223.150169
1223.149167
1223.149149
1223.149238
1223.149108
1223.148989
1223.149063
1223.148893
1223.148643
1223.148564
1223.148489
1223.148482
1223.148482
1223.148491
1223.148348
1223.151467
1223.151369
1223.15114
1223.151073
1223.151093
1223.151042
1223.151016
1223.151128
1223.151234
1223.151154
1223.151164
1223.151118
1223.151013
1223.15105
1223.15104
1223.149857
1223.149769
1223.149931
1223.150016
1223.149991
1223.150009
1223.149993
1223.14991
1223.149972
1223.149867
1223.150084
1223.15021
1223.150128
1223.150155
1223.150109
1223.150008
1223.150067
1223.150105
1223.150089
1223.14989
1223.149907
1223.149967
1223.149955
1223.149865
1223.149969
1223.149759
1223.149594
1223.149638
1223.149713
1223.148519
1223.148492
1223.148481
1223.148444
1223.148459
1223.148628
1223.148602
1223.148563
1223.148749
1223.148648
1223.148751
1223.148777
1223.148718
1223.148667
1223.147367
1223.147352
1223.147387
1223.147338
1223.147371
1223.147307
1223.147224
1223.147088
1223.14688
1223.146949
1223.147174
1223.147238
1223.14716
1223.147291
1223.149717
1223.149844
1223.149969
1223.149889
1223.149895
1223.149757
1223.14965
1223.149617
1223.14968
1223.149636
1223.14951
1223.149317
1223.149413
1223.149412
1223.153092
1223.153322
1223.153124
1223.153137
1223.153101
1223.153073
1223.153191
1223.153216
1223.153127
1223.153152
1223.152987
1223.152927
1223.152969
1223.152834
1223.153074
1223.152789
1223.152826
1223.152967
1223.153085
1223.153056
1223.153082
1223.152984
1223.152999
1223.15303
1223.153054
1223.153156
1223.153018
1223.153057
1223.141197
1223.141259
1223.141413
1223.141448
1223.14144
1223.141495
1223.141531
1223.141677
1223.141494
1223.141723
1223.141682
1223.141737
1223.141592
1223.141547
1223.13976
1223.139701
1223.139742
1223.13984
1223.139843
1223.139968
1223.139971
1223.139981
1223.13996
1223.140009
1223.140072
1223.140074
1223.139829
1223.139712
1223.147069
1223.147056
1223.147041
1223.147051
1223.147159
1223.147175
1223.147123
1223.147316
1223.147182
1223.147063
1223.146987
1223.146976
1223.146937
1223.146914
1223.146991
1223.145215
1223.145074
1223.145154
1223.145061
1223.145074
1223.145095
1223.145004
1223.145039
1223.145105
1223.14504
1223.145066
1223.145099
1223.145093
1223.145224
1223.154831
1223.154686
1223.154754
1223.15471
1223.154678
1223.154617
1223.154647
1223.154729
1223.154855
1223.15504
1223.155205
1223.155255
1223.155313
1223.155415
1223.15039
1223.150433
1223.15041
1223.150575
1223.15059
1223.150619
1223.150662
1223.15071
1223.150762
1223.150665
1223.150466
1223.150593
1223.150664
1223.150662
1223.151323
1223.151265
1223.151284
1223.151354
1223.151365
1223.151315
1223.151413
1223.151259
1223.151368
1223.151361
1223.151455
1223.151379
1223.151265
1223.151348
1223.14455
1223.144615
1223.144677
1223.14461
1223.144529
1223.144469
1223.144575
1223.144482
1223.144451
1223.144406
1223.144419
1223.144287
1223.144288
1223.144338
1223.148115
1223.148216
1223.148175
1223.148211
1223.148114
1223.14801
1223.148192
1223.148085
1223.147973
1223.14802
1223.148078
1223.148104
1223.148161
1223.14818
1223.148931
1223.148967
1223.148858
1223.148933
1223.149029
1223.149221
1223.149116
1223.149124
1223.149131
1223.149125
1223.149124
1223.148902
1223.148812
1223.14883
1223.151496
1223.151661
1223.15158
1223.151422
1223.151379
1223.15136
1223.151302
1223.151339
1223.151255
1223.151168
1223.151279
1223.151342
1223.151251
1223.151201
1223.146459
1223.146383
1223.146341
1223.146393
1223.146442
1223.146569
1223.146541
1223.146482
1223.146442
1223.146424
1223.146462
1223.146406
1223.146434
1223.146441
)
;

boundaryField
{
    top
    {
        type            zeroGradient;
    }
    bottom
    {
        type            zeroGradient;
    }
    side-walls
    {
        type            zeroGradient;
    }
    inlet
    {
        type            zeroGradient;
    }
    outlet
    {
        type            zeroGradient;
    }
    procBoundary0to1
    {
        type            processor;
        value           nonuniform List<scalar> 
97
(
1223.151533
1223.15284
1223.157898
1223.153504
1223.145881
1223.146419
1223.151218
1223.15152
1223.14761
1223.152219
1223.15284
1223.15284
1223.141974
1223.159235
1223.140916
1223.155204
1223.159153
1223.150236
1223.14665
1223.153576
1223.150929
1223.15261
1223.159235
1223.159235
1223.153541
1223.148824
1223.152648
1223.152561
1223.149261
1223.144841
1223.14471
1223.149358
1223.14827
1223.146128
1223.148824
1223.148824
1223.156153
1223.142278
1223.139363
1223.149572
1223.147294
1223.154521
1223.146709
1223.150385
1223.15271
1223.154449
1223.142278
1223.142278
1220.258711
1223.153735
1223.149243
1223.146474
1223.154291
1223.156595
1223.147993
1223.155576
1223.150135
1223.153672
1223.148765
1223.153735
1223.146474
1223.146474
1223.148585
1223.148476
1223.156588
1223.151052
1223.147085
1223.145186
1223.150435
1223.152583
1223.15277
1223.150102
1223.148476
1223.148476
1223.150894
1223.13998
1223.149961
1223.149803
1223.148631
1223.147453
1223.149344
1223.152963
1223.153024
1223.141514
1223.13998
1223.13998
1223.147136
1223.146384
1223.14516
1223.155308
1223.150596
1223.151392
1223.144261
1223.148078
1223.148925
1223.151219
1223.146384
)
;
    }
}


// ************************************************************************* //
