/*--------------------------------*- C++ -*----------------------------------*\
| =========                 |                                                 |
| \\      /  F ield         | OpenFOAM: The Open Source CFD Toolbox           |
|  \\    /   O peration     | Version:  4.x                                   |
|   \\  /    A nd           | Web:      www.OpenFOAM.org                      |
|    \\/     M anipulation  |                                                 |
\*---------------------------------------------------------------------------*/
FoamFile
{
    version     2.0;
    format      ascii;
    class       volVectorField;
    location    "10000";
    object      U;
}
// * * * * * * * * * * * * * * * * * * * * * * * * * * * * * * * * * * * * * //

dimensions      [0 1 -1 0 0 0 0];

internalField   nonuniform List<vector> 
1175
(
(0.01100000036 1.366983577e-09 3.835825421e-10)
(0.01100000081 9.668528588e-10 -5.211863509e-12)
(0.01099999994 5.448462136e-10 3.83152545e-10)
(0.01100000145 -4.215548954e-10 3.84361138e-09)
(0.01100000156 2.279564264e-10 2.022257785e-09)
(0.01100000336 9.627517755e-10 -2.296212916e-10)
(0.01100000504 -1.246219023e-09 -5.575564659e-10)
(0.01100000583 7.550430022e-11 -2.840088877e-10)
(0.01100000974 9.007763397e-10 -3.042379418e-09)
(0.01100001601 -7.040040757e-10 -5.03554654e-09)
(0.01100002509 -3.267057228e-10 -3.801734685e-09)
(0.01100003664 -4.409516256e-09 -5.429568884e-09)
(0.01100005988 -3.033697197e-09 -5.233076967e-09)
(0.01100007239 -4.352508055e-09 -5.288642696e-09)
(0.01100010442 -9.474422235e-09 -8.396239722e-09)
(0.01099999996 7.704037487e-10 2.646362278e-10)
(0.01099999955 2.156681602e-09 -2.179974531e-09)
(0.01100000087 1.471607554e-09 -1.630600863e-09)
(0.01100000087 -1.712895518e-10 1.580433261e-09)
(0.01100000252 7.557655218e-10 1.458983542e-09)
(0.01100000193 1.724060471e-10 -3.010574685e-09)
(0.01100000294 -9.332151192e-10 -1.718612089e-09)
(0.01100000458 -2.948713429e-09 -3.189327037e-09)
(0.01100000783 -3.454855179e-09 -2.523113542e-09)
(0.01100001408 -5.326006842e-09 -3.951736109e-09)
(0.01100002499 -7.967720308e-09 -3.383425563e-09)
(0.01100003323 -1.182638643e-08 -7.416999131e-09)
(0.01100005731 -1.924097369e-08 -6.410402013e-09)
(0.01100006582 -2.118954357e-08 -5.167446292e-09)
(0.0110001095 -4.034543584e-08 -1.168293498e-08)
(0.01100000035 2.021414844e-09 4.464489375e-10)
(0.0109999992 -6.144784163e-10 3.043475318e-10)
(0.0110000015 1.255300608e-09 -2.597955156e-10)
(0.01100000056 1.049361141e-09 2.954133991e-09)
(0.01099999988 1.674225967e-10 4.333416007e-10)
(0.01100000169 -1.366713011e-09 -3.37521096e-09)
(0.01100000218 9.54915352e-10 4.706483491e-10)
(0.01100000376 -3.13961048e-09 -2.280566615e-09)
(0.01100000517 -3.824315567e-09 -4.340370865e-09)
(0.01100001192 -6.885965175e-09 -4.446268623e-09)
(0.01100001678 -9.841421224e-09 -7.701993991e-09)
(0.01100002354 -1.399240354e-08 -1.239031593e-08)
(0.01100004902 -1.974471604e-08 -9.87629683e-09)
(0.0110000492 -1.889529851e-08 -1.326739404e-08)
(0.01100011562 -4.376665867e-08 -3.288259995e-08)
(0.01100000028 -1.47260181e-09 -6.103458769e-10)
(0.01100000066 1.865151538e-10 1.358487815e-09)
(0.01100000082 -5.013837932e-10 -4.15915966e-12)
(0.0109999999 -4.191381129e-10 -2.245771682e-09)
(0.01099999904 1.649781489e-09 -1.78427366e-10)
(0.0109999999 -6.687531769e-10 -1.86735236e-09)
(0.01100000022 -5.220719789e-10 -1.601984779e-09)
(0.01100000192 -1.250017595e-09 -1.424175142e-09)
(0.01100000435 -4.41022793e-09 -1.012636975e-09)
(0.01100000736 -6.558365308e-09 -6.14102023e-09)
(0.01100001489 -1.13127583e-08 -4.083989794e-09)
(0.01100002167 -2.217335261e-08 -1.000599179e-08)
(0.0110000494 -3.149321269e-08 -9.819628808e-09)
(0.01100004113 -4.556987687e-08 -8.076664675e-09)
(0.01100012747 -8.661477204e-08 -3.73668884e-08)
(0.01100000047 -4.362700945e-10 -2.515804967e-10)
(0.01100000052 3.572772552e-10 -3.004899466e-10)
(0.01100000041 7.706483853e-10 2.201129237e-10)
(0.01099999782 1.652066077e-10 -7.686827858e-10)
(0.01100000088 1.393131475e-10 -8.00652605e-10)
(0.01100000059 1.292365838e-09 -1.818326815e-09)
(0.01100000006 2.492788194e-10 -7.369064312e-10)
(0.01100000109 3.304628182e-10 -2.318808462e-09)
(0.01099999848 9.475821657e-10 -3.18731433e-09)
(0.01100000256 -3.892727875e-10 -6.022561301e-09)
(0.01100000115 9.193248278e-10 -9.33742763e-09)
(0.01100000115 -8.253921724e-10 -2.274967704e-08)
(0.01100002076 -1.38905097e-09 -2.411475151e-08)
(0.01099999854 -8.556802041e-11 -5.099725685e-08)
(0.0110001569 3.641505768e-10 -1.157506093e-07)
(0.01100000012 -4.753756324e-11 9.049136586e-10)
(0.01100000019 1.236050907e-09 -1.201221269e-09)
(0.01100000113 1.698814164e-09 6.729962796e-10)
(0.01100000015 1.310489091e-09 -8.352278784e-10)
(0.01100000066 5.47843268e-10 -2.538717334e-09)
(0.01100000157 1.733663489e-09 -7.679077229e-10)
(0.0110000012 1.48469921e-09 7.697113443e-10)
(0.01100000459 3.446195068e-09 -3.440775373e-09)
(0.01100000185 4.789228081e-09 -3.848530521e-09)
(0.0110000077 7.473213646e-09 -3.827319451e-09)
(0.01100001599 1.089576054e-08 -3.395874439e-09)
(0.01100002151 2.257923414e-08 -9.321752017e-09)
(0.01100005221 3.300221454e-08 -6.065042402e-09)
(0.01100004337 4.526275519e-08 -7.666812138e-09)
(0.0110001301 8.62893498e-08 -3.579853531e-08)
(0.01100000012 1.342186258e-09 -5.652112938e-10)
(0.01099999986 1.07266063e-09 5.123518053e-12)
(0.01100000098 -3.824695751e-11 -8.684684503e-11)
(0.01100000114 -3.27259257e-10 -1.363465381e-09)
(0.01099999978 9.715544762e-10 -1.333517303e-09)
(0.01100000138 6.84595033e-10 -2.837152413e-09)
(0.01099999984 1.783935289e-09 -3.362764191e-09)
(0.01100000396 1.445942106e-09 -1.822768987e-09)
(0.01100000882 1.764742085e-09 -1.540524004e-09)
(0.01100001004 6.820470938e-09 -2.915414137e-09)
(0.0110000166 9.531832267e-09 -3.621334398e-09)
(0.01100002241 1.562837881e-08 -9.252165489e-09)
(0.01100004867 2.08493687e-08 -9.801790547e-09)
(0.01100005274 1.971417429e-08 -1.09658748e-08)
(0.01100011743 4.637573566e-08 -3.025869659e-08)
(0.01099999931 1.375559484e-09 2.750526583e-11)
(0.01099999936 -1.007814502e-09 1.719592651e-09)
(0.01100000089 -2.687871863e-10 -4.021283399e-10)
(0.01099999958 1.083376203e-10 -2.886729435e-09)
(0.0110000018 -8.962003348e-10 -9.301045067e-10)
(0.01100000174 -5.689335129e-10 -1.778595934e-09)
(0.01100000138 8.449602258e-10 -1.157624323e-09)
(0.01100000471 2.247501635e-09 -1.555684895e-09)
(0.0110000097 2.724226696e-09 -1.225332255e-09)
(0.01100001463 5.697632996e-09 -9.240240701e-10)
(0.01100002443 8.254279034e-09 -3.23026923e-09)
(0.01100003427 1.379785989e-08 -4.729404926e-09)
(0.01100005685 2.013839978e-08 -7.663293362e-09)
(0.01100006751 2.280067154e-08 -5.596025544e-09)
(0.01100010909 3.991111583e-08 -1.275990479e-08)
(0.011 -1.22721604e-10 4.078584454e-10)
(0.01099999992 1.325420917e-09 -2.301681615e-09)
(0.01100000026 -5.062360025e-10 -3.815832384e-09)
(0.01099999847 -2.299598037e-10 -5.423787524e-10)
(0.01100000145 -1.080423325e-09 2.56358408e-09)
(0.01100000341 -1.423681316e-09 -2.308375522e-10)
(0.01100000197 7.26239199e-10 -1.619096655e-11)
(0.01100000215 -1.273468696e-10 -1.719830062e-09)
(0.01100001074 1.461616801e-09 -1.773469022e-09)
(0.01100001488 1.351776997e-09 1.091568645e-09)
(0.01100002797 2.979985609e-09 -1.436944581e-09)
(0.01100003532 5.175652245e-09 -3.314989676e-09)
(0.01100005985 3.964233513e-09 -6.3149651e-09)
(0.0110000728 3.234531673e-09 -4.267361903e-09)
(0.01100010682 8.027820675e-09 -8.505322407e-09)
(0.01099999972 8.911181458e-10 -2.413193999e-10)
(0.01100000173 2.925909306e-09 -3.981160527e-10)
(0.01100000198 7.858947116e-10 3.692232584e-10)
(0.01100000059 6.304853781e-10 8.095839998e-10)
(0.01100000107 1.120778928e-09 1.514881294e-09)
(0.01100000122 2.439599392e-10 -8.910844031e-10)
(0.01100000555 4.127477774e-10 -3.048962413e-09)
(0.01100000492 -1.582960486e-09 -3.972670332e-09)
(0.01100000684 -1.015273576e-09 -3.395257342e-09)
(0.01100001434 -2.139058924e-09 -6.394121408e-09)
(0.01100002256 -1.84691693e-09 -9.006316933e-09)
(0.01100003313 -3.898381013e-09 -1.358451656e-08)
(0.01100005819 -6.336147852e-09 -1.927089743e-08)
(0.01100006998 -4.627490126e-09 -2.253558621e-08)
(0.01099999979 8.479629857e-10 -1.068672173e-10)
(0.01099999844 1.260977312e-09 -7.757230634e-10)
(0.01100000249 -1.191401337e-09 -3.145912235e-10)
(0.0109999996 -4.080441891e-10 -9.007355642e-10)
(0.01099999795 7.176677692e-10 -1.03695388e-09)
(0.01100000268 -3.013304323e-10 -2.210308754e-09)
(0.01100000293 -9.862521435e-10 -2.613661262e-09)
(0.01100000224 -2.673504408e-09 -3.056336669e-09)
(0.01100000904 -3.416317274e-09 -3.99215901e-09)
(0.01100001172 -8.116787822e-09 -6.686035141e-09)
(0.01100002176 -9.985271932e-09 -1.146174217e-08)
(0.0110000298 -1.594460093e-08 -1.980267705e-08)
(0.01100005727 -2.505689351e-08 -2.636757905e-08)
(0.01100006082 -2.707929987e-08 -2.894802593e-08)
(0.01100011941 -6.153628652e-08 -6.388433891e-08)
(0.01100000146 1.78128113e-09 -4.534948876e-10)
(0.01099999883 8.486267322e-10 -5.884487188e-10)
(0.01100000191 6.708275891e-10 1.228951447e-11)
(0.01100000128 -7.70506861e-10 5.158004669e-11)
(0.01100000062 -2.431030027e-10 -4.947956194e-10)
(0.01100000042 1.198131613e-09 -1.118172912e-09)
(0.01100000183 -7.070606823e-10 -1.776996096e-10)
(0.01100000103 -2.648492483e-09 -3.648942088e-09)
(0.01100000428 -4.817465758e-09 -6.539137165e-09)
(0.01100000915 -1.013672694e-08 -1.211099989e-08)
(0.01100001344 -1.025187971e-08 -1.346287481e-08)
(0.01100001679 -1.92234317e-08 -3.115255299e-08)
(0.01100004086 -2.085367643e-08 -4.27542618e-08)
(0.01100003357 -2.089644877e-08 -6.327608529e-08)
(0.01100013184 -6.895098329e-08 -1.460463487e-07)
(0.01100000044 -4.848039172e-10 -9.763612942e-10)
(0.01099999787 -9.606289718e-10 1.012432391e-10)
(0.01100000049 8.534625275e-10 -3.823075014e-11)
(0.01100000344 -2.559370397e-10 -1.883741848e-10)
(0.01099999936 -3.174127937e-10 -1.045521001e-09)
(0.01099999893 1.639387365e-10 -2.781778759e-10)
(0.01099999945 -8.553292369e-10 -1.833395595e-09)
(0.01100000074 -1.905337946e-09 -3.647279972e-09)
(0.01099999862 -4.523130472e-09 -5.49234713e-09)
(0.01100000719 -8.386337991e-09 -1.387108053e-08)
(0.01100000829 -1.246513585e-08 -1.424427831e-08)
(0.01100001875 -3.305862625e-08 -4.051229481e-08)
(0.01100004693 -4.360433116e-08 -4.00533742e-08)
(0.01100002022 -8.404763967e-08 -7.609871826e-08)
(0.01100014737 -1.720067361e-07 -2.095631995e-07)
(0.01100000098 -4.500043929e-10 1.362759113e-09)
(0.01099999654 -4.178681918e-11 7.106183562e-10)
(0.01100000002 1.247286696e-09 -1.580745473e-10)
(0.01099999906 4.883511638e-10 -9.3976917e-10)
(0.01099999927 -2.505903855e-09 -4.23966329e-10)
(0.01100000081 -1.922161073e-10 -1.380677287e-09)
(0.01099999797 1.497569183e-09 -9.758868333e-10)
(0.01099999867 6.718829166e-10 -5.162129284e-09)
(0.01099999267 -1.328372412e-10 -6.084991966e-09)
(0.01099999577 1.036037844e-09 -1.86771607e-08)
(0.01099998623 -2.526726415e-10 -2.327733834e-08)
(0.01099998533 6.300344659e-10 -7.724264814e-08)
(0.01099998296 1.011238633e-09 -9.474138282e-08)
(0.01099991736 1.336287311e-09 -2.66587248e-07)
(0.01100022285 2.381907685e-09 -5.767426063e-07)
(0.01099999923 -4.732358261e-10 1.697060382e-10)
(0.01100000101 -3.861625432e-11 -1.333574657e-10)
(0.01099999824 1.320255016e-09 -3.813230739e-10)
(0.01099999864 -2.414055297e-10 -1.673418833e-09)
(0.0110000012 1.663148286e-09 -1.928867185e-09)
(0.01100000228 1.334425529e-09 -2.513676676e-09)
(0.0109999976 9.466641147e-10 -2.168283638e-09)
(0.01100000138 2.79923534e-09 -3.871415879e-09)
(0.0110000005 5.253884404e-09 -5.632200535e-09)
(0.01100000645 1.055606355e-08 -1.430659086e-08)
(0.01100000725 1.367791808e-08 -1.37859396e-08)
(0.01100001934 3.38684559e-08 -3.860774397e-08)
(0.01100004783 4.463472675e-08 -3.940163949e-08)
(0.01100002108 8.341316964e-08 -7.541216832e-08)
(0.01100014504 1.713665271e-07 -2.075206172e-07)
(0.01100000104 6.23241649e-11 -9.188098566e-10)
(0.01100000182 1.365814385e-09 -3.017217716e-10)
(0.01099999884 7.491349346e-10 -2.286868872e-10)
(0.01099999752 -5.368024758e-10 -2.32426985e-09)
(0.01099999931 2.639365281e-10 -1.717873407e-09)
(0.01100000215 -7.672070395e-10 -7.467435192e-10)
(0.01100000073 8.080995404e-10 -2.245330603e-09)
(0.0110000002 2.503062093e-09 -2.971138881e-09)
(0.01100000156 3.626459926e-09 -4.479839235e-09)
(0.01100000664 9.120903891e-09 -9.609185254e-09)
(0.01100000949 1.074483599e-08 -1.408021337e-08)
(0.0110000167 2.005786479e-08 -3.027118662e-08)
(0.01100004351 2.243003503e-08 -4.122212937e-08)
(0.01100003169 2.217235661e-08 -6.206692788e-08)
(0.01100013465 7.016607286e-08 -1.455702156e-07)
(0.01100000042 8.206039982e-10 -1.68806833e-09)
(0.01099999993 5.21451697e-10 5.544205349e-11)
(0.01100000095 2.002929542e-10 1.842243107e-09)
(0.0109999988 2.800772786e-10 -2.901115064e-09)
(0.01100000023 -9.686923224e-10 -3.298984669e-09)
(0.01100000204 7.940055999e-10 -2.145465323e-09)
(0.0110000027 1.227408411e-09 -1.875121401e-09)
(0.01100000392 2.754699834e-09 -4.164743792e-09)
(0.0110000066 4.565588041e-09 -3.914534593e-09)
(0.01100001184 5.815611882e-09 -9.004966012e-09)
(0.01100001975 8.119911143e-09 -1.006205506e-08)
(0.01100002963 1.974831109e-08 -1.703831755e-08)
(0.01100005715 2.402524541e-08 -2.619027618e-08)
(0.01100005963 2.845933452e-08 -2.794322892e-08)
(0.01100011856 6.306957142e-08 -6.205395279e-08)
(0.01099999965 1.805138483e-10 -2.569531073e-10)
(0.01099999971 9.230357509e-11 1.05548013e-10)
(0.01100000055 -7.584237807e-10 -5.376645177e-10)
(0.01099999895 4.025174388e-11 -2.184771507e-09)
(0.0110000014 7.902118162e-10 -1.574836966e-09)
(0.01100000181 4.172052115e-10 4.640351877e-10)
(0.011000002 -8.56374093e-10 -1.677583531e-09)
(0.01100000533 3.625622059e-11 -2.876246311e-10)
(0.01100000915 1.491279091e-09 -2.580365121e-09)
(0.01100001481 1.685590174e-09 -6.411510789e-09)
(0.01100002301 2.175905816e-09 -7.294462188e-09)
(0.01100003448 3.306524532e-09 -1.44621612e-08)
(0.01100005878 5.784552425e-09 -2.194290311e-08)
(0.0110000688 4.174379519e-09 -2.16656838e-08)
(0.01100010884 1.339014819e-08 -3.929042692e-08)
(0.01100000026 6.726693599e-10 9.094946771e-10)
(0.01100000124 -4.399494242e-10 -7.176106468e-10)
(0.01099999955 1.279906517e-09 -2.675439947e-09)
(0.01100000037 -1.873086106e-09 -2.906555293e-09)
(0.01100000011 -1.659174581e-09 -1.330848093e-09)
(0.01100000193 2.464813179e-10 -1.096413101e-09)
(0.0110000016 -2.25402175e-09 1.403907239e-10)
(0.0110000048 2.353585972e-09 -2.4600752e-09)
(0.01100000512 7.840792479e-10 -4.522624623e-09)
(0.01100000839 -2.572295734e-09 -7.7009355e-09)
(0.01100001684 -2.610452665e-09 -1.124758665e-08)
(0.01100002272 -6.553857409e-09 -1.559141516e-08)
(0.01100004728 -1.119402018e-08 -2.026180863e-08)
(0.01100005099 -9.037069733e-09 -1.910902271e-08)
(0.01099999747 4.949370054e-10 -2.406899946e-10)
(0.01100000069 4.068640466e-10 6.015419957e-12)
(0.01099999938 -4.564877567e-10 6.013827867e-11)
(0.0109999998 4.744029948e-11 -3.387414658e-09)
(0.01099999939 8.384150247e-10 -3.337918618e-09)
(0.01100000107 3.457884659e-10 -1.137805273e-09)
(0.01100000084 3.667790201e-10 -1.532470946e-09)
(0.01100000217 -2.167848902e-09 -5.320683672e-09)
(0.0110000011 -2.885303185e-09 -6.153102477e-09)
(0.01100000533 -1.050554499e-08 -1.064735974e-08)
(0.01100001197 -1.208472696e-08 -1.230664009e-08)
(0.01100001552 -3.079550801e-08 -1.959764283e-08)
(0.01100004385 -4.100061756e-08 -2.196406554e-08)
(0.01100003155 -6.286830632e-08 -2.414034205e-08)
(0.01100000045 -3.323019631e-10 -9.630093701e-10)
(0.01099999915 1.009872248e-09 -2.662563509e-09)
(0.01099999941 -1.389245918e-09 -5.371237116e-10)
(0.01100000126 4.395709137e-10 -7.60002109e-10)
(0.01099999885 6.150002302e-10 -1.188480903e-09)
(0.01100000088 7.920970976e-10 -3.752168363e-09)
(0.01100000049 -1.262075416e-09 -2.514031932e-09)
(0.01099999953 -3.253408279e-09 -4.483261724e-09)
(0.01099999472 -6.118091721e-09 -5.91595223e-09)
(0.01100000013 -1.277478924e-08 -1.372691077e-08)
(0.01099999513 -1.297847161e-08 -1.413972103e-08)
(0.01099999285 -3.463502288e-08 -3.870996333e-08)
(0.01100000583 -3.381313785e-08 -3.467672304e-08)
(0.0109999581 -6.571505409e-08 -6.992676484e-08)
(0.01100016024 -1.900567556e-07 -1.971734128e-07)
(0.01100000174 9.193707128e-10 -1.929239488e-09)
(0.01099999878 5.770438272e-10 -1.851733994e-09)
(0.01099999977 5.675555302e-10 -2.488008395e-09)
(0.0110000029 -1.946160851e-10 -1.288963983e-09)
(0.01100000051 3.283347647e-10 -2.901490947e-09)
(0.01099999807 2.308846674e-10 -3.691201393e-09)
(0.01099999725 -2.694988514e-09 -3.686162371e-09)
(0.01099999842 -4.444562791e-09 -7.071782168e-09)
(0.01099999216 -5.863787461e-09 -8.270621256e-09)
(0.01099999989 -1.542292535e-08 -1.48486297e-08)
(0.01099998455 -2.107482594e-08 -1.112357569e-08)
(0.01100000034 -7.011399568e-08 -4.297470749e-08)
(0.01099998794 -8.457794579e-08 3.203337615e-09)
(0.01099992446 -2.532093801e-07 -4.943622381e-08)
(0.01100014226 -5.26497964e-07 -2.34217529e-07)
(0.01099999972 5.345532209e-10 -1.209113437e-09)
(0.01099999788 -6.762383468e-10 -1.580023692e-09)
(0.01099999816 1.618900376e-09 -3.56131666e-09)
(0.01099999846 -1.376165235e-09 -1.63959621e-09)
(0.01099999921 -2.30506683e-09 -1.886108255e-09)
(0.01099999965 4.992979669e-10 -4.254228836e-09)
(0.01099999543 7.790064201e-10 -4.891964843e-09)
(0.01099999628 5.755638687e-10 -7.70131022e-09)
(0.01099998315 4.305550211e-10 -8.39724677e-09)
(0.01099998154 1.38243814e-09 -2.901835221e-08)
(0.0109999345 2.075747405e-11 -2.307020114e-08)
(0.01099992966 2.202961168e-10 -1.212870594e-07)
(0.01099977622 7.162706523e-11 -7.936104124e-08)
(0.01099961956 2.233409408e-10 -4.954860295e-07)
(0.0110002364 2.417707181e-09 -1.018956673e-06)
(0.01100000115 -1.315175196e-09 -6.882484524e-10)
(0.01099999953 -1.199048249e-10 6.269273591e-10)
(0.01099999795 -3.295921447e-10 -1.594021887e-09)
(0.01099999847 -2.513928608e-10 -2.115030013e-09)
(0.01100000111 -1.573210911e-10 -1.200795544e-09)
(0.01100000165 1.566835917e-09 -3.643547458e-09)
(0.01099999774 2.069999308e-09 -2.509939645e-09)
(0.01099999893 4.483963457e-09 -5.853407292e-09)
(0.01099999418 5.131325866e-09 -4.650851894e-09)
(0.01099999895 1.405154698e-08 -1.59684194e-08)
(0.01099998646 2.091455959e-08 -9.661362355e-09)
(0.01099999894 7.073005936e-08 -4.230255026e-08)
(0.01099998549 8.761837875e-08 1.890747443e-09)
(0.0109999274 2.533200214e-07 -4.92143545e-08)
(0.01100014285 5.267976945e-07 -2.334629022e-07)
(0.0110000005 3.489694891e-10 -3.711352347e-10)
(0.01099999904 -3.767586568e-10 -1.227529151e-09)
(0.01100000068 -7.976268046e-10 -3.026783095e-09)
(0.01100000008 5.950637858e-10 -1.030252487e-09)
(0.01100000107 1.254279919e-10 -1.300464439e-09)
(0.01100000024 -7.298111571e-10 -1.863582701e-09)
(0.01099999873 1.42658123e-09 -7.561908225e-10)
(0.01100000004 4.236789558e-09 -3.993766472e-09)
(0.0109999983 4.042636624e-09 -6.271962713e-09)
(0.0110000012 1.341041246e-08 -1.386925041e-08)
(0.01099999409 1.228163733e-08 -1.282686647e-08)
(0.01099999417 3.781377384e-08 -3.662575808e-08)
(0.01100000563 3.420944698e-08 -3.45400482e-08)
(0.01099995921 6.878200139e-08 -6.843568065e-08)
(0.01100016364 1.94996348e-07 -1.947643736e-07)
(0.01099999993 9.29645683e-10 -2.054515866e-10)
(0.01099999914 5.58462036e-10 -1.226622497e-09)
(0.01099999796 2.105014261e-09 -2.326631012e-09)
(0.0109999978 -8.648745762e-11 -1.436553273e-09)
(0.01100000274 1.005764066e-09 -1.936758222e-09)
(0.01100000176 4.764878938e-10 -1.983588683e-09)
(0.01100000035 1.526778749e-09 -1.784352624e-09)
(0.0110000033 2.914630156e-09 -1.731622335e-09)
(0.01100000251 5.373098479e-09 -3.614864689e-09)
(0.0110000065 9.98842246e-09 -9.438663226e-09)
(0.01100001112 1.493180248e-08 -9.489041686e-09)
(0.011000016 3.05691267e-08 -1.960009261e-08)
(0.01100004344 4.049630245e-08 -1.977320573e-08)
(0.0110000318 6.216469462e-08 -2.136983093e-08)
(0.01100013476 1.451922924e-07 -7.091313938e-08)
(0.01100000072 -4.723939353e-10 -4.541967123e-10)
(0.01099999961 1.058750439e-09 -8.410869083e-10)
(0.0109999991 -8.132560466e-10 -4.444280449e-10)
(0.01099999891 -2.560147944e-10 -1.99766841e-09)
(0.01100000286 2.469666863e-10 -1.140547158e-09)
(0.01100000327 8.617953566e-10 -1.436100418e-09)
(0.01100000248 1.48986545e-09 8.304922028e-10)
(0.01100000343 7.764916747e-10 -1.008646627e-09)
(0.01100000513 1.381762267e-09 -3.537922084e-09)
(0.01100001209 3.703087801e-09 -5.554498346e-09)
(0.01100001667 5.644177154e-09 -7.589419804e-09)
(0.01100002294 8.059328598e-09 -1.517602443e-08)
(0.01100005095 8.608792986e-09 -1.982942838e-08)
(0.0110000515 1.149871073e-08 -1.910013225e-08)
(0.01100011859 3.089906404e-08 -4.469416982e-08)
(0.01099999858 5.253637084e-10 3.538344227e-10)
(0.010999999 8.468635e-11 -1.215464181e-09)
(0.0110000008 -4.899990115e-10 -1.897445676e-09)
(0.01100000176 1.160623211e-09 -1.716093346e-09)
(0.01100000256 -1.163485542e-09 -8.924640542e-10)
(0.01100000024 1.319751622e-10 -1.567618078e-09)
(0.01100000019 -1.041653256e-09 -2.440352106e-09)
(0.01100000234 -2.041148411e-09 -3.135815336e-09)
(0.01100000593 -1.931004875e-09 -3.631569019e-09)
(0.01100000676 -5.738265746e-09 -5.953373813e-09)
(0.01100001375 -3.803016838e-09 -9.458182871e-09)
(0.01100002214 -9.645229058e-09 -2.139432252e-08)
(0.01100005004 -5.43660268e-09 -3.067362119e-08)
(0.01100004414 -8.205531091e-09 -4.393807192e-08)
(0.01099999955 -9.779226624e-10 -1.077335887e-10)
(0.01099999602 4.220977521e-10 -1.46454589e-09)
(0.01100000037 1.905365536e-09 -2.477871053e-09)
(0.01099999945 1.585055974e-09 -9.995347377e-10)
(0.01100000215 -3.267658659e-10 -6.96236326e-11)
(0.01100000091 -2.640295735e-11 -1.49269051e-09)
(0.0109999988 -1.168270696e-09 -1.010480486e-09)
(0.01100000218 -3.925974649e-09 -3.621740089e-09)
(0.01100000118 -5.965643284e-09 -5.443642477e-09)
(0.01100000632 -1.385873211e-08 -9.776856866e-09)
(0.01100000762 -1.514766137e-08 -1.378904419e-08)
(0.01100001919 -3.791238828e-08 -3.477297435e-08)
(0.01100004592 -3.903744979e-08 -4.628475679e-08)
(0.0110000213 -7.650412376e-08 -8.387541824e-08)
(0.01099999981 -7.840868839e-10 -2.402890459e-10)
(0.0110000011 -1.076710818e-09 -1.338564123e-09)
(0.01100000145 1.30941357e-10 -5.39280366e-10)
(0.01100000023 8.450112425e-10 -2.457225225e-10)
(0.01099999853 2.252856774e-10 -1.634250997e-09)
(0.01100000051 -1.235070944e-09 -2.405760176e-09)
(0.01099999798 -8.35247558e-10 -3.381866043e-09)
(0.01099999995 -4.137597835e-09 -4.874866978e-09)
(0.01099999129 -4.872636967e-09 -5.518134433e-09)
(0.01100000048 -1.50734475e-08 -1.574835839e-08)
(0.01099998526 -8.58456464e-09 -2.158215304e-08)
(0.0109999957 -4.275511217e-08 -7.106581494e-08)
(0.01099998608 2.012558734e-09 -8.622571705e-08)
(0.0109999269 -4.71727774e-08 -2.528144046e-07)
(0.01100000047 8.250686389e-10 1.056481778e-11)
(0.0109999994 7.256707345e-10 -7.712509881e-11)
(0.01100000116 -5.489328096e-10 1.491059665e-10)
(0.01100000197 -9.55441733e-11 3.317772028e-11)
(0.01099999748 1.400145444e-09 -9.971424661e-10)
(0.01099999965 -3.312869386e-10 -2.341271766e-09)
(0.01099999531 -1.83549245e-10 -1.824995604e-09)
(0.01099999663 -3.925210974e-09 -4.340389278e-09)
(0.01099998865 -5.862757932e-09 -5.913658317e-09)
(0.01100000142 -2.311791078e-08 -2.258662173e-08)
(0.01099997574 -2.28716758e-08 -2.385281982e-08)
(0.01100004523 -1.165655922e-07 -1.174339166e-07)
(0.01099997545 -8.825638494e-08 -9.086820491e-08)
(0.01100003713 -5.09090967e-07 -5.113412024e-07)
(0.01099965632 -9.964219615e-07 -9.998540095e-07)
(0.01100000117 1.980895471e-09 -8.496516425e-10)
(0.01099999867 2.085397857e-09 1.94121841e-11)
(0.01099999882 2.114004016e-09 3.514598869e-10)
(0.01099999956 -6.456045661e-10 -5.025512674e-11)
(0.01099999882 -2.432494575e-09 -2.342191401e-09)
(0.01099999914 7.00192814e-10 -1.516625764e-09)
(0.01099999313 2.298164232e-10 -1.489282429e-09)
(0.01099999338 1.841132765e-09 -7.695289694e-09)
(0.01099997071 2.459571544e-09 -1.022919937e-08)
(0.01099997816 9.206235609e-10 -4.140449815e-08)
(0.01099988271 1.813758542e-09 -5.392249481e-08)
(0.01099994636 8.245804211e-10 -3.114842977e-07)
(0.01099944747 -3.632580563e-10 -3.626502393e-07)
(0.01099960087 7.900418629e-10 -3.045701575e-06)
(0.010998546 1.302496825e-09 -5.247756797e-06)
(0.01100000052 -1.760373993e-10 -7.292335785e-10)
(0.01100000072 4.98745547e-10 -1.539519414e-09)
(0.0109999977 6.566258167e-10 -5.862814842e-10)
(0.0110000004 -2.552356778e-10 7.361713453e-10)
(0.01099999909 1.455672246e-09 -8.097285805e-10)
(0.01099999955 1.591053169e-09 -2.255746275e-09)
(0.0109999971 2.802421626e-09 -2.253649535e-09)
(0.01099999767 5.472347359e-09 -5.43705658e-09)
(0.01099998835 6.415126753e-09 -8.285862651e-09)
(0.01100000441 2.389739481e-08 -2.435840267e-08)
(0.01099997537 2.34817445e-08 -2.383849113e-08)
(0.01100004424 1.174336248e-07 -1.172349136e-07)
(0.0109999758 8.897967638e-08 -9.096787218e-08)
(0.0110000409 5.110129173e-07 -5.095028424e-07)
(0.01099965708 9.982621671e-07 -9.982850566e-07)
(0.01099999909 -7.277014162e-10 7.212626192e-10)
(0.01099999961 -8.74070265e-10 -1.85295289e-09)
(0.01099999962 -1.082616991e-09 -9.940450921e-10)
(0.01100000093 7.846735358e-10 -1.657749219e-10)
(0.01099999838 8.202686625e-10 -1.334146388e-09)
(0.01099999987 1.285455864e-09 -2.168557922e-09)
(0.0109999984 2.579273089e-09 -1.961155104e-09)
(0.01099999885 6.201511799e-09 -3.921073816e-09)
(0.0109999932 5.721732666e-09 -5.086104517e-09)
(0.01099999935 1.604881339e-08 -1.632028703e-08)
(0.01099998421 9.833563107e-09 -2.208261274e-08)
(0.010999998 4.46688781e-08 -7.186245186e-08)
(0.0109999895 -2.866599439e-10 -8.867510475e-08)
(0.01099992633 4.76705805e-08 -2.544578305e-07)
(0.01100013768 2.331045949e-07 -5.297086946e-07)
(0.0109999995 8.442324458e-10 1.763141017e-10)
(0.0109999992 1.659729365e-09 -9.965100905e-10)
(0.01099999898 1.761408747e-09 4.599215953e-11)
(0.0109999998 -7.168244227e-10 -2.199774873e-10)
(0.01099999887 -5.17633946e-10 1.103294082e-09)
(0.01100000248 5.373331104e-10 -1.174923385e-09)
(0.01100000036 2.186819844e-09 -6.738807414e-10)
(0.01100000145 3.366422108e-09 -1.768308132e-09)
(0.01100000021 5.214807526e-09 -2.354136252e-09)
(0.01100000574 1.287204258e-08 -8.217612715e-09)
(0.01100000953 1.422897354e-08 -1.31827954e-08)
(0.01100001871 3.943096903e-08 -3.369793894e-08)
(0.01100004783 3.874371146e-08 -4.549647643e-08)
(0.0110000198 7.717629559e-08 -8.306630624e-08)
(0.01100014832 2.084585851e-07 -1.739684879e-07)
(0.01100000015 1.490162262e-09 2.537551676e-10)
(0.0109999963 1.018378699e-09 -2.900198286e-10)
(0.01099999834 1.083204081e-09 -9.724557841e-10)
(0.01100000024 -4.591623726e-11 -1.496956246e-09)
(0.01100000173 4.378974948e-10 -1.397995229e-09)
(0.01100000427 9.296669825e-10 -1.538133416e-09)
(0.01100000101 1.210411061e-09 -1.465663003e-10)
(0.01100000119 1.578407664e-09 -8.602360684e-10)
(0.01100000375 1.1245099e-09 -1.904693283e-09)
(0.01100000762 4.843220815e-09 -5.260537529e-09)
(0.01100001691 4.208978607e-09 -1.009170076e-08)
(0.01100002375 8.935922804e-09 -2.281038641e-08)
(0.01100005017 7.421098892e-09 -3.243879841e-08)
(0.01100004495 8.311601987e-09 -4.52354889e-08)
(0.01100012937 3.802541836e-08 -8.606313082e-08)
(0.01099999998 1.600639867e-09 -2.518771376e-09)
(0.01099999903 6.996986128e-10 6.584803539e-10)
(0.01099999927 -1.217797237e-09 1.325287991e-10)
(0.01099999942 1.781773962e-10 -8.420802487e-10)
(0.01100000171 1.326243005e-09 -2.664337622e-09)
(0.01100000209 1.4826265e-09 -8.775857573e-10)
(0.01099999782 -2.010747067e-09 -2.611010355e-10)
(0.0110000026 -9.297658058e-10 -9.170524519e-10)
(0.01100000162 -1.989859052e-09 4.969103067e-11)
(0.01100000357 -6.45682639e-09 -6.647921662e-10)
(0.01100000255 -4.912091052e-09 -7.849179881e-10)
(0.01100000253 -1.712225744e-08 -1.743249765e-09)
(0.01100002291 -2.377388604e-08 -9.582944952e-10)
(0.01099999595 -4.80857797e-08 -7.783746944e-10)
(0.01100000049 6.548302337e-10 -3.001527823e-09)
(0.01099999751 1.754582749e-10 -1.147037567e-09)
(0.01100000165 2.102288604e-09 -1.81425708e-09)
(0.01100000266 9.078405983e-10 -3.558403838e-10)
(0.01099999903 9.068622805e-10 -7.747437703e-10)
(0.01100000066 -1.947965397e-10 4.080428157e-10)
(0.0109999988 1.049347548e-09 -7.509116998e-10)
(0.01099999909 -2.640974011e-09 -1.613971964e-10)
(0.01099999685 -7.983080383e-09 1.357180186e-09)
(0.01099999484 -1.953408601e-08 1.23496807e-09)
(0.0109999879 -2.445239505e-08 1.230425939e-09)
(0.01099998479 -7.776708317e-08 5.416607659e-10)
(0.01099998068 -9.504030353e-08 -9.61366411e-10)
(0.01099991667 -2.688970963e-07 -5.556827985e-11)
(0.01099999984 1.391246019e-09 -1.814462177e-09)
(0.01099999994 1.506449066e-09 -9.859930115e-10)
(0.0110000022 1.320844478e-09 -6.049655288e-10)
(0.01099999827 3.052497664e-10 -2.747575231e-09)
(0.01099999748 -1.049583928e-09 -8.927608312e-10)
(0.01099999884 -1.206015302e-09 8.750285144e-10)
(0.01099999443 -2.777794552e-09 -2.002713147e-10)
(0.01099999544 -6.42984229e-09 -7.455024984e-10)
(0.01099998261 -6.624803101e-09 -2.987701013e-10)
(0.01099998213 -2.819617151e-08 4.299955478e-10)
(0.01099993406 -2.35665426e-08 8.525076396e-10)
(0.01099992869 -1.207333439e-07 1.516155081e-09)
(0.01099977422 -7.764850287e-08 -1.062242347e-09)
(0.01099961881 -4.930855452e-07 6.873959125e-10)
(0.01099999851 1.773827128e-11 -2.10622205e-09)
(0.01100000031 1.068971457e-09 -1.587607455e-09)
(0.01099999998 8.638522485e-11 1.328637884e-09)
(0.01100000068 2.230276664e-10 -1.289203169e-10)
(0.01099999829 4.35140912e-10 -4.699475902e-10)
(0.01099999676 -1.103212038e-09 -3.609958498e-10)
(0.01099999261 -1.237157952e-09 -2.251300464e-09)
(0.01099999302 -4.578058543e-09 -2.015843147e-09)
(0.01099997148 -9.250775682e-09 -6.086871536e-10)
(0.01099998023 -3.95224218e-08 -1.338213813e-09)
(0.01099988037 -5.101933441e-08 -6.1358549e-10)
(0.01099994919 -3.095783318e-07 9.328604912e-10)
(0.01099944977 -3.609269812e-07 3.835928136e-10)
(0.01099959998 -3.046066198e-06 2.709568917e-10)
(0.01099999976 2.039742704e-09 -1.160871653e-09)
(0.01099999918 1.415538328e-10 -1.125946461e-09)
(0.0109999997 6.009794048e-10 -2.482551585e-10)
(0.01099999725 -1.301948012e-09 5.511348086e-10)
(0.01099999879 -2.343736791e-09 -1.147458721e-09)