/*--------------------------------*- C++ -*----------------------------------*\
| =========                 |                                                 |
| \\      /  F ield         | OpenFOAM: The Open Source CFD Toolbox           |
|  \\    /   O peration     | Version:  4.x                                   |
|   \\  /    A nd           | Web:      www.OpenFOAM.org                      |
|    \\/     M anipulation  |                                                 |
\*---------------------------------------------------------------------------*/
FoamFile
{
    version     2.0;
    format      ascii;
    class       volScalarField;
    location    "9000";
    object      CO2;
}
// * * * * * * * * * * * * * * * * * * * * * * * * * * * * * * * * * * * * * //

dimensions      [0 0 0 0 0 0 0];

internalField   nonuniform List<scalar> 
1174
(
0.06498279332
0.06498385258
0.06498533241
0.0649872434
0.06498955803
0.06499221927
0.06499515181
0.0649982729
0.06500150082
0.0650047603
0.06500798315
0.06501109779
0.0650139778
0.06501622165
0.0649837678
0.06498543551
0.06498763344
0.06499030223
0.06499334364
0.06499664328
0.06500008819
0.06500357787
0.06500702949
0.06501037855
0.06501357531
0.06501657199
0.06501927481
0.06502134479
0.06498589677
0.06498879225
0.06499233743
0.06499632371
0.06500053294
0.06500477452
0.06500890164
0.06501281305
0.06501644735
0.0650197739
0.06502278252
0.06502546839
0.06502779182
0.06502951877
0.06498897249
0.06499340938
0.06499845041
0.06500372129
0.06500891859
0.06501383094
0.06501833173
0.06502236098
0.06502590578
0.06502898337
0.06503162734
0.06503387361
0.06503573079
0.06503706442
0.06499113319
0.06499640054
0.06500209181
0.06500780414
0.06501325362
0.06501826522
0.06502274943
0.06502667801
0.06503006328
0.0650329419
0.06503536252
0.065037374
0.06503900121
0.06504014918
0.06498897246
0.06499340933
0.06499845035
0.06500372122
0.06500891851
0.06501383086
0.06501833164
0.06502236088
0.06502590567
0.06502898326
0.06503162723
0.0650338735
0.06503573069
0.06503706431
0.06498589671
0.06498879218
0.06499233733
0.06499632359
0.0650005328
0.06500477437
0.06500890147
0.06501281288
0.06501644717
0.06501977371
0.06502278233
0.06502546819
0.06502779162
0.06502951857
0.06498376774
0.06498543543
0.06498763335
0.06499030211
0.0649933435
0.06499664311
0.065000088
0.06500357766
0.06500702927
0.06501037832
0.06501357506
0.06501657173
0.06501927454
0.06502134451
0.06498279328
0.06498385252
0.06498533234
0.06498724332
0.06498955793
0.06499221914
0.06499515166
0.06499827272
0.06500150062
0.06500476008
0.06500798291
0.06501109753
0.06501397753
0.06501622137
0.064982629
0.0649837678
0.06498543551
0.06498763345
0.06499030223
0.06499334365
0.06499664328
0.06500008819
0.06500357787
0.06500702949
0.06501037856
0.06501357531
0.06501657199
0.06501927481
0.06502134479
0.06498592903
0.06498879785
0.06499226035
0.06499610171
0.06500011286
0.06500412237
0.06500800605
0.06501168374
0.06501511044
0.06501826619
0.06502114592
0.06502374503
0.06502601944
0.06502772598
0.06499129833
0.06499676101
0.06500263249
0.06500841616
0.06501378393
0.06501856687
0.06502271332
0.06502624461
0.0650292201
0.0650317136
0.06503379872
0.06503553779
0.06503696058
0.06503797786
0.06500069381
0.06500962735
0.06501801905
0.06502526313
0.0650311727
0.06503580597
0.06503933347
0.06504195745
0.06504387043
0.06504523809
0.06504619522
0.0650468477
0.06504727546
0.06504752473
0.06500940436
0.06502004269
0.06502894837
0.06503592902
0.06504116309
0.06504495145
0.06504760243
0.06504938683
0.06505052594
0.06505119362
0.06505152357
0.06505161878
0.06505156458
0.0650514549
0.06500069367
0.06500962716
0.06501801885
0.06502526291
0.06503117249
0.06503580576
0.06503933327
0.06504195726
0.06504387025
0.06504523792
0.06504619505
0.06504684755
0.06504727531
0.06504752458
0.06499129814
0.06499676078
0.06500263223
0.06500841588
0.06501378363
0.06501856656
0.06502271302
0.06502624431
0.0650292198
0.06503171331
0.06503379844
0.06503553752
0.06503696032
0.0650379776
0.06498592891
0.06498879772
0.06499226019
0.06499610152
0.06500011265
0.06500412213
0.06500800579
0.06501168348
0.06501511016
0.0650182659
0.06502114563
0.06502374473
0.06502601915
0.06502772568
0.06498376775
0.06498543544
0.06498763335
0.06499030212
0.0649933435
0.06499664311
0.06500008799
0.06500357765
0.06500702925
0.0650103783
0.06501357504
0.0650165717
0.06501927451
0.06502134448
0.06498379098
0.06498589677
0.06498879225
0.06499233743
0.06499632371
0.06500053293
0.06500477452
0.06500890163
0.06501281305
0.06501644734
0.06501977389
0.06502278251
0.06502546838
0.06502779181
0.06502951875
0.06498683411
0.06499129834
0.06499676101
0.0650026325
0.06500841617
0.06501378394
0.06501856688
0.06502271333
0.06502624462
0.0650292201
0.0650317136
0.06503379872
0.06503553779
0.06503696058
0.06503797785
0.06500691075
0.06501817709
0.06502823328
0.06503635653
0.06504244257
0.06504671777
0.06504953225
0.06505124259
0.06505215855
0.06505252697
0.06505253457
0.06505231964
0.06505199238
0.06505168165
0.06504108118
0.06505969437
0.06507224988
0.06507942521
0.06508257402
0.06508300773
0.06508175902
0.06507956133
0.06507690274
0.06507409262
0.06507131992
0.06506870354
0.06506635836
0.0650645789
0.06508506351
0.06510314716
0.06511051175
0.06511136308
0.06510863924
0.0651041573
0.06509897552
0.06509368443
0.06508859805
0.06508387105
0.06507957016
0.06507572528
0.06507240171
0.06506993459
0.06504108043
0.06505969359
0.06507224917
0.06507942458
0.06508257347
0.06508300727
0.06508175864
0.065079561
0.06507690246
0.06507409238
0.06507131972
0.06506870336
0.06506635819
0.06506457874
0.06500691009
0.06501817642
0.06502823261
0.06503635587
0.06504244195
0.0650467172
0.06504953172
0.06505124211
0.06505215811
0.06505252658
0.0650525342
0.06505231931
0.06505199206
0.06505168135
0.06499129814
0.06499676076
0.0650026322
0.06500841583
0.06501378357
0.06501856648
0.06502271293
0.06502624421
0.0650292197
0.06503171321
0.06503379833
0.06503553741
0.06503696021
0.06503797749
0.06498589671
0.06498879215
0.0649923373
0.06499632354
0.06500053273
0.06500477428
0.06500890137
0.06501281276
0.06501644703
0.06501977357
0.06502278218
0.06502546804
0.06502779146
0.0650295184
0.06498551124
0.06498897249
0.06499340936
0.06499845039
0.06500372127
0.06500891857
0.06501383092
0.06501833171
0.06502236096
0.06502590575
0.06502898334
0.06503162731
0.06503387358
0.06503573077
0.0650370644
0.0649923716
0.06500069389
0.0650096274
0.06501801911
0.06502526318
0.06503117274
0.06503580599
0.06503933349
0.06504195746
0.06504387043
0.06504523808
0.06504619521
0.06504684769
0.06504727544
0.06504752471
0.06501795416
0.06504108134
0.06505969445
0.06507224993
0.06507942522
0.065082574
0.06508300769
0.06508175897
0.06507956127
0.06507690268
0.06507409256
0.06507131987
0.06506870349
0.0650663583
0.06506457885
0.06515656799
0.06517887966
0.06518155938
0.06517388524
0.06516178475
0.06514852581
0.06513571876
0.06512405052
0.06511373212
0.06510474856
0.06509699316
0.06509034886
0.06508479383
0.06508076239
0.06537940156
0.06534764898
0.06530120943
0.06525740275
0.06522054185
0.06519067822
0.06516671294
0.06514743329
0.06513180717
0.06511902768
0.0651084873
0.06509975435
0.06509262662
0.06508753214
0.06515656548
0.0651788779
0.06518155816
0.0651738844
0.06516178419
0.06514852544
0.06513571851
0.06512405035
0.065113732
0.06510474847
0.06509699309
0.06509034879
0.06508479376
0.06508076231
0.06504108049
0.06505969355
0.06507224905
0.06507942441
0.06508257327
0.06508300705
0.06508175841
0.06507956077
0.06507690224
0.06507409217
0.06507131951
0.06506870317
0.065066358
0.06506457857
0.06500069358
0.065009627
0.06501801863
0.06502526266
0.0650311722
0.06503580546
0.06503933296
0.06504195695
0.06504386994
0.06504523761
0.06504619476
0.06504684726
0.06504727503
0.0650475243
0.06498897241
0.06499340924
0.06499845022
0.06500372104
0.0650089183
0.06501383061
0.06501833137
0.06502236059
0.06502590537
0.06502898295
0.06503162691
0.06503387318
0.06503573036
0.06503706399
0.06498678036
0.06499113316
0.06499640047
0.06500209173
0.06500780406
0.06501325354
0.06501826514
0.06502274935
0.06502667794
0.06503006321
0.06503294183
0.06503536246
0.06503737394
0.06503900116
0.06504014912
0.06499804844
0.06500940429
0.06502004254
0.06502894822
0.06503592888
0.06504116296
0.06504495134
0.06504760233
0.06504938674
0.06505052586
0.06505119355
0.0650515235
0.06505161871
0.06505156452
0.06505145484
0.0650521035
0.06508506347
0.06510314686
0.06511051148
0.06511136285
0.06510863906
0.06510415715
0.06509897539
0.06509368432
0.06508859796
0.06508387097
0.06507957008
0.0650757252
0.06507240164
0.06506993453
0.06534231366
0.06537940078
0.06534764842
0.06530120908
0.06525740254
0.06522054171
0.06519067812
0.06516671287
0.06514743324
0.06513180713
0.06511902763
0.06510848726
0.06509975432
0.06509262658
0.06508753211
0.06632682733
0.06583650166
0.06556725624
0.06541064749
0.06531408663
0.06525110353
0.06520784579
0.06517676204
0.06515355952
0.06513569344
0.06512159672
0.06511029264
0.06510128065
0.0650949338
0.06537940133
0.06534764737
0.06530120814
0.06525740184
0.06522054119
0.06519067772
0.06516671255
0.06514743297
0.0651318069
0.06511902744
0.06510848708
0.06509975416
0.06509262644
0.06508753197
0.06508506314
0.06510314636
0.06511051092
0.0651113623
0.06510863855
0.06510415668
0.06509897497
0.06509368394
0.06508859761
0.06508387064
0.06507956978
0.06507572492
0.06507240137
0.06506993427
0.0650094041
0.06502004225
0.06502894786
0.06503592847
0.06504116251
0.06504495088
0.06504760188
0.06504938629
0.06505052542
0.06505119312
0.06505152309
0.06505161832
0.06505156414
0.06505145446
0.0649911331
0.06499640036
0.06500209157
0.06500780384
0.06501325327
0.06501826482
0.065022749
0.06502667757
0.06503006282
0.06503294143
0.06503536206
0.06503737353
0.06503900074
0.06504014871
0.06498551121
0.06498897245
0.0649934093
0.06499845031
0.06500372117
0.06500891846
0.0650138308
0.06501833159
0.06502236083
0.06502590562
0.06502898321
0.06503162717
0.06503387344
0.06503573063
0.06503706425
0.06499237141
0.0650006936
0.06500962704
0.06501801872
0.06502526278
0.06503117236
0.06503580564
0.06503933316
0.06504195715
0.06504387015
0.06504523782
0.06504619496
0.06504684746
0.06504727523
0.0650475245
0.06501795335
0.06504108042
0.06505969347
0.06507224903
0.06507942444
0.06508257334
0.06508300713
0.0650817585
0.06507956087
0.06507690234
0.06507409226
0.06507131961
0.06506870326
0.06506635809
0.06506457865
0.06510427289
0.06515656526
0.06517887747
0.06518155776
0.06517388406
0.06516178389
0.06514852516
0.06513571827
0.06512405014
0.06511373181
0.06510474831
0.06509699294
0.06509034866
0.06508479364
0.06508076221
0.06534231396
0.06537940051
0.06534764665
0.06530120754
0.06525740133
0.06522054077
0.06519067736
0.06516671225
0.06514743272
0.06513180669
0.06511902725
0.06510848692
0.06509975402
0.06509262632
0.06508753187
0.0651042735
0.06515656531
0.06517887732
0.06518155752
0.06517388376
0.06516178357
0.06514852484
0.06513571796
0.06512404984
0.06511373153
0.06510474804
0.0650969927
0.06509034843
0.06508479343
0.06508076201
0.06504108112
0.06505969377
0.06507224909
0.06507942435
0.06508257316
0.06508300691
0.06508175825
0.0650795606
0.06507690206
0.06507409199
0.06507131933
0.06506870299
0.06506635783
0.06506457839
0.06500069373
0.0650096271
0.06501801869
0.06502526267
0.06503117219
0.06503580541
0.0650393329
0.06504195687
0.06504386985
0.06504523752
0.06504619465
0.06504684715
0.06504727491
0.06504752419
0.06498897246
0.06499340928
0.06499845025
0.06500372106
0.0650089183
0.0650138306
0.06501833134
0.06502236055
0.06502590532
0.06502898289
0.06503162684
0.0650338731
0.06503573028
0.0650370639
0.06498379095
0.0649858967
0.06498879215
0.06499233729
0.06499632355
0.06500053275
0.06500477432
0.06500890142
0.06501281282
0.06501644711
0.06501977365
0.06502278226
0.06502546813
0.06502779156
0.0650295185
0.06498683396
0.06499129812
0.06499676072
0.06500263217
0.06500841581
0.06501378356
0.06501856649
0.06502271294
0.06502624423
0.06502921973
0.06503171324
0.06503379837
0.06503553744
0.06503696024
0.06503797752
0.06499601701
0.06500691001
0.06501817629
0.06502823247
0.06503635573
0.06504244181
0.06504671706
0.06504953159
0.06505124199
0.065052158
0.06505252647
0.0650525341
0.0650523192
0.06505199197
0.06505168126
0.06501795327
0.06504108024
0.06505969322
0.06507224874
0.06507942415
0.06508257305
0.06508300686
0.06508175825
0.06507956063
0.06507690212
0.06507409206
0.06507131941
0.06506870307
0.06506635792
0.06506457848
0.06505210363
0.06508506312
0.06510314625
0.06511051077
0.06511136213
0.06510863837
0.0651041565
0.06509897479
0.06509368376
0.06508859744
0.06508387049
0.06507956963
0.06507572479
0.06507240125
0.06506993416
0.06501795343
0.06504108042
0.06505969338
0.06507224886
0.06507942421
0.06508257306
0.06508300682
0.06508175818
0.06507956054
0.065076902
0.06507409193
0.06507131928
0.06506870294
0.06506635778
0.06506457835
0.0649960173
0.06500691033
0.06501817657
0.06502823269
0.06503635587
0.06504244189
0.06504671708
0.06504953156
0.06505124191
0.06505215789
0.06505252634
0.06505253395
0.06505231904
0.06505199179
0.06505168108
0.06499129831
0.06499676087
0.06500263227
0.06500841586
0.06501378357
0.06501856645
0.06502271286
0.06502624412
0.06502921958
0.06503171307
0.06503379818
0.06503553724
0.06503696002
0.0650379773
0.06498589676
0.06498879221
0.06499233734
0.06499632356
0.06500053273
0.06500477427
0.06500890133
0.0650128127
0.06501644696
0.06501977347
0.06502278206
0.06502546791
0.06502779132
0.06502951825
0.06498262896
0.06498376773
0.06498543541
0.06498763332
0.06499030208
0.06499334346
0.06499664307
0.06500008794
0.0650035776
0.0650070292
0.06501037825
0.06501357499
0.06501657166
0.06501927447
0.06502134444
0.06498381504
0.06498592889
0.06498879768
0.06499226015
0.06499610147
0.0650001126
0.06500412207
0.06500800573
0.06501168341
0.06501511009
0.06501826583
0.06502114556
0.06502374465
0.06502601907
0.0650277256
0.06498683396
0.06499129811
0.0649967607
0.06500263213
0.06500841576
0.0650137835
0.06501856641
0.06502271285
0.06502624414
0.06502921962
0.06503171313
0.06503379826
0.06503553733
0.06503696013
0.06503797741
0.0649923714
0.06500069354
0.06500962693
0.06501801856
0.06502526258
0.06503117212
0.06503580538
0.06503933288
0.06504195687
0.06504386986
0.06504523753
0.06504619468
0.06504684718
0.06504727495
0.06504752423
0.06499804841
0.06500940414
0.06502004228
0.06502894788
0.06503592848
0.06504116251
0.06504495087
0.06504760186
0.06504938627
0.06505052539
0.06505119308
0.06505152305
0.06505161827
0.06505156409
0.06505145441
0.06499237145
0.06500069361
0.06500962701
0.06501801864
0.06502526265
0.06503117218
0.06503580541
0.0650393329
0.06504195687
0.06504386984
0.0650452375
0.06504619463
0.06504684713
0.06504727489
0.06504752416
0.064986834
0.06499129817
0.06499676077
0.06500263219
0.0650084158
0.06501378351
0.0650185664
0.06502271282
0.06502624409
0.06502921955
0.06503171304
0.06503379815
0.06503553722
0.06503696
0.06503797728
0.06498381508
0.06498592895
0.06498879775
0.0649922602
0.06499610151
0.06500011261
0.06500412206
0.0650080057
0.06501168335
0.06501511001
0.06501826573
0.06502114544
0.06502374452
0.06502601892
0.06502772544
0.06498376779
0.06498543547
0.06498763338
0.06499030213
0.0649933435
0.06499664309
0.06500008795
0.06500357759
0.06500702917
0.06501037819
0.06501357491
0.06501657155
0.06501927434
0.06502134429
0.06498210411
0.06498279327
0.06498385251
0.06498533232
0.06498724328
0.06498955788
0.06499221909
0.0649951516
0.06499827266
0.06500150055
0.06500476
0.06500798283
0.06501109745
0.06501397744
0.06501622128
0.06498262896
0.06498376774
0.06498543541
0.06498763332
0.06499030207
0.06499334345
0.06499664306
0.06500008793
0.06500357758
0.06500702918
0.06501037822
0.06501357496
0.06501657162
0.06501927443
0.06502134439
0.06498379094
0.06498589669
0.06498879213
0.06499233726
0.0649963235
0.06500053269
0.06500477424
0.06500890132
0.06501281271
0.06501644698
0.06501977351
0.06502278211
0.06502546798
0.0650277914
0.06502951833
0.06498551119
0.0649889724
0.06499340921
0.06499845019
0.06500372101
0.06500891826
0.06501383057
0.06501833133
0.06502236055
0.06502590532
0.0650289829
0.06503162686
0.06503387313
0.06503573031
0.06503706393
0.06498678034
0.06499113309
0.06499640035
0.06500209156
0.06500780383
0.06501325326
0.06501826481
0.06502274899
0.06502667755
0.0650300628
0.0650329414
0.06503536202
0.0650373735
0.06503900071
0.06504014867
0.0649855112
0.06498897241
0.06499340922
0.06499845019
0.06500372101
0.06500891826
0.06501383056
0.06501833131
0.06502236052
0.06502590529
0.06502898285
0.06503162681
0.06503387307
0.06503573024
0.06503706387
0.06498379094
0.06498589669
0.06498879212
0.06499233724
0.06499632346
0.06500053264
0.06500477417
0.06500890124
0.06501281261
0.06501644687
0.06501977339
0.06502278199
0.06502546784
0.06502779125
0.06502951819
0.06498262897
0.06498376775
0.06498543543
0.06498763333
0.06499030208
0.06499334345
0.06499664304
0.0650000879
0.06500357754
0.06500702911
0.06501037814
0.06501357486
0.06501657151
0.0650192743
0.06502134425
0.06498210412
0.06498279329
0.06498385254
0.06498533236
0.06498724332
0.06498955792
0.06499221912
0.06499515162
0.06499827267
0.06500150054
0.06500475998
0.06500798279
0.06501109739
0.06501397736
0.06501622118
)
;

boundaryField
{
    top
    {
        type            zeroGradient;
    }
    bottom
    {
        type            zeroGradient;
    }
    side-walls
    {
        type            zeroGradient;
    }
    inlet
    {
        type            zeroGradient;
    }
    outlet
    {
        type            zeroGradient;
    }
    procBoundary1to0
    {
        type            processor;
        value           nonuniform List<scalar> 
97
(
0.06498210413
0.06498210413
0.06498262898
0.06498379095
0.06498551118
0.06498678031
0.06498551116
0.06498379092
0.06498262894
0.0649821041
0.06498194725
0.0649838151
0.0649838151
0.0649838151
0.06498683402
0.06499237141
0.06499804832
0.0649923713
0.06498683389
0.06498381501
0.06498262895
0.0649824804
0.06498383307
0.0649960174
0.0649960174
0.0649960174
0.06501795351
0.06505210305
0.06501795285
0.06499601684
0.06498683389
0.06498379091
0.06498325064
0.06498618592
0.06499629923
0.06510427523
0.06510427523
0.06510427523
0.06534231256
0.0651042719
0.06501795295
0.06499237126
0.06498551114
0.06498379179
0.06498836749
0.06500731362
0.06508099064
0.06727198065
0.06727198065
0.06727198065
0.06534231269
0.06534231269
0.06505210287
0.06499804816
0.06498678026
0.06498325064
0.06498618585
0.06499629903
0.06502521299
0.06508099085
0.06502521314
0.06501795378
0.06501795378
0.06501795378
0.06499237141
0.06498551118
0.06498248039
0.06498383303
0.06498774252
0.06499629901
0.06500731374
0.06499629909
0.0649877426
0.06498683406
0.06498683406
0.06498683406
0.06498379096
0.06498194724
0.06498248845
0.06498383303
0.06498618586
0.06498836749
0.06498618588
0.06498383304
0.06498248846
0.06498262899
0.06498262899
0.06498262899
0.06498170321
0.06498194724
0.06498248039
0.06498325063
0.06498379178
0.06498325063
0.06498248039
0.06498194725
0.06498170322
)
;
    }
}


// ************************************************************************* //
