/*--------------------------------*- C++ -*----------------------------------*\
| =========                 |                                                 |
| \\      /  F ield         | OpenFOAM: The Open Source CFD Toolbox           |
|  \\    /   O peration     | Version:  4.x                                   |
|   \\  /    A nd           | Web:      www.OpenFOAM.org                      |
|    \\/     M anipulation  |                                                 |
\*---------------------------------------------------------------------------*/
FoamFile
{
    version     2.0;
    format      ascii;
    class       volScalarField;
    location    "9000";
    object      molarConc;
}
// * * * * * * * * * * * * * * * * * * * * * * * * * * * * * * * * * * * * * //

dimensions      [0 -3 0 0 1 0 0];

internalField   nonuniform List<scalar> 
1174
(
9.963285251
9.963283846
9.963282571
9.963279183
9.963275449
9.963270917
9.963267093
9.963261238
9.963256447
9.963250426
9.963244961
9.963239333
9.963233681
9.96322904
9.963254084
9.963250253
9.963245549
9.963241598
9.963236795
9.963229727
9.963223288
9.96321868
9.963213551
9.963209049
9.963203103
9.963198528
9.963195797
9.963193589
9.963297134
9.96329143
9.963285527
9.963279916
9.96327237
9.963265823
9.963258687
9.963252356
9.963246119
9.963239568
9.963235997
9.963230959
9.963226851
9.963223667
9.963284065
9.963276371
9.963267297
9.963258117
9.963250183
9.96324233
9.963234314
9.963228436
9.963222124
9.963216583
9.963212826
9.963209029
9.963205778
9.963204085
9.963264238
9.963256175
9.963245685
9.963236059
9.963226027
9.963218154
9.963210663
9.963204827
9.963201165
9.963197636
9.963194608
9.963192843
9.96319071
9.963187927
9.963260484
9.963252724
9.963244491
9.963235887
9.963227634
9.96321946
9.963212895
9.963206264
9.963200713
9.963195599
9.963189392
9.963185048
9.963181214
9.963178895
9.963272713
9.963268631
9.963263359
9.963255814
9.963248997
9.963241565
9.963236138
9.96323033
9.963222623
9.963215825
9.963212142
9.963209832
9.963206578
9.963203871
9.963297205
9.9632945
9.963290184
9.963285305
9.963280167
9.963275408
9.963268498
9.963262066
9.963256105
9.963250638
9.963245427
9.963239226
9.96323481
9.963232428
9.96328313
9.963281971
9.963278585
9.963275705
9.963271251
9.963265314
9.963260816
9.963255549
9.963249768
9.963245377
9.963239337
9.963234642
9.963229074
9.963226268
9.963243974
9.96324236
9.963239672
9.963236929
9.963231046
9.963225544
9.963221037
9.963216735
9.963209742
9.963204365
9.963198697
9.963192575
9.963188
9.963183041
9.963180389
9.963276024
9.963271181
9.963265598
9.963259491
9.9632516
9.963245277
9.963239918
9.963232199
9.963225501
9.963220424
9.963215017
9.963208071
9.963205396
9.963203285
9.963273279
9.963265395
9.963254306
9.96324364
9.963233587
9.963225798
9.963219555
9.963213413
9.963207639
9.963203732
9.96320055
9.963198629
9.963196166
9.963195206
9.963248098
9.963233136
9.963219175
9.963207353
9.963197539
9.963189011
9.963183048
9.96317872
9.963174747
9.963172645
9.963172394
9.96317141
9.963171447
9.96317088
9.963157188
9.963140217
9.963125439
9.963113823
9.963102712
9.963097109
9.963092814
9.963090751
9.963089498
9.963089039
9.963088908
9.963088022
9.963088077
9.963087786
9.963197781
9.963181517
9.963168633
9.963157058
9.96314759
9.963139004
9.963133276
9.963129672
9.963127369
9.963124553
9.963122905
9.963121584
9.963122189
9.963122116
9.96326561
9.963255409
9.963245992
9.96323682
9.963229852
9.963220202
9.963211898
9.963205984
9.963201496
9.963196818
9.963193173
9.963189699
9.96318623
9.963183109
9.963273636
9.96326904
9.96326203
9.963256544
9.963250008
9.963243011
9.963237295
9.963231903
9.963225837
9.963220396
9.963216909
9.963211686
9.963208649
9.963205556
9.963241747
9.963239339
9.963236545
9.963231413
9.963225698
9.963220814
9.96321592
9.963209673
9.963204092
9.963199604
9.963194984
9.963190023
9.963184878
9.96318036
9.963295875
9.963291292
9.963286716
9.963279339
9.96327235
9.963266182
9.963260688
9.963254574
9.963248689
9.96324311
9.963237601
9.96323294
9.963228559
9.963224682
9.963222897
9.963292737
9.963285761
9.963277452
9.963265751
9.96325669
9.963246353
9.963238767
9.963231396
9.963226245
9.963220915
9.963216907
9.963214302
9.963211979
9.963207301
9.963205446
9.963203864
9.963186187
9.963169022
9.963154853
9.9631446
9.963137706
9.963132254
9.963129125
9.963128096
9.963127063
9.963126411
9.963127469
9.9631284
9.963131517
9.963212228
9.963179838
9.963157889
9.963145478
9.963138255
9.963138368
9.963140702
9.963143514
9.963146706
9.96315069
9.963154589
9.963159776
9.963163353
9.963164688
9.963079268
9.963047702
9.963034982
9.963032725
9.963038981
9.963046347
9.963054349
9.963063635
9.963070798
9.96307826
9.963085539
9.96309101
9.963097828
9.96310284
9.963219941
9.963191263
9.963170508
9.963159667
9.963153182
9.963153745
9.963156005
9.963160974
9.963165907
9.963170652
9.963176349
9.96318201
9.963184644
9.963187762
9.963297421
9.963279468
9.963263326
9.963249363
9.963239131
9.96323144
9.963226655
9.963225513
9.963224938
9.963224931
9.963225192
9.963225853
9.963227654
9.963228113
9.963222359
9.963211715
9.963201356
9.963192383
9.963183064
9.963175414
9.963169474
9.963164195
9.96315838
9.96315393
9.963150225
9.963147272
9.963145107
9.963142666
9.963273858
9.96326814
9.963261614
9.963254827
9.963248152
9.963241097
9.963234025
9.963228261
9.963222955
9.963217258
9.963212804
9.963208421
9.963203721
9.963201765
9.963315056
9.963310026
9.963302518
9.963293835
9.963285654
9.963276184
9.963269317
9.963261204
9.963254346
9.963247829
9.963243059
9.963238924
9.963235498
9.963233027
9.96323013
9.963198456
9.963186276
9.963172656
9.963158607
9.963146942
9.963138021
9.963128749
9.963122581
9.963118346
9.963114909
9.963111988
9.963109831
9.963107748
9.96310739
9.963105552
9.963168787
9.963130659
9.96309872
9.963078401
9.963067586
9.963061863
9.963062527
9.963064174
9.963068183
9.963073181
9.963078324
9.963083482
9.96308844
9.963092928
9.963095479
9.962891351
9.96285325
9.96284931
9.962860477
9.962879853
9.962900894
9.962922273
9.962941594
9.962958206
9.96297268
9.96298747
9.962996629
9.963005969
9.963012311
9.962614119
9.962667381
9.962744471
9.962816839
9.962879664
9.962928221
9.962966999
9.962999651
9.963025755
9.963045569
9.9630623
9.963076762
9.963089571
9.963097008
9.963041812
9.963003197
9.962998806
9.963010091
9.963029008
9.963051918
9.963073647
9.963090958
9.963108035
9.96312231
9.963137388
9.963147314
9.963158492
9.963167644
9.96314149
9.963109547
9.963088194
9.963075833
9.963070297
9.963070219
9.963072814
9.963076419
9.963079582
9.963084408
9.963088475
9.963093797
9.963097926
9.963099795
9.963266479
9.963252747
9.963237795
9.963224909
9.963214363
9.963206381
9.963201392
9.963197581
9.96319459
9.963190575
9.963189251
9.963187884
9.96318628
9.963184579
9.963254863
9.963246319
9.963237558
9.963229593
9.963220023
9.963212155
9.963204768
9.963198406
9.96319306
9.963186562
9.96318316
9.963180037
9.963176821
9.963174941
9.96327961
9.963272287
9.963261631
9.963252187
9.963242236
9.963232232
9.963223462
9.963215162
9.963208296
9.963201915
9.963196467
9.963193025
9.963190333
9.963188359
9.963184653
9.963207511
9.96318774
9.963170779
9.96315559
9.963144656
9.963135471
9.963130719
9.963125586
9.963123665
9.963121866
9.963120607
9.963121406
9.963121162
9.963121177
9.963121531
9.963139077
9.963085179
9.963054506
9.963042606
9.963040787
9.963045769
9.963053794
9.963063687
9.963072328
9.963080242
9.963087909
9.963095334
9.963101282
9.963105621
9.963111202
9.962697522
9.962635714
9.962687926
9.962765508
9.962838646
9.9628987
9.962948592
9.962989306
9.963022125
9.96304634
9.963066503
9.963083966
9.963096739
9.963109558
9.96311786
9.989272804
9.990108843
9.99057635
9.990856563
9.991037267
9.991163896
9.991257409
9.991329303
9.99138797
9.991438407
9.991483365
9.991520622
9.991556422
9.9915854
9.962629851
9.962682342
9.962760651
9.962832693
9.962894471
9.962944343
9.962984257
9.963016546
9.963043313
9.963064903
9.96308164
9.963095381
9.963106924
9.963116041
9.963139407
9.963109252
9.963095343
9.963094677
9.963098793
9.96310796
9.963116982
9.963126428
9.963135799
9.963144378
9.963152079
9.963158856
9.963163763
9.963169659
9.963268279
9.963249808
9.963235085
9.963222896
9.963214202
9.963208773
9.963203819
9.963199187
9.963197249
9.963195438
9.963194086
9.963194611
9.96319471
9.963195669
9.963263257
9.963255461
9.963245973
9.963237679
9.963228858
9.963220131
9.963213992
9.963206577
9.963201856
9.963196565
9.963193026
9.963190264
9.963188088
9.963185056
9.963212107
9.963207016
9.963201958
9.963194422
9.963185806
9.963177639
9.963168535
9.963160884
9.963154308
9.963146718
9.963141699
9.963137088
9.963133967
9.963130456
9.963127828
9.963259167
9.963245567
9.963229606
9.963214887
9.963203564
9.963192292
9.963183323
9.96317845
9.963175441
9.963173661
9.963173518
9.963172012
9.96317079
9.963170816
9.963169779
9.963211699
9.963172031
9.963142204
9.963122109
9.963108761
9.9631029
9.963102574
9.963104773
9.963109802
9.963114311
9.963119164
9.963124987
9.963129226
9.963134968
9.963137785
9.963082557
9.962993652
9.962956509
9.962952911
9.962966234
9.962986729
9.96300796
9.963030436
9.963051445
9.963069398
9.963085616
9.963099344
9.963110868
9.963119643
9.963125249
9.962661306
9.962600782
9.962653866
9.962733252
9.962806514
9.96286768
9.962918101
9.962957691
9.962989366
9.963014213
9.963034752
9.963052931
9.963066549
9.963079689
9.963089303
9.963016938
9.962931804
9.962895413
9.962891929
9.962903946
9.962924919
9.962947097
9.962968591
9.962986179
9.963004077
9.963019188
9.96303318
9.963044305
9.963054881
9.963061149
9.963168009
9.963137143
9.963116687
9.963103679
9.963097367
9.963095667
9.963097903
9.963101706
9.963106085
9.963110507
9.963114905
9.963119104
9.96312363
9.963125332
9.963272944
9.963256462
9.963241631
9.963230463
9.963221298
9.963213589
9.963207645
9.963203116
9.963200875
9.963198082
9.96319595
9.963194283
9.963193587
9.963193878
9.963257999
9.963250317
9.963242401
9.963232929
9.963224857
9.963216321
9.963208551
9.96320175
9.963196692
9.963190887
9.963187715
9.963183843
9.963181363
9.963179236
9.963296546
9.96329304
9.96328789
9.963281723
9.963274329
9.963267662
9.963259531
9.963251443
9.963244069
9.963236884
9.963231737
9.963225069
9.963220425
9.963215692
9.963211984
9.96324398
9.963236572
9.963226964
9.963216433
9.9632057
9.963197756
9.963189995
9.963182564
9.963175949
9.963170758
9.963166544
9.963161724
9.963159431
9.963155882
9.963153605
9.96330291
9.96328519
9.963266674
9.963248915
9.963235404
9.963227366
9.963219858
9.963213916
9.963211428
9.963210635
9.963211059
9.963210439
9.963212423
9.963212483
9.963213414
9.96326477
9.963226903
9.963195958
9.963176365
9.96316382
9.963158339
9.963159056
9.963161143
9.963164198
9.963169038
9.963174327
9.963177958
9.963182419
9.963187655
9.96319154
9.963096062
9.963041444
9.963010892
9.962998699
9.96299738
9.963002416
9.963010198
9.96301894
9.963027736
9.963034715
9.963042055
9.963048228
9.963055062
9.963061225
9.963063522
9.963210028
9.963171818
9.963142115
9.963120502
9.96310764
9.963102675
9.963102513
9.963104106
9.963108253
9.963113443
9.963117477
9.963124025
9.963128626
9.963131925
9.963133431
9.963237789
9.963219743
9.963201151
9.963185757
9.963171921
9.96316157
9.963154234
9.963150521
9.963147543
9.963146552
9.96314592
9.963146667
9.963147027
9.963147501
9.96314831
9.963245017
9.963235394
9.963224289
9.963214065
9.963204393
9.963195509
9.963189735
9.963185881
9.963179299
9.963175375
9.963173197
9.96317093
9.963169353
9.963168923
9.963281845
9.963276388
9.963271183
9.963263969
9.963257485
9.963249415
9.963243621
9.96323776
9.963231654
9.963225948
9.963219105
9.963216313
9.963212881
9.963210287
9.963292624
9.963291241
9.963289361
9.96328595
9.963281256
9.963275814
9.963271232
9.963267561
9.963262385
9.963256563
9.963251334
9.963245881
9.963241881
9.963237341
9.963233371
9.963293471
9.96328992
9.963285796
9.963280511
9.963272525
9.963265482
9.963259583
9.963252977
9.963246504
9.963240919
9.963234686
9.963230069
9.963224954
9.963221958
9.963219725
9.963236382
9.963228064
9.963218715
9.963210808
9.963202729
9.963194859
9.963186762
9.963181135
9.963176215
9.963170531
9.96316806
9.963163372
9.963161128
9.963158607
9.963156891
9.963227063
9.963213088
9.963198292
9.963184297
9.963171314
9.963160911
9.963154921
9.963149599
9.963146713
9.963141868
9.963140032
9.963137093
9.96313726
9.963137037
9.963136775
9.96323945
9.963220881
9.96320367
9.963190349
9.963178334
9.963171333
9.963164339
9.963160403
9.96315856
9.963157799
9.963155856
9.963156431
9.963155926
9.963156543
9.96315619
9.96321083
9.963196596
9.963183073
9.963168985
9.963156475
9.963147301
9.963139883
9.963134602
9.963129836
9.963125788
9.963122208
9.963119993
9.963119556
9.963119298
9.963118638
9.963306458
9.963299607
9.963289395
9.963279548
9.963269308
9.96326022
9.963252259
9.96324497
9.963238071
9.96323341
9.963228064
9.963224452
9.963221439
9.963219941
9.963220083
9.96328378
9.963279682
9.963274855
9.963269904
9.963264263
9.963257215
9.963250359
9.963242797
9.963236791
9.963231741
9.963226557
9.963221665
9.963216814
9.963212806
9.963210105
9.963245184
9.963241747
9.963237616
9.963232653
9.96322718
9.96322081
9.963213781
9.963207522
9.963201641
9.96319554
9.963190654
9.96318632
9.963182118
9.963179375
9.963298147
9.963297704
9.963296766
9.963293752
9.96329138
9.963286742
9.963281575
9.963276806
9.963271412
9.963265143
9.963260261
9.963254506
9.963249117
9.963245949
9.963243842
9.963270363
9.96326836
9.963266264
9.963263468
9.96325799
9.963253446
9.963248687
9.96324141
9.963236231
9.963232113
9.963227447
9.963222606
9.963217603
9.963212998
9.963209244
9.963271892
9.963268318
9.963262838
9.96325678
9.963249951
9.963241829
9.963232656
9.963226073
9.963218715
9.963212528
9.963206164
9.963202193
9.963197222
9.96319363
9.963192113
9.963266272
9.963261384
9.963253624
9.963244751
9.9632344
9.963226298
9.96321801
9.963210413
9.963204074
9.963197823
9.963191135
9.96318639
9.963181139
9.96317904
9.963176561
9.963276618
9.963269433
9.963260506
9.963250243
9.963239466
9.963230902
9.963221524
9.963213108
9.963204994
9.963199363
9.963195466
9.963190719
9.963187695
9.963185041
9.963183398
9.963287084
9.963280759
9.963272354
9.963265538
9.963256638
9.963247498
9.963238946
9.963232758
9.963226053
9.963221356
9.963215895
9.963211753
9.963207926
9.963204237
9.96320138
9.963350637
9.963347344
9.963342721
9.963337069
9.963331809
9.9633243
9.963317396
9.96331137
9.963305261
9.963300762
9.963295852
9.96329031
9.963286267
9.963280466
9.963278051
9.963274651
9.963273774
9.963270519
9.9632665
9.963262182
9.963257759
9.963252706
9.963246396
9.963239737
9.963234745
9.963229597
9.963223516
9.963217705
9.96321425
9.963210781
9.963262695
9.963260805
9.963259438
9.963257423
9.963254124
9.963250116
9.963246367
9.963242009
9.963237564
9.963231787
9.963226848
9.963220254
9.963215769
9.963209903
9.963206386
)
;

boundaryField
{
    top
    {
        type            calculated;
        value           nonuniform List<scalar> 
127
(
9.963262695
9.96328313
9.963241747
9.963273858
9.963254863
9.963263257
9.963257999
9.963281845
9.963245184
9.963260805
9.963281971
9.963239339
9.96326814
9.963246319
9.963255461
9.963250317
9.963276388
9.963241747
9.963259438
9.963278585
9.963236545
9.963261614
9.963237558
9.963245973
9.963242401
9.963271183
9.963237616
9.963257423
9.963275705
9.963231413
9.963254827
9.963229593
9.963237679
9.963232929
9.963263969
9.963232653
9.963254124
9.963271251
9.963225698
9.963248152
9.963220023
9.963228858
9.963224857
9.963257485
9.96322718
9.963250116
9.963265314
9.963220814
9.963241097
9.963212155
9.963220131
9.963216321
9.963249415
9.96322081
9.963246367
9.963260816
9.96321592
9.963234025
9.963204768
9.963213992
9.963208551
9.963243621
9.963213781
9.963242009
9.963255549
9.963209673
9.963228261
9.963198406
9.963206577
9.96320175
9.96323776
9.963207522
9.963237564
9.963249768
9.963204092
9.963222955
9.96319306
9.963201856
9.963196692
9.963231654
9.963201641
9.963231787
9.963245377
9.963199604
9.963217258
9.963186562
9.963196565
9.963190887
9.963225948
9.96319554
9.963226848
9.963239337
9.963194984
9.963212804
9.96318316
9.963193026
9.963187715
9.963219105
9.963190654
9.963220254
9.963234642
9.963190023
9.963208421
9.963180037
9.963190264
9.963183843
9.963216313
9.96318632
9.963215769
9.963229074
9.963184878
9.963203721
9.963176821
9.963188088
9.963181363
9.963212881
9.963182118
9.963209903
9.963226268
9.96318036
9.963201765
9.963174941
9.963185056
9.963179236
9.963210287
9.963179375
9.963206386
)
;
    }
    bottom
    {
        type            calculated;
        value           nonuniform List<scalar> 
134
(
9.963243974
9.963295875
9.963315056
9.96327961
9.963212107
9.963296546
9.963292624
9.963298147
9.963285251
9.96324236
9.963291292
9.963310026
9.963272287
9.963207016
9.96329304
9.963291241
9.963297704
9.963283846
9.963239672
9.963286716
9.963302518
9.963261631
9.963201958
9.96328789
9.963289361
9.963296766
9.963282571
9.963236929
9.963279339
9.963293835
9.963252187
9.963194422
9.963281723
9.96328595
9.963293752
9.963279183
9.963231046
9.96327235
9.963285654
9.963242236
9.963185806
9.963274329
9.963281256
9.96329138
9.963275449
9.963225544
9.963266182
9.963276184
9.963232232
9.963177639
9.963267662
9.963275814
9.963286742
9.963270917
9.963221037
9.963260688
9.963269317
9.963223462
9.963168535
9.963259531
9.963271232
9.963281575
9.963267093
9.963216735
9.963254574
9.963261204
9.963215162
9.963160884
9.963251443
9.963267561
9.963276806
9.963261238
9.963209742
9.963248689
9.963254346
9.963208296
9.963154308
9.963244069
9.963262385
9.963271412
9.963256447
9.963204365
9.96324311
9.963247829
9.963201915
9.963146718
9.963236884
9.963256563
9.963265143
9.963250426
9.963198697
9.963237601
9.963243059
9.963196467
9.963141699
9.963231737
9.963251334
9.963260261
9.963244961
9.963192575
9.96323294
9.963238924
9.963193025
9.963137088
9.963225069
9.963245881
9.963254506
9.963239333
9.963188
9.963228559
9.963235498
9.963190333
9.963133967
9.963220425
9.963241881
9.963249117
9.963233681
9.963183041
9.963224682
9.963233027
9.963188359
9.963130456
9.963215692
9.963237341
9.963245949
9.96322904
9.963180389
9.963222897
9.96323013
9.963184653
9.963127828
9.963211984
9.963233371
9.963243842
)
;
    }
    side-walls
    {
        type            calculated;
        value           nonuniform List<scalar> 
261
(
9.963285251
9.963254084
9.963297134
9.963284065
9.963264238
9.963260484
9.963272713
9.963297205
9.96328313
9.963283846
9.963250253
9.96329143
9.963276371
9.963256175
9.963252724
9.963268631
9.9632945
9.963281971
9.963282571
9.963245549
9.963285527
9.963267297
9.963245685
9.963244491
9.963263359
9.963290184
9.963278585
9.963279183
9.963241598
9.963279916
9.963258117
9.963236059
9.963235887
9.963255814
9.963285305
9.963275705
9.963275449
9.963236795
9.96327237
9.963250183
9.963226027
9.963227634
9.963248997
9.963280167
9.963271251
9.963270917
9.963229727
9.963265823
9.96324233
9.963218154
9.96321946
9.963241565
9.963275408
9.963265314
9.963267093
9.963223288
9.963258687
9.963234314
9.963210663
9.963212895
9.963236138
9.963268498
9.963260816
9.963261238
9.96321868
9.963252356
9.963228436
9.963204827
9.963206264
9.96323033
9.963262066
9.963255549
9.963256447
9.963213551
9.963246119
9.963222124
9.963201165
9.963200713
9.963222623
9.963256105
9.963249768
9.963250426
9.963209049
9.963239568
9.963216583
9.963197636
9.963195599
9.963215825
9.963250638
9.963245377
9.963244961
9.963203103
9.963235997
9.963212826
9.963194608
9.963189392
9.963212142
9.963245427
9.963239337
9.963239333
9.963198528
9.963230959
9.963209029
9.963192843
9.963185048
9.963209832
9.963239226
9.963234642
9.963233681
9.963195797
9.963226851
9.963205778
9.96319071
9.963181214
9.963206578
9.96323481
9.963229074
9.96322904
9.963193589
9.963223667
9.963204085
9.963187927
9.963178895
9.963203871
9.963232428
9.963226268
9.963298147
9.963270363
9.963271892
9.963266272
9.963276618
9.963287084
9.963350637
9.963274651
9.963262695
9.963297704
9.96326836
9.963268318
9.963261384
9.963269433
9.963280759
9.963347344
9.963273774
9.963260805
9.963296766
9.963266264
9.963262838
9.963253624
9.963260506
9.963272354
9.963342721
9.963270519
9.963259438
9.963293752
9.963263468
9.96325678
9.963244751
9.963250243
9.963265538
9.963337069
9.9632665
9.963257423
9.96329138
9.96325799
9.963249951
9.9632344
9.963239466
9.963256638
9.963331809
9.963262182
9.963254124
9.963286742
9.963253446
9.963241829
9.963226298
9.963230902
9.963247498
9.9633243
9.963257759
9.963250116
9.963281575
9.963248687
9.963232656
9.96321801
9.963221524
9.963238946
9.963317396
9.963252706
9.963246367
9.963276806
9.96324141
9.963226073
9.963210413
9.963213108
9.963232758
9.96331137
9.963246396
9.963242009
9.963271412
9.963236231
9.963218715
9.963204074
9.963204994
9.963226053
9.963305261
9.963239737
9.963237564
9.963265143
9.963232113
9.963212528
9.963197823
9.963199363
9.963221356
9.963300762
9.963234745
9.963231787
9.963260261
9.963227447
9.963206164
9.963191135
9.963195466
9.963215895
9.963295852
9.963229597
9.963226848
9.963254506
9.963222606
9.963202193
9.96318639
9.963190719
9.963211753
9.96329031
9.963223516
9.963220254
9.963249117
9.963217603
9.963197222
9.963181139
9.963187695
9.963207926
9.963286267
9.963217705
9.963215769
9.963245949
9.963212998
9.96319363
9.96317904
9.963185041
9.963204237
9.963280466
9.96321425
9.963209903
9.963243842
9.963209244
9.963192113
9.963176561
9.963183398
9.96320138
9.963278051
9.963210781
9.963206386
)
;
    }
    inlet
    {
        type            calculated;
        value           nonuniform 0();
    }
    outlet
    {
        type            calculated;
        value           nonuniform List<scalar> 
81
(
9.96322904
9.963193589
9.963223667
9.963204085
9.963187927
9.963178895
9.963203871
9.963232428
9.963226268
9.963180389
9.963203285
9.963195206
9.96317088
9.963087786
9.963122116
9.963183109
9.963205556
9.96318036
9.963222897
9.963205446
9.963131517
9.963164688
9.96310284
9.963187762
9.963228113
9.963142666
9.963201765
9.96323013
9.963105552
9.963095479
9.963012311
9.963097008
9.963167644
9.963099795
9.963184579
9.963174941
9.963184653
9.963121531
9.963111202
9.96311786
9.9915854
9.963116041
9.963169659
9.963195669
9.963185056
9.963127828
9.963169779
9.963137785
9.963125249
9.963089303
9.963061149
9.963125332
9.963193878
9.963179236
9.963211984
9.963153605
9.963213414
9.96319154
9.963063522
9.963133431
9.96314831
9.963168923
9.963210287
9.963233371
9.963219725
9.963156891
9.963136775
9.96315619
9.963118638
9.963220083
9.963210105
9.963179375
9.963243842
9.963209244
9.963192113
9.963176561
9.963183398
9.96320138
9.963278051
9.963210781
9.963206386
)
;
    }
    procBoundary1to0
    {
        type            processor;
        value           nonuniform List<scalar> 
97
(
9.96328636
9.96328636
9.963255915
9.96330141
9.963289293
9.96327088
9.963267616
9.963275691
9.963298998
9.963285874
9.963244792
9.96327968
9.96327968
9.96327968
9.963281584
9.963261013
9.963174314
9.963212294
9.96327308
9.963276443
9.963243232
9.963298404
9.963298953
9.963223303
9.963223303
9.963223303
9.963250723
9.963134266
9.963259683
9.963315274
9.963228029
9.963277828
9.963318538
9.963208972
9.963204123
9.962977089
9.962977089
9.962977089
9.962676024
9.96312725
9.963179158
9.963280865
9.963260046
9.963283277
9.963223574
9.96321562
9.963120547
9.987709243
9.987709243
9.987709243
9.962692781
9.962692781
9.963195544
9.963287842
9.963270878
9.96321643
9.963270203
9.963247203
9.963214265
9.96308621
9.963149531
9.963206298
9.963206298
9.963206298
9.963287207
9.963264217
9.963298875
9.963247391
9.963316665
9.963299792
9.96317011
9.963245945
9.963253501
9.963252297
9.963252297
9.963252297
9.963283659
9.963294016
9.963297494
9.963242085
9.963236945
9.96325418
9.963219903
9.963311147
9.963285238
9.963246694
9.963246694
9.963246694
9.963298164
9.963271071
9.963273895
9.963271179
9.963280463
9.963290063
9.963352545
9.963275571
9.963264548
)
;
    }
}


// ************************************************************************* //
