/*--------------------------------*- C++ -*----------------------------------*\
| =========                 |                                                 |
| \\      /  F ield         | OpenFOAM: The Open Source CFD Toolbox           |
|  \\    /   O peration     | Version:  4.x                                   |
|   \\  /    A nd           | Web:      www.OpenFOAM.org                      |
|    \\/     M anipulation  |                                                 |
\*---------------------------------------------------------------------------*/
FoamFile
{
    version     2.0;
    format      ascii;
    class       volScalarField;
    location    "9000";
    object      T;
}
// * * * * * * * * * * * * * * * * * * * * * * * * * * * * * * * * * * * * * //

dimensions      [0 0 0 1 0 0 0];

internalField   nonuniform List<scalar> 
1174
(
1223.149372
1223.14947
1223.149676
1223.15001
1223.150532
1223.151124
1223.15166
1223.152219
1223.152787
1223.153575
1223.154248
1223.155004
1223.155661
1223.1562
1223.153202
1223.153595
1223.154003
1223.154641
1223.155298
1223.156101
1223.156751
1223.157402
1223.158115
1223.15879
1223.159341
1223.159855
1223.16021
1223.160425
1223.147774
1223.148491
1223.149232
1223.149944
1223.150906
1223.151772
1223.152558
1223.153447
1223.154246
1223.154871
1223.155412
1223.155917
1223.156545
1223.15673
1223.149463
1223.150503
1223.151528
1223.152637
1223.153462
1223.154582
1223.155552
1223.156365
1223.157057
1223.157709
1223.158252
1223.158771
1223.159046
1223.15928
1223.151801
1223.152951
1223.154133
1223.155288
1223.156599
1223.157606
1223.158373
1223.159081
1223.159675
1223.160043
1223.160422
1223.160691
1223.160961
1223.161313
1223.152393
1223.153287
1223.154276
1223.155441
1223.156297
1223.157309
1223.15825
1223.159054
1223.159688
1223.160419
1223.161096
1223.161607
1223.162089
1223.162426
1223.150952
1223.151421
1223.152064
1223.152862
1223.153785
1223.154637
1223.155346
1223.156067
1223.156921
1223.157693
1223.158239
1223.158625
1223.159008
1223.159257
1223.147846
1223.148227
1223.148768
1223.149326
1223.149819
1223.150509
1223.151403
1223.152159
1223.152934
1223.15361
1223.154206
1223.155008
1223.155488
1223.155783
1223.149487
1223.149691
1223.14996
1223.150425
1223.151041
1223.151657
1223.15229
1223.15304
1223.153658
1223.154313
1223.154934
1223.15561
1223.156166
1223.156723
1223.15431
1223.154544
1223.154922
1223.155265
1223.155854
1223.156634
1223.157274
1223.1578
1223.158574
1223.159341
1223.1599
1223.160751
1223.161287
1223.161847
1223.162241
1223.150421
1223.150927
1223.151751
1223.152559
1223.153434
1223.154201
1223.154911
1223.155858
1223.156608
1223.157259
1223.15798
1223.158694
1223.159009
1223.159156
1223.150669
1223.151816
1223.153121
1223.154528
1223.155678
1223.156584
1223.157484
1223.158153
1223.158812
1223.159326
1223.159677
1223.159951
1223.160302
1223.160331
1223.154008
1223.155763
1223.157361
1223.158902
1223.160144
1223.161131
1223.161752
1223.162345
1223.162878
1223.163149
1223.163133
1223.163233
1223.163323
1223.163334
1223.165139
1223.1671
1223.168983
1223.170478
1223.171633
1223.172388
1223.172962
1223.173239
1223.173342
1223.173402
1223.17343
1223.173389
1223.17346
1223.173634
1223.16006
1223.161906
1223.163632
1223.16516
1223.166243
1223.167292
1223.168033
1223.168389
1223.168692
1223.168994
1223.169229
1223.169441
1223.169436
1223.169349
1223.151753
1223.15288
1223.154172
1223.155273
1223.15621
1223.157276
1223.158299
1223.1591
1223.159491
1223.160148
1223.160634
1223.161071
1223.161459
1223.161934
1223.150799
1223.151251
1223.152103
1223.152819
1223.153596
1223.154529
1223.155179
1223.155892
1223.156722
1223.157226
1223.15769
1223.158278
1223.158799
1223.158999
1223.154688
1223.154986
1223.155356
1223.156017
1223.156619
1223.157139
1223.157783
1223.15853
1223.159228
1223.159938
1223.160495
1223.161043
1223.161632
1223.162296
1223.148018
1223.148618
1223.149143
1223.150053
1223.150888
1223.151761
1223.15238
1223.153102
1223.153742
1223.154493
1223.155204
1223.155804
1223.156273
1223.156686
1223.156982
1223.148323
1223.149192
1223.150304
1223.151778
1223.152808
1223.153989
1223.155046
1223.155987
1223.156619
1223.15728
1223.157624
1223.158013
1223.158414
1223.158824
1223.159168
1223.159205
1223.161484
1223.163557
1223.165215
1223.166527
1223.167481
1223.168069
1223.168427
1223.168689
1223.168685
1223.168714
1223.168685
1223.168595
1223.168303
1223.158304
1223.162147
1223.164988
1223.166488
1223.167399
1223.167451
1223.167021
1223.16675
1223.166232
1223.165841
1223.165366
1223.164744
1223.164363
1223.164013
1223.174437
1223.178368
1223.179964
1223.180162
1223.179544
1223.178625
1223.177603
1223.176459
1223.175619
1223.174606
1223.173725
1223.173125
1223.172407
1223.171619
1223.157254
1223.161009
1223.163398
1223.164848
1223.165569
1223.165576
1223.165136
1223.164644
1223.163994
1223.16325
1223.162713
1223.162096
1223.161706
1223.16137
1223.14773
1223.150075
1223.152022
1223.153715
1223.154908
1223.155883
1223.156519
1223.15662
1223.156625
1223.15669
1223.156757
1223.156538
1223.156407
1223.156428
1223.157074
1223.158365
1223.159583
1223.160664
1223.161824
1223.16285
1223.163585
1223.164221
1223.164849
1223.165454
1223.165928
1223.166252
1223.166481
1223.166798
1223.150696
1223.151477
1223.152211
1223.15308
1223.153859
1223.154718
1223.155583
1223.156319
1223.157083
1223.157705
1223.158248
1223.158843
1223.159332
1223.15965
1223.145719
1223.146351
1223.147239
1223.148197
1223.149284
1223.150372
1223.151293
1223.152269
1223.15311
1223.153948
1223.154561
1223.155046
1223.15533
1223.155664
1223.156197
1223.159944
1223.161624
1223.163251
1223.164761
1223.166264
1223.167534
1223.16865
1223.169398
1223.169818
1223.170165
1223.170508
1223.170914
1223.171148
1223.171203
1223.17127
1223.163672
1223.168257
1223.172113
1223.174683
1223.176005
1223.176619
1223.176718
1223.176444
1223.17597
1223.175356
1223.174742
1223.174078
1223.173638
1223.173078
1223.172725
1223.197598
1223.202371
1223.202926
1223.201627
1223.199117
1223.196464
1223.193886
1223.191556
1223.189414
1223.187619
1223.185931
1223.184564
1223.183503
1223.182662
1223.231752
1223.225127
1223.215791
1223.206832
1223.199208
1223.193162
1223.188303
1223.184366
1223.181138
1223.178651
1223.176659
1223.174839
1223.173401
1223.172491
1223.179258
1223.183998
1223.184577
1223.183152
1223.180691
1223.178071
1223.175368
1223.173202
1223.171138
1223.169357
1223.167463
1223.166206
1223.164834
1223.163769
1223.167079
1223.170897
1223.173517
1223.174982
1223.175722
1223.175759
1223.175389
1223.175028
1223.174474
1223.17392
1223.173375
1223.172888
1223.172335
1223.172116
1223.151683
1223.153239
1223.155087
1223.156731
1223.158021
1223.158905
1223.159609
1223.16014
1223.160444
1223.161067
1223.161096
1223.16131
1223.16146
1223.16158
1223.153111
1223.154082
1223.155121
1223.156226
1223.157256
1223.158345
1223.159231
1223.160064
1223.160654
1223.16135
1223.161827
1223.162179
1223.162518
1223.162784
1223.150068
1223.150955
1223.152167
1223.153488
1223.154717
1223.155765
1223.156735
1223.157856
1223.15881
1223.159552
1223.160287
1223.160628
1223.160966
1223.161276
1223.161663
1223.1589
1223.161346
1223.163341
1223.165164
1223.166526
1223.167778
1223.168314
1223.168866
1223.169132
1223.169353
1223.169462
1223.169445
1223.169312
1223.169483
1223.169463
1223.167159
1223.173909
1223.177707
1223.179081
1223.179244
1223.178637
1223.177673
1223.176538
1223.175557
1223.174545
1223.17353
1223.172677
1223.171876
1223.171341
1223.170688
1223.221486
1223.229018
1223.222685
1223.213117
1223.204186
1223.196647
1223.190645
1223.185735
1223.181667
1223.178624
1223.176192
1223.174105
1223.172358
1223.170885
1223.169849
1219.967719
1219.865613
1219.808439
1219.77424
1219.752112
1219.736735
1219.725223
1219.716617
1219.709378
1219.703137
1219.69779
1219.693084
1219.688754
1219.685212
1223.229696
1223.223299
1223.21374
1223.204943
1223.197292
1223.191106
1223.186194
1223.182269
1223.178999
1223.17648
1223.174335
1223.172708
1223.171259
1223.169937
1223.16718
1223.170972
1223.172698
1223.172833
1223.172222
1223.171093
1223.170075
1223.168815
1223.167712
1223.166704
1223.165697
1223.16483
1223.164119
1223.163518
1223.151479
1223.153652
1223.155427
1223.156897
1223.158163
1223.158781
1223.159246
1223.159774
1223.1601
1223.160308
1223.160447
1223.160554
1223.160482
1223.160306
1223.151938
1223.152997
1223.15409
1223.155142
1223.156322
1223.15721
1223.158055
1223.158909
1223.159604
1223.160178
1223.160755
1223.160999
1223.161251
1223.161492
1223.158244
1223.158957
1223.159678
1223.160548
1223.161557
1223.162551
1223.163648
1223.164587
1223.165383
1223.166271
1223.166907
1223.167501
1223.167997
1223.168322
1223.168584
1223.152625
1223.154157
1223.156164
1223.157956
1223.159404
1223.1607
1223.161752
1223.162382
1223.162782
1223.163005
1223.163179
1223.163212
1223.163427
1223.163408
1223.163392
1223.158387
1223.163182
1223.166799
1223.169408
1223.171029
1223.171709
1223.171737
1223.171506
1223.17082
1223.170302
1223.169601
1223.168926
1223.168387
1223.167702
1223.167428
1223.174181
1223.185093
1223.18967
1223.190245
1223.188463
1223.185889
1223.183264
1223.180632
1223.177954
1223.175846
1223.173872
1223.172227
1223.170818
1223.169707
1223.168779
1223.225918
1223.233369
1223.226799
1223.217143
1223.208128
1223.200622
1223.194434
1223.189526
1223.185609
1223.182505
1223.18002
1223.177947
1223.176189
1223.174585
1223.173354
1223.182181
1223.192742
1223.197275
1223.197728
1223.196041
1223.19355
1223.190958
1223.188243
1223.185887
1223.183794
1223.181964
1223.180185
1223.178867
1223.17769
1223.176781
1223.163696
1223.167409
1223.169975
1223.171564
1223.172383
1223.172477
1223.172332
1223.171775
1223.171253
1223.170771
1223.17017
1223.169738
1223.169114
1223.168892
1223.15091
1223.152751
1223.154677
1223.156009
1223.157173
1223.15807
1223.158887
1223.159511
1223.159773
1223.16001
1223.1603
1223.16051
1223.160515
1223.160579
1223.152647
1223.153589
1223.154565
1223.155693
1223.156739
1223.157695
1223.158798
1223.15952
1223.160151
1223.160803
1223.161317
1223.161677
1223.16209
1223.162373
1223.147943
1223.148412
1223.148997
1223.149639
1223.150566
1223.151481
1223.152385
1223.15344
1223.154378
1223.155305
1223.155943
1223.156617
1223.157197
1223.157849
1223.158194
1223.154509
1223.155351
1223.156454
1223.157748
1223.159035
1223.159979
1223.161048
1223.161789
1223.162687
1223.163505
1223.163896
1223.164448
1223.164783
1223.165271
1223.165416
1223.147131
1223.149231
1223.151511
1223.153852
1223.155392
1223.15655
1223.157497
1223.158121
1223.158376
1223.158456
1223.158477
1223.158452
1223.158421
1223.158306
1223.158157
1223.151807
1223.156512
1223.160275
1223.162671
1223.164305
1223.164918
1223.164796
1223.164519
1223.164231
1223.163565
1223.16295
1223.162454
1223.161961
1223.161402
1223.161017
1223.172612
1223.179218
1223.18302
1223.184448
1223.184609
1223.184013
1223.183036
1223.181996
1223.180987
1223.180078
1223.179291
1223.178376
1223.17764
1223.17691
1223.176483
1223.158535
1223.163305
1223.166932
1223.169441
1223.171077
1223.171716
1223.171736
1223.171536
1223.170978
1223.170347
1223.169851
1223.169117
1223.16847
1223.168089
1223.16796
1223.154959
1223.157307
1223.159562
1223.161541
1223.16322
1223.164535
1223.16533
1223.165897
1223.166254
1223.166379
1223.166435
1223.16638
1223.166208
1223.166268
1223.166151
1223.154188
1223.155421
1223.156767
1223.157959
1223.159195
1223.160258
1223.161052
1223.161574
1223.162224
1223.162764
1223.163174
1223.163484
1223.163534
1223.16372
1223.149733
1223.150355
1223.151128
1223.151932
1223.152814
1223.15366
1223.154365
1223.155137
1223.15602
1223.156676
1223.157422
1223.157814
1223.158237
1223.158455
1223.148374
1223.148631
1223.148843
1223.149328
1223.149894
1223.150431
1223.150962
1223.151551
1223.15219
1223.152761
1223.153441
1223.154083
1223.154675
1223.155244
1223.155758
1223.148291
1223.148735
1223.149141
1223.149887
1223.150873
1223.151795
1223.152504
1223.153288
1223.15407
1223.154814
1223.155508
1223.156093
1223.156634
1223.157149
1223.157304
1223.155286
1223.156265
1223.157383
1223.158427
1223.159456
1223.160455
1223.161302
1223.162063
1223.162806
1223.163422
1223.163719
1223.164167
1223.164522
1223.164911
1223.164971
1223.15655
1223.158164
1223.159989
1223.161712
1223.163402
1223.164468
1223.165377
1223.165915
1223.166288
1223.166916
1223.167183
1223.167498
1223.167486
1223.167559
1223.167482
1223.154948
1223.157102
1223.159287
1223.16089
1223.162428
1223.163348
1223.164282
1223.164593
1223.164912
1223.164897
1223.165203
1223.165194
1223.16518
1223.165189
1223.165185
1223.15857
1223.160173
1223.161888
1223.163581
1223.164984
1223.166297
1223.167127
1223.167843
1223.168361
1223.168938
1223.169409
1223.169608
1223.169617
1223.169654
1223.169697
1223.146723
1223.14771
1223.148806
1223.150111
1223.151284
1223.1524
1223.15332
1223.154227
1223.15511
1223.15574
1223.156175
1223.156734
1223.157122
1223.157233
1223.157464
1223.149503
1223.149922
1223.150536
1223.151206
1223.15197
1223.152772
1223.153709
1223.154569
1223.155168
1223.15589
1223.156505
1223.157109
1223.157701
1223.158174
1223.158491
1223.15428
1223.154692
1223.155171
1223.155726
1223.156391
1223.157209
1223.158098
1223.158832
1223.159574
1223.160338
1223.16089
1223.161439
1223.162051
1223.162412
1223.147673
1223.147791
1223.147938
1223.148249
1223.148572
1223.149092
1223.149757
1223.150346
1223.15103
1223.151784
1223.152478
1223.153123
1223.15369
1223.154189
1223.154386
1223.151024
1223.151429
1223.151718
1223.152001
1223.152673
1223.15328
1223.153851
1223.154608
1223.155247
1223.15588
1223.156459
1223.157014
1223.157667
1223.158172
1223.158695
1223.150969
1223.151417
1223.152002
1223.152789
1223.153574
1223.154612
1223.155685
1223.156547
1223.157474
1223.158173
1223.158998
1223.15952
1223.160174
1223.160553
1223.160831
1223.151534
1223.152277
1223.153243
1223.154279
1223.155532
1223.156553
1223.157534
1223.15843
1223.159407
1223.160079
1223.160808
1223.161402
1223.162035
1223.162394
1223.162671
1223.150466
1223.151335
1223.152299
1223.153503
1223.154901
1223.155996
1223.157057
1223.158177
1223.159115
1223.159758
1223.16043
1223.16093
1223.161305
1223.161635
1223.161786
1223.149102
1223.149854
1223.150823
1223.151833
1223.152897
1223.15389
1223.154879
1223.155827
1223.156623
1223.157295
1223.157926
1223.15844
1223.158724
1223.159237
1223.159665
1223.141263
1223.141705
1223.142332
1223.142886
1223.143702
1223.144506
1223.145332
1223.14619
1223.146943
1223.147515
1223.148077
1223.148719
1223.149134
1223.14981
1223.15018
1223.150574
1223.150697
1223.151068
1223.151684
1223.152159
1223.152645
1223.153291
1223.154103
1223.15489
1223.155562
1223.156231
1223.156893
1223.157546
1223.158012
1223.15849
1223.151928
1223.152162
1223.152413
1223.152712
1223.153117
1223.153623
1223.154079
1223.154568
1223.155233
1223.155895
1223.156492
1223.157204
1223.157833
1223.158423
1223.158933
)
;

boundaryField
{
    top
    {
        type            zeroGradient;
    }
    bottom
    {
        type            zeroGradient;
    }
    side-walls
    {
        type            zeroGradient;
    }
    inlet
    {
        type            zeroGradient;
    }
    outlet
    {
        type            zeroGradient;
    }
    procBoundary1to0
    {
        type            processor;
        value           nonuniform List<scalar> 
97
(
1223.149287
1223.149287
1223.152842
1223.147382
1223.14883
1223.151069
1223.151422
1223.150474
1223.147523
1223.14927
1223.154227
1223.150007
1223.150007
1223.150007
1223.149797
1223.152279
1223.162963
1223.158283
1223.150858
1223.150373
1223.154457
1223.147766
1223.147804
1223.15686
1223.15686
1223.15686
1223.153376
1223.167781
1223.152413
1223.145628
1223.156349
1223.150326
1223.145192
1223.158693
1223.159261
1223.18716
1223.18716
1223.18716
1223.224124
1223.168736
1223.162298
1223.149792
1223.152443
1223.149524
1223.156956
1223.157948
1223.169626
1220.158788
1220.158788
1220.158788
1223.22206
1223.22206
1223.160406
1223.148962
1223.151102
1223.157771
1223.151127
1223.153933
1223.158105
1223.173811
1223.166038
1223.159078
1223.159078
1223.159078
1223.149044
1223.151859
1223.147631
1223.154028
1223.145479
1223.147389
1223.163585
1223.15411
1223.153241
1223.153312
1223.153312
1223.153312
1223.149538
1223.14818
1223.147752
1223.154514
1223.155312
1223.153146
1223.157351
1223.146055
1223.149208
1223.154073
1223.154073
1223.154073
1223.147823
1223.151002
1223.150695
1223.151102
1223.149845
1223.148755
1223.140992
1223.150498
1223.151807
)
;
    }
}


// ************************************************************************* //
