/*--------------------------------*- C++ -*----------------------------------*\
| =========                 |                                                 |
| \\      /  F ield         | OpenFOAM: The Open Source CFD Toolbox           |
|  \\    /   O peration     | Version:  4.x                                   |
|   \\  /    A nd           | Web:      www.OpenFOAM.org                      |
|    \\/     M anipulation  |                                                 |
\*---------------------------------------------------------------------------*/
FoamFile
{
    version     2.0;
    format      ascii;
    class       volVectorField;
    location    "9000";
    object      U;
}
// * * * * * * * * * * * * * * * * * * * * * * * * * * * * * * * * * * * * * //

dimensions      [0 1 -1 0 0 0 0];

internalField   nonuniform List<vector> 
1174
(
(0.01100023213 -4.401300468e-09 -4.454422465e-09)
(0.01100024277 -5.231201364e-09 -4.636719775e-09)
(0.01100025515 -3.182482076e-09 -3.943101927e-09)
(0.01100025023 -3.85938891e-09 -3.145520149e-09)
(0.01100023947 8.513846781e-11 -8.722845624e-10)
(0.01100022323 8.279168049e-10 4.201785058e-11)
(0.01100019999 3.317111019e-09 1.170123955e-09)
(0.01100017786 3.160177849e-09 2.144827365e-09)
(0.01100014372 1.312691785e-09 3.032142808e-09)
(0.01100011448 2.516020925e-10 5.486939898e-09)
(0.01100008531 3.198689024e-09 3.576874321e-09)
(0.01100005281 2.574117931e-09 3.0277119e-09)
(0.01100002968 2.676769488e-09 2.76197271e-09)
(0.01099999579 3.261239332e-09 2.985019835e-09)
(0.01100024169 -2.658490623e-08 -4.351413346e-09)
(0.01100023746 -2.28725854e-08 -6.240119058e-09)
(0.01100024673 -1.163395183e-08 -5.993383378e-09)
(0.01100023169 -7.625858332e-09 -2.714213509e-09)
(0.01100021299 -1.796274426e-09 -1.772655443e-09)
(0.01100018877 4.779269877e-10 5.051609424e-10)
(0.01100015706 4.705118349e-09 6.436970293e-10)
(0.01100012352 4.882450921e-09 1.501932348e-09)
(0.01100009239 6.211058354e-09 2.696849065e-09)
(0.01100006202 7.120501586e-09 3.31039445e-09)
(0.01100003166 5.388963052e-09 2.430751158e-09)
(0.01099999927 6.334034311e-09 3.248472711e-09)
(0.01099997147 7.06279645e-09 2.383101935e-09)
(0.01099994363 6.604923627e-09 4.122508153e-09)
(0.01100026631 -1.873925579e-08 -9.128715864e-09)
(0.01100023507 -2.130640772e-08 -1.09769264e-08)
(0.01100022876 -1.755602314e-08 -6.196235326e-09)
(0.01100019605 -6.894739302e-09 -2.379005247e-09)
(0.01100015939 -1.601516775e-11 2.517280107e-09)
(0.01100011843 5.143005639e-09 3.190747369e-09)
(0.01100007474 5.580692884e-09 2.614847645e-09)
(0.01100003743 6.362856019e-09 3.610878504e-09)
(0.01100000437 8.122556832e-09 4.484980496e-09)
(0.01099996985 1.023664858e-08 2.912674541e-09)
(0.01099994261 1.020873461e-08 4.02676102e-09)
(0.0109999137 8.643870678e-09 3.457238192e-09)
(0.01099989274 8.661388718e-09 3.106617521e-09)
(0.01099987084 8.145066422e-09 8.983560556e-10)
(0.01100027536 -2.36158616e-08 3.069802685e-09)
(0.01100020096 -1.22398759e-08 -1.298288361e-08)
(0.01100018533 2.718091674e-09 -5.068081268e-09)
(0.01100013654 7.513347848e-09 -1.615506389e-10)
(0.0110000839 6.586968474e-09 8.74559377e-10)
(0.01100003381 6.92230573e-09 4.988931167e-09)
(0.01099998701 8.345299729e-09 8.244774866e-09)
(0.01099994836 6.327584501e-09 7.801154925e-09)
(0.01099991514 7.091472677e-09 6.054411679e-09)
(0.01099988433 7.266850099e-09 3.806937207e-09)
(0.01099985533 7.665344519e-09 5.40264374e-09)
(0.01099983519 6.056873492e-09 6.615908936e-09)
(0.01099981977 7.6989541e-09 4.958327373e-09)
(0.0109998017 6.403200873e-09 2.538985296e-09)
(0.01100035294 -1.20869514e-09 1.633686191e-08)
(0.01100020509 1.368039866e-09 1.720164308e-09)
(0.01100016739 2.967295163e-10 4.702117084e-09)
(0.01100009927 1.327517121e-09 8.653269019e-09)
(0.01100004215 3.794619496e-10 7.416183971e-09)
(0.01099999115 8.542959647e-10 8.712150237e-09)
(0.01099994296 2.5975239e-10 7.065010009e-09)
(0.01099990435 8.889247272e-10 6.45803528e-09)
(0.01099987146 -2.527980451e-10 6.815308534e-09)
(0.0109998444 3.678443908e-10 6.119515734e-09)
(0.01099982079 9.747755495e-10 3.274560034e-09)
(0.01099980026 7.835760543e-10 5.600837594e-09)
(0.01099978769 -1.015832241e-09 3.30444991e-09)
(0.01099977887 9.685311529e-10 9.850585213e-10)
(0.01100027727 2.150025383e-08 4.326104098e-09)
(0.01100020122 8.399375827e-09 -1.275575275e-08)
(0.01100018527 2.780421226e-10 -6.283826238e-09)
(0.01100013598 -6.628193613e-09 2.921258792e-10)
(0.01100008438 -8.182686963e-09 3.519814537e-09)
(0.01100003304 -7.68116902e-09 5.751304013e-09)
(0.01099998653 -8.391176233e-09 7.521437525e-09)
(0.01099994869 -7.168228786e-09 7.112640845e-09)
(0.01099991129 -4.309557553e-09 8.435034442e-09)
(0.01099988295 -5.159692393e-09 8.162236898e-09)
(0.01099985819 -5.687575984e-09 5.365367053e-09)
(0.01099983612 -5.372575145e-09 6.243325045e-09)
(0.01099981988 -5.735958915e-09 5.520554811e-09)
(0.01099980793 -3.773910854e-09 3.662955488e-09)
(0.01100026514 1.821060342e-08 -5.854113194e-09)
(0.01100023588 2.095244407e-08 -1.002284412e-08)
(0.01100023213 9.839979606e-09 -4.739096013e-09)
(0.01100019401 5.058848678e-09 -2.339376627e-10)
(0.01100015833 -1.30665603e-09 1.0583953e-09)
(0.01100011544 -5.004972029e-09 3.923301659e-09)
(0.01100007513 -6.214725653e-09 5.761051202e-09)
(0.01100003879 -7.385834724e-09 5.467707407e-09)
(0.01100000307 -9.031844384e-09 4.905585107e-09)
(0.01099997046 -8.816439353e-09 5.109107274e-09)
(0.01099993971 -9.007756929e-09 4.847167368e-09)
(0.01099991484 -7.632257477e-09 5.918044516e-09)
(0.01099989504 -7.985002204e-09 5.228527701e-09)
(0.01099987661 -7.291960394e-09 2.308676533e-09)
(0.0110002367 2.906044396e-08 -5.606927839e-09)
(0.01100023649 2.207915971e-08 -5.849815279e-09)
(0.01100024768 1.458520385e-08 -3.109683331e-09)
(0.01100023323 6.666399873e-09 -1.732875501e-09)
(0.01100021187 1.366441139e-09 -2.729027978e-09)
(0.01100018554 -1.424505409e-09 2.386859825e-10)
(0.01100015554 -3.82906733e-09 2.408253438e-09)
(0.01100012723 -4.771278646e-09 4.049100579e-09)
(0.01100009384 -6.29515311e-09 3.640612588e-09)
(0.01100006213 -6.930667739e-09 3.987320225e-09)
(0.01100002946 -6.358117014e-09 4.048220635e-09)
(0.0110000004 -6.762946717e-09 4.036346173e-09)
(0.01099997636 -6.226195281e-09 2.966741245e-09)
(0.01099994667 -7.278276703e-09 2.324786673e-09)
(0.01100023186 5.130555849e-09 -6.407251031e-09)
(0.01100024053 7.966288507e-09 -7.418642243e-09)
(0.01100025383 4.977955061e-09 -4.113759677e-09)
(0.01100024966 2.328242229e-09 -3.358225908e-09)
(0.01100024061 2.015280768e-09 -3.773322879e-09)
(0.01100022388 -6.681198961e-10 -9.06440649e-10)
(0.0110002013 -9.886255608e-11 5.413857727e-10)
(0.01100017461 -4.994967649e-10 2.225447114e-09)
(0.01100014526 -2.880860184e-09 2.246824936e-09)
(0.01100011595 -4.653372051e-09 1.831017234e-09)
(0.0110000858 -4.080027317e-09 2.429391692e-09)
(0.01100005489 -2.793986167e-09 3.178396565e-09)
(0.01100002707 -2.720909588e-09 2.734756448e-09)
(0.01100000043 -3.416781912e-09 2.793055809e-09)
(0.01100018204 -2.236156968e-08 -5.652023395e-08)
(0.01100024172 -4.905035883e-09 -2.803489271e-08)
(0.01100023806 -5.746652077e-09 -2.203611471e-08)
(0.01100024626 -2.771908266e-09 -1.330819608e-08)
(0.01100023192 -2.732212186e-09 -6.107474729e-09)
(0.01100021222 -4.454148942e-10 -1.999961607e-09)
(0.01100018811 8.510609457e-10 2.228786456e-09)
(0.01100015474 4.028930014e-09 5.060285828e-09)
(0.01100012904 3.09196358e-09 8.333087078e-09)
(0.01100009126 1.777330731e-09 7.127992639e-09)
(0.01100005926 1.733105102e-09 8.790671379e-09)
(0.01100003147 3.67221551e-09 9.141934554e-09)
(0.01099999824 2.764535793e-09 7.721922928e-09)
(0.01099997465 3.381807469e-09 7.233081756e-09)
(0.0109999453 5.412715283e-09 7.917956082e-09)
(0.01100025345 -2.79868735e-08 -3.222127085e-08)
(0.01100021944 -2.733295e-08 -2.874714868e-08)
(0.0110002188 -1.463438404e-08 -1.575336982e-08)
(0.01100018861 -5.12507352e-09 -5.591764318e-09)
(0.01100015663 1.817304799e-09 6.044061937e-10)
(0.01100011937 6.929239771e-09 4.569156712e-09)
(0.01100008053 8.181020843e-09 7.564213533e-09)
(0.01100004871 9.215983852e-09 8.928826544e-09)
(0.01100001393 1.070230075e-08 1.01082052e-08)
(0.01099998159 1.15217584e-08 1.087082158e-08)
(0.01099995777 1.182287742e-08 1.114116293e-08)
(0.0109999328 1.121498106e-08 7.98326393e-09)
(0.01099990933 1.037261081e-08 1.075043119e-08)
(0.0109998842 9.16084216e-09 9.256920847e-09)
(0.01100028475 -9.361768902e-09 -4.621801053e-08)
(0.01100018414 -2.958920457e-08 -3.60066518e-08)
(0.0110001534 -1.415142604e-08 -7.407146448e-09)
(0.01100009326 -2.285878285e-09 8.806162181e-09)
(0.01100003761 5.963967701e-09 1.540671236e-08)
(0.01099998475 1.111041333e-08 1.634523611e-08)
(0.01099994275 1.459918705e-08 1.945372858e-08)
(0.01099990521 1.430138325e-08 1.894306555e-08)
(0.01099988092 1.41624694e-08 1.696955067e-08)
(0.01099985756 1.358791057e-08 1.42981594e-08)
(0.01099983653 1.338398682e-08 1.416317981e-08)
(0.01099982073 1.256783864e-08 1.377985391e-08)
(0.01099980681 1.382928876e-08 1.331026038e-08)
(0.01099979576 8.228298853e-09 1.094291835e-08)
(0.01100025504 1.449129419e-09 -1.429859511e-08)
(0.01100005356 2.099434785e-09 -3.817804124e-08)
(0.01100001721 1.480226062e-08 1.558594914e-09)
(0.01099993782 1.817817023e-08 2.077080374e-08)
(0.01099987421 1.904645236e-08 2.684636356e-08)
(0.01099982421 1.742230178e-08 2.872548959e-08)
(0.01099978585 1.42029449e-08 2.848602851e-08)
(0.01099975786 1.270693339e-08 2.546154937e-08)
(0.01099974288 1.242449057e-08 2.366321233e-08)
(0.01099973136 9.922437934e-09 1.906443157e-08)
(0.01099972256 9.572831302e-09 1.795179288e-08)
(0.0109997163 9.684134452e-09 1.586471957e-08)
(0.01099971642 8.138651352e-09 1.494524497e-08)
(0.01099971354 7.235642157e-09 1.166137477e-08)
(0.01100039025 -1.85532336e-10 6.9822162e-08)
(0.0109999802 -6.836334323e-10 3.935171114e-08)
(0.01099991967 -5.878793816e-10 6.649073935e-08)
(0.01099983092 8.142210074e-10 6.438090063e-08)
(0.01099977064 -2.185296779e-10 5.359405062e-08)
(0.01099972894 3.55069162e-11 4.720642691e-08)
(0.01099970335 -1.524146285e-10 3.849818252e-08)
(0.01099968712 -6.928707467e-11 3.219614804e-08)
(0.01099967848 3.06302832e-10 2.686030423e-08)
(0.01099967543 3.225852917e-09 2.217033759e-08)
(0.01099967303 5.109113228e-10 1.906319875e-08)
(0.01099967096 4.329053692e-10 1.625070426e-08)
(0.01099967368 5.655031336e-10 1.514582331e-08)
(0.01099967986 -2.403204429e-10 1.233107474e-08)
(0.0110002544 -4.881562543e-09 -1.198798917e-08)
(0.01100005525 -2.323199373e-09 -3.860174625e-08)
(0.01100001823 -1.405446814e-08 2.793095038e-09)
(0.01099993613 -1.944017506e-08 2.012397192e-08)
(0.01099987317 -1.906341495e-08 2.69638129e-08)
(0.01099982338 -1.71613953e-08 2.957994979e-08)
(0.01099978636 -1.486484797e-08 2.977830754e-08)
(0.01099975797 -1.303553973e-08 2.729281009e-08)
(0.01099974228 -1.00014634e-08 2.380776325e-08)
(0.0109997283 -1.024114043e-08 2.066243578e-08)
(0.01099972211 -8.642074554e-09 1.783180701e-08)
(0.01099971659 -7.95778043e-09 1.592911959e-08)
(0.01099971571 -8.430104266e-09 1.515103361e-08)
(0.01099971485 -5.683168529e-09 1.080377102e-08)
(0.0110002833 9.479135331e-09 -4.34392552e-08)
(0.01100018251 2.727225482e-08 -3.284024794e-08)
(0.01100015513 1.395423596e-08 -5.919982928e-09)
(0.01100009215 3.318460963e-09 7.429194236e-09)
(0.01100003417 -5.344483477e-09 1.505579801e-08)
(0.01099998584 -1.07690679e-08 1.87478165e-08)
(0.01099994238 -1.268311695e-08 1.886067036e-08)
(0.01099990778 -1.217310965e-08 1.747036549e-08)
(0.01099987548 -1.379860298e-08 1.693959002e-08)
(0.01099985277 -1.289419576e-08 1.619292855e-08)
(0.01099983639 -1.257254453e-08 1.363667779e-08)
(0.01099982108 -1.170165608e-08 1.392517408e-08)
(0.01099980797 -1.121960343e-08 1.321829319e-08)
(0.01099980023 -7.635645039e-09 1.0277149e-08)
(0.01100025075 2.946723474e-08 -3.037412383e-08)
(0.01100021982 2.784319558e-08 -2.672990927e-08)
(0.0110002186 1.36595449e-08 -1.216752402e-08)
(0.01100018954 3.927299201e-09 -5.032819929e-09)
(0.0110001547 -2.601489569e-09 1.894957506e-09)
(0.01100011869 -6.36823857e-09 5.570045441e-09)
(0.01100008113 -8.70372764e-09 7.482454892e-09)
(0.01100004767 -1.100371361e-08 9.872970549e-09)
(0.01100001436 -1.072936397e-08 1.190567749e-08)
(0.01099998394 -1.193937785e-08 1.035432435e-08)
(0.01099995376 -1.055777184e-08 8.59238037e-09)
(0.01099992986 -1.056172593e-08 1.033315096e-08)
(0.01099991025 -9.397172839e-09 9.062448658e-09)
(0.01099988955 -8.082103231e-09 6.619586331e-09)
(0.0110002401 5.287052809e-09 -2.793994136e-08)
(0.01100023834 7.410377992e-09 -2.204601906e-08)
(0.01100024586 4.9801394e-09 -1.469101356e-08)
(0.01100023123 2.686434235e-09 -6.513126381e-09)
(0.01100021535 1.431669067e-09 -1.791920428e-09)
(0.01100018571 -8.323763483e-10 1.928745888e-09)
(0.01100015427 -2.188782181e-09 3.332092549e-09)
(0.01100012363 -2.548339873e-09 4.044545821e-09)
(0.01100009135 -3.838557509e-09 6.035664418e-09)
(0.0110000599 -4.857259712e-09 6.22534025e-09)
(0.01100003114 -3.579770008e-09 7.146736106e-09)
(0.01099999734 -3.101541251e-09 7.547267749e-09)
(0.01099997512 -2.951271157e-09 7.504868298e-09)
(0.01099995055 -2.534276208e-09 6.020871483e-09)
(0.01100018978 -4.216222339e-08 -6.975477479e-08)
(0.0110002673 -5.399878131e-09 -1.933295895e-08)
(0.01100023266 -8.301959239e-09 -2.331193826e-08)
(0.01100023205 -2.037446099e-09 -1.193002546e-08)
(0.01100019509 1.625979395e-09 -7.682944394e-09)
(0.01100015779 5.772592434e-10 -3.874870941e-10)
(0.01100011709 6.519777467e-09 4.947345069e-09)
(0.01100007761 7.45643097e-09 8.949073258e-09)
(0.01100003728 6.418618584e-09 8.803652268e-09)
(0.01100000068 7.058968771e-09 9.437455752e-09)
(0.01099996824 8.575724686e-09 9.940329442e-09)
(0.01099994189 7.286135626e-09 1.176371224e-08)
(0.01099991303 5.78734112e-09 1.113819108e-08)
(0.01099989145 8.901663809e-09 9.838194161e-09)
(0.01099986757 7.045266936e-09 7.898461365e-09)
(0.01100020017 -1.952184694e-07 -1.089078673e-07)
(0.01100028217 -4.400527552e-08 -1.193693045e-08)
(0.01100018163 -3.492749195e-08 -3.154646446e-08)
(0.01100015389 -5.943482046e-09 -1.345497621e-08)
(0.01100008991 7.698974769e-09 -2.571756893e-09)
(0.01100003528 1.552442362e-08 5.584361798e-09)
(0.01099998648 1.742033438e-08 9.447615347e-09)
(0.01099994112 2.002389707e-08 1.160787686e-08)
(0.01099990737 1.893083165e-08 1.211979141e-08)
(0.01099987845 1.54475197e-08 1.439525342e-08)
(0.010999855 1.501838504e-08 1.434366471e-08)
(0.01099983377 1.436129564e-08 1.375794856e-08)
(0.01099982133 1.266033598e-08 1.363027818e-08)
(0.01099980749 1.29173974e-08 1.175013109e-08)
(0.01099979647 1.03528899e-08 9.530210349e-09)
(0.0110003178 -2.131171005e-09 -8.071614376e-09)
(0.01100004008 -3.343052769e-08 -3.555195774e-08)
(0.01099994517 2.693808057e-09 2.077964721e-09)
(0.01099983528 2.084757944e-08 1.932385337e-08)
(0.01099975839 2.656119305e-08 2.718808732e-08)
(0.01099971177 2.854174498e-08 2.697719997e-08)
(0.01099968308 2.612529891e-08 2.617330201e-08)
(0.01099966709 2.451415717e-08 2.326849466e-08)
(0.01099966183 2.326495653e-08 2.063935314e-08)
(0.01099966178 1.969335613e-08 1.988957611e-08)
(0.01099966174 1.792672609e-08 1.76303703e-08)
(0.01099967132 1.747348577e-08 1.410023715e-08)
(0.01099967419 1.445980789e-08 1.473773938e-08)
(0.01099967997 1.318051386e-08 1.153259136e-08)
(0.01100013448 8.906690968e-08 9.852452928e-08)
(0.0109995984 6.30354339e-08 -7.118849453e-08)
(0.01099952733 7.331831019e-08 9.042441724e-09)
(0.01099941848 6.489522234e-08 3.7995281e-08)
(0.01099937552 5.095981347e-08 4.242558814e-08)
(0.01099936986 3.869192357e-08 4.233543357e-08)
(0.01099938028 2.972637486e-08 3.805526495e-08)
(0.01099940741 2.266714256e-08 3.229184018e-08)
(0.01099943631 1.834209292e-08 2.694351294e-08)
(0.01099946856 1.503146711e-08 2.467622428e-08)
(0.01099949859 1.314216434e-08 1.860639135e-08)
(0.01099952311 1.220056871e-08 1.731999405e-08)
(0.01099955128 1.083778524e-08 1.651658926e-08)
(0.01099957147 9.465734627e-09 1.436611669e-08)
(0.01100032416 1.925866912e-10 5.967865367e-07)
(0.01099916643 -5.982125129e-10 9.097239153e-08)
(0.0109991311 7.391106936e-10 1.136279457e-07)
(0.01099908273 -1.112744086e-10 1.107190867e-07)
(0.01099910476 -4.183868593e-10 8.34493585e-08)
(0.01099916132 1.593638501e-09 6.405554895e-08)
(0.01099921877 1.2932887e-09 5.09299429e-08)
(0.01099927605 7.583024942e-11 3.960059675e-08)
(0.01099933362 1.426557228e-09 3.078149534e-08)
(0.01099938375 2.094783724e-09 2.515252704e-08)
(0.01099942376 8.631731897e-10 2.03129841e-08)
(0.01099946505 1.348867249e-10 1.522951737e-08)
(0.01099949589 -7.538964379e-10 1.618894013e-08)
(0.01099952814 8.179613772e-11 1.260201742e-08)
(0.01100013479 -8.931541227e-08 9.939088294e-08)
(0.01099960043 -6.353112657e-08 -7.075389857e-08)
(0.01099952676 -7.400454623e-08 6.257899148e-09)
(0.01099941841 -6.603193079e-08 3.81724584e-08)
(0.01099937668 -5.046019083e-08 4.337497878e-08)
(0.01099936999 -3.823463427e-08 4.293062408e-08)
(0.01099938132 -2.957730783e-08 3.842806873e-08)
(0.01099940756 -2.403948168e-08 3.375226209e-08)
(0.01099943865 -1.775865484e-08 2.78884763e-08)
(0.01099946437 -1.460241349e-08 2.13929336e-08)
(0.01099949743 -1.295403084e-08 1.830397735e-08)
(0.01099952307 -1.085875058e-08 1.551387578e-08)
(0.01099954924 -9.091369603e-09 1.65226288e-08)
(0.01099957353 -8.132300505e-09 1.295438973e-08)
(0.01100031664 2.899972961e-09 -5.44478031e-09)
(0.01100004036 3.512033941e-08 -3.577143557e-08)
(0.01099994806 -2.795830389e-09 1.237780698e-09)
(0.01099983399 -1.828764105e-08 1.92153042e-08)
(0.01099975992 -2.614224337e-08 2.610694195e-08)
(0.0109997122 -2.811860127e-08 2.709405025e-08)
(0.0109996832 -2.759235316e-08 2.483279036e-08)
(0.01099966756 -2.523466585e-08 2.285287505e-08)
(0.01099965807 -2.272232237e-08 2.016982504e-08)
(0.01099965877 -2.11201401e-08 1.837826715e-08)
(0.01099966452 -1.730488813e-08 1.611818726e-08)
(0.01099966922 -1.507894994e-08 1.233511781e-08)
(0.01099967148 -1.400550795e-08 1.449025026e-08)
(0.01099968085 -1.155243964e-08 1.04547475e-08)
(0.01100028192 4.333326434e-08 -8.814178264e-09)
(0.01100018686 3.480493568e-08 -2.827932832e-08)
(0.01100015224 7.010279117e-09 -1.458534012e-08)
(0.01100008798 -8.004023762e-09 -2.681218856e-09)
(0.01100003538 -1.506400271e-08 3.764472166e-09)
(0.0109999857 -1.903477509e-08 9.09459586e-09)
(0.01099994007 -1.909504705e-08 1.138809056e-08)
(0.01099990745 -1.841515623e-08 1.126801009e-08)
(0.01099987795 -1.824074288e-08 1.156256898e-08)
(0.01099985603 -1.447903286e-08 1.048807893e-08)
(0.01099983602 -1.478120313e-08 1.252672326e-08)
(0.01099981932 -1.262415561e-08 1.026500937e-08)
(0.01099980642 -1.245699593e-08 1.111688122e-08)
(0.01099979555 -1.076743365e-08 6.866623382e-09)
(0.01100026541 8.860921701e-09 -1.883405185e-08)
(0.01100023673 9.723354813e-09 -2.213704898e-08)
(0.01100022972 4.246040966e-09 -1.245511653e-08)
(0.01100019567 3.516640728e-11 -6.306745483e-09)
(0.01100015709 -1.344979231e-09 -8.831525562e-10)
(0.01100011574 -3.3286862e-09 2.617858865e-09)
(0.01100007646 -6.876150005e-09 3.283835984e-09)
(0.01100003681 -4.023258704e-09 6.601153158e-09)
(0.01100000185 -6.063612174e-09 7.753999415e-09)
(0.0109999717 -7.663102614e-09 9.309280914e-09)
(0.01099993898 -4.909713054e-09 8.450884308e-09)
(0.01099991449 -5.723239069e-09 7.536996088e-09)
(0.01099989451 -5.635490166e-09 8.119320061e-09)
(0.0109998708 -3.659804177e-09 6.861128797e-09)
(0.01100020216 -5.823547321e-08 -1.147254064e-07)
(0.01100027462 5.090292831e-09 -2.326361014e-08)
(0.01100020042 -1.298451481e-08 -1.163043393e-08)
(0.01100018504 -2.722826913e-09 2.252626619e-10)
(0.01100013336 1.2168083e-09 4.090558106e-09)
(0.01100008436 6.108033605e-09 7.675759222e-09)
(0.0110000319 5.999200363e-09 8.184276506e-09)
(0.01099998742 6.777985717e-09 9.201176457e-09)
(0.01099994823 7.856146365e-09 8.581686258e-09)
(0.01099991152 7.208992822e-09 8.878396682e-09)
(0.01099988186 7.276758353e-09 6.718526562e-09)
(0.01099985672 5.445152273e-09 6.233540272e-09)
(0.01099983448 5.196844403e-09 5.911611888e-09)
(0.01099981474 5.551950363e-09 6.405485443e-09)
(0.01099980326 6.488277384e-09 6.109193975e-09)
(0.01100021502 -2.875667606e-07 -2.26363024e-07)
(0.01100025514 -1.27222543e-08 2.720200712e-09)
(0.01100005411 -3.737764978e-08 1.226414958e-09)
(0.01100001697 1.057989815e-09 1.262539526e-08)
(0.01099993346 2.164098112e-08 1.829074758e-08)
(0.01099987171 2.87185688e-08 1.627737604e-08)
(0.01099982093 3.035584424e-08 1.602148394e-08)
(0.01099978666 2.854795896e-08 1.483228253e-08)
(0.01099975941 2.636353097e-08 1.313310689e-08)
(0.01099974205 2.339887123e-08 1.15847525e-08)
(0.01099972981 2.06074472e-08 9.457642177e-09)
(0.01099971921 1.759804303e-08 9.2000761e-09)
(0.0109997174 1.483160185e-08 8.271016181e-09)
(0.01099971551 1.352497298e-08 6.22442804e-09)
(0.01099971359 1.286596829e-08 5.983260276e-09)
(0.01100018144 -3.600740999e-07 -6.55940256e-07)
(0.01100013445 1.004042009e-07 8.792079983e-08)
(0.01099959987 -6.933842267e-08 6.049475931e-08)
(0.01099952735 7.595452942e-09 7.235865728e-08)
(0.0109994153 3.816790591e-08 6.529077135e-08)
(0.01099937194 4.436524925e-08 5.004822816e-08)
(0.01099936704 4.627660442e-08 3.780692498e-08)
(0.01099938158 4.108500016e-08 2.763200099e-08)
(0.01099940788 3.208960857e-08 2.242624471e-08)
(0.01099943637 2.871168838e-08 1.913720226e-08)
(0.01099946852 2.46176167e-08 1.461828478e-08)
(0.01099949538 2.059109258e-08 1.312276255e-08)
(0.01099952522 1.685334276e-08 1.010056045e-08)
(0.01099954781 1.901721823e-08 8.993840262e-09)
(0.01099957239 1.35295716e-08 8.213968898e-09)
(0.0109990416 6.043078858e-07 6.048016768e-07)
(0.01099824659 1.274442109e-07 1.280990808e-07)
(0.01099850355 1.277265786e-07 1.285868003e-07)
(0.01099853512 1.129282994e-07 1.131149042e-07)
(0.01099864344 7.837110366e-08 7.915019618e-08)
(0.01099877768 5.682289879e-08 5.7458657e-08)
(0.01099890256 4.273568366e-08 4.117752762e-08)
(0.01099901926 3.139475564e-08 3.006675097e-08)
(0.01099911771 2.373643385e-08 2.285319714e-08)
(0.01099920685 1.791784503e-08 1.797352822e-08)
(0.01099927775 1.409815997e-08 1.555922503e-08)
(0.01099934305 1.320284822e-08 1.142282041e-08)
(0.01099939441 1.292427432e-08 1.080808228e-08)
(0.01099944086 9.683001266e-09 9.061290497e-09)
(0.01099811136 1.582797332e-10 3.694170277e-06)
(0.01099621309 -3.814784696e-10 1.054776626e-06)
(0.01099734005 1.670540779e-10 4.804701599e-07)
(0.01099774945 -2.62417401e-09 2.806271939e-07)
(0.01099810054 -8.033656782e-10 1.533156177e-07)
(0.01099840429 -1.817915764e-09 8.704664092e-08)
(0.01099863528 2.779291992e-10 5.401792902e-08)
(0.0109988189 -8.097494902e-10 3.64453169e-08)
(0.0109989673 -5.808087452e-10 2.523723145e-08)
(0.0109990861 -1.524284696e-09 1.861544467e-08)
(0.01099918486 6.684401968e-10 1.561745655e-08)
(0.01099926538 -1.102819367e-09 1.19871667e-08)
(0.01099933284 -8.3359683e-10 1.192812877e-08)
(0.01099939374 -1.138888879e-09 9.192687713e-09)
(0.01099904208 -6.045357326e-07 6.03304107e-07)
(0.01099824738 -1.288758084e-07 1.28321521e-07)
(0.01099850361 -1.291593046e-07 1.277739117e-07)
(0.01099853278 -1.125669662e-07 1.116459165e-07)
(0.01099864418 -8.036938332e-08 7.770328987e-08)
(0.01099877891 -5.803849563e-08 5.632944202e-08)
(0.01099890168 -4.325360493e-08 4.066931955e-08)
(0.01099902014 -3.072593186e-08 2.901303767e-08)
(0.01099911706 -2.342879547e-08 2.329962162e-08)
(0.01099920807 -1.714305767e-08 1.807346114e-08)
(0.01099927656 -1.456345837e-08 1.496971182e-08)
(0.01099934165 -1.282721578e-08 1.073981076e-08)
(0.01099939338 -1.2308418e-08 1.138081037e-08)
(0.01099944472 -9.05076521e-09 8.015865644e-09)
(0.01100013446 -1.008307021e-07 8.670443875e-08)
(0.01099960101 7.168535131e-08 6.291198664e-08)
(0.01099952649 -7.035268994e-09 7.491133864e-08)
(0.0109994163 -3.828386059e-08 6.346010878e-08)
(0.0109993747 -4.559448884e-08 4.91875987e-08)
(0.01099936847 -4.296676595e-08 3.669034792e-08)
(0.01099938071 -4.06421956e-08 2.747244239e-08)
(0.01099940717 -3.333780259e-08 2.188521183e-08)
(0.0109994385 -2.902246477e-08 1.785790136e-08)
(0.01099946642 -2.384810117e-08 1.294136974e-08)
(0.01099949444 -1.94641691e-08 1.117816526e-08)
(0.01099952591 -1.633153969e-08 7.791008416e-09)
(0.01099954753 -1.634216661e-08 1.022796103e-08)
(0.01099957393 -1.362265963e-08 7.093943988e-09)
(0.01100025643 1.272879492e-08 3.700378174e-09)
(0.0110000533 3.747066431e-08 2.942445422e-09)
(0.01100001659 -2.796218915e-09 1.456933475e-08)
(0.01099993506 -1.968492416e-08 1.954142777e-08)
(0.01099987225 -2.73869864e-08 1.850073883e-08)
(0.01099982214 -3.051094495e-08 1.572984771e-08)
(0.01099978433 -2.992169663e-08 1.390936767e-08)
(0.01099976035 -2.658842132e-08 1.272186556e-08)
(0.01099973945 -2.432702176e-08 1.104904952e-08)
(0.01099973229 -2.050496672e-08 9.797678554e-09)
(0.01099972001 -2.00088084e-08 8.199509159e-09)
(0.01099971623 -1.427081551e-08 4.395102865e-09)
(0.01099971418 -1.540867153e-08 7.498207148e-09)
(0.01099971196 -1.27415739e-08 6.498688622e-09)
(0.01100027625 -4.016718883e-09 -2.06002652e-08)
(0.01100020155 1.170531652e-08 -8.927887574e-09)
(0.01100018523 5.485413294e-09 1.614792107e-09)
(0.01100013288 -1.942669148e-09 6.431824074e-09)
(0.01100008491 -3.902895807e-09 6.666733344e-09)
(0.01100003326 -7.846184288e-09 6.252275808e-09)
(0.01099998666 -8.024690067e-09 8.031439488e-09)
(0.01099994883 -8.478550438e-09 6.740757848e-09)
(0.01099991336 -7.543341883e-09 7.074979777e-09)
(0.01099988081 -8.017882359e-09 6.152113511e-09)
(0.0109998561 -5.283992198e-09 5.015105796e-09)
(0.01099983551 -6.508663827e-09 5.629876297e-09)
(0.01099981683 -4.61781037e-09 4.917579408e-09)
(0.01099980199 -3.200157286e-09 3.942001814e-09)
(0.01100022724 -1.501308915e-07 -7.890118211e-10)
(0.01100035234 2.403780555e-08 -6.608989114e-10)
(0.01100020458 2.408588451e-09 -1.056834935e-09)
(0.01100016704 1.119777405e-08 -1.36872871e-09)
(0.01100010149 1.481829464e-08 -2.542748713e-10)
(0.0110000414 1.373661875e-08 4.261625119e-10)
(0.01099998676 1.227367384e-08 -2.974154836e-10)
(0.01099994238 1.145867443e-08 3.402368094e-10)
(0.01099990369 9.470745505e-09 -6.140852601e-10)
(0.01099987106 9.142667499e-09 4.000666572e-10)
(0.01099984387 8.158530021e-09 1.481915246e-09)
(0.01099982066 8.158388453e-09 7.337212562e-10)
(0.01099980203 8.160198696e-09 -1.389659978e-09)
(0.01099978644 6.850158243e-09 -2.687947187e-11)
(0.01099977617 5.831948527e-09 1.595225241e-09)
(0.01100028291 -7.212486683e-07 -1.513612727e-09)
(0.01100038956 6.969232777e-08 -9.374782153e-10)
(0.01099998113 4.014107688e-08 -1.10526272e-09)
(0.01099992009 6.543983628e-08 -1.06314229e-09)
(0.01099982604 6.584794915e-08 -1.781502743e-09)
(0.01099976956 5.476321336e-08 1.072653718e-09)
(0.01099972754 4.528670222e-08 7.820250395e-10)
(0.0109997026 3.875687912e-08 1.311680737e-09)
(0.01099968575 3.17552279e-08 1.07969534e-09)
(0.01099967636 2.614747006e-08 8.861750101e-11)
(0.01099967453 2.286564513e-08 -1.264251378e-10)
(0.01099967154 1.879152827e-08 2.625855732e-10)
(0.01099967145 1.802204525e-08 -1.300367106e-09)
(0.01099967591 1.583624581e-08 -1.005109016e-09)
(0.01099967933 1.296523832e-08 -1.234963645e-09)
(0.01100022723 -1.328257403e-06 1.279196533e-09)
(0.01100032824 5.984633733e-07 -2.265389241e-12)
(0.01099916489 9.283567724e-08 1.876750948e-10)
(0.01099913006 1.150630491e-07 -6.604619389e-10)
(0.01099908254 1.117702422e-07 -1.43219068e-09)
(0.01099910369 8.6687952e-08 -1.789263178e-09)
(0.01099915842 6.714236548e-08 -7.221230489e-10)
(0.0109992168 4.861728861e-08 1.188021343e-09)
(0.01099927573 3.773209428e-08 2.293026936e-10)
(0.01099933196 3.081109774e-08 -1.384098999e-09)
(0.01099938199 2.67211725e-08 1.563912613e-10)
(0.01099942351 2.109915767e-08 -1.529218476e-09)
(0.01099946422 1.679843134e-08 1.189080794e-09)
(0.01099949594 1.937448786e-08 3.490815531e-10)
(0.01099952676 1.502735313e-08 -1.773121874e-10)
(0.01099816582 -6.283045234e-06 9.756435999e-11)
(0.01099810851 3.694445646e-06 1.158228289e-10)
(0.01099621204 1.055017164e-06 5.773535923e-10)
(0.01099733982 4.81637932e-07 -2.17281005e-10)
(0.01099774935 2.807435259e-07 -8.077178001e-10)
(0.01099809864 1.504451754e-07 3.670748379e-10)
(0.01099840169 8.881867138e-08 2.034820908e-10)
(0.01099863388 5.555333238e-08 4.67393283e-10)
(0.01099881982 3.790179075e-08 8.66142563e-10)
(0.01099896845 2.612884043e-08 3.061803538e-10)
(0.01099908712 1.950613877e-08 2.786692948e-10)
(0.01099918256 1.534902457e-08 3.800670758e-10)
(0.01099926873 1.265358332e-08 -8.357677056e-10)
(0.0109993303 1.325838036e-08 -1.785075956e-09)
(0.01099939041 9.635221167e-09 -4.488095759e-10)
(0.01099615273 3.168079255e-10 -8.436796329e-10)
(0.01098912333 2.984594401e-10 1.307510788e-09)
(0.01099440671 -8.775564608e-10 -9.405946314e-10)
(0.01099626398 -1.073477937e-09 1.602219435e-10)
(0.01099723158 -4.079540836e-10 -1.049212116e-09)
(0.01099787576 -1.429009037e-10 -3.20466723e-10)
(0.01099828754 5.865453018e-10 -1.284386509e-09)
(0.01099858028 -5.668216797e-11 7.120779748e-10)
(0.0109987915 9.320347585e-10 9.640638572e-10)
(0.01099895357 -6.868857628e-10 -7.738158765e-10)
(0.01099907885 5.121524208e-10 -2.265042297e-09)
(0.01099918338 -9.184038182e-10 -8.845299784e-10)
(0.01099926007 -1.150472471e-09 -9.007792224e-10)
(0.01099934019 8.626302359e-11 3.459920458e-11)
(0.01099810819 -3.69675371e-06 -2.106327766e-10)
(0.01099621304 -1.056601401e-06 -7.050059623e-10)
(0.0109973379 -4.806907612e-07 4.330110501e-10)
(0.01099774872 -2.813836052e-07 1.680973087e-10)
(0.01099810115 -1.53370123e-07 1.043544575e-10)
(0.01099840153 -8.913651965e-08 9.641349107e-11)
(0.0109986325 -5.603853519e-08 -2.120719244e-10)
(0.01099882039 -3.610768409e-08 1.597015689e-09)
(0.01099896777 -2.636436739e-08 6.985395e-10)
(0.0109990868 -2.065491616e-08 -8.874748873e-10)
(0.01099918274 -1.658057487e-08 1.532221282e-10)
(0.01099926673 -1.281559636e-08 1.887969518e-09)
(0.01099933165 -1.165950673e-08 -6.326578644e-10)
(0.01099939008 -9.527703559e-09 1.2526377e-09)
(0.01100032472 -5.975488698e-07 1.585730664e-09)
(0.01099916452 -9.065333572e-08 1.653550143e-09)
(0.01099912966 -1.146528914e-07 -1.144428734e-10)
(0.01099908252 -1.095294059e-07 1.221991531e-09)