/*--------------------------------*- C++ -*----------------------------------*\
| =========                 |                                                 |
| \\      /  F ield         | OpenFOAM: The Open Source CFD Toolbox           |
|  \\    /   O peration     | Version:  4.x                                   |
|   \\  /    A nd           | Web:      www.OpenFOAM.org                      |
|    \\/     M anipulation  |                                                 |
\*---------------------------------------------------------------------------*/
FoamFile
{
    version     2.0;
    format      ascii;
    class       volScalarField;
    location    "9000";
    object      X_CO;
}
// * * * * * * * * * * * * * * * * * * * * * * * * * * * * * * * * * * * * * //

dimensions      [0 0 0 0 0 0 0];

internalField   nonuniform List<scalar> 
1174
(
0.3000569871
0.3000563014
0.3000553434
0.3000541063
0.3000526079
0.3000508851
0.3000489867
0.3000469661
0.3000448764
0.3000427662
0.3000406796
0.3000386631
0.3000367984
0.3000353456
0.3000563563
0.3000552767
0.3000538539
0.3000521262
0.3000501574
0.3000480213
0.3000457911
0.3000435319
0.3000412973
0.300039129
0.3000370593
0.3000351191
0.3000333691
0.3000320289
0.3000549781
0.3000531038
0.3000508088
0.3000482283
0.3000455034
0.3000427575
0.3000400857
0.3000375534
0.3000352005
0.3000330467
0.3000310987
0.3000293597
0.3000278552
0.300026737
0.3000529872
0.300050115
0.3000468518
0.3000434396
0.3000400751
0.3000368949
0.300033981
0.3000313724
0.3000290774
0.3000270847
0.3000253727
0.3000239182
0.3000227156
0.300021852
0.3000515885
0.3000481788
0.3000444946
0.3000407967
0.3000372688
0.3000340244
0.3000311212
0.3000285778
0.3000263859
0.3000245221
0.3000229547
0.3000216521
0.3000205984
0.3000198549
0.3000529872
0.3000501151
0.3000468518
0.3000434397
0.3000400751
0.300036895
0.3000339812
0.3000313726
0.3000290775
0.3000270849
0.3000253729
0.3000239184
0.3000227158
0.3000218522
0.3000549782
0.3000531039
0.3000508089
0.3000482284
0.3000455036
0.3000427577
0.3000400859
0.3000375536
0.3000352007
0.300033047
0.300031099
0.30002936
0.3000278556
0.3000267374
0.3000563563
0.3000552768
0.300053854
0.3000521263
0.3000501575
0.3000480214
0.3000457913
0.3000435321
0.3000412976
0.3000391293
0.3000370597
0.3000351195
0.3000333695
0.3000320293
0.3000569872
0.3000563015
0.3000553435
0.3000541064
0.300052608
0.3000508853
0.3000489868
0.3000469663
0.3000448766
0.3000427664
0.3000406799
0.3000386635
0.3000367988
0.3000353461
0.3000570935
0.3000563563
0.3000552767
0.3000538539
0.3000521263
0.3000501574
0.3000480213
0.3000457911
0.3000435319
0.3000412973
0.300039129
0.3000370593
0.3000351191
0.3000333691
0.3000320289
0.3000549572
0.3000531002
0.3000508587
0.300048372
0.3000457754
0.3000431797
0.3000406654
0.3000382845
0.3000360659
0.3000340227
0.3000321582
0.3000304753
0.3000290026
0.3000278976
0.3000514815
0.3000479454
0.3000441445
0.3000404004
0.3000369255
0.300033829
0.3000311446
0.3000288583
0.3000269317
0.3000253172
0.300023967
0.3000228408
0.3000219194
0.3000212605
0.3000453997
0.3000396167
0.3000341843
0.3000294947
0.3000256689
0.3000226692
0.3000203853
0.3000186862
0.3000174474
0.3000165616
0.3000159416
0.3000155188
0.3000152415
0.3000150798
0.3000397613
0.3000328747
0.3000271095
0.3000225902
0.3000192016
0.3000167488
0.3000150322
0.3000138766
0.3000131388
0.3000127061
0.3000124921
0.3000124301
0.3000124648
0.3000125355
0.3000453998
0.3000396169
0.3000341845
0.3000294949
0.3000256691
0.3000226694
0.3000203855
0.3000186865
0.3000174477
0.3000165619
0.3000159419
0.3000155191
0.3000152418
0.3000150801
0.3000514817
0.3000479456
0.3000441448
0.3000404007
0.3000369258
0.3000338294
0.3000311449
0.3000288586
0.3000269321
0.3000253176
0.3000239674
0.3000228412
0.3000219198
0.300021261
0.3000549573
0.3000531003
0.3000508589
0.3000483722
0.3000457756
0.30004318
0.3000406657
0.3000382848
0.3000360663
0.3000340232
0.3000321587
0.3000304758
0.3000290032
0.3000278982
0.3000563563
0.3000552768
0.300053854
0.3000521264
0.3000501575
0.3000480214
0.3000457913
0.3000435322
0.3000412976
0.3000391294
0.3000370598
0.3000351196
0.3000333697
0.3000320295
0.3000563413
0.3000549782
0.3000531038
0.3000508089
0.3000482284
0.3000455035
0.3000427576
0.3000400857
0.3000375534
0.3000352005
0.3000330468
0.3000310988
0.3000293597
0.3000278553
0.3000267371
0.3000543714
0.3000514816
0.3000479454
0.3000441446
0.3000404005
0.3000369255
0.3000338291
0.3000311446
0.3000288583
0.3000269317
0.3000253172
0.300023967
0.3000228408
0.3000219194
0.3000212606
0.3000413752
0.3000340821
0.3000275722
0.3000223134
0.3000183732
0.3000156052
0.3000137828
0.3000126752
0.3000120818
0.3000118428
0.3000118375
0.3000119762
0.3000121877
0.3000123886
0.3000192555
0.300007206
0.2999990775
0.2999944319
0.2999923929
0.2999921116
0.2999929195
0.2999943417
0.2999960624
0.2999978812
0.2999996758
0.3000013692
0.300002887
0.3000040387
0.2999907835
0.2999790757
0.2999743072
0.2999737554
0.2999755182
0.2999784193
0.2999817734
0.2999851984
0.2999884908
0.2999915506
0.2999943345
0.2999968233
0.2999989745
0.3000005715
0.3000192562
0.3000072067
0.2999990782
0.2999944325
0.2999923935
0.2999921121
0.29999292
0.2999943422
0.2999960629
0.2999978816
0.2999996762
0.3000013695
0.3000028874
0.3000040391
0.3000413758
0.3000340827
0.3000275728
0.300022314
0.3000183738
0.3000156059
0.3000137835
0.3000126758
0.3000120824
0.3000118435
0.3000118381
0.3000119769
0.3000121883
0.3000123892
0.3000514817
0.3000479456
0.3000441448
0.3000404008
0.3000369259
0.3000338295
0.3000311451
0.3000288588
0.3000269323
0.3000253178
0.3000239677
0.3000228415
0.3000219201
0.3000212613
0.3000549782
0.3000531039
0.300050809
0.3000482285
0.3000455037
0.3000427578
0.3000400861
0.3000375538
0.300035201
0.3000330473
0.3000310994
0.3000293604
0.300027856
0.3000267378
0.3000552278
0.3000529872
0.3000501151
0.3000468518
0.3000434397
0.3000400751
0.300036895
0.3000339811
0.3000313725
0.3000290774
0.3000270848
0.3000253728
0.3000239183
0.3000227157
0.300021852
0.3000507869
0.3000453998
0.3000396168
0.3000341844
0.3000294948
0.3000256689
0.3000226692
0.3000203853
0.3000186863
0.3000174475
0.3000165617
0.3000159417
0.3000155189
0.3000152416
0.3000150799
0.3000342266
0.3000192556
0.3000072061
0.2999990776
0.299994432
0.2999923929
0.2999921117
0.2999929195
0.2999943418
0.2999960625
0.2999978813
0.2999996758
0.3000013692
0.3000028871
0.3000040388
0.2999444892
0.2999300429
0.2999283072
0.2999332753
0.2999411093
0.2999496932
0.2999579845
0.2999655384
0.2999722183
0.2999780339
0.2999830544
0.2999873556
0.2999909515
0.2999935612
0.2998001926
0.2998207559
0.2998508298
0.2998791968
0.2999030647
0.2999224007
0.2999379171
0.2999503993
0.2999605158
0.2999687892
0.2999756128
0.2999812663
0.2999858805
0.2999891784
0.2999444915
0.2999300445
0.2999283085
0.2999332763
0.2999411101
0.299949694
0.2999579851
0.2999655389
0.2999722188
0.2999780344
0.2999830549
0.299987356
0.2999909519
0.2999935616
0.3000192561
0.3000072068
0.2999990784
0.2999944328
0.2999923939
0.2999921126
0.2999929205
0.2999943427
0.2999960634
0.2999978821
0.2999996767
0.30000137
0.3000028878
0.3000040396
0.3000453999
0.300039617
0.3000341848
0.3000294953
0.3000256695
0.3000226699
0.3000203861
0.300018687
0.3000174483
0.3000165625
0.3000159425
0.3000155197
0.3000152424
0.3000150808
0.3000529872
0.3000501151
0.3000468519
0.3000434399
0.3000400754
0.3000368954
0.3000339816
0.3000313731
0.3000290781
0.3000270855
0.3000253736
0.3000239191
0.3000227165
0.300021853
0.3000544062
0.3000515886
0.3000481789
0.3000444947
0.3000407968
0.300037269
0.3000340245
0.3000311214
0.3000285779
0.3000263861
0.3000245222
0.3000229548
0.3000216523
0.3000205985
0.3000198551
0.3000471123
0.3000397615
0.3000328749
0.3000271097
0.3000225905
0.3000192018
0.300016749
0.3000150324
0.3000138768
0.3000131389
0.3000127063
0.3000124922
0.3000124302
0.3000124649
0.3000125356
0.3000121212
0.2999907839
0.2999790762
0.2999743076
0.2999737558
0.2999755185
0.2999784195
0.2999817737
0.2999851986
0.299988491
0.2999915508
0.2999943347
0.2999968234
0.2999989747
0.3000005716
0.2998242141
0.299800194
0.2998207569
0.2998508304
0.2998791972
0.299903065
0.299922401
0.2999379173
0.2999503994
0.2999605159
0.2999687893
0.2999756129
0.2999812663
0.2999858805
0.2999891785
0.2991861202
0.2995040368
0.2996785051
0.299779952
0.299842489
0.2998832745
0.2999112843
0.2999314101
0.2999464324
0.2999579992
0.2999671255
0.2999744436
0.2999802777
0.2999843865
0.2998001927
0.2998207577
0.2998508316
0.2998791984
0.2999030661
0.299922402
0.2999379182
0.2999504003
0.2999605167
0.29996879
0.2999756135
0.2999812669
0.2999858811
0.299989179
0.2999907836
0.2999790766
0.2999743083
0.2999737567
0.2999755195
0.2999784206
0.2999817747
0.2999851996
0.299988492
0.2999915517
0.2999943356
0.2999968243
0.2999989755
0.3000005724
0.3000397614
0.3000328751
0.30002711
0.300022591
0.3000192024
0.3000167497
0.3000150332
0.3000138777
0.3000131398
0.3000127072
0.3000124932
0.3000124311
0.3000124658
0.3000125366
0.3000515886
0.3000481789
0.3000444949
0.3000407971
0.3000372693
0.300034025
0.300031122
0.3000285786
0.3000263868
0.300024523
0.3000229557
0.3000216532
0.3000205995
0.3000198561
0.3000552278
0.3000529873
0.3000501152
0.3000468519
0.3000434398
0.3000400753
0.3000368951
0.3000339813
0.3000313727
0.3000290777
0.300027085
0.3000253731
0.3000239186
0.3000227159
0.3000218523
0.3000507871
0.3000454
0.3000396171
0.3000341848
0.3000294952
0.3000256693
0.3000226696
0.3000203857
0.3000186867
0.3000174479
0.3000165621
0.300015942
0.3000155192
0.3000152419
0.3000150803
0.3000342275
0.3000192565
0.300007207
0.2999990785
0.2999944328
0.2999923938
0.2999921124
0.2999929202
0.2999943425
0.2999960631
0.2999978818
0.2999996764
0.3000013697
0.3000028876
0.3000040393
0.299978348
0.2999444925
0.2999300455
0.2999283092
0.299933277
0.2999411107
0.2999496944
0.2999579855
0.2999655393
0.2999722191
0.2999780346
0.2999830551
0.2999873562
0.2999909521
0.2999935618
0.2998242141
0.2998001945
0.2998207589
0.2998508325
0.2998791991
0.2999030666
0.2999224024
0.2999379185
0.2999504005
0.2999605169
0.2999687902
0.2999756137
0.299981267
0.2999858812
0.2999891791
0.2999783473
0.2999444924
0.2999300458
0.2999283099
0.2999332778
0.2999411115
0.2999496952
0.2999579863
0.29996554
0.2999722198
0.2999780353
0.2999830557
0.2999873568
0.2999909526
0.2999935623
0.3000192555
0.3000072067
0.2999990787
0.2999944333
0.2999923944
0.2999921132
0.2999929211
0.2999943433
0.299996064
0.2999978827
0.2999996772
0.3000013706
0.3000028884
0.3000040401
0.3000453997
0.300039617
0.3000341848
0.3000294954
0.3000256698
0.3000226702
0.3000203864
0.3000186874
0.3000174486
0.3000165629
0.3000159429
0.3000155201
0.3000152428
0.3000150812
0.3000529871
0.3000501151
0.300046852
0.30004344
0.3000400755
0.3000368955
0.3000339818
0.3000313733
0.3000290783
0.3000270858
0.3000253739
0.3000239194
0.3000227169
0.3000218533
0.3000563413
0.3000549782
0.3000531039
0.300050809
0.3000482285
0.3000455037
0.3000427578
0.300040086
0.3000375538
0.3000352009
0.3000330471
0.3000310992
0.3000293602
0.3000278557
0.3000267375
0.3000543715
0.3000514818
0.3000479457
0.3000441449
0.3000404009
0.300036926
0.3000338296
0.3000311451
0.3000288588
0.3000269323
0.3000253178
0.3000239676
0.3000228414
0.30002192
0.3000212612
0.3000484272
0.300041376
0.300034083
0.3000275731
0.3000223143
0.3000183741
0.3000156061
0.3000137837
0.3000126761
0.3000120827
0.3000118437
0.3000118384
0.3000119771
0.3000121885
0.3000123894
0.3000342275
0.3000192567
0.3000072074
0.299999079
0.2999944333
0.2999923943
0.299992113
0.2999929208
0.299994343
0.2999960636
0.2999978823
0.2999996769
0.3000013702
0.300002888
0.3000040397
0.3000121211
0.2999907843
0.2999790772
0.2999743089
0.2999737571
0.2999755199
0.2999784209
0.299981775
0.2999851999
0.2999884922
0.2999915519
0.2999943358
0.2999968244
0.2999989757
0.3000005725
0.3000342274
0.3000192567
0.3000072074
0.2999990792
0.2999944336
0.2999923947
0.2999921134
0.2999929212
0.2999943435
0.2999960641
0.2999978828
0.2999996773
0.3000013706
0.3000028885
0.3000040401
0.3000484269
0.3000413757
0.3000340828
0.3000275731
0.3000223144
0.3000183744
0.3000156065
0.3000137842
0.3000126766
0.3000120833
0.3000118443
0.300011839
0.3000119777
0.3000121892
0.3000123901
0.3000514816
0.3000479456
0.3000441449
0.3000404009
0.3000369262
0.3000338299
0.3000311455
0.3000288593
0.3000269329
0.3000253184
0.3000239682
0.3000228421
0.3000219207
0.3000212619
0.3000549781
0.3000531038
0.300050809
0.3000482286
0.3000455038
0.300042758
0.3000400863
0.3000375542
0.3000352013
0.3000330477
0.3000310998
0.3000293609
0.3000278565
0.3000267384
0.3000570935
0.3000563564
0.3000552768
0.300053854
0.3000521264
0.3000501576
0.3000480215
0.3000457914
0.3000435323
0.3000412977
0.3000391295
0.3000370598
0.3000351196
0.3000333697
0.3000320295
0.3000563258
0.3000549574
0.3000531003
0.300050859
0.3000483723
0.3000457757
0.3000431801
0.3000406659
0.300038285
0.3000360665
0.3000340233
0.3000321588
0.300030476
0.3000290033
0.3000278984
0.3000543715
0.3000514818
0.3000479458
0.300044145
0.300040401
0.3000369261
0.3000338297
0.3000311453
0.300028859
0.3000269325
0.300025318
0.3000239678
0.3000228417
0.3000219203
0.3000212615
0.3000507871
0.3000454001
0.3000396173
0.300034185
0.3000294955
0.3000256698
0.3000226702
0.3000203863
0.3000186873
0.3000174485
0.3000165627
0.3000159427
0.3000155199
0.3000152426
0.300015081
0.3000471123
0.3000397617
0.3000328753
0.3000271103
0.3000225912
0.3000192027
0.3000167499
0.3000150334
0.3000138779
0.30001314
0.3000127074
0.3000124933
0.3000124313
0.300012466
0.3000125367
0.3000507871
0.3000454001
0.3000396173
0.3000341851
0.3000294956
0.3000256699
0.3000226703
0.3000203865
0.3000186875
0.3000174488
0.300016563
0.300015943
0.3000155202
0.3000152429
0.3000150813
0.3000543715
0.3000514818
0.3000479457
0.300044145
0.3000404011
0.3000369263
0.3000338299
0.3000311456
0.3000288594
0.3000269329
0.3000253184
0.3000239683
0.3000228422
0.3000219208
0.300021262
0.3000563257
0.3000549573
0.3000531003
0.300050859
0.3000483724
0.3000457758
0.3000431803
0.3000406661
0.3000382853
0.3000360668
0.3000340238
0.3000321593
0.3000304765
0.3000290039
0.300027899
0.3000563563
0.3000552768
0.300053854
0.3000521264
0.3000501576
0.3000480216
0.3000457916
0.3000435325
0.300041298
0.3000391299
0.3000370603
0.3000351202
0.3000333703
0.3000320301
0.3000574333
0.3000569872
0.3000563015
0.3000553435
0.3000541065
0.3000526081
0.3000508854
0.3000489869
0.3000469664
0.3000448768
0.3000427666
0.3000406801
0.3000386636
0.300036799
0.3000353462
0.3000570935
0.3000563564
0.3000552768
0.300053854
0.3000521264
0.3000501576
0.3000480216
0.3000457915
0.3000435323
0.3000412978
0.3000391296
0.3000370599
0.3000351198
0.3000333698
0.3000320296
0.3000563413
0.3000549782
0.300053104
0.3000508091
0.3000482286
0.3000455038
0.300042758
0.3000400862
0.300037554
0.3000352011
0.3000330475
0.3000310995
0.3000293605
0.3000278562
0.300026738
0.3000552278
0.3000529873
0.3000501153
0.3000468521
0.3000434401
0.3000400756
0.3000368955
0.3000339818
0.3000313733
0.3000290783
0.3000270857
0.3000253738
0.3000239193
0.3000227167
0.3000218531
0.3000544063
0.3000515887
0.3000481791
0.300044495
0.3000407972
0.3000372695
0.3000340252
0.3000311221
0.3000285787
0.300026387
0.3000245232
0.3000229558
0.3000216533
0.3000205996
0.3000198562
0.3000552278
0.3000529873
0.3000501153
0.3000468521
0.3000434401
0.3000400757
0.3000368957
0.300033982
0.3000313734
0.3000290785
0.3000270859
0.300025374
0.3000239196
0.300022717
0.3000218534
0.3000563413
0.3000549783
0.300053104
0.3000508091
0.3000482287
0.3000455039
0.3000427582
0.3000400864
0.3000375543
0.3000352015
0.3000330478
0.3000310999
0.300029361
0.3000278566
0.3000267385
0.3000570935
0.3000563564
0.3000552768
0.300053854
0.3000521265
0.3000501577
0.3000480217
0.3000457916
0.3000435326
0.3000412981
0.3000391299
0.3000370603
0.3000351202
0.3000333703
0.3000320302
0.3000574333
0.3000569871
0.3000563015
0.3000553435
0.3000541065
0.3000526081
0.3000508854
0.3000489871
0.3000469666
0.300044877
0.3000427669
0.3000406805
0.300038664
0.3000367995
0.3000353468
)
;

boundaryField
{
    top
    {
        type            calculated;
        value           nonuniform List<scalar> 
127
(
0.3000574333
0.3000569872
0.3000563563
0.3000549782
0.3000529872
0.3000515886
0.3000529871
0.3000549781
0.3000563563
0.3000569871
0.3000563015
0.3000552768
0.3000531039
0.3000501151
0.3000481789
0.3000501151
0.3000531038
0.3000552768
0.3000563015
0.3000553435
0.300053854
0.300050809
0.3000468519
0.3000444949
0.300046852
0.300050809
0.300053854
0.3000553435
0.3000541064
0.3000521264
0.3000482285
0.3000434399
0.3000407971
0.30004344
0.3000482286
0.3000521264
0.3000541065
0.300052608
0.3000501575
0.3000455037
0.3000400754
0.3000372693
0.3000400755
0.3000455038
0.3000501576
0.3000526081
0.3000508853
0.3000480214
0.3000427578
0.3000368954
0.300034025
0.3000368955
0.300042758
0.3000480216
0.3000508854
0.3000489868
0.3000457913
0.3000400861
0.3000339816
0.300031122
0.3000339818
0.3000400863
0.3000457916
0.3000489871
0.3000469663
0.3000435322
0.3000375538
0.3000313731
0.3000285786
0.3000313733
0.3000375542
0.3000435325
0.3000469666
0.3000448766
0.3000412976
0.300035201
0.3000290781
0.3000263868
0.3000290783
0.3000352013
0.300041298
0.300044877
0.3000427664
0.3000391294
0.3000330473
0.3000270855
0.300024523
0.3000270858
0.3000330477
0.3000391299
0.3000427669
0.3000406799
0.3000370598
0.3000310994
0.3000253736
0.3000229557
0.3000253739
0.3000310998
0.3000370603
0.3000406805
0.3000386635
0.3000351196
0.3000293604
0.3000239191
0.3000216532
0.3000239194
0.3000293609
0.3000351202
0.300038664
0.3000367988
0.3000333697
0.300027856
0.3000227165
0.3000205995
0.3000227169
0.3000278565
0.3000333703
0.3000367995
0.3000353461
0.3000320295
0.3000267378
0.300021853
0.3000198561
0.3000218533
0.3000267384
0.3000320301
0.3000353468
)
;
    }
    bottom
    {
        type            calculated;
        value           nonuniform List<scalar> 
134
(
0.3000570935
0.3000563413
0.3000552278
0.3000544062
0.3000552278
0.3000563413
0.3000570935
0.3000574333
0.3000569871
0.3000563563
0.3000549782
0.3000529872
0.3000515886
0.3000529873
0.3000549782
0.3000563564
0.3000569872
0.3000563014
0.3000552767
0.3000531038
0.3000501151
0.3000481789
0.3000501152
0.3000531039
0.3000552768
0.3000563015
0.3000553434
0.3000538539
0.3000508089
0.3000468518
0.3000444947
0.3000468519
0.300050809
0.300053854
0.3000553435
0.3000541063
0.3000521263
0.3000482284
0.3000434397
0.3000407968
0.3000434398
0.3000482285
0.3000521264
0.3000541065
0.3000526079
0.3000501574
0.3000455035
0.3000400751
0.300037269
0.3000400753
0.3000455037
0.3000501576
0.3000526081
0.3000508851
0.3000480213
0.3000427576
0.300036895
0.3000340245
0.3000368951
0.3000427578
0.3000480215
0.3000508854
0.3000489867
0.3000457911
0.3000400857
0.3000339811
0.3000311214
0.3000339813
0.300040086
0.3000457914
0.3000489869
0.3000469661
0.3000435319
0.3000375534
0.3000313725
0.3000285779
0.3000313727
0.3000375538
0.3000435323
0.3000469664
0.3000448764
0.3000412973
0.3000352005
0.3000290774
0.3000263861
0.3000290777
0.3000352009
0.3000412977
0.3000448768
0.3000427662
0.300039129
0.3000330468
0.3000270848
0.3000245222
0.300027085
0.3000330471
0.3000391295
0.3000427666
0.3000406796
0.3000370593
0.3000310988
0.3000253728
0.3000229548
0.3000253731
0.3000310992
0.3000370598
0.3000406801
0.3000386631
0.3000351191
0.3000293597
0.3000239183
0.3000216523
0.3000239186
0.3000293602
0.3000351196
0.3000386636
0.3000367984
0.3000333691
0.3000278553
0.3000227157
0.3000205985
0.3000227159
0.3000278557
0.3000333697
0.300036799
0.3000353456
0.3000320289
0.3000267371
0.300021852
0.3000198551
0.3000218523
0.3000267375
0.3000320295
0.3000353462
)
;
    }
    side-walls
    {
        type            calculated;
        value           nonuniform List<scalar> 
261
(
0.3000569871
0.3000563563
0.3000549781
0.3000529872
0.3000515885
0.3000529872
0.3000549782
0.3000563563
0.3000569872
0.3000563014
0.3000552767
0.3000531038
0.300050115
0.3000481788
0.3000501151
0.3000531039
0.3000552768
0.3000563015
0.3000553434
0.3000538539
0.3000508088
0.3000468518
0.3000444946
0.3000468518
0.3000508089
0.300053854
0.3000553435
0.3000541063
0.3000521262
0.3000482283
0.3000434396
0.3000407967
0.3000434397
0.3000482284
0.3000521263
0.3000541064
0.3000526079
0.3000501574
0.3000455034
0.3000400751
0.3000372688
0.3000400751
0.3000455036
0.3000501575
0.300052608
0.3000508851
0.3000480213
0.3000427575
0.3000368949
0.3000340244
0.300036895
0.3000427577
0.3000480214
0.3000508853
0.3000489867
0.3000457911
0.3000400857
0.300033981
0.3000311212
0.3000339812
0.3000400859
0.3000457913
0.3000489868
0.3000469661
0.3000435319
0.3000375534
0.3000313724
0.3000285778
0.3000313726
0.3000375536
0.3000435321
0.3000469663
0.3000448764
0.3000412973
0.3000352005
0.3000290774
0.3000263859
0.3000290775
0.3000352007
0.3000412976
0.3000448766
0.3000427662
0.300039129
0.3000330467
0.3000270847
0.3000245221
0.3000270849
0.300033047
0.3000391293
0.3000427664
0.3000406796
0.3000370593
0.3000310987
0.3000253727
0.3000229547
0.3000253729
0.300031099
0.3000370597
0.3000406799
0.3000386631
0.3000351191
0.3000293597
0.3000239182
0.3000216521
0.3000239184
0.30002936
0.3000351195
0.3000386635
0.3000367984
0.3000333691
0.3000278552
0.3000227156
0.3000205984
0.3000227158
0.3000278556
0.3000333695
0.3000367988
0.3000353456
0.3000320289
0.300026737
0.300021852
0.3000198549
0.3000218522
0.3000267374
0.3000320293
0.3000353461
0.3000574333
0.3000570935
0.3000563413
0.3000552278
0.3000544063
0.3000552278
0.3000563413
0.3000570935
0.3000574333
0.3000569872
0.3000563564
0.3000549782
0.3000529873
0.3000515887
0.3000529873
0.3000549783
0.3000563564
0.3000569871
0.3000563015
0.3000552768
0.300053104
0.3000501153
0.3000481791
0.3000501153
0.300053104
0.3000552768
0.3000563015
0.3000553435
0.300053854
0.3000508091
0.3000468521
0.300044495
0.3000468521
0.3000508091
0.300053854
0.3000553435
0.3000541065
0.3000521264
0.3000482286
0.3000434401
0.3000407972
0.3000434401
0.3000482287
0.3000521265
0.3000541065
0.3000526081
0.3000501576
0.3000455038
0.3000400756
0.3000372695
0.3000400757
0.3000455039
0.3000501577
0.3000526081
0.3000508854
0.3000480216
0.300042758
0.3000368955
0.3000340252
0.3000368957
0.3000427582
0.3000480217
0.3000508854
0.3000489869
0.3000457915
0.3000400862
0.3000339818
0.3000311221
0.300033982
0.3000400864
0.3000457916
0.3000489871
0.3000469664
0.3000435323
0.300037554
0.3000313733
0.3000285787
0.3000313734
0.3000375543
0.3000435326
0.3000469666
0.3000448768
0.3000412978
0.3000352011
0.3000290783
0.300026387
0.3000290785
0.3000352015
0.3000412981
0.300044877
0.3000427666
0.3000391296
0.3000330475
0.3000270857
0.3000245232
0.3000270859
0.3000330478
0.3000391299
0.3000427669
0.3000406801
0.3000370599
0.3000310995
0.3000253738
0.3000229558
0.300025374
0.3000310999
0.3000370603
0.3000406805
0.3000386636
0.3000351198
0.3000293605
0.3000239193
0.3000216533
0.3000239196
0.300029361
0.3000351202
0.300038664
0.300036799
0.3000333698
0.3000278562
0.3000227167
0.3000205996
0.300022717
0.3000278566
0.3000333703
0.3000367995
0.3000353462
0.3000320296
0.300026738
0.3000218531
0.3000198562
0.3000218534
0.3000267385
0.3000320302
0.3000353468
)
;
    }
    inlet
    {
        type            calculated;
        value           nonuniform 0();
    }
    outlet
    {
        type            calculated;
        value           nonuniform List<scalar> 
81
(
0.3000353456
0.3000320289
0.300026737
0.300021852
0.3000198549
0.3000218522
0.3000267374
0.3000320293
0.3000353461
0.3000320289
0.3000278976
0.3000212605
0.3000150798
0.3000125355
0.3000150801
0.300021261
0.3000278982
0.3000320295
0.3000267371
0.3000212606
0.3000123886
0.3000040387
0.3000005715
0.3000040391
0.3000123892
0.3000212613
0.3000267378
0.300021852
0.3000150799
0.3000040388
0.2999935612
0.2999891784
0.2999935616
0.3000040396
0.3000150808
0.300021853
0.3000198551
0.3000125356
0.3000005716
0.2999891785
0.2999843865
0.299989179
0.3000005724
0.3000125366
0.3000198561
0.3000218523
0.3000150803
0.3000040393
0.2999935618
0.2999891791
0.2999935623
0.3000040401
0.3000150812
0.3000218533
0.3000267375
0.3000212612
0.3000123894
0.3000040397
0.3000005725
0.3000040401
0.3000123901
0.3000212619
0.3000267384
0.3000320295
0.3000278984
0.3000212615
0.300015081
0.3000125367
0.3000150813
0.300021262
0.300027899
0.3000320301
0.3000353462
0.3000320296
0.300026738
0.3000218531
0.3000198562
0.3000218534
0.3000267385
0.3000320302
0.3000353468
)
;
    }
    procBoundary1to0
    {
        type            processor;
        value           nonuniform List<scalar> 
97
(
0.3000574333
0.3000574333
0.3000570935
0.3000563414
0.3000552278
0.3000544063
0.3000552279
0.3000563414
0.3000570936
0.3000574333
0.3000575349
0.3000563257
0.3000563257
0.3000563257
0.3000543715
0.3000507872
0.3000471126
0.3000507873
0.3000543716
0.3000563258
0.3000570936
0.3000571897
0.3000563141
0.3000484268
0.3000484268
0.3000484268
0.3000342276
0.3000121227
0.3000342283
0.3000484275
0.3000543716
0.3000563414
0.3000566911
0.3000547911
0.3000482447
0.2999783465
0.2999783465
0.2999783465
0.2998242236
0.2999783506
0.3000342282
0.3000507873
0.3000552279
0.3000563408
0.3000533789
0.3000411151
0.299993422
0.2985726799
0.2985726799
0.2985726799
0.2998242231
0.2998242231
0.3000121227
0.3000471127
0.3000544064
0.3000566911
0.3000547911
0.3000482448
0.3000295284
0.2999934215
0.3000295286
0.300034227
0.300034227
0.300034227
0.3000507871
0.3000552278
0.3000571897
0.3000563141
0.3000537834
0.3000482448
0.3000411149
0.3000482448
0.3000537834
0.3000543714
0.3000543714
0.3000543714
0.3000563413
0.3000575349
0.3000571845
0.3000563141
0.3000547911
0.3000533789
0.3000547911
0.3000563141
0.3000571845
0.3000570935
0.3000570935
0.3000570935
0.3000576928
0.3000575349
0.3000571897
0.3000566911
0.3000563408
0.3000566911
0.3000571897
0.3000575349
0.3000576928
)
;
    }
}


// ************************************************************************* //
