/*--------------------------------*- C++ -*----------------------------------*\
| =========                 |                                                 |
| \\      /  F ield         | OpenFOAM: The Open Source CFD Toolbox           |
|  \\    /   O peration     | Version:  4.x                                   |
|   \\  /    A nd           | Web:      www.OpenFOAM.org                      |
|    \\/     M anipulation  |                                                 |
\*---------------------------------------------------------------------------*/
FoamFile
{
    version     2.0;
    format      ascii;
    class       volScalarField;
    location    "9000";
    object      X_H2;
}
// * * * * * * * * * * * * * * * * * * * * * * * * * * * * * * * * * * * * * //

dimensions      [0 0 0 0 0 0 0];

internalField   nonuniform List<scalar> 
1174
(
0.05987569103
0.05987496396
0.05987394823
0.05987263661
0.05987104802
0.05986922163
0.05986720916
0.05986506742
0.05986285251
0.05986061611
0.05985840501
0.05985626833
0.05985429277
0.05985275368
0.05987502204
0.05987387726
0.05987236858
0.05987053677
0.05986844931
0.05986618475
0.05986382063
0.05986142596
0.05985905759
0.0598567598
0.05985456672
0.0598525111
0.05985065725
0.05984923758
0.05987356042
0.05987157276
0.05986913921
0.059866403
0.05986351393
0.05986060285
0.05985777057
0.05985508655
0.05985259296
0.0598503108
0.05984824704
0.05984640494
0.05984481166
0.05984362757
0.05987144873
0.05986840284
0.05986494237
0.05986132433
0.05985775703
0.05985438561
0.05985129696
0.05984853224
0.05984610028
0.05984398921
0.05984217594
0.05984063577
0.0598393627
0.0598384487
0.05986996519
0.05986634914
0.05986244227
0.0598585212
0.05985478085
0.05985134138
0.0598482642
0.05984556868
0.05984324632
0.05984127193
0.05983961206
0.05983823314
0.059837118
0.0598363315
0.05987144875
0.05986840287
0.05986494241
0.05986132438
0.0598577571
0.05985438568
0.05985129704
0.05984853233
0.05984610037
0.0598439893
0.05984217604
0.05984063588
0.0598393628
0.05983844881
0.05987356046
0.05987157282
0.05986913928
0.05986640309
0.05986351404
0.05986060297
0.0598577707
0.05985508669
0.05985259312
0.05985031097
0.05984824721
0.05984640512
0.05984481186
0.05984362777
0.05987502208
0.05987387732
0.05987236865
0.05987053686
0.05986844942
0.05986618487
0.05986382078
0.05986142612
0.05985905778
0.05985676
0.05985456693
0.05985251134
0.0598506575
0.05984923784
0.05987569106
0.05987496399
0.05987394828
0.05987263667
0.0598710481
0.05986922173
0.05986720927
0.05986506756
0.05986285267
0.0598606163
0.05985840522
0.05985626856
0.05985429301
0.05985275394
0.05987580377
0.05987502204
0.05987387727
0.05987236858
0.05987053678
0.05986844931
0.05986618475
0.05986382063
0.05986142596
0.05985905759
0.0598567598
0.05985456672
0.05985251111
0.05985065726
0.05984923759
0.05987353825
0.05987156888
0.05986919207
0.05986655534
0.05986380223
0.05986105045
0.05985838525
0.05985586165
0.05985351055
0.0598513456
0.05984937028
0.05984758771
0.05984602804
0.05984485793
0.0598698518
0.05986610162
0.059862071
0.05985810092
0.05985441663
0.0598511341
0.05984828876
0.05984586594
0.05984382486
0.05984211481
0.05984068521
0.05983949325
0.05983851838
0.05983782156
0.05986340074
0.05985726751
0.05985150664
0.05984653406
0.05984247805
0.05983929859
0.05983687852
0.05983507894
0.05983376761
0.05983283075
0.05983217579
0.05983172998
0.05983143838
0.05983126891
0.0598574196
0.05985011584
0.05984400216
0.05983921061
0.0598356186
0.05983301945
0.05983120138
0.05982997841
0.05982919855
0.05982874239
0.05982851812
0.059828455
0.05982849434
0.05982857135
0.05986340084
0.05985726764
0.05985150679
0.05984653422
0.05984247821
0.05983929875
0.05983687868
0.0598350791
0.05983376777
0.05983283091
0.05983217594
0.05983173013
0.05983143853
0.05983126906
0.05986985194
0.05986610179
0.05986207119
0.05985810113
0.05985441685
0.05985113434
0.05984828901
0.05984586619
0.05984382511
0.05984211506
0.05984068546
0.0598394935
0.05983851863
0.05983782181
0.05987353833
0.05987156897
0.05986919219
0.05986655548
0.05986380239
0.05986105063
0.05985838545
0.05985586187
0.05985351078
0.05985134585
0.05984937054
0.05984758798
0.05984602832
0.05984485822
0.05987502207
0.05987387731
0.05987236864
0.05987053686
0.05986844942
0.05986618488
0.05986382079
0.05986142614
0.0598590578
0.05985676003
0.05985456697
0.05985251138
0.05985065755
0.0598492379
0.05987500603
0.05987356043
0.05987157277
0.05986913922
0.05986640302
0.05986351395
0.05986060287
0.05985777058
0.05985508656
0.05985259298
0.05985031082
0.05984824705
0.05984640496
0.05984481168
0.05984362759
0.05987291665
0.05986985181
0.05986610163
0.059862071
0.05985810092
0.05985441663
0.0598511341
0.05984828876
0.05984586595
0.05984382487
0.05984211481
0.05984068522
0.05983949325
0.05983851839
0.05983782157
0.05985913202
0.05985139707
0.05984449338
0.05983891726
0.05983474022
0.05983180676
0.05982987642
0.05982870429
0.05982807763
0.05982782692
0.05982782396
0.05982797374
0.05982820053
0.05982841555
0.05983566805
0.0598228882
0.05981426857
0.05980934388
0.0598071844
0.05980688943
0.05980774971
0.05980926154
0.05981108973
0.05981302184
0.05981492812
0.05981672694
0.05981833936
0.05981956287
0.05980546337
0.05979304705
0.05978799262
0.05978741144
0.05978928545
0.05979236665
0.05979592818
0.05979956452
0.05980306004
0.05980630856
0.05980926429
0.05981190672
0.05981419096
0.05981588666
0.0598356686
0.05982288876
0.0598142691
0.05980934436
0.05980718483
0.0598068898
0.05980775003
0.05980926183
0.05981108998
0.05981302207
0.05981492832
0.05981672713
0.05981833954
0.05981956304
0.05985913249
0.05985139754
0.05984449386
0.05983891775
0.0598347407
0.05983180722
0.05982987686
0.0598287047
0.05982807801
0.05982782729
0.0598278243
0.05982797407
0.05982820085
0.05982841586
0.05986985194
0.0598661018
0.05986207122
0.05985810117
0.05985441691
0.05985113441
0.05984828909
0.05984586629
0.05984382522
0.05984211517
0.05984068558
0.05983949362
0.05983851875
0.05983782194
0.05987356046
0.05987157283
0.05986913931
0.05986640314
0.0598635141
0.05986060305
0.0598577708
0.05985508681
0.05985259325
0.05985031112
0.05984824737
0.0598464053
0.05984481204
0.05984362796
0.05987382495
0.05987144874
0.05986840286
0.0598649424
0.05986132435
0.05985775707
0.05985438565
0.059851297
0.05984853227
0.05984610031
0.05984398924
0.05984217598
0.05984063581
0.05983936273
0.05983844873
0.05986911454
0.05986340071
0.0598572675
0.05985150662
0.05984653405
0.05984247804
0.05983929858
0.05983687852
0.05983507894
0.05983376762
0.05983283077
0.05983217581
0.05983173001
0.0598314384
0.05983126894
0.05985154798
0.059835668
0.05982288818
0.05981426857
0.0598093439
0.05980718443
0.05980688947
0.05980774975
0.05980926159
0.05981108978
0.05981302189
0.05981492817
0.05981672698
0.0598183394
0.05981956291
0.0597563539
0.05974103348
0.05973919765
0.05974447324
0.05975278846
0.05976189864
0.05977069775
0.05977871414
0.05978580302
0.05979197481
0.05979730287
0.05980186768
0.05980568422
0.05980845407
0.05960326929
0.05962509426
0.05965700699
0.0596871071
0.05971243263
0.05973294942
0.05974941322
0.05976265766
0.05977339205
0.05978217088
0.05978941157
0.0597954107
0.05980030722
0.05980380702
0.05975635572
0.05974103477
0.05973919858
0.05974447392
0.05975278897
0.059761899
0.05977069803
0.05977871437
0.05978580321
0.05979197497
0.05979730302
0.05980186782
0.05980568436
0.0598084542
0.05983566855
0.0598228888
0.05981426922
0.05980934453
0.05980718503
0.05980689003
0.05980775027
0.05980926207
0.05981109022
0.0598130223
0.05981492855
0.05981672735
0.05981833975
0.05981956324
0.0598634009
0.05985726776
0.05985150696
0.05984653444
0.05984247847
0.05983929903
0.05983687898
0.0598350794
0.05983376808
0.05983283122
0.05983217626
0.05983173044
0.05983143883
0.05983126937
0.05987144878
0.05986840294
0.05986494251
0.05986132452
0.05985775728
0.0598543859
0.05985129729
0.05984853261
0.05984610067
0.05984398963
0.05984217638
0.05984063622
0.05983936316
0.05983844918
0.05987295357
0.05986996523
0.05986634921
0.05986244234
0.05985852128
0.05985478093
0.05985134146
0.05984826428
0.05984556875
0.05984324639
0.05984127199
0.05983961212
0.0598382332
0.05983711805
0.05983633156
0.05986521651
0.05985741969
0.05985011598
0.05984400229
0.05983921074
0.05983561872
0.05983301955
0.05983120147
0.05982997849
0.05982919862
0.05982874247
0.05982851819
0.05982845506
0.0598284944
0.05982857141
0.05982809671
0.0598054635
0.05979304732
0.05978799286
0.05978741164
0.05978928562
0.05979236679
0.0597959283
0.05979956462
0.05980306013
0.05980630864
0.05980926436
0.05981190678
0.05981419102
0.05981588672
0.05962874461
0.05960327006
0.05962509478
0.05965700731
0.0596871073
0.05971243278
0.05973294952
0.0597494133
0.05976265772
0.0597733921
0.05978217092
0.0597894116
0.05979541073
0.05980030725
0.05980380705
0.05895177801
0.05928908478
0.05947419245
0.05958182486
0.05964817466
0.05969144669
0.05972116414
0.05974251708
0.05975845549
0.05977072791
0.05978041103
0.05978817588
0.05979436634
0.05979872613
0.05960326944
0.05962509548
0.05965700808
0.05968710796
0.05971243332
0.05973294998
0.05974941368
0.05976265806
0.0597733924
0.05978217119
0.05978941184
0.05979541096
0.05980030746
0.05980380725
0.0598054636
0.05979304765
0.05978799331
0.05978741214
0.05978928613
0.05979236728
0.05979592877
0.05979956507
0.05980306055
0.05980630904
0.05980926474
0.05981190714
0.05981419137
0.05981588706
0.05985741977
0.05985011615
0.05984400256
0.05983921108
0.05983561911
0.05983301997
0.05983120191
0.05982997894
0.05982919908
0.05982874292
0.05982851864
0.0598284555
0.05982849483
0.05982857184
0.05986996525
0.05986634926
0.05986244246
0.05985852145
0.05985478116
0.05985134173
0.0598482646
0.05984556911
0.05984324678
0.05984127241
0.05983961255
0.05983823365
0.05983711851
0.05983633203
0.05987382497
0.05987144877
0.05986840291
0.05986494246
0.05986132443
0.05985775715
0.05985438574
0.0598512971
0.05984853239
0.05984610043
0.05984398937
0.0598421761
0.05984063594
0.05983936287
0.05983844888
0.05986911467
0.05986340092
0.05985726776
0.05985150691
0.05984653434
0.05984247833
0.05983929887
0.05983687879
0.0598350792
0.05983376787
0.059832831
0.05983217603
0.05983173022
0.05983143861
0.05983126914
0.0598515486
0.05983566869
0.05982288891
0.05981426926
0.05980934451
0.05980718497
0.05980688994
0.05980775017
0.05980926195
0.0598110901
0.05981302218
0.05981492843
0.05981672723
0.05981833963
0.05981956313
0.0597922685
0.05975635608
0.0597410352
0.05973919896
0.05974447425
0.05975278925
0.05976189925
0.05977069824
0.05977871455
0.05978580337
0.05979197511
0.05979730315
0.05980186793
0.05980568446
0.05980845429
0.05962874445
0.05960327029
0.05962509615
0.0596570086
0.05968710838
0.05971243366
0.05973295026
0.05974941392
0.05976265825
0.05977339257
0.05978217133
0.05978941197
0.05979541106
0.05980030755
0.05980380733
0.05979226802
0.05975635602
0.05974103536
0.05973919924
0.05974447459
0.05975278961
0.05976189962
0.05977069861
0.0597787149
0.0597858037
0.05979197542
0.05979730343
0.0598018682
0.05980568471
0.05980845453
0.05983566809
0.05982288868
0.05981426927
0.05980934467
0.05980718523
0.05980689025
0.05980775051
0.05980926231
0.05981109046
0.05981302254
0.05981492878
0.05981672758
0.05981833997
0.05981956346
0.05986340078
0.05985726769
0.05985150694
0.05984653446
0.05984247853
0.05983929912
0.05983687909
0.05983507953
0.05983376822
0.05983283137
0.05983217641
0.0598317306
0.05983143899
0.05983126953
0.05987144874
0.05986840291
0.0598649425
0.05986132452
0.0598577573
0.05985438594
0.05985129735
0.05984853268
0.05984610076
0.05984398972
0.05984217648
0.05984063634
0.05983936328
0.0598384493
0.05987500605
0.05987356048
0.05987157285
0.05986913932
0.05986640314
0.05986351409
0.05986060303
0.05985777076
0.05985508676
0.05985259318
0.05985031103
0.05984824728
0.05984640519
0.05984481192
0.05984362784
0.05987291677
0.05986985197
0.05986610185
0.05986207125
0.0598581012
0.05985441693
0.05985113441
0.05984828909
0.05984586627
0.0598438252
0.05984211514
0.05984068554
0.05983949358
0.05983851871
0.05983782189
0.05986661152
0.05985913259
0.05985139767
0.05984449401
0.05983891789
0.05983474083
0.05983180735
0.05982987699
0.05982870482
0.05982807813
0.05982782739
0.05982782441
0.05982797417
0.05982820094
0.05982841595
0.05985154865
0.05983566882
0.05982288912
0.05981426951
0.05980934478
0.05980718525
0.05980689021
0.05980775043
0.05980926221
0.05981109035
0.05981302241
0.05981492865
0.05981672744
0.05981833983
0.05981956332
0.05982809662
0.05980546377
0.05979304785
0.05978799351
0.05978741234
0.05978928632
0.05979236746
0.05979592894
0.05979956523
0.0598030607
0.05980630917
0.05980926487
0.05981190726
0.05981419148
0.05981588715
0.05985154855
0.05983566871
0.05982288904
0.05981426949
0.05980934482
0.05980718534
0.05980689034
0.05980775058
0.05980926237
0.05981109052
0.05981302259
0.05981492883
0.05981672762
0.05981834001
0.0598195635
0.0598666113
0.05985913236
0.05985139749
0.0598444939
0.05983891785
0.05983474087
0.05983180744
0.05982987712
0.05982870499
0.05982807833
0.05982782762
0.05982782464
0.05982797441
0.0598282012
0.05982841621
0.05986985182
0.05986610174
0.05986207119
0.05985810119
0.05985441698
0.05985113451
0.05984828923
0.05984586645
0.05984382541
0.05984211538
0.05984068581
0.05983949386
0.05983851901
0.0598378222
0.05987356042
0.0598715728
0.05986913929
0.05986640314
0.05986351413
0.05986060311
0.05985777088
0.05985508692
0.05985259338
0.05985031127
0.05984824755
0.05984640549
0.05984481224
0.05984362818
0.0598758038
0.05987502209
0.05987387734
0.05987236868
0.0598705369
0.05986844946
0.05986618492
0.05986382083
0.05986142618
0.05985905784
0.05985676007
0.059854567
0.05985251141
0.05985065757
0.05984923791
0.0598749895
0.05987353835
0.05987156901
0.05986919223
0.05986655553
0.05986380245
0.0598610507
0.05985838552
0.05985586195
0.05985351086
0.05985134593
0.05984937062
0.05984758806
0.0598460284
0.0598448583
0.05987291677
0.05986985198
0.05986610187
0.05986207129
0.05985810125
0.05985441699
0.05985113449
0.05984828918
0.05984586638
0.05984382531
0.05984211525
0.05984068566
0.0598394937
0.05983851884
0.05983782202
0.05986911468
0.05986340097
0.05985726785
0.05985150706
0.05984653454
0.05984247856
0.05983929913
0.05983687907
0.0598350795
0.05983376817
0.05983283131
0.05983217634
0.05983173053
0.05983143892
0.05983126945
0.05986521653
0.05985741981
0.0598501162
0.05984400261
0.05983921113
0.05983561916
0.05983302003
0.05983120197
0.059829979
0.05982919913
0.05982874298
0.0598285187
0.05982845557
0.05982849489
0.0598285719
0.05986911465
0.05986340093
0.05985726781
0.05985150703
0.05984653452
0.05984247857
0.05983929915
0.05983687912
0.05983507956
0.05983376825
0.0598328314
0.05983217644
0.05983173063
0.05983143903
0.05983126956
0.05987291674
0.05986985194
0.05986610183
0.05986207127
0.05985810125
0.05985441703
0.05985113456
0.05984828927
0.05984586649
0.05984382544
0.05984211541
0.05984068583
0.05983949389
0.05983851903
0.05983782222
0.05987498946
0.05987353831
0.05987156897
0.0598691922
0.05986655552
0.05986380246
0.05986105075
0.0598583856
0.05985586205
0.05985351099
0.05985134609
0.0598493708
0.05984758826
0.05984602863
0.05984485854
0.05987502204
0.05987387729
0.05987236864
0.05987053687
0.05986844945
0.05986618494
0.05986382087
0.05986142625
0.05985905794
0.0598567602
0.05985456716
0.0598525116
0.05985065779
0.05984923816
0.05987616412
0.05987569107
0.05987496401
0.0598739483
0.0598726367
0.05987104814
0.05986922178
0.05986720933
0.05986506762
0.05986285274
0.05986061637
0.05985840529
0.05985626864
0.0598542931
0.05985275403
0.0598758038
0.05987502209
0.05987387734
0.05987236868
0.0598705369
0.05986844947
0.05986618494
0.05986382085
0.05986142621
0.05985905787
0.05985676011
0.05985456705
0.05985251146
0.05985065763
0.05984923798
0.05987500605
0.05987356048
0.05987157286
0.05986913935
0.05986640318
0.05986351415
0.05986060311
0.05985777086
0.05985508688
0.05985259332
0.05985031119
0.05984824744
0.05984640537
0.05984481211
0.05984362803
0.05987382498
0.05987144881
0.05986840298
0.05986494256
0.05986132458
0.05985775734
0.05985438596
0.05985129736
0.05984853267
0.05984610074
0.05984398969
0.05984217644
0.05984063629
0.05983936322
0.05983844924
0.05987295358
0.05986996528
0.0598663493
0.0598624425
0.0598585215
0.0598547812
0.05985134178
0.05984826465
0.05984556916
0.05984324683
0.05984127246
0.05983961261
0.0598382337
0.05983711856
0.05983633208
0.05987382498
0.05987144881
0.05986840298
0.05986494257
0.05986132459
0.05985775736
0.059854386
0.0598512974
0.05984853273
0.05984610081
0.05984398977
0.05984217653
0.05984063638
0.05983936332
0.05983844935
0.05987500606
0.05987356049
0.05987157288
0.05986913938
0.05986640323
0.05986351422
0.05986060319
0.05985777096
0.059855087
0.05985259346
0.05985031134
0.05984824761
0.05984640555
0.0598448123
0.05984362823
0.0598758038
0.05987502208
0.05987387733
0.05987236867
0.05987053691
0.05986844949
0.05986618498
0.05986382091
0.05986142629
0.05985905798
0.05985676024
0.0598545672
0.05985251163
0.05985065782
0.05984923819
0.05987616411
0.05987569105
0.05987496399
0.05987394828
0.05987263668
0.05987104813
0.05986922178
0.05986720935
0.05986506766
0.0598628528
0.05986061646
0.05985840541
0.05985626878
0.05985429327
0.05985275422
)
;

boundaryField
{
    top
    {
        type            calculated;
        value           nonuniform List<scalar> 
127
(
0.05987616411
0.05987569106
0.05987502207
0.05987356046
0.05987144878
0.05986996525
0.05987144874
0.05987356042
0.05987502204
0.05987569105
0.05987496399
0.05987387731
0.05987157283
0.05986840294
0.05986634926
0.05986840291
0.0598715728
0.05987387729
0.05987496399
0.05987394828
0.05987236864
0.05986913931
0.05986494251
0.05986244246
0.0598649425
0.05986913929
0.05987236864
0.05987394828
0.05987263667
0.05987053686
0.05986640314
0.05986132452
0.05985852145
0.05986132452
0.05986640314
0.05987053687
0.05987263668
0.0598710481
0.05986844942
0.0598635141
0.05985775728
0.05985478116
0.0598577573
0.05986351413
0.05986844945
0.05987104813
0.05986922173
0.05986618488
0.05986060305
0.0598543859
0.05985134173
0.05985438594
0.05986060311
0.05986618494
0.05986922178
0.05986720927
0.05986382079
0.0598577708
0.05985129729
0.0598482646
0.05985129735
0.05985777088
0.05986382087
0.05986720935
0.05986506756
0.05986142614
0.05985508681
0.05984853261
0.05984556911
0.05984853268
0.05985508692
0.05986142625
0.05986506766
0.05986285267
0.0598590578
0.05985259325
0.05984610067
0.05984324678
0.05984610076
0.05985259338
0.05985905794
0.0598628528
0.0598606163
0.05985676003
0.05985031112
0.05984398963
0.05984127241
0.05984398972
0.05985031127
0.0598567602
0.05986061646
0.05985840522
0.05985456697
0.05984824737
0.05984217638
0.05983961255
0.05984217648
0.05984824755
0.05985456716
0.05985840541
0.05985626856
0.05985251138
0.0598464053
0.05984063622
0.05983823365
0.05984063634
0.05984640549
0.0598525116
0.05985626878
0.05985429301
0.05985065755
0.05984481204
0.05983936316
0.05983711851
0.05983936328
0.05984481224
0.05985065779
0.05985429327
0.05985275394
0.0598492379
0.05984362796
0.05983844918
0.05983633203
0.0598384493
0.05984362818
0.05984923816
0.05985275422
)
;
    }
    bottom
    {
        type            calculated;
        value           nonuniform List<scalar> 
134
(
0.05987580377
0.05987500603
0.05987382495
0.05987295357
0.05987382497
0.05987500605
0.0598758038
0.05987616412
0.05987569103
0.05987502204
0.05987356043
0.05987144874
0.05986996523
0.05987144877
0.05987356048
0.05987502209
0.05987569107
0.05987496396
0.05987387727
0.05987157277
0.05986840286
0.05986634921
0.05986840291
0.05987157285
0.05987387734
0.05987496401
0.05987394823
0.05987236858
0.05986913922
0.0598649424
0.05986244234
0.05986494246
0.05986913932
0.05987236868
0.0598739483
0.05987263661
0.05987053678
0.05986640302
0.05986132435
0.05985852128
0.05986132443
0.05986640314
0.0598705369
0.0598726367
0.05987104802
0.05986844931
0.05986351395
0.05985775707
0.05985478093
0.05985775715
0.05986351409
0.05986844946
0.05987104814
0.05986922163
0.05986618475
0.05986060287
0.05985438565
0.05985134146
0.05985438574
0.05986060303
0.05986618492
0.05986922178
0.05986720916
0.05986382063
0.05985777058
0.059851297
0.05984826428
0.0598512971
0.05985777076
0.05986382083
0.05986720933
0.05986506742
0.05986142596
0.05985508656
0.05984853227
0.05984556875
0.05984853239
0.05985508676
0.05986142618
0.05986506762
0.05986285251
0.05985905759
0.05985259298
0.05984610031
0.05984324639
0.05984610043
0.05985259318
0.05985905784
0.05986285274
0.05986061611
0.0598567598
0.05985031082
0.05984398924
0.05984127199
0.05984398937
0.05985031103
0.05985676007
0.05986061637
0.05985840501
0.05985456672
0.05984824705
0.05984217598
0.05983961212
0.0598421761
0.05984824728
0.059854567
0.05985840529
0.05985626833
0.05985251111
0.05984640496
0.05984063581
0.0598382332
0.05984063594
0.05984640519
0.05985251141
0.05985626864
0.05985429277
0.05985065726
0.05984481168
0.05983936273
0.05983711805
0.05983936287
0.05984481192
0.05985065757
0.0598542931
0.05985275368
0.05984923759
0.05984362759
0.05983844873
0.05983633156
0.05983844888
0.05984362784
0.05984923791
0.05985275403
)
;
    }
    side-walls
    {
        type            calculated;
        value           nonuniform List<scalar> 
261
(
0.05987569103
0.05987502204
0.05987356042
0.05987144873
0.05986996519
0.05987144875
0.05987356046
0.05987502208
0.05987569106
0.05987496396
0.05987387726
0.05987157276
0.05986840284
0.05986634914
0.05986840287
0.05987157282
0.05987387732
0.05987496399
0.05987394823
0.05987236858
0.05986913921
0.05986494237
0.05986244227
0.05986494241
0.05986913928
0.05987236865
0.05987394828
0.05987263661
0.05987053677
0.059866403
0.05986132433
0.0598585212
0.05986132438
0.05986640309
0.05987053686
0.05987263667
0.05987104802
0.05986844931
0.05986351393
0.05985775703
0.05985478085
0.0598577571
0.05986351404
0.05986844942
0.0598710481
0.05986922163
0.05986618475
0.05986060285
0.05985438561
0.05985134138
0.05985438568
0.05986060297
0.05986618487
0.05986922173
0.05986720916
0.05986382063
0.05985777057
0.05985129696
0.0598482642
0.05985129704
0.0598577707
0.05986382078
0.05986720927
0.05986506742
0.05986142596
0.05985508655
0.05984853224
0.05984556868
0.05984853233
0.05985508669
0.05986142612
0.05986506756
0.05986285251
0.05985905759
0.05985259296
0.05984610028
0.05984324632
0.05984610037
0.05985259312
0.05985905778
0.05986285267
0.05986061611
0.0598567598
0.0598503108
0.05984398921
0.05984127193
0.0598439893
0.05985031097
0.05985676
0.0598606163
0.05985840501
0.05985456672
0.05984824704
0.05984217594
0.05983961206
0.05984217604
0.05984824721
0.05985456693
0.05985840522
0.05985626833
0.0598525111
0.05984640494
0.05984063577
0.05983823314
0.05984063588
0.05984640512
0.05985251134
0.05985626856
0.05985429277
0.05985065725
0.05984481166
0.0598393627
0.059837118
0.0598393628
0.05984481186
0.0598506575
0.05985429301
0.05985275368
0.05984923758
0.05984362757
0.0598384487
0.0598363315
0.05983844881
0.05984362777
0.05984923784
0.05985275394
0.05987616412
0.0598758038
0.05987500605
0.05987382498
0.05987295358
0.05987382498
0.05987500606
0.0598758038
0.05987616411
0.05987569107
0.05987502209
0.05987356048
0.05987144881
0.05986996528
0.05987144881
0.05987356049
0.05987502208
0.05987569105
0.05987496401
0.05987387734
0.05987157286
0.05986840298
0.0598663493
0.05986840298
0.05987157288
0.05987387733
0.05987496399
0.0598739483
0.05987236868
0.05986913935
0.05986494256
0.0598624425
0.05986494257
0.05986913938
0.05987236867
0.05987394828
0.0598726367
0.0598705369
0.05986640318
0.05986132458
0.0598585215
0.05986132459
0.05986640323
0.05987053691
0.05987263668
0.05987104814
0.05986844947
0.05986351415
0.05985775734
0.0598547812
0.05985775736
0.05986351422
0.05986844949
0.05987104813
0.05986922178
0.05986618494
0.05986060311
0.05985438596
0.05985134178
0.059854386
0.05986060319
0.05986618498
0.05986922178
0.05986720933
0.05986382085
0.05985777086
0.05985129736
0.05984826465
0.0598512974
0.05985777096
0.05986382091
0.05986720935
0.05986506762
0.05986142621
0.05985508688
0.05984853267
0.05984556916
0.05984853273
0.059855087
0.05986142629
0.05986506766
0.05986285274
0.05985905787
0.05985259332
0.05984610074
0.05984324683
0.05984610081
0.05985259346
0.05985905798
0.0598628528
0.05986061637
0.05985676011
0.05985031119
0.05984398969
0.05984127246
0.05984398977
0.05985031134
0.05985676024
0.05986061646
0.05985840529
0.05985456705
0.05984824744
0.05984217644
0.05983961261
0.05984217653
0.05984824761
0.0598545672
0.05985840541
0.05985626864
0.05985251146
0.05984640537
0.05984063629
0.0598382337
0.05984063638
0.05984640555
0.05985251163
0.05985626878
0.0598542931
0.05985065763
0.05984481211
0.05983936322
0.05983711856
0.05983936332
0.0598448123
0.05985065782
0.05985429327
0.05985275403
0.05984923798
0.05984362803
0.05983844924
0.05983633208
0.05983844935
0.05984362823
0.05984923819
0.05985275422
)
;
    }
    inlet
    {
        type            calculated;
        value           nonuniform 0();
    }
    outlet
    {
        type            calculated;
        value           nonuniform List<scalar> 
81
(
0.05985275368
0.05984923758
0.05984362757
0.0598384487
0.0598363315
0.05983844881
0.05984362777
0.05984923784
0.05985275394
0.05984923759
0.05984485793
0.05983782156
0.05983126891
0.05982857135
0.05983126906
0.05983782181
0.05984485822
0.0598492379
0.05984362759
0.05983782157
0.05982841555
0.05981956287
0.05981588666
0.05981956304
0.05982841586
0.05983782194
0.05984362796
0.05983844873
0.05983126894
0.05981956291
0.05980845407
0.05980380702
0.0598084542
0.05981956324
0.05983126937
0.05983844918
0.05983633156
0.05982857141
0.05981588672
0.05980380705
0.05979872613
0.05980380725
0.05981588706
0.05982857184
0.05983633203
0.05983844888
0.05983126914
0.05981956313
0.05980845429
0.05980380733
0.05980845453
0.05981956346
0.05983126953
0.0598384493
0.05984362784
0.05983782189
0.05982841595
0.05981956332
0.05981588715
0.0598195635
0.05982841621
0.0598378222
0.05984362818
0.05984923791
0.0598448583
0.05983782202
0.05983126945
0.0598285719
0.05983126956
0.05983782222
0.05984485854
0.05984923816
0.05985275403
0.05984923798
0.05984362803
0.05983844924
0.05983633208
0.05983844935
0.05984362823
0.05984923819
0.05985275422
)
;
    }
    procBoundary1to0
    {
        type            processor;
        value           nonuniform List<scalar> 
97
(
0.05987616411
0.05987616411
0.05987580379
0.05987500605
0.059873825
0.05987295361
0.05987382501
0.05987500608
0.05987580382
0.05987616413
0.05987627177
0.05987498945
0.05987498945
0.05987498945
0.05987291673
0.0598691147
0.05986521666
0.05986911478
0.05987291683
0.05987498952
0.05987580381
0.05987590575
0.05987497704
0.05986661124
0.05986661124
0.05986661124
0.05985154856
0.05982809733
0.05985154906
0.05986661168
0.05987291683
0.05987500608
0.05987537693
0.05987336156
0.05986641742
0.05979226698
0.05979226698
0.05979226698
0.05962874762
0.05979226968
0.05985154899
0.05986911481
0.05987382503
0.05987500538
0.05987186361
0.05985885403
0.05980825716
0.05830085918
0.05830085918
0.05830085918
0.05962874744
0.05962874744
0.05982809744
0.05986521675
0.05987295364
0.05987537693
0.0598733616
0.05986641753
0.05984656272
0.05980825691
0.05984656269
0.05985154827
0.05985154827
0.05985154827
0.05986911468
0.059873825
0.05987590575
0.05987497706
0.05987229278
0.05986641754
0.05985885394
0.0598664175
0.05987229273
0.05987291669
0.05987291669
0.05987291669
0.05987500604
0.05987627178
0.05987590022
0.05987497706
0.0598733616
0.05987186361
0.05987336159
0.05987497706
0.05987590021
0.05987580378
0.05987580378
0.05987580378
0.05987643931
0.05987627178
0.05987590575
0.05987537693
0.05987500538
0.05987537693
0.05987590576
0.05987627178
0.05987643931
)
;
    }
}


// ************************************************************************* //
