/*--------------------------------*- C++ -*----------------------------------*\
| =========                 |                                                 |
| \\      /  F ield         | OpenFOAM: The Open Source CFD Toolbox           |
|  \\    /   O peration     | Version:  4.x                                   |
|   \\  /    A nd           | Web:      www.OpenFOAM.org                      |
|    \\/     M anipulation  |                                                 |
\*---------------------------------------------------------------------------*/
FoamFile
{
    version     2.0;
    format      ascii;
    class       volScalarField;
    location    "9000";
    object      X_H2O;
}
// * * * * * * * * * * * * * * * * * * * * * * * * * * * * * * * * * * * * * //

dimensions      [0 0 0 0 0 0 0];

internalField   nonuniform List<scalar> 
1174
(
1.60400274e-05
1.676732736e-05
1.778337226e-05
1.909541644e-05
2.068455338e-05
2.251161739e-05
2.452490268e-05
2.666757245e-05
2.888352819e-05
3.112108151e-05
3.333342448e-05
3.547140398e-05
3.744826362e-05
3.898841359e-05
1.670922008e-05
1.785430181e-05
1.936341029e-05
2.119576367e-05
2.328390885e-05
2.554929031e-05
2.791435048e-05
3.031008348e-05
3.267961114e-05
3.497865201e-05
3.717305452e-05
3.923002598e-05
4.108520817e-05
4.250593887e-05
1.817117601e-05
2.015927535e-05
2.259341564e-05
2.533036037e-05
2.822030962e-05
3.113240691e-05
3.396582967e-05
3.665107019e-05
3.914596062e-05
4.142947899e-05
4.349464134e-05
4.533814639e-05
4.693277504e-05
4.811792904e-05
2.02832061e-05
2.332966121e-05
2.679087952e-05
3.040983749e-05
3.397819418e-05
3.73507972e-05
4.04407282e-05
4.320680448e-05
4.564016567e-05
4.775266488e-05
4.956737555e-05
5.110897846e-05
5.238341243e-05
5.329845304e-05
2.176686475e-05
2.538352583e-05
2.929120784e-05
3.321326072e-05
3.695473633e-05
4.039545149e-05
4.347395197e-05
4.617086564e-05
4.849464391e-05
5.047048209e-05
5.213179424e-05
5.351214123e-05
5.462863288e-05
5.541615362e-05
2.028315951e-05
2.332959031e-05
2.679078073e-05
3.040970508e-05
3.397801956e-05
3.735058075e-05
4.044046704e-05
4.320649578e-05
4.563981486e-05
4.775227415e-05
4.956694556e-05
5.110851007e-05
5.238290968e-05
5.329791352e-05
1.817109653e-05
2.01591715e-05
2.2593277e-05
2.533017487e-05
2.822006918e-05
3.113210176e-05
3.396544726e-05
3.665061388e-05
3.914542023e-05
4.142885798e-05
4.34939465e-05
4.533738408e-05
4.693194676e-05
4.811703863e-05
1.670914489e-05
1.785420969e-05
1.936329082e-05
2.119560449e-05
2.328369781e-05
2.554901063e-05
2.791398485e-05
3.030962291e-05
3.267905338e-05
3.497799182e-05
3.717228777e-05
3.922915771e-05
4.108423756e-05
4.250488016e-05
1.603997337e-05
1.676726904e-05
1.778329819e-05
1.909531357e-05
2.06844056e-05
2.251140634e-05
2.45246117e-05
2.666718569e-05
2.888303296e-05
3.112046909e-05
3.333268649e-05
3.547054052e-05
3.744726783e-05
3.89872815e-05
1.592722246e-05
1.670917434e-05
1.785425851e-05
1.936336986e-05
2.119572244e-05
2.32838691e-05
2.554925426e-05
2.791431675e-05
3.03100474e-05
3.267957761e-05
3.497861728e-05
3.717301664e-05
3.922998982e-05
4.108516885e-05
4.250589911e-05
1.81933811e-05
2.016315976e-05
2.254052762e-05
2.517797547e-05
2.793194339e-05
3.068470816e-05
3.335100906e-05
3.58757989e-05
3.82281742e-05
4.039445042e-05
4.237114331e-05
4.41550974e-05
4.571609767e-05
4.688724123e-05
2.188049208e-05
2.563127791e-05
2.966270371e-05
3.363375452e-05
3.731915537e-05
4.060290724e-05
4.344954096e-05
4.587370443e-05
4.791616416e-05
4.962762001e-05
5.105862236e-05
5.225197552e-05
5.322815052e-05
5.392596513e-05
2.833218489e-05
3.446621805e-05
4.022813607e-05
4.520193605e-05
4.925928283e-05
5.244015282e-05
5.48616666e-05
5.666270001e-05
5.797546493e-05
5.891375047e-05
5.957012071e-05
6.001729006e-05
6.031016387e-05
6.048056222e-05
3.431335889e-05
4.161802109e-05
4.773289332e-05
5.252579372e-05
5.611924508e-05
5.87198828e-05
6.053943672e-05
6.176388376e-05
6.254520341e-05
6.300278472e-05
6.322843949e-05
6.329291008e-05
6.325480921e-05
6.317869972e-05
2.833196614e-05
3.446595027e-05
4.022782016e-05
4.520156256e-05
4.925886084e-05
5.243967734e-05
5.486113825e-05
5.666214061e-05
5.797487823e-05
5.891313086e-05
5.956947453e-05
6.001662763e-05
6.030948501e-05
6.047985874e-05
2.188022485e-05
2.563097844e-05
2.96623486e-05
3.363332777e-05
3.731864053e-05
4.060229204e-05
4.34488335e-05
4.587291308e-05
4.791530426e-05
4.962668323e-05
5.105762201e-05
5.225091959e-05
5.322704626e-05
5.39248045e-05
1.819322223e-05
2.016300045e-05
2.254032989e-05
2.517771088e-05
2.79315921e-05
3.068424634e-05
3.33504321e-05
3.587510321e-05
3.822736059e-05
4.039351742e-05
4.237010807e-05
4.415395924e-05
4.571486334e-05
4.688591497e-05
1.670915226e-05
1.785421405e-05
1.936328736e-05
2.119558363e-05
2.328364953e-05
2.55489367e-05
2.791387652e-05
3.030947734e-05
3.267886932e-05
3.497776521e-05
3.717202678e-05
3.922885299e-05
4.108389188e-05
4.250447133e-05
1.672514603e-05
1.817106026e-05
2.015915758e-05
2.259329162e-05
2.533023529e-05
2.822018743e-05
3.11322885e-05
3.396570854e-05
3.665095269e-05
3.91458424e-05
4.142936161e-05
4.349452347e-05
4.533803423e-05
4.693266679e-05
4.811782341e-05
1.881504402e-05
2.18803421e-05
2.563115494e-05
2.966259154e-05
3.363365878e-05
3.731906284e-05
4.06028168e-05
4.344945485e-05
4.587362609e-05
4.791608702e-05
4.962754667e-05
5.105854898e-05
5.225190579e-05
5.322807965e-05
5.392588317e-05
3.260166785e-05
4.033737462e-05
4.72421444e-05
5.281957584e-05
5.699805074e-05
5.993298782e-05
6.186481811e-05
6.303843136e-05
6.366652257e-05
6.391863248e-05
6.392295347e-05
6.377449194e-05
6.354890756e-05
6.333478366e-05
5.606675255e-05
6.884758436e-05
7.746867626e-05
8.239505608e-05
8.455626241e-05
8.485294729e-05
8.399429776e-05
8.248398778e-05
8.065722969e-05
7.872647439e-05
7.682148156e-05
7.502388463e-05
7.341255914e-05
7.218983018e-05
8.626999096e-05
9.868785812e-05
0.000103744384
0.0001043277073
0.000102455726
9.937639752e-05
9.581657701e-05
9.218181424e-05
8.86877278e-05
8.544056643e-05
8.248609039e-05
7.984484031e-05
7.756165992e-05
7.586670489e-05
5.606566308e-05
6.88465158e-05
7.74676134e-05
8.239396724e-05
8.455516122e-05
8.485183307e-05
8.399319362e-05
8.248290561e-05
8.065618189e-05
7.872546127e-05
7.682049418e-05
7.502291631e-05
7.341161203e-05
7.218888333e-05
3.260081797e-05
4.033657172e-05
4.724126915e-05
5.281856599e-05
5.699690684e-05
5.993172951e-05
6.186346425e-05
6.30370077e-05
6.366505903e-05
6.391713597e-05
6.392144343e-05
6.37729693e-05
6.354737906e-05
6.333322304e-05
2.1880234e-05
2.563094539e-05
2.966225422e-05
3.363315633e-05
3.731838605e-05
4.06019592e-05
4.344842879e-05
4.587244886e-05
4.791477628e-05
4.96261162e-05
5.105701892e-05
5.225029167e-05
5.322639326e-05
5.392412715e-05
1.817110454e-05
2.015914867e-05
2.259320236e-05
2.533002647e-05
2.821983267e-05
3.11317573e-05
3.396499516e-05
3.665005586e-05
3.914476655e-05
4.142811067e-05
4.349311111e-05
4.533646578e-05
4.693095609e-05
4.811595925e-05
1.790641669e-05
2.028301931e-05
2.3329455e-05
2.679066313e-05
3.040961173e-05
3.397796011e-05
3.73505649e-05
4.044049685e-05
4.320657404e-05
4.56399368e-05
4.775243836e-05
4.956716065e-05
5.110876804e-05
5.238320854e-05
5.329824626e-05
2.261747596e-05
2.833188762e-05
3.446594075e-05
4.022788141e-05
4.520169692e-05
4.925906016e-05
5.243993279e-05
5.486145332e-05
5.66624944e-05
5.797527418e-05
5.891356531e-05
5.956993663e-05
6.001710898e-05
6.030998774e-05
6.048038164e-05
4.018581915e-05
5.606617855e-05
6.884716966e-05
7.746833937e-05
8.239476717e-05
8.455601254e-05
8.485270057e-05
8.39940697e-05
8.248378049e-05
8.065703848e-05
7.872630895e-05
7.682132331e-05
7.50237284e-05
7.341242392e-05
7.218969622e-05
0.0001353815346
0.0001507026066
0.0001525406354
0.0001472675259
0.0001389546849
0.000129846617
0.0001210493622
0.00011303459
0.0001059471448
9.977663895e-05
9.444974737e-05
8.988601421e-05
8.607042059e-05
8.33012094e-05
0.0002884536519
0.0002666344853
0.0002347274642
0.0002046319591
0.0001793099963
0.0001587959795
0.0001423343868
0.0001290917597
0.0001183588956
0.0001095813692
0.0001023418457
9.634375431e-05
9.14481482e-05
8.794893138e-05
0.0001353778268
0.0001506999416
0.0001525382928
0.0001472653916
0.0001389526906
0.0001298447867
0.0001210476619
0.000113033005
0.0001059456555
9.977524625e-05
9.444844904e-05
8.988477479e-05
8.606924704e-05
8.330006399e-05
5.606578974e-05
6.884627518e-05
7.746700381e-05
8.239308716e-05
8.455409642e-05
8.485065853e-05
8.39919567e-05
8.248163794e-05
8.065491364e-05
7.872420437e-05
7.681926803e-05
7.502172463e-05
7.341045695e-05
7.218773951e-05
2.833195081e-05
3.446573897e-05
4.022735144e-05
4.520084697e-05
4.92579098e-05
5.243854035e-05
5.485985088e-05
5.666073034e-05
5.797337882e-05
5.891155896e-05
5.956786568e-05
6.001498851e-05
6.03078192e-05
6.047817148e-05
2.028315865e-05
2.332949824e-05
2.67905422e-05
3.0409278e-05
3.397738595e-05
3.734973702e-05
4.043942109e-05
4.320526194e-05
4.563841135e-05
4.775071714e-05
4.956526576e-05
5.110672309e-05
5.238102547e-05
5.329592531e-05
1.877788661e-05
2.176662159e-05
2.538323681e-05
2.929088845e-05
3.321291879e-05
3.695438816e-05
4.039510018e-05
4.347359956e-05
4.617051544e-05
4.849429822e-05
5.047013917e-05
5.213146473e-05
5.351182417e-05
5.462832586e-05
5.541584592e-05
2.651550294e-05
3.431285283e-05
4.16174819e-05
4.773235158e-05
5.252526837e-05
5.611874366e-05
5.871942232e-05
6.053900673e-05
6.176348777e-05
6.254482255e-05
6.300241863e-05
6.322810241e-05
6.32925912e-05
6.325450807e-05
6.317841005e-05
6.3635295e-05
8.626882047e-05
9.868672686e-05
0.000103743399
0.0001043268742
0.0001024550096
9.937580189e-05
9.581607226e-05
9.218136306e-05
8.868733882e-05
8.544021011e-05
8.248577261e-05
7.984455329e-05
7.756138649e-05
7.586644339e-05
0.0002629752442
0.0002884501114
0.0002666322647
0.0002347260657
0.000204630987
0.0001793092766
0.000158795444
0.0001423339865
0.0001290914393
0.0001183586119
0.0001095811292
0.0001023416467
9.63435797e-05
9.14479884e-05
8.794878185e-05
0.0009398831782
0.000602614104
0.0004175272431
0.000309906851
0.0002435643713
0.0002002970893
0.000170582908
0.0001492323176
0.0001332957264
0.0001210247681
0.0001113428895
0.000103579105
9.738956415e-05
9.303032074e-05
0.0002884536303
0.0002666312117
0.0002347234768
0.0002046280637
0.000179306448
0.0001587928461
0.0001423316174
0.0001290892917
0.0001183566653
0.0001095793515
0.0001023400142
9.63420568e-05
9.144656362e-05
8.794743162e-05
8.62699993e-05
9.868641635e-05
0.0001037419839
0.0001043247978
0.0001024525829
9.937321479e-05
9.581343375e-05
9.217875942e-05
8.868480118e-05
8.543774053e-05
8.248338574e-05
7.984225396e-05
7.755915411e-05
7.586424768e-05
3.431330079e-05
4.161745997e-05
4.773181729e-05
5.252426547e-05
5.6117356e-05
5.871772422e-05
6.053708085e-05
6.176138128e-05
6.254260223e-05
6.300011116e-05
6.322573181e-05
6.329018107e-05
6.325207079e-05
6.317594135e-05
2.176685939e-05
2.538333951e-05
2.929076023e-05
3.321250796e-05
3.695366634e-05
4.03940724e-05
4.347228768e-05
4.616893842e-05
4.849249115e-05
5.046813019e-05
5.212928159e-05
5.350948853e-05
5.46258656e-05
5.541325412e-05
1.790639868e-05
2.028295663e-05
2.332934498e-05
2.679049458e-05
3.040938436e-05
3.397767586e-05
3.73502191e-05
4.044009568e-05
4.320612008e-05
4.56394325e-05
4.775189512e-05
4.956657125e-05
5.110814452e-05
5.23825498e-05
5.32975579e-05
2.261725876e-05
2.833152014e-05
3.446543827e-05
4.022727502e-05
4.52010157e-05
4.925831389e-05
5.24391437e-05
5.48606339e-05
5.666164918e-05
5.797440848e-05
5.891268879e-05
5.956905322e-05
6.001622293e-05
6.030909004e-05
6.047948148e-05
4.018421598e-05
5.60646047e-05
6.884547424e-05
7.746662005e-05
8.239305284e-05
8.455434415e-05
8.485109678e-05
8.399252021e-05
8.248230766e-05
8.06556284e-05
7.87249551e-05
7.682002695e-05
7.50224811e-05
7.341122197e-05
7.218850584e-05
9.946298542e-05
0.0001353750247
0.0001506976685
0.0001525364916
0.0001472639403
0.0001389515062
0.0001298438048
0.0001210468462
0.0001130323361
0.000105945077
9.977475313e-05
9.444799654e-05
8.988438302e-05
8.606888668e-05
8.329973201e-05
0.0002629747347
0.0002884491307
0.0002666283503
0.0002347215436
0.0002046266798
0.0001793054143
0.0001587920355
0.0001423309709
0.0001290887713
0.0001183562309
0.0001095789844
0.0001023396801
9.634177832e-05
9.14463255e-05
8.794720004e-05
9.946422807e-05
0.0001353751613
0.0001506966849
0.0001525347868
0.0001472618625
0.0001389493152
0.0001298416262
0.0001210447569
0.000113030339
0.0001059432195
9.977301537e-05
9.444638624e-05
8.988286514e-05
8.606745596e-05
8.329834762e-05
5.606673396e-05
6.884601778e-05
7.746604386e-05
8.239171907e-05
8.455251637e-05
8.484898645e-05
8.399025091e-05
8.247996325e-05
8.065328412e-05
7.872263246e-05
7.681774941e-05
7.502025448e-05
7.340903401e-05
7.218634781e-05
2.833227402e-05
3.446578044e-05
4.022711886e-05
4.520037939e-05
4.925726612e-05
5.243775457e-05
5.485896109e-05
5.665976645e-05
5.797236874e-05
5.891052969e-05
5.95668065e-05
6.0013918e-05
6.030673766e-05
6.047708272e-05
2.028326014e-05
2.332953548e-05
2.679047993e-05
3.040909942e-05
3.397708877e-05
3.73493271e-05
4.043890288e-05
4.320465593e-05
4.563772898e-05
4.774997177e-05
4.956446128e-05
5.11058766e-05
5.238014147e-05
5.329501149e-05
1.672510174e-05
1.817095837e-05
2.015898876e-05
2.259305266e-05
2.532991167e-05
2.821977625e-05
3.113177794e-05
3.396510006e-05
3.665024878e-05
3.914504936e-05
4.142848372e-05
4.349356662e-05
4.533700359e-05
4.693156492e-05
4.811665178e-05
1.881475843e-05
2.187995801e-05
2.563064917e-05
2.966197267e-05
3.363291511e-05
3.731820805e-05
4.06018464e-05
4.34483834e-05
4.587245901e-05
4.791484527e-05
4.962623957e-05
5.105718494e-05
5.22504979e-05
5.322662414e-05
5.392439902e-05
2.512071814e-05
3.260017088e-05
4.033585035e-05
4.724051495e-05
5.281782335e-05
5.699618628e-05
5.993104591e-05
6.186281852e-05
6.303640101e-05
6.366449438e-05
6.391660843e-05
6.392094441e-05
6.377249449e-05
6.354692813e-05
6.333279711e-05
4.018420059e-05
5.606430486e-05
6.884482467e-05
7.746567631e-05
8.239189411e-05
8.455305823e-05
8.484974967e-05
8.399114976e-05
8.248093218e-05
8.06542936e-05
7.872365109e-05
7.681876667e-05
7.502126e-05
7.341002724e-05
7.21873432e-05
6.36354002e-05
8.626785231e-05
9.868459511e-05
0.0001037404982
0.0001043235555
0.0001024515507
9.937234632e-05
9.581269295e-05
9.21781126e-05
8.868422857e-05
8.543723374e-05
8.248293285e-05
7.98418411e-05
7.75587898e-05
7.586389641e-05
4.018426273e-05
5.606420909e-05
6.8844426e-05
7.746497077e-05
8.239093997e-05
8.455193254e-05
8.484851254e-05
8.398986534e-05
8.247964122e-05
8.065300216e-05
7.872238559e-05
7.681753264e-05
7.502006792e-05
7.340885683e-05
7.2186181e-05
2.512129518e-05
3.260065778e-05
4.03360009e-05
4.724024917e-05
5.281715458e-05
5.699517955e-05
5.992977352e-05
6.186135223e-05
6.3034796e-05
6.366279562e-05
6.391484485e-05
6.391915593e-05
6.37706936e-05
6.354511287e-05
6.333096192e-05
2.188047823e-05
2.56309257e-05
2.966196703e-05
3.363260662e-05
3.731759468e-05
4.060095531e-05
4.344724747e-05
4.587111294e-05
4.791331811e-05
4.962455727e-05
5.105537942e-05
5.224858749e-05
5.322463855e-05
5.392232959e-05
1.817121712e-05
2.015918286e-05
2.259311595e-05
2.532978779e-05
2.821942823e-05
3.113118698e-05
3.396426164e-05
3.664916661e-05
3.914373131e-05
4.142694834e-05
4.349183006e-05
4.533509432e-05
4.692949503e-05
4.811442629e-05
1.592715358e-05
1.670906266e-05
1.78540935e-05
1.93631378e-05
2.11954136e-05
2.328346868e-05
2.554875121e-05
2.791369738e-05
3.03093104e-05
3.267871744e-05
3.497763857e-05
3.717192508e-05
3.922878229e-05
4.108385562e-05
4.250448925e-05
1.674165286e-05
1.8193074e-05
2.016280348e-05
2.254008753e-05
2.517742169e-05
2.793126543e-05
3.068389281e-05
3.3350055e-05
3.587470869e-05
3.822695591e-05
4.039310889e-05
4.236968984e-05
4.415354266e-05
4.571444689e-05
4.688549856e-05
1.881476254e-05
2.187993098e-05
2.563056706e-05
2.966182338e-05
3.363268523e-05
3.731789411e-05
4.060145299e-05
4.344792266e-05
4.58719399e-05
4.791427589e-05
4.962563498e-05
5.105654358e-05
5.22498208e-05
5.322593503e-05
5.392368314e-05
2.2617264e-05
2.833138629e-05
3.446508627e-05
4.022666692e-05
4.520014684e-05
4.925723025e-05
5.243787949e-05
5.485922819e-05
5.666013546e-05
5.797280428e-05
5.891103066e-05
5.956735415e-05
6.001450674e-05
6.030736508e-05
6.047774184e-05
2.651549854e-05
3.431249127e-05
4.161662568e-05
4.773101043e-05
5.252350209e-05
5.611665213e-05
5.871706859e-05
6.053648392e-05
6.176083402e-05
6.254209186e-05
6.299963252e-05
6.322529057e-05
6.328976817e-05
6.325168693e-05
6.317556671e-05
2.261724815e-05
2.833132048e-05
3.446492835e-05
4.022638975e-05
4.519975396e-05
4.925672159e-05
5.243727563e-05
5.485853842e-05
5.66593841e-05
5.797201195e-05
5.891020093e-05
5.95665036e-05
6.001363937e-05
6.030648183e-05
6.047683172e-05
1.881481357e-05
2.187997281e-05
2.563052129e-05
2.966162753e-05
3.363231149e-05
3.731733383e-05
4.060072605e-05
4.344703487e-05
4.587091851e-05
4.791314142e-05
4.962439731e-05
5.105523247e-05
5.224845219e-05
5.322451457e-05
5.392220881e-05
1.674176765e-05
1.819319939e-05
2.016287467e-05
2.254005365e-05
2.517724681e-05
2.793092203e-05
3.06833639e-05
3.334933998e-05
3.587381861e-05
3.822589992e-05
4.039189501e-05
4.236833457e-05
4.415205962e-05
4.571284449e-05
4.688379737e-05
1.67092237e-05
1.78542151e-05
1.936319102e-05
2.119536683e-05
2.328328601e-05
2.55484014e-05
2.79131649e-05
3.0308587e-05
3.267779622e-05
3.497651779e-05
3.717061001e-05
3.922728468e-05
4.108218265e-05
4.250264802e-05
1.556672637e-05
1.603991788e-05
1.676718725e-05
1.778318601e-05
1.909516775e-05
2.068422494e-05
2.251119046e-05
2.452436244e-05
2.666690472e-05
2.888272202e-05
3.112013362e-05
3.333233294e-05
3.547016895e-05
3.744689191e-05
3.898690381e-05
1.592715657e-05
1.670906228e-05
1.785408611e-05
1.93631194e-05
2.119537329e-05
2.328339915e-05
2.554864796e-05
2.791355611e-05
3.030913223e-05
3.267849998e-05
3.497738157e-05
3.717162759e-05
3.922844754e-05
4.108348114e-05
4.250406748e-05
1.672510751e-05
1.81709467e-05
2.015893549e-05
2.259293541e-05
2.532971191e-05
2.821947595e-05
3.113137109e-05
3.396458569e-05
3.664962909e-05
3.914432914e-05
4.142766338e-05
4.349266653e-05
4.533602164e-05
4.693051513e-05
4.811552518e-05
1.79063971e-05
2.028289219e-05
2.332915666e-05
2.679014031e-05
3.040882928e-05
3.39769098e-05
3.734924419e-05
4.043891641e-05
4.320475572e-05
4.563791504e-05
4.775023433e-05
4.956479367e-05
5.110625548e-05
5.238057844e-05
5.329548574e-05
1.87778833e-05
2.176649092e-05
2.538289772e-05
2.92902685e-05
3.32119883e-05
3.695314099e-05
4.03935477e-05
4.347176982e-05
4.616843719e-05
4.849201137e-05
5.046766952e-05
5.212883739e-05
5.350906222e-05
5.462545651e-05
5.541286424e-05
1.790637941e-05
2.028284733e-05
2.332906888e-05
2.678999077e-05
3.040861164e-05
3.397661051e-05
3.734886752e-05
4.04384696e-05
4.320424297e-05
4.563733624e-05
4.77496035e-05
4.956411891e-05
5.11055551e-05
5.237983631e-05
5.329471212e-05
1.672509375e-05
1.817091446e-05
2.015885695e-05
2.25927821e-05
2.532945702e-05
2.821910297e-05
3.113087006e-05
3.396395596e-05
3.664887317e-05
3.914345884e-05
4.142669137e-05
4.349159479e-05
4.533486712e-05
4.692927889e-05
4.811422233e-05
1.592717114e-05
1.670908203e-05
1.78540839e-05
1.936306428e-05
2.11952398e-05
2.32831618e-05
2.55482808e-05
2.791304612e-05
3.030847094e-05
3.267768637e-05
3.49764149e-05
3.717051191e-05
3.92271902e-05
4.108209795e-05
4.250256503e-05
1.556676162e-05
1.603996766e-05
1.676723043e-05
1.778319889e-05
1.909512047e-05
2.068409024e-05
2.251094082e-05
2.452396978e-05
2.666635067e-05
2.888199641e-05
3.111922484e-05
3.333123522e-05
3.546888644e-05
3.744542258e-05
3.89852529e-05
)
;

boundaryField
{
    top
    {
        type            calculated;
        value           nonuniform List<scalar> 
127
(
1.556676162e-05
1.603997337e-05
1.670915226e-05
1.817110454e-05
2.028315865e-05
2.176685939e-05
2.028326014e-05
1.817121712e-05
1.67092237e-05
1.603996766e-05
1.676726904e-05
1.785421405e-05
2.015914867e-05
2.332949824e-05
2.538333951e-05
2.332953548e-05
2.015918286e-05
1.78542151e-05
1.676723043e-05
1.778329819e-05
1.936328736e-05
2.259320236e-05
2.67905422e-05
2.929076023e-05
2.679047993e-05
2.259311595e-05
1.936319102e-05
1.778319889e-05
1.909531357e-05
2.119558363e-05
2.533002647e-05
3.0409278e-05
3.321250796e-05
3.040909942e-05
2.532978779e-05
2.119536683e-05
1.909512047e-05
2.06844056e-05
2.328364953e-05
2.821983267e-05
3.397738595e-05
3.695366634e-05
3.397708877e-05
2.821942823e-05
2.328328601e-05
2.068409024e-05
2.251140634e-05
2.55489367e-05
3.11317573e-05
3.734973702e-05
4.03940724e-05
3.73493271e-05
3.113118698e-05
2.55484014e-05
2.251094082e-05
2.45246117e-05
2.791387652e-05
3.396499516e-05
4.043942109e-05
4.347228768e-05
4.043890288e-05
3.396426164e-05
2.79131649e-05
2.452396978e-05
2.666718569e-05
3.030947734e-05
3.665005586e-05
4.320526194e-05
4.616893842e-05
4.320465593e-05
3.664916661e-05
3.0308587e-05
2.666635067e-05
2.888303296e-05
3.267886932e-05
3.914476655e-05
4.563841135e-05
4.849249115e-05
4.563772898e-05
3.914373131e-05
3.267779622e-05
2.888199641e-05
3.112046909e-05
3.497776521e-05
4.142811067e-05
4.775071714e-05
5.046813019e-05
4.774997177e-05
4.142694834e-05
3.497651779e-05
3.111922484e-05
3.333268649e-05
3.717202678e-05
4.349311111e-05
4.956526576e-05
5.212928159e-05
4.956446128e-05
4.349183006e-05
3.717061001e-05
3.333123522e-05
3.547054052e-05
3.922885299e-05
4.533646578e-05
5.110672309e-05
5.350948853e-05
5.11058766e-05
4.533509432e-05
3.922728468e-05
3.546888644e-05
3.744726783e-05
4.108389188e-05
4.693095609e-05
5.238102547e-05
5.46258656e-05
5.238014147e-05
4.692949503e-05
4.108218265e-05
3.744542258e-05
3.89872815e-05
4.250447133e-05
4.811595925e-05
5.329592531e-05
5.541325412e-05
5.329501149e-05
4.811442629e-05
4.250264802e-05
3.89852529e-05
)
;
    }
    bottom
    {
        type            calculated;
        value           nonuniform List<scalar> 
134
(
1.592722246e-05
1.672514603e-05
1.790641669e-05
1.877788661e-05
1.790639868e-05
1.672510174e-05
1.592715358e-05
1.556672637e-05
1.60400274e-05
1.670917434e-05
1.817106026e-05
2.028301931e-05
2.176662159e-05
2.028295663e-05
1.817095837e-05
1.670906266e-05
1.603991788e-05
1.676732736e-05
1.785425851e-05
2.015915758e-05
2.3329455e-05
2.538323681e-05
2.332934498e-05
2.015898876e-05
1.78540935e-05
1.676718725e-05
1.778337226e-05
1.936336986e-05
2.259329162e-05
2.679066313e-05
2.929088845e-05
2.679049458e-05
2.259305266e-05
1.93631378e-05
1.778318601e-05
1.909541644e-05
2.119572244e-05
2.533023529e-05
3.040961173e-05
3.321291879e-05
3.040938436e-05
2.532991167e-05
2.11954136e-05
1.909516775e-05
2.068455338e-05
2.32838691e-05
2.822018743e-05
3.397796011e-05
3.695438816e-05
3.397767586e-05
2.821977625e-05
2.328346868e-05
2.068422494e-05
2.251161739e-05
2.554925426e-05
3.11322885e-05
3.73505649e-05
4.039510018e-05
3.73502191e-05
3.113177794e-05
2.554875121e-05
2.251119046e-05
2.452490268e-05
2.791431675e-05
3.396570854e-05
4.044049685e-05
4.347359956e-05
4.044009568e-05
3.396510006e-05
2.791369738e-05
2.452436244e-05
2.666757245e-05
3.03100474e-05
3.665095269e-05
4.320657404e-05
4.617051544e-05
4.320612008e-05
3.665024878e-05
3.03093104e-05
2.666690472e-05
2.888352819e-05
3.267957761e-05
3.91458424e-05
4.56399368e-05
4.849429822e-05
4.56394325e-05
3.914504936e-05
3.267871744e-05
2.888272202e-05
3.112108151e-05
3.497861728e-05
4.142936161e-05
4.775243836e-05
5.047013917e-05
4.775189512e-05
4.142848372e-05
3.497763857e-05
3.112013362e-05
3.333342448e-05
3.717301664e-05
4.349452347e-05
4.956716065e-05
5.213146473e-05
4.956657125e-05
4.349356662e-05
3.717192508e-05
3.333233294e-05
3.547140398e-05
3.922998982e-05
4.533803423e-05
5.110876804e-05
5.351182417e-05
5.110814452e-05
4.533700359e-05
3.922878229e-05
3.547016895e-05
3.744826362e-05
4.108516885e-05
4.693266679e-05
5.238320854e-05
5.462832586e-05
5.23825498e-05
4.693156492e-05
4.108385562e-05
3.744689191e-05
3.898841359e-05
4.250589911e-05
4.811782341e-05
5.329824626e-05
5.541584592e-05
5.32975579e-05
4.811665178e-05
4.250448925e-05
3.898690381e-05
)
;
    }
    side-walls
    {
        type            calculated;
        value           nonuniform List<scalar> 
261
(
1.60400274e-05
1.670922008e-05
1.817117601e-05
2.02832061e-05
2.176686475e-05
2.028315951e-05
1.817109653e-05
1.670914489e-05
1.603997337e-05
1.676732736e-05
1.785430181e-05
2.015927535e-05
2.332966121e-05
2.538352583e-05
2.332959031e-05
2.01591715e-05
1.785420969e-05
1.676726904e-05
1.778337226e-05
1.936341029e-05
2.259341564e-05
2.679087952e-05
2.929120784e-05
2.679078073e-05
2.2593277e-05
1.936329082e-05
1.778329819e-05
1.909541644e-05
2.119576367e-05
2.533036037e-05
3.040983749e-05
3.321326072e-05
3.040970508e-05
2.533017487e-05
2.119560449e-05
1.909531357e-05
2.068455338e-05
2.328390885e-05
2.822030962e-05
3.397819418e-05
3.695473633e-05
3.397801956e-05
2.822006918e-05
2.328369781e-05
2.06844056e-05
2.251161739e-05
2.554929031e-05
3.113240691e-05
3.73507972e-05
4.039545149e-05
3.735058075e-05
3.113210176e-05
2.554901063e-05
2.251140634e-05
2.452490268e-05
2.791435048e-05
3.396582967e-05
4.04407282e-05
4.347395197e-05
4.044046704e-05
3.396544726e-05
2.791398485e-05
2.45246117e-05
2.666757245e-05
3.031008348e-05
3.665107019e-05
4.320680448e-05
4.617086564e-05
4.320649578e-05
3.665061388e-05
3.030962291e-05
2.666718569e-05
2.888352819e-05
3.267961114e-05
3.914596062e-05
4.564016567e-05
4.849464391e-05
4.563981486e-05
3.914542023e-05
3.267905338e-05
2.888303296e-05
3.112108151e-05
3.497865201e-05
4.142947899e-05
4.775266488e-05
5.047048209e-05
4.775227415e-05
4.142885798e-05
3.497799182e-05
3.112046909e-05
3.333342448e-05
3.717305452e-05
4.349464134e-05
4.956737555e-05
5.213179424e-05
4.956694556e-05
4.34939465e-05
3.717228777e-05
3.333268649e-05
3.547140398e-05
3.923002598e-05
4.533814639e-05
5.110897846e-05
5.351214123e-05
5.110851007e-05
4.533738408e-05
3.922915771e-05
3.547054052e-05
3.744826362e-05
4.108520817e-05
4.693277504e-05
5.238341243e-05
5.462863288e-05
5.238290968e-05
4.693194676e-05
4.108423756e-05
3.744726783e-05
3.898841359e-05
4.250593887e-05
4.811792904e-05
5.329845304e-05
5.541615362e-05
5.329791352e-05
4.811703863e-05
4.250488016e-05
3.89872815e-05
1.556672637e-05
1.592715657e-05
1.672510751e-05
1.79063971e-05
1.87778833e-05
1.790637941e-05
1.672509375e-05
1.592717114e-05
1.556676162e-05
1.603991788e-05
1.670906228e-05
1.81709467e-05
2.028289219e-05
2.176649092e-05
2.028284733e-05
1.817091446e-05
1.670908203e-05
1.603996766e-05
1.676718725e-05
1.785408611e-05
2.015893549e-05
2.332915666e-05
2.538289772e-05
2.332906888e-05
2.015885695e-05
1.78540839e-05
1.676723043e-05
1.778318601e-05
1.93631194e-05
2.259293541e-05
2.679014031e-05
2.92902685e-05
2.678999077e-05
2.25927821e-05
1.936306428e-05
1.778319889e-05
1.909516775e-05
2.119537329e-05
2.532971191e-05
3.040882928e-05
3.32119883e-05
3.040861164e-05
2.532945702e-05
2.11952398e-05
1.909512047e-05
2.068422494e-05
2.328339915e-05
2.821947595e-05
3.39769098e-05
3.695314099e-05
3.397661051e-05
2.821910297e-05
2.32831618e-05
2.068409024e-05
2.251119046e-05
2.554864796e-05
3.113137109e-05
3.734924419e-05
4.03935477e-05
3.734886752e-05
3.113087006e-05
2.55482808e-05
2.251094082e-05
2.452436244e-05
2.791355611e-05
3.396458569e-05
4.043891641e-05
4.347176982e-05
4.04384696e-05
3.396395596e-05
2.791304612e-05
2.452396978e-05
2.666690472e-05
3.030913223e-05
3.664962909e-05
4.320475572e-05
4.616843719e-05
4.320424297e-05
3.664887317e-05
3.030847094e-05
2.666635067e-05
2.888272202e-05
3.267849998e-05
3.914432914e-05
4.563791504e-05
4.849201137e-05
4.563733624e-05
3.914345884e-05
3.267768637e-05
2.888199641e-05
3.112013362e-05
3.497738157e-05
4.142766338e-05
4.775023433e-05
5.046766952e-05
4.77496035e-05
4.142669137e-05
3.49764149e-05
3.111922484e-05
3.333233294e-05
3.717162759e-05
4.349266653e-05
4.956479367e-05
5.212883739e-05
4.956411891e-05
4.349159479e-05
3.717051191e-05
3.333123522e-05
3.547016895e-05
3.922844754e-05
4.533602164e-05
5.110625548e-05
5.350906222e-05
5.11055551e-05
4.533486712e-05
3.92271902e-05
3.546888644e-05
3.744689191e-05
4.108348114e-05
4.693051513e-05
5.238057844e-05
5.462545651e-05
5.237983631e-05
4.692927889e-05
4.108209795e-05
3.744542258e-05
3.898690381e-05
4.250406748e-05
4.811552518e-05
5.329548574e-05
5.541286424e-05
5.329471212e-05
4.811422233e-05
4.250256503e-05
3.89852529e-05
)
;
    }
    inlet
    {
        type            calculated;
        value           nonuniform 0();
    }
    outlet
    {
        type            calculated;
        value           nonuniform List<scalar> 
81
(
3.898841359e-05
4.250593887e-05
4.811792904e-05
5.329845304e-05
5.541615362e-05
5.329791352e-05
4.811703863e-05
4.250488016e-05
3.89872815e-05
4.250589911e-05
4.688724123e-05
5.392596513e-05
6.048056222e-05
6.317869972e-05
6.047985874e-05
5.39248045e-05
4.688591497e-05
4.250447133e-05
4.811782341e-05
5.392588317e-05
6.333478366e-05
7.218983018e-05
7.586670489e-05
7.218888333e-05
6.333322304e-05
5.392412715e-05
4.811595925e-05
5.329824626e-05
6.048038164e-05
7.218969622e-05
8.33012094e-05
8.794893138e-05
8.330006399e-05
7.218773951e-05
6.047817148e-05
5.329592531e-05
5.541584592e-05
6.317841005e-05
7.586644339e-05
8.794878185e-05
9.303032074e-05
8.794743162e-05
7.586424768e-05
6.317594135e-05
5.541325412e-05
5.32975579e-05
6.047948148e-05
7.218850584e-05
8.329973201e-05
8.794720004e-05
8.329834762e-05
7.218634781e-05
6.047708272e-05
5.329501149e-05
4.811665178e-05
5.392439902e-05
6.333279711e-05
7.21873432e-05
7.586389641e-05
7.2186181e-05
6.333096192e-05
5.392232959e-05
4.811442629e-05
4.250448925e-05
4.688549856e-05
5.392368314e-05
6.047774184e-05
6.317556671e-05
6.047683172e-05
5.392220881e-05
4.688379737e-05
4.250264802e-05
3.898690381e-05
4.250406748e-05
4.811552518e-05
5.329548574e-05
5.541286424e-05
5.329471212e-05
4.811422233e-05
4.250256503e-05
3.89852529e-05
)
;
    }
    procBoundary1to0
    {
        type            processor;
        value           nonuniform List<scalar> 
97
(
1.556676073e-05
1.556676073e-05
1.59271657e-05
1.67250602e-05
1.790625357e-05
1.877765626e-05
1.790621812e-05
1.672499657e-05
1.592710017e-05
1.556669642e-05
1.545900247e-05
1.674177397e-05
1.674177397e-05
1.674177397e-05