/*--------------------------------*- C++ -*----------------------------------*\
| =========                 |                                                 |
| \\      /  F ield         | OpenFOAM: The Open Source CFD Toolbox           |
|  \\    /   O peration     | Version:  4.x                                   |
|   \\  /    A nd           | Web:      www.OpenFOAM.org                      |
|    \\/     M anipulation  |                                                 |
\*---------------------------------------------------------------------------*/
FoamFile
{
    version     2.0;
    format      ascii;
    class       volScalarField;
    location    "7000";
    object      CO;
}
// * * * * * * * * * * * * * * * * * * * * * * * * * * * * * * * * * * * * * //

dimensions      [0 0 0 0 0 0 0];

internalField   nonuniform List<scalar> 
1174
(
0.3719611386
0.3719590857
0.3719561848
0.3719523981
0.3719477649
0.3719423882
0.3719364098
0.3719299935
0.3719233046
0.3719164982
0.3719097193
0.3719031203
0.3718969722
0.3718921387
0.3719592055
0.3719559081
0.3719515143
0.3719461248
0.3719399252
0.3719331405
0.3719259999
0.3719187117
0.3719114522
0.3719043615
0.3718975506
0.3718911262
0.3718852931
0.3718807889
0.3719549295
0.3719490891
0.3719418586
0.3719336451
0.3719248901
0.3719159904
0.3719072612
0.3718989266
0.3718911291
0.3718839466
0.3718774124
0.3718715457
0.3718664403
0.3718626168
0.3719486536
0.3719395665
0.3719291293
0.3719181057
0.3719071332
0.3718966701
0.3718870032
0.3718782805
0.3718705489
0.3718637887
0.3718579423
0.371852943
0.3718487818
0.3718457698
0.371944164
0.3719332909
0.3719214257
0.3719094051
0.3718978347
0.3718871021
0.3718774189
0.371868866
0.3718614371
0.371855071
0.371849677
0.3718451615
0.3718414804
0.371838861
0.3719486536
0.3719395667
0.3719291295
0.371918106
0.3719071332
0.3718966704
0.3718870038
0.3718782809
0.3718705495
0.3718637896
0.3718579429
0.3718529436
0.3718487824
0.3718457703
0.3719549293
0.3719490892
0.371941859
0.3719336454
0.3719248905
0.3719159911
0.3719072618
0.3718989271
0.3718911302
0.3718839474
0.3718774133
0.3718715469
0.3718664414
0.3718626178
0.3719592056
0.3719559081
0.3719515146
0.3719461249
0.3719399255
0.3719331408
0.3719260002
0.3719187123
0.3719114532
0.3719043627
0.3718975519
0.3718911275
0.3718852941
0.3718807901
0.3719611387
0.371959086
0.3719561847
0.3719523978
0.3719477652
0.3719423883
0.3719364103
0.3719299938
0.3719233048
0.3719164988
0.3719097202
0.3719031215
0.3718969734
0.3718921403
0.3719614297
0.3719592057
0.3719559083
0.3719515144
0.3719461248
0.371939925
0.3719331405
0.3719259999
0.3719187117
0.3719114523
0.3719043619
0.3718975507
0.3718911262
0.3718852931
0.371880789
0.3719548384
0.3719490352
0.3719419553
0.3719340233
0.3719256679
0.3719172496
0.3719090378
0.3719012115
0.3718938772
0.3718870876
0.3718808614
0.3718752155
0.3718702489
0.3718664958
0.3719438348
0.3719325349
0.3719202468
0.3719080115
0.3718965443
0.371886235
0.3718772258
0.3718694997
0.3718629497
0.3718574322
0.3718527979
0.3718489177
0.3718457304
0.3718434385
0.3719242427
0.3719054209
0.3718875165
0.3718718725
0.3718589603
0.3718487194
0.3718408328
0.3718348974
0.3718305171
0.3718273445
0.3718250912
0.3718235282
0.3718224827
0.3718218591
0.371905721
0.3718830523
0.3718638428
0.3718486012
0.3718370285
0.3718285376
0.3718225024
0.3718183614
0.3718156487
0.371813993
0.3718131046
0.3718127598
0.3718127721
0.3718129416
0.3719242429
0.3719054214
0.3718875172
0.3718718735
0.371858961
0.3718487201
0.3718408337
0.371834898
0.3718305181
0.3718273454
0.3718250922
0.3718235293
0.3718224836
0.37182186
0.371943835
0.3719325352
0.371920247
0.3719080123
0.3718965451
0.3718862359
0.3718772271
0.371869501
0.3718629508
0.3718574331
0.3718527991
0.3718489191
0.3718457319
0.3718434399
0.3719548387
0.3719490354
0.3719419559
0.371934024
0.3719256686
0.3719172505
0.3719090383
0.371901212
0.3718938781
0.3718870885
0.3718808627
0.3718752171
0.3718702504
0.3718664973
0.3719592054
0.3719559083
0.3719515143
0.371946125
0.3719399254
0.3719331408
0.3719260002
0.3719187124
0.3719114531
0.3719043628
0.371897552
0.3718911277
0.3718852949
0.3718807908
0.3719591252
0.3719549295
0.3719490892
0.3719418589
0.3719336453
0.3719248902
0.3719159908
0.3719072617
0.371898927
0.3718911295
0.3718839471
0.3718774124
0.371871546
0.3718664404
0.371862617
0.3719529527
0.3719438351
0.3719325352
0.3719202467
0.3719080117
0.3718965443
0.3718862351
0.3718772262
0.3718695001
0.3718629498
0.3718574322
0.3718527979
0.3718489181
0.3718457307
0.3718434382
0.3719112692
0.3718873761
0.3718657295
0.3718479737
0.3718344514
0.3718247764
0.3718182641
0.3718141849
0.3718118871
0.3718108414
0.3718106387
0.3718109725
0.3718115957
0.3718122235
0.3718386994
0.3717982656
0.3717703568
0.3717538636
0.3717460995
0.3717443501
0.3717464214
0.3717507227
0.3717561735
0.3717620751
0.3717679909
0.3717736391
0.371778754
0.3717826745
0.3717434645
0.3717031657
0.3716858373
0.3716827602
0.3716876964
0.3716967138
0.3717074804
0.3717186675
0.3717295499
0.3717397562
0.3717491128
0.371757534
0.3717648628
0.3717703478
0.3718387013
0.3717982674
0.3717703587
0.3717538654
0.3717461016
0.3717443522
0.3717464232
0.3717507244
0.3717561749
0.3717620768
0.371767992
0.3717736408
0.3717787552
0.3717826761
0.3719112705
0.3718873772
0.3718657308
0.3718479749
0.3718344526
0.3718247782
0.3718182664
0.3718141871
0.3718118897
0.3718108437
0.3718106413
0.3718109748
0.3718115979
0.3718122257
0.371943835
0.3719325351
0.3719202472
0.3719080123
0.3718965453
0.3718862365
0.3718772276
0.3718695013
0.3718629516
0.3718574342
0.3718528003
0.3718489202
0.3718457331
0.371843441
0.3719549293
0.3719490894
0.3719418589
0.3719336456
0.3719248909
0.3719159916
0.3719072627
0.3718989282
0.3718911309
0.3718839487
0.3718774146
0.3718715481
0.3718664427
0.3718626195
0.371955658
0.3719486537
0.3719395667
0.3719291295
0.3719181061
0.3719071335
0.3718966703
0.3718870035
0.3718782808
0.3718705492
0.3718637893
0.3718579427
0.371852943
0.3718487819
0.3718457699
0.3719415447
0.3719242429
0.3719054215
0.3718875168
0.371871873
0.3718589605
0.3718487196
0.3718408329
0.3718348977
0.3718305176
0.3718273448
0.3718250914
0.3718235286
0.371822483
0.3718218596
0.3718879978
0.3718387005
0.3717982665
0.3717703575
0.3717538643
0.3717461
0.3717443505
0.3717464217
0.371750723
0.3717561738
0.3717620756
0.3717679909
0.3717736395
0.3717787542
0.3717826749
0.3715894917
0.3715383707
0.3715297739
0.3715442642
0.3715690914
0.3715970458
0.3716244658
0.3716497127
0.3716722184
0.3716919401
0.37170906
0.3717238019
0.3717361935
0.37174525
0.3710995105
0.3711629993
0.3712610086
0.3713551229
0.3714351646
0.3715004982
0.3715532222
0.3715958246
0.3716304797
0.3716589122
0.3716824331
0.3717019808
0.3717179959
0.371729512
0.3715894982
0.3715383754
0.3715297779
0.3715442679
0.3715690947
0.3715970493
0.3716244689
0.3716497154
0.3716722208
0.3716919424
0.3717090622
0.3717238038
0.3717361952
0.371745252
0.3718387009
0.3717982679
0.3717703596
0.3717538671
0.3717461035
0.3717443541
0.3717464255
0.3717507262
0.3717561771
0.3717620788
0.3717679941
0.3717736423
0.371778757
0.3717826773
0.3719242429
0.3719054219
0.3718875179
0.3718718746
0.3718589623
0.3718487217
0.3718408356
0.3718349003
0.3718305202
0.3718273476
0.3718250944
0.3718235317
0.371822486
0.3718218626
0.3719486536
0.371939567
0.37192913
0.3719181066
0.3719071346
0.3718966719
0.3718870053
0.371878283
0.3718705517
0.371863792
0.371857945
0.3718529459
0.3718487852
0.371845773
0.3719530515
0.371944164
0.3719332915
0.3719214261
0.3719094053
0.3718978352
0.3718871031
0.3718774194
0.3718688664
0.3718614378
0.3718550716
0.3718496778
0.3718451622
0.3718414812
0.3718388614
0.3719296139
0.3719057213
0.3718830528
0.3718638432
0.3718486018
0.3718370292
0.371828538
0.3718225027
0.3718183621
0.3718156494
0.3718139933
0.3718131051
0.3718127603
0.3718127726
0.3718129422
0.3718149405
0.3717434658
0.3717031672
0.3716858389
0.3716827614
0.3716876971
0.3716967143
0.3717074809
0.3717186678
0.3717295503
0.3717397565
0.3717491132
0.3717575345
0.3717648634
0.3717703483
0.3711870999
0.3710995163
0.3711630032
0.3712610107
0.3713551247
0.3714351656
0.3715004993
0.371553223
0.3715958254
0.3716304803
0.3716589126
0.3716824332
0.3717019809
0.3717179963
0.3717295123
0.3689871583
0.3700600497
0.3706547827
0.3710032193
0.3712191475
0.3713604444
0.371457671
0.3715276066
0.3715798448
0.3716200933
0.3716518764
0.3716773961
0.3716977904
0.3717122276
0.3710995122
0.3711630067
0.371261016
0.3713551296
0.3714351704
0.3715005035
0.3715532265
0.3715958288
0.3716304831
0.3716589153
0.3716824357
0.3717019829
0.3717179984
0.371729515
0.3717434643
0.3717031683
0.3716858416
0.3716827651
0.3716877014
0.371696719
0.3717074855
0.3717186723
0.3717295544
0.3717397605
0.371749117
0.371757538
0.3717648672
0.3717703517
0.3719057203
0.3718830527
0.3718638442
0.3718486033
0.3718370314
0.3718285404
0.3718225055
0.3718183651
0.3718156526
0.3718139966
0.3718131086
0.371812764
0.3718127761
0.3718129461
0.3719441638
0.3719332913
0.3719214263
0.3719094063
0.3718978364
0.3718871047
0.3718774212
0.3718688688
0.3718614404
0.3718550745
0.3718496809
0.3718451655
0.3718414847
0.3718388649
0.371955658
0.3719486536
0.3719395666
0.3719291296
0.3719181064
0.3719071339
0.3718966708
0.371887004
0.3718782817
0.3718705502
0.3718637903
0.3718579438
0.3718529443
0.3718487833
0.3718457711
0.371941545
0.3719242433
0.3719054219
0.3718875177
0.3718718741
0.3718589614
0.3718487206
0.371840834
0.3718348988
0.3718305189
0.3718273461
0.3718250928
0.37182353
0.3718224844
0.3718218611
0.3718880001
0.371838703
0.3717982693
0.37177036
0.3717538669
0.371746103
0.3717443531
0.3717464245
0.371750725
0.3717561759
0.3717620775
0.3717679928
0.3717736412
0.371778756
0.3717826768
0.3717039203
0.3715895032
0.3715383793
0.371529781
0.3715442705
0.3715690968
0.3715970512
0.3716244701
0.3716497164
0.3716722215
0.3716919431
0.3717090628
0.3717238047
0.3717361958
0.3717452524
0.3711871017
0.3710995185
0.3711630108
0.3712610192
0.371355132
0.3714351722
0.3715005048
0.371553228
0.3715958294
0.3716304839
0.3716589158
0.3716824362
0.3717019837
0.3717179986
0.3717295149
0.3717039185
0.3715895033
0.3715383814
0.3715297843
0.3715442739
0.3715691006
0.3715970543
0.3716244731
0.3716497194
0.3716722244
0.3716919457
0.3717090653
0.3717238069
0.3717361977
0.3717452544
0.3718386996
0.3717982689
0.3717703615
0.3717538694
0.3717461057
0.3717443565
0.371746428
0.371750729
0.3717561798
0.3717620809
0.3717679964
0.3717736448
0.3717787593
0.3717826797
0.3719242425
0.3719054215
0.3718875181
0.3718718751
0.3718589631
0.3718487232
0.3718408366
0.3718349015
0.3718305215
0.371827349
0.3718250961
0.3718235336
0.3718224879
0.3718218647
0.3719486534
0.3719395665
0.3719291298
0.3719181065
0.3719071348
0.3718966721
0.3718870056
0.3718782834
0.3718705525
0.371863793
0.3718579469
0.3718529476
0.3718487864
0.3718457747
0.3719591252
0.3719549293
0.3719490892
0.3719418588
0.3719336456
0.3719248909
0.3719159913
0.3719072625
0.3718989278
0.3718911306
0.3718839486
0.371877414
0.3718715475
0.3718664424
0.3718626186
0.3719529534
0.3719438356
0.371932536
0.3719202476
0.3719080127
0.3718965453
0.3718862362
0.3718772278
0.3718695015
0.3718629518
0.3718574341
0.3718528002
0.3718489201
0.3718457331
0.3718434412
0.3719340316
0.3719112716
0.3718873782
0.3718657316
0.3718479756
0.3718344535
0.3718247789
0.3718182673
0.3718141879
0.3718118907
0.3718108446
0.3718106421
0.3718109756
0.371811599
0.3718122268
0.3718880003
0.371838703
0.3717982701
0.3717703617
0.3717538689
0.3717461049
0.3717443555
0.3717464266
0.3717507278
0.3717561785
0.37176208
0.371767995
0.3717736435
0.3717787579
0.3717826784
0.3718149409
0.3717434685
0.3717031716
0.3716858442
0.3716827673
0.3716877032
0.3716967201
0.3717074866
0.3717186732
0.3717295556
0.3717397615
0.3717491178
0.3717575388
0.3717648676
0.3717703525
0.3718880008
0.371838704
0.3717982716
0.3717703634
0.3717538707
0.3717461068
0.3717443573
0.3717464286
0.3717507297
0.3717561804
0.3717620819
0.371767997
0.3717736452
0.3717787598
0.3717826804
0.3719340313
0.371911271
0.3718873786
0.3718657326
0.3718479772
0.3718344554
0.3718247812
0.3718182695
0.3718141905
0.3718118928
0.3718108474
0.3718106447
0.3718109783
0.3718116015
0.3718122294
0.3719438346
0.3719325355
0.3719202477
0.3719080133
0.3718965466
0.3718862378
0.3718772293
0.3718695035
0.3718629537
0.3718574366
0.3718528026
0.3718489227
0.371845736
0.3718434441
0.3719549294
0.3719490892
0.3719418588
0.3719336458
0.3719248911
0.3719159925
0.3719072638
0.3718989293
0.3718911326
0.3718839508
0.3718774166
0.3718715504
0.3718664454
0.3718626219
0.3719614297
0.3719592056
0.3719559083
0.3719515146
0.371946125
0.3719399254
0.371933141
0.3719260008
0.371918713
0.3719114536
0.3719043631
0.3718975525
0.3718911284
0.3718852952
0.3718807911
0.3719590634
0.3719548388
0.3719490357
0.3719419556
0.371934024
0.3719256689
0.3719172508
0.371909039
0.3719012129
0.371893879
0.3718870893
0.3718808639
0.3718752181
0.3718702517
0.3718664986
0.371952953
0.3719438355
0.3719325357
0.3719202477
0.3719080129
0.371896546
0.3718862368
0.3718772284
0.3718695024
0.3718629526
0.371857435
0.3718528013
0.3718489213
0.3718457341
0.3718434422
0.3719415451
0.3719242438
0.3719054227
0.3718875186
0.3718718753
0.3718589633
0.3718487231
0.3718408365
0.3718349014
0.3718305216
0.3718273488
0.3718250955
0.3718235326
0.371822487
0.3718218635
0.3719296142
0.3719057219
0.3718830547
0.371863846
0.3718486053
0.3718370327
0.3718285419
0.371822507
0.3718183664
0.3718156535
0.3718139977
0.3718131095
0.3718127645
0.3718127768
0.3718129465
0.3719415454
0.3719242443
0.3719054234
0.3718875194
0.3718718762
0.3718589642
0.3718487238
0.3718408376
0.3718349025
0.371830523
0.3718273503
0.3718250969
0.371823534
0.3718224884
0.3718218648
0.3719529532
0.3719438357
0.3719325358
0.371920248
0.3719080136
0.3718965469
0.371886238
0.3718772298
0.3718695039
0.3718629541
0.3718574369
0.3718528032
0.3718489232
0.3718457362
0.3718434442
0.3719590636
0.3719548391
0.3719490358
0.3719419558
0.3719340246
0.3719256694
0.3719172519
0.3719090402
0.3719012142
0.3718938805
0.3718870911
0.3718808658
0.3718752203
0.3718702541
0.3718665009
0.3719592053
0.3719559081
0.3719515143
0.3719461253
0.371939926
0.3719331418
0.3719260014
0.3719187138
0.371911455
0.3719043648
0.3718975543
0.3718911305
0.3718852977
0.371880794
0.3719624576
0.3719611388
0.3719590859
0.3719561847
0.3719523979
0.3719477653
0.3719423886
0.3719364104
0.3719299945
0.3719233055
0.3719164998
0.3719097208
0.3719031223
0.3718969743
0.371892141
0.37196143
0.3719592059
0.3719559083
0.3719515144
0.3719461252
0.3719399254
0.3719331411
0.3719260008
0.3719187131
0.3719114542
0.3719043637
0.3718975529
0.3718911288
0.371885296
0.3718807918
0.3719591253
0.3719549298
0.3719490896
0.3719418592
0.371933646
0.3719248913
0.3719159922
0.3719072632
0.371898929
0.3718911319
0.3718839498
0.3718774157
0.3718715494
0.3718664441
0.3718626204
0.3719556581
0.3719486541
0.3719395674
0.3719291304
0.3719181073
0.3719071354
0.3718966727
0.3718870062
0.3718782836
0.3718705526
0.3718637928
0.3718579465
0.3718529473
0.3718487864
0.3718457743
0.3719530517
0.3719441645
0.3719332922
0.3719214275
0.3719094074
0.3718978375
0.3718871054
0.3718774222
0.3718688697
0.3718614413
0.3718550756
0.3718496822
0.3718451665
0.3718414857
0.3718388661
0.3719556581
0.371948654
0.3719395676
0.3719291309
0.3719181076
0.3719071355
0.371896673
0.3718870068
0.3718782845
0.3718705535
0.3718637939
0.3718579473
0.3718529483
0.3718487871
0.3718457755
0.3719591254
0.3719549298
0.3719490898
0.3719418596
0.3719336465
0.3719248919
0.3719159929
0.3719072641
0.37189893
0.3718911331
0.371883951
0.3718774171
0.3718715508
0.3718664455
0.3718626223
0.3719614296
0.3719592054
0.3719559084
0.3719515147
0.3719461254
0.3719399262
0.371933142
0.3719260015
0.3719187141
0.3719114551
0.3719043651
0.3718975544
0.3718911305
0.371885298
0.371880794
0.3719624576
0.3719611387
0.3719590858
0.371956185
0.3719523984
0.3719477658
0.3719423892
0.3719364114
0.3719299954
0.3719233066
0.3719165007
0.3719097222
0.371903124
0.3718969763
0.3718921435
)
;

boundaryField
{
    top
    {
        type            zeroGradient;
    }
    bottom
    {
        type            zeroGradient;
    }
    side-walls
    {
        type            zeroGradient;
    }
    inlet
    {
        type            zeroGradient;
    }
    outlet
    {
        type            zeroGradient;
    }
    procBoundary1to0
    {
        type            processor;
        value           nonuniform List<scalar> 
97
(
0.3719624576
0.3719624576
0.3719614298
0.3719591254
0.3719556584
0.3719530521
0.3719556582
0.3719591254
0.3719614297
0.3719624578
0.3719627432
0.3719590634
0.3719590634
0.3719590634
0.3719529534
0.3719415455
0.3719296155
0.3719415459
0.3719529536
0.3719590637
0.3719614298
0.3719617008
0.3719589965
0.3719340311
0.3719340311
0.3719340311
0.3718880011
0.3718149472
0.3718880035
0.3719340331
0.3719529535
0.3719591255
0.371960171
0.3719542209
0.3719333714
0.3717039167
0.3717039167
0.3717039167
0.3711871424
0.3717039306
0.3718880032
0.371941546
0.3719556583
0.3719590765
0.3719497055
0.3719101603
0.3717532979
0.3669431384
0.3669431384
0.3669431384
0.3711871425
0.3711871425
0.3718149468
0.3719296154
0.3719530522
0.371960171
0.3719542207
0.3719333711
0.371872645
0.3717532962
0.3718726463
0.3718879988
0.3718879988
0.3718879988
0.3719415453
0.3719556581
0.3719617009
0.3719589965
0.3719510583
0.3719333711
0.3719101606
0.3719333717
0.3719510586
0.3719529526
0.3719529526
0.3719529526
0.3719591253
0.3719627433
0.3719616787
0.3719589963
0.3719542204
0.3719497055
0.3719542208
0.3719589966
0.3719616788
0.3719614297
0.3719614297
0.3719614297
0.3719632145
0.3719627431
0.3719617006
0.3719601709
0.3719590766
0.3719601708
0.3719617008
0.3719627432
0.3719632145
)
;
    }
}


// ************************************************************************* //
