/*--------------------------------*- C++ -*----------------------------------*\
| =========                 |                                                 |
| \\      /  F ield         | OpenFOAM: The Open Source CFD Toolbox           |
|  \\    /   O peration     | Version:  4.x                                   |
|   \\  /    A nd           | Web:      www.OpenFOAM.org                      |
|    \\/     M anipulation  |                                                 |
\*---------------------------------------------------------------------------*/
FoamFile
{
    version     2.0;
    format      ascii;
    class       volScalarField;
    location    "7000";
    object      Cpv;
}
// * * * * * * * * * * * * * * * * * * * * * * * * * * * * * * * * * * * * * //

dimensions      [0 2 -2 -1 0 0 0];

internalField   nonuniform List<scalar> 
1174
(
1210.519186
1210.519366
1210.519595
1210.519915
1210.520282
1210.520735
1210.521206
1210.521738
1210.522299
1210.522862
1210.523422
1210.523989
1210.524482
1210.524872
1210.519009
1210.519291
1210.519661
1210.52009
1210.520613
1210.521162
1210.521733
1210.522322
1210.522915
1210.523475
1210.524026
1210.524559
1210.525057
1210.525423
1210.519355
1210.519828
1210.520418
1210.521104
1210.52184
1210.522558
1210.523273
1210.523963
1210.524606
1210.525178
1210.525741
1210.526223
1210.526639
1210.526969
1210.520006
1210.520738
1210.521577
1210.522482
1210.523381
1210.524232
1210.525049
1210.525735
1210.526364
1210.526919
1210.527407
1210.527815
1210.528125
1210.528362
1210.520881
1210.521759
1210.522729
1210.523732
1210.524652
1210.525537
1210.526355
1210.527075
1210.527696
1210.528221
1210.528654
1210.529026
1210.529339
1210.529559
1210.520695
1210.521421
1210.522298
1210.523204
1210.524099
1210.524984
1210.525779
1210.52648
1210.527137
1210.527698
1210.52817
1210.528565
1210.52892
1210.52917
1210.519345
1210.519826
1210.520426
1210.521084
1210.521808
1210.522514
1210.523229
1210.523898
1210.524524
1210.525118
1210.525643
1210.526153
1210.526565
1210.526863
1210.519374
1210.519646
1210.520008
1210.520439
1210.520961
1210.521521
1210.52212
1210.522708
1210.523328
1210.52391
1210.524466
1210.524976
1210.525434
1210.525806
1210.519603
1210.519793
1210.520013
1210.520325
1210.520698
1210.52114
1210.52162
1210.522134
1210.522677
1210.523252
1210.523799
1210.524342
1210.524846
1210.525231
1210.518845
1210.519029
1210.519278
1210.519673
1210.5201
1210.520608
1210.521174
1210.521754
1210.522349
1210.522962
1210.523556
1210.524097
1210.524611
1210.525102
1210.525474
1210.520064
1210.520555
1210.521142
1210.521779
1210.52247
1210.523166
1210.523844
1210.524499
1210.525076
1210.525625
1210.526148
1210.526586
1210.526996
1210.527296
1210.521241
1210.522161
1210.523201
1210.524179
1210.525124
1210.525959
1210.526717
1210.52737
1210.527921
1210.528363
1210.528729
1210.529046
1210.529284
1210.529459
1210.521888
1210.523441
1210.524911
1210.526185
1210.527252
1210.528096
1210.528735
1210.529203
1210.529558
1210.529835
1210.530043
1210.530153
1210.530257
1210.530287
1210.523812
1210.52566
1210.527218
1210.52847
1210.529439
1210.530135
1210.530647
1210.530984
1210.531218
1210.531342
1210.531373
1210.531428
1210.531451
1210.531434
1210.521778
1210.523321
1210.524791
1210.526077
1210.527132
1210.52795
1210.528584
1210.52907
1210.529439
1210.529703
1210.529907
1210.530033
1210.530094
1210.530131
1210.521558
1210.5225
1210.523503
1210.524513
1210.525458
1210.526288
1210.527037
1210.527679
1210.528175
1210.528608
1210.528948
1210.529286
1210.529541
1210.529716
1210.518836
1210.519308
1210.519916
1210.520551
1210.521229
1210.521917
1210.522593
1210.523238
1210.523856
1210.524409
1210.524942
1210.525407
1210.525797
1210.526109
1210.520191
1210.520468
1210.520835
1210.521274
1210.521769
1210.522317
1210.522869
1210.523455
1210.524062
1210.52464
1210.525197
1210.525725
1210.526196
1210.526594
1210.519119
1210.519468
1210.519964
1210.520564
1210.521227
1210.521954
1210.522657
1210.523385
1210.524056
1210.524701
1210.525268
1210.525796
1210.526282
1210.52673
1210.527049
1210.519616
1210.520367
1210.521292
1210.52229
1210.523305
1210.524241
1210.525079
1210.52582
1210.526463
1210.527
1210.527456
1210.527835
1210.52816
1210.52842
1210.5286
1210.52294
1210.524906
1210.526683
1210.528169
1210.52928
1210.530075
1210.530597
1210.530936
1210.53112
1210.531229
1210.531239
1210.531201
1210.531168
1210.531118
1210.529518
1210.532831
1210.535114
1210.536462
1210.537094
1210.537221
1210.537066
1210.536719
1210.53627
1210.535785
1210.535324
1210.534836
1210.534399
1210.534088
1210.536141
1210.539439
1210.540855
1210.541107
1210.540697
1210.539962
1210.539092
1210.538157
1210.537242
1210.536391
1210.535627
1210.534929
1210.534333
1210.5339
1210.529127
1210.532448
1210.534768
1210.536105
1210.536722
1210.536895
1210.536706
1210.536355
1210.535887
1210.535419
1210.534933
1210.534468
1210.534023
1210.5337
1210.523021
1210.52498
1210.526733
1210.528199
1210.529278
1210.530064
1210.530579
1210.53091
1210.53109
1210.531156
1210.531188
1210.531155
1210.531107
1210.531025
1210.521408
1210.522351
1210.52337
1210.524372
1210.525311
1210.526173
1210.526927
1210.527545
1210.528106
1210.528543
1210.52893
1210.529233
1210.529498
1210.529725
1210.518918
1210.519381
1210.519954
1210.520637
1210.521373
1210.52211
1210.522831
1210.523497
1210.524144
1210.524705
1210.525254
1210.525714
1210.526146
1210.526458
1210.519764
1210.520343
1210.521078
1210.521922
1210.522845
1210.523736
1210.524617
1210.525421
1210.526135
1210.526772
1210.527345
1210.527833
1210.528252
1210.528579
1210.52883
1210.521362
1210.522756
1210.524275
1210.525742
1210.527026
1210.528093
1210.52893
1210.529567
1210.530054
1210.530411
1210.530677
1210.53086
1210.53099
1210.531093
1210.531128
1210.524766
1210.528808
1210.532122
1210.534415
1210.535786
1210.536415
1210.53654
1210.536382
1210.53602
1210.5356
1210.535115
1210.534621
1210.534183
1210.533789
1210.533453
1210.549838
1210.554028
1210.554732
1210.553574
1210.551527
1210.549236
1210.547012
1210.544946
1210.543118
1210.541518
1210.540084
1210.53888
1210.537869
1210.53711
1210.590081
1210.58488
1210.576849
1210.569137
1210.562607
1210.55727
1210.552941
1210.54945
1210.546563
1210.544242
1210.542301
1210.540722
1210.539382
1210.538443
1210.549206
1210.553405
1210.554139
1210.552969
1210.550949
1210.548672
1210.546441
1210.544391
1210.54256
1210.540939
1210.539511
1210.538293
1210.537293
1210.536553
1210.529576
1210.532882
1210.535181
1210.536531
1210.537175
1210.537335
1210.537174
1210.536788
1210.536345
1210.535857
1210.535369
1210.534893
1210.534476
1210.534132
1210.521582
1210.523132
1210.524597
1210.525882
1210.526918
1210.527763
1210.528379
1210.528881
1210.529222
1210.529507
1210.529701
1210.529814
1210.529912
1210.52998
1210.520008
1210.52076
1210.521621
1210.522522
1210.523448
1210.524299
1210.525049
1210.52578
1210.526404
1210.526934
1210.527397
1210.52781
1210.528168
1210.528413
1210.519712
1210.520457
1210.521369
1210.52231
1210.523313
1210.524259
1210.525126
1210.525911
1210.526605
1210.527239
1210.527755
1210.5282
1210.528579
1210.528877
1210.529101
1210.521207
1210.523173
1210.525031
1210.526614
1210.527866
1210.528823
1210.52952
1210.530013
1210.530375
1210.530594
1210.530714
1210.530787
1210.530825
1210.530821
1210.530808
1210.530899
1210.536757
1210.540058
1210.541467
1210.541732
1210.541334
1210.54059
1210.539686
1210.538748
1210.537854
1210.537041
1210.536266
1210.53558
1210.534968
1210.5345
1210.582809
1210.589972
1210.584757
1210.576728
1210.569001
1210.562416
1210.557049
1210.552717
1210.549246
1210.546414
1210.544105
1210.542183
1210.540579
1210.539265
1210.538324
1210.0999
1210.011766
1209.962689
1209.933767
1209.915672
1209.903685
1209.895287
1209.889095
1209.884416
1209.880715
1209.877685
1209.875163
1209.873055
1209.871482
1210.589071
1210.583869
1210.575816
1210.568088
1210.561534
1210.556203
1210.551899
1210.548445
1210.545614
1210.543293
1210.541368
1210.539787
1210.538502
1210.537579
1210.537401
1210.540731
1210.542137
1210.542409
1210.542011
1210.541276
1210.540396
1210.539459
1210.538546
1210.537736
1210.536955
1210.536247
1210.535655
1210.535188
1210.523961
1210.525789
1210.527362
1210.528607
1210.529525
1210.530205
1210.530699
1210.531053
1210.5313
1210.531413
1210.531495
1210.531523
1210.531533
1210.531554
1210.521262
1210.522176
1210.523154
1210.524136
1210.525077
1210.525973
1210.526753
1210.527441
1210.528053
1210.528577
1210.528996
1210.529382
1210.529671
1210.52988
1210.519579
1210.520132
1210.520849
1210.521718
1210.522621
1210.523537
1210.524384
1210.525171
1210.525902
1210.526543
1210.527112
1210.52761
1210.528019
1210.528357
1210.528625
1210.520313
1210.521716
1210.523262
1210.524696
1210.525982
1210.527013
1210.527841
1210.528495
1210.528997
1210.529382
1210.52962
1210.529785
1210.529917
1210.529983
1210.529995
1210.525622
1210.529693
1210.533005
1210.535282
1210.536646
1210.5373
1210.537461
1210.537298
1210.536954
1210.536491
1210.53602
1210.535542
1210.535052
1210.534647
1210.534338
1210.539647
1210.549011
1210.553187
1210.553915
1210.552728
1210.55069
1210.548395
1210.546114
1210.54406
1210.542206
1210.540607
1210.539208
1210.538
1210.536974
1210.536221
1210.58276
1210.589928
1210.584724
1210.576695
1210.569002
1210.562459
1210.55708
1210.552761
1210.549278
1210.546413
1210.544059
1210.542136
1210.540546
1210.539208
1210.53828
1210.540383
1210.549747
1210.553941
1210.554674
1210.553478
1210.551427
1210.549129
1210.546882
1210.544823
1210.54298
1210.541374
1210.539987
1210.538783
1210.537763
1210.537011
1210.528555
1210.531861
1210.534155
1210.535512
1210.536143
1210.536309
1210.536112
1210.535759
1210.53529
1210.534774
1210.534305
1210.533858
1210.533459
1210.533105
1210.522691
1210.524236
1210.525714
1210.526955
1210.527989
1210.528831
1210.529462
1210.52994
1210.530258
1210.530542
1210.530736
1210.530883
1210.530969
1210.53101
1210.520639
1210.521346
1210.52222
1210.523114
1210.524005
1210.524865
1210.525658
1210.526363
1210.527007
1210.527566
1210.52807
1210.528484
1210.528802
1210.529035
1210.519454
1210.519798
1210.520278
1210.520891
1210.521571
1210.522294
1210.523021
1210.523728
1210.524432
1210.525093
1210.525688
1210.526214
1210.52668
1210.527125
1210.527411
1210.520305
1210.521052
1210.521988
1210.522971
1210.523954
1210.524902
1210.525762
1210.52648
1210.527112
1210.527655
1210.528113
1210.528461
1210.528805
1210.529069
1210.529267
1210.521101
1210.522961
1210.524911
1210.526682
1210.52814
1210.529261
1210.530061
1210.530611
1210.530927
1210.531128
1210.531208
1210.531217
1210.53118
1210.531155
1210.531098
1210.526071
1210.530095
1210.533412
1210.535695
1210.537039
1210.537671
1210.537813
1210.537662
1210.537336
1210.536901
1210.536416
1210.535913
1210.535456
1210.535027
1210.534707
1210.53027
1210.53615
1210.539466
1210.540877
1210.541141
1210.540746
1210.539996
1210.539122
1210.538198
1210.537321
1210.536467
1210.535718
1210.535022
1210.53443
1210.533999
1210.525119
1210.529157
1210.53245
1210.534733
1210.536099
1210.536731
1210.53686
1210.536706
1210.536347
1210.535901
1210.535406
1210.534916
1210.534444
1210.534036
1210.533707
1210.52196
1210.523832
1210.525801
1210.527587
1210.529021
1210.530135
1210.530941
1210.531483
1210.531811
1210.531999
1210.532086
1210.532089
1210.532077
1210.532002
1210.531961
1210.519976
1210.520915
1210.521954
1210.522941
1210.523862
1210.524703
1210.525441
1210.526027
1210.526581
1210.527033
1210.527409
1210.527711
1210.527952
1210.528171
1210.5193
1210.519778
1210.520354
1210.521023
1210.521731
1210.522474
1210.523202
1210.523869
1210.524516
1210.525112
1210.525651
1210.526134
1210.526541
1210.526853
1210.518822
1210.518995
1210.51929
1210.519666
1210.520111
1210.520604
1210.521166
1210.52176
1210.522334
1210.52295
1210.523521
1210.52407
1210.524592
1210.525071
1210.525453
1210.51896
1210.519274
1210.51975
1210.520333
1210.52099
1210.521692
1210.52237
1210.523053
1210.523712
1210.524317
1210.52486
1210.525373
1210.525846
1210.526252
1210.526564
1210.519869
1210.520593
1210.52151
1210.522536
1210.523527
1210.524478
1210.525326
1210.526061
1210.526689
1210.527239
1210.527698
1210.528072
1210.528388
1210.528662
1210.528851
1210.520956
1210.522338
1210.523894
1210.525371
1210.526654
1210.527709
1210.528544
1210.529195
1210.529671
1210.530043
1210.530289
1210.530435
1210.530563
1210.530648
1210.53068
1210.521906
1210.523881
1210.525745
1210.527308
1210.528562
1210.529476
1210.530185
1210.53068
1210.531001
1210.53119
1210.531338
1210.53141
1210.531472
1210.531452
1210.531438
1210.520074
1210.5215
1210.523034
1210.524499
1210.525775
1210.526832
1210.527699
1210.528327
1210.528803
1210.529193
1210.529451
1210.529642
1210.529756
1210.529847
1210.529883
1210.51978
1210.520534
1210.521431
1210.522444
1210.523433
1210.524369
1210.525215
1210.525963
1210.526597
1210.527145
1210.527591
1210.527967
1210.528284
1210.528548
1210.528722
1210.518667
1210.519023
1210.519505
1210.520081
1210.520744
1210.521415
1210.522085
1210.522775
1210.523421
1210.524033
1210.524589
1210.525103
1210.525556
1210.525953
1210.526263
1210.5195
1210.519774
1210.520131
1210.520569
1210.521091
1210.521647
1210.522209
1210.522792
1210.523394
1210.523975
1210.524535
1210.525065
1210.525537
1210.525892
1210.519227
1210.519364
1210.51951
1210.519753
1210.520038
1210.520435
1210.520879
1210.521365
1210.521927
1210.522487
1210.523056
1210.52362
1210.52417
1210.524662
1210.525034
1210.518982
1210.519173
1210.519427
1210.519776
1210.520204
1210.52069
1210.521267
1210.521849
1210.522478
1210.523086
1210.523686
1210.524247
1210.524768
1210.525263
1210.525608
1210.519669
1210.520021
1210.520498
1210.521069
1210.521758
1210.522484
1210.523216
1210.52394
1210.52464
1210.525245
1210.52583
1210.526351
1210.526841
1210.527249
1210.527545
1210.518181
1210.518777
1210.519523
1210.520387
1210.521277
1210.522189
1210.523049
1210.523828
1210.524548
1210.525169
1210.525726
1210.526195
1210.526609
1210.526956
1210.527208
1210.51891
1210.519624
1210.52051
1210.521477
1210.522452
1210.523388
1210.52427
1210.525058
1210.52576
1210.526367
1210.526928
1210.527361
1210.527727
1210.52804
1210.528248
1210.519482
1210.520058
1210.520804
1210.521658
1210.522562
1210.523447
1210.524303
1210.525081
1210.525807
1210.526437
1210.527023
1210.527499
1210.527919
1210.528257
1210.528505
1210.519167
1210.519513
1210.519995
1210.520585
1210.521256
1210.521973
1210.522682
1210.523392
1210.52407
1210.524712
1210.525328
1210.525876
1210.526351
1210.526775
1210.527116
1210.518851
1210.519026
1210.519301
1210.519669
1210.520097
1210.520624
1210.521201
1210.521755
1210.522377
1210.522971
1210.523546
1210.524087
1210.524614
1210.525094
1210.525474
1210.518907
1210.519029
1210.519182
1210.519414
1210.519714
1210.52011
1210.520555
1210.521041
1210.521564
1210.522102
1210.522648
1210.523211
1210.52377
1210.524278
1210.524684
)
;

boundaryField
{
    top
    {
        type            calculated;
        value           nonuniform List<scalar> 
127
(
1210.518907
1210.519603
1210.520191
1210.518918
1210.520008
1210.521262
1210.520639
1210.5193
1210.5195
1210.519029
1210.519793
1210.520468
1210.519381
1210.52076
1210.522176
1210.521346
1210.519778
1210.519774
1210.519182
1210.520013
1210.520835
1210.519954
1210.521621
1210.523154
1210.52222
1210.520354
1210.520131
1210.519414
1210.520325
1210.521274
1210.520637
1210.522522
1210.524136
1210.523114
1210.521023
1210.520569
1210.519714
1210.520698
1210.521769
1210.521373
1210.523448
1210.525077
1210.524005
1210.521731
1210.521091
1210.52011
1210.52114
1210.522317
1210.52211
1210.524299
1210.525973
1210.524865
1210.522474
1210.521647
1210.520555
1210.52162
1210.522869
1210.522831
1210.525049
1210.526753
1210.525658
1210.523202
1210.522209
1210.521041
1210.522134
1210.523455
1210.523497
1210.52578
1210.527441
1210.526363
1210.523869
1210.522792
1210.521564
1210.522677
1210.524062
1210.524144
1210.526404
1210.528053
1210.527007
1210.524516
1210.523394
1210.522102
1210.523252
1210.52464
1210.524705
1210.526934
1210.528577
1210.527566
1210.525112
1210.523975
1210.522648
1210.523799
1210.525197
1210.525254
1210.527397
1210.528996
1210.52807
1210.525651
1210.524535
1210.523211
1210.524342
1210.525725
1210.525714
1210.52781
1210.529382
1210.528484
1210.526134
1210.525065
1210.52377
1210.524846
1210.526196
1210.526146
1210.528168
1210.529671
1210.528802
1210.526541
1210.525537
1210.524278
1210.525231
1210.526594
1210.526458
1210.528413
1210.52988
1210.529035
1210.526853
1210.525892
1210.524684
)
;
    }
    bottom
    {
        type            calculated;
        value           nonuniform List<scalar> 
134
(
1210.518845
1210.519119
1210.519764
1210.519712
1210.519579
1210.519454
1210.518822
1210.519227
1210.519186
1210.519029
1210.519468
1210.520343
1210.520457
1210.520132
1210.519798
1210.518995
1210.519364
1210.519366
1210.519278
1210.519964
1210.521078
1210.521369
1210.520849
1210.520278
1210.51929
1210.51951
1210.519595
1210.519673
1210.520564
1210.521922
1210.52231
1210.521718
1210.520891
1210.519666
1210.519753
1210.519915
1210.5201
1210.521227
1210.522845
1210.523313
1210.522621
1210.521571
1210.520111
1210.520038
1210.520282
1210.520608
1210.521954
1210.523736
1210.524259
1210.523537
1210.522294
1210.520604
1210.520435
1210.520735
1210.521174
1210.522657
1210.524617
1210.525126
1210.524384
1210.523021
1210.521166
1210.520879
1210.521206
1210.521754
1210.523385
1210.525421
1210.525911
1210.525171
1210.523728
1210.52176
1210.521365
1210.521738
1210.522349
1210.524056
1210.526135
1210.526605
1210.525902
1210.524432
1210.522334
1210.521927
1210.522299
1210.522962
1210.524701
1210.526772
1210.527239
1210.526543
1210.525093
1210.52295
1210.522487
1210.522862
1210.523556
1210.525268
1210.527345
1210.527755
1210.527112
1210.525688
1210.523521
1210.523056
1210.523422
1210.524097
1210.525796
1210.527833
1210.5282
1210.52761
1210.526214
1210.52407
1210.52362
1210.523989
1210.524611
1210.526282
1210.528252
1210.528579
1210.528019
1210.52668
1210.524592
1210.52417
1210.524482
1210.525102
1210.52673
1210.528579
1210.528877
1210.528357
1210.527125
1210.525071
1210.524662
1210.524872
1210.525474
1210.527049
1210.52883
1210.529101
1210.528625
1210.527411
1210.525453
1210.525034
)
;
    }
    side-walls
    {
        type            calculated;
        value           nonuniform List<scalar> 
261
(
1210.519186
1210.519009
1210.519355
1210.520006
1210.520881
1210.520695
1210.519345
1210.519374
1210.519603
1210.519366
1210.519291
1210.519828
1210.520738
1210.521759
1210.521421
1210.519826
1210.519646
1210.519793
1210.519595
1210.519661
1210.520418
1210.521577
1210.522729
1210.522298
1210.520426
1210.520008
1210.520013
1210.519915
1210.52009
1210.521104
1210.522482
1210.523732
1210.523204
1210.521084
1210.520439
1210.520325
1210.520282
1210.520613
1210.52184
1210.523381
1210.524652
1210.524099
1210.521808
1210.520961
1210.520698
1210.520735
1210.521162
1210.522558
1210.524232
1210.525537
1210.524984
1210.522514
1210.521521
1210.52114
1210.521206
1210.521733
1210.523273
1210.525049
1210.526355
1210.525779
1210.523229
1210.52212
1210.52162
1210.521738
1210.522322
1210.523963
1210.525735
1210.527075
1210.52648
1210.523898
1210.522708
1210.522134
1210.522299
1210.522915
1210.524606
1210.526364
1210.527696
1210.527137
1210.524524
1210.523328
1210.522677
1210.522862
1210.523475
1210.525178
1210.526919
1210.528221
1210.527698
1210.525118
1210.52391
1210.523252
1210.523422
1210.524026
1210.525741
1210.527407
1210.528654
1210.52817
1210.525643
1210.524466
1210.523799
1210.523989
1210.524559
1210.526223
1210.527815
1210.529026
1210.528565
1210.526153
1210.524976
1210.524342
1210.524482
1210.525057
1210.526639
1210.528125
1210.529339
1210.52892
1210.526565
1210.525434
1210.524846
1210.524872
1210.525423
1210.526969
1210.528362
1210.529559
1210.52917
1210.526863
1210.525806
1210.525231
1210.519227
1210.518982
1210.519669
1210.518181
1210.51891
1210.519482
1210.519167
1210.518851
1210.518907
1210.519364
1210.519173
1210.520021
1210.518777
1210.519624
1210.520058
1210.519513
1210.519026
1210.519029
1210.51951
1210.519427
1210.520498
1210.519523
1210.52051
1210.520804
1210.519995
1210.519301
1210.519182
1210.519753
1210.519776
1210.521069
1210.520387
1210.521477
1210.521658
1210.520585
1210.519669
1210.519414
1210.520038
1210.520204
1210.521758
1210.521277
1210.522452
1210.522562
1210.521256
1210.520097
1210.519714
1210.520435
1210.52069
1210.522484
1210.522189
1210.523388
1210.523447
1210.521973
1210.520624
1210.52011
1210.520879
1210.521267
1210.523216
1210.523049
1210.52427
1210.524303
1210.522682
1210.521201
1210.520555
1210.521365
1210.521849
1210.52394
1210.523828
1210.525058
1210.525081
1210.523392
1210.521755
1210.521041
1210.521927
1210.522478
1210.52464
1210.524548
1210.52576
1210.525807
1210.52407
1210.522377
1210.521564
1210.522487
1210.523086
1210.525245
1210.525169
1210.526367
1210.526437
1210.524712
1210.522971
1210.522102
1210.523056
1210.523686
1210.52583
1210.525726
1210.526928
1210.527023
1210.525328
1210.523546
1210.522648
1210.52362
1210.524247
1210.526351
1210.526195
1210.527361
1210.527499
1210.525876
1210.524087
1210.523211
1210.52417
1210.524768
1210.526841
1210.526609
1210.527727
1210.527919
1210.526351
1210.524614
1210.52377
1210.524662
1210.525263
1210.527249
1210.526956
1210.52804
1210.528257
1210.526775
1210.525094
1210.524278
1210.525034
1210.525608
1210.527545
1210.527208
1210.528248
1210.528505
1210.527116
1210.525474
1210.524684
)
;
    }
    inlet
    {
        type            calculated;
        value           nonuniform 0();
    }
    outlet
    {
        type            calculated;
        value           nonuniform List<scalar> 
81
(
1210.524872
1210.525423
1210.526969
1210.528362
1210.529559
1210.52917
1210.526863
1210.525806
1210.525231
1210.525474
1210.527296
1210.529459
1210.530287
1210.531434
1210.530131
1210.529716
1210.526109
1210.526594
1210.527049
1210.5286
1210.531118
1210.534088
1210.5339
1210.5337
1210.531025
1210.529725
1210.526458
1210.52883
1210.531128
1210.533453
1210.53711
1210.538443
1210.536553
1210.534132
1210.52998
1210.528413
1210.529101
1210.530808
1210.5345
1210.538324
1209.871482
1210.537579
1210.535188
1210.531554
1210.52988
1210.528625
1210.529995
1210.534338
1210.536221
1210.53828
1210.537011
1210.533105
1210.53101
1210.529035
1210.527411
1210.529267
1210.531098
1210.534707
1210.533999
1210.533707
1210.531961
1210.528171
1210.526853
1210.525453
1210.526564
1210.528851
1210.53068
1210.531438
1210.529883
1210.528722
1210.526263
1210.525892
1210.525034
1210.525608
1210.527545
1210.527208
1210.528248
1210.528505
1210.527116
1210.525474
1210.524684
)
;
    }
    procBoundary1to0
    {
        type            processor;
        value           nonuniform List<scalar> 
97
(
1210.519085
1210.519085
1210.518843
1210.519018
1210.519436
1210.520144
1210.520123
1210.519017
1210.519171
1210.519504
1210.518739
1210.519729
1210.519729
1210.519729
1210.520516
1210.520458
1210.521834
1210.520352
1210.520809
1210.518456
1210.520003
1210.518904
1210.519124
1210.521064
1210.521064
1210.521064
1210.525459
1210.530263
1210.525067
1210.521171
1210.52068
1210.518591
1210.519386
1210.520318
1210.521024
1210.540443
1210.540443
1210.540443
1210.582892
1210.539784
1210.52556
1210.520163
1210.51942
1210.519233
1210.519551
1210.523088
1210.536758
1210.266694
1210.266694
1210.266694
1210.581877
1210.581877
1210.531535
1210.52201
1210.52053
1210.519206
1210.519288
1210.521903
1210.525805
1210.536719
1210.526553
1210.524521
1210.524521
1210.524521
1210.521286
1210.520067
1210.519244
1210.519808
1210.519683
1210.522334
1210.522458
1210.521415
1210.520532
1210.519237
1210.519237
1210.519237
1210.518966
1210.518713
1210.518728
1210.519383
1210.519916
1210.520255
1210.519022
1210.519271
1210.518471
1210.519323
1210.519323
1210.519323
1210.519176
1210.51887
1210.519469
1210.51784
1210.518411
1210.51913
1210.518962
1210.518745
1210.518818
)
;
    }
}


// ************************************************************************* //
