/*--------------------------------*- C++ -*----------------------------------*\
| =========                 |                                                 |
| \\      /  F ield         | OpenFOAM: The Open Source CFD Toolbox           |
|  \\    /   O peration     | Version:  4.x                                   |
|   \\  /    A nd           | Web:      www.OpenFOAM.org                      |
|    \\/     M anipulation  |                                                 |
\*---------------------------------------------------------------------------*/
FoamFile
{
    version     2.0;
    format      ascii;
    class       volScalarField;
    location    "7000";
    object      molarConc;
}
// * * * * * * * * * * * * * * * * * * * * * * * * * * * * * * * * * * * * * //

dimensions      [0 -3 0 0 1 0 0];

internalField   nonuniform List<scalar> 
1174
(
9.963276339
9.963275676
9.963276168
9.963275629
9.963276283
9.963275607
9.963276655
9.963276265
9.963275558
9.963275283
9.963275015
9.963273579
9.963274159
9.963274485
9.963294696
9.963294019
9.963293499
9.963294169
9.963293343
9.96329371
9.963294493
9.963294883
9.963295023
9.963296165
9.963296536
9.963296181
9.963295068
9.963295216
9.963294937
9.963295224
9.963295339
9.96329459
9.963293569
9.963294177
9.963294207
9.96329378
9.963293525
9.963294422
9.963292931
9.963292833
9.963293004
9.963292086
9.963287417
9.96328808
9.963288989
9.963288831
9.963288832
9.963289187
9.963287809
9.963289351
9.963289588
9.963289496
9.963289026
9.963289137
9.963290799
9.963291344
9.963259655
9.963260331
9.9632604
9.963259425
9.96326091
9.963260591
9.963259232
9.963258186
9.963257525
9.963257345
9.963257812
9.963257708
9.963257072
9.963256763
9.963249696
9.963250664
9.963249461
9.963249306
9.963249533
9.963247993
9.9632478
9.963248541
9.963247221
9.963246843
9.963247215
9.963248012
9.963247254
9.963247102
9.96329549
9.963295327
9.963294917
9.963295727
9.96329534
9.963296609
9.963296571
9.963297345
9.963298053
9.963297746
9.963298317
9.963296689
9.963297
9.963297858
9.963274683
9.963274603
9.96327447
9.963275028
9.963274295
9.963274051
9.963273266
9.963273738
9.963272363
9.963272294
9.963272414
9.963273303
9.963274376
9.963274248
9.963253476
9.963252313
9.963253264
9.963253145
9.963253512
9.963253427
9.963253982
9.963254599
9.963254845
9.963253908
9.963254354
9.963254217
9.963254197
9.963254793
9.963293699
9.96329362
9.963294754
9.96329283
9.963293645
9.963293625
9.963293031
9.963293332
9.963293416
9.96329244
9.963291707
9.963292647
9.963293298
9.963292585
9.963292444
9.963256499
9.963255648
9.963255278
9.96325595
9.963255586
9.963255238
9.96325493
9.963254186
9.963255465
9.963255876
9.963255162
9.963256526
9.963256372
9.963256731
9.963241402
9.963241697
9.963239854
9.963241179
9.963240889
9.963241398
9.963240313
9.963239197
9.963238377
9.963238925
9.963239678
9.963239746
9.963241036
9.963241729
9.963293834
9.963293186
9.96329299
9.963293413
9.963292876
9.963292602
9.963293021
9.963294
9.963294206
9.96329331
9.963292034
9.963293043
9.963292019
9.96329319
9.963271564
9.963272034
9.96327284
9.963272659
9.963271484
9.963271468
9.963270534
9.963270627
9.96327002
9.963270647
9.963272956
9.963271483
9.963270164
9.963270343
9.963299857
9.963299799
9.963299584
9.963299339
9.963299469
9.963300586
9.963301295
9.963301299
9.963300723
9.963300531
9.963299451
9.963299587
9.96330095
9.963301709
9.963224035
9.963223135
9.963223298
9.963222904
9.963222577
9.963223384
9.963222735
9.96322223
9.963224494
9.963225527
9.963227716
9.963226623
9.963226956
9.963227666
9.963323776
9.96332392
9.96332238
9.963323187
9.963323572
9.963323623
9.963323435
9.963323255
9.963322273
9.963322443
9.963321213
9.963321066
9.963322023
9.96332178
9.963229977
9.963229558
9.96322918
9.963229301
9.963230004
9.96323042
9.963232247
9.963232829
9.963232147
9.963232348
9.96323236
9.963232268
9.963232658
9.963231084
9.963289051
9.963288746
9.963287759
9.963287363
9.963287896
9.963287333
9.96328878
9.963288052
9.963288684
9.963288362
9.963289493
9.963289938
9.9632896
9.963288008
9.96328771
9.963289473
9.963289282
9.963289302
9.963289767
9.963289044
9.96328922
9.96328957
9.96328942
9.963288872
9.963288832
9.963288647
9.963288674
9.96328827
9.963288339
9.963288748
9.963294428
9.963293937
9.963293712
9.963291966
9.963291739
9.963291627
9.963292244
9.963292011
9.963292254
9.963290981
9.963291328
9.963291953
9.963290951
9.963290923
9.963259633
9.96325959
9.963259729
9.963259879
9.963260115
9.963260984
9.963260222
9.963259953
9.963260122
9.9632602
9.963258932
9.96326032
9.963261311
9.963260795
9.963324044
9.963324194
9.963324372
9.963324403
9.963324728
9.963324552
9.963323911
9.963324944
9.963326278
9.963327139
9.963326993
9.96332745
9.963327241
9.963326393
9.963281061
9.963280522
9.963278642
9.963279413
9.963280455
9.963278838
9.963279919
9.963279877
9.963281059
9.963280258
9.96328034
9.963280474
9.963281895
9.963282049
9.963289953
9.963289872
9.963290965
9.963290319
9.963291864
9.963292224
9.963293251
9.963293433
9.963293845
9.963294937
9.963294104
9.963294424
9.963294275
9.963295981
9.963232263
9.963231269
9.963230591
9.963230581
9.963230593
9.963229645
9.963228773
9.963229616
9.96322826
9.96322906
9.963228682
9.963229491
9.963229287
9.963227162
9.963318857
9.963319714
9.963320734
9.963320171
9.963319156
9.96331868
9.963318382
9.963319307
9.963318824
9.963320345
9.963319583
9.9633207
9.963319973
9.963320028
9.963269244
9.963268967
9.963269488
9.963270054
9.963268956
9.96326937
9.963268063
9.963267431
9.963267463
9.96326722
9.963266204
9.963265688
9.963265169
9.96326597
9.963265726
9.963245049
9.963246284
9.96324756
9.963247503
9.963247373
9.963246833
9.963246922
9.963247435
9.963247406
9.963247488
9.963247175
9.963247263
9.963247169
9.963246234
9.963247141
9.963298803
9.963298511
9.963298381
9.963297987
9.963296873
9.963297293
9.963298291
9.963297689
9.963298197
9.963296813
9.96329687
9.963297416
9.963296084
9.963294761
9.963295553
9.963264501
9.963264303
9.963264332
9.963262798
9.963263558
9.963263653
9.963262495
9.96326243
9.963261643
9.963260787
9.96326256
9.963262382
9.963262215
9.96326313
9.963257989
9.963258106
9.963258427
9.963258703
9.963257385
9.963256661
9.963257322
9.963257446
9.96326014
9.963259784
9.963260578
9.963259381
9.963260972
9.96326074
9.963299051
9.963298373
9.963296762
9.963295862
9.963295159
9.963294541
9.96329376
9.96329283
9.963292142
9.963292471
9.963293924
9.963294515
9.963293731
9.963293625
9.963256463
9.963256758
9.963256025
9.963256082
9.963255644
9.963254736
9.963254262
9.963256131
9.963255978
9.963256245
9.963256452
9.963257158
9.963257086
9.963258352
9.96331059
9.963310145
9.963310199
9.963310013
9.963311205
9.963310814
9.963312502
9.963311639
9.963312605
9.963311209
9.963310747
9.963311545
9.963310872
9.963309974
9.963287295
9.963286901
9.96328655
9.963286662
9.963285158
9.963285465
9.963287786
9.963286866
9.963287364
9.963288669
9.963289523
9.963289354
9.963288422
9.96328854
9.963283817
9.963282882
9.963281692
9.963283344
9.963282369
9.963282445
9.96328309
9.963283589
9.963283951
9.963282544
9.963282837
9.963282677
9.96328216
9.963282352
9.963281865
9.96330706
9.963306519
9.963306429
9.963305935
9.963305715
9.963305228
9.963305136
9.96330522
9.963303996
9.963304182
9.963305013
9.963305039
9.963304522
9.963304685
9.963304649
9.963290569
9.963290277
9.963290249
9.963290849
9.96329013
9.963289845
9.963290138
9.963291386
9.963292578
9.963292742
9.963291514
9.96329202
9.963291838
9.963292463
9.963293504
9.963263362
9.963263908
9.963264834
9.96326506
9.963266182
9.963267841
9.96326876
9.963269569
9.963268605
9.96326833
9.963267255
9.96326703
9.963267195
9.963267351
9.963267252
9.999598926
9.999626284
9.999653656
9.999679019
9.999704135
9.9997286
9.999753679
9.999780035
9.999802672
9.999825382
9.999849223
9.999873242
9.999897557
9.999919174
9.963313286
9.963313436
9.963314912
9.963316122
9.963316111
9.96331507
9.963314357
9.963312442
9.963312099
9.963311681
9.963311633
9.963310566
9.963309127
9.963308026
9.963255058
9.96325339
9.963254104
9.963253018
9.963252696
9.963252552
9.963252469
9.963253599
9.963254838
9.963253418
9.963254213
9.963255282
9.963254814
9.963255791
9.963263362
9.963264922
9.963264941
9.963265133
9.963266758
9.963267613
9.963267655
9.963266816
9.963265478
9.963266737
9.963266223
9.96326626
9.963265659
9.963263733
9.963238791
9.963237508
9.96323715
9.963237279
9.963237665
9.963236685
9.963237424
9.963238142
9.963237912
9.963237804
9.963239035
9.963238149
9.963238845
9.963239143
9.963279398
9.963280544
9.963282019
9.963281264
9.963281207
9.963280285
9.963280859
9.963281089
9.963280194
9.963279798
9.963278948
9.963277881
9.963277931
9.963278097
9.963276933
9.963302473
9.963303251
9.963303008
9.96330481
9.963304519
9.963305987
9.963306599
9.963306132
9.963305293
9.963303825
9.963305068
9.96330616
9.963305954
9.963307017
9.963309156
9.963251891
9.963250018
9.963250022
9.963250486
9.963249751
9.963248783
9.963247845
9.963247462
9.963247046
9.963247991
9.963247317
9.963246963
9.963248458
9.963247709
9.963247096
9.963309352
9.963309689
9.963310288
9.963308998
9.963309075
9.963309341
9.963309678
9.96331163
9.963310896
9.963311512
9.963310664
9.96331053
9.963310576
9.963311192
9.963311806
9.963266054
9.963266317
9.963266571
9.963266763
9.963266073
9.963265443
9.963267027
9.96326713
9.963266832
9.963268348
9.963269767
9.963269577
9.96326899
9.963270455
9.96326967
9.963269073
9.963269406
9.963268963
9.963267403
9.963267963
9.963268937
9.963269432
9.963269559
9.963269104
9.963269125
9.963268669
9.963267808
9.963267657
9.963267973
9.963268542
9.963312407
9.963312684
9.96331222
9.963311864
9.963312119
9.963310893
9.96331241
9.963312444
9.963313714
9.963315499
9.963314701
9.963313867
9.963312779
9.963314577
9.963249883
9.963249656
9.963249026
9.963251199
9.963252515
9.963252308
9.963253135
9.963253632
9.96325584
9.963254532
9.963254043
9.96325298
9.963252991
9.963253564
9.963252738
9.96325478
9.963253756
9.963254221
9.963254668
9.963254498
9.963254428
9.963254939
9.963254363
9.96325406
9.96325268
9.963252423
9.963253713
9.963254439
9.963270667
9.963270677
9.963270583
9.963269457
9.963269024
9.963268686
9.963268834
9.963269277
9.963268096
9.963266876
9.963266524
9.963267023
9.963267842
9.963266339
9.963267853
9.963251753
9.963251749
9.963251189
9.963252475
9.963253515
9.963253023
9.963252183
9.963253254
9.96325332
9.963252923
9.963252598
9.963254369
9.963252907
9.963252792
9.963252215
9.963293041
9.963293253
9.963293608
9.96329371
9.963293542
9.963292779
9.963292384
9.963291493
9.963292471
9.963291771
9.963292082
9.963292518
9.963293063
9.963291636
9.96329195
9.963227276
9.963228034
9.963227724
9.963227873
9.963228259
9.963228456
9.963228564
9.963227557
9.963226116
9.96322551
9.96322561
9.96322664
9.963226318
9.963226922
9.963226875
9.963324986
9.963323541
9.963322677
9.963323081
9.963322439
9.963321988
9.963322625
9.963322199
9.963322687
9.963321889
9.963322911
9.963321964
9.963322324
9.963321928
9.963320923
9.963279455
9.96327939
9.963280372
9.963280518
9.963279711
9.963279898
9.963280717
9.963279845
9.963280267
9.963280235
9.963280897
9.963281194
9.963281727
9.963281162
9.963281587
9.963246009
9.963245562
9.963244872
9.963244157
9.963245258
9.963244922
9.963244137
9.963243686
9.963244025
9.963244069
9.963243996
9.963244723
9.963243916
9.963245222
9.963244701
9.963310668
9.963309939
9.963308147
9.963308967
9.963309984
9.963310123
9.963310122
9.963312688
9.963311778
9.963311777
9.963311942
9.963312802
9.963313906
9.963312243
9.963297953
9.96329794
9.963298856
9.963299042
9.963299523
9.963298773
9.963298057
9.963298894
9.963298422
9.963298024
9.963297826
9.963297677
9.963298309
9.963298368
9.963294972
9.963295448
9.963294077
9.963293191
9.963293003
9.96329383
9.963293477
9.963293002
9.963294223
9.963293088
9.963293627
9.963294082
9.963294321
9.963294274
9.963293556
9.963298044
9.963299795
9.963299747
9.963299549
9.96329918
9.963298208
9.963298832
9.963298257
9.963297281
9.963297052
9.963297742
9.963297604
9.96329702
9.963297084
9.963296822
9.963275642
9.963276907
9.963277373
9.963276261
9.963276903
9.963276258
9.963276019
9.963276187
9.963276486
9.963275718
9.96327537
9.96327565
9.963275764
9.963275041
9.963275012
9.963267305
9.963269178
9.9632684
9.963267794
9.963267715
9.963267828
9.963268042
9.963267808
9.963268325
9.963267611
9.963268386
9.963270511
9.96327051
9.963270583
9.963271624
9.963268758
9.963267771
9.963267307
9.963267883
9.963267599
9.963269435
9.963268707
9.963268657
9.963269666
9.963271518
9.963270837
9.963270862
9.963269044
9.963270065
9.963270088
9.963315562
9.963315085
9.963315498
9.963315552
9.963315869
9.963315897
9.963314336
9.963315313
9.963315884
9.963314158
9.963314276
9.963313909
9.963314708
9.963314414
9.963315272
9.963280503
9.963280098
9.963281682
9.963281284
9.963282006
9.963282209
9.96328213
9.963281569
9.963281462
9.963280844
9.963281208
9.963281416
9.963281464
9.963281286
9.963282058
9.96331405
9.963313511
9.963313176
9.963313344
9.963312627
9.963313356
9.963314395
9.963313488
9.963313216
9.963312599
9.963312603
9.963312355
9.963312902
9.963313419
9.963313285
9.963267797
9.963267608
9.963267721
9.963267918
9.963267156
9.963267114
9.963268388
9.963269124
9.963268746
9.963268735
9.963268631
9.963268418
9.963268697
9.96326949
9.963268184
9.963266557
9.963267783
9.963267525
9.96326886
9.96326794
9.963267736
9.963267945
9.963265919
9.963265249
9.963264611
9.963264152
9.963263632
9.963264298
9.963265585
9.963286207
9.963285698
9.963286609
9.963287173
9.963287899
9.963289116
9.963287971
9.963288118
9.963286328
9.963285591
9.96328454
9.963284375
9.963284706
9.963283721
9.963285076
9.963258897
9.963258422
9.963258514
9.963259675
9.963258811
9.963258301
9.963258139
9.963257641
9.963256712
9.96325851
9.963258726
9.963259478
9.963259001
9.963259538
9.96326047
9.963355973
9.963354748
9.963354649
9.963354119
9.96335481
9.963354093
9.963353923
9.96335463
9.963354347
9.963355024
9.963354846
9.963355345
9.963355146
9.963354805
9.96335449
9.963327738
9.963328488
9.963328712
9.963328965
9.963329506
9.963330156
9.963329993
9.963330273
9.963330162
9.963330232
9.963328106
9.963328567
9.963328804
9.963328192
9.963328524
9.963284708
9.963284549
9.963284466
9.963284507
9.963284473
9.963285192
9.963285273
9.963285998
9.963285381
9.963285528
9.963283792
9.963283918
9.963283376
9.963283532
9.963283444
9.96328639
9.963286296
9.963286068
9.963286211
9.963286299
9.96328629
9.963287381
9.963287655
9.963287889
9.963287689
9.963286188
9.963285472
9.963285784
9.963285489
9.963283994
9.963293372
9.963293754
9.963293495
9.963293045
9.963293764
9.963292705
9.963291545
9.963293223
9.963291872
9.963291891
9.963292223
9.963293155
9.963293086
9.963293002
9.963292378
9.963285687
9.963284952
9.963285777
9.963286049
9.963286643
9.963285714
9.963285466
9.963285653
9.96328582
9.963286325
9.963286962
9.963286558
9.963285526
9.963285297
9.963284737
)
;

boundaryField
{
    top
    {
        type            calculated;
        value           nonuniform List<scalar> 
127
(
9.963285687
9.963253476
9.963229977
9.963318857
9.963287295
9.963238791
9.963252738
9.963297953
9.963267797
9.963284952
9.963252313
9.963229558
9.963319714
9.963286901
9.963237508
9.96325478
9.96329794
9.963267608
9.963285777
9.963253264
9.96322918
9.963320734
9.96328655
9.96323715
9.963253756
9.963298856
9.963267721
9.963286049
9.963253145
9.963229301
9.963320171
9.963286662
9.963237279
9.963254221
9.963299042
9.963267918
9.963286643
9.963253512
9.963230004
9.963319156
9.963285158
9.963237665
9.963254668
9.963299523
9.963267156
9.963285714
9.963253427
9.96323042
9.96331868
9.963285465
9.963236685
9.963254498
9.963298773
9.963267114
9.963285466
9.963253982
9.963232247
9.963318382
9.963287786
9.963237424
9.963254428
9.963298057
9.963268388
9.963285653
9.963254599
9.963232829
9.963319307
9.963286866
9.963238142
9.963254939
9.963298894
9.963269124
9.96328582
9.963254845
9.963232147
9.963318824
9.963287364
9.963237912
9.963254363
9.963298422
9.963268746
9.963286325
9.963253908
9.963232348
9.963320345
9.963288669
9.963237804
9.96325406
9.963298024
9.963268735
9.963286962
9.963254354
9.96323236
9.963319583
9.963289523
9.963239035
9.96325268
9.963297826
9.963268631
9.963286558
9.963254217
9.963232268
9.9633207
9.963289354
9.963238149
9.963252423
9.963297677
9.963268418
9.963285526
9.963254197
9.963232658
9.963319973
9.963288422
9.963238845
9.963253713
9.963298309
9.963268697
9.963285297
9.963254793
9.963231084
9.963320028
9.96328854
9.963239143
9.963254439
9.963298368
9.96326949
9.963284737
)
;
    }
    bottom
    {
        type            calculated;
        value           nonuniform List<scalar> 
134
(
9.963293699
9.963289051
9.963269244
9.963283817
9.963279398
9.963270667
9.963294972
9.963268184
9.963276339
9.96329362
9.963288746
9.963268967
9.963282882
9.963280544
9.963270677
9.963295448
9.963266557
9.963275676
9.963294754
9.963287759
9.963269488
9.963281692
9.963282019
9.963270583
9.963294077
9.963267783
9.963276168
9.96329283
9.963287363
9.963270054
9.963283344
9.963281264
9.963269457
9.963293191
9.963267525
9.963275629
9.963293645
9.963287896
9.963268956
9.963282369
9.963281207
9.963269024
9.963293003
9.96326886
9.963276283
9.963293625
9.963287333
9.96326937
9.963282445
9.963280285
9.963268686
9.96329383
9.96326794
9.963275607
9.963293031
9.96328878
9.963268063
9.96328309
9.963280859
9.963268834
9.963293477
9.963267736
9.963276655
9.963293332
9.963288052
9.963267431
9.963283589
9.963281089
9.963269277
9.963293002
9.963267945
9.963276265
9.963293416
9.963288684
9.963267463
9.963283951
9.963280194
9.963268096
9.963294223
9.963265919
9.963275558
9.96329244
9.963288362
9.96326722
9.963282544
9.963279798
9.963266876
9.963293088
9.963265249
9.963275283
9.963291707
9.963289493
9.963266204
9.963282837
9.963278948
9.963266524
9.963293627
9.963264611
9.963275015
9.963292647
9.963289938
9.963265688
9.963282677
9.963277881
9.963267023
9.963294082
9.963264152
9.963273579
9.963293298
9.9632896
9.963265169
9.96328216
9.963277931
9.963267842
9.963294321
9.963263632
9.963274159
9.963292585
9.963288008
9.96326597
9.963282352
9.963278097
9.963266339
9.963294274
9.963264298
9.963274485
9.963292444
9.96328771
9.963265726
9.963281865
9.963276933
9.963267853
9.963293556
9.963265585
)
;
    }
    side-walls
    {
        type            calculated;
        value           nonuniform List<scalar> 
261
(
9.963276339
9.963294696
9.963294937
9.963287417
9.963259655
9.963249696
9.96329549
9.963274683
9.963253476
9.963275676
9.963294019
9.963295224
9.96328808
9.963260331
9.963250664
9.963295327
9.963274603
9.963252313
9.963276168
9.963293499
9.963295339
9.963288989
9.9632604
9.963249461
9.963294917
9.96327447
9.963253264
9.963275629
9.963294169
9.96329459
9.963288831
9.963259425
9.963249306
9.963295727
9.963275028
9.963253145
9.963276283
9.963293343
9.963293569
9.963288832
9.96326091
9.963249533
9.96329534
9.963274295
9.963253512
9.963275607
9.96329371
9.963294177
9.963289187
9.963260591
9.963247993
9.963296609
9.963274051
9.963253427
9.963276655
9.963294493
9.963294207
9.963287809
9.963259232
9.9632478
9.963296571
9.963273266
9.963253982
9.963276265
9.963294883
9.96329378
9.963289351
9.963258186
9.963248541
9.963297345
9.963273738
9.963254599
9.963275558
9.963295023
9.963293525
9.963289588
9.963257525
9.963247221
9.963298053
9.963272363
9.963254845
9.963275283
9.963296165
9.963294422
9.963289496
9.963257345
9.963246843
9.963297746
9.963272294
9.963253908
9.963275015
9.963296536
9.963292931
9.963289026
9.963257812
9.963247215
9.963298317
9.963272414
9.963254354
9.963273579
9.963296181
9.963292833
9.963289137
9.963257708
9.963248012
9.963296689
9.963273303
9.963254217
9.963274159
9.963295068
9.963293004
9.963290799
9.963257072
9.963247254
9.963297
9.963274376
9.963254197
9.963274485
9.963295216
9.963292086
9.963291344
9.963256763
9.963247102
9.963297858
9.963274248
9.963254793
9.963268184
9.963286207
9.963258897
9.963355973
9.963327738
9.963284708
9.96328639
9.963293372
9.963285687
9.963266557
9.963285698
9.963258422
9.963354748
9.963328488
9.963284549
9.963286296
9.963293754
9.963284952
9.963267783
9.963286609
9.963258514
9.963354649
9.963328712
9.963284466
9.963286068
9.963293495
9.963285777
9.963267525
9.963287173
9.963259675
9.963354119
9.963328965
9.963284507
9.963286211
9.963293045
9.963286049
9.96326886
9.963287899
9.963258811
9.96335481
9.963329506
9.963284473
9.963286299
9.963293764
9.963286643
9.96326794
9.963289116
9.963258301
9.963354093
9.963330156
9.963285192
9.96328629
9.963292705
9.963285714
9.963267736
9.963287971
9.963258139
9.963353923
9.963329993
9.963285273
9.963287381
9.963291545
9.963285466
9.963267945
9.963288118
9.963257641
9.96335463
9.963330273
9.963285998
9.963287655
9.963293223
9.963285653
9.963265919
9.963286328
9.963256712
9.963354347
9.963330162
9.963285381
9.963287889
9.963291872
9.96328582
9.963265249
9.963285591
9.96325851
9.963355024
9.963330232
9.963285528
9.963287689
9.963291891
9.963286325
9.963264611
9.96328454
9.963258726
9.963354846
9.963328106
9.963283792
9.963286188
9.963292223
9.963286962
9.963264152
9.963284375
9.963259478
9.963355345
9.963328567
9.963283918
9.963285472
9.963293155
9.963286558
9.963263632
9.963284706
9.963259001
9.963355146
9.963328804
9.963283376
9.963285784
9.963293086
9.963285526
9.963264298
9.963283721
9.963259538
9.963354805
9.963328192
9.963283532
9.963285489
9.963293002
9.963285297
9.963265585
9.963285076
9.96326047
9.96335449
9.963328524
9.963283444
9.963283994
9.963292378
9.963284737
)
;
    }
    inlet
    {
        type            calculated;
        value           nonuniform 0();
    }
    outlet
    {
        type            calculated;
        value           nonuniform List<scalar> 
81
(
9.963274485
9.963295216
9.963292086
9.963291344
9.963256763
9.963247102
9.963297858
9.963274248
9.963254793
9.963292444
9.963256731
9.963241729
9.96329319
9.963270343
9.963301709
9.963227666
9.96332178
9.963231084
9.96328771
9.963288748
9.963290923
9.963260795
9.963326393
9.963282049
9.963295981
9.963227162
9.963320028
9.963265726
9.963247141
9.963295553
9.96326313
9.96326074
9.963293625
9.963258352
9.963309974
9.96328854
9.963281865
9.963304649
9.963293504
9.963267252
9.999919174
9.963308026
9.963255791
9.963263733
9.963239143
9.963276933
9.963309156
9.963247096
9.963311806
9.96326967
9.963268542
9.963314577
9.963253564
9.963254439
9.963267853
9.963252215
9.96329195
9.963226875
9.963320923
9.963281587
9.963244701
9.963312243
9.963298368
9.963293556
9.963296822
9.963275012
9.963271624
9.963270088
9.963315272
9.963282058
9.963313285
9.96326949
9.963265585
9.963285076
9.96326047
9.96335449
9.963328524
9.963283444
9.963283994
9.963292378
9.963284737
)
;
    }
    procBoundary1to0
    {
        type            processor;
        value           nonuniform List<scalar> 
97
(
9.963275949
9.963275949
9.963293815
9.963294584
9.963287198
9.963260138
9.963249607
9.963294596
9.963275844
9.963252988
9.963293619
9.963255917
9.963255917
9.963255917
9.963240206
9.963294547
9.963272681
9.963300375
9.963224138
9.963325643
9.963230259
9.963289239
9.963289352
9.963295076
9.963295076
9.963295076
9.963260819
9.963325341
9.963282258
9.963289204
9.963231222
9.963317961
9.963269744
9.963245346
9.963300231
9.963265799
9.963265799
9.963265799
9.963258461
9.963301785
9.963255251
9.963310682
9.963288078
9.963282994
9.963307647
9.963291284
9.963246123
9.999606163
9.999606163
9.999606163
9.963314008
9.963314008
9.963255654
9.963263033
9.963239015
9.963279575
9.963301787
9.963252094
9.963310725
9.963248263
9.963269733
9.963312224
9.963312224
9.963312224
9.963249184
9.963252642
9.963270644
9.963251868
9.963294303
9.963228442
9.963325757
9.963278814
9.963247851
9.963310234
9.963310234
9.963310234
9.963297425
9.963295017
9.96329898
9.963275171
9.963267371
9.963269059
9.963316363
9.963281294
9.963313065
9.963267537
9.963267537
9.963267537
9.963267591
9.963286463
9.963258324
9.963354364
9.963328027
9.963283722
9.963286058
9.963293284
9.963287157
)
;
    }
}


// ************************************************************************* //
