/*--------------------------------*- C++ -*----------------------------------*\
| =========                 |                                                 |
| \\      /  F ield         | OpenFOAM: The Open Source CFD Toolbox           |
|  \\    /   O peration     | Version:  4.x                                   |
|   \\  /    A nd           | Web:      www.OpenFOAM.org                      |
|    \\/     M anipulation  |                                                 |
\*---------------------------------------------------------------------------*/
FoamFile
{
    version     2.0;
    format      ascii;
    class       volScalarField;
    location    "7000";
    object      N2;
}
// * * * * * * * * * * * * * * * * * * * * * * * * * * * * * * * * * * * * * //

dimensions      [0 0 0 0 0 0 0];

internalField   nonuniform List<scalar> 
1174
(
0.6215285908
0.6215279888
0.6215271386
0.6215260284
0.6215246695
0.6215230933
0.6215213398
0.6215194583
0.621517497
0.6215155004
0.6215135121
0.621511576
0.6215097722
0.6215083535
0.6215280242
0.6215270574
0.6215257695
0.6215241894
0.6215223719
0.6215203823
0.6215182885
0.6215161508
0.6215140217
0.6215119416
0.6215099437
0.6215080589
0.6215063473
0.6215050254
0.6215267709
0.6215250587
0.6215229391
0.6215205314
0.6215179646
0.6215153548
0.6215127952
0.6215103508
0.6215080636
0.6215059567
0.6215040397
0.621502318
0.6215008197
0.6214996976
0.6215249315
0.6215222679
0.6215192084
0.621515977
0.6215127601
0.6215096923
0.6215068575
0.6215042992
0.621502031
0.6215000474
0.6214983319
0.6214968647
0.6214956426
0.6214947583
0.6215236158
0.6215204287
0.6215169508
0.6215134271
0.6215100347
0.6215068876
0.6215040483
0.6215015399
0.6214993603
0.6214974923
0.6214959088
0.6214945832
0.6214935021
0.6214927332
0.6215249315
0.6215222681
0.6215192087
0.6215159772
0.62151276
0.6215096926
0.6215068583
0.6215042997
0.6215020318
0.6215000486
0.6214983326
0.6214968653
0.6214956434
0.6214947588
0.6215267705
0.6215250587
0.6215229397
0.6215205318
0.6215179651
0.6215153557
0.6215127959
0.6215103514
0.6215080651
0.6215059577
0.6215040409
0.6215023196
0.6215008211
0.6214996987
0.6215280242
0.6215270573
0.6215257699
0.6215241894
0.6215223721
0.6215203827
0.6215182888
0.6215161517
0.6215140231
0.6215119434
0.6215099456
0.6215080606
0.6215063485
0.6215050269
0.621528591
0.6215279893
0.6215271383
0.6215260279
0.6215246698
0.6215230934
0.6215213405
0.6215194585
0.6215174971
0.621515501
0.6215135133
0.6215115776
0.6215097738
0.6215083557
0.6215286762
0.6215280245
0.6215270576
0.6215257697
0.6215241894
0.6215223715
0.6215203824
0.6215182885
0.6215161509
0.6215140219
0.6215119423
0.6215099438
0.6215080588
0.6215063472
0.6215050256
0.6215267437
0.6215250426
0.6215229677
0.6215206421
0.6215181924
0.621515724
0.6215133163
0.6215110212
0.6215088696
0.621506878
0.6215050508
0.6215033938
0.621501936
0.6215008346
0.6215235188
0.6215202071
0.6215166055
0.6215130184
0.6215096567
0.6215066339
0.6215039913
0.6215017254
0.6214998036
0.6214981845
0.6214968238
0.6214956839
0.6214947473
0.621494074
0.6215177775
0.6215122612
0.6215070136
0.6215024275
0.621498642
0.6214956387
0.6214933253
0.6214915834
0.621490297
0.6214893648
0.6214887018
0.6214882408
0.6214879322
0.6214877474
0.621512351
0.6215057074
0.6215000768
0.6214956084
0.621492215
0.6214897247
0.6214879534
0.6214867369
0.6214859393
0.6214854516
0.6214851883
0.6214850847
0.6214850859
0.6214851336
0.6215177774
0.6215122617
0.6215070142
0.6215024286
0.6214986427
0.6214956395
0.6214933263
0.6214915839
0.6214902981
0.6214893659
0.6214887032
0.6214882422
0.6214879334
0.6214877486
0.6215235188
0.6215202071
0.6215166054
0.6215130194
0.6215096577
0.621506635
0.6215039931
0.621501727
0.6214998049
0.6214981854
0.6214968253
0.6214956857
0.6214947492
0.6214940758
0.621526744
0.6215250427
0.6215229683
0.6215206428
0.6215181932
0.6215157251
0.6215133167
0.6215110215
0.6215088707
0.6215068789
0.6215050524
0.6215033959
0.6215019379
0.6215008364
0.621528024
0.6215270577
0.6215257692
0.6215241896
0.6215223719
0.6215203826
0.6215182888
0.6215161517
0.6215140228
0.6215119435
0.6215099456
0.6215080608
0.6215063496
0.621505028
0.6215280007
0.6215267708
0.6215250587
0.6215229396
0.6215205318
0.6215179648
0.6215153554
0.6215127959
0.6215103515
0.6215080642
0.6215059573
0.6215040397
0.6215023184
0.6215008198
0.6214996977
0.6215261911
0.6215235191
0.6215202073
0.6215166052
0.6215130187
0.6215096566
0.6215066339
0.621503992
0.6215017259
0.6214998038
0.6214981844
0.6214968236
0.6214956845
0.6214947476
0.6214940734
0.6215139745
0.6215069727
0.6215006285
0.6214954242
0.6214914597
0.6214886217
0.6214867104
0.6214855124
0.6214848359
0.6214845271
0.6214844649
0.6214845603
0.6214847405
0.6214849224
0.6214927106
0.6214808617
0.6214726821
0.6214678464
0.621465568
0.6214650522
0.6214656559
0.6214669131
0.6214685071
0.6214702334
0.6214719646
0.6214736166
0.6214751133
0.6214762601
0.6214648109
0.6214530009
0.6214479195
0.6214470137
0.6214484562
0.6214510944
0.6214542455
0.62145752
0.6214607052
0.6214636929
0.6214664318
0.6214688965
0.6214710414
0.6214726471
0.6214927121
0.6214808632
0.6214726839
0.6214678482
0.6214655704
0.6214650547
0.621465658
0.6214669152
0.6214685089
0.6214702357
0.6214719661
0.621473619
0.6214751148
0.6214762623
0.6215139756
0.6215069736
0.6215006298
0.6214954254
0.6214914608
0.6214886238
0.6214867133
0.6214855151
0.6214848395
0.62148453
0.6214844683
0.6214845633
0.6214847435
0.6214849253
0.6215235188
0.621520207
0.6215166056
0.6215130193
0.6215096578
0.6215066358
0.6215039936
0.6215017273
0.6214998061
0.621498187
0.6214968269
0.6214956872
0.6214947509
0.6214940773
0.6215267705
0.6215250589
0.6215229394
0.6215205319
0.6215179655
0.6215153564
0.621512797
0.6215103529
0.621508066
0.6215059594
0.6215040426
0.6215023212
0.6215008228
0.6214997011
0.6215269845
0.6215249317
0.6215222681
0.6215192087
0.6215159774
0.6215127606
0.6215096926
0.6215068579
0.6215042996
0.6215020313
0.6215000482
0.6214983324
0.6214968645
0.6214956426
0.6214947582
0.6215228481
0.6215177778
0.6215122621
0.6215070138
0.6215024281
0.6214986422
0.621495639
0.6214933254
0.6214915838
0.6214902976
0.6214893651
0.6214887021
0.6214882414
0.6214879325
0.6214877481
0.621507156
0.6214927121
0.6214808629
0.621472683
0.6214678473
0.6214655686
0.6214650527
0.6214656562
0.6214669134
0.6214685075
0.6214702343
0.6214719647
0.6214736173
0.6214751135
0.6214762607
0.6214196947
0.6214047159
0.6214021927
0.6214064332
0.6214137022
0.6214218879
0.621429918
0.621437312
0.6214439029
0.6214496785
0.6214546919
0.6214590089
0.6214626378
0.6214652898
0.6212761621
0.6212947519
0.6213234561
0.6213510208
0.6213744649
0.6213936007
0.6214090436
0.6214215217
0.6214316721
0.6214399999
0.6214468891
0.6214526144
0.6214573042
0.621460677
0.6214197
0.6214047198
0.6214021965
0.6214064371
0.6214137061
0.6214218924
0.6214299223
0.6214373156
0.6214439062
0.6214496816
0.621454695
0.6214590114
0.6214626401
0.6214652925
0.6214927115
0.621480864
0.621472685
0.6214678505
0.6214655729
0.6214650574
0.6214656612
0.6214669177
0.6214685119
0.6214702385
0.6214719689
0.6214736209
0.6214751174
0.6214762639
0.6215177775
0.6215122624
0.621507015
0.6215024302
0.6214986444
0.6214956415
0.6214933289
0.6214915872
0.621490301
0.6214893689
0.621488706
0.6214882456
0.6214879367
0.6214877522
0.6215249314
0.6215222684
0.6215192093
0.621515978
0.6215127619
0.6215096946
0.6215068602
0.6215043026
0.6215020349
0.6215000519
0.6214983355
0.6214968685
0.6214956472
0.6214947625
0.6215262204
0.6215236156
0.6215204294
0.6215169513
0.6215134273
0.6215100353
0.6215068888
0.6215040488
0.6215015402
0.6214993612
0.621497493
0.6214959098
0.6214945841
0.6214935031
0.6214927336
0.6215193523
0.6215123513
0.6215057079
0.6215000772
0.6214956091
0.6214922158
0.621489725
0.6214879536
0.6214867378
0.6214859402
0.6214854519
0.6214851888
0.6214850852
0.6214850864
0.6214851344
0.621485755
0.6214648133
0.6214530029
0.6214479215
0.6214470153
0.6214484569
0.6214510948
0.6214542461
0.6214575201
0.6214607055
0.6214636931
0.6214664321
0.6214688971
0.6214710422
0.6214726477
0.6213018304
0.6212761697
0.6212947568
0.6213234585
0.621351023
0.6213744659
0.6213936021
0.6214090447
0.6214215228
0.6214316729
0.6214400004
0.6214468891
0.6214526144
0.6214573047
0.6214606775
0.6206574004
0.6209716661
0.6211458717
0.6212479336
0.6213111827
0.6213525705
0.6213810499
0.6214015345
0.6214168361
0.6214286257
0.6214379355
0.6214454101
0.6214513831
0.6214556121
0.6212761625
0.6212947587
0.6213234641
0.621351029
0.6213744723
0.6213936079
0.6214090496
0.6214215277
0.6214316769
0.6214400043
0.6214468927
0.6214526172
0.6214573078
0.6214606814
0.6214648101
0.6214530035
0.6214479245
0.6214470198
0.6214484625
0.6214511011
0.6214542521
0.6214575263
0.621460711
0.6214636986
0.6214664374
0.6214689019
0.6214710475
0.6214726524
0.6215123499
0.6215057078
0.6215000786
0.6214956111
0.6214922188
0.6214897284
0.6214879576
0.6214867419
0.6214859446
0.6214854566
0.6214851937
0.6214850905
0.6214850914
0.6214851399
0.6215236155
0.6215204293
0.6215169517
0.6215134289
0.621510037
0.6215068913
0.6215040514
0.6215015436
0.6214993649
0.6214974971
0.6214959142
0.6214945888
0.6214935081
0.6214927386
0.6215269844
0.6215249314
0.6215222677
0.6215192085
0.6215159776
0.6215127608
0.6215096929
0.6215068583
0.6215043006
0.6215020326
0.6215000494
0.6214983339
0.6214968662
0.6214956446
0.6214947598
0.6215228482
0.6215177779
0.6215122622
0.6215070147
0.6215024293
0.6214986431
0.6214956399
0.6214933265
0.6214915849
0.6214902992
0.6214893668
0.6214887039
0.6214882431
0.6214879344
0.62148775
0.6215071584
0.6214927147
0.6214808657
0.6214726855
0.6214678501
0.6214655721
0.6214650558
0.6214656597
0.6214669158
0.6214685101
0.6214702365
0.621471967
0.6214736193
0.6214751158
0.6214762631
0.6214532283
0.6214197068
0.6214047246
0.6214022003
0.6214064403
0.6214137086
0.6214218947
0.6214299235
0.6214373167
0.6214439069
0.6214496824
0.6214546956
0.6214590127
0.621462641
0.6214652929
0.6213018322
0.6212761716
0.6212947643
0.6213234683
0.6213510318
0.6213744744
0.6213936093
0.6214090514
0.6214215282
0.6214316777
0.6214400047
0.6214468932
0.6214526183
0.6214573079
0.6214606811
0.6214532259
0.6214197062
0.6214047269
0.6214022046
0.6214064448
0.6214137138
0.6214218989
0.6214299277
0.621437321
0.621443911
0.6214496861
0.6214546992
0.6214590158
0.6214626436
0.6214652957
0.6214927104
0.6214808653
0.6214726875
0.6214678535
0.6214655757
0.6214650604
0.6214656644
0.6214669215
0.6214685155
0.6214702413
0.621471972
0.6214736245
0.6214751205
0.6214762673
0.6215177772
0.6215122619
0.6215070154
0.6215024309
0.6214986456
0.6214956437
0.6214933302
0.6214915888
0.6214903028
0.6214893708
0.6214887084
0.6214882484
0.6214879394
0.6214877552
0.6215249313
0.6215222678
0.6215192091
0.621515978
0.6215127623
0.6215096949
0.6215068608
0.621504303
0.6215020359
0.6215000534
0.6214983384
0.6214968709
0.6214956489
0.621494765
0.6215280006
0.6215267704
0.6215250586
0.6215229391
0.6215205319
0.6215179655
0.6215153559
0.6215127968
0.6215103523
0.6215080656
0.6215059594
0.6215040418
0.6215023203
0.6215008223
0.6214996997
0.6215261919
0.6215235196
0.6215202082
0.621516606
0.6215130198
0.6215096577
0.6215066351
0.6215039937
0.6215017275
0.6214998062
0.6214981867
0.6214968267
0.621495687
0.6214947509
0.6214940776
0.621520646
0.6215139771
0.6215069748
0.6215006307
0.621495426
0.6214914618
0.6214886245
0.6214867144
0.621485516
0.6214848407
0.6214845313
0.6214844694
0.6214845643
0.6214847449
0.6214849267
0.6215071586
0.6214927144
0.6214808666
0.6214726876
0.6214678526
0.6214655745
0.6214650589
0.6214656624
0.6214669197
0.6214685137
0.6214702401
0.6214719701
0.6214736224
0.6214751183
0.6214762653
0.6214857548
0.6214648156
0.6214530074
0.6214479276
0.6214470225
0.6214484646
0.6214511023
0.6214542535
0.6214575273
0.6214607126
0.6214637
0.6214664384
0.621468903
0.6214710479
0.6214726535
0.6215071592
0.6214927155
0.6214808685
0.6214726897
0.621467855
0.6214655772
0.6214650615
0.6214656652
0.6214669224
0.6214685164
0.6214702427
0.6214719729
0.621473625
0.6214751212
0.6214762682
0.6215206459
0.6215139764
0.6215069757
0.6215006322
0.6214954284
0.6214914646
0.6214886278
0.6214867174
0.6214855197
0.6214848435
0.6214845352
0.6214844729
0.621484568
0.6214847484
0.6214849304
0.6215235183
0.6215202075
0.6215166063
0.6215130206
0.6215096596
0.6215066373
0.6215039959
0.6215017304
0.6214998089
0.6214981902
0.6214968299
0.6214956907
0.6214947549
0.6214940817
0.6215267706
0.6215250587
0.6215229393
0.6215205321
0.6215179659
0.6215153577
0.6215127987
0.6215103545
0.6215080684
0.6215059623
0.6215040455
0.6215023244
0.6215008266
0.6214997044
0.6215286761
0.6215280243
0.6215270575
0.6215257697
0.6215241895
0.6215223718
0.6215203827
0.6215182895
0.6215161524
0.6215140234
0.6215119437
0.6215099462
0.6215080617
0.62150635
0.6215050283
0.6215279824
0.621526744
0.6215250431
0.6215229677
0.6215206426
0.6215181935
0.6215157253
0.6215133176
0.6215110226
0.6215088718
0.62150688
0.621505054
0.6215033971
0.6215019398
0.6215008382
0.6215261914
0.6215235194
0.6215202077
0.6215166061
0.6215130199
0.6215096585
0.6215066358
0.6215039944
0.6215017287
0.6214998072
0.6214981878
0.6214968282
0.6214956887
0.6214947522
0.6214940789
0.6215228484
0.6215177787
0.6215122633
0.6215070158
0.6215024308
0.6214986456
0.6214956434
0.62149333
0.6214915886
0.6214903028
0.6214893704
0.6214887074
0.6214882466
0.621487938
0.6214877532
0.6215193526
0.6215123519
0.6215057103
0.6215000807
0.6214956136
0.6214922203
0.62148973
0.6214879594
0.6214867435
0.6214859456
0.6214854578
0.6214851947
0.6214850908
0.6214850921
0.6214851401
0.6215228487
0.6215177793
0.6215122642
0.6215070168
0.6215024318
0.6214986467
0.6214956441
0.6214933313
0.6214915899
0.6214903047
0.6214893725
0.6214887094
0.6214882486
0.6214879398
0.621487755
0.6215261916
0.6215235197
0.6215202077
0.6215166065
0.6215130208
0.6215096598
0.6215066374
0.6215039965
0.6215017308
0.6214998092
0.6214981905
0.6214968308
0.6214956913
0.6214947551
0.6214940816
0.6215279827
0.6215267447
0.6215250432
0.6215229681
0.6215206435
0.6215181942
0.6215157268
0.6215133193
0.6215110244
0.6215088738
0.6215068824
0.6215050565
0.6215034002
0.621501943
0.6215008413
0.6215280239
0.6215270573
0.6215257693
0.62152419
0.6215223728
0.621520384
0.6215182903
0.6215161535
0.6215140254
0.6215119461
0.6215099487
0.6215080648
0.6215063536
0.6215050324
0.6215289775
0.6215285909
0.621527989
0.6215271383
0.621526028
0.6215246699
0.6215230935
0.6215213404
0.6215194594
0.621517498
0.6215155024
0.6215135139
0.6215115785
0.6215097749
0.6215083565
0.6215286766
0.6215280248
0.6215270575
0.6215257694
0.6215241897
0.6215223717
0.6215203829
0.6215182894
0.6215161525
0.6215140242
0.6215119446
0.6215099467
0.6215080623
0.6215063511
0.6215050293
0.6215280008
0.6215267712
0.6215250592
0.6215229397
0.6215205324
0.6215179659
0.6215153571
0.6215127976
0.6215103538
0.6215080673
0.6215059607
0.6215040441
0.6215023229
0.6215008246
0.6214997021
0.6215269845
0.621524932
0.6215222687
0.6215192096
0.6215159786
0.6215127625
0.6215096953
0.621506861
0.6215043029
0.6215020355
0.6215000526
0.6214983373
0.6214968701
0.6214956487
0.621494764
0.6215262206
0.6215236162
0.6215204302
0.6215169529
0.62151343
0.6215100381
0.6215068915
0.6215040523
0.6215015443
0.6214993656
0.6214974982
0.6214959157
0.6214945897
0.6214935092
0.62149274
0.6215269845
0.6215249318
0.621522269
0.6215192103
0.6215159791
0.6215127627
0.6215096957
0.6215068619
0.6215043043
0.621502037
0.6215000542
0.6214983384
0.6214968716
0.6214956496
0.6214947658
0.6215280009
0.6215267711
0.6215250595
0.6215229404
0.6215205331
0.6215179668
0.621515358
0.6215127988
0.6215103553
0.6215080689
0.6215059624
0.621504046
0.6215023249
0.6215008266
0.6214997049
0.621528676
0.6215280239
0.6215270577
0.6215257698
0.6215241899
0.6215223729
0.6215203841
0.6215182903
0.621516154
0.6215140254
0.6215119465
0.6215099487
0.6215080645
0.6215063538
0.6215050324
0.6215289775
0.6215285909
0.6215279888
0.6215271388
0.6215260287
0.6215246705
0.6215230945
0.621521342
0.6215194607
0.6215174994
0.6215155036
0.6215135159
0.621511581
0.6215097776
0.62150836
)
;

boundaryField
{
    top
    {
        type            zeroGradient;
    }
    bottom
    {
        type            zeroGradient;
    }
    side-walls
    {
        type            zeroGradient;
    }
    inlet
    {
        type            zeroGradient;
    }
    outlet
    {
        type            zeroGradient;
    }
    procBoundary1to0
    {
        type            processor;
        value           nonuniform List<scalar> 
97
(
0.6215289775
0.6215289775
0.6215286763
0.621528001
0.621526985
0.6215262212
0.6215269847
0.6215280009
0.6215286762
0.6215289778
0.6215290613
0.6215279825
0.6215279825
0.6215279825
0.6215261921
0.6215228491
0.6215193546
0.6215228495
0.6215261922
0.6215279828
0.6215286763
0.6215287558
0.6215279632
0.6215206458
0.6215206458
0.6215206458
0.6215071603
0.6214857642
0.6215071628
0.621520648
0.6215261919
0.621528001
0.6215283075
0.6215265638
0.6215204542
0.6214532277
0.6214532277
0.6214532277
0.6213018954
0.621453243
0.6215071626
0.6215228496
0.6215269847
0.6215279866
0.6215252402
0.6215136532
0.6214677029
0.6200591033
0.6200591033
0.6200591033
0.6213018933
0.6213018933
0.6214857637
0.6215193546
0.6215262216
0.6215283074
0.6215265633
0.6215204534
0.621502661
0.6214676999
0.6215026631
0.6215071568
0.6215071568
0.6215071568
0.6215228488
0.6215269846
0.6215287559
0.6215279631
0.621525636
0.6215204534
0.6215136534
0.6215204543
0.6215256366
0.6215261909
0.6215261909
0.6215261909
0.6215280008
0.6215290615
0.6215287493
0.6215279628
0.621526563
0.62152524
0.6215265635
0.6215279633
0.6215287495
0.6215286761
0.6215286761
0.6215286761
0.6215291996
0.6215290611
0.6215287555
0.6215283072
0.6215279867
0.6215283071
0.6215287558
0.6215290613
0.6215291995
)
;
    }
}


// ************************************************************************* //
