/*--------------------------------*- C++ -*----------------------------------*\
| =========                 |                                                 |
| \\      /  F ield         | OpenFOAM: The Open Source CFD Toolbox           |
|  \\    /   O peration     | Version:  4.x                                   |
|   \\  /    A nd           | Web:      www.OpenFOAM.org                      |
|    \\/     M anipulation  |                                                 |
\*---------------------------------------------------------------------------*/
FoamFile
{
    version     2.0;
    format      ascii;
    class       volScalarField;
    location    "7000";
    object      rhoeps;
}
// * * * * * * * * * * * * * * * * * * * * * * * * * * * * * * * * * * * * * //

dimensions      [1 -3 0 0 0 0 0];

internalField   nonuniform List<scalar> 
1174
(
0.2797545973
0.2797548736
0.2797552439
0.2797557319
0.2797563848
0.279757051
0.279757878
0.2797587073
0.2797595558
0.2797604685
0.2797613277
0.2797622007
0.2797629988
0.2797636682
0.2797553589
0.2797557986
0.2797563468
0.2797570645
0.2797578584
0.2797587735
0.2797597333
0.2797607316
0.279761699
0.2797626519
0.27976355
0.2797643826
0.2797651465
0.2797657376
0.2797559213
0.2797567168
0.2797576782
0.2797587431
0.2797598806
0.2797610813
0.2797622146
0.2797633054
0.2797643395
0.2797652781
0.2797661095
0.2797668862
0.2797675366
0.2797680068
0.2797565655
0.2797577769
0.2797591698
0.2797606229
0.2797620747
0.2797634509
0.2797647184
0.2797658952
0.2797669348
0.2797678355
0.2797685831
0.2797692238
0.2797698188
0.2797702098
0.2797563799
0.279757841
0.2797594039
0.2797609694
0.2797625168
0.2797639458
0.2797651668
0.279766259
0.2797672286
0.2797680704
0.2797687947
0.279769374
0.2797698505
0.2797701509
0.2797555181
0.2797567199
0.2797580837
0.2797595224
0.2797609744
0.2797623082
0.2797635602
0.2797647342
0.279765744
0.2797666029
0.2797673853
0.2797680446
0.279768604
0.2797690089
0.2797559621
0.2797567272
0.279757659
0.2797587635
0.2797599249
0.279761126
0.2797622982
0.2797634366
0.2797644256
0.2797654087
0.2797662552
0.2797669914
0.279767667
0.2797681795
0.2797548203
0.2797552778
0.2797558127
0.2797565459
0.2797573322
0.2797582257
0.2797591661
0.2797601204
0.2797610427
0.279761967
0.2797628582
0.2797637283
0.2797645587
0.2797651568
0.2797539502
0.2797542097
0.2797546193
0.2797551326
0.2797557309
0.2797564381
0.279757224
0.2797581133
0.2797589891
0.2797598835
0.2797607391
0.2797616159
0.2797624444
0.2797631016
0.27975505
0.2797553237
0.2797557851
0.2797563402
0.2797570653
0.279757899
0.2797587821
0.2797597152
0.2797606744
0.279761615
0.2797625201
0.2797634433
0.279764296
0.2797650611
0.2797656503
0.2797548969
0.2797556559
0.2797565539
0.2797576267
0.2797587272
0.279759838
0.2797608766
0.2797618824
0.2797628727
0.2797637633
0.2797646089
0.2797653711
0.2797660422
0.2797665319
0.2797558933
0.2797573732
0.2797589656
0.2797606188
0.279762116
0.2797634708
0.2797646834
0.2797656472
0.279766485
0.2797672061
0.2797678407
0.2797683795
0.2797688316
0.2797691442
0.2797599465
0.2797624323
0.2797647729
0.2797668528
0.2797685283
0.2797698734
0.2797709136
0.2797717087
0.2797723145
0.2797727098
0.2797729926
0.2797732318
0.2797733388
0.2797734323
0.2797617807
0.2797647856
0.2797673419
0.2797693596
0.279770863
0.2797719371
0.2797727304
0.279773281
0.2797736382
0.2797738367
0.2797740032
0.279774021
0.2797739842
0.279773964
0.279760139
0.2797625971
0.2797649397
0.2797670039
0.2797687323
0.2797701101
0.2797711443
0.2797719608
0.2797725029
0.2797729034
0.279773176
0.2797734134
0.2797735571
0.2797736703
0.2797554385
0.2797568991
0.279758525
0.2797600973
0.2797616123
0.2797629696
0.2797641533
0.2797651565
0.2797660911
0.2797668716
0.2797674885
0.2797680211
0.2797684577
0.2797687642
0.279756792
0.2797575748
0.2797584089
0.2797594825
0.2797605937
0.2797617018
0.2797628095
0.2797638258
0.2797647674
0.2797656664
0.2797664755
0.2797671965
0.2797678826
0.2797683729
0.2797535559
0.2797539667
0.2797545699
0.2797552711
0.2797561142
0.2797570251
0.2797579954
0.2797589687
0.2797599266
0.2797608418
0.2797617626
0.2797626073
0.2797633653
0.2797639539
0.2797552283
0.2797557732
0.2797565405
0.2797574469
0.2797585356
0.2797597031
0.2797608888
0.2797620268
0.2797631426
0.2797641809
0.2797651321
0.2797660218
0.2797667685
0.2797674266
0.2797678914
0.2797560676
0.2797572545
0.2797587394
0.2797603857
0.2797619791
0.2797634902
0.2797648348
0.2797660204
0.2797670168
0.2797679028
0.2797686227
0.2797692382
0.2797697185
0.2797701816
0.2797705303
0.2797616902
0.2797648161
0.2797676603
0.2797699484
0.2797717038
0.2797730052
0.2797738989
0.2797744249
0.2797747648
0.2797748686
0.2797749079
0.2797748378
0.2797747257
0.2797746551
0.2797702829
0.2797756363
0.2797792904
0.2797814705
0.2797825207
0.2797827519
0.2797824734
0.2797819085
0.2797811904
0.2797804137
0.2797795687
0.2797788638
0.2797781953
0.279777697
0.2797846501
0.2797899513
0.2797922588
0.2797926665
0.2797919924
0.2797908073
0.2797893825
0.2797879214
0.2797865313
0.279785196
0.2797839706
0.2797828745
0.2797819172
0.2797811945
0.2797708839
0.2797762269
0.2797798436
0.2797820371
0.2797830433
0.2797832535
0.2797830193
0.2797824412
0.2797817703
0.2797809693
0.2797802034
0.2797794337
0.2797788218
0.2797782875
0.2797615742
0.2797647292
0.2797675766
0.2797699196
0.2797717433
0.2797730318
0.2797738904
0.2797744611
0.2797747508
0.2797749244
0.2797749299
0.2797749033
0.2797748229
0.2797747861
0.2797556269
0.2797571153
0.2797587212
0.2797603254
0.2797618248
0.2797631225
0.2797643366
0.2797653829
0.27976622
0.2797669415
0.2797675417
0.2797680663
0.2797684816
0.2797687863
0.2797566327
0.2797574097
0.2797583829
0.2797594424
0.2797605798
0.2797617488
0.2797628932
0.279763998
0.2797650479
0.2797660115
0.2797668604
0.2797676511
0.2797683373
0.2797688206
0.2797551134
0.2797560209
0.2797572436
0.279758626
0.2797600725
0.279761516
0.2797628877
0.2797641359
0.2797652797
0.2797663067
0.2797671653
0.2797679112
0.2797685737
0.2797691314
0.2797695168
0.2797563396
0.2797586382
0.2797610988
0.279763489
0.279765541
0.279767246
0.2797685966
0.2797696406
0.279770416
0.2797709982
0.2797714163
0.2797717078
0.2797719215
0.2797720471
0.2797721285
0.279764877
0.2797713332
0.2797766812
0.2797803509
0.2797825063
0.2797835551
0.2797837793
0.2797835093
0.2797829331
0.279782217
0.279781412
0.2797806355
0.279779864
0.27977917
0.2797786415
0.2798032636
0.2798099737
0.2798111066
0.2798091701
0.2798059093
0.2798022496
0.2797986205
0.279795253
0.2797922714
0.2797896653
0.2797874365
0.2797855093
0.2797838513
0.2797827048
0.2798677
0.2798593412
0.279846399
0.279834
0.2798234167
0.2798148072
0.2798078635
0.2798022613
0.2797977225
0.2797939743
0.2797908688
0.2797882782
0.2797862199
0.2797847033
0.2798042601
0.2798109407
0.2798120423
0.2798100962
0.2798068297
0.2798031176
0.2797994719
0.2797961286
0.2797931553
0.2797905555
0.2797883215
0.2797864206
0.2797847604
0.279783555
0.2797701828
0.2797755205
0.2797791997
0.2797813527
0.2797823562
0.279782568
0.2797823015
0.2797817887
0.2797810668
0.2797802684
0.2797795041
0.2797787947
0.2797781133
0.2797776502
0.2797604532
0.2797628983
0.2797652659
0.2797672965
0.2797690556
0.2797704301
0.279771453
0.2797722342
0.2797728443
0.2797732406
0.2797735066
0.2797737099
0.2797738407
0.279773918
0.2797565608
0.2797577319
0.2797591077
0.2797605737
0.2797619887
0.2797633711
0.2797646733
0.2797658134
0.2797668556
0.2797677585
0.2797685956
0.2797692333
0.2797697556
0.279770183
0.2797558689
0.2797570541
0.2797584258
0.2797600115
0.2797616123
0.2797631396
0.2797645402
0.2797658378
0.2797669662
0.279767919
0.2797687602
0.2797694827
0.2797700637
0.2797705449
0.2797708846
0.2797596348
0.2797627498
0.279765745
0.2797682886
0.2797702937
0.2797717909
0.2797728972
0.2797737079
0.2797742083
0.2797745554
0.2797748038
0.2797749397
0.2797749789
0.2797749585
0.2797749326
0.2797742462
0.2797836686
0.2797889982
0.2797912858
0.2797916905
0.2797910473
0.279789881
0.2797884527
0.2797870202
0.2797855988
0.279784235
0.2797829848
0.27978188
0.2797809381
0.2797802293
0.2798563198
0.2798678454
0.2798594896
0.2798466162
0.2798342086
0.2798237126
0.2798150943
0.279808155
0.2798025357
0.2797979713
0.2797942209
0.2797911225
0.279788526
0.2797864221
0.279784901
0.2811683601
0.2810268599
0.2809488171
0.2809034167
0.280875524
0.2808575345
0.2808453627
0.2808368595
0.2808305861
0.280825889
0.2808223222
0.2808196188
0.2808176039
0.280816344
0.2798692846
0.2798608979
0.2798480229
0.2798356302
0.2798250757
0.2798164229
0.2798094729
0.2798037936
0.2797992254
0.2797954501
0.2797923468
0.2797897604
0.2797876077
0.2797860055
0.2797827095
0.2797879658
0.2797902587
0.2797906652
0.27979
0.2797888006
0.2797873733
0.2797859158
0.2797845311
0.2797831678
0.2797819358
0.2797808572
0.2797798626
0.2797791784
0.2797615747
0.2797645854
0.2797671057
0.279769158
0.2797706759
0.2797718328
0.2797726418
0.279773156
0.2797734841
0.2797737224
0.2797738519
0.2797738711
0.2797738751
0.2797737912
0.2797557928
0.2797571851
0.2797587603
0.2797603103
0.2797618627
0.2797632371
0.279764567
0.2797656893
0.2797666668
0.2797675147
0.2797682385
0.2797688356
0.2797693219
0.2797696826
0.2797554217
0.2797563669
0.2797576221
0.27975899
0.2797604183
0.2797618539
0.2797632391
0.2797645087
0.2797656303
0.2797666502
0.2797675237
0.2797682565
0.2797689104
0.2797694447
0.2797698478
0.2797579361
0.2797602423
0.2797627198
0.2797650852
0.2797671384
0.2797689054
0.2797702795
0.2797713098
0.2797720654
0.2797726044
0.2797730375
0.2797733552
0.279773594
0.2797737476
0.2797738511
0.2797635819
0.2797700112
0.2797753395
0.2797790252
0.2797811795
0.2797821603
0.2797823823
0.2797820753
0.279781562
0.2797808429
0.2797800571
0.2797792838
0.2797785572
0.2797778606
0.279777316
0.2797894525
0.2798045146
0.2798112763
0.2798123971
0.2798104638
0.279807214
0.2798035045
0.2797999515
0.2797966298
0.2797936942
0.2797910618
0.2797888006
0.2797868425
0.2797852246
0.2797840546
0.2798563872
0.2798679294
0.2798595634
0.2798466283
0.2798342318
0.2798236591
0.2798150619
0.2798080976
0.2798025165
0.2797979789
0.279794256
0.2797911598
0.2797885562
0.2797864976
0.2797849438
0.2797883378
0.2798034074
0.2798101206
0.279811221
0.2798093342
0.2798060581
0.2798024066
0.2797988237
0.2797954643
0.2797925067
0.2797898759
0.2797876131
0.2797856505
0.279784046
0.2797828401
0.2797717403
0.2797770612
0.2797807576
0.2797829172
0.2797839739
0.2797841782
0.2797839044
0.2797833487
0.2797826487
0.2797819415
0.2797811424
0.2797803852
0.2797797032
0.2797792074
0.2797586963
0.2797612018
0.279763568
0.2797656336
0.2797674003
0.2797687245
0.2797698235
0.2797706235
0.2797712426
0.2797716427
0.2797719001
0.2797720773
0.2797722178
0.2797722928
0.2797555977
0.2797568321
0.2797581916
0.2797596813
0.2797610958
0.279762501
0.2797637721
0.279764932
0.2797659293
0.2797667999
0.2797675323
0.2797682071
0.2797687996
0.2797691786
0.2797547091
0.2797552762
0.2797560326
0.2797569842
0.2797580275
0.2797591555
0.2797603575
0.2797614745
0.2797625858
0.2797635917
0.2797644907
0.2797653901
0.279766179
0.2797668144
0.2797673528
0.2797549699
0.2797561789
0.2797576416
0.2797593083
0.2797609249
0.2797624659
0.279763826
0.2797650003
0.2797660391
0.2797668935
0.2797676475
0.2797682425
0.2797687581
0.279769166
0.2797694344
0.2797586837
0.2797616519
0.2797648286
0.2797676721
0.2797700125
0.2797717713
0.2797730499
0.2797738717
0.2797744446
0.2797747107
0.2797748677
0.2797748879
0.2797748679
0.2797747391
0.279774691
0.2797628857
0.2797694071
0.2797747263
0.2797783838
0.279780556
0.279781598
0.2797818193
0.2797815446
0.2797809414
0.2797802108
0.2797794228
0.2797786741
0.2797779278
0.2797772751
0.2797767644
0.2797752449
0.2797846055
0.2797899137
0.2797922044
0.2797926017
0.2797919508
0.2797907862
0.2797893199
0.279787864
0.2797864132
0.2797850559
0.2797838301
0.2797827246
0.279781752
0.2797810017
0.2797643325
0.279770853
0.2797761862
0.2797798645
0.2797820449
0.2797830787
0.2797833101
0.2797830219
0.2797824495
0.2797817256
0.2797809507
0.2797801816
0.2797794613
0.2797787683
0.2797782546
0.2797573186
0.2797603198
0.2797634278
0.2797662854
0.2797686304
0.279770415
0.2797716845
0.2797725242
0.2797730687
0.2797734132
0.2797735123
0.2797735744
0.2797735157
0.279773417
0.2797733467
0.2797578598
0.2797593009
0.2797609091
0.27976252
0.2797640365
0.2797654182
0.2797666372
0.2797676627
0.2797685621
0.2797692785
0.2797699019
0.2797704331
0.2797708483
0.2797711554
0.27975603
0.2797568122
0.2797577872
0.2797588635
0.2797600324
0.2797611663
0.2797623027
0.2797634435
0.2797644491
0.2797653761
0.279766252
0.2797670235
0.279767686
0.2797682116
0.2797550971
0.2797553715
0.2797558046
0.2797563462
0.279757063
0.2797579069
0.2797588013
0.2797597048
0.279760683
0.2797616494
0.2797625973
0.2797634714
0.2797643132
0.2797651093
0.2797657007
0.2797555138
0.2797560977
0.279756863
0.2797577957
0.2797588377
0.2797599037
0.2797610254
0.2797621007
0.279763117
0.2797640498
0.2797649612
0.2797657557
0.2797665087
0.2797671546
0.2797676504
0.2797556841
0.2797568946
0.2797583858
0.2797600085
0.2797616301
0.279763122
0.2797644967
0.2797656682
0.2797666715
0.2797675302
0.279768285
0.2797688639
0.2797693783
0.2797698143
0.2797701019
0.2797569305
0.2797592204
0.2797617082
0.2797640853
0.2797661341
0.2797678341
0.2797691584
0.2797702228
0.279771
0.2797715728
0.2797720126
0.2797723437
0.2797725875
0.2797727152
0.2797728273
0.2797585342
0.2797616943
0.279764637
0.2797671801
0.2797691739
0.2797707544
0.2797718783
0.2797726697
0.2797732285
0.2797736369
0.2797738544
0.2797739728
0.2797740088
0.2797739926
0.2797739662
0.2797583189
0.2797605696
0.2797630411
0.2797654351
0.2797674913
0.2797691817
0.2797705211
0.279771552
0.2797723447
0.2797728713
0.2797732804
0.2797735891
0.2797738204
0.2797739607
0.2797740888
0.2797558103
0.2797569993
0.2797585382
0.2797601671
0.2797617804
0.2797632846
0.2797646613
0.2797658155
0.2797668239
0.2797677011
0.2797684249
0.2797690086
0.2797695344
0.2797699665
0.2797702908
0.2797559079
0.2797564379
0.279757243
0.2797581867
0.2797591988
0.2797603376
0.2797614313
0.2797625146
0.2797635643
0.2797645064
0.2797653998
0.2797661926
0.2797669433
0.2797676045
0.2797681313
0.279754611
0.2797550529
0.2797556438
0.2797563252
0.2797571395
0.2797580313
0.279759013
0.2797599932
0.27976093
0.2797618765
0.2797627732
0.2797635945
0.2797643923
0.2797649972
0.2797541945
0.2797543539
0.2797546313
0.2797550197
0.2797555453
0.2797561378
0.2797568353
0.279757641
0.2797584395
0.2797593062
0.2797601606
0.2797610542
0.2797619073
0.2797627357
0.2797634145
0.2797548243
0.2797551006
0.279755583
0.2797561822
0.2797568806
0.2797577439
0.2797586218
0.2797595533
0.2797604998
0.2797614084
0.2797623389
0.2797632474
0.2797640661
0.2797648196
0.2797654458
0.2797543568
0.2797548978
0.2797556886
0.2797566574
0.2797577191
0.2797588816
0.2797600478
0.2797612044
0.2797622936
0.2797633298
0.2797642924
0.2797651336
0.2797659134
0.2797666099
0.2797671407
0.2797575498
0.279758449
0.2797596535
0.2797610246
0.2797624885
0.2797639059
0.2797652865
0.279766573
0.2797677569
0.2797687692
0.2797696572
0.2797704285
0.2797710793
0.2797716005
0.2797720134
0.2797571255
0.2797583097
0.2797597388
0.2797613118
0.2797628905
0.279764453
0.2797658892
0.2797671669
0.279768292
0.2797692497
0.2797700581
0.2797707433
0.27977137
0.2797718156
0.2797721499
0.2797555452
0.2797564827
0.2797576776
0.2797590445
0.2797605201
0.2797619855
0.2797633697
0.2797646332
0.2797657773
0.2797667885
0.2797676575
0.2797684479
0.2797690689
0.2797696556
0.2797700211
0.2797551406
0.2797557027
0.2797564601
0.2797574125
0.2797584921
0.2797596678
0.2797608561
0.2797620168
0.2797631149
0.2797641372
0.2797650767
0.2797659102
0.2797666815
0.2797673568
0.2797678185
0.2797550599
0.279755366
0.2797557853
0.2797563551
0.279757068
0.2797578479
0.2797587241
0.2797597012
0.2797606243
0.27976159
0.2797625178
0.2797634485
0.2797643088
0.2797650591
0.2797656694
0.2797547122
0.2797548752
0.2797551593
0.2797555193
0.2797560312
0.2797566451
0.2797573443
0.2797581189
0.2797589814
0.2797598713
0.279760789
0.2797616668
0.2797625068
0.2797633171
0.2797639555
)
;

boundaryField
{
    top
    {
        type            calculated;
        value           nonuniform List<scalar> 
127
(
0.2797547122
0.2797539502
0.2797535559
0.2797566327
0.2797565608
0.2797557928
0.2797555977
0.27975603
0.279754611
0.2797548752
0.2797542097
0.2797539667
0.2797574097
0.2797577319
0.2797571851
0.2797568321
0.2797568122
0.2797550529
0.2797551593
0.2797546193
0.2797545699
0.2797583829
0.2797591077
0.2797587603
0.2797581916
0.2797577872
0.2797556438
0.2797555193
0.2797551326
0.2797552711
0.2797594424
0.2797605737
0.2797603103
0.2797596813
0.2797588635
0.2797563252
0.2797560312
0.2797557309
0.2797561142
0.2797605798
0.2797619887
0.2797618627
0.2797610958
0.2797600324
0.2797571395
0.2797566451
0.2797564381
0.2797570251
0.2797617488
0.2797633711
0.2797632371
0.279762501
0.2797611663
0.2797580313
0.2797573443
0.279757224
0.2797579954
0.2797628932
0.2797646733
0.279764567
0.2797637721
0.2797623027
0.279759013
0.2797581189
0.2797581133
0.2797589687
0.279763998
0.2797658134
0.2797656893
0.279764932
0.2797634435
0.2797599932
0.2797589814
0.2797589891
0.2797599266
0.2797650479
0.2797668556
0.2797666668
0.2797659293
0.2797644491
0.27976093
0.2797598713
0.2797598835
0.2797608418
0.2797660115
0.2797677585
0.2797675147
0.2797667999
0.2797653761
0.2797618765
0.279760789
0.2797607391
0.2797617626
0.2797668604
0.2797685956
0.2797682385
0.2797675323
0.279766252
0.2797627732
0.2797616668
0.2797616159
0.2797626073
0.2797676511
0.2797692333
0.2797688356
0.2797682071
0.2797670235
0.2797635945
0.2797625068
0.2797624444
0.2797633653
0.2797683373
0.2797697556
0.2797693219
0.2797687996
0.279767686
0.2797643923
0.2797633171
0.2797631016
0.2797639539
0.2797688206
0.279770183
0.2797696826
0.2797691786
0.2797682116
0.2797649972
0.2797639555
)
;
    }
    bottom
    {
        type            calculated;
        value           nonuniform List<scalar> 
134
(
0.27975505
0.2797552283
0.2797551134
0.2797558689
0.2797554217
0.2797547091
0.2797550971
0.2797541945
0.2797545973
0.2797553237
0.2797557732
0.2797560209
0.2797570541
0.2797563669
0.2797552762
0.2797553715
0.2797543539
0.2797548736
0.2797557851
0.2797565405
0.2797572436
0.2797584258
0.2797576221
0.2797560326
0.2797558046
0.2797546313
0.2797552439
0.2797563402
0.2797574469
0.279758626
0.2797600115
0.27975899
0.2797569842
0.2797563462
0.2797550197
0.2797557319
0.2797570653
0.2797585356
0.2797600725
0.2797616123
0.2797604183
0.2797580275
0.279757063
0.2797555453
0.2797563848
0.279757899
0.2797597031
0.279761516
0.2797631396
0.2797618539
0.2797591555
0.2797579069
0.2797561378
0.279757051
0.2797587821
0.2797608888
0.2797628877
0.2797645402
0.2797632391
0.2797603575
0.2797588013
0.2797568353
0.279757878
0.2797597152
0.2797620268
0.2797641359
0.2797658378
0.2797645087
0.2797614745
0.2797597048
0.279757641
0.2797587073
0.2797606744
0.2797631426
0.2797652797
0.2797669662
0.2797656303
0.2797625858
0.279760683
0.2797584395
0.2797595558
0.279761615
0.2797641809
0.2797663067
0.279767919
0.2797666502
0.2797635917
0.2797616494
0.2797593062
0.2797604685
0.2797625201
0.2797651321
0.2797671653
0.2797687602
0.2797675237
0.2797644907
0.2797625973
0.2797601606
0.2797613277
0.2797634433
0.2797660218
0.2797679112
0.2797694827
0.2797682565
0.2797653901
0.2797634714
0.2797610542
0.2797622007
0.279764296
0.2797667685
0.2797685737
0.2797700637
0.2797689104
0.279766179
0.2797643132
0.2797619073
0.2797629988
0.2797650611
0.2797674266
0.2797691314
0.2797705449
0.2797694447
0.2797668144
0.2797651093
0.2797627357
0.2797636682
0.2797656503
0.2797678914
0.2797695168
0.2797708846
0.2797698478
0.2797673528
0.2797657007
0.2797634145
)
;
    }
    side-walls
    {
        type            calculated;
        value           nonuniform List<scalar> 
261
(
0.2797545973
0.2797553589
0.2797559213
0.2797565655
0.2797563799
0.2797555181
0.2797559621
0.2797548203
0.2797539502
0.2797548736
0.2797557986
0.2797567168
0.2797577769
0.279757841
0.2797567199
0.2797567272
0.2797552778
0.2797542097
0.2797552439
0.2797563468
0.2797576782
0.2797591698
0.2797594039
0.2797580837
0.279757659
0.2797558127
0.2797546193
0.2797557319
0.2797570645
0.2797587431
0.2797606229
0.2797609694
0.2797595224
0.2797587635
0.2797565459
0.2797551326
0.2797563848
0.2797578584
0.2797598806
0.2797620747
0.2797625168
0.2797609744
0.2797599249
0.2797573322
0.2797557309
0.279757051
0.2797587735
0.2797610813
0.2797634509
0.2797639458
0.2797623082
0.279761126
0.2797582257
0.2797564381
0.279757878
0.2797597333
0.2797622146
0.2797647184
0.2797651668
0.2797635602
0.2797622982
0.2797591661
0.279757224
0.2797587073
0.2797607316
0.2797633054
0.2797658952
0.279766259
0.2797647342
0.2797634366
0.2797601204
0.2797581133
0.2797595558
0.279761699
0.2797643395
0.2797669348
0.2797672286
0.279765744
0.2797644256
0.2797610427
0.2797589891
0.2797604685
0.2797626519
0.2797652781
0.2797678355
0.2797680704
0.2797666029
0.2797654087
0.279761967
0.2797598835
0.2797613277
0.27976355
0.2797661095
0.2797685831
0.2797687947
0.2797673853
0.2797662552
0.2797628582
0.2797607391
0.2797622007
0.2797643826
0.2797668862
0.2797692238
0.279769374
0.2797680446
0.2797669914
0.2797637283
0.2797616159
0.2797629988
0.2797651465
0.2797675366
0.2797698188
0.2797698505
0.279768604
0.279767667
0.2797645587
0.2797624444
0.2797636682
0.2797657376
0.2797680068
0.2797702098
0.2797701509
0.2797690089
0.2797681795
0.2797651568
0.2797631016
0.2797541945
0.2797548243
0.2797543568
0.2797575498
0.2797571255
0.2797555452
0.2797551406
0.2797550599
0.2797547122
0.2797543539
0.2797551006
0.2797548978
0.279758449
0.2797583097
0.2797564827
0.2797557027
0.279755366
0.2797548752
0.2797546313
0.279755583
0.2797556886
0.2797596535
0.2797597388
0.2797576776
0.2797564601
0.2797557853
0.2797551593
0.2797550197
0.2797561822
0.2797566574
0.2797610246
0.2797613118
0.2797590445
0.2797574125
0.2797563551
0.2797555193
0.2797555453
0.2797568806
0.2797577191
0.2797624885
0.2797628905
0.2797605201
0.2797584921
0.279757068
0.2797560312
0.2797561378
0.2797577439
0.2797588816
0.2797639059
0.279764453
0.2797619855
0.2797596678
0.2797578479
0.2797566451
0.2797568353
0.2797586218
0.2797600478
0.2797652865
0.2797658892
0.2797633697
0.2797608561
0.2797587241
0.2797573443
0.279757641
0.2797595533
0.2797612044
0.279766573
0.2797671669
0.2797646332
0.2797620168
0.2797597012
0.2797581189
0.2797584395
0.2797604998
0.2797622936
0.2797677569
0.279768292
0.2797657773
0.2797631149
0.2797606243
0.2797589814
0.2797593062
0.2797614084
0.2797633298
0.2797687692
0.2797692497
0.2797667885
0.2797641372
0.27976159
0.2797598713
0.2797601606
0.2797623389
0.2797642924
0.2797696572
0.2797700581
0.2797676575
0.2797650767
0.2797625178
0.279760789
0.2797610542
0.2797632474
0.2797651336
0.2797704285
0.2797707433
0.2797684479
0.2797659102
0.2797634485
0.2797616668
0.2797619073
0.2797640661
0.2797659134
0.2797710793
0.27977137
0.2797690689
0.2797666815
0.2797643088
0.2797625068
0.2797627357
0.2797648196
0.2797666099
0.2797716005
0.2797718156
0.2797696556
0.2797673568
0.2797650591
0.2797633171
0.2797634145
0.2797654458
0.2797671407
0.2797720134
0.2797721499
0.2797700211
0.2797678185
0.2797656694
0.2797639555
)
;
    }
    inlet
    {
        type            calculated;
        value           nonuniform 0();
    }
    outlet
    {
        type            calculated;
        value           nonuniform List<scalar> 
81
(
0.2797636682
0.2797657376
0.2797680068
0.2797702098
0.2797701509
0.2797690089
0.2797681795
0.2797651568
0.2797631016
0.2797656503
0.2797665319
0.2797691442
0.2797734323
0.279773964
0.2797736703
0.2797687642
0.2797683729
0.2797639539
0.2797678914
0.2797705303
0.2797746551
0.279777697
0.2797811945
0.2797782875
0.2797747861
0.2797687863
0.2797688206
0.2797695168
0.2797721285
0.2797786415
0.2797827048
0.2797847033
0.279783555
0.2797776502
0.279773918
0.279770183
0.2797708846
0.2797749326
0.2797802293
0.279784901
0.280816344
0.2797860055
0.2797791784
0.2797737912
0.2797696826
0.2797698478
0.2797738511
0.279777316
0.2797840546
0.2797849438
0.2797828401
0.2797792074
0.2797722928
0.2797691786
0.2797673528
0.2797694344
0.279774691
0.2797767644
0.2797810017
0.2797782546
0.2797733467
0.2797711554
0.2797682116
0.2797657007
0.2797676504
0.2797701019
0.2797728273
0.2797739662
0.2797740888
0.2797702908
0.2797681313
0.2797649972
0.2797634145
0.2797654458
0.2797671407
0.2797720134
0.2797721499
0.2797700211
0.2797678185
0.2797656694
0.2797639555
)
;
    }
    procBoundary1to0
    {
        type            processor;
        value           nonuniform List<scalar> 
97
(
0.2797544373
0.2797544373
0.2797550612
0.2797553935
0.2797556378
0.2797552143
0.2797546173
0.2797553975
0.2797545625
0.2797537715
0.2797548962
0.2797543084
0.2797543084
0.2797543084
0.2797546623
0.2797577113
0.2797586691
0.279757875
0.2797541985
0.2797562586
0.279753285
0.2797548908
0.2797552546
0.2797586933
0.2797586933
0.2797586933
0.2797638102
0.2797752383
0.2797644045
0.2797585536
0.279754422
0.2797560273
0.279754542
0.2797546196
0.2797589201
0.279788214
0.279788214
0.279788214
0.2798561196
0.2797892141
0.2797636371
0.2797581468
0.2797556803
0.2797550588
0.2797569966
0.2797617475
0.2797811347
0.2800925338
0.2800925338
0.2800925338
0.2798577022
0.2798577022
0.2797732749
0.279758383
0.2797545954
0.2797548112
0.2797562331
0.279757617
0.2797672396
0.2797812219
0.2797660697
0.2797652692
0.2797652692
0.2797652692
0.2797564289
0.279754678
0.2797543777
0.2797542018
0.2797564558
0.2797569119
0.2797627029
0.2797583509
0.2797551288
0.2797566536
0.2797566536
0.2797566536
0.2797554642
0.2797549211
0.2797551474
0.2797548735
0.2797552722
0.2797559264
0.2797566479
0.2797550187
0.279755586
0.2797543154
0.2797543154
0.2797543154
0.2797540691
0.2797547065
0.2797540306
0.2797569554
0.2797563219
0.2797549625
0.279754818
0.2797548752
0.2797546222
)
;
    }
}


// ************************************************************************* //
