/*--------------------------------*- C++ -*----------------------------------*\
| =========                 |                                                 |
| \\      /  F ield         | OpenFOAM: The Open Source CFD Toolbox           |
|  \\    /   O peration     | Version:  4.x                                   |
|   \\  /    A nd           | Web:      www.OpenFOAM.org                      |
|    \\/     M anipulation  |                                                 |
\*---------------------------------------------------------------------------*/
FoamFile
{
    version     2.0;
    format      ascii;
    class       volVectorField;
    location    "7000";
    object      U;
}
// * * * * * * * * * * * * * * * * * * * * * * * * * * * * * * * * * * * * * //

dimensions      [0 1 -1 0 0 0 0];

internalField   nonuniform List<vector> 
1174
(
(0.01100016459 -4.037213574e-09 -2.903821791e-09)
(0.01100017132 -6.804259305e-09 -5.944457565e-09)
(0.01100018488 -4.502529664e-09 -3.775050493e-09)
(0.01100018021 -5.082795185e-09 -2.092147862e-09)
(0.01100016493 -4.32347548e-09 -2.847108902e-09)
(0.01100014516 -2.465901341e-09 -1.523907996e-09)
(0.01100011363 -1.516811558e-09 -2.704215299e-10)
(0.01100008308 -1.211324992e-09 -8.149544275e-10)
(0.01100004944 1.943652461e-09 9.357051646e-10)
(0.01100001033 -2.750944939e-10 2.286713946e-09)
(0.01099997005 2.324290401e-09 1.769718425e-09)
(0.01099992799 1.009716371e-09 2.52305064e-09)
(0.01099989567 3.313078779e-09 4.070626796e-09)
(0.01099985551 2.615824507e-09 3.153303252e-09)
(0.01100017525 -2.849084937e-08 -2.709027653e-09)
(0.01100016615 -2.766470327e-08 -6.174541802e-09)
(0.01100017384 -1.893774495e-08 -4.544577644e-09)
(0.01100015386 -1.36256054e-08 -2.349727054e-09)
(0.01100013236 -9.513534789e-09 -3.664549932e-10)
(0.01100009897 -4.830660269e-09 -8.984080917e-10)
(0.01100005943 -1.620407926e-09 9.431572923e-10)
(0.01100002197 -1.506807718e-09 2.020954093e-10)
(0.01099997964 7.15164e-10 6.691647426e-10)
(0.01099993933 9.572880199e-10 1.013869585e-09)
(0.01099989893 2.014148882e-09 1.258339334e-09)
(0.01099985743 3.571605558e-09 1.879161773e-09)
(0.01099982579 4.721523147e-09 2.026917227e-09)
(0.01099978991 5.080288007e-09 1.678908162e-09)
(0.01100019575 -1.866248931e-08 -1.147625317e-08)
(0.01100015958 -2.407996169e-08 -1.251246137e-08)
(0.01100014796 -1.657106447e-08 -9.338196653e-09)
(0.01100010737 -8.98460019e-09 -5.093196787e-09)
(0.0110000638 -5.053944605e-09 6.317893904e-10)
(0.01100000903 -2.972604309e-09 -2.672237911e-09)
(0.01099995624 6.457435462e-10 1.001582129e-11)
(0.01099990881 2.447207097e-09 1.492628609e-10)
(0.01099986343 1.702190692e-09 -1.008361205e-09)
(0.01099981958 1.317254076e-09 -6.642643682e-10)
(0.01099978454 2.608479979e-09 -1.272064866e-09)
(0.01099974705 3.206769487e-09 1.541923626e-09)
(0.01099971989 4.824869169e-09 1.928026223e-09)
(0.01099969247 5.201634542e-09 5.886397498e-10)
(0.01100020293 -3.125228293e-08 5.918014062e-09)
(0.0110001164 -2.140711695e-08 -1.579601176e-08)
(0.01100009372 -8.881775772e-09 -7.044346937e-09)
(0.01100002928 -3.866992179e-09 -3.158254423e-09)
(0.01099996642 -7.957430965e-10 -2.368184589e-09)
(0.0109999046 2.191939922e-09 2.830308835e-09)
(0.01099984379 2.776886662e-09 1.642710214e-09)
(0.01099979217 2.699903957e-09 2.886560981e-09)
(0.01099974795 1.578459879e-09 1.11333962e-09)
(0.01099970718 1.422069179e-09 1.328411838e-09)
(0.01099967215 2.318655051e-09 2.023765996e-09)
(0.01099964419 2.914890137e-09 2.360016609e-09)
(0.01099962265 5.526569683e-09 3.541714889e-09)
(0.01099960288 4.045551168e-09 3.032536574e-09)
(0.0110002775 3.613614093e-10 8.651437883e-09)
(0.01100011664 1.765572377e-10 -6.826414155e-09)
(0.01100006891 -8.772741655e-10 -1.146479871e-09)
(0.01099998988 5.035814819e-10 2.552639914e-09)
(0.01099991519 1.872057227e-09 3.082203202e-09)
(0.01099984681 -1.246325633e-09 1.277827345e-09)
(0.01099978611 -2.114161986e-09 2.065231291e-09)
(0.01099973724 -6.488609124e-10 2.226182754e-09)
(0.01099969468 -7.399312278e-10 9.667910374e-10)
(0.01099965673 3.289183058e-10 2.415433895e-09)
(0.01099962621 -9.02050024e-10 1.026964415e-10)
(0.0109996014 -4.03290494e-10 1.30104047e-09)
(0.01099958333 1.766119955e-09 -3.396024424e-10)
(0.01099956761 4.098380956e-10 6.699807155e-10)
(0.01100019966 3.291267293e-08 5.359809229e-09)
(0.01100011511 2.243220569e-08 -1.542501663e-08)
(0.01100009149 9.078133329e-09 -7.326405868e-09)
(0.01100003072 2.567547372e-09 -3.094516977e-09)
(0.01099996629 -1.284217694e-10 -2.04606428e-10)
(0.01099990314 -1.637699112e-09 4.049488333e-09)
(0.0109998441 -5.456912866e-10 4.223640478e-09)
(0.01099979043 -2.054609923e-09 3.397882455e-09)
(0.01099974677 -1.652481145e-09 3.782521523e-09)
(0.01099970719 -7.092755091e-10 2.686588073e-09)
(0.01099967346 -1.965550211e-09 2.497464844e-09)
(0.01099964603 -2.723933159e-09 4.219949182e-09)
(0.01099962265 -4.049587259e-09 2.585068176e-09)
(0.01099960218 -2.33440535e-09 1.824652001e-09)
(0.01100019087 1.832606089e-08 -8.439555369e-09)
(0.01100015596 2.576127251e-08 -1.152021975e-08)
(0.01100014709 1.750139878e-08 -5.901233237e-09)
(0.01100010726 1.092291394e-08 -2.172690029e-09)
(0.01100006371 5.984710044e-09 -1.304118728e-09)
(0.01100000964 1.059560415e-09 -2.839339681e-10)
(0.01099995806 1.161789828e-09 1.578294923e-09)
(0.01099990686 6.566260844e-10 1.44489146e-09)
(0.01099986199 -2.087894772e-09 3.721973615e-09)
(0.01099982127 -3.328024266e-09 2.382383289e-09)
(0.01099978222 -4.623563235e-09 2.82297943e-09)
(0.01099975023 -3.127935495e-09 3.178171972e-09)
(0.01099971799 -6.368164621e-09 3.694066002e-09)
(0.01099969322 -5.582117085e-09 4.041645292e-09)
(0.01100017246 2.840792683e-08 -3.855115573e-09)
(0.01100016338 2.594903027e-08 -6.357522593e-09)
(0.01100017037 1.831266006e-08 -5.611422831e-09)
(0.01100015294 1.219383688e-08 -4.211818658e-09)
(0.01100013252 7.317009602e-09 -5.08834573e-09)
(0.01100009869 5.898010533e-09 -1.047331105e-09)
(0.01100006148 1.971372039e-09 -8.52835079e-10)
(0.01100001962 -8.724423014e-10 2.899725584e-10)
(0.01099997928 1.493134925e-09 1.394614977e-09)
(0.01099993876 -2.837068903e-09 2.889090503e-09)
(0.01099989842 -2.210209663e-09 3.912201126e-09)
(0.01099986235 -2.366374061e-09 3.54596532e-09)
(0.01099982424 -3.781610098e-09 3.930515945e-09)
(0.01099978807 -4.638135078e-09 2.22370095e-09)
(0.01100016443 4.013921434e-09 -4.376086808e-09)
(0.01100017213 4.278346782e-09 -6.733838798e-09)
(0.01100018332 5.281694324e-09 -6.193729634e-09)
(0.01100017471 3.873208445e-09 -3.5282712e-09)
(0.01100016557 3.462054943e-09 -4.65350673e-09)
(0.01100014376 1.290698313e-09 -3.501169583e-09)
(0.01100011665 2.718906976e-10 -4.906795417e-10)
(0.01100008206 9.877064555e-10 5.495980835e-10)
(0.01100004738 2.231834086e-10 1.636864237e-09)
(0.01100000719 1.790747539e-09 -1.897244119e-09)
(0.01099996969 -4.058336389e-10 1.808581965e-09)
(0.01099993123 -1.818457275e-09 1.065661314e-09)
(0.01099989204 -1.8706204e-09 5.581096615e-10)
(0.0109998545 -1.739570041e-09 1.28830435e-09)
(0.01100011391 -2.120592858e-08 -5.766920023e-08)
(0.01100017505 -1.480217771e-09 -2.857092614e-08)
(0.01100016665 -6.841350468e-09 -2.606893151e-08)
(0.01100017495 -5.226694882e-09 -1.790676137e-08)
(0.01100015476 -4.650631806e-09 -1.193459014e-08)
(0.01100012987 -2.645282049e-09 -7.187119994e-09)
(0.01100009791 -3.341214816e-10 -2.839044688e-09)
(0.01100005778 9.963860993e-10 -1.365385966e-09)
(0.01100002147 2.820846236e-10 -6.636013758e-11)
(0.0109999783 2.258458689e-09 1.581167011e-09)
(0.01099994033 2.609761531e-09 3.453018392e-10)
(0.01099990031 1.150324719e-09 4.630871389e-09)
(0.01099985847 2.828822279e-09 4.756986097e-09)
(0.01099982477 4.284106678e-09 5.65256485e-09)
(0.01099978903 3.466497901e-09 5.881918995e-09)
(0.01100018182 -3.255302293e-08 -3.302895215e-08)
(0.01100014389 -3.419755017e-08 -3.424642115e-08)
(0.0110001366 -2.19994921e-08 -2.237294279e-08)
(0.01100009942 -1.432001276e-08 -1.270202379e-08)
(0.01100005789 -6.729773053e-09 -4.411682593e-09)
(0.01100000983 -4.043288963e-09 -2.283667027e-09)
(0.01099996299 1.26424666e-09 3.005243575e-10)
(0.01099992118 3.174161695e-09 2.370616471e-09)
(0.01099987927 3.43056493e-09 3.561461273e-09)
(0.01099984095 3.87836316e-09 2.53962817e-09)
(0.01099980259 3.928159241e-09 5.133916019e-09)
(0.01099976966 5.652082188e-09 6.656863075e-09)
(0.01099973866 6.674359863e-09 7.443075999e-09)
(0.01099971289 5.303630925e-09 7.02845468e-09)
(0.01100021046 -7.513001441e-09 -5.802316873e-08)
(0.01100009317 -3.381799246e-08 -5.229374577e-08)
(0.01100005348 -2.02029338e-08 -2.520635143e-08)
(0.01099997189 -7.886408878e-09 -9.051311516e-09)
(0.01099990354 -4.392921701e-09 8.00649924e-10)
(0.01099984133 1.738988751e-09 5.327903318e-09)
(0.01099978239 4.217801122e-09 6.972035923e-09)
(0.01099973864 5.501428793e-09 7.606603775e-09)
(0.010999701 5.179448211e-09 9.334327755e-09)
(0.01099967195 6.490106222e-09 8.389940018e-09)
(0.01099964557 5.59859485e-09 6.842910941e-09)
(0.01099962342 4.336593861e-09 6.521639499e-09)
(0.01099960223 5.19524304e-09 7.756221194e-09)
(0.01099959231 8.06907554e-09 6.758947058e-09)
(0.01100017017 -1.456064565e-08 -2.901744368e-08)
(0.01099993243 -1.549816319e-08 -5.748062404e-08)
(0.01099987732 -2.648332568e-09 -1.77624204e-08)
(0.01099977003 5.133981253e-09 9.130035587e-10)
(0.01099968959 8.030889443e-09 9.91599814e-09)
(0.01099962645 6.705667897e-09 1.315187985e-08)
(0.01099957618 5.57073347e-09 1.415940389e-08)
(0.01099954337 5.856634264e-09 1.362836696e-08)
(0.01099951948 4.0753715e-09 1.258472517e-08)
(0.0109995034 3.247697967e-09 9.611063152e-09)
(0.01099949394 3.089931808e-09 7.201625113e-09)
(0.01099948253 4.155651706e-09 7.674662768e-09)
(0.01099948319 5.580301742e-09 9.842698791e-09)
(0.01099947991 4.983654793e-09 8.521889028e-09)
(0.01100029152 3.178486818e-10 6.184615213e-09)
(0.01099984028 1.18954385e-09 -1.736893845e-08)
(0.01099975243 1.799220292e-10 1.965758723e-08)
(0.01099964071 -8.565638174e-11 2.947105097e-08)
(0.01099955996 5.559527129e-10 2.503126522e-08)
(0.01099950911 -8.071160484e-10 2.005329928e-08)
(0.01099947146 -1.102751644e-09 1.762037673e-08)
(0.0109994514 -9.641690481e-11 1.463795943e-08)
(0.01099943433 2.480332663e-10 1.249353794e-08)
(0.01099943173 -1.061556533e-09 8.700895908e-09)
(0.01099942661 -8.736089515e-10 8.610148208e-09)
(0.01099942949 -1.480681738e-09 8.321207176e-09)
(0.01099943093 1.681686069e-10 1.026888411e-08)
(0.01099943419 -2.313987835e-10 9.63326916e-09)
(0.01100016688 1.437921249e-08 -2.638478458e-08)
(0.01099993098 1.653326776e-08 -5.657395862e-08)
(0.01099987573 3.169225527e-09 -1.775853865e-08)
(0.01099977243 -4.852537671e-09 1.752658686e-09)
(0.01099968864 -6.61061115e-09 1.019678062e-08)
(0.0109996254 -6.212211783e-09 1.320413188e-08)
(0.01099957652 -3.75763843e-09 1.478612287e-08)
(0.01099954097 -5.817515998e-09 1.497388031e-08)
(0.01099951867 -3.961782367e-09 1.300106748e-08)
(0.01099950038 -3.635433402e-09 1.109174949e-08)
(0.01099949408 -3.267277795e-09 9.462458433e-09)
(0.0109994852 -3.631659583e-09 9.444294865e-09)
(0.01099948307 -4.581540779e-09 1.032835016e-08)
(0.01099947733 -4.551694474e-09 9.579026166e-09)
(0.01100020431 9.675436261e-09 -5.715249267e-08)
(0.01100009212 3.46266652e-08 -5.066722613e-08)
(0.0110000488 2.009547939e-08 -2.297297226e-08)
(0.01099997428 8.876190891e-09 -5.14912484e-09)
(0.01099990291 9.290187623e-10 1.346454073e-09)
(0.01099983943 -2.212161732e-09 7.485119292e-09)
(0.01099978462 -3.308043693e-09 8.778277915e-09)
(0.01099973868 -3.666652778e-09 9.376889767e-09)
(0.01099969819 -4.026785518e-09 1.007607248e-08)
(0.01099966695 -3.832803378e-09 7.412764809e-09)
(0.01099964469 -3.926019596e-09 8.813869852e-09)
(0.01099962378 -5.403744795e-09 7.27152122e-09)
(0.01099960321 -6.427925058e-09 8.957612218e-09)
(0.01099958761 -6.364459802e-09 6.904718387e-09)
(0.01100018207 3.356332928e-08 -3.308054863e-08)
(0.01100014001 3.31935123e-08 -3.364835158e-08)
(0.01100013508 2.236832674e-08 -2.023921881e-08)
(0.01100010014 1.304565335e-08 -1.212167547e-08)
(0.0110000569 8.293437618e-09 -6.2151948e-09)
(0.01100001167 2.074496461e-09 -2.470607068e-09)
(0.01099996398 -1.692295005e-09 1.847807889e-09)
(0.01099991844 -2.61536254e-09 4.064794868e-09)
(0.01099987739 -3.144996316e-09 4.749836348e-09)
(0.0109998371 -5.866804746e-09 4.694603805e-09)
(0.01099980034 -4.680991796e-09 5.897167842e-09)
(0.01099976807 -4.239085008e-09 6.336281894e-09)
(0.01099973732 -7.347132483e-09 6.727098306e-09)
(0.01099971083 -6.651437337e-09 6.241434646e-09)
(0.01100017011 2.700403276e-09 -2.853183897e-08)
(0.01100016572 5.557521523e-09 -2.599031407e-08)
(0.01100017096 5.325931028e-09 -1.764835688e-08)
(0.01100015428 4.158526659e-09 -1.196505625e-08)
(0.01100013051 3.217067521e-09 -7.740229342e-09)
(0.01100009791 1.042452482e-09 -3.656918207e-09)
(0.01100005956 9.50837665e-12 -9.850561005e-10)
(0.01100001779 6.405185935e-11 3.680436204e-10)
(0.01099997807 -9.10528659e-10 1.631243062e-09)
(0.01099993737 -1.122290889e-10 2.771167979e-09)
(0.0109998983 -1.136194083e-09 4.188935414e-09)
(0.01099985575 -2.253338812e-09 4.467497725e-09)
(0.01099982592 -2.744625624e-09 6.29742646e-09)
(0.0109997909 -1.240879028e-09 5.150192714e-09)
(0.01100010861 -4.538459912e-08 -6.733366186e-08)
(0.01100019596 -3.842132085e-09 -1.921822773e-08)
(0.0110001572 -1.200607872e-08 -2.668383221e-08)
(0.01100014982 -6.258989642e-09 -1.836362323e-08)
(0.01100010727 -2.085983231e-10 -1.151629417e-08)
(0.01100006062 -1.444245668e-09 -5.400175298e-09)
(0.01100000776 2.311510597e-09 -3.925293461e-09)
(0.01099995777 4.36577866e-09 6.788771253e-10)
(0.01099990939 4.890330033e-09 2.530915241e-09)
(0.01099986233 5.592185711e-09 2.212174935e-09)
(0.01099982295 5.715684928e-09 6.568731209e-09)
(0.0109997847 5.889832504e-09 5.334912945e-09)
(0.01099974854 5.628420344e-09 7.53774015e-09)
(0.01099971879 5.778271064e-09 8.047260073e-09)
(0.01099968863 6.09056101e-09 7.473499965e-09)
(0.01100010683 -2.070489678e-07 -1.109538433e-07)
(0.01100020653 -5.628691194e-08 -9.836101729e-09)
(0.01100009109 -5.052466689e-08 -3.676411212e-08)
(0.01100005018 -2.425894574e-08 -2.136209868e-08)
(0.010999973 -8.67046326e-09 -8.892290834e-09)
(0.01099990141 -1.075599601e-09 -4.458232725e-09)
(0.01099983901 5.165636479e-09 2.224178532e-10)
(0.01099978064 8.809294904e-09 4.781187889e-09)
(0.01099973998 1.031001124e-08 5.188652426e-09)
(0.0109997035 1.013624666e-08 4.91915796e-09)
(0.01099967123 1.092446434e-08 7.959914072e-09)
(0.01099964301 8.376718919e-09 6.963246954e-09)
(0.01099962425 7.195616237e-09 6.676127016e-09)
(0.01099960427 8.818732158e-09 7.864392087e-09)
(0.01099958739 9.341129856e-09 7.70068885e-09)
(0.0110002166 -1.445812207e-08 -1.700179834e-08)
(0.01099990238 -5.279534616e-08 -5.49617124e-08)
(0.01099978147 -1.264574004e-08 -1.526552096e-08)
(0.01099964446 4.181073587e-09 2.770884032e-09)
(0.01099954945 1.088734261e-08 7.903787225e-09)
(0.01099948601 1.290148817e-08 1.295984174e-08)
(0.01099944189 1.403859309e-08 1.335010976e-08)
(0.01099942305 1.266673421e-08 1.118369645e-08)
(0.01099941298 9.544276851e-09 9.164611592e-09)
(0.01099941116 8.411511992e-09 9.676144847e-09)
(0.01099941136 5.857560447e-09 8.922134058e-09)
(0.01099941802 5.538411461e-09 6.964405014e-09)
(0.01099942433 8.261933448e-09 9.63153469e-09)
(0.010999432 7.616739322e-09 8.926940489e-09)
(0.01099997157 2.743609966e-08 1.01833824e-07)
(0.01099934609 1.371788857e-08 -8.746569825e-08)
(0.01099923168 3.322818803e-08 -1.295887591e-08)
(0.01099909357 3.60406367e-08 1.76220115e-08)
(0.01099903463 2.667050237e-08 2.263961432e-08)
(0.01099902569 1.993835992e-08 2.092154152e-08)
(0.01099904235 1.446247978e-08 1.898496303e-08)
(0.01099907202 8.793592492e-09 1.57754184e-08)
(0.0109991118 7.014795191e-09 1.202705275e-08)
(0.01099915036 4.5564274e-09 9.649733551e-09)
(0.0109991893 4.63278846e-09 7.477247526e-09)
(0.0109992248 3.44894374e-09 6.329483947e-09)
(0.01099925726 4.490510469e-09 9.966076061e-09)
(0.0109992866 6.559612032e-09 9.565222292e-09)
(0.0110000668 1.436837351e-09 5.166328467e-07)
(0.01099880263 8.304825684e-10 1.728719957e-08)
(0.01099873746 1.726532645e-09 5.324148982e-08)
(0.01099867448 -9.083909536e-10 6.033034923e-08)
(0.01099869757 1.687104271e-10 3.998720984e-08)
(0.01099876304 -1.86432662e-10 2.875775029e-08)
(0.01099883215 -2.048533311e-10 2.15676754e-08)
(0.0109989054 1.274437951e-10 1.479473204e-08)
(0.0109989729 -6.001264607e-11 1.006692564e-08)
(0.0109990382 -1.655588834e-09 9.621388513e-09)
(0.01099909313 -5.799848003e-10 7.010776753e-09)
(0.01099914595 6.851447347e-10 4.145436511e-09)
(0.01099918735 2.470634585e-09 8.470367197e-09)
(0.01099922775 -8.396472054e-10 9.234712876e-09)
(0.01099997121 -2.618617922e-08 1.025591462e-07)
(0.01099934474 -1.01938938e-08 -8.401561428e-08)
(0.01099923289 -3.296429107e-08 -1.017444162e-08)
(0.01099909243 -3.229801757e-08 1.923932892e-08)
(0.0109990334 -2.536671779e-08 2.069045285e-08)
(0.01099902852 -1.721909032e-08 2.195269293e-08)
(0.01099904176 -1.371317863e-08 2.032422011e-08)
(0.01099907291 -8.707223943e-09 1.662018094e-08)
(0.01099910854 -6.581220358e-09 1.354352967e-08)
(0.01099914887 -4.558068292e-09 1.024203661e-08)
(0.01099918973 -3.380109316e-09 8.735497782e-09)
(0.01099922419 -5.533764792e-09 7.798195098e-09)
(0.0109992569 -6.789593514e-09 1.132737271e-08)
(0.01099928754 -5.973467432e-09 8.527018194e-09)
(0.01100021841 1.599394695e-08 -1.453995811e-08)
(0.01099990176 5.255925772e-08 -5.307472541e-08)
(0.01099978273 1.551933538e-08 -1.311833312e-08)
(0.01099964434 -4.096487058e-09 2.757347523e-09)
(0.01099954486 -1.012076015e-08 9.422815541e-09)
(0.01099948541 -1.332875967e-08 1.29586078e-08)
(0.01099944266 -1.245214344e-08 1.304413513e-08)
(0.01099942138 -1.148048951e-08 1.364810221e-08)
(0.01099940996 -8.965451367e-09 1.307361394e-08)
(0.0109994108 -7.778569752e-09 9.818983778e-09)
(0.01099941233 -7.457354792e-09 8.662672423e-09)
(0.0109994181 -4.766226769e-09 8.535215024e-09)
(0.01099942365 -9.282218067e-09 8.836348221e-09)
(0.0109994305 -7.795856253e-09 8.386871192e-09)
(0.01100020426 5.641503606e-08 -9.355234902e-09)
(0.01100009243 4.966998263e-08 -3.542397144e-08)
(0.0110000498 2.223837963e-08 -1.947272421e-08)
(0.01099997166 6.452275264e-09 -8.395590674e-09)
(0.01099990274 -3.686135793e-10 -2.02367834e-09)
(0.01099983985 -6.357486279e-09 4.187430918e-09)
(0.01099978249 -7.359766697e-09 3.895299742e-09)
(0.01099973705 -7.214566103e-09 5.499444351e-09)
(0.0109996992 -5.651443865e-09 7.219163699e-09)
(0.01099966859 -8.062215826e-09 7.430481704e-09)
(0.01099964358 -7.7717172e-09 5.891084682e-09)
(0.01099962168 -6.738515588e-09 6.438582165e-09)
(0.01099960468 -7.788227191e-09 6.713820957e-09)
(0.0109995856 -7.905821805e-09 6.962975098e-09)
(0.01100019208 8.572776398e-09 -1.820888412e-08)
(0.01100015799 1.255006345e-08 -2.608040963e-08)
(0.01100014611 6.572437545e-09 -1.698329486e-08)
(0.01100010697 2.520997248e-09 -1.060768172e-08)
(0.01100006193 -3.376030917e-10 -5.864948252e-09)
(0.01100001132 -1.150977146e-09 -1.697320918e-09)
(0.01099995749 -1.729229663e-09 3.212318733e-11)
(0.01099990849 -3.472982973e-09 2.283659818e-09)
(0.01099986155 -2.692654227e-09 1.305017447e-09)
(0.01099982082 -1.934052046e-09 4.178487579e-09)
(0.01099978163 -1.727035174e-09 5.019253858e-09)
(0.01099974717 -3.503409236e-09 6.682393798e-09)
(0.01099971662 -1.096801266e-09 7.9089782e-09)
(0.01099968747 -3.10009521e-09 5.855221586e-09)
(0.01100011429 -6.100050197e-08 -1.214020615e-07)
(0.01100020277 7.647292187e-09 -3.196304972e-08)
(0.011000115 -1.634473306e-08 -2.081034173e-08)
(0.0110000922 -7.774591631e-09 -9.70647083e-09)
(0.01100003065 -2.088401846e-09 -2.168082091e-09)
(0.0109999651 2.493395958e-09 1.258136635e-09)
(0.01099990297 4.655754698e-09 3.939017128e-10)
(0.01099984339 3.777227701e-09 1.756915423e-09)
(0.01099979333 3.817125678e-09 2.389626951e-09)
(0.01099974426 3.802025102e-09 4.019360234e-09)
(0.01099970813 4.667818425e-09 2.247978225e-09)
(0.01099967403 4.973888514e-09 4.788271087e-09)
(0.01099964546 4.364951935e-09 4.221299881e-09)
(0.01099962008 3.546232523e-09 5.266764437e-09)
(0.01099959716 3.388380132e-09 4.329740871e-09)
(0.01100011098 -3.11981991e-07 -2.508094063e-07)
(0.01100016741 -2.792619655e-08 -1.392930739e-08)
(0.01099993316 -5.789532674e-08 -1.54886713e-08)
(0.01099987313 -1.79001987e-08 -3.929406851e-09)
(0.01099977186 7.240929077e-10 5.233564245e-09)
(0.01099968675 1.017279953e-08 6.328151296e-09)
(0.01099962471 1.420107423e-08 5.985317539e-09)
(0.01099957302 1.410373624e-08 6.353864621e-09)
(0.01099954416 1.396975241e-08 6.528581061e-09)
(0.01099952159 1.220668254e-08 4.350428473e-09)
(0.01099950554 1.025057846e-08 3.82051398e-09)
(0.01099949209 8.99270305e-09 4.410849421e-09)
(0.01099948453 6.862464812e-09 5.613806764e-09)
(0.0109994795 9.437882734e-09 5.490329333e-09)
(0.01099947913 9.05751945e-09 4.555751626e-09)
(0.01099999459 -4.03511055e-07 -7.508591908e-07)
(0.0109999702 1.028665783e-07 2.629103297e-08)
(0.010999344 -8.570385787e-08 1.139864909e-08)
(0.01099923011 -1.03454356e-08 3.255589592e-08)
(0.01099909411 1.625041583e-08 3.525178478e-08)
(0.01099903499 2.063969401e-08 2.821882331e-08)
(0.01099902602 2.261071961e-08 2.015952647e-08)
(0.01099903977 2.016563441e-08 1.347482172e-08)
(0.01099907424 1.610938866e-08 1.057418913e-08)
(0.01099911128 1.273866757e-08 7.858757894e-09)
(0.01099915326 8.980059971e-09 5.156595346e-09)
(0.01099918825 5.779970488e-09 4.669278182e-09)
(0.01099922543 5.85220326e-09 5.377082196e-09)
(0.01099925728 9.537202788e-09 6.487563504e-09)
(0.01099928554 9.564291674e-09 4.452140733e-09)
(0.01099856929 5.183289586e-07 5.156477306e-07)
(0.0109975986 5.533596761e-08 5.473238761e-08)
(0.01099785021 6.954956393e-08 6.973146305e-08)
(0.010997902 6.561727323e-08 6.509952814e-08)
(0.01099804978 4.199231293e-08 4.050847804e-08)
(0.01099822793 2.59221047e-08 2.550426041e-08)
(0.01099839436 1.712674603e-08 1.604113386e-08)
(0.01099854698 1.127710749e-08 1.035878789e-08)
(0.01099867752 7.804117072e-09 7.489138199e-09)
(0.01099879542 4.21723073e-09 5.379499975e-09)
(0.0109988899 3.154988673e-09 5.361318316e-09)
(0.01099897698 2.477811906e-09 4.17578792e-09)
(0.01099904675 4.975244698e-09 6.736205825e-09)
(0.01099911068 5.965351889e-09 7.214523679e-09)
(0.0109970336 6.691982557e-10 3.182439494e-06)
(0.01099506008 2.44551961e-09 7.707621485e-07)
(0.01099634723 1.070547805e-09 2.988832711e-07)
(0.01099688853 2.153052922e-09 1.6529567e-07)
(0.01099735135 1.307025143e-09 7.402466744e-08)
(0.01099774283 1.926661246e-09 3.314667174e-08)
(0.01099804524 7.025741549e-10 1.501804303e-08)
(0.01099828532 8.058330874e-10 9.136049604e-09)
(0.01099847751 9.163653982e-10 6.504845606e-09)
(0.01099863493 4.856333013e-10 3.411664505e-09)
(0.01099876509 7.638654059e-10 2.862930141e-09)
(0.01099887569 2.830199925e-10 4.263953783e-09)
(0.01099896008 1.068047305e-09 4.78143495e-09)
(0.01099903975 2.587003974e-10 5.220354622e-09)
(0.01099857083 -5.150910711e-07 5.174929833e-07)
(0.01099759672 -5.339798081e-08 5.413133251e-08)
(0.01099784921 -6.62549736e-08 6.981860447e-08)
(0.01099789935 -6.33887177e-08 6.580779514e-08)
(0.01099804892 -4.05790108e-08 4.358278724e-08)
(0.01099822791 -2.528645607e-08 2.623222413e-08)
(0.01099839475 -1.685683196e-08 1.678666786e-08)
(0.0109985463 -1.026719852e-08 1.111649295e-08)
(0.01099867769 -5.898746725e-09 7.804256883e-09)
(0.01099879316 -5.335217686e-09 6.299515615e-09)
(0.01099889059 -3.069598884e-09 4.805901226e-09)
(0.01099897676 -1.737848093e-09 6.522588319e-09)
(0.01099904333 -5.499241846e-09 7.045766854e-09)
(0.01099911135 -6.229467777e-09 7.341286152e-09)
(0.01099996798 -1.032675556e-07 2.727548282e-08)
(0.01099934591 8.514115675e-08 1.194940704e-08)
(0.0109992285 1.164991974e-08 3.388235068e-08)
(0.01099909256 -1.919508749e-08 3.466952341e-08)
(0.01099903706 -2.271233691e-08 2.495794045e-08)
(0.01099902835 -2.189109241e-08 1.890587675e-08)
(0.01099904181 -1.85844164e-08 1.382621183e-08)
(0.0109990726 -1.518176342e-08 1.031653721e-08)
(0.01099910995 -1.004215819e-08 8.452441788e-09)
(0.01099914843 -7.80535911e-09 7.15357862e-09)
(0.01099918826 -7.052927422e-09 5.870801101e-09)
(0.01099922373 -7.980117104e-09 5.187564511e-09)
(0.01099925391 -1.021025236e-08 7.363937134e-09)
(0.01099928417 -9.37123393e-09 7.801110189e-09)
(0.01100016853 2.833047831e-08 -1.393528318e-08)
(0.01099993241 5.7489587e-08 -1.542917206e-08)
(0.01099987521 1.694765975e-08 -3.288142703e-09)
(0.01099977228 -1.172522752e-09 5.980537257e-09)
(0.01099968935 -8.711760781e-09 6.774192881e-09)
(0.01099962444 -1.315386893e-08 7.01028049e-09)
(0.01099957513 -1.389837828e-08 6.607113485e-09)
(0.01099954375 -1.265350447e-08 6.607567884e-09)
(0.01099951721 -1.317517467e-08 5.931452885e-09)
(0.01099950119 -1.037958061e-08 5.48026272e-09)
(0.01099948921 -9.774239094e-09 4.081826516e-09)
(0.01099948321 -8.303361409e-09 4.14718552e-09)
(0.01099947945 -1.084146278e-08 5.556253969e-09)
(0.01099947576 -8.427408547e-09 6.227886211e-09)
(0.01100020321 -6.917497693e-09 -3.22226562e-08)
(0.01100011624 1.544269171e-08 -2.108291457e-08)
(0.01100009181 6.699849382e-09 -1.017576347e-08)
(0.01100003004 2.544565122e-09 -2.370566325e-09)
(0.01099996893 1.176605638e-09 1.299616784e-09)
(0.01099990349 -2.516583248e-09 3.217414551e-09)
(0.01099984513 -3.370578333e-09 4.04826233e-09)
(0.01099979353 -2.764198999e-09 3.385166145e-09)
(0.01099974545 -3.561440729e-09 4.389027512e-09)
(0.01099970634 -3.52926557e-09 3.971426879e-09)
(0.01099967097 -1.695580975e-09 3.375180707e-09)
(0.01099964197 -2.946618953e-09 3.760985126e-09)
(0.01099961962 -7.271081981e-10 4.59837093e-09)
(0.01099959457 -3.321751583e-09 5.571164424e-09)
(0.01100011979 -1.694306279e-07 -1.223649779e-10)
(0.01100027512 1.099751771e-08 2.204296922e-09)
(0.01100011809 -8.994010868e-09 3.251158683e-09)
(0.01100006689 3.403991937e-09 3.012897486e-09)
(0.01099998929 6.305850861e-09 9.666496841e-10)
(0.01099991177 5.545102301e-09 -1.783179022e-10)
(0.01099984732 8.365123464e-09 1.666175377e-09)
(0.0109997879 8.36593386e-09 1.608856812e-09)
(0.01099973781 6.703882671e-09 1.614915003e-09)
(0.01099969496 5.904143803e-09 2.511557416e-09)
(0.01099965853 4.519228433e-09 2.700711888e-09)
(0.01099962659 4.382403744e-09 8.134566969e-10)
(0.01099960161 6.047997491e-09 -1.792058295e-11)
(0.01099958067 5.123910369e-09 3.208248276e-10)
(0.01099956206 4.800419094e-09 -3.377105144e-10)
(0.01100012384 -8.202386023e-07 -1.498751869e-10)
(0.01100028891 7.52804105e-09 -1.487782933e-09)
(0.01099983988 -1.680609679e-08 2.111955591e-09)
(0.01099975095 1.856605996e-08 2.193239948e-09)
(0.01099963798 2.874121348e-08 8.849165319e-11)
(0.0109995577 2.545380314e-08 8.460298923e-10)
(0.01099950688 2.315765007e-08 1.429950683e-09)
(0.01099946928 1.877399469e-08 2.656115577e-09)
(0.01099945098 1.525279896e-08 2.480723936e-09)
(0.01099943672 1.197446954e-08 2.888649991e-09)
(0.01099943234 1.114224397e-08 1.233677227e-09)
(0.01099942724 8.121999989e-09 -8.632494782e-11)
(0.01099942609 6.836899517e-09 2.081203977e-09)
(0.01099942825 8.792115011e-09 4.386388998e-10)
(0.01099943235 8.82441464e-09 -1.606321401e-09)
(0.01099981991 -1.564510558e-06 1.322731937e-09)
(0.01100006613 5.162880617e-07 3.307857406e-10)
(0.01099880008 1.801757995e-08 1.441119163e-09)
(0.01099873684 5.374994292e-08 1.227210886e-09)
(0.01099867607 5.957795253e-08 1.920203244e-09)
(0.01099869749 4.216820897e-08 1.631291162e-09)
(0.01099875704 2.90312437e-08 -7.882476008e-10)
(0.01099883151 2.017104737e-08 7.509138275e-10)
(0.01099890397 1.320560501e-08 3.641811646e-09)
(0.01099897329 1.073054796e-08 2.240606766e-09)
(0.01099903685 7.223858567e-09 2.201038672e-09)
(0.01099909362 5.843041441e-09 2.941499446e-09)
(0.01099914399 3.775248125e-09 2.782628221e-09)
(0.01099918468 8.457395188e-09 1.219939089e-09)
(0.01099922592 1.106874536e-08 1.478517001e-09)
(0.01099668526 -7.660023922e-06 1.530853938e-09)
(0.01099703005 3.184287896e-06 4.332126382e-10)
(0.01099506132 7.713819401e-07 -3.667856015e-10)
(0.01099634389 3.001169683e-07 2.742212397e-10)
(0.01099688846 1.65564546e-07 6.770365295e-10)
(0.01099734787 7.486979226e-08 1.851301888e-09)
(0.01099774187 3.380826296e-08 1.964515326e-09)
(0.01099804479 1.504515864e-08 -6.497462568e-11)
(0.01099828847 9.047401689e-09 7.204653004e-10)
(0.01099847858 5.330907329e-09 3.641177248e-09)
(0.01099863811 2.232941125e-09 2.071185464e-09)
(0.01099876245 1.024983074e-09 2.844115039e-09)
(0.01099887266 2.832118281e-09 2.512646244e-09)
(0.01099896082 6.455262686e-09 1.141925089e-09)
(0.01099903786 6.245058074e-09 7.947767084e-10)
(0.01099306346 9.040505761e-10 -4.085654035e-10)
(0.01098684383 -8.972003726e-10 2.121674798e-10)
(0.01099281472 1.933725555e-10 2.847164217e-10)
(0.01099507256 1.592944267e-09 5.773625115e-10)
(0.01099628246 3.493256371e-10 2.140418357e-09)
(0.01099707932 5.023589835e-10 2.052166268e-09)
(0.0109976057 1.576870796e-09 -5.104527838e-10)
(0.01099797473 -8.632624452e-11 1.393817514e-10)
(0.01099824793 -1.640706992e-10 1.676384645e-09)
(0.01099845804 -7.1914038e-10 1.257631388e-09)
(0.01099862508 -9.335134206e-10 2.146248696e-09)
(0.0109987603 -6.524639938e-10 1.75468455e-09)
(0.01099886594 4.151046746e-10 1.465283869e-09)
(0.01099896689 -1.49949835e-09 2.324388014e-10)
(0.01099703271 -3.182776784e-06 -7.742978917e-10)
(0.01099506136 -7.692239247e-07 -9.104326005e-10)
(0.01099634424 -2.993838334e-07 -9.321128957e-10)
(0.01099688652 -1.654482411e-07 3.895468245e-10)
(0.01099735068 -7.340090795e-08 1.304888291e-09)
(0.01099774251 -3.255280992e-08 8.807134191e-10)
(0.0109980412 -1.425320566e-08 1.9844053e-09)
(0.01099828714 -6.61729975e-09 1.486663518e-10)
(0.01099847926 -4.055023985e-09 2.0262463e-09)
(0.01099863462 -1.993360995e-09 1.455705572e-09)
(0.01099876273 -8.31712902e-10 2.575342031e-09)
(0.01099887084 -1.99638012e-09 1.527446898e-09)
(0.01099896007 -5.114794484e-09 5.920281246e-10)
(0.01099903896 -5.140204662e-09 8.272725679e-10)
(0.01100006206 -5.174009602e-07 -6.637560202e-10)
(0.01099879818 -1.834496782e-08 -5.669345254e-10)
(0.0109987369 -5.35975873e-08 -2.200394396e-09)
(0.01099867489 -6.002439026e-08 9.770797584e-10)