/*--------------------------------*- C++ -*----------------------------------*\
| =========                 |                                                 |
| \\      /  F ield         | OpenFOAM: The Open Source CFD Toolbox           |
|  \\    /   O peration     | Version:  4.x                                   |
|   \\  /    A nd           | Web:      www.OpenFOAM.org                      |
|    \\/     M anipulation  |                                                 |
\*---------------------------------------------------------------------------*/
FoamFile
{
    version     2.0;
    format      ascii;
    class       volScalarField;
    location    "7000";
    object      X_CO;
}
// * * * * * * * * * * * * * * * * * * * * * * * * * * * * * * * * * * * * * //

dimensions      [0 0 0 0 0 0 0];

internalField   nonuniform List<scalar> 
1174
(
0.3728717912
0.3728700939
0.3728676952
0.3728645641
0.3728607333
0.3728562875
0.3728513443
0.372846039
0.3728405081
0.3728348803
0.3728292749
0.3728238187
0.372818735
0.3728147384
0.3728701928
0.3728674666
0.3728638335
0.3728593771
0.3728542509
0.372848641
0.3728427365
0.3728367103
0.3728307077
0.3728248447
0.3728192129
0.3728139008
0.3728090777
0.3728053533
0.3728666572
0.3728618279
0.3728558494
0.3728490579
0.3728418187
0.3728344599
0.372827242
0.3728203501
0.3728139027
0.3728079637
0.3728025606
0.3727977096
0.372793488
0.3727903266
0.372861468
0.3728539542
0.3728453239
0.3728362088
0.3728271358
0.3728184839
0.3728104906
0.3728032777
0.3727968846
0.3727912949
0.3727864605
0.3727823266
0.3727788857
0.3727763952
0.3728577556
0.3728487649
0.3728389538
0.3728290142
0.3728194469
0.3728105722
0.3728025651
0.3727954927
0.37278935
0.3727840857
0.3727796256
0.3727758918
0.372772848
0.3727706819
0.372861468
0.3728539543
0.372845324
0.3728362089
0.3728271359
0.3728184842
0.3728104908
0.372803278
0.3727968851
0.3727912954
0.3727864608
0.3727823268
0.3727788862
0.3727763956
0.3728666572
0.3728618282
0.3728558497
0.3728490583
0.372841819
0.3728344604
0.3728272425
0.3728203506
0.3728139033
0.3728079643
0.3728025611
0.3727977104
0.3727934888
0.3727903271
0.372870193
0.3728674666
0.3728638335
0.3728593773
0.3728542511
0.3728486411
0.3728427369
0.3728367107
0.3728307084
0.3728248454
0.3728192137
0.3728139017
0.3728090783
0.3728053539
0.3728717913
0.3728700941
0.3728676952
0.3728645641
0.3728607336
0.3728562877
0.3728513447
0.3728460392
0.3728405083
0.3728348807
0.3728292756
0.3728238193
0.3728187357
0.3728147394
0.372872032
0.3728701929
0.3728674666
0.3728638336
0.3728593771
0.3728542508
0.3728486409
0.3728427366
0.3728367104
0.3728307078
0.372824845
0.372819213
0.3728139008
0.3728090776
0.3728053533
0.3728665822
0.3728617836
0.3728559294
0.3728493709
0.372842462
0.3728355012
0.3728287109
0.3728222395
0.372816175
0.3728105608
0.3728054127
0.3728007442
0.3727966374
0.3727935341
0.3728574836
0.3728481398
0.372837979
0.3728278619
0.3728183796
0.3728098549
0.3728024055
0.3727960167
0.3727906006
0.3727860382
0.3727822063
0.3727789979
0.3727763627
0.3727744675
0.372841283
0.3728257195
0.3728109143
0.372797978
0.3727873006
0.3727788322
0.3727723105
0.3727674026
0.3727637808
0.3727611575
0.3727592944
0.3727580023
0.3727571378
0.3727566225
0.3728259673
0.3728072223
0.3727913375
0.372778734
0.3727691643
0.3727621427
0.3727571522
0.3727537282
0.3727514851
0.3727501161
0.3727493818
0.3727490971
0.3727491076
0.3727492481
0.3728412833
0.37282572
0.3728109146
0.3727979784
0.372787301
0.3727788327
0.3727723112
0.3727674032
0.3727637814
0.3727611581
0.3727592952
0.372758003
0.3727571385
0.3727566231
0.3728574837
0.3728481402
0.3728379793
0.3728278625
0.3728183802
0.3728098556
0.3728024064
0.3727960176
0.3727906013
0.3727860388
0.3727822071
0.3727789989
0.3727763637
0.3727744684
0.3728665822
0.3728617838
0.3728559298
0.3728493713
0.3728424624
0.3728355017
0.3728287112
0.37282224
0.3728161756
0.3728105614
0.3728054136
0.3728007454
0.3727966386
0.3727935352
0.372870193
0.3728674666
0.3728638335
0.3728593773
0.3728542511
0.3728486412
0.3728427368
0.3728367108
0.3728307085
0.3728248456
0.3728192139
0.3728139018
0.3728090787
0.3728053546
0.3728701264
0.3728666573
0.3728618282
0.3728558498
0.3728490581
0.3728418188
0.3728344601
0.3728272422
0.3728203504
0.3728139029
0.3728079638
0.3728025606
0.3727977097
0.3727934883
0.3727903267
0.3728650228
0.3728574837
0.37284814
0.372837979
0.3728278621
0.3728183798
0.3728098551
0.3728024058
0.3727960169
0.3727906007
0.3727860383
0.3727822064
0.3727789982
0.3727763629
0.3727744676
0.3728305556
0.3728107981
0.3727928979
0.372778215
0.3727670329
0.3727590325
0.3727536472
0.3727502743
0.3727483747
0.3727475102
0.3727473429
0.3727476192
0.3727481348
0.3727486542
0.3727705449
0.3727371074
0.3727140269
0.3727003872
0.3726939665
0.37269252
0.3726942337
0.3726977912
0.3727022996
0.3727071807
0.3727120735
0.3727167452
0.3727209753
0.3727242181
0.3726917851
0.3726584561
0.3726441249
0.3726415803
0.3726456634
0.3726531221
0.3726620272
0.3726712802
0.372680281
0.3726887223
0.3726964609
0.372703426
0.3727094875
0.3727140238
0.3727705465
0.3727371089
0.3727140284
0.3727003884
0.3726939678
0.3726925215
0.3726942348
0.3726977924
0.3727023006
0.3727071819
0.3727120744
0.3727167464
0.3727209763
0.372724219
0.3728305566
0.3728107989
0.372792899
0.372778216
0.3727670339
0.3727590337
0.3727536488
0.3727502758
0.3727483762
0.3727475116
0.3727473445
0.3727476208
0.3727481364
0.3727486557
0.3728574836
0.3728481401
0.3728379794
0.3728278626
0.3728183804
0.372809856
0.3728024067
0.3727960178
0.372790602
0.3727860398
0.3727822078
0.3727789997
0.3727763645
0.3727744693
0.3728666572
0.3728618282
0.3728558496
0.3728490584
0.3728418193
0.3728344608
0.372827243
0.3728203513
0.372813904
0.372807965
0.3728025621
0.3727977112
0.3727934898
0.3727903283
0.3728672596
0.3728614679
0.3728539542
0.3728453241
0.3728362089
0.3728271359
0.3728184842
0.3728104907
0.3728032779
0.3727968848
0.3727912951
0.3727864607
0.3727823266
0.3727788858
0.3727763952
0.3728555899
0.3728412833
0.3728257197
0.3728109143
0.3727979783
0.3727873006
0.3727788323
0.3727723108
0.3727674029
0.3727637811
0.3727611576
0.3727592945
0.3727580026
0.3727571382
0.3727566227
0.372811312
0.3727705458
0.372737108
0.3727140274
0.3727003875
0.3726939667
0.3726925201
0.3726942336
0.3726977914
0.3727022998
0.372707181
0.3727120735
0.3727167454
0.3727209756
0.3727242183
0.3725644349
0.3725221486
0.3725150378
0.372527025
0.3725475622
0.3725706859
0.3725933666
0.3726142492
0.3726328643
0.3726491763
0.372663336
0.3726755288
0.3726857776
0.3726932679
0.3721590449
0.3722115846
0.3722926842
0.3723705537
0.3724367741
0.3724908226
0.3725344368
0.3725696769
0.3725983419
0.3726218593
0.3726413137
0.3726574813
0.3726707274
0.3726802518
0.3725644399
0.3725221522
0.3725150409
0.3725270278
0.3725475648
0.3725706883
0.3725933689
0.3726142512
0.3726328661
0.3726491779
0.3726633374
0.37267553
0.3726857786
0.3726932691
0.3727705462
0.372737109
0.3727140289
0.3727003894
0.3726939692
0.3726925228
0.3726942363
0.3726977936
0.3727023021
0.3727071832
0.3727120755
0.3727167473
0.3727209775
0.3727242199
0.3728412833
0.3728257201
0.3728109152
0.3727979795
0.372787302
0.3727788339
0.3727723125
0.3727674048
0.3727637828
0.3727611596
0.3727592966
0.3727580045
0.3727571402
0.372756625
0.372861468
0.3728539545
0.3728453243
0.3728362094
0.3728271369
0.3728184852
0.3728104918
0.3728032795
0.3727968866
0.3727912969
0.3727864623
0.3727823286
0.3727788881
0.3727763976
0.3728651045
0.3728577556
0.3728487655
0.3728389543
0.3728290145
0.3728194472
0.3728105727
0.3728025653
0.372795493
0.3727893502
0.3727840862
0.3727796261
0.3727758924
0.3727728486
0.3727706823
0.3728457244
0.3728259675
0.3728072227
0.372791338
0.3727787344
0.3727691647
0.3727621431
0.3727571523
0.3727537286
0.3727514857
0.3727501164
0.3727493823
0.3727490976
0.3727491081
0.3727492485
0.3727508962
0.372691786
0.3726584572
0.3726441259
0.3726415813
0.3726456642
0.3726531227
0.3726620277
0.3726712805
0.3726802813
0.3726887227
0.3726964613
0.3727034264
0.3727094879
0.3727140241
0.3722315252
0.3721590489
0.3722115871
0.3722926858
0.3723705549
0.3724367747
0.3724908231
0.3725344373
0.3725696773
0.3725983424
0.3726218597
0.3726413139
0.3726574816
0.3726707275
0.3726802523
0.3704092241
0.3712984179
0.371790935
0.3720793582
0.3722580479
0.3723749577
0.372455394
0.3725132482
0.3725564596
0.3725897516
0.3726160403
0.3726371479
0.3726540162
0.372665957
0.3721590464
0.3722115902
0.3722926895
0.3723705585
0.3724367782
0.3724908261
0.3725344398
0.3725696797
0.3725983444
0.3726218614
0.3726413155
0.3726574831
0.3726707291
0.372680254
0.3726917851
0.3726584581
0.3726441279
0.3726415839
0.3726456671
0.3726531257
0.3726620309
0.3726712834
0.3726802842
0.3726887255
0.3726964639
0.3727034288
0.3727094904
0.3727140266
0.3728259671
0.3728072226
0.3727913386
0.3727787355
0.3727691659
0.3727621447
0.3727571543
0.3727537306
0.3727514877
0.3727501186
0.3727493846
0.3727491
0.3727491104
0.3727492512
0.3728577554
0.3728487652
0.3728389544
0.3728290149
0.3728194479
0.3728105738
0.3728025667
0.3727954946
0.372789352
0.3727840882
0.3727796282
0.3727758945
0.3727728509
0.3727706846
0.3728672596
0.372861468
0.3728539543
0.3728453242
0.3728362091
0.3728271363
0.3728184844
0.3728104911
0.3728032784
0.3727968855
0.3727912959
0.3727864614
0.3727823275
0.3727788867
0.3727763961
0.37285559
0.3728412835
0.3728257202
0.372810915
0.372797979
0.3727873013
0.3727788331
0.3727723115
0.3727674035
0.372763782
0.3727611586
0.3727592956
0.3727580035
0.3727571391
0.3727566238
0.3728113137
0.3727705476
0.37273711
0.3727140294
0.3727003894
0.3726939689
0.3726925222
0.3726942356
0.3726977929
0.3727023012
0.3727071825
0.3727120749
0.3727167466
0.3727209769
0.3727242196
0.3726590795
0.3725644431
0.3725221548
0.372515043
0.3725270294
0.3725475662
0.3725706895
0.3725933696
0.3726142518
0.3726328666
0.3726491784
0.372663338
0.3726755307
0.3726857791
0.3726932695
0.3722315264
0.3721590506
0.3722115928
0.3722926917
0.3723705601
0.3724367796
0.372490827
0.3725344408
0.3725696803
0.3725983449
0.3726218618
0.3726413158
0.3726574835
0.3726707292
0.372680254
0.3726590782
0.3725644433
0.3725221565
0.3725150453
0.3725270318
0.3725475688
0.3725706917
0.3725933717
0.3726142538
0.3726328684
0.37264918
0.3726633395
0.3726755322
0.3726857804
0.3726932707
0.3727705454
0.3727371096
0.3727140303
0.3727003912
0.3726939708
0.3726925246
0.372694238
0.3726977956
0.3727023038
0.3727071847
0.3727120773
0.3727167491
0.3727209791
0.3727242216
0.3728412829
0.3728257199
0.3728109153
0.3727979797
0.3727873024
0.3727788349
0.3727723133
0.3727674056
0.3727637838
0.3727611606
0.3727592978
0.3727580059
0.3727571416
0.3727566262
0.3728614677
0.3728539542
0.3728453243
0.3728362093
0.3728271369
0.3728184852
0.3728104921
0.3728032797
0.3727968871
0.3727912976
0.3727864634
0.3727823296
0.3727788889
0.3727763987
0.3728701265
0.3728666572
0.3728618283
0.3728558497
0.3728490584
0.3728418193
0.3728344605
0.3728272428
0.3728203511
0.3728139039
0.3728079651
0.3728025617
0.3727977108
0.3727934896
0.3727903278
0.3728650232
0.3728574841
0.3728481406
0.3728379797
0.3728278627
0.3728183806
0.3728098559
0.3728024068
0.372796018
0.3727906021
0.3727860398
0.3727822077
0.3727789996
0.3727763644
0.3727744694
0.3728493776
0.3728305572
0.3728107996
0.3727928995
0.3727782165
0.3727670346
0.3727590344
0.3727536495
0.3727502765
0.3727483769
0.3727475123
0.3727473451
0.3727476213
0.3727481371
0.3727486566
0.3728113138
0.3727705477
0.3727371107
0.3727140305
0.3727003908
0.3726939702
0.3726925237
0.3726942371
0.3726977947
0.3727023031
0.3727071841
0.3727120765
0.3727167482
0.3727209782
0.3727242208
0.3727508967
0.3726917879
0.3726584604
0.3726441296
0.3726415854
0.3726456683
0.3726531266
0.3726620317
0.3726712842
0.372680285
0.372688726
0.3726964644
0.3727034293
0.3727094907
0.372714027
0.3728113143
0.3727705484
0.3727371117
0.3727140318
0.3727003921
0.3726939716
0.372692525
0.3726942385
0.372697796
0.3727023045
0.3727071854
0.3727120777
0.3727167492
0.3727209795
0.372724222
0.3728493772
0.3728305569
0.3728107998
0.3727929001
0.3727782174
0.3727670357
0.3727590357
0.3727536512
0.3727502782
0.3727483786
0.372747514
0.3727473468
0.3727476233
0.3727481388
0.3727486584
0.3728574834
0.3728481403
0.3728379798
0.3728278631
0.3728183813
0.3728098571
0.3728024079
0.3727960193
0.3727906034
0.3727860412
0.3727822096
0.3727790015
0.3727763664
0.3727744714
0.3728666571
0.3728618282
0.3728558497
0.3728490585
0.3728418195
0.3728344613
0.3728272437
0.3728203522
0.3728139051
0.3728079664
0.3728025635
0.3727977128
0.3727934915
0.37279033
0.372872032
0.3728701929
0.3728674666
0.3728638335
0.3728593773
0.372854251
0.3728486414
0.3728427374
0.3728367111
0.3728307088
0.3728248458
0.3728192142
0.3728139022
0.3728090791
0.3728053548
0.3728700755
0.3728665822
0.3728617839
0.3728559297
0.3728493714
0.3728424628
0.372835502
0.3728287118
0.3728222406
0.3728161764
0.3728105621
0.3728054142
0.372800746
0.3727966393
0.372793536
0.3728650231
0.3728574839
0.3728481404
0.3728379798
0.3728278629
0.3728183811
0.3728098564
0.3728024074
0.3727960186
0.3727906027
0.3727860403
0.3727822085
0.3727790005
0.3727763653
0.3727744702
0.37285559
0.3728412837
0.3728257208
0.3728109158
0.3727979799
0.3727873028
0.3727788348
0.3727723134
0.3727674056
0.3727637838
0.3727611604
0.3727592973
0.3727580053
0.372757141
0.3727566256
0.3728457246
0.3728259683
0.3728072242
0.3727913399
0.3727787368
0.3727691669
0.3727621457
0.3727571554
0.3727537315
0.3727514885
0.3727501195
0.3727493854
0.3727491006
0.3727491109
0.3727492515
0.3728555903
0.3728412842
0.3728257213
0.3728109163
0.3727979806
0.3727873034
0.3727788353
0.372772314
0.3727674062
0.3727637847
0.3727611613
0.3727592983
0.3727580064
0.3727571418
0.3727566265
0.3728650231
0.3728574842
0.3728481406
0.37283798
0.3728278633
0.3728183815
0.3728098572
0.3728024083
0.3727960196
0.3727906038
0.3727860415
0.3727822098
0.3727790018
0.3727763665
0.3727744713
0.3728700755
0.3728665824
0.372861784
0.3728559298
0.3728493717
0.3728424631
0.3728355026
0.3728287124
0.3728222414
0.3728161773
0.3728105634
0.3728054157
0.3728007475
0.3727966409
0.3727935376
0.3728701928
0.3728674666
0.3728638335
0.3728593774
0.3728542514
0.3728486418
0.3728427377
0.3728367117
0.3728307095
0.3728248468
0.3728192155
0.3728139039
0.3728090808
0.3728053566
0.372872882
0.3728717915
0.3728700939
0.3728676952
0.3728645641
0.3728607336
0.3728562878
0.3728513448
0.3728460398
0.3728405089
0.3728348813
0.3728292761
0.37282382
0.3728187364
0.37281474
0.3728720321
0.3728701931
0.3728674666
0.3728638335
0.3728593773
0.3728542511
0.3728486414
0.3728427372
0.3728367114
0.372830709
0.3728248462
0.3728192145
0.3728139027
0.3728090797
0.3728053555
0.3728701265
0.3728666574
0.3728618284
0.3728558499
0.3728490587
0.3728418196
0.3728344611
0.3728272434
0.372820352
0.3728139047
0.3728079657
0.3728025629
0.3727977121
0.3727934905
0.372790329
0.3728672597
0.3728614683
0.3728539547
0.3728453248
0.3728362098
0.3728271373
0.3728184858
0.3728104925
0.37280328
0.3727968872
0.3727912976
0.3727864632
0.3727823295
0.372778889
0.3727763985
0.3728651047
0.372857756
0.3728487658
0.3728389551
0.3728290157
0.3728194487
0.3728105744
0.3728025675
0.3727954953
0.3727893527
0.3727840891
0.3727796291
0.3727758953
0.3727728517
0.3727706854
0.3728672597
0.3728614683
0.3728539549
0.372845325
0.3728362101
0.3728271374
0.372818486
0.372810493
0.3728032805
0.3727968877
0.3727912983
0.3727864639
0.3727823301
0.3727788894
0.3727763992
0.3728701266
0.3728666574
0.3728618287
0.3728558501
0.3728490589
0.37284182
0.3728344616
0.372827244
0.3728203526
0.3728139054
0.3728079667
0.3728025638
0.3727977131
0.3727934918
0.3727903303
0.372872032
0.3728701929
0.3728674666
0.3728638337
0.3728593775
0.3728542515
0.3728486419
0.3728427377
0.372836712
0.3728307097
0.3728248471
0.3728192155
0.3728139036
0.3728090809
0.3728053568
0.3728728819
0.3728717914
0.3728700941
0.3728676954
0.3728645644
0.372860734
0.3728562883
0.3728513455
0.3728460403
0.3728405095
0.3728348821
0.372829277
0.3728238211
0.3728187377
0.3728147417
)
;

boundaryField
{
    top
    {
        type            calculated;
        value           nonuniform List<scalar> 
127
(
0.3728728819
0.3728717913
0.372870193
0.3728666572
0.372861468
0.3728577554
0.3728614677
0.3728666571
0.3728701928
0.3728717914
0.3728700941
0.3728674666
0.3728618282
0.3728539545
0.3728487652
0.3728539542
0.3728618282
0.3728674666
0.3728700941
0.3728676952
0.3728638335
0.3728558496
0.3728453243
0.3728389544
0.3728453243
0.3728558497
0.3728638335
0.3728676954
0.3728645641
0.3728593773
0.3728490584
0.3728362094
0.3728290149
0.3728362093
0.3728490585
0.3728593774
0.3728645644
0.3728607336
0.3728542511
0.3728418193
0.3728271369
0.3728194479
0.3728271369
0.3728418195
0.3728542514
0.372860734
0.3728562877
0.3728486412
0.3728344608
0.3728184852
0.3728105738
0.3728184852
0.3728344613
0.3728486418
0.3728562883
0.3728513447
0.3728427368
0.372827243
0.3728104918
0.3728025667
0.3728104921
0.3728272437
0.3728427377
0.3728513455
0.3728460392
0.3728367108
0.3728203513
0.3728032795
0.3727954946
0.3728032797
0.3728203522
0.3728367117
0.3728460403
0.3728405083
0.3728307085
0.372813904
0.3727968866
0.372789352
0.3727968871
0.3728139051
0.3728307095
0.3728405095
0.3728348807
0.3728248456
0.372807965
0.3727912969
0.3727840882
0.3727912976
0.3728079664
0.3728248468
0.3728348821
0.3728292756
0.3728192139
0.3728025621
0.3727864623
0.3727796282
0.3727864634
0.3728025635
0.3728192155
0.372829277
0.3728238193
0.3728139018
0.3727977112
0.3727823286
0.3727758945
0.3727823296
0.3727977128
0.3728139039
0.3728238211
0.3728187357
0.3728090787
0.3727934898
0.3727788881
0.3727728509
0.3727788889
0.3727934915
0.3728090808
0.3728187377
0.3728147394
0.3728053546
0.3727903283
0.3727763976
0.3727706846
0.3727763987
0.37279033
0.3728053566
0.3728147417
)
;
    }
    bottom
    {
        type            calculated;
        value           nonuniform List<scalar> 
134
(
0.372872032
0.3728701264
0.3728672596
0.3728651045
0.3728672596
0.3728701265
0.372872032
0.372872882
0.3728717912
0.3728701929
0.3728666573
0.3728614679
0.3728577556
0.372861468
0.3728666572
0.3728701929
0.3728717915
0.3728700939
0.3728674666
0.3728618282
0.3728539542
0.3728487655
0.3728539543
0.3728618283
0.3728674666
0.3728700939
0.3728676952
0.3728638336
0.3728558498
0.3728453241
0.3728389543
0.3728453242
0.3728558497
0.3728638335
0.3728676952
0.3728645641
0.3728593771
0.3728490581
0.3728362089
0.3728290145
0.3728362091
0.3728490584
0.3728593773
0.3728645641
0.3728607333
0.3728542508
0.3728418188
0.3728271359
0.3728194472
0.3728271363
0.3728418193
0.372854251
0.3728607336
0.3728562875
0.3728486409
0.3728344601
0.3728184842
0.3728105727
0.3728184844
0.3728344605
0.3728486414
0.3728562878
0.3728513443
0.3728427366
0.3728272422
0.3728104907
0.3728025653
0.3728104911
0.3728272428
0.3728427374
0.3728513448
0.372846039
0.3728367104
0.3728203504
0.3728032779
0.372795493
0.3728032784
0.3728203511
0.3728367111
0.3728460398
0.3728405081
0.3728307078
0.3728139029
0.3727968848
0.3727893502
0.3727968855
0.3728139039
0.3728307088
0.3728405089
0.3728348803
0.372824845
0.3728079638
0.3727912951
0.3727840862
0.3727912959
0.3728079651
0.3728248458
0.3728348813
0.3728292749
0.372819213
0.3728025606
0.3727864607
0.3727796261
0.3727864614
0.3728025617
0.3728192142
0.3728292761
0.3728238187
0.3728139008
0.3727977097
0.3727823266
0.3727758924
0.3727823275
0.3727977108
0.3728139022
0.37282382
0.372818735
0.3728090776
0.3727934883
0.3727788858
0.3727728486
0.3727788867
0.3727934896
0.3728090791
0.3728187364
0.3728147384
0.3728053533
0.3727903267
0.3727763952
0.3727706823
0.3727763961
0.3727903278
0.3728053548
0.37281474
)
;
    }
    side-walls
    {
        type            calculated;
        value           nonuniform List<scalar> 
261
(
0.3728717912
0.3728701928
0.3728666572
0.372861468
0.3728577556
0.372861468
0.3728666572
0.372870193
0.3728717913
0.3728700939
0.3728674666
0.3728618279
0.3728539542
0.3728487649
0.3728539543
0.3728618282
0.3728674666
0.3728700941
0.3728676952
0.3728638335
0.3728558494
0.3728453239
0.3728389538
0.372845324
0.3728558497
0.3728638335
0.3728676952
0.3728645641
0.3728593771
0.3728490579
0.3728362088
0.3728290142
0.3728362089
0.3728490583
0.3728593773
0.3728645641
0.3728607333
0.3728542509
0.3728418187
0.3728271358
0.3728194469
0.3728271359
0.372841819
0.3728542511
0.3728607336
0.3728562875
0.372848641
0.3728344599
0.3728184839
0.3728105722
0.3728184842
0.3728344604
0.3728486411
0.3728562877
0.3728513443
0.3728427365
0.372827242
0.3728104906
0.3728025651
0.3728104908
0.3728272425
0.3728427369
0.3728513447
0.372846039
0.3728367103
0.3728203501
0.3728032777
0.3727954927
0.372803278
0.3728203506
0.3728367107
0.3728460392
0.3728405081
0.3728307077
0.3728139027
0.3727968846
0.37278935
0.3727968851
0.3728139033
0.3728307084
0.3728405083
0.3728348803
0.3728248447
0.3728079637
0.3727912949
0.3727840857
0.3727912954
0.3728079643
0.3728248454
0.3728348807
0.3728292749
0.3728192129
0.3728025606
0.3727864605
0.3727796256
0.3727864608
0.3728025611
0.3728192137
0.3728292756
0.3728238187
0.3728139008
0.3727977096
0.3727823266
0.3727758918
0.3727823268
0.3727977104
0.3728139017
0.3728238193
0.372818735
0.3728090777
0.372793488
0.3727788857
0.372772848
0.3727788862
0.3727934888
0.3728090783
0.3728187357
0.3728147384
0.3728053533
0.3727903266
0.3727763952
0.3727706819
0.3727763956
0.3727903271
0.3728053539
0.3728147394
0.372872882
0.3728720321
0.3728701265
0.3728672597
0.3728651047
0.3728672597
0.3728701266
0.372872032
0.3728728819
0.3728717915
0.3728701931
0.3728666574
0.3728614683
0.372857756
0.3728614683
0.3728666574
0.3728701929
0.3728717914
0.3728700939
0.3728674666
0.3728618284
0.3728539547
0.3728487658
0.3728539549
0.3728618287
0.3728674666
0.3728700941
0.3728676952
0.3728638335
0.3728558499
0.3728453248
0.3728389551
0.372845325
0.3728558501
0.3728638337
0.3728676954
0.3728645641
0.3728593773
0.3728490587
0.3728362098
0.3728290157
0.3728362101
0.3728490589
0.3728593775
0.3728645644
0.3728607336
0.3728542511
0.3728418196
0.3728271373
0.3728194487
0.3728271374
0.37284182
0.3728542515
0.372860734
0.3728562878
0.3728486414
0.3728344611
0.3728184858
0.3728105744
0.372818486
0.3728344616
0.3728486419
0.3728562883
0.3728513448
0.3728427372
0.3728272434
0.3728104925
0.3728025675
0.372810493
0.372827244
0.3728427377
0.3728513455
0.3728460398
0.3728367114
0.372820352
0.37280328
0.3727954953
0.3728032805
0.3728203526
0.372836712
0.3728460403
0.3728405089
0.372830709
0.3728139047
0.3727968872
0.3727893527
0.3727968877
0.3728139054
0.3728307097
0.3728405095
0.3728348813
0.3728248462
0.3728079657
0.3727912976
0.3727840891
0.3727912983
0.3728079667
0.3728248471
0.3728348821
0.3728292761
0.3728192145
0.3728025629
0.3727864632
0.3727796291
0.3727864639
0.3728025638
0.3728192155
0.372829277
0.37282382
0.3728139027
0.3727977121
0.3727823295
0.3727758953
0.3727823301
0.3727977131
0.3728139036
0.3728238211
0.3728187364
0.3728090797
0.3727934905
0.372778889
0.3727728517
0.3727788894
0.3727934918
0.3728090809
0.3728187377
0.37281474
0.3728053555
0.372790329
0.3727763985
0.3727706854
0.3727763992
0.3727903303
0.3728053568
0.3728147417
)
;
    }
    inlet
    {
        type            calculated;
        value           nonuniform 0();
    }
    outlet
    {
        type            calculated;
        value           nonuniform List<scalar> 
81
(
0.3728147384
0.3728053533
0.3727903266
0.3727763952
0.3727706819
0.3727763956
0.3727903271
0.3728053539
0.3728147394
0.3728053533
0.3727935341
0.3727744675
0.3727566225
0.3727492481
0.3727566231
0.3727744684
0.3727935352
0.3728053546
0.3727903267
0.3727744676
0.3727486542
0.3727242181
0.3727140238
0.372724219
0.3727486557
0.3727744693
0.3727903283
0.3727763952
0.3727566227
0.3727242183
0.3726932679
0.3726802518
0.3726932691
0.3727242199
0.372756625
0.3727763976
0.3727706823
0.3727492485
0.3727140241
0.3726802523
0.372665957
0.372680254
0.3727140266
0.3727492512
0.3727706846
0.3727763961
0.3727566238
0.3727242196
0.3726932695
0.372680254
0.3726932707
0.3727242216
0.3727566262
0.3727763987
0.3727903278
0.3727744694
0.3727486566
0.3727242208
0.372714027
0.372724222
0.3727486584
0.3727744714
0.37279033
0.3728053548
0.372793536
0.3727744702
0.3727566256
0.3727492515
0.3727566265
0.3727744713
0.3727935376
0.3728053566
0.37281474
0.3728053555
0.372790329
0.3727763985
0.3727706854
0.3727763992
0.3727903303
0.3728053568
0.3728147417
)
;
    }
    procBoundary1to0
    {
        type            processor;
        value           nonuniform List<scalar> 
97
(
0.3728728819
0.3728728819
0.372872032
0.3728701266
0.3728672599
0.3728651048
0.37286726
0.3728701267
0.372872032
0.372872882
0.3728731181
0.3728700755
0.3728700755
0.3728700755
0.3728650233
0.3728555904
0.3728457254
0.3728555907
0.3728650235
0.3728700757
0.372872032
0.3728722562
0.3728700201
0.372849377
0.372849377
0.372849377
0.3728113145
0.3727509008
0.3728113159
0.3728493785
0.3728650232
0.3728701268
0.3728709911
0.3728660713
0.3728488312
0.3726590763
0.3726590763
0.3726590763
0.372231553
0.3726590863
0.3728113158
0.3728555908
0.3728672598
0.3728700862
0.3728623376
0.372829638
0.3726999162
0.3687126244
0.3687126244
0.3687126244
0.3722315536
0.3722315536
0.3727509006
0.3728457252
0.3728651049
0.3728709912
0.3728660712
0.3728488312
0.3727986159
0.3726999152
0.3727986168
0.3728113126
0.3728113126
0.3728113126
0.3728555902
0.3728672598
0.3728722561
0.37287002
0.3728634564
0.3728488311
0.3728296383
0.3728488316
0.3728634566
0.3728650228
0.3728650228
0.3728650228
0.3728701266
0.372873118
0.3728722379
0.37287002
0.3728660711
0.3728623377
0.3728660713
0.37287002
0.3728722378
0.3728720319
0.3728720319
0.3728720319
0.3728735077
0.372873118
0.3728722561
0.3728709912
0.3728700862
0.3728709911
0.3728722562
0.372873118
0.3728735077
)
;
    }
}


// ************************************************************************* //
