/*--------------------------------*- C++ -*----------------------------------*\
| =========                 |                                                 |
| \\      /  F ield         | OpenFOAM: The Open Source CFD Toolbox           |
|  \\    /   O peration     | Version:  4.x                                   |
|   \\  /    A nd           | Web:      www.OpenFOAM.org                      |
|    \\/     M anipulation  |                                                 |
\*---------------------------------------------------------------------------*/
FoamFile
{
    version     2.0;
    format      ascii;
    class       volScalarField;
    location    "7000";
    object      X_CO2;
}
// * * * * * * * * * * * * * * * * * * * * * * * * * * * * * * * * * * * * * //

dimensions      [0 0 0 0 0 0 0];

internalField   nonuniform List<scalar> 
1174
(
0.004153582167
0.004155279945
0.004157679155
0.004160811589
0.00416464397
0.004169091143
0.004174036729
0.004179344105
0.004184877125
0.004190507463
0.004196115593
0.004201574605
0.004206661052
0.004210660224
0.00415518092
0.004157907881
0.004161542041
0.004166000014
0.004171127997
0.004176739877
0.004182647154
0.004188675671
0.004194681046
0.004200546881
0.00420618157
0.00421149645
0.004216322229
0.004220049029
0.004158717423
0.004163548496
0.004169528624
0.004176322204
0.004183563803
0.004190925477
0.00419814613
0.004205041133
0.00421149147
0.00421743344
0.004222839465
0.004227693462
0.004231917695
0.00423508093
0.004163907835
0.004171423796
0.004180056756
0.004189174588
0.004198250571
0.004206905635
0.004214902061
0.004222118378
0.004228514642
0.004234107333
0.004238944546
0.00424308104
0.004246525056
0.004249017407
0.004167621073
0.004176614312
0.004186428237
0.004196370687
0.004205941471
0.004214819627
0.004222829712
0.004229905327
0.004236051029
0.004241318671
0.00424578185
0.004249518175
0.004252564445
0.004254732379
0.004163907755
0.004171423728
0.004180056432
0.004189174452
0.004198250386
0.004206905016
0.004214901461
0.004222117682
0.004228513642
0.004234106144
0.004238943859
0.004243080814
0.004246523926
0.00424901653
0.004158717436
0.004163547843
0.004169527932
0.004176321522
0.004183563173
0.004190924383
0.004198145153
0.004205040137
0.004211490233
0.004217432265
0.004222838437
0.004227691598
0.004231915995
0.004235079789
0.004155180535
0.004157907783
0.004161542097
0.004165999729
0.004171127638
0.004176739893
0.004182646335
0.004188674923
0.004194679608
0.004200545242
0.004206179828
0.004211494615
0.004216321011
0.004220047774
0.004153581801
0.004155279559
0.004157679289
0.004160811602
0.00416464339
0.004169090879
0.004174035751
0.004179343706
0.004184876776
0.004190506613
0.004196114114
0.004201573121
0.004206659575
0.004210657968
0.004153341027
0.004155180716
0.004157907876
0.004161541642
0.004165999894
0.00417112816
0.004176740048
0.00418264682
0.004188675424
0.004194680836
0.004200546132
0.004206181411
0.004211496618
0.004216322505
0.004220048896
0.004158792476
0.00416359269
0.004169448406
0.004176008972
0.004182920221
0.004189883624
0.004196676621
0.004203150701
0.004209218188
0.004214835289
0.004219986495
0.004224657769
0.004228767364
0.004231872687
0.004167893567
0.004177239792
0.004187403115
0.004197523558
0.004207009037
0.004215536898
0.004222989651
0.004229381361
0.00423480032
0.004239365703
0.004243200415
0.004246411633
0.004249049149
0.004250946271
0.004184097684
0.004199664828
0.004214473949
0.004227414268
0.004238095287
0.004246567387
0.004253092286
0.004258003251
0.004261627829
0.004264253487
0.004266119092
0.004267413611
0.004268280328
0.004268797197
0.004199415642
0.004218165149
0.004234054505
0.004246661857
0.004256235148
0.004263260162
0.00426825373
0.004271680707
0.004273926607
0.00427529785
0.004276034693
0.004276321397
0.004276312698
0.004276173693
0.004184097351
0.00419966401
0.004214473408
0.00422741366
0.004238094738
0.004246566504
0.004253091122
0.004258002022
0.004261626578
0.00426425225
0.004266117385
0.004267412258
0.004268278979
0.004268796069
0.004167893494
0.004177239152
0.004187402727
0.004197522235
0.004207007837
0.004215535571
0.004222987616
0.004229379423
0.004234798939
0.004239364483
0.004243198729
0.004246409433
0.004249047144
0.004250944471
0.004158792546
0.00416359237
0.004169447636
0.004176008374
0.004182919524
0.004189882714
0.004196676262
0.004203149865
0.004209217095
0.004214834295
0.004219984529
0.004224655409
0.004228764883
0.00423187045
0.004155180491
0.004157907723
0.004161542149
0.004165999662
0.00417112767
0.004176739677
0.004182646538
0.004188674698
0.004194679408
0.004200544981
0.004206179521
0.00421149427
0.00421632003
0.004220046017
0.004155247323
0.004158717358
0.004163547773
0.004169527749
0.004176321826
0.004183563586
0.004190925027
0.004198145621
0.004205040464
0.004211490963
0.004217433244
0.004222839506
0.004227693131
0.004231917217
0.004235080645
0.004160352389
0.004167893363
0.004177239347
0.004187403411
0.004197523085
0.004207008535
0.004215536656
0.004222988911
0.00422938091
0.004234800109
0.004239365606
0.00424320025
0.004246410925
0.004249048758
0.004250946072
0.004194828125
0.004214589852
0.004232494497
0.00424718157
0.004258367554
0.00426637153
0.004271760463
0.004275136147
0.004277038094
0.004277904822
0.004278074364
0.004277800008
0.00427728627
0.004276768542
0.004254850198
0.00428829459
0.004311380801
0.004325025299
0.004331449833
0.004332899213
0.00433118739
0.004327631842
0.004323125071
0.004318245302
0.004313353428
0.004308683148
0.004304454176
0.004301211902
0.004333620244
0.004366956779
0.004381293563
0.004383841942
0.004379761219
0.004372304094
0.004363400313
0.004354148369
0.004345148502
0.004336707974
0.004328970122
0.004322005732
0.004315944919
0.00431140902
0.004254847496
0.004288292134
0.004311378296
0.004325023233
0.00433144748
0.004332896016
0.004331185403
0.004327629506
0.004323122987
0.004318242882
0.004313351624
0.004308680385
0.004304451979
0.004301209957
0.004194826634
0.004214588541
0.00423249271
0.004247179689
0.00425836591
0.004266369411
0.004271757129
0.004275133017
0.004277034937
0.004277901848
0.004278070895
0.004277796487
0.004277282846
0.004276765113
0.004167893685
0.004177239376
0.004187402705
0.004197522165
0.004207007628
0.004215534611
0.004222987084
0.004229379038
0.004234797461
0.004239362322
0.004243197176
0.004246407676
0.004249045227
0.004250942317
0.00415871767
0.004163547902
0.00416952829
0.004176321329
0.0041835628
0.004190923586
0.004198144169
0.004205038677
0.004211488798
0.004217430639
0.004222836185
0.004227689878
0.004231913827
0.004235077241
0.004158114819
0.004163908048
0.004171423821
0.004180056275
0.004189174316
0.004198250425
0.004206905095
0.004214901806
0.00422211789
0.004228514242
0.00423410687
0.004238944137
0.00424308118
0.00424652478
0.004249017425
0.004169787226
0.004184096995
0.004199664452
0.004214473875
0.004227413777
0.004238095306
0.004246567042
0.004253091795
0.004258002554
0.0042616272
0.004264253254
0.004266118926
0.00426741307
0.004268279614
0.004268796783
0.004214075075
0.004254848186
0.004288293434
0.004311379996
0.004325024637
0.00433144939
0.004332899003
0.004331187825
0.00432763156
0.004323124768
0.004318244672
0.004313353506
0.004308682686
0.004304453362
0.004301211475
0.004460993882
0.004503287891
0.004510403247
0.004498417805
0.004477881414
0.004454757349
0.004432075924
0.004411192469
0.004392576647
0.004376263934
0.004362104059
0.004349910931
0.004339661537
0.004332171269
0.004866428856
0.004813889578
0.00473278603
0.004654911457
0.004588686083
0.004534633304
0.004491015851
0.004455773071
0.004427106056
0.004403586837
0.004384130981
0.004367962552
0.004354715814
0.004345191043
0.004460985917
0.004503282165
0.004510397891
0.004498412658
0.004477876346
0.004454752289
0.004432070801
0.004411188178
0.004392572633
0.004376260337
0.004362100803
0.004349908321
0.004339659366
0.004332168591
0.004254848208
0.004288291839
0.00431137722
0.004325021009
0.004331444283
0.004332893191
0.004331181996
0.004327626815
0.004323119715
0.004318239877
0.004313349042
0.004308678385
0.004304449217
0.004301208113
0.004184097385
0.004199663813
0.004214472276
0.004227411273
0.004238092485
0.004246563725
0.004253088179
0.004257998527
0.004261623429
0.004264249059
0.004266114309
0.0042674089
0.004268275096
0.004268791687
0.004163907892
0.004171423209
0.004180055758
0.004189173146
0.004198248207
0.004206902858
0.004214899468
0.00422211442
0.004228510305
0.004234102906
0.004238940778
0.00424307684
0.00424651961
0.004249011989
0.004160270478
0.004167621217
0.004176613136
0.004186427283
0.004196370229
0.004205940919
0.0042148187
0.004222829587
0.004229904899
0.004236050688
0.004241317577
0.004245780758
0.004249516845
0.004252563284
0.004254731594
0.004179654552
0.004199415222
0.004218164528
0.004234053598
0.004246661106
0.00425623438
0.004263259577
0.004268253704
0.004271680003
0.004273925406
0.00427529732
0.00427603369
0.004276320303
0.004276311662
0.004276172799
0.004274497776
0.004333617672
0.004366954353
0.00438129137
0.004383839812
0.004379759748
0.004372303004
0.004363399502
0.004354147912
0.004345147985
0.004336707208
0.004328969364
0.004322004818
0.004315944263
0.004311408433
0.004793932452
0.004866420232
0.004813884544
0.004732782913
0.00465490905
0.004588684984
0.004534632508
0.004491014962
0.004455772132
0.004427104933
0.004403585905
0.004384130496
0.004367961956
0.004354715484
0.004345190023
0.00661642816
0.005727152651
0.005234590504
0.004946141035
0.004767434657
0.004650513963
0.00457007036
0.004512210796
0.004468995237
0.004435700083
0.004409409213
0.004388300064
0.004371430494
0.004359488477
0.004866427461
0.004813880349
0.004732775973
0.004654901505
0.00458867715
0.004534625566
0.004491009159
0.004455766742
0.004427100422
0.004403581917
0.004384126936
0.004367958492
0.004354711812
0.00434518596
0.004333620647
0.00436695328
0.004381287812
0.004383834662
0.004379753521
0.004372296585
0.004363392508
0.00435414137
0.004345141626
0.004336700876
0.004328963695
0.004321999471
0.004315938506
0.004311402879
0.00419941629
0.004218164841
0.004234052137
0.004246658657
0.004256231777
0.004263255826
0.004268249136
0.004271675347
0.004273920764
0.004275292382
0.004276028577
0.004276315043
0.004276306355
0.00427616666
0.004167621477
0.004176613657
0.004186426838
0.004196369045
0.004205939138
0.004214815935
0.004222826056
0.004229901181
0.00423604662
0.004241312961
0.004245775803
0.004249512076
0.004252557929
0.004254726221
0.004158114828
0.004163907944
0.004171423769
0.00418005622
0.004189174125
0.004198249595
0.004206904902
0.004214901093
0.004222116927
0.004228512755
0.004234105258
0.00423894264
0.00424307927
0.004246522775
0.004249015599
0.004169787178
0.004184096816
0.004199663585
0.00421447276
0.004227412437
0.004238094095
0.004246565767
0.004253090506
0.00425800145
0.004261625244
0.004264251166
0.004266116561
0.004267411136
0.004268277541
0.004268794482
0.004214071976
0.004254845039
0.00428828973
0.004311376247
0.004325021147
0.004331445147
0.004332894821
0.004331183655
0.004327628697
0.004323122036
0.004318241593
0.004313350546
0.004308680039
0.004304450792
0.004301208653
0.004366328161
0.004460978866
0.004503276975
0.004510393793
0.004498409478
0.004477873401
0.004454750106
0.004432069647
0.004411187055
0.004392571724
0.004376259396
0.004362099524
0.004349906565
0.004339658324
0.004332167822
0.004793930326
0.004866417519
0.004813874632
0.004732771519
0.004654898485
0.004588674428
0.004534624076
0.00449100732
0.004455765556
0.004427099505
0.004403581402
0.004384126433
0.004367957726
0.004354711756
0.004345186228
0.004366331084
0.004460978995
0.004503273714
0.004510388948
0.004498404469
0.004477867774
0.004454745213
0.004432064814
0.004411182389
0.004392567643
0.004376255616
0.004362096142
0.004349903324
0.004339655378
0.00433216495
0.004254849503
0.004288290525
0.004311374451
0.004325017249
0.004331440874
0.004332889452
0.004331178231
0.004327622433
0.004323115869
0.004318236593
0.004313345182
0.004308674397
0.004304445532
0.004301204002
0.004184098033
0.004199663984
0.004214471831
0.004227410841
0.004238091669
0.004246561462
0.004253086287
0.004257996544
0.004261621256
0.004264246823
0.004266111591
0.004267405615
0.00426827194
0.004268788909
0.004163908389
0.004171423955
0.004180055645
0.004189173459
0.004198248155
0.0042069028
0.004214898667
0.00422211397
0.004228509062
0.00423410117
0.004238937887
0.004243074464
0.004246517908
0.00424900954
0.004155247147
0.00415871761
0.004163547917
0.004169528073
0.004176321208
0.00418356271
0.004190924312
0.004198144519
0.004205039204
0.00421148895
0.004217430475
0.004222837045
0.004227691021
0.004231914357
0.004235078511
0.004160351746
0.004167892464
0.004177238391
0.004187402101
0.004197522255
0.00420700734
0.004215535093
0.00422298697
0.00422937873
0.004234797308
0.004239362451
0.004243197365
0.00424640806
0.00424904541
0.004250942005
0.00417600115
0.004194825107
0.00421458725
0.004232491735
0.00424717893
0.004258364431
0.004266367928
0.004271755716
0.004275131369
0.004277033357
0.004277900194
0.004278069671
0.004277795466
0.004277281372
0.004276763263
0.004214071728
0.004254845051
0.00428828835
0.004311374088
0.004325018252
0.004331442278
0.004332891519
0.004331180468
0.004327624563
0.004323117647
0.004318238146
0.004313347058
0.004308676615
0.004304447885
0.004301206016
0.004274497164
0.004333614787
0.004366948626
0.00438128439
0.004383831649
0.004379751113
0.004372294756
0.004363390884
0.004354139742
0.004345139838
0.004336699998
0.004328962604
0.004321998452
0.004315937947
0.004311401944
0.0042140708
0.004254843551
0.004288286419
0.004311371128
0.004325015339
0.004331439142
0.004332888606
0.004331177152
0.004327621571
0.004323114436
0.004318235152
0.004313344081
0.004308674136
0.0043044448
0.004301203278
0.004176001714
0.00419482567
0.00421458658
0.004232490221
0.004247176724
0.004258361883
0.004266364942
0.00427175192
0.004275127529
0.004277029707
0.004277896377
0.004278065941
0.004277790927
0.004277277446
0.004276759006
0.004167894018
0.004177238924
0.004187401689
0.004197521046
0.004207005677
0.004215532447
0.004222984395
0.004229375835
0.004234794466
0.004239359115
0.00424319318
0.004246403738
0.004249040976
0.004250937478
0.004158717743
0.00416354786
0.004169528148
0.004176321101
0.004183562253
0.004190922508
0.00419814238
0.004205036659
0.004211486265
0.004217427359
0.004222833004
0.00422768624
0.004231910034
0.004235073406
0.004153340969
0.004155180734
0.004157907885
0.00416154214
0.004165999676
0.004171128002
0.004176739376
0.00418264522
0.004188674156
0.004194678809
0.004200544531
0.004206178758
0.004211493688
0.004216319403
0.004220045741
0.00415529829
0.00415879282
0.004163592209
0.004169448028
0.004176008112
0.004182918939
0.004189882361
0.004196674872
0.004203148803
0.004209215478
0.004214832648
0.004219983242
0.004224653982
0.004228763394
0.004231868778
0.004160352071
0.004167893029
0.004177238779
0.004187401992
0.00419752168
0.004207006125
0.004215534144
0.004222985719
0.004229377397
0.004234796138
0.004239361377
0.004243195617
0.00424640593
0.004249043598
0.004250940398
0.004169787279
0.004184096458
0.004199662344
0.004214471059
0.004227410489
0.004238090838
0.004246561872
0.00425308625
0.004257996808
0.004261621415
0.004264247421
0.004266112972
0.004267407289
0.004268273418
0.004268790426
0.004179654065
0.004199413795
0.004218161417
0.004234049439
0.004246656091
0.004256229844
0.004263253885
0.004268246948
0.004271673793
0.004273919418
0.004275290663
0.004276027039
0.004276313912
0.004276305445
0.004276166321
0.00416978652
0.004184095316
0.004199661391
0.004214469971
0.004227409186
0.004238089717
0.004246560872
0.004253085042
0.004257995611
0.004261619343
0.004264245307
0.004266110727
0.004267404808
0.00426827152
0.004268788442
0.004160351874
0.004167892472
0.004177238284
0.004187401379
0.004197520822
0.004207005264
0.004215532207
0.004222983676
0.004229375159
0.004234793596
0.004239358562
0.004243192689
0.004246403102
0.004249040771
0.004250937798
0.004155298082
0.004158792069
0.004163591861
0.004169447798
0.004176007361
0.004182918251
0.004189880991
0.004196673551
0.004203146841
0.004209213273
0.004214829769
0.00421997985
0.004224650564
0.00422875967
0.004231865044
0.004155180971
0.00415790796
0.004161542116
0.004165999514
0.004171126987
0.004176738194
0.004182644659
0.004188672779
0.004194677265
0.004200542363
0.004206175907
0.004211489591
0.004216315467
0.004220041528
0.004152490761
0.004153581442
0.004155279927
0.004157679395
0.004160811737
0.00416464349
0.004169090679
0.004174035822
0.004179342236
0.004184875434
0.004190505345
0.004196113258
0.004201571876
0.004206658168
0.004210656789
0.00415334068
0.004155180385
0.004157907948
0.004161542156
0.004165999793
0.004171127898
0.00417673924
0.004182645724
0.00418867354
0.004194678222
0.004200543614
0.004206178192
0.004211492403
0.004216317925
0.004220044228
0.004155247284
0.004158717059
0.004163547711
0.004169527849
0.004176320792
0.004183562278
0.004190923135
0.004198143247
0.004205037264
0.004211487279
0.004217429243
0.004222834609
0.004227687996
0.004231912342
0.004235075732
0.004158114711
0.004163907217
0.004171422922
0.004180055114
0.004189172739
0.004198247598
0.00420690191
0.004214898303
0.004222113813
0.004228509359
0.00423410179
0.004238938826
0.004243075122
0.00424651779
0.004249010238
0.004160270052
0.004167620514
0.004176612615
0.004186425785
0.004196367762
0.004205937909
0.004214815195
0.004222824817
0.004229899985
0.004236045483
0.004241311388
0.0042457742
0.004249510713
0.004252556589
0.004254724801
0.004158114591
0.004163907343
0.00417142243
0.004180054394
0.004189172027
0.00419824748
0.00420690155
0.004214897127
0.004222112547
0.004228508031
0.004234100056
0.00423893731
0.004243073647
0.004246517058
0.004249008722
0.004155246986
0.004158717082
0.004163546995
0.00416952725
0.004176320176
0.004183561289
0.004190921931
0.004198142107
0.004205035883
0.004211485682
0.004217426939
0.004222832439
0.004227685712
0.004231909517
0.004235072881
0.004153340958
0.004155180795
0.004157907876
0.004161541659
0.004165999342
0.004171126822
0.004176738203
0.004182644723
0.004188672189
0.004194676832
0.00420054168
0.004206175903
0.004211490397
0.004216315268
0.004220041251
0.004152490805
0.004153581534
0.004155279511
0.004157678947
0.004160811042
0.004164642519
0.004169089567
0.0041740341
0.004179341111
0.004184874138
0.004190503804
0.004196111209
0.004201569347
0.004206655069
0.00421065296
)
;

boundaryField
{
    top
    {
        type            calculated;
        value           nonuniform List<scalar> 
127
(
0.004152490805
0.004153581801
0.004155180491
0.00415871767
0.004163907892
0.004167621477
0.004163908389
0.004158717743
0.004155180971
0.004153581534
0.004155279559
0.004157907723
0.004163547902
0.004171423209
0.004176613657
0.004171423955
0.00416354786
0.00415790796
0.004155279511
0.004157679289
0.004161542149
0.00416952829
0.004180055758
0.004186426838
0.004180055645
0.004169528148
0.004161542116
0.004157678947
0.004160811602
0.004165999662
0.004176321329
0.004189173146
0.004196369045
0.004189173459
0.004176321101
0.004165999514
0.004160811042
0.00416464339
0.00417112767
0.0041835628
0.004198248207
0.004205939138
0.004198248155
0.004183562253
0.004171126987
0.004164642519
0.004169090879
0.004176739677
0.004190923586
0.004206902858
0.004214815935
0.0042069028
0.004190922508
0.004176738194
0.004169089567
0.004174035751
0.004182646538
0.004198144169
0.004214899468
0.004222826056
0.004214898667
0.00419814238
0.004182644659
0.0041740341
0.004179343706
0.004188674698
0.004205038677
0.00422211442
0.004229901181
0.00422211397
0.004205036659
0.004188672779
0.004179341111
0.004184876776
0.004194679408
0.004211488798
0.004228510305
0.00423604662
0.004228509062
0.004211486265
0.004194677265
0.004184874138
0.004190506613
0.004200544981
0.004217430639
0.004234102906
0.004241312961
0.00423410117
0.004217427359
0.004200542363
0.004190503804
0.004196114114
0.004206179521
0.004222836185
0.004238940778
0.004245775803
0.004238937887
0.004222833004
0.004206175907
0.004196111209
0.004201573121
0.00421149427
0.004227689878
0.00424307684
0.004249512076
0.004243074464
0.00422768624
0.004211489591
0.004201569347
0.004206659575
0.00421632003
0.004231913827
0.00424651961
0.004252557929
0.004246517908
0.004231910034
0.004216315467
0.004206655069
0.004210657968
0.004220046017
0.004235077241
0.004249011989
0.004254726221
0.00424900954
0.004235073406
0.004220041528
0.00421065296
)
;
    }
    bottom
    {
        type            calculated;
        value           nonuniform List<scalar> 
134
(
0.004153341027
0.004155247323
0.004158114819
0.004160270478
0.004158114828
0.004155247147
0.004153340969
0.004152490761
0.004153582167
0.004155180716
0.004158717358
0.004163908048
0.004167621217
0.004163907944
0.00415871761
0.004155180734
0.004153581442
0.004155279945
0.004157907876
0.004163547773
0.004171423821
0.004176613136
0.004171423769
0.004163547917
0.004157907885
0.004155279927
0.004157679155
0.004161541642
0.004169527749
0.004180056275
0.004186427283
0.00418005622
0.004169528073
0.00416154214
0.004157679395
0.004160811589
0.004165999894
0.004176321826
0.004189174316
0.004196370229
0.004189174125
0.004176321208
0.004165999676
0.004160811737
0.00416464397
0.00417112816
0.004183563586
0.004198250425
0.004205940919
0.004198249595
0.00418356271
0.004171128002
0.00416464349
0.004169091143
0.004176740048
0.004190925027
0.004206905095
0.0042148187
0.004206904902
0.004190924312
0.004176739376
0.004169090679
0.004174036729
0.00418264682
0.004198145621
0.004214901806
0.004222829587
0.004214901093
0.004198144519
0.00418264522
0.004174035822
0.004179344105
0.004188675424
0.004205040464
0.00422211789
0.004229904899
0.004222116927
0.004205039204
0.004188674156
0.004179342236
0.004184877125
0.004194680836
0.004211490963
0.004228514242
0.004236050688
0.004228512755
0.00421148895
0.004194678809
0.004184875434
0.004190507463
0.004200546132
0.004217433244
0.00423410687
0.004241317577
0.004234105258
0.004217430475
0.004200544531
0.004190505345
0.004196115593
0.004206181411
0.004222839506
0.004238944137
0.004245780758
0.00423894264
0.004222837045
0.004206178758
0.004196113258
0.004201574605
0.004211496618
0.004227693131
0.00424308118
0.004249516845
0.00424307927
0.004227691021
0.004211493688
0.004201571876
0.004206661052
0.004216322505
0.004231917217
0.00424652478
0.004252563284
0.004246522775
0.004231914357
0.004216319403
0.004206658168
0.004210660224
0.004220048896
0.004235080645
0.004249017425
0.004254731594
0.004249015599
0.004235078511
0.004220045741
0.004210656789
)
;
    }
    side-walls
    {
        type            calculated;
        value           nonuniform List<scalar> 
261
(
0.004153582167
0.00415518092
0.004158717423
0.004163907835
0.004167621073
0.004163907755
0.004158717436
0.004155180535
0.004153581801
0.004155279945
0.004157907881
0.004163548496
0.004171423796
0.004176614312
0.004171423728
0.004163547843
0.004157907783
0.004155279559
0.004157679155
0.004161542041
0.004169528624
0.004180056756
0.004186428237
0.004180056432
0.004169527932
0.004161542097
0.004157679289
0.004160811589
0.004166000014
0.004176322204
0.004189174588
0.004196370687
0.004189174452
0.004176321522
0.004165999729
0.004160811602
0.00416464397
0.004171127997
0.004183563803
0.004198250571
0.004205941471
0.004198250386
0.004183563173
0.004171127638
0.00416464339
0.004169091143
0.004176739877
0.004190925477
0.004206905635
0.004214819627
0.004206905016
0.004190924383
0.004176739893
0.004169090879
0.004174036729
0.004182647154
0.00419814613
0.004214902061
0.004222829712
0.004214901461
0.004198145153
0.004182646335
0.004174035751
0.004179344105
0.004188675671
0.004205041133
0.004222118378
0.004229905327
0.004222117682
0.004205040137
0.004188674923
0.004179343706
0.004184877125
0.004194681046
0.00421149147
0.004228514642
0.004236051029
0.004228513642
0.004211490233
0.004194679608
0.004184876776
0.004190507463
0.004200546881
0.00421743344
0.004234107333
0.004241318671
0.004234106144
0.004217432265
0.004200545242
0.004190506613
0.004196115593
0.00420618157
0.004222839465
0.004238944546
0.00424578185
0.004238943859
0.004222838437
0.004206179828
0.004196114114
0.004201574605
0.00421149645
0.004227693462
0.00424308104
0.004249518175
0.004243080814
0.004227691598
0.004211494615
0.004201573121
0.004206661052
0.004216322229
0.004231917695
0.004246525056
0.004252564445
0.004246523926
0.004231915995
0.004216321011
0.004206659575
0.004210660224
0.004220049029
0.00423508093
0.004249017407
0.004254732379
0.00424901653
0.004235079789
0.004220047774
0.004210657968
0.004152490761
0.00415334068
0.004155247284
0.004158114711
0.004160270052
0.004158114591
0.004155246986
0.004153340958
0.004152490805
0.004153581442
0.004155180385
0.004158717059
0.004163907217
0.004167620514
0.004163907343
0.004158717082
0.004155180795
0.004153581534
0.004155279927
0.004157907948
0.004163547711
0.004171422922
0.004176612615
0.00417142243
0.004163546995
0.004157907876
0.004155279511
0.004157679395
0.004161542156
0.004169527849
0.004180055114
0.004186425785
0.004180054394
0.00416952725
0.004161541659
0.004157678947
0.004160811737
0.004165999793
0.004176320792
0.004189172739
0.004196367762
0.004189172027
0.004176320176
0.004165999342
0.004160811042
0.00416464349
0.004171127898
0.004183562278
0.004198247598
0.004205937909
0.00419824748
0.004183561289
0.004171126822
0.004164642519
0.004169090679
0.00417673924
0.004190923135
0.00420690191
0.004214815195
0.00420690155
0.004190921931
0.004176738203
0.004169089567
0.004174035822
0.004182645724
0.004198143247
0.004214898303
0.004222824817
0.004214897127
0.004198142107
0.004182644723
0.0041740341
0.004179342236
0.00418867354
0.004205037264
0.004222113813
0.004229899985
0.004222112547
0.004205035883
0.004188672189
0.004179341111
0.004184875434
0.004194678222
0.004211487279
0.004228509359
0.004236045483
0.004228508031
0.004211485682
0.004194676832
0.004184874138
0.004190505345
0.004200543614
0.004217429243
0.00423410179
0.004241311388
0.004234100056
0.004217426939
0.00420054168
0.004190503804
0.004196113258
0.004206178192
0.004222834609
0.004238938826
0.0042457742
0.00423893731
0.004222832439
0.004206175903
0.004196111209
0.004201571876
0.004211492403
0.004227687996
0.004243075122
0.004249510713
0.004243073647
0.004227685712
0.004211490397
0.004201569347
0.004206658168
0.004216317925
0.004231912342
0.00424651779
0.004252556589
0.004246517058
0.004231909517
0.004216315268
0.004206655069
0.004210656789
0.004220044228
0.004235075732
0.004249010238
0.004254724801
0.004249008722
0.004235072881
0.004220041251
0.00421065296
)
;
    }
    inlet
    {
        type            calculated;
        value           nonuniform 0();
    }
    outlet
    {
        type            calculated;
        value           nonuniform List<scalar> 
81
(
0.004210660224
0.004220049029
0.00423508093
0.004249017407
0.004254732379
0.00424901653
0.004235079789
0.004220047774
0.004210657968
0.004220048896
0.004231872687
0.004250946271
0.004268797197
0.004276173693
0.004268796069
0.004250944471
0.00423187045
0.004220046017
0.004235080645
0.004250946072
0.004276768542
0.004301211902
0.00431140902
0.004301209957
0.004276765113
0.004250942317
0.004235077241
0.004249017425
0.004268796783
0.004301211475
0.004332171269
0.004345191043
0.004332168591
0.004301208113
0.004268791687
0.004249011989
0.004254731594
0.004276172799
0.004311408433
0.004345190023
0.004359488477
0.00434518596
0.004311402879
0.00427616666
0.004254726221
0.004249015599
0.004268794482
0.004301208653
0.004332167822
0.004345186228
0.00433216495
0.004301204002
0.004268788909
0.00424900954
0.004235078511
0.004250942005
0.004276763263
0.004301206016
0.004311401944
0.004301203278
0.004276759006
0.004250937478
0.004235073406
0.004220045741
0.004231868778
0.004250940398
0.004268790426
0.004276166321
0.004268788442
0.004250937798
0.004231865044
0.004220041528
0.004210656789
0.004220044228
0.004235075732
0.004249010238
0.004254724801
0.004249008722
0.004235072881
0.004220041251
0.00421065296
)
;
    }
    procBoundary1to0
    {
        type            processor;
        value           nonuniform List<scalar> 
97
(
0.004152490867
0.004152490867
0.004153341029
0.004155246845
0.00415811401
0.004160269586
0.004158113837
0.004155246746
0.004153341054
0.004152490655
0.004152254512
0.004155298121
0.004155298121
0.004155298121
0.004160351432
0.00416978632
0.004179652202
0.004169785879
0.004160351034
0.004155297743
0.004153341097
0.004153116526
0.004155353326
0.004176002072
0.004176002072
0.004176002072
0.004214069817
0.004274487306
0.004214067252
0.004175999131
0.004160351665
0.004155246516
0.004154382346
0.004159302719
0.004176546643
0.004366331266
0.004366331266
0.004366331266
0.004793864078
0.004366312585
0.004214067463
0.004169785458
0.004158114343
0.004155287363
0.004163037798
0.004195743322
0.004325479316
0.008312852656
0.008312852656
0.008312852656
0.004793864788
0.004793864788
0.004274487747
0.004179652577
0.004160269438
0.004154381847
0.004159303273
0.004176546987
0.004226770673
0.004325482086
0.004226768409
0.004214074209
0.004214074209
0.004214074209
0.004169786717
0.004158114215
0.004153116997
0.00415535361
0.004161919052
0.004176547201
0.00419574287
0.004176546062
0.004161918575
0.004160352555
0.004160352555
0.004160352555
0.004155246856
0.004152254651
0.00415313506
0.004155353504
0.004159303479
0.004163037648
0.004159303027
0.004155353484
0.004153135246
0.004153341189
0.004153341189
0.004153341189
0.004151864706
0.004152254591
0.004153116939
0.004154382026
0.004155287292
0.004154382268
0.00415311662
0.004152254661
0.004151864663
)
;
    }
}


// ************************************************************************* //
