/*--------------------------------*- C++ -*----------------------------------*\
| =========                 |                                                 |
| \\      /  F ield         | OpenFOAM: The Open Source CFD Toolbox           |
|  \\    /   O peration     | Version:  4.x                                   |
|   \\  /    A nd           | Web:      www.OpenFOAM.org                      |
|    \\/     M anipulation  |                                                 |
\*---------------------------------------------------------------------------*/
FoamFile
{
    version     2.0;
    format      ascii;
    class       volScalarField;
    location    "7000";
    object      X_N2;
}
// * * * * * * * * * * * * * * * * * * * * * * * * * * * * * * * * * * * * * //

dimensions      [0 0 0 0 0 0 0];

internalField   nonuniform List<scalar> 
1174
(
0.6229746266
0.6229746262
0.6229746256
0.6229746243
0.6229746227
0.6229746213
0.622974619
0.6229746169
0.6229746148
0.6229746122
0.6229746095
0.6229746067
0.622974604
0.6229746014
0.6229746263
0.6229746256
0.6229746245
0.6229746229
0.6229746211
0.6229746191
0.6229746164
0.622974614
0.6229746113
0.6229746084
0.6229746055
0.6229746027
0.6229746001
0.6229745977
0.6229746254
0.6229746236
0.622974622
0.6229746199
0.6229746175
0.6229746146
0.6229746119
0.6229746087
0.6229746058
0.6229746029
0.6229746
0.622974597
0.6229745943
0.6229745925
0.6229746242
0.622974622
0.6229746194
0.6229746167
0.6229746137
0.6229746104
0.6229746074
0.6229746039
0.6229746007
0.6229745978
0.622974595
0.6229745923
0.6229745893
0.6229745874
0.6229746233
0.6229746207
0.622974618
0.6229746151
0.6229746117
0.6229746082
0.6229746052
0.622974602
0.622974599
0.6229745956
0.6229745926
0.62297459
0.6229745875
0.6229745857
0.6229746242
0.622974622
0.6229746195
0.6229746167
0.6229746137
0.6229746108
0.6229746077
0.6229746043
0.6229746013
0.6229745985
0.6229745953
0.6229745924
0.6229745899
0.6229745879
0.6229746253
0.6229746239
0.6229746223
0.6229746202
0.6229746178
0.6229746152
0.6229746124
0.6229746092
0.6229746065
0.6229746035
0.6229746005
0.622974598
0.6229745952
0.6229745931
0.6229746265
0.6229746256
0.6229746244
0.622974623
0.6229746213
0.622974619
0.6229746168
0.6229746144
0.622974612
0.6229746093
0.6229746065
0.6229746037
0.6229746007
0.6229745983
0.6229746269
0.6229746264
0.6229746255
0.6229746243
0.622974623
0.6229746214
0.6229746196
0.6229746171
0.6229746149
0.6229746126
0.6229746103
0.6229746075
0.6229746047
0.6229746026
0.622974627
0.6229746264
0.6229746256
0.6229746247
0.622974623
0.622974621
0.622974619
0.6229746166
0.6229746141
0.6229746114
0.6229746089
0.6229746056
0.6229746026
0.6229745999
0.6229745978
0.6229746254
0.6229746237
0.6229746222
0.6229746201
0.6229746177
0.6229746151
0.6229746125
0.6229746098
0.6229746068
0.6229746039
0.6229746009
0.622974598
0.6229745952
0.6229745932
0.6229746229
0.6229746204
0.6229746179
0.6229746146
0.6229746113
0.6229746082
0.6229746049
0.6229746019
0.6229745991
0.6229745961
0.6229745933
0.6229745905
0.6229745882
0.6229745862
0.6229746193
0.6229746157
0.6229746118
0.6229746077
0.6229746041
0.6229746005
0.6229745972
0.6229745942
0.6229745914
0.622974589
0.6229745865
0.622974584
0.6229745818
0.6229745803
0.622974617
0.6229746125
0.622974608
0.6229746041
0.6229746006
0.6229745971
0.6229745941
0.6229745911
0.6229745883
0.622974586
0.6229745835
0.6229745815
0.6229745797
0.6229745782
0.6229746194
0.622974616
0.6229746119
0.6229746079
0.6229746043
0.6229746008
0.6229745977
0.6229745948
0.622974592
0.6229745896
0.6229745874
0.6229745847
0.6229745825
0.6229745809
0.6229746228
0.6229746207
0.6229746179
0.6229746152
0.6229746119
0.6229746088
0.622974606
0.622974603
0.6229745997
0.6229745967
0.6229745942
0.6229745917
0.6229745892
0.6229745872
0.6229746252
0.6229746238
0.6229746226
0.6229746204
0.622974618
0.6229746156
0.6229746126
0.6229746101
0.6229746073
0.6229746043
0.6229746019
0.6229745992
0.6229745965
0.6229745944
0.6229746265
0.6229746256
0.6229746244
0.6229746231
0.6229746213
0.6229746192
0.6229746167
0.6229746145
0.6229746121
0.6229746094
0.6229746066
0.6229746039
0.6229746012
0.6229745994
0.6229746263
0.6229746254
0.622974624
0.6229746225
0.6229746201
0.6229746176
0.6229746149
0.6229746121
0.6229746091
0.6229746061
0.6229746029
0.6229745999
0.6229745971
0.6229745945
0.6229745927
0.6229746248
0.622974623
0.6229746206
0.6229746176
0.6229746148
0.6229746116
0.6229746083
0.6229746053
0.6229746022
0.6229745992
0.6229745961
0.6229745934
0.6229745909
0.6229745884
0.6229745863
0.6229746163
0.6229746121
0.6229746076
0.6229746035
0.6229745996
0.6229745959
0.6229745923
0.6229745896
0.6229745872
0.622974585
0.6229745827
0.6229745808
0.6229745789
0.6229745773
0.6229746049
0.622974598
0.6229745923
0.6229745875
0.6229745837
0.6229745808
0.6229745789
0.6229745769
0.6229745753
0.622974574
0.6229745731
0.6229745717
0.6229745705
0.62297457
0.6229745947
0.6229745871
0.6229745815
0.6229745777
0.6229745754
0.6229745738
0.6229745724
0.6229745715
0.6229745705
0.6229745697
0.6229745689
0.6229745683
0.6229745676
0.6229745672
0.622974606
0.622974599
0.6229745933
0.6229745884
0.6229745848
0.6229745825
0.6229745798
0.6229745781
0.6229745764
0.6229745752
0.622974574
0.6229745732
0.6229745717
0.6229745711
0.6229746168
0.6229746125
0.6229746083
0.6229746043
0.6229746002
0.6229745969
0.622974594
0.6229745912
0.6229745889
0.6229745866
0.6229745846
0.6229745827
0.6229745808
0.6229745792
0.6229746227
0.6229746205
0.6229746179
0.6229746152
0.622974612
0.6229746093
0.6229746062
0.6229746031
0.6229746006
0.6229745979
0.622974595
0.6229745926
0.6229745903
0.6229745884
0.6229746252
0.6229746239
0.6229746221
0.6229746203
0.6229746179
0.6229746156
0.6229746129
0.62297461
0.6229746072
0.6229746043
0.6229746017
0.6229745989
0.6229745964
0.6229745945
0.6229746256
0.6229746241
0.622974622
0.6229746197
0.6229746168
0.6229746137
0.6229746107
0.6229746075
0.6229746042
0.6229746009
0.622974598
0.6229745952
0.6229745922
0.6229745894
0.6229745873
0.6229746229
0.6229746197
0.6229746159
0.6229746118
0.622974608
0.6229746041
0.6229746006
0.6229745974
0.6229745945
0.6229745917
0.6229745891
0.6229745866
0.6229745843
0.6229745822
0.6229745805
0.6229746129
0.622974606
0.6229745986
0.6229745926
0.6229745878
0.6229745839
0.6229745809
0.6229745786
0.622974577
0.6229745755
0.6229745743
0.622974573
0.622974572
0.622974571
0.6229745702
0.6229745713
0.6229745636
0.622974559
0.6229745572
0.6229745564
0.6229745567
0.6229745575
0.6229745583
0.6229745591
0.6229745598
0.62297456
0.6229745603
0.6229745609
0.6229745608
0.6229745263
0.6229745258
0.6229745298
0.6229745348
0.6229745398
0.6229745441
0.6229745473
0.62297455
0.6229745521
0.6229745539
0.6229745553
0.6229745562
0.6229745568
0.6229745571
0.6229745741
0.6229745656
0.6229745612
0.6229745595
0.6229745589
0.6229745594
0.6229745603
0.6229745607
0.6229745613
0.6229745618
0.6229745618
0.6229745617
0.6229745621
0.6229745623
0.6229746056
0.6229745991
0.6229745938
0.6229745896
0.6229745865
0.622974584
0.6229745817
0.6229745796
0.6229745782
0.6229745769
0.6229745754
0.6229745743
0.6229745733
0.622974572
0.6229746194
0.6229746161
0.6229746126
0.6229746093
0.6229746055
0.6229746024
0.6229745993
0.6229745967
0.6229745937
0.6229745914
0.6229745891
0.6229745866
0.6229745847
0.6229745833
0.6229746241
0.6229746223
0.6229746199
0.6229746174
0.6229746149
0.6229746119
0.6229746087
0.6229746061
0.6229746031
0.6229746002
0.622974597
0.6229745946
0.6229745923
0.6229745904
0.6229746251
0.6229746232
0.6229746214
0.6229746185
0.6229746153
0.6229746119
0.6229746086
0.6229746051
0.6229746021
0.6229745991
0.6229745962
0.6229745931
0.6229745907
0.6229745881
0.6229745861
0.6229746211
0.6229746172
0.6229746128
0.6229746084
0.6229746044
0.6229746009
0.6229745974
0.622974594
0.6229745914
0.6229745889
0.6229745863
0.622974584
0.6229745821
0.6229745803
0.6229745787
0.622974606
0.6229745964
0.6229745884
0.6229745827
0.6229745789
0.6229745761
0.6229745743
0.6229745728
0.6229745716
0.6229745707
0.6229745701
0.6229745693
0.6229745687
0.6229745679
0.6229745674
0.6229745424
0.6229745309
0.6229745284
0.6229745313
0.6229745361
0.6229745403
0.6229745444
0.6229745478
0.6229745505
0.6229745527
0.6229745544
0.6229745556
0.6229745565
0.622974557
0.6229745577
0.6229743478
0.6229744294
0.6229744745
0.6229745008
0.6229745175
0.6229745284
0.6229745357
0.622974541
0.6229745452
0.6229745484
0.6229745505
0.622974552
0.6229745533
0.6229745545
0.6229745262
0.6229745295
0.6229745345
0.6229745399
0.6229745446
0.6229745483
0.622974551
0.6229745536
0.6229745552
0.6229745566
0.6229745576
0.6229745584
0.6229745591
0.6229745601
0.6229745943
0.6229745886
0.6229745843
0.6229745815
0.6229745794
0.6229745777
0.6229745766
0.6229745752
0.6229745742
0.6229745736
0.6229745724
0.6229745717
0.6229745711
0.6229745705
0.6229746166
0.6229746126
0.6229746093
0.6229746058
0.6229746023
0.6229745994
0.6229745965
0.622974594
0.6229745915
0.622974589
0.6229745868
0.622974585
0.6229745832
0.6229745822
0.6229746231
0.6229746211
0.6229746188
0.622974616
0.622974613
0.6229746103
0.6229746072
0.6229746043
0.6229746014
0.6229745988
0.622974596
0.6229745934
0.6229745912
0.6229745891
0.6229746256
0.6229746241
0.6229746219
0.6229746196
0.6229746168
0.6229746141
0.6229746107
0.6229746078
0.6229746046
0.6229746017
0.6229745989
0.622974596
0.6229745932
0.6229745905
0.6229745883
0.6229746228
0.6229746196
0.6229746162
0.6229746122
0.6229746085
0.6229746046
0.6229746012
0.622974598
0.622974595
0.6229745927
0.6229745902
0.6229745878
0.6229745853
0.6229745833
0.6229745817
0.6229746143
0.6229746074
0.6229746003
0.6229745944
0.6229745895
0.622974586
0.622974583
0.6229745808
0.6229745785
0.6229745768
0.6229745759
0.6229745745
0.6229745733
0.6229745723
0.6229745718
0.6229745923
0.622974578
0.6229745682
0.6229745632
0.6229745611
0.6229745604
0.6229745604
0.6229745608
0.6229745612
0.6229745617
0.6229745622
0.6229745625
0.6229745627
0.6229745626
0.6229745627
0.6229745433
0.6229745319
0.6229745326
0.6229745368
0.6229745414
0.6229745459
0.6229745489
0.6229745519
0.6229745541
0.6229745556
0.6229745568
0.6229745578
0.6229745588
0.622974559
0.6229745598
0.6229745907
0.6229745777
0.6229745698
0.6229745658
0.6229745638
0.6229745635
0.6229745631
0.6229745634
0.6229745638
0.622974564
0.6229745643
0.6229745643
0.6229745645
0.6229745642
0.6229745643
0.6229746051
0.6229745998
0.6229745953
0.6229745916
0.6229745883
0.622974586
0.6229745838
0.622974582
0.6229745803
0.6229745787
0.6229745776
0.6229745765
0.6229745753
0.6229745744
0.6229746191
0.6229746161
0.6229746129
0.6229746095
0.622974606
0.6229746037
0.6229746004
0.6229745978
0.6229745949
0.6229745926
0.6229745906
0.6229745885
0.6229745865
0.6229745849
0.6229746239
0.6229746219
0.62297462
0.6229746172
0.622974615
0.622974612
0.6229746092
0.6229746063
0.6229746038
0.6229746012
0.6229745987
0.622974596
0.6229745932
0.6229745918
0.6229746264
0.6229746252
0.6229746238
0.6229746222
0.6229746204
0.622974618
0.6229746152
0.6229746127
0.6229746097
0.6229746072
0.6229746045
0.6229746012
0.6229745982
0.6229745961
0.6229745937
0.6229746251
0.6229746234
0.6229746211
0.6229746182
0.6229746151
0.6229746121
0.622974609
0.6229746062
0.6229746033
0.6229746006
0.6229745978
0.6229745949
0.6229745924
0.6229745901
0.6229745886
0.6229746213
0.6229746177
0.6229746132
0.6229746088
0.6229746046
0.622974601
0.6229745977
0.6229745948
0.6229745921
0.6229745897
0.6229745875
0.6229745852
0.6229745832
0.6229745816
0.6229745802
0.6229746144
0.6229746073
0.6229746009
0.6229745954
0.622974591
0.6229745875
0.6229745847
0.6229745824
0.6229745807
0.6229745793
0.6229745778
0.6229745765
0.6229745752
0.6229745739
0.6229745732
0.6229746061
0.6229745973
0.6229745909
0.622974586
0.622974583
0.6229745806
0.6229745786
0.6229745774
0.622974576
0.6229745752
0.622974574
0.622974573
0.6229745722
0.6229745714
0.622974571
0.6229746149
0.622974608
0.6229746019
0.6229745971
0.6229745925
0.6229745892
0.6229745864
0.6229745843
0.6229745824
0.6229745811
0.6229745795
0.6229745782
0.6229745766
0.6229745757
0.6229745747
0.6229746211
0.6229746174
0.6229746136
0.6229746097
0.6229746059
0.6229746024
0.6229745993
0.6229745969
0.6229745942
0.6229745917
0.6229745896
0.6229745873
0.6229745858
0.6229745838
0.6229745826
0.6229746226
0.6229746208
0.6229746185
0.6229746158
0.6229746131
0.6229746105
0.6229746077
0.6229746049
0.6229746022
0.6229745996
0.6229745973
0.6229745948
0.6229745926
0.6229745911
0.6229746252
0.6229746239
0.6229746222
0.6229746204
0.6229746182
0.6229746162
0.6229746139
0.6229746111
0.6229746087
0.6229746062
0.6229746035
0.6229746009
0.6229745985
0.6229745966
0.622974627
0.6229746263
0.6229746255
0.6229746243
0.622974623
0.622974621
0.6229746193
0.6229746174
0.6229746147
0.6229746124
0.6229746096
0.622974607
0.6229746042
0.6229746015
0.6229745994
0.6229746263
0.622974625
0.6229746239
0.6229746222
0.6229746205
0.6229746183
0.6229746157
0.6229746133
0.6229746106
0.6229746082
0.6229746052
0.6229746025
0.6229746
0.6229745973
0.6229745953
0.6229746249
0.622974623
0.6229746208
0.6229746182
0.6229746154
0.6229746128
0.6229746095
0.6229746069
0.622974604
0.6229746012
0.6229745983
0.6229745958
0.6229745936
0.6229745911
0.6229745894
0.6229746227
0.6229746198
0.6229746169
0.6229746132
0.6229746096
0.6229746064
0.6229746033
0.6229746004
0.6229745976
0.6229745948
0.6229745922
0.6229745897
0.6229745874
0.6229745856
0.6229745839
0.6229746213
0.6229746179
0.6229746144
0.6229746106
0.6229746071
0.6229746032
0.6229746004
0.6229745976
0.6229745947
0.6229745921
0.6229745899
0.6229745876
0.6229745855
0.6229745836
0.6229745822
0.6229746231
0.6229746205
0.6229746173
0.6229746137
0.6229746102
0.6229746069
0.6229746038
0.6229746009
0.6229745982
0.6229745959
0.6229745934
0.622974591
0.6229745888
0.6229745866
0.622974585
0.622974625
0.6229746234
0.6229746211
0.6229746186
0.6229746159
0.6229746132
0.6229746106
0.622974608
0.6229746052
0.6229746026
0.6229745999
0.6229745975
0.6229745951
0.6229745927
0.6229745909
0.6229746264
0.6229746255
0.6229746241
0.6229746224
0.6229746209
0.6229746187
0.6229746164
0.622974614
0.6229746117
0.6229746094
0.6229746068
0.6229746044
0.6229746019
0.6229745994
0.6229745974
0.6229746262
0.6229746255
0.6229746244
0.6229746231
0.6229746216
0.62297462
0.6229746177
0.6229746155
0.6229746133
0.6229746108
0.6229746086
0.6229746065
0.6229746038
0.6229746018
0.6229746273
0.6229746271
0.6229746261
0.6229746254
0.6229746242
0.6229746229
0.6229746215
0.6229746194
0.6229746179
0.6229746156
0.6229746133
0.6229746107
0.6229746082
0.6229746055
0.6229746032
0.6229746272
0.6229746266
0.6229746254
0.6229746243
0.6229746229
0.622974621
0.6229746193
0.6229746171
0.6229746151
0.6229746127
0.6229746101
0.6229746073
0.6229746049
0.6229746024
0.6229746003
0.6229746263
0.6229746255
0.6229746239
0.6229746223
0.6229746205
0.6229746182
0.6229746158
0.6229746133
0.6229746107
0.622974608
0.622974605
0.6229746025
0.6229745999
0.6229745971
0.6229745952
0.6229746256
0.6229746245
0.6229746223
0.6229746201
0.6229746175
0.6229746151
0.6229746123
0.6229746092
0.6229746062
0.6229746035
0.6229746006
0.6229745979
0.6229745954
0.6229745932
0.6229745913
0.6229746253
0.6229746235
0.6229746216
0.6229746191
0.6229746165
0.6229746134
0.6229746104
0.6229746076
0.6229746047
0.6229746018
0.6229745995
0.6229745967
0.622974594
0.6229745917
0.6229745898
0.6229746257
0.6229746244
0.6229746226
0.6229746206
0.6229746179
0.6229746151
0.6229746125
0.6229746099
0.622974607
0.6229746042
0.6229746017
0.6229745988
0.6229745962
0.6229745936
0.6229745921
0.6229746264
0.6229746255
0.6229746244
0.6229746226
0.6229746209
0.6229746187
0.6229746164
0.6229746139
0.6229746115
0.6229746089
0.6229746063
0.6229746037
0.6229746012
0.6229745987
0.6229745969
0.622974627
0.6229746263
0.6229746255
0.6229746246
0.6229746232
0.6229746217
0.6229746199
0.6229746176
0.6229746158
0.6229746135
0.6229746112
0.6229746086
0.622974606
0.6229746038
0.622974602
0.6229746273
0.622974627
0.6229746264
0.6229746257
0.6229746246
0.6229746235
0.6229746221
0.6229746204
0.6229746185
0.6229746163
0.6229746141
0.6229746118
0.6229746096
0.6229746072
0.6229746054
)
;

boundaryField
{
    top
    {
        type            calculated;
        value           nonuniform List<scalar> 
127
(
0.6229746273
0.6229746269
0.6229746265
0.6229746252
0.6229746241
0.6229746231
0.6229746239
0.6229746252
0.6229746262
0.622974627
0.6229746264
0.6229746256
0.6229746239
0.6229746223
0.6229746211
0.6229746219
0.6229746239
0.6229746255
0.6229746264
0.6229746255
0.6229746244
0.6229746221
0.6229746199
0.6229746188
0.62297462
0.6229746222
0.6229746244
0.6229746257
0.6229746243
0.6229746231
0.6229746203
0.6229746174
0.622974616
0.6229746172
0.6229746204
0.6229746231
0.6229746246
0.622974623
0.6229746213
0.6229746179
0.6229746149
0.622974613
0.622974615
0.6229746182
0.6229746216
0.6229746235
0.6229746214
0.6229746192
0.6229746156
0.6229746119
0.6229746103
0.622974612
0.6229746162
0.62297462
0.6229746221
0.6229746196
0.6229746167
0.6229746129
0.6229746087
0.6229746072
0.6229746092
0.6229746139
0.6229746177
0.6229746204
0.6229746171
0.6229746145
0.62297461
0.6229746061
0.6229746043
0.6229746063
0.6229746111
0.6229746155
0.6229746185
0.6229746149
0.6229746121
0.6229746072
0.6229746031
0.6229746014
0.6229746038
0.6229746087
0.6229746133
0.6229746163
0.6229746126
0.6229746094
0.6229746043
0.6229746002
0.6229745988
0.6229746012
0.6229746062
0.6229746108
0.6229746141
0.6229746103
0.6229746066
0.6229746017
0.622974597
0.622974596
0.6229745987
0.6229746035
0.6229746086
0.6229746118
0.6229746075
0.6229746039
0.6229745989
0.6229745946
0.6229745934
0.622974596
0.6229746009
0.6229746065
0.6229746096
0.6229746047
0.6229746012
0.6229745964
0.6229745923
0.6229745912
0.6229745932
0.6229745985
0.6229746038
0.6229746072
0.6229746026
0.6229745994
0.6229745945
0.6229745904
0.6229745891
0.6229745918
0.6229745966
0.6229746018
0.6229746054
)
;
    }
    bottom
    {
        type            calculated;
        value           nonuniform List<scalar> 
134
(
0.622974627
0.6229746263
0.6229746256
0.6229746251
0.6229746256
0.6229746264
0.622974627
0.6229746273
0.6229746266
0.6229746264
0.6229746254
0.6229746241
0.6229746232
0.6229746241
0.6229746252
0.6229746263
0.6229746271
0.6229746262
0.6229746256
0.622974624
0.622974622
0.6229746214
0.6229746219
0.6229746238
0.6229746255
0.6229746261
0.6229746256
0.6229746247
0.6229746225
0.6229746197
0.6229746185
0.6229746196
0.6229746222
0.6229746243
0.6229746254
0.6229746243
0.622974623
0.6229746201
0.6229746168
0.6229746153
0.6229746168
0.6229746204
0.622974623
0.6229746242
0.6229746227
0.622974621
0.6229746176
0.6229746137
0.6229746119
0.6229746141
0.622974618
0.622974621
0.6229746229
0.6229746213
0.622974619
0.6229746149
0.6229746107
0.6229746086
0.6229746107
0.6229746152
0.6229746193
0.6229746215
0.622974619
0.6229746166
0.6229746121
0.6229746075
0.6229746051
0.6229746078
0.6229746127
0.6229746174
0.6229746194
0.6229746169
0.6229746141
0.6229746091
0.6229746042
0.6229746021
0.6229746046
0.6229746097
0.6229746147
0.6229746179
0.6229746148
0.6229746114
0.6229746061
0.6229746009
0.6229745991
0.6229746017
0.6229746072
0.6229746124
0.6229746156
0.6229746122
0.6229746089
0.6229746029
0.622974598
0.6229745962
0.6229745989
0.6229746045
0.6229746096
0.6229746133
0.6229746095
0.6229746056
0.6229745999
0.6229745952
0.6229745931
0.622974596
0.6229746012
0.622974607
0.6229746107
0.6229746067
0.6229746026
0.6229745971
0.6229745922
0.6229745907
0.6229745932
0.6229745982
0.6229746042
0.6229746082
0.622974604
0.6229745999
0.6229745945
0.6229745894
0.6229745881
0.6229745905
0.6229745961
0.6229746015
0.6229746055
0.6229746014
0.6229745978
0.6229745927
0.6229745873
0.6229745861
0.6229745883
0.6229745937
0.6229745994
0.6229746032
)
;
    }
    side-walls
    {
        type            calculated;
        value           nonuniform List<scalar> 
261
(
0.6229746266
0.6229746263
0.6229746254
0.6229746242
0.6229746233
0.6229746242
0.6229746253
0.6229746265
0.6229746269
0.6229746262
0.6229746256
0.6229746236
0.622974622
0.6229746207
0.622974622
0.6229746239
0.6229746256
0.6229746264
0.6229746256
0.6229746245
0.622974622
0.6229746194
0.622974618
0.6229746195
0.6229746223
0.6229746244
0.6229746255
0.6229746243
0.6229746229
0.6229746199
0.6229746167
0.6229746151
0.6229746167
0.6229746202
0.622974623
0.6229746243
0.6229746227
0.6229746211
0.6229746175
0.6229746137
0.6229746117
0.6229746137
0.6229746178
0.6229746213
0.622974623
0.6229746213
0.6229746191
0.6229746146
0.6229746104
0.6229746082
0.6229746108
0.6229746152
0.622974619
0.6229746214
0.622974619
0.6229746164
0.6229746119
0.6229746074
0.6229746052
0.6229746077
0.6229746124
0.6229746168
0.6229746196
0.6229746169
0.622974614
0.6229746087
0.6229746039
0.622974602
0.6229746043
0.6229746092
0.6229746144
0.6229746171
0.6229746148
0.6229746113
0.6229746058
0.6229746007
0.622974599
0.6229746013
0.6229746065
0.622974612
0.6229746149
0.6229746122
0.6229746084
0.6229746029
0.6229745978
0.6229745956
0.6229745985
0.6229746035
0.6229746093
0.6229746126
0.6229746095
0.6229746055
0.6229746
0.622974595
0.6229745926
0.6229745953
0.6229746005
0.6229746065
0.6229746103
0.6229746067
0.6229746027
0.622974597
0.6229745923
0.62297459
0.6229745924
0.622974598
0.6229746037
0.6229746075
0.622974604
0.6229746001
0.6229745943
0.6229745893
0.6229745875
0.6229745899
0.6229745952
0.6229746007
0.6229746047
0.6229746014
0.6229745977
0.6229745925
0.6229745874
0.6229745857
0.6229745879
0.6229745931
0.6229745983
0.6229746026
0.6229746273
0.6229746272
0.6229746263
0.6229746256
0.6229746253
0.6229746257
0.6229746264
0.622974627
0.6229746273
0.6229746271
0.6229746266
0.6229746255
0.6229746245
0.6229746235
0.6229746244
0.6229746255
0.6229746263
0.622974627
0.6229746261
0.6229746254
0.6229746239
0.6229746223
0.6229746216
0.6229746226
0.6229746244
0.6229746255
0.6229746264
0.6229746254
0.6229746243
0.6229746223
0.6229746201
0.6229746191
0.6229746206
0.6229746226
0.6229746246
0.6229746257
0.6229746242
0.6229746229
0.6229746205
0.6229746175
0.6229746165
0.6229746179
0.6229746209
0.6229746232
0.6229746246
0.6229746229
0.622974621
0.6229746182
0.6229746151
0.6229746134
0.6229746151
0.6229746187
0.6229746217
0.6229746235
0.6229746215
0.6229746193
0.6229746158
0.6229746123
0.6229746104
0.6229746125
0.6229746164
0.6229746199
0.6229746221
0.6229746194
0.6229746171
0.6229746133
0.6229746092
0.6229746076
0.6229746099
0.6229746139
0.6229746176
0.6229746204
0.6229746179
0.6229746151
0.6229746107
0.6229746062
0.6229746047
0.622974607
0.6229746115
0.6229746158
0.6229746185
0.6229746156
0.6229746127
0.622974608
0.6229746035
0.6229746018
0.6229746042
0.6229746089
0.6229746135
0.6229746163
0.6229746133
0.6229746101
0.622974605
0.6229746006
0.6229745995
0.6229746017
0.6229746063
0.6229746112
0.6229746141
0.6229746107
0.6229746073
0.6229746025
0.6229745979
0.6229745967
0.6229745988
0.6229746037
0.6229746086
0.6229746118
0.6229746082
0.6229746049
0.6229745999
0.6229745954
0.622974594
0.6229745962
0.6229746012
0.622974606
0.6229746096
0.6229746055
0.6229746024
0.6229745971
0.6229745932
0.6229745917
0.6229745936
0.6229745987
0.6229746038
0.6229746072
0.6229746032
0.6229746003
0.6229745952
0.6229745913
0.6229745898
0.6229745921
0.6229745969
0.622974602
0.6229746054
)
;
    }
    inlet
    {
        type            calculated;
        value           nonuniform 0();
    }
    outlet
    {
        type            calculated;
        value           nonuniform List<scalar> 
81
(
0.6229746014
0.6229745977
0.6229745925
0.6229745874
0.6229745857
0.6229745879
0.6229745931
0.6229745983
0.6229746026
0.6229745978
0.6229745932
0.6229745862
0.6229745803
0.6229745782
0.6229745809
0.6229745872
0.6229745944
0.6229745994
0.6229745927
0.6229745863
0.6229745773
0.62297457
0.6229745672
0.6229745711
0.6229745792
0.6229745884
0.6229745945
0.6229745873
0.6229745805
0.6229745702
0.6229745608
0.6229745571
0.6229745623
0.622974572
0.6229745833
0.6229745904
0.6229745861
0.6229745787
0.6229745674
0.6229745577
0.6229745545
0.6229745601
0.6229745705
0.6229745822
0.6229745891
0.6229745883
0.6229745817
0.6229745718
0.6229745627
0.6229745598
0.6229745643
0.6229745744
0.6229745849
0.6229745918
0.6229745937
0.6229745886
0.6229745802
0.6229745732
0.622974571
0.6229745747
0.6229745826
0.6229745911
0.6229745966
0.6229745994
0.6229745953
0.6229745894
0.6229745839
0.6229745822
0.622974585
0.6229745909
0.6229745974
0.6229746018
0.6229746032
0.6229746003
0.6229745952
0.6229745913
0.6229745898
0.6229745921
0.6229745969
0.622974602
0.6229746054
)
;
    }
    procBoundary1to0
    {
        type            processor;
        value           nonuniform List<scalar> 
97
(
0.6229746272
0.6229746272
0.622974627
0.6229746265
0.622974626
0.6229746256
0.6229746261
0.6229746266
0.6229746269
0.6229746273
0.6229746274
0.6229746264
0.6229746264
0.6229746264
0.6229746253
0.6229746233
0.6229746224
0.6229746235
0.6229746255
0.6229746266
0.6229746269
0.6229746272
0.6229746266
0.6229746209
0.6229746209
0.6229746209
0.6229746157
0.6229746119
0.6229746168
0.6229746224
0.6229746251
0.6229746267
0.6229746266
0.6229746259
0.6229746221
0.6229745924
0.6229745924
0.6229745924
0.6229745829
0.6229746011
0.6229746167
0.6229746238
0.6229746258
0.6229746265
0.6229746246
0.6229746187
0.6229746044
0.622974523
0.622974523
0.622974523
0.6229745816
0.6229745816
0.6229746116
0.6229746222
0.6229746257
0.6229746269
0.6229746256
0.6229746218
0.6229746135
0.6229746027
0.6229746148
0.6229746132
0.6229746132
0.6229746132
0.6229746231
0.6229746259
0.622974627
0.6229746264
0.6229746245
0.6229746217
0.6229746189
0.6229746224
0.6229746249
0.6229746246
0.6229746246
0.6229746246
0.6229746265
0.6229746273
0.6229746271
0.6229746265
0.6229746254
0.6229746246
0.6229746257
0.6229746265
0.622974627
0.6229746269
0.6229746269
0.6229746269
0.6229746276
0.6229746274
0.622974627
0.6229746268
0.6229746265
0.6229746266
0.6229746272
0.6229746273
0.6229746276
)
;
    }
}


// ************************************************************************* //
