/*--------------------------------*- C++ -*----------------------------------*\
| =========                 |                                                 |
| \\      /  F ield         | OpenFOAM: The Open Source CFD Toolbox           |
|  \\    /   O peration     | Version:  4.x                                   |
|   \\  /    A nd           | Web:      www.OpenFOAM.org                      |
|    \\/     M anipulation  |                                                 |
\*---------------------------------------------------------------------------*/
FoamFile
{
    version     2.0;
    format      ascii;
    class       volScalarField;
    location    "8000";
    object      CO;
}
// * * * * * * * * * * * * * * * * * * * * * * * * * * * * * * * * * * * * * //

dimensions      [0 0 0 0 0 0 0];

internalField   nonuniform List<scalar> 
1175
(
0.3719638834
0.3719638837
0.3719638836
0.3719638838
0.3719638836
0.3719638834
0.3719638829
0.3719638823
0.3719638795
0.3719638713
0.371963848
0.3719637861
0.3719636348
0.3719632995
0.371962639
0.3719638837
0.3719638836
0.3719638836
0.3719638836
0.3719638835
0.3719638834
0.371963883
0.3719638818
0.3719638779
0.3719638653
0.3719638287
0.3719637273
0.37196347
0.371962888
0.371961742
0.3719638836
0.3719638836
0.3719638836
0.3719638834
0.3719638833
0.3719638833
0.3719638827
0.3719638808
0.3719638747
0.3719638543
0.3719637903
0.3719636052
0.3719631163
0.3719619786
0.3719597308
0.3719638835
0.3719638835
0.3719638837
0.3719638837
0.3719638836
0.3719638834
0.3719638827
0.3719638802
0.3719638716
0.371963841
0.3719637423
0.371963444
0.3719626225
0.3719606436
0.371956705
0.3719638835
0.3719638835
0.3719638837
0.3719638836
0.3719638834
0.3719638832
0.3719638828
0.3719638799
0.3719638696
0.3719638338
0.3719637154
0.3719633467
0.3719622971
0.3719596883
0.3719544308
0.3719638835
0.3719638835
0.3719638834
0.3719638837
0.3719638836
0.3719638836
0.3719638829
0.3719638803
0.3719638713
0.3719638407
0.3719637421
0.3719634439
0.3719626224
0.3719606435
0.371956705
0.3719638833
0.3719638836
0.3719638834
0.3719638835
0.3719638836
0.3719638835
0.3719638831
0.3719638812
0.371963875
0.3719638544
0.3719637903
0.3719636049
0.3719631162
0.3719619786
0.3719597308
0.3719638835
0.3719638835
0.3719638834
0.3719638836
0.3719638836
0.3719638835
0.3719638832
0.3719638819
0.3719638779
0.3719638655
0.371963829
0.3719637272
0.3719634699
0.3719628883
0.3719617418
0.3719638835
0.3719638835
0.3719638838
0.3719638837
0.3719638835
0.3719638835
0.3719638832
0.3719638822
0.3719638794
0.3719638713
0.3719638481
0.3719637862
0.3719636346
0.3719632994
0.3719626389
0.3719638839
0.3719638838
0.3719638838
0.3719638838
0.3719638838
0.3719638838
0.3719638833
0.371963882
0.3719638779
0.3719638655
0.3719638286
0.3719637268
0.3719634699
0.371962888
0.3719638839
0.3719638839
0.3719638838
0.3719638836
0.3719638838
0.3719638834
0.371963883
0.3719638812
0.3719638748
0.3719638548
0.3719637916
0.3719636061
0.3719631133
0.3719619592
0.3719596766
0.3719638837
0.3719638836
0.3719638838
0.3719638837
0.3719638835
0.3719638833
0.3719638824
0.3719638796
0.3719638691
0.3719638329
0.3719637114
0.3719633318
0.371962258
0.3719596186
0.371954344
0.3719638831
0.3719638834
0.3719638835
0.3719638836
0.3719638835
0.3719638832
0.3719638823
0.371963878
0.3719638625
0.371963805
0.3719636002
0.3719629184
0.3719608521
0.3719554507
0.3719443883
0.3719638833
0.3719638835
0.3719638835
0.3719638836
0.3719638835
0.3719638832
0.3719638821
0.3719638771
0.3719638588
0.3719637882
0.3719635285
0.3719626193
0.3719596921
0.3719515105
0.3719339767
0.3719638835
0.3719638837
0.3719638836
0.3719638835
0.3719638833
0.3719638831
0.3719638822
0.3719638782
0.3719638624
0.3719638049
0.3719636002
0.3719629181
0.3719608519
0.3719554506
0.3719443885
0.3719638836
0.3719638835
0.3719638838
0.3719638836
0.3719638834
0.3719638832
0.3719638827
0.37196388
0.3719638693
0.3719638331
0.3719637116
0.371963332
0.371962258
0.3719596184
0.3719543444
0.3719638838
0.3719638838
0.3719638837
0.3719638835
0.3719638834
0.3719638836
0.3719638829
0.3719638811
0.3719638754
0.3719638552
0.3719637916
0.3719636064
0.3719631136
0.3719619596
0.3719596771
0.3719638834
0.3719638837
0.3719638838
0.3719638839
0.3719638836
0.3719638834
0.3719638831
0.3719638818
0.371963878
0.3719638656
0.3719638287
0.371963727
0.3719634698
0.3719628883
0.371961742
0.3719638837
0.3719638836
0.3719638836
0.3719638838
0.3719638837
0.3719638837
0.3719638828
0.371963881
0.371963875
0.3719638543
0.3719637901
0.3719636049
0.3719631161
0.3719619784
0.3719638837
0.3719638835
0.3719638837
0.3719638838
0.3719638836
0.3719638832
0.3719638824
0.3719638795
0.371963869
0.3719638328
0.3719637112
0.3719633317
0.3719622576
0.3719596183
0.3719638835
0.3719638834
0.3719638833
0.3719638837
0.3719638835
0.3719638831
0.3719638821
0.3719638771
0.3719638579
0.3719637862
0.3719635263
0.3719626426
0.3719599163
0.3719526905
0.3719378298
0.3719638835
0.3719638835
0.3719638835
0.3719638832
0.3719638833
0.3719638831
0.3719638814
0.3719638738
0.3719638433
0.3719637201
0.3719632366
0.371961438
0.3719552968
0.3719372539
0.3718976572
0.3719638835
0.3719638833
0.3719638835
0.3719638838
0.3719638833
0.371963883
0.3719638811
0.3719638721
0.3719638347
0.3719636761
0.3719630176
0.3719603707
0.3719503681
0.3719169966
0.3718339013
0.3719638832
0.3719638834
0.3719638835
0.3719638835
0.3719638834
0.3719638829
0.3719638813
0.371963874
0.3719638433
0.3719637198
0.3719632368
0.3719614381
0.3719552973
0.3719372548
0.371897659
0.3719638837
0.3719638836
0.3719638834
0.3719638833
0.3719638834
0.3719638831
0.3719638821
0.371963877
0.3719638582
0.3719637864
0.3719635268
0.3719626432
0.3719599166
0.3719526913
0.3719378315
0.3719638835
0.3719638837
0.3719638837
0.3719638837
0.3719638838
0.3719638835
0.3719638824
0.3719638797
0.3719638693
0.371963833
0.3719637117
0.3719633321
0.371962258
0.3719596188
0.3719543444
0.3719638837
0.3719638835
0.3719638839
0.3719638837
0.3719638838
0.3719638837
0.3719638828
0.3719638809
0.3719638747
0.3719638544
0.3719637904
0.371963605
0.3719631164
0.3719619785
0.3719597308
0.371963884
0.3719638837
0.3719638839
0.3719638837
0.3719638836
0.3719638834
0.3719638826
0.37196388
0.3719638712
0.3719638406
0.3719637422
0.3719634442
0.3719626222
0.371960643
0.3719638836
0.3719638836
0.3719638838
0.3719638838
0.3719638835
0.3719638833
0.3719638823
0.3719638778
0.3719638626
0.3719638046
0.3719636001
0.3719629181
0.3719608517
0.3719554501
0.3719638835
0.3719638835
0.3719638837
0.3719638836
0.3719638835
0.3719638832
0.3719638814
0.371963874
0.3719638435
0.3719637201
0.3719632368
0.371961438
0.3719552966
0.3719372525
0.3719638836
0.3719638836
0.3719638835
0.3719638834
0.3719638832
0.3719638826
0.3719638801
0.3719638682
0.3719638163
0.3719635872
0.3719625914
0.3719583993
0.3719418274
0.3718842507
0.3717369907
0.3719638835
0.3719638833
0.3719638836
0.3719638833
0.3719638833
0.3719638825
0.3719638795
0.3719638652
0.3719637988
0.3719634867
0.3719620101
0.3719550088
0.3719223885
0.3717800792
0.371285949
0.3719638832
0.3719638836
0.3719638837
0.3719638834
0.3719638833
0.3719638828
0.3719638802
0.3719638681
0.3719638163
0.371963587
0.3719625916
0.3719583994
0.3719418279
0.3718842535
0.3717370027
0.3719638836
0.3719638837
0.3719638834
0.3719638835
0.3719638834
0.371963883
0.3719638814
0.3719638738
0.3719638433
0.3719637201
0.3719632368
0.3719614381
0.3719552971
0.3719372545
0.371897659
0.3719638834
0.3719638836
0.3719638834
0.3719638835
0.3719638835
0.3719638832
0.3719638824
0.3719638783
0.3719638627
0.371963805
0.3719636005
0.3719629186
0.3719608522
0.3719554508
0.3719443887
0.3719638837
0.3719638836
0.3719638836
0.3719638834
0.3719638833
0.3719638834
0.3719638827
0.3719638801
0.3719638713
0.371963841
0.3719637426
0.3719634442
0.3719626227
0.3719606436
0.371956705
0.3719638835
0.3719638838
0.3719638838
0.3719638839
0.3719638836
0.3719638832
0.3719638825
0.3719638799
0.3719638695
0.3719638339
0.3719637158
0.3719633468
0.3719622969
0.3719596879
0.3719638833
0.3719638834
0.3719638837
0.3719638837
0.3719638835
0.3719638831
0.3719638821
0.3719638773
0.3719638588
0.3719637882
0.3719635286
0.3719626192
0.3719596919
0.3719515093
0.3719638836
0.3719638836
0.3719638835
0.3719638836
0.3719638835
0.3719638827
0.3719638811
0.3719638725
0.3719638348
0.3719636765
0.371963018
0.3719603703
0.3719503673
0.3719169929
0.3719638835
0.3719638836
0.3719638834
0.3719638835
0.3719638835
0.3719638829
0.3719638799
0.3719638655
0.371963799
0.3719634869
0.3719620103
0.3719550086
0.371922387
0.3717800669
0.3719638836
0.3719638834
0.3719638834
0.3719638833
0.3719638833
0.3719638827
0.3719638789
0.3719638611
0.3719637736
0.3719633258
0.371960933
0.3719473898
0.3718654595
0.3713322484
0.3675813628
0.3719638837
0.3719638838
0.3719638834
0.3719638836
0.3719638834
0.3719638827
0.3719638795
0.371963865
0.3719637988
0.3719634869
0.3719620098
0.3719550086
0.3719223888
0.3717800787
0.37128595
0.3719638836
0.3719638838
0.3719638837
0.3719638835
0.3719638834
0.371963883
0.3719638809
0.371963872
0.3719638344
0.3719636762
0.3719630181
0.3719603708
0.3719503683
0.3719169964
0.3718339013
0.3719638835
0.3719638836
0.3719638835
0.3719638838
0.3719638838
0.3719638833
0.3719638821
0.3719638772
0.3719638588
0.3719637886
0.3719635285
0.3719626194
0.3719596923
0.3719515106
0.3719339769
0.3719638837
0.3719638836
0.3719638836
0.3719638835
0.3719638835
0.3719638834
0.3719638824
0.3719638798
0.3719638697
0.3719638343
0.3719637159
0.3719633471
0.3719622975
0.3719596886
0.3719544304
0.3719638839
0.3719638838
0.3719638838
0.3719638838
0.3719638835
0.3719638835
0.3719638827
0.3719638801
0.3719638711
0.3719638407
0.3719637428
0.3719634445
0.3719626226
0.3719606433
0.3719638836
0.3719638837
0.3719638836
0.3719638837
0.3719638836
0.3719638832
0.3719638822
0.371963878
0.3719638626
0.3719638048
0.3719636003
0.3719629183
0.3719608519
0.3719554501
0.3719638838
0.3719638835
0.3719638836
0.3719638838
0.3719638835
0.3719638829
0.3719638812
0.371963874
0.3719638436
0.3719637203
0.3719632366
0.371961438
0.3719552968
0.3719372525
0.3719638835
0.3719638836
0.3719638835
0.3719638837
0.3719638835
0.3719638828
0.3719638802
0.3719638683
0.3719638164
0.3719635872
0.3719625916
0.3719583994
0.3719418268
0.3718842474
0.3719638838
0.3719638838
0.3719638837
0.3719638838
0.3719638833
0.3719638828
0.3719638797
0.3719638652
0.3719637987
0.371963487
0.37196201
0.3719550084
0.3719223864
0.3717800656
0.3719638837
0.3719638838
0.3719638838
0.3719638835
0.3719638835
0.371963883
0.3719638802
0.3719638683
0.3719638163
0.3719635874
0.3719625917
0.3719583995
0.3719418269
0.3718842485
0.3719638839
0.3719638836
0.3719638834
0.3719638835
0.3719638834
0.371963883
0.3719638813
0.3719638738
0.3719638434
0.3719637202
0.3719632369
0.371961438
0.3719552969
0.3719372537
0.3718976552
0.3719638839
0.3719638839
0.371963884
0.3719638838
0.3719638839
0.3719638832
0.3719638822
0.3719638782
0.3719638625
0.3719638049
0.3719636002
0.3719629187
0.3719608522
0.3719554506
0.3719443883
0.3719638837
0.3719638838
0.3719638837
0.3719638835
0.3719638835
0.3719638831
0.3719638825
0.3719638802
0.3719638714
0.371963841
0.3719637427
0.3719634446
0.3719626227
0.3719606437
0.3719567051
0.3719638838
0.3719638837
0.3719638839
0.3719638838
0.3719638838
0.3719638836
0.3719638832
0.3719638813
0.3719638751
0.3719638543
0.3719637906
0.3719636053
0.3719631164
0.3719619788
0.3719638834
0.3719638835
0.3719638837
0.3719638836
0.3719638836
0.3719638834
0.3719638826
0.3719638798
0.3719638695
0.371963833
0.3719637117
0.3719633321
0.3719622579
0.3719596183
0.3719638835
0.3719638835
0.3719638836
0.3719638835
0.3719638838
0.3719638834
0.3719638821
0.3719638772
0.3719638582
0.3719637865
0.3719635266
0.371962643
0.3719599163
0.37195269
0.3719638835
0.3719638836
0.3719638833
0.3719638839
0.3719638836
0.3719638833
0.3719638816
0.371963874
0.3719638435
0.3719637201
0.3719632371
0.371961438
0.3719552966
0.3719372524
0.3719638837
0.3719638839
0.3719638836
0.3719638836
0.3719638834
0.3719638833
0.3719638812
0.3719638723
0.371963835
0.3719636763
0.3719630179
0.3719603703
0.3719503673
0.3719169928
0.3719638839
0.3719638839
0.3719638838
0.3719638837
0.3719638838
0.3719638831
0.3719638812
0.3719638736
0.3719638435
0.3719637202
0.3719632367
0.3719614378
0.3719552965
0.3719372524
0.3719638838
0.3719638835
0.3719638836
0.3719638837
0.3719638835
0.3719638832
0.371963882
0.3719638769
0.3719638581
0.3719637865
0.3719635268
0.3719626432
0.3719599164
0.3719526903
0.3719638837
0.3719638838
0.371963884
0.3719638839
0.3719638838
0.3719638834
0.3719638825
0.3719638797
0.3719638692
0.3719638329
0.3719637114
0.3719633322
0.3719622579
0.3719596185
0.371954344
0.3719638835
0.3719638836
0.3719638836
0.3719638834
0.3719638836
0.3719638834
0.3719638831
0.3719638814
0.3719638751
0.3719638545
0.3719637906
0.3719636053
0.3719631163
0.3719619786
0.3719597308
0.3719638839
0.3719638836
0.3719638836
0.3719638837
0.3719638839
0.3719638836
0.3719638831
0.3719638821
0.3719638782
0.3719638656
0.3719638289
0.3719637273
0.37196347
0.3719628885
0.3719638837
0.3719638836
0.3719638837
0.3719638837
0.3719638838
0.3719638835
0.3719638831
0.3719638814
0.371963875
0.371963855
0.3719637916
0.3719636065
0.3719631138
0.3719619597
0.3719638835
0.3719638835
0.3719638836
0.3719638837
0.3719638838
0.3719638835
0.3719638827
0.3719638797
0.3719638694
0.3719638332
0.3719637116
0.3719633322
0.371962258
0.3719596182
0.3719638838
0.3719638836
0.3719638839
0.3719638839
0.3719638836
0.3719638835
0.3719638826
0.3719638785
0.3719638627
0.3719638048
0.3719636002
0.3719629185
0.3719608522
0.3719554501
0.3719638838
0.3719638837
0.371963884
0.3719638837
0.3719638837
0.3719638832
0.3719638822
0.3719638777
0.371963859
0.3719637881
0.3719635285
0.3719626193
0.3719596922
0.3719515096
0.3719638836
0.3719638837
0.3719638839
0.3719638836
0.3719638836
0.3719638832
0.3719638821
0.371963878
0.3719638623
0.3719638048
0.3719636004
0.3719629183
0.371960852
0.3719554497
0.3719638837
0.3719638838
0.3719638839
0.3719638838
0.371963884
0.3719638837
0.3719638824
0.3719638799
0.3719638695
0.3719638329
0.3719637115
0.3719633322
0.3719622578
0.371959618
0.3719638839
0.3719638838
0.3719638837
0.3719638837
0.3719638837
0.3719638835
0.371963883
0.371963881
0.3719638751
0.3719638548
0.3719637915
0.3719636066
0.3719631135
0.3719619593
0.3719638838
0.3719638837
0.3719638837
0.3719638835
0.3719638837
0.3719638835
0.3719638832
0.3719638819
0.3719638781
0.3719638656
0.371963829
0.3719637272
0.3719634701
0.3719628885
0.3719617419
0.3719638838
0.3719638837
0.3719638838
0.3719638838
0.3719638837
0.3719638836
0.3719638834
0.3719638827
0.3719638799
0.3719638716
0.3719638483
0.3719637864
0.3719636351
0.3719632999
0.3719638837
0.3719638838
0.3719638837
0.3719638837
0.3719638838
0.3719638836
0.3719638832
0.371963882
0.3719638781
0.3719638659
0.371963829
0.3719637272
0.37196347
0.3719628883
0.3719638838
0.3719638837
0.3719638837
0.3719638837
0.3719638835
0.3719638837
0.3719638832
0.3719638811
0.3719638752
0.3719638546
0.3719637906
0.3719636052
0.3719631163
0.3719619785
0.3719638837
0.3719638838
0.3719638838
0.371963884
0.3719638838
0.3719638838
0.3719638829
0.3719638805
0.3719638718
0.3719638412
0.3719637428
0.3719634444
0.3719626225
0.3719606434
0.3719638837
0.3719638838
0.3719638836
0.3719638837
0.3719638834
0.3719638833
0.3719638826
0.3719638798
0.3719638696
0.371963834
0.3719637157
0.3719633468
0.371962297
0.3719596881
0.3719638835
0.3719638838
0.3719638836
0.3719638838
0.3719638836
0.3719638834
0.3719638828
0.3719638802
0.3719638716
0.3719638412
0.3719637426
0.3719634443
0.3719626224
0.3719606432
0.3719638835
0.3719638837
0.3719638839
0.3719638839
0.3719638839
0.3719638835
0.3719638829
0.3719638812
0.3719638749
0.3719638544
0.3719637905
0.3719636052
0.3719631165
0.3719619787
0.3719638834
0.3719638837
0.3719638838
0.3719638838
0.3719638836
0.3719638834
0.3719638833
0.3719638819
0.371963878
0.3719638656
0.3719638289
0.3719637271
0.37196347
0.3719628884
0.3719638836
0.3719638835
0.3719638835
0.3719638834
0.3719638835
0.3719638835
0.3719638833
0.3719638825
0.3719638798
0.3719638715
0.3719638484
0.3719637861
0.3719636349
0.3719632996
)
;

boundaryField
{
    top
    {
        type            zeroGradient;
    }
    bottom
    {
        type            zeroGradient;
    }
    side-walls
    {
        type            zeroGradient;
    }
    inlet
    {
        type            zeroGradient;
    }
    outlet
    {
        type            zeroGradient;
    }
    procBoundary0to1
    {
        type            processor;
        value           nonuniform List<scalar> 
97
(
0.3719614878
0.3719617421
0.3719598007
0.3719560689
0.3719505917
0.3719466736
0.371950592
0.3719560691
0.371959801
0.371961488
0.3719617421
0.3719617421
0.3719559894
0.3719543438
0.3719463863
0.3719292873
0.3719131228
0.3719292879
0.3719463866
0.3719559901
0.3719598007
0.3719597304
0.3719543438
0.3719543438
0.3719179649
0.3718976543
0.3718546292
0.3717715132
0.3718546309
0.3719179662
0.3719463869
0.3719560691
0.3719567048
0.3719443874
0.3718976543
0.3718976543
0.3716371276
0.371285914
0.3712094799
0.3716371336
0.3718546312
0.3719292878
0.371950592
0.3719544301
0.3719339755
0.371833896
0.371285914
0.371285914
0.3693660903
0.3712859156
0.3712094824
0.3717369929
0.3717715138
0.3719131229
0.3719466737
0.371956705
0.371944388
0.3718976566
0.3717369944
0.3712859156
0.3717369929
0.3717369929
0.3718546301
0.3719378301
0.3719292876
0.3719505917
0.3719597309
0.3719543444
0.3719378308
0.3718976567
0.3718338968
0.3718976567
0.3719378301
0.3719378301
0.3719463868
0.3719596769
0.371956069
0.3719617423
0.3719596771
0.3719543442
0.3719443877
0.3719339759
0.3719443881
0.3719543443
0.3719596769
0.3719596769
0.3719598008
0.3719626392
0.3719626393
0.3719617421
0.3719597309
0.3719567049
0.3719544303
0.371956705
0.3719597311
0.3719617423
0.3719626392
)
;
    }
}


// ************************************************************************* //
