/*--------------------------------*- C++ -*----------------------------------*\
| =========                 |                                                 |
| \\      /  F ield         | OpenFOAM: The Open Source CFD Toolbox           |
|  \\    /   O peration     | Version:  4.x                                   |
|   \\  /    A nd           | Web:      www.OpenFOAM.org                      |
|    \\/     M anipulation  |                                                 |
\*---------------------------------------------------------------------------*/
FoamFile
{
    version     2.0;
    format      ascii;
    class       volScalarField;
    location    "8000";
    object      CO2;
}
// * * * * * * * * * * * * * * * * * * * * * * * * * * * * * * * * * * * * * //

dimensions      [0 0 0 0 0 0 0];

internalField   nonuniform List<scalar> 
1175
(
0.006506721136
0.006506720333
0.006506720607
0.006506720211
0.006506720566
0.006506721139
0.006506721935
0.006506722575
0.006506726128
0.006506736919
0.006506767023
0.006506846926
0.006507042287
0.006507476074
0.006508330348
0.006506720527
0.006506720666
0.006506720719
0.00650672062
0.006506720788
0.006506721065
0.006506721665
0.006506723202
0.006506728239
0.006506744715
0.006506791992
0.006506922591
0.006507255567
0.006508008493
0.006509490339
0.006506720583
0.006506720729
0.006506720662
0.006506721286
0.006506721292
0.006506721159
0.006506722119
0.006506724633
0.006506732297
0.006506758443
0.006506841412
0.006507080668
0.006507712891
0.006509184109
0.006512090859
0.006506720874
0.006506720915
0.0065067205
0.006506720301
0.006506720681
0.006506720893
0.006506721879
0.006506724988
0.006506735823
0.006506775817
0.006506903576
0.006507289408
0.006508351335
0.006510910161
0.006516003568
0.006506720986
0.006506720968
0.006506720375
0.006506720693
0.00650672121
0.00650672129
0.006506721518
0.006506725233
0.006506738678
0.006506785276
0.006506938554
0.006507415196
0.006508772073
0.006512145715
0.006518943635
0.006506720835
0.00650672089
0.0065067212
0.006506720437
0.006506720655
0.006506720381
0.006506721204
0.006506724795
0.006506736507
0.006506776543
0.006506904271
0.0065072896
0.00650835169
0.006510910589
0.006516003683
0.006506721426
0.006506720538
0.006506721329
0.006506720998
0.006506720502
0.006506720674
0.006506721045
0.006506723489
0.006506731451
0.006506758415
0.006506841605
0.006507081502
0.006507713337
0.006509184083
0.006512090954
0.006506720925
0.006506720867
0.006506721183
0.0065067207
0.006506720674
0.006506720718
0.006506720952
0.006506722791
0.00650672823
0.006506744208
0.006506791052
0.006506922842
0.006507255787
0.006508007884
0.00650949076
0.006506720837
0.006506721003
0.006506720159
0.006506720289
0.006506720813
0.006506720789
0.006506721225
0.006506722702
0.006506726354
0.006506736851
0.006506766708
0.006506846647
0.00650704288
0.006507476493
0.00650833061
0.006506719916
0.006506720269
0.006506720093
0.006506720088
0.006506720175
0.006506720068
0.006506720802
0.006506722647
0.006506728058
0.006506744225
0.00650679204
0.00650692388
0.006507255633
0.006508008622
0.006506719943
0.006506719866
0.006506720262
0.006506720769
0.006506720163
0.006506720974
0.006506721443
0.006506723774
0.006506732286
0.006506758142
0.006506839506
0.006507079815
0.006507717144
0.006509209504
0.006512161344
0.006506720284
0.006506720563
0.006506720223
0.006506720259
0.006506720947
0.006506721072
0.006506722468
0.006506726096
0.006506739764
0.006506786407
0.006506943441
0.006507434545
0.006508822655
0.006512235535
0.006519056769
0.006506722008
0.006506721234
0.006506720971
0.006506720681
0.006506720783
0.006506721231
0.006506722172
0.006506727985
0.006506747947
0.006506821925
0.006507086892
0.006507968759
0.006510640396
0.006517624592
0.006531929329
0.006506721474
0.006506721061
0.006506721005
0.006506720588
0.006506720731
0.00650672122
0.006506722538
0.006506729228
0.006506752687
0.006506844109
0.006507179693
0.006508355298
0.006512140546
0.006522718849
0.006545390984
0.006506720997
0.00650672049
0.006506720675
0.006506720887
0.006506721411
0.006506721625
0.006506722463
0.006506727532
0.006506748319
0.006506822333
0.006507087057
0.006507969402
0.006510640951
0.006517624936
0.006531929099
0.006506720665
0.00650672092
0.006506720133
0.006506720771
0.006506721098
0.006506721384
0.006506721693
0.006506725073
0.006506739192
0.006506785884
0.006506942837
0.006507433917
0.006508822632
0.006512236069
0.006519055859
0.00650672023
0.006506720149
0.00650672039
0.006506720832
0.006506721091
0.006506720511
0.006506721475
0.006506724003
0.006506730864
0.0065067571
0.006506839622
0.006507079094
0.006507716348
0.006509208261
0.006512160236
0.006506721091
0.006506720332
0.006506720024
0.006506719903
0.00650672058
0.006506721069
0.006506721233
0.00650672311
0.006506727887
0.006506743942
0.006506791849
0.00650692344
0.006507255979
0.006508007708
0.00650949024
0.006506720511
0.006506720751
0.006506720583
0.006506720128
0.006506720362
0.006506720107
0.006506721787
0.006506724124
0.006506731538
0.006506758568
0.006506842139
0.006507081524
0.006507713545
0.006509184619
0.006506720487
0.006506720906
0.006506720471
0.0065067202
0.006506720609
0.006506721466
0.006506722552
0.006506726247
0.006506740173
0.0065067867
0.006506943805
0.006507434813
0.006508823619
0.006512236307
0.00650672105
0.006506721261
0.006506721362
0.006506720463
0.006506720749
0.006506721557
0.006506722493
0.006506728983
0.006506754218
0.006506846849
0.006507182853
0.006508325864
0.006511850717
0.006521194269
0.0065404113
0.006506720863
0.006506721049
0.006506720964
0.006506721711
0.006506721391
0.006506721245
0.006506723475
0.006506733533
0.006506773017
0.006506931947
0.006507557365
0.006509882822
0.006517823328
0.0065411529
0.006592352681
0.00650672096
0.006506721436
0.006506720926
0.006506720167
0.006506721318
0.006506721375
0.006506723796
0.006506735591
0.006506783789
0.006506989322
0.006507840716
0.006511262627
0.006524195523
0.006567342797
0.006674781876
0.006506721764
0.00650672124
0.00650672104
0.006506720786
0.006506720937
0.006506721828
0.006506723718
0.006506732949
0.006506773036
0.006506932815
0.006507556889
0.006509882631
0.00651782218
0.006541150877
0.006592349027
0.006506720369
0.006506720716
0.006506721206
0.006506721402
0.006506721133
0.006506721497
0.006506722343
0.006506729472
0.006506753473
0.006506846419
0.006507181484
0.006508324347
0.006511849969
0.006521192408
0.006540407391
0.006506721
0.006506720485
0.006506720504
0.006506720441
0.006506720141
0.006506720676
0.006506722423
0.006506725685
0.00650673917
0.006506786112
0.006506942623
0.006507433589
0.006508822724
0.00651223515
0.006519055883
0.006506720324
0.006506720839
0.006506719961
0.006506720483
0.006506720169
0.006506720222
0.006506721944
0.006506724367
0.006506732438
0.006506758353
0.006506841205
0.006507081234
0.006507712821
0.006509184453
0.006512091069
0.006506719643
0.006506720412
0.006506719912
0.006506720337
0.006506720582
0.006506720768
0.006506721947
0.006506725502
0.006506736732
0.006506776743
0.006506903875
0.006507288989
0.006508352326
0.006510911811
0.006506720802
0.006506720593
0.00650672002
0.00650672001
0.006506720739
0.006506720976
0.006506722218
0.006506728482
0.006506747841
0.006506823137
0.006507087393
0.006507969417
0.00651064154
0.006517625949
0.00650672094
0.00650672087
0.006506720405
0.006506720709
0.006506720836
0.006506721097
0.006506723322
0.006506732903
0.006506772514
0.006506932145
0.006507556945
0.006509882757
0.006517823828
0.006541155877
0.006506720725
0.006506720735
0.006506720955
0.006506721243
0.006506721386
0.006506722149
0.006506725397
0.006506740871
0.006506807819
0.006507104057
0.006508391713
0.006513811929
0.006535238442
0.006609683196
0.006800090939
0.006506720804
0.006506721522
0.006506720702
0.006506721364
0.006506721105
0.006506722313
0.00650672618
0.006506744568
0.006506830383
0.006507234117
0.006509142979
0.006518195122
0.006560370036
0.006744359892
0.007383215363
0.006506721605
0.006506720644
0.006506720274
0.006506721166
0.006506721179
0.006506721694
0.006506724971
0.006506741125
0.00650680785
0.006507104604
0.006508391213
0.006513811673
0.006535237553
0.006609677609
0.006800065668
0.006506720597
0.006506720417
0.006506721314
0.006506720826
0.00650672095
0.006506721545
0.006506723426
0.006506733504
0.006506773003
0.006506932101
0.006507556836
0.006509882543
0.006517822722
0.006541151704
0.006592348812
0.006506721337
0.00650672066
0.00650672131
0.006506721014
0.006506720842
0.006506721229
0.00650672189
0.006506727206
0.006506747458
0.006506822068
0.006507086084
0.006507968177
0.006510640231
0.00651762439
0.006531928563
0.006506720432
0.006506720775
0.006506720557
0.006506721214
0.006506721413
0.006506720803
0.00650672173
0.006506725235
0.006506736539
0.006506775614
0.006506902825
0.006507288852
0.006508350781
0.006510910104
0.006516003711
0.006506720899
0.006506720106
0.006506720087
0.00650671974
0.006506720571
0.00650672148
0.006506722181
0.006506725273
0.006506738934
0.006506784948
0.00650693752
0.006507414849
0.006508772613
0.006512146697
0.006506721385
0.006506721281
0.006506720469
0.006506720481
0.00650672091
0.006506721464
0.006506722591
0.006506728826
0.006506752643
0.006506844139
0.00650717935
0.006508355637
0.006512140946
0.006522721766
0.006506720759
0.006506720623
0.00650672082
0.006506720622
0.006506720852
0.006506722112
0.006506723734
0.006506734582
0.0065067836
0.006506988073
0.006507839768
0.006511263555
0.006524197438
0.006567351195
0.00650672088
0.006506720595
0.006506721063
0.006506720891
0.006506720732
0.006506721375
0.006506725138
0.006506743882
0.006506829967
0.006507233663
0.006509142588
0.006518195435
0.006560373627
0.006744387633
0.006506720631
0.006506721077
0.006506721145
0.006506721314
0.006506721164
0.006506721751
0.006506726711
0.006506749794
0.006506862585
0.006507442086
0.006510535728
0.006528045667
0.006633970926
0.007323335644
0.01217263212
0.006506720387
0.006506720092
0.006506721203
0.00650672067
0.006506720905
0.006506721989
0.006506726054
0.006506745099
0.006506830522
0.006507233786
0.006509143761
0.006518195617
0.00656036972
0.006744362398
0.007383215825
0.006506720608
0.006506720193
0.006506720455
0.006506720819
0.006506720915
0.006506721375
0.006506724324
0.006506735771
0.006506784765
0.006506988877
0.006507839411
0.006511262424
0.006524195133
0.006567343512
0.006674781982
0.006506720814
0.006506720739
0.006506721029
0.006506720126
0.006506720131
0.006506720946
0.006506722595
0.006506728973
0.006506752668
0.00650684306
0.006507179744
0.00650835503
0.006512140042
0.00652271857
0.00654539044
0.006506720315
0.006506720574
0.006506720558
0.006506720827
0.006506720891
0.00650672089
0.006506722396
0.006506725483
0.006506738439
0.006506784023
0.006506937207
0.006507414203
0.006508771138
0.006512144898
0.006518944653
0.006506719974
0.006506720092
0.006506720082
0.006506720204
0.006506720927
0.00650672053
0.006506721692
0.006506725201
0.006506737181
0.006506776484
0.006506902348
0.006507288131
0.006508351071
0.006510910942
0.00650672075
0.006506720396
0.006506720722
0.006506720277
0.006506720574
0.006506721164
0.006506722417
0.006506728077
0.006506747767
0.006506822546
0.006507086807
0.006507968804
0.006510640986
0.006517625972
0.00650672023
0.006506720989
0.006506720766
0.006506720101
0.006506720789
0.006506721735
0.006506723888
0.006506732819
0.00650677224
0.006506931571
0.006507557236
0.006509882832
0.006517823148
0.006541156241
0.006506720988
0.00650672076
0.006506720878
0.006506720334
0.006506720624
0.006506721809
0.006506724942
0.006506740659
0.006506807695
0.006507104026
0.00650839113
0.006513811692
0.006535239909
0.006609691579
0.00650672009
0.006506720041
0.006506720328
0.006506720104
0.0065067211
0.00650672154
0.00650672547
0.006506744464
0.006506830647
0.006507233461
0.006509143289
0.006518196026
0.0065603751
0.006744391105
0.006506720419
0.006506720193
0.006506720134
0.006506721013
0.00650672069
0.006506721129
0.006506724944
0.006506740594
0.00650680785
0.006507103498
0.006508390898
0.006513811234
0.006535239726
0.006609688549
0.00650672
0.006506720624
0.006506721097
0.006506720933
0.006506720912
0.00650672159
0.006506723583
0.006506733525
0.006506772746
0.006506931762
0.006507556679
0.006509882765
0.006517822953
0.006541153367
0.006592357567
0.006506719903
0.006506719881
0.006506719532
0.006506719983
0.006506719635
0.006506721168
0.006506722541
0.006506727577
0.006506748046
0.00650682226
0.006507086904
0.006507967787
0.006510640232
0.006517624828
0.006531929292
0.00650672046
0.006506720265
0.006506720438
0.006506720806
0.006506720849
0.006506721732
0.006506722235
0.006506725065
0.006506736317
0.00650677573
0.006506902553
0.006507287922
0.006508350834
0.006510909911
0.006516003232
0.006506720154
0.006506720496
0.006506719748
0.006506720098
0.006506720072
0.006506720423
0.00650672081
0.006506723207
0.006506731403
0.006506758546
0.006506840704
0.006507080367
0.00650771254
0.00650918357
0.006506721188
0.006506720942
0.006506720312
0.006506720594
0.006506720682
0.006506720724
0.006506721858
0.006506725475
0.006506738615
0.006506785997
0.006506942658
0.006507433735
0.006508822745
0.006512236161
0.006506720926
0.006506720813
0.006506720765
0.006506720775
0.006506720047
0.006506720721
0.00650672244
0.006506728816
0.006506753328
0.006506846122
0.006507182206
0.006508324757
0.006511850616
0.006521195515
0.006506720843
0.006506720733
0.006506721381
0.006506719736
0.006506720415
0.006506720728
0.006506722937
0.006506732864
0.006506772376
0.006506932047
0.006507556041
0.006509882689
0.006517823628
0.006541156415
0.00650672029
0.006506719996
0.006506720783
0.006506720606
0.006506720972
0.006506720679
0.006506723489
0.006506735172
0.006506783246
0.006506988704
0.006507839976
0.006511263669
0.006524197511
0.006567351695
0.006506719882
0.006506719954
0.006506720076
0.006506720311
0.006506720006
0.006506721134
0.006506723823
0.006506734012
0.006506772358
0.006506931841
0.006507557097
0.006509883425
0.006517824067
0.006541156501
0.00650672004
0.006506720815
0.00650672057
0.006506720505
0.006506720683
0.00650672108
0.00650672274
0.0065067295
0.006506753579
0.006506845955
0.006507181551
0.006508324168
0.006511850286
0.006521194698
0.006506720414
0.00650672006
0.006506719585
0.00650671979
0.006506719997
0.006506720813
0.006506722315
0.006506725677
0.006506739536
0.006506786392
0.006506943385
0.006507433351
0.006508822717
0.006512235654
0.006519056797
0.006506720961
0.006506720587
0.006506720739
0.006506721203
0.006506720518
0.006506721007
0.006506721148
0.006506723157
0.006506731423
0.00650675807
0.006506840552
0.006507080366
0.006507712937
0.006509184152
0.006512090968
0.006506719908
0.006506720661
0.006506720704
0.006506720402
0.006506719838
0.006506720416
0.006506721282
0.006506722352
0.006506727311
0.006506743995
0.006506791258
0.00650692264
0.006507255394
0.006508007237
0.006506720495
0.006506720656
0.006506720298
0.006506720494
0.006506719975
0.006506720668
0.006506721136
0.006506723262
0.006506731915
0.00650675754
0.006506839496
0.006507078767
0.006507715719
0.006509208162
0.006506721066
0.006506721033
0.006506720601
0.006506720274
0.006506720149
0.006506720604
0.006506721682
0.006506725653
0.006506738939
0.006506785718
0.006506942901
0.006507433428
0.006508822535
0.006512236443
0.00650672003
0.006506720723
0.006506719766
0.006506719861
0.00650672049
0.006506720441
0.006506721443
0.006506726769
0.006506747426
0.006506822481
0.006507087082
0.006507968263
0.006510640182
0.006517626065
0.006506720125
0.006506720476
0.006506719707
0.006506720375
0.006506720372
0.006506721248
0.00650672218
0.006506727833
0.006506752357
0.006506844393
0.006507179655
0.006508355315
0.006512140116
0.006522721021
0.006506720679
0.006506720354
0.00650671979
0.006506720549
0.006506720487
0.006506721283
0.006506722684
0.006506727962
0.006506748408
0.006506822543
0.006507086328
0.006507968898
0.006510640671
0.00651762709
0.006506720523
0.006506720236
0.006506719776
0.006506720088
0.006506719613
0.006506719945
0.006506722419
0.00650672526
0.00650673882
0.006506786445
0.006506943135
0.006507433314
0.006508822989
0.006512237
0.00650671988
0.006506720065
0.006506720304
0.006506720453
0.006506720418
0.006506720727
0.006506721394
0.006506724173
0.006506731656
0.006506757994
0.006506839804
0.006507078664
0.006507716638
0.006509209026
0.00650672024
0.006506720418
0.006506720439
0.006506720797
0.006506720289
0.006506720699
0.006506721148
0.006506722761
0.006506727642
0.006506744069
0.006506790965
0.006506922867
0.006507255272
0.006508007298
0.0065094904
0.006506720257
0.006506720299
0.006506720164
0.006506720183
0.006506720333
0.006506720397
0.006506720588
0.00650672134
0.006506725092
0.006506735978
0.006506766182
0.006506846253
0.006507041673
0.006507475114
0.006506720347
0.006506720161
0.006506720521
0.006506720345
0.006506720138
0.006506720367
0.006506720974
0.006506722725
0.006506727489
0.00650674328
0.006506790973
0.006506922872
0.006507255422
0.006508007924
0.006506720206
0.006506720438
0.006506720312
0.006506720291
0.006506720767
0.006506720042
0.006506720699
0.006506723773
0.006506731004
0.006506757818
0.006506840794
0.006507080585
0.006507712967
0.006509184482
0.006506720451
0.006506720134
0.006506720262
0.006506719642
0.00650671999
0.006506719912
0.006506721197
0.0065067243
0.006506735333
0.006506775284
0.006506902374
0.006507288457
0.00650835129
0.006510910593
0.006506720351
0.006506720136
0.006506720655
0.006506720342
0.006506721163
0.006506721178
0.006506721927
0.006506725449
0.006506738756
0.006506784877
0.006506937792
0.006507414824
0.006508772379
0.006512146056
0.006506720909
0.006506720179
0.006506720601
0.006506720001
0.006506720619
0.006506720856
0.006506721578
0.006506725063
0.006506735886
0.006506775208
0.006506902812
0.006507288682
0.006508351812
0.006510911268
0.006506720915
0.006506720513
0.006506719985
0.006506719939
0.006506719924
0.00650672075
0.006506721528
0.00650672357
0.006506731931
0.006506758344
0.006506840908
0.006507080668
0.006507712353
0.006509183931
0.006506721185
0.006506720423
0.006506720217
0.006506720226
0.006506720742
0.006506720982
0.006506720747
0.00650672281
0.006506727858
0.006506743909
0.006506791388
0.006506923092
0.006507255425
0.006508007523
0.006506720564
0.006506721052
0.006506721044
0.00650672121
0.00650672091
0.006506720799
0.006506720844
0.006506722047
0.006506725508
0.006506736368
0.006506765972
0.006506847063
0.006507042239
0.006507475794
)
;

boundaryField
{
    top
    {
        type            zeroGradient;
    }
    bottom
    {
        type            zeroGradient;
    }
    side-walls
    {
        type            zeroGradient;
    }
    inlet
    {
        type            zeroGradient;
    }
    outlet
    {
        type            zeroGradient;
    }
    procBoundary0to1
    {
        type            processor;
        value           nonuniform List<scalar> 
97
(
0.006509819341
0.006509489902
0.006512000899
0.006516826626
0.006523909191
0.006528975522
0.006523908523
0.006516826283
0.006512000125
0.006509818721
0.006509489902
0.006509489902
0.006516929835
0.006519057417
0.0065293472
0.006551457227
0.006572357522
0.006551455971
0.006529346813
0.006516928231
0.006512000862
0.006512091878
0.006519057417
0.006519057417
0.006566098207
0.00659235943
0.006647992294
0.006755457194
0.006647989098
0.006566095681
0.00652934597
0.006516826334
0.006516004016
0.006531931403
0.00659235943
0.00659235943
0.006929219224
0.007383305009
0.007482138399
0.006929207945
0.006647988151
0.006551456299
0.006523908602
0.006518945528
0.006545393851
0.006674794715
0.007383305009
0.007383305009
0.009865499984
0.007383301669
0.007482134953
0.006800089231
0.006755456365
0.006572357481
0.006528975161
0.006516003512
0.00653193029
0.006592354682
0.006800086146
0.007383301669
0.006800089231
0.006800089231
0.006647990524
0.006540410522
0.006551456447
0.006523909124
0.006512090741
0.006519055861
0.006540409042
0.006592354385
0.00667479343
0.006592354588
0.006540410522
0.006540410522
0.006529346136
0.006512160655
0.006516826507
0.006509489554
0.006512160187
0.006519056479
0.006531930889
0.00654539305
0.006531930123
0.006519056082
0.006512160655
0.006512160655
0.006512000628
0.00650833001
0.006508329614
0.006509490118
0.006512090856
0.006516003767
0.006518944888
0.006516003655
0.006512090196
0.00650948947
0.00650833001
)
;
    }
}


// ************************************************************************* //
