/*--------------------------------*- C++ -*----------------------------------*\
| =========                 |                                                 |
| \\      /  F ield         | OpenFOAM: The Open Source CFD Toolbox           |
|  \\    /   O peration     | Version:  4.x                                   |
|   \\  /    A nd           | Web:      www.OpenFOAM.org                      |
|    \\/     M anipulation  |                                                 |
\*---------------------------------------------------------------------------*/
FoamFile
{
    version     2.0;
    format      ascii;
    class       volScalarField;
    location    "8000";
    object      Cpv;
}
// * * * * * * * * * * * * * * * * * * * * * * * * * * * * * * * * * * * * * //

dimensions      [0 2 -2 -1 0 0 0];

internalField   nonuniform List<scalar> 
1175
(
1210.519043
1210.519045
1210.519047
1210.519037
1210.519029
1210.519001
1210.519007
1210.519012
1210.519028
1210.519031
1210.519028
1210.519036
1210.519068
1210.519085
1210.51914
1210.518369
1210.51839
1210.518373
1210.518399
1210.518402
1210.518405
1210.518392
1210.51839
1210.518372
1210.51838
1210.518384
1210.518412
1210.518427
1210.518498
1210.518585
1210.518798
1210.518788
1210.51878
1210.518768
1210.518755
1210.518763
1210.518766
1210.518773
1210.518773
1210.518777
1210.518782
1210.518834
1210.518879
1210.518962
1210.519151
1210.518771
1210.518759
1210.518772
1210.518782
1210.518792
1210.51876
1210.518744
1210.518778
1210.518784
1210.518774
1210.518759
1210.51879
1210.518857
1210.519036
1210.519345
1210.519229
1210.519254
1210.519281
1210.519259
1210.519251
1210.519261
1210.519283
1210.519266
1210.519268
1210.519265
1210.519242
1210.519244
1210.519325
1210.519521
1210.519947
1210.519243
1210.519237
1210.519227
1210.519228
1210.519229
1210.519232
1210.519239
1210.519227
1210.519196
1210.519183
1210.51918
1210.519208
1210.519268
1210.519454
1210.519788
1210.518564
1210.518591
1210.518579
1210.518591
1210.518611
1210.518611
1210.51862
1210.518591
1210.518616
1210.518612
1210.5186
1210.518609
1210.518629
1210.518719
1210.518917
1210.518978
1210.518994
1210.518986
1210.518993
1210.519011
1210.518992
1210.518999
1210.518989
1210.518982
1210.518993
1210.519001
1210.519005
1210.519043
1210.519071
1210.519171
1210.519161
1210.519168
1210.519178
1210.519185
1210.519165
1210.519167
1210.519166
1210.519163
1210.519161
1210.519159
1210.519157
1210.519146
1210.519168
1210.5192
1210.519272
1210.518436
1210.518449
1210.518438
1210.518448
1210.518459
1210.51846
1210.518474
1210.518463
1210.518452
1210.518437
1210.518441
1210.518451
1210.518461
1210.518511
1210.519384
1210.519393
1210.51938
1210.519386
1210.519364
1210.519361
1210.519365
1210.519333
1210.519353
1210.519366
1210.519377
1210.519408
1210.519431
1210.519508
1210.519677
1210.519664
1210.519662
1210.519658
1210.519655
1210.519651
1210.519623
1210.519616
1210.519616
1210.519621
1210.519618
1210.519637
1210.519648
1210.519755
1210.519968
1210.520391
1210.518907
1210.518922
1210.518943
1210.518922
1210.518924
1210.518938
1210.518939
1210.518916
1210.518929
1210.518936
1210.518948
1210.518999
1210.519148
1210.519579
1210.520476
1210.51922
1210.519204
1210.519203
1210.519237
1210.519228
1210.519212
1210.519226
1210.519206
1210.519199
1210.519214
1210.519246
1210.519329
1210.519567
1210.520252
1210.521681
1210.51839
1210.518396
1210.518422
1210.51841
1210.518391
1210.518393
1210.518385
1210.518409
1210.518403
1210.518399
1210.518433
1210.518484
1210.518646
1210.519105
1210.520028
1210.519979
1210.519975
1210.519999
1210.519998
1210.519976
1210.519969
1210.519965
1210.519989
1210.519974
1210.519977
1210.51998
1210.519999
1210.520076
1210.520285
1210.520726
1210.51798
1210.517994
1210.517979
1210.517954
1210.517955
1210.517957
1210.517963
1210.517955
1210.517978
1210.517984
1210.517969
1210.517998
1210.518048
1210.518153
1210.518359
1210.520073
1210.520099
1210.520107
1210.520136
1210.520123
1210.52011
1210.520094
1210.520083
1210.520081
1210.520089
1210.520089
1210.520107
1210.520111
1210.520143
1210.520219
1210.519124
1210.519101
1210.519111
1210.519115
1210.519112
1210.519127
1210.519113
1210.519097
1210.519109
1210.519113
1210.519085
1210.519104
1210.519154
1210.519272
1210.517854
1210.51785
1210.517875
1210.517868
1210.517882
1210.517874
1210.517861
1210.51788
1210.517865
1210.517887
1210.517875
1210.517899
1210.51801
1210.518227
1210.518607
1210.518606
1210.518589
1210.518586
1210.518594
1210.518599
1210.518609
1210.518607
1210.518599
1210.518609
1210.518636
1210.518709
1210.518935
1210.519527
1210.520742
1210.519024
1210.519046
1210.519045
1210.519013
1210.519015
1210.51905
1210.519063
1210.519042
1210.519049
1210.51907
1210.519111
1210.519268
1210.519801
1210.521286
1210.524548
1210.518317
1210.518328
1210.518332
1210.518341
1210.518339
1210.518351
1210.518365
1210.518336
1210.518358
1210.51835
1210.51841
1210.518631
1210.519444
1210.52219
1210.529002
1210.518849
1210.518853
1210.518852
1210.518828
1210.518838
1210.51883
1210.518854
1210.518878
1210.518865
1210.518866
1210.518896
1210.519073
1210.519561
1210.521032
1210.524284
1210.519052
1210.519042
1210.51903
1210.519033
1210.519042
1210.519055
1210.519096
1210.519072
1210.519075
1210.519084
1210.519122
1210.519223
1210.519434
1210.520028
1210.521243
1210.519814
1210.519806
1210.519806
1210.519823
1210.519848
1210.519849
1210.519834
1210.519827
1210.519841
1210.519852
1210.519894
1210.519932
1210.520016
1210.520235
1210.520679
1210.518318
1210.518319
1210.518326
1210.518312
1210.518306
1210.518328
1210.518319
1210.518318
1210.518301
1210.518316
1210.518319
1210.518321
1210.518372
1210.518458
1210.518651
1210.5192
1210.51919
1210.519194
1210.519188
1210.519214
1210.519188
1210.519179
1210.519162
1210.519142
1210.519151
1210.519149
1210.519193
1210.519254
1210.519394
1210.519699
1210.519706
1210.519684
1210.519669
1210.519659
1210.519654
1210.519656
1210.519625
1210.519623
1210.519622
1210.519626
1210.519681
1210.519838
1210.520302
1210.518422
1210.518421
1210.518437
1210.518462
1210.518458
1210.518444
1210.518447
1210.518464
1210.518493
1210.518501
1210.518537
1210.518696
1210.519177
1210.520642
1210.519065
1210.519076
1210.519074
1210.519057
1210.519049
1210.51905
1210.519056
1210.519054
1210.519063
1210.519081
1210.519164
1210.519516
1210.520892
1210.525583
1210.537639
1210.520173
1210.520157
1210.520178
1210.520187
1210.520163
1210.520141
1210.520152
1210.520154
1210.520144
1210.520155
1210.520295
1210.520864
1210.523539
1210.535187
1210.575421
1210.518459
1210.518478
1210.518506
1210.518492
1210.518501
1210.518539
1210.518531
1210.518535
1210.518511
1210.518521
1210.518606
1210.518948
1210.520285
1210.524981
1210.537057
1210.519138
1210.519135
1210.519119
1210.519137
1210.519124
1210.519105
1210.51909
1210.519104
1210.51911
1210.519118
1210.519161
1210.51931
1210.519839
1210.521335
1210.524596
1210.51794
1210.51796
1210.517963
1210.51796
1210.517979
1210.51797
1210.517966
1210.517979
1210.517964
1210.518013
1210.518029
1210.51808
1210.518236
1210.518683
1210.519612
1210.518606
1210.518618
1210.518613
1210.518602
1210.518585
1210.518595
1210.51859
1210.518597
1210.518597
1210.518601
1210.518633
1210.518656
1210.518732
1210.518872
1210.519176
1210.518802
1210.51881
1210.51882
1210.518821
1210.518827
1210.518813
1210.51884
1210.518857
1210.51885
1210.518845
1210.518846
1210.518872
1210.518955
1210.519167
1210.518308
1210.51831
1210.518343
1210.518331
1210.518314
1210.518316
1210.518317
1210.5183
1210.518315
1210.518325
1210.518353
1210.518436
1210.518675
1210.519351
1210.518868
1210.518878
1210.518882
1210.518914
1210.518911
1210.518906
1210.518918
1210.518952
1210.51896
1210.518966
1210.518991
1210.519201
1210.520031
1210.522773
1210.519407
1210.51943
1210.519407
1210.51943
1210.519453
1210.519439
1210.51946
1210.519461
1210.519462
1210.519473
1210.5196
1210.520182
1210.522824
1210.534495
1210.519128
1210.519114
1210.519104
1210.519109
1210.519124
1210.519121
1210.519157
1210.519147
1210.519175
1210.519194
1210.519386
1210.520508
1210.527219
1210.570938
1210.298634
1210.518653
1210.51865
1210.518622
1210.518636
1210.518619
1210.518616
1210.518603
1210.518597
1210.518631
1210.518657
1210.51877
1210.519354
1210.52204
1210.533703
1210.573926
1210.519376
1210.519365
1210.519385
1210.519407
1210.519408
1210.519412
1210.519422
1210.519396
1210.519426
1210.519461
1210.519535
1210.519755
1210.520555
1210.52328
1210.530101
1210.519289
1210.519261
1210.519281
1210.519287
1210.519292
1210.519296
1210.519299
1210.519281
1210.519301
1210.519302
1210.519307
1210.51938
1210.519583
1210.520276
1210.521692
1210.519655
1210.519656
1210.519674
1210.519657
1210.519647
1210.519652
1210.519636
1210.519636
1210.519646
1210.519663
1210.519665
1210.519689
1210.519795
1210.520005
1210.520427
1210.51894
1210.518929
1210.518903
1210.518894
1210.518872
1210.518873
1210.518867
1210.518859
1210.518865
1210.518878
1210.51892
1210.518953
1210.519021
1210.519181
1210.518688
1210.518685
1210.518697
1210.518713
1210.518721
1210.518723
1210.518732
1210.518733
1210.51874
1210.518731
1210.518747
1210.518756
1210.518899
1210.519336
1210.519288
1210.519274
1210.51926
1210.519254
1210.51923
1210.519239
1210.519249
1210.519219
1210.519224
1210.519219
1210.519287
1210.519439
1210.519948
1210.521412
1210.517985
1210.518
1210.517998
1210.518021
1210.518039
1210.518033
1210.518011
1210.518019
1210.518023
1210.518031
1210.518117
1210.51844
1210.519843
1210.524538
1210.519394
1210.519386
1210.519372
1210.51937
1210.519345
1210.519358
1210.519335
1210.519351
1210.519369
1210.519389
1210.519528
1210.520121
1210.52278
1210.534449
1210.519098
1210.519121
1210.519118
1210.519088
1210.51911
1210.519093
1210.519091
1210.519085
1210.519082
1210.519128
1210.519207
1210.519558
1210.520917
1210.525637
1210.518339
1210.518346
1210.518327
1210.518316
1210.518313
1210.518324
1210.518324
1210.51832
1210.518333
1210.518363
1210.518407
1210.518545
1210.519079
1210.520567
1210.52379
1210.519414
1210.519419
1210.519415
1210.51942
1210.519424
1210.519387
1210.519379
1210.519364
1210.51937
1210.519412
1210.519422
1210.519485
1210.519627
1210.520071
1210.520967
1210.519288
1210.51928
1210.519283
1210.519276
1210.519273
1210.519271
1210.519271
1210.519299
1210.519291
1210.519302
1210.519322
1210.51932
1210.519385
1210.519545
1210.51987
1210.51907
1210.519064
1210.519061
1210.51907
1210.519052
1210.519079
1210.519079
1210.519061
1210.519067
1210.519065
1210.519063
1210.519055
1210.519117
1210.519218
1210.51945
1210.519476
1210.519489
1210.519485
1210.519468
1210.519441
1210.519441
1210.519421
1210.519402
1210.519406
1210.519422
1210.51945
1210.519561
1210.519784
1210.518808
1210.518825
1210.518839
1210.518837
1210.518844
1210.51886
1210.518872
1210.518867
1210.518885
1210.518882
1210.518923
1210.519008
1210.519227
1210.519809
1210.519636
1210.51963
1210.519637
1210.519631
1210.519638
1210.519642
1210.519643
1210.519618
1210.51963
1210.519626
1210.519668
1210.519819
1210.520301
1210.521755
1210.518277
1210.51829
1210.518284
1210.51828
1210.518308
1210.518318
1210.518315
1210.518294
1210.51829
1210.5183
1210.518385
1210.518582
1210.519403
1210.522117
1210.518942
1210.518948
1210.51894
1210.51894
1210.51895
1210.518931
1210.518915
1210.518906
1210.518936
1210.518929
1210.51894
1210.519085
1210.519589
1210.52106
1210.519436
1210.51943
1210.519417
1210.519373
1210.519365
1210.519367
1210.51938
1210.51937
1210.519356
1210.519354
1210.519374
1210.51947
1210.519684
1210.520277
1210.518546
1210.51855
1210.518565
1210.518565
1210.518587
1210.518583
1210.518543
1210.518531
1210.518518
1210.518496
1210.518513
1210.518546
1210.518606
1210.518813
1210.519233
1210.518385
1210.518405
1210.518406
1210.518423
1210.518397
1210.51842
1210.518438
1210.518457
1210.518446
1210.518436
1210.518459
1210.518474
1210.518506
1210.518609
1210.518782
1210.518841
1210.518835
1210.518825
1210.518831
1210.518851
1210.51883
1210.51883
1210.518824
1210.518828
1210.518821
1210.518835
1210.518842
1210.518861
1210.518906
1210.518278
1210.518272
1210.51828
1210.518272
1210.518278
1210.518298
1210.518262
1210.518264
1210.518266
1210.518242
1210.518251
1210.518282
1210.518338
1210.518418
1210.518748
1210.518755
1210.518758
1210.518774
1210.518785
1210.518779
1210.518764
1210.518767
1210.518795
1210.518807
1210.518814
1210.518867
1210.518942
1210.519141
1210.518958
1210.518957
1210.518955
1210.518955
1210.518963
1210.518952
1210.518976
1210.518969
1210.518998
1210.518996
1210.519006
1210.519075
1210.519258
1210.519691
1210.519219
1210.519212
1210.519218
1210.519209
1210.519204
1210.519209
1210.519206
1210.519222
1210.519186
1210.519172
1210.519189
1210.519275
1210.519529
1210.520201
1210.518197
1210.518192
1210.518217
1210.518218
1210.518183
1210.518168
1210.518185
1210.518175
1210.518149
1210.518145
1210.518168
1210.518208
1210.518361
1210.518797
1210.518675
1210.51869
1210.518718
1210.51873
1210.518749
1210.518752
1210.518731
1210.518752
1210.518771
1210.518788
1210.518795
1210.51882
1210.518904
1210.519125
1210.518683
1210.518672
1210.518671
1210.518638
1210.518638
1210.518618
1210.518646
1210.5186
1210.518591
1210.518584
1210.518609
1210.518636
1210.518661
1210.518735
1210.518959
1210.51895
1210.518975
1210.51896
1210.518964
1210.518966
1210.518958
1210.518962
1210.518973
1210.518968
1210.518971
1210.518989
1210.519006
1210.519054
1210.519164
1210.518853
1210.518857
1210.518861
1210.518855
1210.518865
1210.518867
1210.518885
1210.518885
1210.518876
1210.518883
1210.518874
1210.518874
1210.518895
1210.518922
1210.51868
1210.518699
1210.51867
1210.518674
1210.518682
1210.518658
1210.518664
1210.518663
1210.518669
1210.518661
1210.518667
1210.518674
1210.5187
1210.51875
1210.519235
1210.519219
1210.519225
1210.51921
1210.519203
1210.519212
1210.519221
1210.519224
1210.519233
1210.519237
1210.519227
1210.51923
1210.51925
1210.519341
1210.517353
1210.51737
1210.517358
1210.517371
1210.517364
1210.517355
1210.517364
1210.51736
1210.517356
1210.517353
1210.517365
1210.517372
1210.517438
1210.517619
1210.518421
1210.518443
1210.518435
1210.518425
1210.518411
1210.518408
1210.518424
1210.518418
1210.518421
1210.518415
1210.518422
1210.518474
1210.518554
1210.518766
1210.518994
1210.519003
1210.518993
1210.519007
1210.519023
1210.519042
1210.519039
1210.519052
1210.519064
1210.519063
1210.519087
1210.519105
1210.519185
1210.51935
1210.518974
1210.519
1210.518994
1210.519
1210.519003
1210.518972
1210.518955
1210.51896
1210.51894
1210.518939
1210.51898
1210.518984
1210.519025
1210.519118
1210.518625
1210.518646
1210.518667
1210.518678
1210.518686
1210.518688
1210.518694
1210.518707
1210.518726
1210.518718
1210.51871
1210.51873
1210.518747
1210.518824
1210.518668
1210.518667
1210.518653
1210.518655
1210.518663
1210.518676
1210.518664
1210.518672
1210.518671
1210.518675
1210.518693
1210.518685
1210.518714
1210.518733
)
;

boundaryField
{
    top
    {
        type            calculated;
        value           nonuniform List<scalar> 
134
(
1210.519161
1210.520073
1210.518318
1210.518606
1210.519655
1210.519288
1210.518385
1210.518959
1210.518668
1210.519168
1210.520099
1210.518319
1210.518618
1210.519656
1210.51928
1210.518405
1210.51895
1210.518667
1210.519178
1210.520107
1210.518326
1210.518613
1210.519674
1210.519283
1210.518406
1210.518975
1210.518653
1210.519185
1210.520136
1210.518312
1210.518602
1210.519657
1210.519276
1210.518423
1210.51896
1210.518655
1210.519165
1210.520123
1210.518306
1210.518585
1210.519647
1210.519273
1210.518397
1210.518964
1210.518663
1210.519167
1210.52011
1210.518328
1210.518595
1210.519652
1210.519271
1210.51842
1210.518966
1210.518676
1210.519166
1210.520094
1210.518319
1210.51859
1210.519636
1210.519271
1210.518438
1210.518958
1210.518664
1210.519163
1210.520083
1210.518318
1210.518597
1210.519636
1210.519299
1210.518457
1210.518962
1210.518672
1210.519161
1210.520081
1210.518301
1210.518597
1210.519646
1210.519291
1210.518446
1210.518973
1210.518671
1210.519159
1210.520089
1210.518316
1210.518601
1210.519663
1210.519302
1210.518436
1210.518968
1210.518675
1210.519157
1210.520089
1210.518319
1210.518633
1210.519665
1210.519322
1210.518459
1210.518971
1210.518693
1210.519146
1210.520107
1210.518321
1210.518656
1210.519689
1210.51932
1210.518474
1210.518989
1210.518685
1210.519168
1210.520111
1210.518372
1210.518732
1210.519795
1210.519385
1210.518506
1210.519006
1210.518714
1210.5192
1210.520143
1210.518458
1210.518872
1210.520005
1210.519545
1210.518609
1210.519054
1210.518733
1210.519272
1210.520219
1210.518651
1210.519176
1210.520427
1210.51987
1210.518782
1210.519164
)
;
    }
    bottom
    {
        type            calculated;
        value           nonuniform List<scalar> 
127
(
1210.519043
1210.518436
1210.519124
1210.5192
1210.518802
1210.51894
1210.51907
1210.518841
1210.518853
1210.519045
1210.518449
1210.519101
1210.51919
1210.51881
1210.518929
1210.519064
1210.518835
1210.518857
1210.519047
1210.518438
1210.519111
1210.519194
1210.51882
1210.518903
1210.519061
1210.518825
1210.518861
1210.519037
1210.518448
1210.519115
1210.519188
1210.518821
1210.518894
1210.51907
1210.518831
1210.518855
1210.519029
1210.518459
1210.519112
1210.519214
1210.518827
1210.518872
1210.519052
1210.518851
1210.518865
1210.519001
1210.51846
1210.519127
1210.519188
1210.518813
1210.518873
1210.519079
1210.51883
1210.518867
1210.519007
1210.518474
1210.519113
1210.519179
1210.51884
1210.518867
1210.519079
1210.51883
1210.518885
1210.519012
1210.518463
1210.519097
1210.519162
1210.518857
1210.518859
1210.519061
1210.518824
1210.518885
1210.519028
1210.518452
1210.519109
1210.519142
1210.51885
1210.518865
1210.519067
1210.518828
1210.518876
1210.519031
1210.518437
1210.519113
1210.519151
1210.518845
1210.518878
1210.519065
1210.518821
1210.518883
1210.519028
1210.518441
1210.519085
1210.519149
1210.518846
1210.51892
1210.519063
1210.518835
1210.518874
1210.519036
1210.518451
1210.519104
1210.519193
1210.518872
1210.518953
1210.519055
1210.518842
1210.518874
1210.519068
1210.518461
1210.519154
1210.519254
1210.518955
1210.519021
1210.519117
1210.518861
1210.518895
1210.519085
1210.518511
1210.519272
1210.519394
1210.519167
1210.519181
1210.519218
1210.518906
1210.518922
1210.51914
)
;
    }
    side-walls
    {
        type            calculated;
        value           nonuniform List<scalar> 
261
(
1210.519043
1210.518369
1210.518798
1210.518771
1210.519229
1210.519243
1210.518564
1210.518978
1210.519161
1210.519045
1210.51839
1210.518788
1210.518759
1210.519254
1210.519237
1210.518591
1210.518994
1210.519168
1210.519047
1210.518373
1210.51878
1210.518772
1210.519281
1210.519227
1210.518579
1210.518986
1210.519178
1210.519037
1210.518399
1210.518768
1210.518782
1210.519259
1210.519228
1210.518591
1210.518993
1210.519185
1210.519029
1210.518402
1210.518755
1210.518792
1210.519251
1210.519229
1210.518611
1210.519011
1210.519165
1210.519001
1210.518405
1210.518763
1210.51876
1210.519261
1210.519232
1210.518611
1210.518992
1210.519167
1210.519007
1210.518392
1210.518766
1210.518744
1210.519283
1210.519239
1210.51862
1210.518999
1210.519166
1210.519012
1210.51839
1210.518773
1210.518778
1210.519266
1210.519227
1210.518591
1210.518989
1210.519163
1210.519028
1210.518372
1210.518773
1210.518784
1210.519268
1210.519196
1210.518616
1210.518982
1210.519161
1210.519031
1210.51838
1210.518777
1210.518774
1210.519265
1210.519183
1210.518612
1210.518993
1210.519159
1210.519028
1210.518384
1210.518782
1210.518759
1210.519242
1210.51918
1210.5186
1210.519001
1210.519157
1210.519036
1210.518412
1210.518834
1210.51879
1210.519244
1210.519208
1210.518609
1210.519005
1210.519146
1210.519068
1210.518427
1210.518879
1210.518857
1210.519325
1210.519268
1210.518629
1210.519043
1210.519168
1210.519085
1210.518498
1210.518962
1210.519036
1210.519521
1210.519454
1210.518719
1210.519071
1210.5192
1210.51914
1210.518585
1210.519151
1210.519345
1210.519947
1210.519788
1210.518917
1210.519171
1210.519272
1210.518853
1210.51868
1210.519235
1210.517353
1210.518421
1210.518994
1210.518974
1210.518625
1210.518668
1210.518857
1210.518699
1210.519219
1210.51737
1210.518443
1210.519003
1210.519
1210.518646
1210.518667
1210.518861
1210.51867
1210.519225
1210.517358
1210.518435
1210.518993
1210.518994
1210.518667
1210.518653
1210.518855
1210.518674
1210.51921
1210.517371
1210.518425
1210.519007
1210.519
1210.518678
1210.518655
1210.518865
1210.518682
1210.519203
1210.517364
1210.518411
1210.519023
1210.519003
1210.518686
1210.518663
1210.518867
1210.518658
1210.519212
1210.517355
1210.518408
1210.519042
1210.518972
1210.518688
1210.518676
1210.518885
1210.518664
1210.519221
1210.517364
1210.518424
1210.519039
1210.518955
1210.518694
1210.518664
1210.518885
1210.518663
1210.519224
1210.51736
1210.518418
1210.519052
1210.51896
1210.518707
1210.518672
1210.518876
1210.518669
1210.519233
1210.517356
1210.518421
1210.519064
1210.51894
1210.518726
1210.518671
1210.518883
1210.518661
1210.519237
1210.517353
1210.518415
1210.519063
1210.518939
1210.518718
1210.518675
1210.518874
1210.518667
1210.519227
1210.517365
1210.518422
1210.519087
1210.51898
1210.51871
1210.518693
1210.518874
1210.518674
1210.51923
1210.517372
1210.518474
1210.519105
1210.518984
1210.51873
1210.518685
1210.518895
1210.5187
1210.51925
1210.517438
1210.518554
1210.519185
1210.519025
1210.518747
1210.518714
1210.518922
1210.51875
1210.519341
1210.517619
1210.518766
1210.51935
1210.519118
1210.518824
1210.518733
)
;
    }
    inlet
    {
        type            calculated;
        value           nonuniform List<scalar> 
81
(
1210.519043
1210.518369
1210.518798
1210.518771
1210.519229
1210.519243
1210.518564
1210.518978
1210.519161
1210.518436
1210.519384
1210.519664
1210.518907
1210.51922
1210.51839
1210.519979
1210.51798
1210.520073
1210.519124
1210.517854
1210.518607
1210.519024
1210.518317
1210.518849
1210.519052
1210.519814
1210.518318
1210.5192
1210.519699
1210.518422
1210.519065
1210.520173
1210.518459
1210.519138
1210.51794
1210.518606
1210.518802
1210.518308
1210.518868
1210.519407
1210.519128
1210.518653
1210.519376
1210.519289
1210.519655
1210.51894
1210.518688
1210.519288
1210.517985
1210.519394
1210.519098
1210.518339
1210.519414
1210.519288
1210.51907
1210.51945
1210.518808
1210.519636
1210.518277
1210.518942
1210.519436
1210.518546
1210.518385
1210.518841
1210.518278
1210.518748
1210.518958
1210.519219
1210.518197
1210.518675
1210.518683
1210.518959
1210.518853
1210.51868
1210.519235
1210.517353
1210.518421
1210.518994
1210.518974
1210.518625
1210.518668
)
;
    }
    outlet
    {
        type            calculated;
        value           nonuniform 0();
    }
    procBoundary0to1
    {
        type            processor;
        value           nonuniform List<scalar> 
97
(
1210.519237
1210.518623
1210.518753
1210.519443
1210.519836
1210.520575
1210.520305
1210.51923
1210.519321
1210.519368
1210.518623
1210.518623
1210.51999
1210.518666
1210.521045
1210.521711
1210.523396
1210.521276
1210.521377
1210.518665
1210.520393
1210.519458
1210.518666
1210.518666
1210.522389
1210.523889
1210.528076
1210.534105
1210.527767
1210.522865
1210.521315
1210.518938
1210.519727
1210.521174
1210.523889
1210.523889
1210.545835
1210.57472
1210.581689
1210.545234
1210.52816
1210.52084
1210.51968
1210.519608
1210.520781
1210.529528
1210.57472
1210.57472
1210.152964
1210.574692
1210.580194
1210.537708
1210.535209
1210.523393
1210.521055
1210.519475
1210.520239
1210.52466
1210.536613
1210.574692
1210.537708
1210.537708
1210.52728
1210.521482
1210.522198
1210.520377
1210.519378
1210.520225
1210.521035
1210.525004
1210.528949
1210.524352
1210.521482
1210.521482
1210.519875
1210.51895
1210.519074
1210.519011
1210.518584
1210.519589
1210.520587
1210.521629
1210.519695
1210.519582
1210.51895
1210.51895
1210.519328
1210.518787
1210.518982
1210.518857
1210.519527
1210.517955
1210.519199
1210.519687
1210.519289
1210.518925
1210.518787
)
;
    }
}


// ************************************************************************* //
