/*--------------------------------*- C++ -*----------------------------------*\
| =========                 |                                                 |
| \\      /  F ield         | OpenFOAM: The Open Source CFD Toolbox           |
|  \\    /   O peration     | Version:  4.x                                   |
|   \\  /    A nd           | Web:      www.OpenFOAM.org                      |
|    \\/     M anipulation  |                                                 |
\*---------------------------------------------------------------------------*/
FoamFile
{
    version     2.0;
    format      ascii;
    class       volScalarField;
    location    "8000";
    object      molarConc;
}
// * * * * * * * * * * * * * * * * * * * * * * * * * * * * * * * * * * * * * //

dimensions      [0 -3 0 0 1 0 0];

internalField   nonuniform List<scalar> 
1175
(
9.963271848
9.963271736
9.963271603
9.963272162
9.963272604
9.963274124
9.963273812
9.963273536
9.963272694
9.963272569
9.963272856
9.963272673
9.963271597
9.963272189
9.963272147
9.963308772
9.963307621
9.963308555
9.963307134
9.963306933
9.963306798
9.963307526
9.963307634
9.963308623
9.963308226
9.963308186
9.963307098
9.963307443
9.963306142
9.963306526
9.963285253
9.963285787
9.963286247
9.963286924
9.963287643
9.963287197
9.963287015
9.963286664
9.963286659
9.963286576
9.963286537
9.963284547
9.963284283
9.963284834
9.963284559
9.963286772
9.963287424
9.963286692
9.963286138
9.963285599
9.963287346
9.963288215
9.963286365
9.963286087
9.963286758
9.963288016
9.963287701
9.96328768
9.963286779
9.963287493
9.963261642
9.963260307
9.963258808
9.963260004
9.963260483
9.963259892
9.963258728
9.963259624
9.963259583
9.963259892
9.963261706
9.963263257
9.963263517
9.963264509
9.963264714
9.963260871
9.963261249
9.963261786
9.963261693
9.963261679
9.963261521
9.963261117
9.963261796
9.96326354
9.963264383
9.963264996
9.963264781
9.963265181
9.963263851
9.963263271
9.963298065
9.963296579
9.963297291
9.963296593
9.963295533
9.963295502
9.963295044
9.96329662
9.963295295
9.963295571
9.963296539
9.963296878
9.96329797
9.963298127
9.963297364
9.96327539
9.96327455
9.963274973
9.963274613
9.963273628
9.96327462
9.963274278
9.96327482
9.963275214
9.963274694
9.963274418
9.963274622
9.963273729
9.963274785
9.963274426
9.963265409
9.963265021
9.963264455
9.963264054
9.963265152
9.963265069
9.963265107
9.963265266
9.963265411
9.963265535
9.963265766
9.963266641
9.963266116
9.963265868
9.963264864
9.96330507
9.963304393
9.963304967
9.963304461
9.963303813
9.963303761
9.963303017
9.963303637
9.963304236
9.963305146
9.963305043
9.963304981
9.963305558
9.963305447
9.963253144
9.963252692
9.963253373
9.963253053
9.963254289
9.963254443
9.963254234
9.963256003
9.963254882
9.963254261
9.963253986
9.963253092
9.963254046
9.963255013
9.963255984
9.963237835
9.963237944
9.963238161
9.963238349
9.963238549
9.963240098
9.963240472
9.963240498
9.963240234
9.963240608
9.963240095
9.963241166
9.963240142
9.963240328
9.963240812
9.963279306
9.963278455
9.963277334
9.963278485
9.963278377
9.963277612
9.963277547
9.963278825
9.963278207
9.963278057
9.96327831
9.963278572
9.963279721
9.963280298
9.963280807
9.963262165
9.963263009
9.963263104
9.963261231
9.963261742
9.963262586
9.963261813
9.963262959
9.963263442
9.963262935
9.96326234
9.963261873
9.963261945
9.963261145
9.963261512
9.96330764
9.963307279
9.963305836
9.963306512
9.963307583
9.963307476
9.963307883
9.963306601
9.963306994
9.963307481
9.963306517
9.963306796
9.963307213
9.963306267
9.963305354
9.963220577
9.9632208
9.963219461
9.963219562
9.963220748
9.963221119
9.963221362
9.963220056
9.963220906
9.963220893
9.963221327
9.963221955
9.963222552
9.963222958
9.963222439
9.963330068
9.963329284
9.96333014
9.963331499
9.963331425
9.963331331
9.963331008
9.963331472
9.963330238
9.963329995
9.963331059
9.963330351
9.963329778
9.963329221
9.963328192
9.963215415
9.963214021
9.963213555
9.963211987
9.963212681
9.963213424
9.963214292
9.963214906
9.963215034
9.963214641
9.963214821
9.963214277
9.963215222
9.963216065
9.963217041
9.963267399
9.963268666
9.963268146
9.963267885
9.963268065
9.963267237
9.963268022
9.963268922
9.963268254
9.963268171
9.963269972
9.963269781
9.963269217
9.963267863
9.963336977
9.963337209
9.963335843
9.963336174
9.96333545
9.96333585
9.963336608
9.963335555
9.963336448
9.963335386
9.963336586
9.963336964
9.963335717
9.963335671
9.963295703
9.963295761
9.963296688
9.96329686
9.963296434
9.963296146
9.963295652
9.963295776
9.96329626
9.963296059
9.963295744
9.96329572
9.963295541
9.963295543
9.963295662
9.963272865
9.963271678
9.963271714
9.963273471
9.963273399
9.963271455
9.963270779
9.963271957
9.963271725
9.963271103
9.963271001
9.963270502
9.963268871
9.963268459
9.963267393
9.963311593
9.963310997
9.963310805
9.96331031
9.963310434
9.963309773
9.963308997
9.963310646
9.963309604
9.963310717
9.963310423
9.963310192
9.9633105
9.963309797
9.963309393
9.963282459
9.963282263
9.963282301
9.963283616
9.963283065
9.963283518
9.963282215
9.96328093
9.963281798
9.963282264
9.96328279
9.96328119
9.963281976
9.963282343
9.963281816
9.963271377
9.963271898
9.963272565
9.963272393
9.963271891
9.963271185
9.963268943
9.963270279
9.963270197
9.963270013
9.963269116
9.963267563
9.963268207
9.963268123
9.963268227
9.963229597
9.963230077
9.96323007
9.963229114
9.963227755
9.963227685
9.963228545
9.963228941
9.963228191
9.963227743
9.963225986
9.96322562
9.963225822
9.963225676
9.963225027
9.963311561
9.963311494
9.963311122
9.963311867
9.963312201
9.963310996
9.963311479
9.963311591
9.963312531
9.963311807
9.963311928
9.963312643
9.963312059
9.963312413
9.963311944
9.963263272
9.963263809
9.963263575
9.96326391
9.96326249
9.963263889
9.963264421
9.963265325
9.963266499
9.9632661
9.963266696
9.96326562
9.963265937
9.963267143
9.963235902
9.963235539
9.963236743
9.963237562
9.963238118
9.963238366
9.963238265
9.963240004
9.963240154
9.963240489
9.963241164
9.963241261
9.963241893
9.963240717
9.963305866
9.96330591
9.963305027
9.963303677
9.96330391
9.96330465
9.963304477
9.963303618
9.963302133
9.963302253
9.963302489
9.963301801
9.963303038
9.963303739
9.963270624
9.963270044
9.96327017
9.963271059
9.963271504
9.963271473
9.963271164
9.963271316
9.963271031
9.963271077
9.963271005
9.963270566
9.963269518
9.963270814
9.963271032
9.96320998
9.963210818
9.963209687
9.963209182
9.963210524
9.963211702
9.963211123
9.963211065
9.963211901
9.963212726
9.963211684
9.963211928
9.963211714
9.963211987
9.963224472
9.963303822
9.963302805
9.963301271
9.963302002
9.963301548
9.96329945
9.963299881
9.963299752
9.963301313
9.963301767
9.963301576
9.96330167
9.963302722
9.963303751
9.963302824
9.963266651
9.963266785
9.9632677
9.963266696
9.963267399
9.963268452
9.963269259
9.963268558
9.963268346
9.963268457
9.963268266
9.963268205
9.963266785
9.963265748
9.963264753
9.963332251
9.963331167
9.963331006
9.963331141
9.96333012
9.963330637
9.963330854
9.96333017
9.963331017
9.963328613
9.963328628
9.9633289
9.963329641
9.963329414
9.963328138
9.963295796
9.963295117
9.963295416
9.963296009
9.963296929
9.963296403
9.96329665
9.963296279
9.963296315
9.963296248
9.963294924
9.96329502
9.963294547
9.963295727
9.963296752
9.963285058
9.96328462
9.963284044
9.963284023
9.963283654
9.963284472
9.963282993
9.96328204
9.963282494
9.963282888
9.963283369
9.963283616
9.963283802
9.963283888
9.963312099
9.963311972
9.963310174
9.963310856
9.963311787
9.963311657
9.963311605
9.963312584
9.963311826
9.963311592
9.963311255
9.96331078
9.963310819
9.963310504
9.96328142
9.963280897
9.963280647
9.963278911
9.963279066
9.963279379
9.963278727
9.963276861
9.963276634
9.963276971
9.96327856
9.963278975
9.963278387
9.963277906
9.963251929
9.963250651
9.963251902
9.963250664
9.963249369
9.963250165
9.963249048
9.963249051
9.963249301
9.963250078
9.963249727
9.963249269
9.963250888
9.963249973
9.963267219
9.963267961
9.963268494
9.963268222
9.963267398
9.963267575
9.963265638
9.963266234
9.963265136
9.963266061
9.963266275
9.963265562
9.963265477
9.963262259
9.994995335
9.963293181
9.963293375
9.963294909
9.963294164
9.963295095
9.96329522
9.963295958
9.963296369
9.96329477
9.963294771
9.963295212
9.963294638
9.963293794
9.963293296
9.963306343
9.963253623
9.963254216
9.963253094
9.963251886
9.963251841
9.963251624
9.963251124
9.963252542
9.963251077
9.963249867
9.963248776
9.963248625
9.963249665
9.963250091
9.963249186
9.963258382
9.96325992
9.963258802
9.96325847
9.963258225
9.963257991
9.963257825
9.963258852
9.963257836
9.963258092
9.963258953
9.963259042
9.963261088
9.963259795
9.963260882
9.96323832
9.963238263
9.96323728
9.963238203
9.96323874
9.963238518
9.963239363
9.963239401
9.963238884
9.963238121
9.963238538
9.963238846
9.963237749
9.963237961
9.963238455
9.963277512
9.9632781
9.963279532
9.963279991
9.963281213
9.963281165
9.963281473
9.963281938
9.963281639
9.963281051
9.96327921
9.963278746
9.963278734
9.963278817
9.963291295
9.963291472
9.963290824
9.96328991
9.963289478
9.963289352
9.963288886
9.963288865
9.963288529
9.963289275
9.963289321
9.963291889
9.963293352
9.963293618
9.963258436
9.963259188
9.963259987
9.963260277
9.963261603
9.963261089
9.963260579
9.963262263
9.963262105
9.963262923
9.963261361
9.963261151
9.963260807
9.963261571
9.963329771
9.963328963
9.963329063
9.963327794
9.963326841
9.963327195
9.963328377
9.963328002
9.963327991
9.963328587
9.963328337
9.963329483
9.96332697
9.963328093
9.963252617
9.963253061
9.963253829
9.963253914
9.963255316
9.963254609
9.96325585
9.963255051
9.963254378
9.963254669
9.963253679
9.963252631
9.963253291
9.963252549
9.963268831
9.96326757
9.963267725
9.963269356
9.963268173
9.96326909
9.963269233
9.963269628
9.963270016
9.963268538
9.963268675
9.96326823
9.963268116
9.963267899
9.96331043
9.963310048
9.963311045
9.963311658
9.963311812
9.963311225
9.963311233
9.963311477
9.963310937
9.963309824
9.963309582
9.963310105
9.963308369
9.963307805
9.963308945
9.963251517
9.963251233
9.963251472
9.963251182
9.963251002
9.963252986
9.963253436
9.963254317
9.96325403
9.96325199
9.963252341
9.96325194
9.963253463
9.96325339
9.963253895
9.963258444
9.963258877
9.963258728
9.963259066
9.963259247
9.963259367
9.963259377
9.963257857
9.963258334
9.963257836
9.963257206
9.963258619
9.963258776
9.96325889
9.963258738
9.963270354
9.963270695
9.963270846
9.963270355
9.963271374
9.96326986
9.963269867
9.963270892
9.963270576
9.963270785
9.963271168
9.96327244
9.963271249
9.963270809
9.963249559
9.963248132
9.96324742
9.963247632
9.963248588
9.963250044
9.963250061
9.963251152
9.963252245
9.963252209
9.963251885
9.96325204
9.96325079
9.963250403
9.963284726
9.963283806
9.963283014
9.963283153
9.963282742
9.963281863
9.963281243
9.96328149
9.963280619
9.963281077
9.963280021
9.963279316
9.963279584
9.96328009
9.963239353
9.963239714
9.963239306
9.963239645
9.963239242
9.963239059
9.963239017
9.96324042
9.963239858
9.963240657
9.96324049
9.963240295
9.96324145
9.963242774
9.963313821
9.963313067
9.963313396
9.963313646
9.963312126
9.963311554
9.963311723
9.96331291
9.96331332
9.963313482
9.963311775
9.963312843
9.963312748
9.963313829
9.963277392
9.963277026
9.963277499
9.963277478
9.963276942
9.963277972
9.96327886
9.963279371
9.963277883
9.963278829
9.963280387
9.963280504
9.963280476
9.963280831
9.963250311
9.963250641
9.963251337
9.96325375
9.96325422
9.963254094
9.96325338
9.963253952
9.963254809
9.963255261
9.963255297
9.963254014
9.963254515
9.963254468
9.963299072
9.96329886
9.963298019
9.963298008
9.963296825
9.963297068
9.963299243
9.963299931
9.963300666
9.963302046
9.963301646
9.963301541
9.9633031
9.963303589
9.963304223
9.963307892
9.963306789
9.963306741
9.963305798
9.963307228
9.963305947
9.963305002
9.963303965
9.963304584
9.963305201
9.963304255
9.963304252
9.963304719
9.963304182
9.963304785
9.963282894
9.963283247
9.963283761
9.963283468
9.963282345
9.963283489
9.963283528
9.963283855
9.963283628
9.963284061
9.963283509
9.963283572
9.963283662
9.963283793
9.963313747
9.963314054
9.963313629
9.963314066
9.963313767
9.963312665
9.963314645
9.963314533
9.963314452
9.963315851
9.963315651
9.963314744
9.963313933
9.963314731
9.96328802
9.963287624
9.96328746
9.963286595
9.963285992
9.963286299
9.963287138
9.963286996
9.963285487
9.963285018
9.963285184
9.963283971
9.963284692
9.963285593
9.963276496
9.963276557
9.96327667
9.963276673
9.963276202
9.963276823
9.963275513
9.96327591
9.963274397
9.963274777
9.963275133
9.963274427
9.96327365
9.963274174
9.963262185
9.963262573
9.963262258
9.963262754
9.963263016
9.96326275
9.963262933
9.96326209
9.963264125
9.963265217
9.96326543
9.963264802
9.963264023
9.963263948
9.963318196
9.96331845
9.963317067
9.963317032
9.96331897
9.963319795
9.963318828
9.963319416
9.963320912
9.963321362
9.963321064
9.963321906
9.963322774
9.963323179
9.963291999
9.963291164
9.963289626
9.963288961
9.96328794
9.963287785
9.963288922
9.9632878
9.963286793
9.963286033
9.963286211
9.96328653
9.963286773
9.96328647
9.963291545
9.963292153
9.963292228
9.963294036
9.963294007
9.963295138
9.963293584
9.963296101
9.963296662
9.963297118
9.963296023
9.96329538
9.963296241
9.963297329
9.963276448
9.963276929
9.963275583
9.963276387
9.963276192
9.963276084
9.963276499
9.963276269
9.963275701
9.963276053
9.963276052
9.96327548
9.963275705
9.963275711
9.963274852
9.963282252
9.963282019
9.963281815
9.963282153
9.963281597
9.963281487
9.963280479
9.963280506
9.963281022
9.963280683
9.963281257
9.963281542
9.963281051
9.963281092
9.963291706
9.963290691
9.963292296
9.96329206
9.963291639
9.963292946
9.963292586
9.963292655
9.963292338
9.963292839
9.963292694
9.963292739
9.963292507
9.963292371
9.963261337
9.963262213
9.963261865
9.963262677
9.963263089
9.963262597
9.963262124
9.963261938
9.963261456
9.963261338
9.963262169
9.963262847
9.963263927
9.96326409
9.963364383
9.96336347
9.963364137
9.963363424
9.96336383
9.963364319
9.963363795
9.963364027
9.96336428
9.963364586
9.963364356
9.963365348
9.963365402
9.963364366
9.963305931
9.96330473
9.963305137
9.963305692
9.96330647
9.963306655
9.963305773
9.963306102
9.96330597
9.963306462
9.963306592
9.963305435
9.963305742
9.963305838
9.963274555
9.96327402
9.963274582
9.963273833
9.96327297
9.963271922
9.963272074
9.963271373
9.963270733
9.963270968
9.963270053
9.963270402
9.963269712
9.963269549
9.963275616
9.963274179
9.963274547
9.963274193
9.963274025
9.963275738
9.963276649
9.963276428
9.963277543
9.963277651
9.963275689
9.963276346
9.963276253
9.963276302
9.963294734
9.963293567
9.96329246
9.963291842
9.963291413
9.963291311
9.963290987
9.963290266
9.963289215
9.96328972
9.963290353
9.96328967
9.96328989
9.963288313
9.963292374
9.963292467
9.963293201
9.963293103
9.963292674
9.963291925
9.963292608
9.963292162
9.963292257
9.963292053
9.963291199
9.963291903
9.963290968
9.963291434
)
;

boundaryField
{
    top
    {
        type            calculated;
        value           nonuniform List<scalar> 
134
(
9.963265409
9.963215415
9.963311561
9.963295796
9.96323832
9.963258444
9.963307892
9.963276448
9.963292374
9.963265021
9.963214021
9.963311494
9.963295117
9.963238263
9.963258877
9.963306789
9.963276929
9.963292467
9.963264455
9.963213555
9.963311122
9.963295416
9.96323728
9.963258728
9.963306741
9.963275583
9.963293201
9.963264054
9.963211987
9.963311867
9.963296009
9.963238203
9.963259066
9.963305798
9.963276387
9.963293103
9.963265152
9.963212681
9.963312201
9.963296929
9.96323874
9.963259247
9.963307228
9.963276192
9.963292674
9.963265069
9.963213424
9.963310996
9.963296403
9.963238518
9.963259367
9.963305947
9.963276084
9.963291925
9.963265107
9.963214292
9.963311479
9.96329665
9.963239363
9.963259377
9.963305002
9.963276499
9.963292608
9.963265266
9.963214906
9.963311591
9.963296279
9.963239401
9.963257857
9.963303965
9.963276269
9.963292162
9.963265411
9.963215034
9.963312531
9.963296315
9.963238884
9.963258334
9.963304584
9.963275701
9.963292257
9.963265535
9.963214641
9.963311807
9.963296248
9.963238121
9.963257836
9.963305201
9.963276053
9.963292053
9.963265766
9.963214821
9.963311928
9.963294924
9.963238538
9.963257206
9.963304255
9.963276052
9.963291199
9.963266641
9.963214277
9.963312643
9.96329502
9.963238846
9.963258619
9.963304252
9.96327548
9.963291903
9.963266116
9.963215222
9.963312059
9.963294547
9.963237749
9.963258776
9.963304719
9.963275705
9.963290968
9.963265868
9.963216065
9.963312413
9.963295727
9.963237961
9.96325889
9.963304182
9.963275711
9.963291434
9.963264864
9.963217041
9.963311944
9.963296752
9.963238455
9.963258738
9.963304785
9.963274852
)
;
    }
    bottom
    {
        type            calculated;
        value           nonuniform List<scalar> 
127
(
9.963271848
9.96330507
9.963267399
9.963263272
9.963285058
9.963277512
9.963270354
9.963282894
9.963282252
9.963271736
9.963304393
9.963268666
9.963263809
9.96328462
9.9632781
9.963270695
9.963283247
9.963282019
9.963271603
9.963304967
9.963268146
9.963263575
9.963284044
9.963279532
9.963270846
9.963283761
9.963281815
9.963272162
9.963304461
9.963267885
9.96326391
9.963284023
9.963279991
9.963270355
9.963283468
9.963282153
9.963272604
9.963303813
9.963268065
9.96326249
9.963283654
9.963281213
9.963271374
9.963282345
9.963281597
9.963274124
9.963303761
9.963267237
9.963263889
9.963284472
9.963281165
9.96326986
9.963283489
9.963281487
9.963273812
9.963303017
9.963268022
9.963264421
9.963282993
9.963281473
9.963269867
9.963283528
9.963280479
9.963273536
9.963303637
9.963268922
9.963265325
9.96328204
9.963281938
9.963270892
9.963283855
9.963280506
9.963272694
9.963304236
9.963268254
9.963266499
9.963282494
9.963281639
9.963270576
9.963283628
9.963281022
9.963272569
9.963305146
9.963268171
9.9632661
9.963282888
9.963281051
9.963270785
9.963284061
9.963280683
9.963272856
9.963305043
9.963269972
9.963266696
9.963283369
9.96327921
9.963271168
9.963283509
9.963281257
9.963272673
9.963304981
9.963269781
9.96326562
9.963283616
9.963278746
9.96327244
9.963283572
9.963281542
9.963271597
9.963305558
9.963269217
9.963265937
9.963283802
9.963278734
9.963271249
9.963283662
9.963281051
9.963272189
9.963305447
9.963267863
9.963267143
9.963283888
9.963278817
9.963270809
9.963283793
9.963281092
9.963272147
)
;
    }
    side-walls
    {
        type            calculated;
        value           nonuniform List<scalar> 
261
(
9.963271848
9.963308772
9.963285253
9.963286772
9.963261642
9.963260871
9.963298065
9.96327539
9.963265409
9.963271736
9.963307621
9.963285787
9.963287424
9.963260307
9.963261249
9.963296579
9.96327455
9.963265021
9.963271603
9.963308555
9.963286247
9.963286692
9.963258808
9.963261786
9.963297291
9.963274973
9.963264455
9.963272162
9.963307134
9.963286924
9.963286138
9.963260004
9.963261693
9.963296593
9.963274613
9.963264054
9.963272604
9.963306933
9.963287643
9.963285599
9.963260483
9.963261679
9.963295533
9.963273628
9.963265152
9.963274124
9.963306798
9.963287197
9.963287346
9.963259892
9.963261521
9.963295502
9.96327462
9.963265069
9.963273812
9.963307526
9.963287015
9.963288215
9.963258728
9.963261117
9.963295044
9.963274278
9.963265107
9.963273536
9.963307634
9.963286664
9.963286365
9.963259624
9.963261796
9.96329662
9.96327482
9.963265266
9.963272694
9.963308623
9.963286659
9.963286087
9.963259583
9.96326354
9.963295295
9.963275214
9.963265411
9.963272569
9.963308226
9.963286576
9.963286758
9.963259892
9.963264383
9.963295571
9.963274694
9.963265535
9.963272856
9.963308186
9.963286537
9.963288016
9.963261706
9.963264996
9.963296539
9.963274418
9.963265766
9.963272673
9.963307098
9.963284547
9.963287701
9.963263257
9.963264781
9.963296878
9.963274622
9.963266641
9.963271597
9.963307443
9.963284283
9.96328768
9.963263517
9.963265181
9.96329797
9.963273729
9.963266116
9.963272189
9.963306142
9.963284834
9.963286779
9.963264509
9.963263851
9.963298127
9.963274785
9.963265868
9.963272147
9.963306526
9.963284559
9.963287493
9.963264714
9.963263271
9.963297364
9.963274426
9.963264864
9.963282252
9.963291706
9.963261337
9.963364383
9.963305931
9.963274555
9.963275616
9.963294734
9.963292374
9.963282019
9.963290691
9.963262213
9.96336347
9.96330473
9.96327402
9.963274179
9.963293567
9.963292467
9.963281815
9.963292296
9.963261865
9.963364137
9.963305137
9.963274582
9.963274547
9.96329246
9.963293201
9.963282153
9.96329206
9.963262677
9.963363424
9.963305692
9.963273833
9.963274193
9.963291842
9.963293103
9.963281597
9.963291639
9.963263089
9.96336383
9.96330647
9.96327297
9.963274025
9.963291413
9.963292674
9.963281487
9.963292946
9.963262597
9.963364319
9.963306655
9.963271922
9.963275738
9.963291311
9.963291925
9.963280479
9.963292586
9.963262124
9.963363795
9.963305773
9.963272074
9.963276649
9.963290987
9.963292608
9.963280506
9.963292655
9.963261938
9.963364027
9.963306102
9.963271373
9.963276428
9.963290266
9.963292162
9.963281022
9.963292338
9.963261456
9.96336428
9.96330597
9.963270733
9.963277543
9.963289215
9.963292257
9.963280683
9.963292839
9.963261338
9.963364586
9.963306462
9.963270968
9.963277651
9.96328972
9.963292053
9.963281257
9.963292694
9.963262169
9.963364356
9.963306592
9.963270053
9.963275689
9.963290353
9.963291199
9.963281542
9.963292739
9.963262847
9.963365348
9.963305435
9.963270402
9.963276346
9.96328967
9.963291903
9.963281051
9.963292507
9.963263927
9.963365402
9.963305742
9.963269712
9.963276253
9.96328989
9.963290968
9.963281092
9.963292371
9.96326409
9.963364366
9.963305838
9.963269549
9.963276302
9.963288313
9.963291434
)
;
    }
    inlet
    {
        type            calculated;
        value           nonuniform List<scalar> 
81
(
9.963271848
9.963308772
9.963285253
9.963286772
9.963261642
9.963260871
9.963298065
9.96327539
9.963265409
9.96330507
9.963253144
9.963237835
9.963279306
9.963262165
9.96330764
9.963220577
9.963330068
9.963215415
9.963267399
9.963336977
9.963295703
9.963272865
9.963311593
9.963282459
9.963271377
9.963229597
9.963311561
9.963263272
9.963235902
9.963305866
9.963270624
9.96320998
9.963303822
9.963266651
9.963332251
9.963295796
9.963285058
9.963312099
9.96328142
9.963251929
9.963267219
9.963293181
9.963253623
9.963258382
9.96323832
9.963277512
9.963291295
9.963258436
9.963329771
9.963252617
9.963268831
9.96331043
9.963251517
9.963258444
9.963270354
9.963249559
9.963284726
9.963239353
9.963313821
9.963277392
9.963250311
9.963299072
9.963307892
9.963282894
9.963313747
9.96328802
9.963276496
9.963262185
9.963318196
9.963291999
9.963291545
9.963276448
9.963282252
9.963291706
9.963261337
9.963364383
9.963305931
9.963274555
9.963275616
9.963294734
9.963292374
)
;
    }
    outlet
    {
        type            calculated;
        value           nonuniform 0();
    }
    procBoundary0to1
    {
        type            processor;
        value           nonuniform List<scalar> 
97
(
9.963271977
9.963304463
9.963306051
9.963284992
9.963288024
9.963265116
9.963262372
9.963296651
9.963274927
9.963264811
9.963304463
9.963304463
9.963255397
9.963335313
9.963240666
9.963280885
9.963261145
9.963304747
9.963222513
9.963327961
9.963216215
9.963267729
9.963335313
9.963335313
9.963294584
9.96330353
9.963267187
9.96330975
9.963284099
9.963268495
9.963225909
9.963312667
9.963266579
9.963242571
9.96330353
9.96330353
9.963270077
9.963263192
9.963224401
9.963302936
9.963262567
9.963328616
9.963296602
9.963283328
9.963310816
9.963280622
9.963263192
9.963263192
9.994988293
9.963264721
9.963306219
9.963267218
9.96324931
9.963261304
9.963238867
9.963280418
9.963293811
9.96326129
9.963327201
9.963264721
9.963267218
9.963267218
9.963310791
9.963255131
9.963254239
9.963258413
9.963272109
9.963249927
9.963279637
9.963242404
9.963312345
9.963278134
9.963255131
9.963255131
9.963304743
9.963295792
9.963305225
9.963283186
9.963315845
9.963284758
9.963274755
9.963264391
9.963323609
9.963285105
9.963295792
9.963295792
9.963274564
9.963291429
9.963280795
9.963291633
9.963263976
9.963363626
9.963305735
9.963268793
9.963276982
9.963287893
9.963291429
)
;
    }
}


// ************************************************************************* //
