/*--------------------------------*- C++ -*----------------------------------*\
| =========                 |                                                 |
| \\      /  F ield         | OpenFOAM: The Open Source CFD Toolbox           |
|  \\    /   O peration     | Version:  4.x                                   |
|   \\  /    A nd           | Web:      www.OpenFOAM.org                      |
|    \\/     M anipulation  |                                                 |
\*---------------------------------------------------------------------------*/
FoamFile
{
    version     2.0;
    format      ascii;
    class       volScalarField;
    location    "8000";
    object      N2;
}
// * * * * * * * * * * * * * * * * * * * * * * * * * * * * * * * * * * * * * //

dimensions      [0 0 0 0 0 0 0];

internalField   nonuniform List<scalar> 
1175
(
0.6215293954
0.6215293959
0.6215293958
0.621529396
0.6215293958
0.6215293955
0.6215293951
0.6215293952
0.6215293943
0.6215293918
0.621529385
0.621529367
0.6215293229
0.6215292244
0.6215290306
0.6215293958
0.6215293957
0.6215293957
0.6215293958
0.6215293957
0.6215293956
0.6215293954
0.621529395
0.6215293939
0.62152939
0.6215293793
0.6215293501
0.6215292745
0.6215291035
0.6215287677
0.6215293958
0.6215293957
0.6215293957
0.6215293954
0.6215293954
0.6215293955
0.6215293952
0.6215293946
0.621529393
0.6215293872
0.6215293683
0.6215293142
0.6215291708
0.6215288373
0.6215281783
0.6215293956
0.6215293956
0.6215293958
0.621529396
0.6215293958
0.6215293957
0.6215293955
0.6215293948
0.6215293926
0.6215293832
0.6215293541
0.6215292666
0.6215290261
0.6215284462
0.6215272915
0.6215293955
0.6215293955
0.6215293959
0.6215293957
0.6215293954
0.6215293955
0.6215293957
0.6215293949
0.6215293917
0.6215293809
0.621529346
0.6215292381
0.6215289308
0.621528166
0.6215266256
0.6215293956
0.6215293956
0.6215293954
0.6215293959
0.6215293958
0.621529396
0.6215293959
0.6215293949
0.6215293922
0.6215293828
0.6215293536
0.6215292665
0.6215290259
0.621528446
0.6215272914
0.6215293953
0.6215293958
0.6215293953
0.6215293955
0.6215293959
0.6215293958
0.6215293959
0.6215293953
0.6215293935
0.6215293872
0.6215293681
0.6215293136
0.6215291705
0.6215288373
0.6215281782
0.6215293956
0.6215293956
0.6215293954
0.6215293957
0.6215293957
0.6215293958
0.6215293958
0.6215293953
0.6215293939
0.6215293903
0.6215293799
0.6215293499
0.6215292743
0.6215291038
0.6215287674
0.6215293956
0.6215293955
0.621529396
0.621529396
0.6215293957
0.6215293957
0.6215293956
0.6215293951
0.6215293942
0.6215293919
0.6215293852
0.6215293671
0.6215293225
0.6215292241
0.6215290305
0.6215293962
0.621529396
0.6215293961
0.6215293961
0.6215293961
0.6215293962
0.6215293959
0.6215293954
0.621529394
0.6215293903
0.6215293793
0.6215293493
0.6215292744
0.6215291034
0.6215293962
0.6215293962
0.621529396
0.6215293957
0.6215293961
0.6215293956
0.6215293956
0.621529395
0.6215293929
0.6215293871
0.6215293689
0.6215293141
0.6215291696
0.6215288313
0.621528162
0.621529396
0.6215293958
0.621529396
0.621529396
0.6215293956
0.6215293956
0.6215293951
0.6215293943
0.6215293911
0.6215293807
0.6215293452
0.6215292337
0.6215289194
0.6215281459
0.6215265992
0.6215293949
0.6215293954
0.6215293955
0.6215293957
0.6215293957
0.6215293956
0.6215293955
0.621529394
0.6215293895
0.621529373
0.6215293129
0.6215291129
0.6215285075
0.6215269247
0.6215236823
0.6215293952
0.6215293955
0.6215293955
0.6215293958
0.6215293957
0.6215293956
0.6215293954
0.6215293936
0.6215293885
0.6215293677
0.6215292918
0.6215290254
0.6215281673
0.6215257707
0.6215206323
0.6215293955
0.6215293958
0.6215293957
0.6215293956
0.6215293953
0.6215293953
0.6215293953
0.6215293943
0.6215293893
0.6215293728
0.6215293128
0.6215291125
0.6215285071
0.6215269244
0.6215236824
0.6215293957
0.6215293956
0.6215293961
0.6215293957
0.6215293955
0.6215293954
0.6215293956
0.621529395
0.6215293915
0.621529381
0.6215293456
0.6215292341
0.6215289194
0.6215281455
0.6215265997
0.621529396
0.6215293961
0.6215293959
0.6215293956
0.6215293955
0.6215293959
0.6215293956
0.6215293949
0.6215293938
0.6215293877
0.6215293688
0.6215293145
0.6215291701
0.6215288321
0.6215281626
0.6215293955
0.6215293959
0.6215293961
0.6215293962
0.6215293958
0.6215293956
0.6215293956
0.6215293951
0.6215293941
0.6215293905
0.6215293794
0.6215293495
0.6215292742
0.6215291039
0.6215287677
0.6215293958
0.6215293957
0.6215293958
0.6215293961
0.6215293959
0.6215293962
0.6215293954
0.6215293949
0.6215293935
0.6215293871
0.6215293678
0.6215293136
0.6215291704
0.621528837
0.6215293958
0.6215293956
0.6215293959
0.621529396
0.6215293958
0.6215293954
0.6215293951
0.6215293942
0.6215293909
0.6215293805
0.621529345
0.6215292335
0.6215289188
0.6215281454
0.6215293955
0.6215293954
0.6215293953
0.6215293959
0.6215293957
0.6215293954
0.6215293954
0.6215293939
0.6215293879
0.6215293669
0.6215292908
0.6215290315
0.621528233
0.6215261152
0.6215217589
0.6215293956
0.6215293955
0.6215293955
0.6215293951
0.6215293953
0.6215293957
0.6215293952
0.6215293927
0.6215293837
0.6215293479
0.621529206
0.6215286792
0.6215268799
0.6215215932
0.6215099901
0.6215293955
0.6215293953
0.6215293956
0.6215293961
0.6215293954
0.6215293956
0.6215293951
0.6215293923
0.6215293815
0.6215293346
0.6215291417
0.6215283667
0.6215254364
0.6215156606
0.6214913168
0.621529395
0.6215293954
0.6215293955
0.6215293957
0.6215293956
0.6215293953
0.621529395
0.6215293931
0.6215293837
0.6215293474
0.6215292063
0.6215286793
0.6215268805
0.6215215943
0.621509992
0.6215293959
0.6215293957
0.6215293954
0.6215293953
0.6215293955
0.6215293954
0.6215293955
0.6215293936
0.6215293883
0.6215293672
0.6215292917
0.6215290325
0.6215282334
0.6215261163
0.6215217611
0.6215293955
0.6215293958
0.6215293958
0.6215293959
0.6215293961
0.6215293959
0.6215293952
0.6215293946
0.6215293915
0.6215293809
0.6215293457
0.6215292343
0.6215289193
0.6215281461
0.6215265997
0.6215293959
0.6215293956
0.6215293962
0.6215293959
0.6215293961
0.6215293961
0.6215293953
0.6215293947
0.6215293929
0.6215293873
0.6215293684
0.6215293138
0.6215291708
0.621528837
0.6215281781
0.6215293964
0.6215293959
0.6215293962
0.6215293959
0.6215293958
0.6215293958
0.6215293954
0.6215293945
0.621529392
0.6215293826
0.6215293539
0.6215292668
0.6215290255
0.6215284452
0.6215293956
0.6215293958
0.6215293961
0.6215293962
0.6215293957
0.6215293957
0.6215293955
0.6215293937
0.6215293896
0.6215293723
0.6215293126
0.6215291125
0.6215285068
0.6215269239
0.6215293956
0.6215293956
0.6215293959
0.6215293957
0.6215293957
0.6215293957
0.6215293953
0.6215293931
0.621529384
0.6215293478
0.6215292063
0.6215286792
0.6215268796
0.6215215916
0.6215293957
0.6215293957
0.6215293956
0.6215293954
0.6215293954
0.6215293952
0.6215293945
0.6215293909
0.6215293758
0.6215293088
0.6215290169
0.6215277888
0.6215229342
0.6215060661
0.6214629184
0.6215293956
0.6215293952
0.6215293957
0.6215293953
0.6215293956
0.6215293952
0.6215293943
0.6215293902
0.6215293708
0.6215292791
0.6215288469
0.6215267961
0.6215172414
0.6214755609
0.6213308356
0.6215293951
0.6215293957
0.621529396
0.6215293954
0.6215293955
0.6215293955
0.6215293948
0.6215293907
0.6215293758
0.6215293084
0.6215290172
0.6215277889
0.6215229346
0.6215060689
0.6214629316
0.6215293958
0.6215293959
0.6215293953
0.6215293956
0.6215293956
0.6215293955
0.6215293952
0.6215293927
0.6215293837
0.6215293478
0.6215292064
0.6215286794
0.6215268802
0.6215215938
0.6215099921
0.6215293953
0.6215293957
0.6215293953
0.6215293955
0.6215293957
0.6215293956
0.6215293957
0.6215293945
0.6215293898
0.6215293729
0.6215293134
0.6215291133
0.6215285076
0.6215269248
0.6215236827
0.6215293959
0.6215293957
0.6215293958
0.6215293954
0.6215293953
0.6215293958
0.6215293955
0.6215293946
0.6215293922
0.6215293833
0.6215293545
0.6215292669
0.6215290265
0.6215284463
0.6215272913
0.6215293956
0.6215293961
0.6215293961
0.6215293963
0.6215293958
0.6215293954
0.6215293953
0.6215293948
0.6215293916
0.6215293811
0.6215293467
0.6215292383
0.6215289305
0.6215281654
0.6215293953
0.6215293953
0.6215293959
0.6215293959
0.6215293956
0.6215293954
0.6215293953
0.6215293939
0.6215293885
0.6215293676
0.621529292
0.6215290252
0.6215281671
0.621525769
0.6215293957
0.6215293958
0.6215293956
0.6215293958
0.6215293957
0.6215293951
0.6215293952
0.6215293929
0.6215293816
0.6215293354
0.6215291423
0.6215283661
0.6215254353
0.6215156559
0.6215293956
0.6215293958
0.6215293955
0.6215293956
0.6215293958
0.6215293957
0.621529395
0.6215293907
0.6215293711
0.6215292794
0.6215288471
0.6215267959
0.6215172394
0.6214755455
0.6215293958
0.6215293955
0.6215293954
0.6215293954
0.6215293955
0.6215293956
0.6215293944
0.6215293891
0.6215293638
0.6215292321
0.6215285313
0.6215245645
0.6215005695
0.6213444159
0.6202460051
0.6215293959
0.6215293961
0.6215293954
0.6215293958
0.6215293957
0.6215293954
0.6215293944
0.6215293899
0.6215293707
0.6215292794
0.6215288464
0.6215267958
0.6215172415
0.6214755589
0.6213308342
0.6215293958
0.621529396
0.6215293959
0.6215293957
0.6215293957
0.6215293956
0.6215293948
0.6215293922
0.6215293809
0.6215293349
0.6215291425
0.6215283668
0.6215254366
0.6215156601
0.6214913167
0.6215293956
0.6215293957
0.6215293955
0.6215293961
0.6215293961
0.6215293958
0.6215293953
0.6215293938
0.6215293885
0.6215293683
0.6215292918
0.6215290256
0.6215281677
0.6215257709
0.6215206327
0.621529396
0.6215293958
0.6215293958
0.6215293956
0.6215293956
0.6215293957
0.6215293952
0.6215293947
0.6215293919
0.6215293817
0.6215293469
0.6215292387
0.6215289314
0.6215281665
0.6215266249
0.6215293962
0.6215293961
0.6215293961
0.621529396
0.6215293956
0.6215293959
0.6215293956
0.6215293947
0.6215293917
0.6215293828
0.6215293548
0.6215292674
0.6215290263
0.6215284458
0.6215293957
0.6215293959
0.6215293957
0.621529396
0.6215293958
0.6215293956
0.6215293954
0.6215293939
0.6215293897
0.6215293726
0.6215293129
0.6215291129
0.6215285071
0.6215269239
0.621529396
0.6215293955
0.6215293957
0.6215293961
0.6215293957
0.6215293953
0.6215293949
0.6215293931
0.6215293842
0.6215293481
0.6215292061
0.6215286792
0.62152688
0.6215215913
0.6215293955
0.6215293957
0.6215293956
0.621529396
0.6215293958
0.6215293954
0.6215293948
0.621529391
0.6215293759
0.6215293088
0.6215290173
0.6215277889
0.6215229333
0.621506061
0.6215293961
0.6215293961
0.6215293959
0.6215293961
0.6215293956
0.6215293956
0.6215293948
0.6215293903
0.6215293706
0.6215292796
0.6215288467
0.6215267956
0.6215172385
0.6214755433
0.6215293959
0.621529396
0.6215293961
0.6215293955
0.6215293958
0.6215293958
0.6215293948
0.6215293911
0.6215293758
0.6215293091
0.6215290174
0.6215277892
0.6215229334
0.6215060629
0.6215293961
0.6215293958
0.6215293955
0.6215293956
0.6215293956
0.6215293954
0.6215293951
0.6215293927
0.6215293839
0.621529348
0.6215292065
0.6215286792
0.6215268801
0.621521593
0.6215099872
0.6215293962
0.6215293962
0.6215293964
0.6215293962
0.6215293964
0.6215293956
0.6215293953
0.6215293942
0.6215293895
0.6215293728
0.6215293129
0.6215291135
0.6215285076
0.6215269246
0.6215236824
0.6215293959
0.621529396
0.6215293959
0.6215293957
0.6215293957
0.6215293952
0.6215293952
0.6215293947
0.6215293923
0.6215293833
0.6215293547
0.6215292675
0.6215290264
0.6215284464
0.6215272917
0.6215293961
0.6215293958
0.6215293963
0.6215293961
0.6215293961
0.621529396
0.621529396
0.6215293954
0.6215293935
0.6215293871
0.6215293687
0.6215293143
0.621529171
0.6215288376
0.6215293954
0.6215293956
0.621529396
0.6215293958
0.6215293958
0.6215293958
0.6215293955
0.6215293947
0.6215293918
0.621529381
0.6215293457
0.6215292342
0.6215289193
0.6215281455
0.6215293956
0.6215293956
0.6215293957
0.6215293957
0.6215293962
0.6215293959
0.6215293955
0.621529394
0.6215293884
0.6215293674
0.6215292912
0.6215290322
0.6215282331
0.6215261145
0.6215293956
0.6215293957
0.6215293953
0.6215293963
0.621529396
0.621529396
0.6215293955
0.6215293931
0.6215293841
0.6215293479
0.6215292069
0.6215286793
0.6215268797
0.6215215912
0.621529396
0.6215293962
0.6215293957
0.6215293958
0.6215293956
0.621529396
0.6215293953
0.6215293926
0.6215293818
0.621529335
0.6215291421
0.6215283661
0.6215254352
0.6215156555
0.6215293962
0.6215293962
0.6215293961
0.621529396
0.6215293962
0.6215293957
0.621529395
0.6215293924
0.6215293841
0.621529348
0.6215292062
0.6215286788
0.6215268794
0.6215215911
0.6215293961
0.6215293956
0.6215293958
0.6215293958
0.6215293958
0.6215293957
0.6215293953
0.6215293936
0.6215293883
0.6215293675
0.6215292916
0.6215290326
0.6215282333
0.621526115
0.6215293959
0.6215293961
0.6215293964
0.6215293963
0.6215293962
0.6215293958
0.6215293952
0.6215293946
0.6215293913
0.6215293807
0.6215293452
0.6215292344
0.6215289193
0.6215281458
0.6215265992
0.6215293955
0.6215293958
0.6215293957
0.6215293954
0.6215293959
0.6215293956
0.6215293958
0.6215293955
0.6215293935
0.6215293874
0.6215293688
0.6215293143
0.6215291708
0.6215288372
0.6215281782
0.6215293962
0.6215293957
0.6215293957
0.6215293959
0.6215293963
0.621529396
0.6215293956
0.6215293955
0.6215293945
0.6215293904
0.6215293798
0.62152935
0.6215292746
0.6215291042
0.6215293958
0.6215293957
0.621529396
0.6215293958
0.6215293962
0.6215293958
0.6215293958
0.6215293954
0.6215293931
0.6215293875
0.6215293689
0.6215293147
0.6215291705
0.6215288322
0.6215293955
0.6215293955
0.6215293958
0.621529396
0.6215293961
0.6215293959
0.6215293956
0.6215293946
0.6215293916
0.6215293811
0.6215293455
0.6215292344
0.6215289195
0.6215281453
0.6215293961
0.6215293957
0.6215293963
0.6215293962
0.6215293959
0.6215293961
0.621529396
0.6215293947
0.6215293899
0.6215293727
0.6215293128
0.6215291132
0.6215285076
0.6215269238
0.6215293961
0.6215293959
0.6215293963
0.6215293959
0.621529396
0.6215293956
0.6215293956
0.6215293945
0.6215293887
0.6215293675
0.6215292918
0.6215290254
0.6215281676
0.6215257694
0.6215293957
0.6215293959
0.6215293963
0.6215293958
0.6215293959
0.6215293955
0.6215293952
0.621529394
0.6215293893
0.6215293727
0.6215293132
0.6215291128
0.6215285073
0.6215269232
0.6215293958
0.621529396
0.6215293963
0.6215293961
0.6215293964
0.6215293963
0.6215293952
0.6215293949
0.6215293917
0.6215293807
0.6215293454
0.6215292345
0.6215289192
0.621528145
0.6215293962
0.6215293961
0.621529396
0.6215293959
0.6215293959
0.6215293958
0.6215293956
0.6215293948
0.6215293933
0.6215293872
0.6215293687
0.6215293148
0.6215291699
0.6215288316
0.621529396
0.6215293959
0.6215293959
0.6215293957
0.621529396
0.6215293958
0.6215293957
0.6215293953
0.6215293943
0.6215293904
0.62152938
0.6215293499
0.6215292746
0.6215291042
0.6215287677
0.621529396
0.621529396
0.621529396
0.621529396
0.621529396
0.621529396
0.621529396
0.6215293959
0.621529395
0.6215293924
0.6215293855
0.6215293674
0.6215293233
0.621529225
0.6215293959
0.621529396
0.6215293958
0.6215293959
0.6215293961
0.621529396
0.6215293958
0.6215293953
0.6215293944
0.6215293909
0.62152938
0.6215293499
0.6215292746
0.6215291038
0.621529396
0.6215293959
0.621529396
0.621529396
0.6215293957
0.6215293962
0.6215293961
0.6215293951
0.6215293938
0.6215293876
0.6215293687
0.6215293142
0.6215291707
0.621528837
0.6215293959
0.6215293961
0.621529396
0.6215293964
0.6215293962
0.6215293963
0.6215293959
0.6215293952
0.6215293929
0.6215293836
0.6215293548
0.6215292672
0.6215290262
0.621528446
0.6215293959
0.6215293961
0.6215293957
0.6215293959
0.6215293955
0.6215293956
0.6215293955
0.6215293947
0.6215293917
0.6215293812
0.6215293465
0.6215292383
0.6215289306
0.6215281658
0.6215293956
0.621529396
0.6215293958
0.6215293962
0.6215293958
0.6215293957
0.6215293956
0.6215293948
0.6215293926
0.6215293836
0.6215293546
0.621529267
0.6215290258
0.6215284456
0.6215293956
0.6215293958
0.6215293962
0.6215293962
0.6215293962
0.6215293958
0.6215293956
0.6215293952
0.6215293932
0.6215293873
0.6215293686
0.6215293142
0.6215291711
0.6215288374
0.6215293954
0.6215293959
0.621529396
0.621529396
0.6215293957
0.6215293956
0.6215293959
0.6215293953
0.6215293941
0.6215293905
0.6215293797
0.6215293498
0.6215292746
0.6215291041
0.6215293958
0.6215293955
0.6215293955
0.6215293954
0.6215293956
0.6215293957
0.6215293958
0.6215293955
0.6215293947
0.6215293922
0.6215293856
0.6215293669
0.6215293229
0.6215292246
)
;

boundaryField
{
    top
    {
        type            zeroGradient;
    }
    bottom
    {
        type            zeroGradient;
    }
    side-walls
    {
        type            zeroGradient;
    }
    inlet
    {
        type            zeroGradient;
    }
    outlet
    {
        type            zeroGradient;
    }
    procBoundary0to1
    {
        type            processor;
        value           nonuniform List<scalar> 
97
(
0.6215286929
0.621528768
0.6215281984
0.6215271045
0.6215254991
0.6215243509
0.6215254995
0.6215271047
0.6215281988
0.6215286932
0.621528768
0.621528768
0.6215270808
0.6215265988
0.6215242665
0.6215192555
0.6215145196
0.6215192562
0.6215242666
0.6215270817
0.6215281984
0.6215281777
0.6215265988
0.6215265988
0.6215159369
0.6215099863
0.6214973785
0.6214730296
0.62149738
0.6215159381
0.6215242671
0.6215271046
0.6215272912
0.6215236812
0.6215099863
0.6215099863
0.6214336532
0.621330781
0.6213083817
0.6214336584
0.6214973806
0.6215192559
0.6215254994
0.6215266244
0.6215206306
0.6214913093
0.621330781
0.621330781
0.6207684097
0.6213307827
0.6213083827
0.6214629179
0.6214730298
0.6215145196
0.6215243511
0.6215272915
0.6215236817
0.6215099888
0.6214629194
0.6213307827
0.6214629179
0.6214629179
0.6214973794
0.6215217594
0.621519256
0.6215254992
0.6215281784
0.6215265997
0.6215217601
0.6215099889
0.6214913098
0.6215099887
0.6215217594
0.6215217594
0.6215242671
0.6215281624
0.6215271045
0.6215287682
0.6215281627
0.6215265993
0.6215236814
0.6215206311
0.6215236818
0.6215265996
0.6215281624
0.6215281624
0.6215281986
0.6215290308
0.6215290311
0.6215287678
0.6215281783
0.6215272913
0.6215266248
0.6215272914
0.6215281787
0.6215287682
0.6215290308
)
;
    }
}


// ************************************************************************* //
