/*--------------------------------*- C++ -*----------------------------------*\
| =========                 |                                                 |
| \\      /  F ield         | OpenFOAM: The Open Source CFD Toolbox           |
|  \\    /   O peration     | Version:  4.x                                   |
|   \\  /    A nd           | Web:      www.OpenFOAM.org                      |
|    \\/     M anipulation  |                                                 |
\*---------------------------------------------------------------------------*/
FoamFile
{
    version     2.0;
    format      ascii;
    class       surfaceScalarField;
    location    "8000";
    object      phi;
}
// * * * * * * * * * * * * * * * * * * * * * * * * * * * * * * * * * * * * * //

dimensions      [1 0 -1 0 0 0 0];

internalField   nonuniform List<scalar> 
3175
(
9.497824185e-06
-1.888333839e-12
-1.88648026e-12
9.497823447e-06
-1.441051316e-13
7.094446691e-14
9.497825544e-06
-1.200722539e-12
-6.832550047e-13
9.497823431e-06
-1.96863019e-12
-1.16326896e-12
9.497827726e-06
-7.632430293e-13
1.314262886e-12
9.497827995e-06
-5.096881986e-13
-4.278385776e-14
9.497830714e-06
8.534963424e-13
7.12404948e-13
9.497832409e-06
-4.241933481e-13
-2.512481385e-12
9.497836154e-06
-2.00103841e-12
-3.39160458e-12
9.497843816e-06
-2.98803883e-12
-5.486316946e-12
9.49785082e-06
-5.25599509e-12
-5.635659998e-12
9.497864453e-06
-7.46889392e-12
-5.598925031e-12
9.497884833e-06
-1.197869192e-11
-1.030075859e-11
9.497905924e-06
-9.933016672e-12
-8.190688891e-12
-2.436635429e-11
9.497860324e-06
1.653887649e-13
3.273496045e-13
9.497858197e-06
-4.250396763e-13
-2.587774199e-13
9.497859931e-06
-1.055153259e-12
7.749229199e-13
9.497857745e-06
-2.369767059e-12
-1.813683976e-13
9.497857647e-06
-7.616121243e-13
6.033187767e-14
9.497861225e-06
-1.149370826e-12
2.361436564e-13
9.497860516e-06
-7.914295782e-13
-1.183861243e-13
9.49786371e-06
-2.265086283e-12
-2.045238914e-12
9.497867871e-06
-1.773446947e-12
-1.207862298e-12
9.497875025e-06
-5.369526747e-12
-3.19431142e-12
9.497882271e-06
-9.057277316e-12
-6.180872963e-12
9.497895602e-06
-1.196743359e-11
-8.005952173e-12
9.497916512e-06
-2.027934799e-11
-1.168780971e-11
9.497938056e-06
-1.959674963e-11
-1.113312208e-11
-4.981952336e-11
-3.733950687e-11
9.497838361e-06
-1.428438364e-12
-4.092274051e-13
9.49783667e-06
-2.309704382e-12
-7.431758507e-13
9.49783758e-06
-5.374984817e-13
4.713928267e-13
9.497840306e-06
2.019600295e-13
5.470333738e-13
9.497837694e-06
-9.147282322e-13
2.636080899e-13
9.497841406e-06
-4.616684449e-13
-6.892956218e-13
9.497838291e-06
-8.182618432e-13
-3.488284494e-13
9.497841905e-06
-1.100592408e-12
-1.593861057e-12
9.497843167e-06
-1.73498254e-12
-2.290108217e-12
9.497850089e-06
-2.73294194e-12
-4.265212445e-12
9.497854642e-06
-5.709608316e-12
-4.960355713e-12
9.497864478e-06
-1.068698988e-11
-1.248042126e-11
9.497884193e-06
-1.723780469e-11
-1.764037761e-11
9.497910019e-06
-1.896527929e-11
-2.327580482e-11
-6.125146843e-11
-8.506568985e-11
9.497840018e-06
-1.220755897e-12
7.206562569e-13
9.497839404e-06
-7.382668537e-13
1.551974269e-12
9.497839388e-06
-7.356849399e-13
-1.863747288e-13
9.49783834e-06
-1.595174303e-12
-6.991228013e-13
9.497838037e-06
2.709907672e-14
-1.009381801e-12
9.497842334e-06
9.378181573e-13
-4.06841802e-13
9.49784131e-06
-1.114061325e-12
-2.03997967e-12
9.49784062e-06
-1.170439176e-12
-3.68841986e-12
9.497843644e-06
-1.227522149e-12
-2.552926469e-12
9.497846953e-06
-3.331623264e-12
-6.192963862e-12
9.497852852e-06
-3.769838148e-12
-4.75599632e-12
9.497868908e-06
-1.060571958e-11
-1.424752835e-11
9.49788446e-06
-2.053354727e-11
-1.59340849e-11
9.497915249e-06
-2.8062515e-11
-2.325794707e-11
-6.129368596e-11
-1.218257883e-10
9.497816402e-06
-5.34530051e-13
2.003089871e-12
9.497814065e-06
-1.94223877e-13
6.997270588e-13
9.497812548e-06
-4.595772238e-13
-6.161708856e-13
9.497815436e-06
6.703204713e-13
1.397352575e-12
9.497813188e-06
-1.567473542e-12
-2.987987896e-12
9.497812722e-06
-3.937886079e-13
-3.552747725e-12
9.497813709e-06
4.046158512e-14
-2.415294439e-12
9.497814169e-06
-5.718666574e-14
-3.222410964e-12
9.49781317e-06
3.492814485e-12
-2.354343031e-12
9.497814342e-06
4.825904767e-12
-7.358817837e-12
9.497812148e-06
6.433860344e-12
-9.089853044e-12
9.497823406e-06
1.129229546e-11
-3.123316913e-11
9.497825661e-06
1.939388211e-11
-4.178535559e-11
9.49786935e-06
2.70078089e-11
-9.838105277e-11
5.882830606e-11
-3.306004675e-10
9.49781657e-06
-7.78682056e-13
2.167379313e-13
9.497815327e-06
-1.349561605e-12
-1.356816224e-12
9.497814699e-06
-1.941971059e-12
-2.305032541e-13
9.497814855e-06
-1.120589326e-12
-4.878015398e-13
9.497817297e-06
6.480736454e-13
4.03209553e-13
9.497816297e-06
6.742546945e-13
-3.913825034e-13
9.497815993e-06
7.831547437e-13
7.714223038e-14
9.49782274e-06
1.987245764e-12
-1.169641754e-12
9.497820116e-06
1.757370317e-12
-2.240483736e-12
9.497824297e-06
3.503086007e-12
-4.634227254e-12
9.497829277e-06
4.92377043e-12
-5.47228544e-12
9.497844397e-06
1.015321178e-11
-1.417290092e-11
9.497862677e-06
1.87492619e-11
-1.558286302e-11
9.497890292e-06
2.046941182e-11
-2.239112518e-11
6.080201537e-11
-1.21117594e-10
9.497851118e-06
-5.386124401e-13
3.153748467e-13
9.497849621e-06
-8.881237147e-13
6.475617884e-13
9.497849208e-06
-8.716577107e-14
-7.356017286e-13
9.497848866e-06
3.862639161e-13
-1.462694778e-13
9.497849013e-06
7.039731634e-13
2.651440462e-13
9.497848397e-06
4.438962266e-13
2.401170053e-13
9.497849851e-06
1.354431813e-12
-2.473972606e-13
9.497854251e-06
1.921323908e-12
-1.654065246e-12
9.49785275e-06
1.150001533e-12
-2.183155567e-12
9.497857388e-06
5.4420953e-12
-2.675223762e-12
9.497862481e-06
8.672114959e-12
-4.556769243e-12
9.497873494e-06
1.273124219e-11
-1.251469619e-11
9.497895647e-06
2.044097847e-11
-1.880457824e-11
9.497919923e-06
1.858188991e-11
-2.366301627e-11
5.069838972e-11
-8.394981671e-11
9.497828899e-06
-2.684232939e-13
-6.708877568e-13
9.497828526e-06
3.103970192e-13
8.072517488e-13
9.497827952e-06
-2.372360113e-13
-2.592756609e-13
9.497828346e-06
-5.342056247e-13
-2.109067631e-13
9.497827756e-06
3.816986409e-13
3.294007266e-13
9.497829091e-06
7.213974761e-13
-1.735336741e-12
9.497831168e-06
1.018632913e-12
-5.605579276e-13
9.497833412e-06
2.217134871e-12
-8.57518232e-14
9.497836843e-06
2.997680599e-12
-4.715784148e-14
9.497843394e-06
5.355113812e-12
-3.046752703e-12
9.497849253e-06
5.003659458e-12
-5.717709814e-12
9.497861619e-06
6.401621644e-12
-6.811767982e-12
9.497883076e-06
1.078454034e-11
-1.289118972e-11
9.497905443e-06
1.005010331e-11
-1.069100164e-11
2.352850735e-11
-3.840425315e-11
9.497818148e-06
6.802055442e-13
9.497819603e-06
1.415112952e-12
9.497818985e-06
-1.047370864e-12
9.497819857e-06
-3.762607137e-13
9.497821813e-06
1.429023521e-12
9.497821651e-06
-1.391040487e-12
9.497821585e-06
-6.432862208e-13
9.497824731e-06
-1.290734044e-12
9.497829072e-06
-2.291222489e-12
9.497833401e-06
-4.882470602e-12
9.497842894e-06
-3.914191365e-12
9.497856308e-06
-4.950720272e-12
9.497878022e-06
-1.068322145e-11
9.49789645e-06
-8.610816719e-12
-2.458254215e-11
9.4978585e-06
4.673206363e-14
3.430529135e-13
9.49785488e-06
-1.575499062e-13
-1.927022425e-13
9.497856078e-06
2.056702133e-13
1.192015034e-12
9.497856981e-06
-1.107441445e-12
2.691670815e-13
9.49785602e-06
-1.581473266e-12
-1.415341895e-12
9.497857693e-06
-3.078337535e-14
-3.317534923e-13
9.497857735e-06
2.217071433e-13
-1.009480101e-12
9.497860769e-06
-1.249864109e-12
-2.370706604e-12
9.497865297e-06
-1.22275212e-12
-2.552564669e-12
9.497873737e-06
-2.358946101e-12
-4.09640418e-12
9.497879661e-06
-5.354327129e-12
-7.892219755e-12
9.497892134e-06
-9.020484548e-12
-1.450026859e-11
9.497913703e-06
-1.31364382e-11
-2.122956619e-11
-1.224148664e-11
-2.050854422e-11
9.497808737e-06
-6.690580279e-13
2.305074345e-13
9.497806968e-06
-7.619836385e-13
7.877926157e-14
9.497806107e-06
-1.007099427e-12
-9.846609651e-14
9.49780841e-06
-1.184619328e-12
-7.136727762e-13
9.497808389e-06
-1.319505195e-12
-1.313319058e-12
9.497809857e-06
-1.776846469e-12
-1.066759789e-12
9.49780968e-06
-1.22131189e-12
-7.918744851e-13
9.497812969e-06
-1.951399093e-12
-2.663850193e-12
9.497814293e-06
-2.884951474e-12
-3.375447468e-12
9.497821907e-06
-6.192605584e-12
-4.732814034e-12
9.49782914e-06
-7.757987033e-12
-7.531981213e-12
9.497842631e-06
-1.415105428e-11
-1.443099142e-11
9.497861745e-06
-2.285886593e-11
-2.349585691e-11
9.4978893e-06
-2.436868e-11
-2.514774517e-11
-7.717721074e-11
9.497794127e-06
-2.187818307e-13
8.02079618e-13
9.497792359e-06
-3.56700266e-13
1.20311622e-12
9.497792086e-06
-1.693684122e-12
1.685753674e-13
9.497793054e-06
-7.310464185e-13
2.490501566e-13
9.497793117e-06
-6.116888392e-13
-5.830663312e-13
9.497795546e-06
-5.261587974e-13
-1.381273632e-12
9.497794247e-06
-1.642078412e-12
-1.834521197e-12
9.497796696e-06
-2.153786518e-12
-3.693313327e-12
9.497798592e-06
-2.302862278e-12
-4.245683504e-12
9.497803178e-06
-5.340163073e-12
-8.025045329e-12
9.49780508e-06
-6.966186377e-12
-1.011153716e-11
9.497817988e-06
-1.582135006e-11
-2.570406008e-11
9.497832559e-06
-2.193533159e-11
-3.762607232e-11
9.497872294e-06
-2.833563385e-11
-5.322459478e-11
-1.135479034e-10
-1.936486269e-10
9.497831526e-06
4.565182854e-14
2.532335336e-13
9.497828939e-06
-1.180387507e-12
3.223146668e-13
9.497830953e-06
-6.502409264e-13
3.187475621e-13
9.497831829e-06
6.806359527e-13
3.02428588e-13
9.497831063e-06
-1.565131406e-12
1.091304266e-13
9.497829928e-06
-8.894040568e-13
-1.274462799e-12
9.497830405e-06
-8.927584943e-13
-1.534024172e-12
9.497832103e-06
-6.098878257e-13
-2.845123147e-12
9.497834368e-06
-9.493870332e-13
-3.875181479e-12
9.497839504e-06
-2.785097616e-12
-8.392938035e-12
9.497842449e-06
-6.347953286e-12
-6.409378331e-12
9.49786207e-06
-1.68185363e-11
-2.930491325e-11
9.497875518e-06
-2.915086084e-11
-2.088033548e-11
9.497934416e-06
-4.903923436e-11
-6.163262325e-11
-1.163252754e-10
-2.87992961e-10
9.497816061e-06
-1.83573527e-12
-1.296625973e-12
9.49781508e-06
-2.150452932e-12
-4.022298859e-13
9.497818235e-06
5.52463069e-13
5.560804842e-13
9.497811939e-06
-1.216204228e-12
-1.259811337e-12
9.497817477e-06
2.009062795e-12
6.331268037e-13
9.497814812e-06
1.265919733e-12
-8.158402814e-13
9.497815748e-06
1.094337466e-12
-7.731762579e-13
9.497816016e-06
1.218419957e-12
-2.667715704e-12
9.497812273e-06
2.891384487e-12
-5.070748441e-12
9.497810207e-06
4.982959769e-12
-1.521968075e-11
9.497802047e-06
6.601156478e-12
-1.366840366e-11
9.497806098e-06
1.792893671e-11
-6.905219773e-11
9.497781848e-06
2.888424842e-11
-7.422795912e-11
9.497883385e-06
4.983378394e-11
-2.979727332e-10
1.157029259e-10
-9.344541433e-10
9.497859745e-06
-1.163342472e-12
1.163913298e-12
9.497860004e-06
-1.414681548e-13
1.028248246e-12
9.497856848e-06
-2.326979473e-12
-3.455428717e-13
9.497858262e-06
-4.706631923e-13
-4.216199313e-13
9.49785852e-06
7.704956234e-13
-6.807148672e-13
9.497857694e-06
1.613620396e-12
-2.108852501e-12
9.497858109e-06
1.454823316e-12
-1.035283898e-12
9.497860994e-06
2.015367072e-12
-2.687744551e-12
9.497860638e-06
2.268582584e-12
-3.154075362e-12
9.497863973e-06
5.494961645e-12
-9.375937729e-12
9.497867155e-06
6.771760654e-12
-7.302486894e-12
9.497886983e-06
1.365332077e-11
-2.975301879e-11
9.497901572e-06
2.253719224e-11
-2.118729291e-11
9.49795635e-06
2.85061087e-11
-6.213437003e-11
1.13173869e-10
-2.848222027e-10
9.497777138e-06
-1.512679465e-12
1.818811497e-12
9.497776025e-06
-1.232295653e-12
7.734802599e-13
9.497777227e-06
-1.032886248e-12
1.529347855e-12
9.497777102e-06
1.32367032e-12
6.375589457e-14
9.497776909e-06
4.44946874e-13
-4.380639583e-13
9.497776032e-06
-1.142096376e-12
-1.605762517e-12
9.497776206e-06
6.234027023e-13
-7.3645502e-13
9.497779796e-06
3.90465853e-12
-1.698611085e-12
9.497781435e-06
2.828558594e-12
-2.956086761e-12
9.497783082e-06
4.69157535e-12
-7.857735377e-12
9.497785577e-06
6.856305602e-12
-9.831365183e-12
9.497802402e-06
1.554860874e-11
-2.320000617e-11
9.497815992e-06
2.183776533e-11
-3.56320267e-11
9.497851291e-06
2.373466049e-11
-5.405417707e-11
7.820386206e-11
-1.904469693e-10
9.497882313e-06
1.089834085e-12
1.303410771e-12
9.497880847e-06
1.929089078e-12
1.133830337e-12
9.497883898e-06
8.155948543e-13
1.631923333e-12
9.497883471e-06
-7.444692331e-13
-3.379843584e-13
9.497881325e-06
-4.648813472e-13
-1.410133855e-12
9.497883963e-06
6.170627643e-13
-1.910639864e-12
9.497884212e-06
-9.545107945e-14
-1.742393788e-12
9.497885999e-06
4.279027993e-13
-2.832692622e-12
9.497888125e-06
1.024120727e-12
-3.782592118e-12
9.497893217e-06
2.713046147e-12
-5.73889642e-12
9.49790125e-06
5.091143433e-12
-5.800541909e-12
9.497913562e-06
7.763554799e-12
-1.343311389e-11
9.497936886e-06
1.250638289e-11
-2.145231595e-11
9.497958566e-06
1.15507193e-11
-2.490957275e-11
3.692142563e-11
-7.779471072e-11
9.497772568e-06
4.797984703e-13
9.497770467e-06
7.126273383e-13
9.497770484e-06
6.554016347e-13
9.497770566e-06
9.182287667e-13
9.497767873e-06
-1.997254565e-12
9.497771899e-06
-1.751779921e-12
9.497773883e-06
-1.498958606e-12
9.497776589e-06
-1.213656161e-12
9.497777765e-06
-2.86045075e-12
9.497785508e-06
-3.390196652e-12
9.497793164e-06
-7.18016693e-12
9.497805033e-06
-1.169035606e-11
9.497830161e-06
-2.068429125e-11
9.497848926e-06
-2.198642143e-11
-5.035610689e-11
9.49782182e-06
-1.100538194e-13
-1.76675131e-12
9.497819984e-06
-9.989882532e-14
-2.6264774e-12
9.497820266e-06
-1.079138694e-12
-2.470309325e-12
9.497820537e-06
-1.656971276e-12
-2.510651485e-12
9.497822135e-06
-1.715505543e-12
-1.81124548e-12
9.49782136e-06
4.236173153e-13
-1.144195635e-12
9.497821005e-06
-6.232299718e-13
-9.091035147e-13
9.497825156e-06
-1.470622438e-12
-1.163940032e-12
9.497828515e-06
-1.143897554e-12
-2.634319618e-12
9.497833907e-06
-2.616112179e-12
-3.447809596e-12
9.497835827e-06
-5.284434632e-12
-6.608878593e-12
9.497850769e-06
-1.087998268e-11
-1.234278039e-11
9.497867212e-06
-1.926164093e-11
-1.839530965e-11
-2.414286526e-11
-2.158826952e-11
9.49788798e-06
3.235433729e-15
-1.914244566e-12
9.497884468e-06
-3.721090634e-14
-3.620739614e-12
9.497883519e-06
-6.372478642e-13
-3.832010404e-12
9.497885794e-06
-1.004479778e-12
-2.913506649e-12
9.49788583e-06
-7.326423301e-13
-4.586252518e-13
9.49788574e-06
-1.623610708e-12
-1.714603996e-12
9.497883865e-06
-1.623387277e-12
-1.93743535e-12
9.497887897e-06
-2.592783227e-12
-1.576136026e-12
9.497889642e-06
-3.395921148e-12
-2.763281872e-12
9.49789168e-06
-9.253254972e-12
-5.540264064e-12
9.49789605e-06
-9.623527754e-12
-7.202032752e-12
9.497908382e-06
-2.492443667e-11
-1.647735958e-11
9.497922661e-06
-3.680118321e-11
-2.210465707e-11
-5.305544915e-11
-2.926205518e-11
9.497848257e-06
-7.139794625e-13
-8.943679929e-13
9.49784554e-06
-1.428936106e-12
-3.378635737e-12
9.497846192e-06
-1.38667797e-12
-2.175347298e-12
9.497848491e-06
-4.224938518e-13
-1.285792577e-12
9.497847473e-06
8.137742457e-14
-3.696602026e-13
9.497847315e-06
-1.21968443e-12
-1.074730289e-12
9.497846498e-06
-1.464765666e-12
-1.230736914e-12
9.497847152e-06
-1.422311025e-12
-2.435415424e-12
9.497846657e-06
-1.999046768e-12
-2.112130479e-12
9.497847054e-06
-7.392870937e-12
-6.678551593e-12
9.497840823e-06
-7.266528044e-12
-8.088567086e-12
9.497848481e-06
-2.857045744e-11
-3.020403846e-11
9.497848565e-06
-3.255612032e-11
-3.426886102e-11
9.497914577e-06
-8.881593933e-11
-8.868225816e-11
-3.313705171e-10
9.497826169e-06
-1.642134345e-12
-5.340722561e-13
9.497823589e-06
-2.300293367e-12
-7.833145505e-13
9.497824213e-06
-8.126191836e-13
-1.286813912e-12
9.497824288e-06
-2.070664752e-13
-1.065921519e-12
9.497824122e-06
-6.869638161e-13
-4.761400123e-13
9.497823255e-06
4.028422234e-13
-1.879813578e-13
9.497823353e-06
5.414733674e-13
8.965969146e-13
9.497821125e-06
6.70154764e-14
-1.398568149e-12
9.497821922e-06
-1.312872531e-12
-2.145829287e-12
9.497821156e-06
-6.445255168e-12
-8.420985599e-12
9.497820216e-06
-9.618077498e-12
-1.903022537e-12
9.497834787e-06
-3.619075891e-11
-3.763187132e-11
9.497832431e-06
-5.758947762e-11
1.6981809e-12
9.497961178e-06
-1.436963081e-10
-1.379869931e-10
-3.559244941e-10
-5.9757203e-10
9.497863649e-06
2.721649792e-13
3.424966272e-13
9.497861216e-06
-4.603265994e-13
9.782049386e-13
9.4978633e-06
-2.860075807e-13
-2.183815599e-13
9.497860438e-06
3.723504578e-14
2.534275157e-13
9.497861961e-06
-7.475363113e-14
8.662277578e-13
9.497859415e-06
-1.047134399e-12
-1.047683275e-13
9.497858653e-06
2.698327379e-13
-4.543494519e-13
9.497853837e-06
1.147942456e-12
-3.70941751e-12
9.497849023e-06
3.26326989e-12
-4.025127262e-12
9.497836729e-06
8.154494551e-12
-1.872794343e-11
9.497807855e-06
9.620178434e-12
-1.327401239e-11
9.497778626e-06
3.612035502e-11
-1.117927622e-10
9.497664347e-06
5.543580487e-11
-7.187910621e-11
9.497913472e-06
1.425830566e-10
-8.340896669e-10
3.574827676e-10
-2.569694614e-09
9.497834568e-06
-7.415679503e-13
2.648685323e-13
9.497835188e-06
-1.442872643e-12
-1.133605543e-12
9.497835876e-06
-1.136042222e-12
-1.101976576e-12
9.497836593e-06
6.244119763e-14
-4.868675319e-13
9.497836102e-06
9.495604346e-13
3.718906541e-13
9.49783554e-06
1.687386102e-12
-1.135690228e-13
9.497832254e-06
1.216102165e-12
-1.585602013e-12
9.497832232e-06
2.20014926e-12
-2.499888501e-12
9.497830742e-06
3.238916686e-12
-1.257508547e-12
9.497829201e-06
8.670771857e-12
-1.011713858e-11
9.497831297e-06
8.350646474e-12
-1.325685016e-12
9.497846337e-06
2.980803221e-11
-3.738284137e-11
9.497845665e-06
3.529764728e-11
2.559150001e-12
9.497977435e-06
8.899571187e-11
-1.389008357e-10
3.316998792e-10
-5.979364452e-10
9.497825191e-06
-1.138533438e-12
-1.072468182e-13
9.497826532e-06
2.226448649e-13
-2.664454291e-13
9.497825123e-06
-3.770912395e-13
2.176114173e-14
9.497825423e-06
1.517941425e-13
4.788497779e-13
9.497823877e-06
-4.385634647e-13
-3.318965156e-13
9.497824201e-06
-9.105345468e-13
-8.839175581e-13
9.497822134e-06
-5.303507136e-13
-2.130874888e-12
9.497824001e-06
3.193726276e-12
-1.288543755e-12
9.497821702e-06
2.81386248e-12
-2.447895026e-12
9.497820757e-06
7.27235174e-12
-8.39302023e-12
9.497816847e-06
1.08661208e-11
-7.208535726e-12
9.497824933e-06
2.575161934e-11
-2.91994861e-11
9.497821188e-06
3.641348437e-11
-3.489789172e-11
9.497891054e-06
5.413200605e-11
-9.007002614e-11
1.906717633e-10
-3.337370034e-10
9.497784931e-06
-2.765134174e-13
1.538299709e-12
9.497785367e-06
7.840977124e-13
-4.775815946e-13
9.497785599e-06
7.888357437e-13
-2.834440148e-14
9.497785498e-06
6.841226105e-13
-3.77733511e-13
9.49778291e-06
-1.180377556e-12
1.268741254e-12
9.497784812e-06
1.075028623e-13
2.173466672e-13
9.497786042e-06
2.999408378e-13
-1.346815778e-12
9.497785442e-06
1.491043969e-12
-2.855668727e-12
9.497786344e-06
2.00830359e-12
-3.143095031e-12
9.497790376e-06
4.455003111e-12
-4.525946579e-12
9.497791244e-06
4.643424864e-12
-7.306639981e-12
9.497804971e-06
1.1829219e-11
-1.522225726e-11
9.497817531e-06
1.86369823e-11
-2.294825174e-11
9.497855538e-06
2.287256411e-11
-2.969426416e-11
8.412037603e-11
-1.129995805e-10
9.497864576e-06
1.001428266e-12
9.497862753e-06
6.773359681e-13
9.49786478e-06
-1.934303455e-14
9.497861675e-06
-1.799601808e-12
9.49786442e-06
5.617382352e-13
9.497865499e-06
5.916676256e-13
9.497865278e-06
-1.101743473e-12
9.497865767e-06
-3.000717396e-12
9.497868076e-06
-3.319284372e-12
9.497872536e-06
-4.303977452e-12
9.49787911e-06
-6.669483043e-12
9.497888337e-06
-1.189614442e-11
9.497910081e-06
-1.839843585e-11
9.497933537e-06
-2.01256929e-11
-5.893329163e-11
9.497818498e-06
-1.47994609e-13
9.44158287e-14
9.497817069e-06
-1.711209411e-12
-1.035448506e-12
9.497817239e-06
-2.522437534e-12
-1.403314418e-12
9.497815827e-06
-1.482078072e-12
-2.639906596e-12
9.497817298e-06
8.001906425e-14
-1.379028611e-12
9.4978181e-06
-4.173223219e-13
-6.378703286e-13
9.497817574e-06
-1.49959873e-12
-1.641919065e-12
9.497820501e-06
-2.308620974e-12
-2.146097116e-12
9.497823533e-06
-2.434759985e-12
-1.189170368e-12
9.497827019e-06
-5.322445714e-12
-2.441221823e-12
9.497831416e-06
-5.747716592e-12
-6.579736212e-12
9.49784834e-06
-1.295656027e-11
-1.10542835e-11
9.497862121e-06
-1.550075097e-11
-2.112731249e-11
-2.295477581e-11
-2.648362245e-11
9.497790384e-06
4.696028733e-13
2.322859412e-13
9.497790844e-06
-8.877170072e-13
5.754792372e-13
9.497790872e-06
7.999492062e-14
1.21558921e-12
9.497794845e-06
6.110447024e-13
2.116160632e-13
9.497793022e-06
-4.334746173e-13
-2.299405216e-12
9.497793018e-06
-5.273305173e-13
-1.310499068e-12
9.497792839e-06
-1.966718057e-13
-4.836527001e-13
9.497793953e-06
-3.417904419e-12
-1.778405526e-12
9.49779772e-06
-1.862476433e-12
-7.777722442e-13
9.497800739e-06
-8.485872868e-12
-3.452676612e-12
9.497806069e-06
-6.326117709e-12
-7.940812501e-12
9.497825031e-06
-2.982487352e-11
-1.857122961e-11
9.49783706e-06
-2.15445423e-11
-2.945933916e-11
-6.057041039e-11
-4.919775694e-11
9.497856953e-06
-4.509544691e-13
-5.048762064e-13
9.497857055e-06
9.724605545e-13
8.964485238e-13
9.497855787e-06
-4.824192283e-13
-7.465294616e-13
9.497855909e-06
1.361542875e-13
-7.938435591e-13
9.497854874e-06
-2.58958042e-13
-9.772902967e-13
9.497854582e-06
2.851265007e-14
-7.6871771e-13
9.497854091e-06
-1.529251908e-13
-3.591858905e-13
9.49785377e-06
-7.99086462e-13
-1.398697926e-12
9.4978516e-06
-2.258196561e-12
-2.044086828e-12
9.497850181e-06
-9.181932981e-12
-8.115691132e-12
9.497848924e-06
-1.473430801e-12
-1.158823137e-11
9.497866485e-06
-3.545612302e-11
-3.597735106e-11
9.497866912e-06
3.636210855e-12
-5.579026628e-11
-1.373828843e-10
-1.421092927e-10
9.497825224e-06
-6.944448867e-13
7.591911361e-13
9.497821021e-06
-1.142519436e-12
-1.860565935e-13
9.497824163e-06
3.241642615e-13
1.417612444e-12
9.497823405e-06
9.36262717e-13
-6.794121332e-13
9.497823975e-06
8.85457443e-13
3.531067063e-13
9.497822094e-06
7.167863686e-13
-1.757241407e-12
9.497822082e-06
1.42477841e-14
-1.223492301e-12
9.497819726e-06
-1.698086589e-12
-2.451973018e-12
9.497821725e-06
-2.790852824e-12
-2.800573443e-12
9.497823223e-06
-1.126272372e-11
-1.127241809e-11
9.497846087e-06
-1.227370383e-11
-1.429171953e-11
9.497884325e-06
-5.942911549e-11
-6.038303726e-11
9.498008338e-06
-5.916934742e-11
-6.087186036e-11
9.498253349e-06
-2.629280215e-10
-2.623443976e-10
-6.026078293e-10
9.497768147e-06
4.41432066e-13
1.195678274e-12
9.497765778e-06
-1.709900524e-12
-7.4210451e-14
9.497766978e-06
-8.573028552e-13
1.127565042e-12
9.497765264e-06
-8.534649515e-13
-2.33902262e-13
9.497765283e-06
-6.444040106e-13
9.365028554e-15
9.497764011e-06
-1.291656676e-12
-1.272550366e-12
9.497760893e-06
-1.07814132e-12
-1.11212583e-12
9.497756929e-06
1.46361642e-12
-2.825230772e-12
9.497752513e-06
4.135800779e-12
-4.185081556e-12
9.497732231e-06
1.111865341e-11
-1.829669195e-11
9.497719166e-06
1.332633618e-11
-2.93155884e-11
9.497648685e-06
5.921595282e-11
-1.598702842e-10
9.49770911e-06
5.837622527e-11
-2.534822959e-10
9.498267961e-06
2.609245619e-10
-1.915410798e-09
6.034973884e-10
-4.547560656e-09
9.497853242e-06
-5.934023589e-13
1.510798566e-13
9.497855262e-06
4.347825813e-14
6.369208135e-13
9.497854142e-06
-6.811401663e-14
6.923807922e-13
9.497852982e-06
1.722103831e-13
2.873731751e-13
9.49785056e-06
4.265694e-13
-6.540572979e-13
9.49785033e-06
1.309909056e-12
-1.16793785e-12
9.49785044e-06
-8.892541184e-15
-1.367235739e-12
9.497848933e-06
2.74991079e-12
-2.02528991e-12
9.497849945e-06
1.966563578e-12
-2.224201785e-12
9.497852685e-06
1.023242809e-11
-1.011276011e-11
9.497873352e-06
2.283362501e-12
-1.316356147e-11
9.497914662e-06
3.791695214e-11
-5.990091966e-11
9.498037468e-06
-1.882488196e-12
-5.986423078e-11
9.498286217e-06
1.380253674e-10
-2.627959707e-10
5.964963739e-10
-6.073131801e-10
9.497820006e-06
6.855777445e-13
3.58723657e-13
9.497821793e-06
6.552861698e-13
5.243855488e-13
9.497819656e-06
-2.956221835e-13
6.611519148e-13
9.497820494e-06
7.51410626e-14
5.035474591e-13
9.497820098e-06
1.235760102e-12
-8.894188568e-13
9.497820123e-06
1.221274962e-13
-2.197710824e-12
9.497822954e-06
3.492269996e-13
-1.130472345e-12
9.497818732e-06
1.120572246e-12
-3.386387742e-12
9.497818715e-06
1.310118131e-12
-2.841906106e-12
9.497818741e-06
1.015389405e-11
-7.540362857e-12
9.497817693e-06
6.726682457e-12
-1.082861682e-11
9.49783267e-06
2.966405928e-11
-3.658064418e-11
9.497828335e-06
2.040196311e-11
-5.73765651e-11
9.49796085e-06
6.155901993e-11
-1.441573999e-10
2.869001774e-10
-3.594158368e-10
9.497880648e-06
-1.865867661e-13
-1.279362051e-12
9.497881688e-06
1.123714587e-12
-1.76011852e-13
9.497880264e-06
-4.17194264e-13
5.922153086e-13
9.497882059e-06
1.865103624e-13
-9.761322142e-13
9.497878824e-06
-7.84166211e-13
-2.312907019e-12
9.497881176e-06
4.527084391e-13
-3.065187342e-13
9.497883554e-06
9.896740074e-13
-3.215539492e-13
9.497882369e-06
1.900600924e-12
-1.913286528e-12
9.49788507e-06
1.762574962e-12
-1.666383109e-12
9.497886198e-06
4.938776973e-12
-4.680859675e-12
9.497891568e-06
5.2033712e-12
-7.08618285e-12
9.497908009e-06
1.456943427e-11
-1.832940173e-11
9.497921311e-06
1.511290849e-11
-3.047298157e-11
9.497981039e-06
2.211976129e-11
-4.987369474e-11
1.222501782e-10
-1.196318782e-10
9.497847888e-06
2.912140403e-13
9.497845528e-06
-1.65331148e-12
9.497849119e-06
-1.289438235e-13
9.497847916e-06
-1.428704471e-12
9.497847381e-06
-8.152044166e-13
9.497848773e-06
-2.598106696e-13
9.497850368e-06
-7.939382201e-13
9.497850315e-06
-2.216876954e-12
9.497853771e-06
-1.134144574e-12
9.497856131e-06
-3.430433869e-12
9.497860238e-06
-4.793988043e-12
9.497872383e-06
-1.166259602e-11
9.497891578e-06
-2.037862087e-11
9.497925467e-06
-2.808014282e-11
-6.156406762e-11
9.497836324e-06
1.517525128e-13
-7.486952447e-13
9.497836698e-06
8.368315025e-13
6.32088403e-14
9.497835963e-06
1.399330548e-12
4.046490066e-13
9.497836783e-06
7.535537907e-13
5.237487824e-13
9.497837468e-06
-4.624501417e-13
-1.855200855e-12
9.497835943e-06
-4.933033692e-13
-1.180112461e-12
9.497833607e-06
-1.027066613e-12
-9.898927286e-13
9.497836443e-06
-1.603625438e-12
7.167723052e-13
9.49783737e-06
-2.488928666e-12
1.58022329e-12
9.49783474e-06
-8.472440496e-12
3.52429418e-12
9.497834877e-06
-9.742561593e-12
7.243325098e-12
9.49784338e-06
-2.996864094e-11
1.057104771e-11
9.497845065e-06
-3.99654991e-11
1.918572043e-11
-9.901267629e-11
2.758898123e-11
9.497862487e-06
-2.989486788e-13
-4.971587435e-13
9.497862177e-06
-8.119085147e-13
-9.379382127e-13
9.49786011e-06
-2.013589284e-12
-2.288066955e-13
9.49786131e-06
-5.783263261e-13
-1.352395541e-12
9.497862183e-06
7.075471114e-13
-1.623747657e-12
9.497862105e-06
-8.681182111e-13
-2.469029555e-13
9.497860463e-06
-1.02666806e-12
7.029558007e-13
9.497861606e-06
-3.072069829e-12
2.216633071e-12
9.497859945e-06
-3.778480955e-12
3.488578397e-12
9.497854543e-06
-1.617362443e-11
4.145389485e-12
9.497850247e-06
-1.385694406e-11
9.541560744e-12
9.497853928e-06
-6.8174736e-11
1.914416201e-11
9.497826434e-06
-7.452803374e-11
2.964924267e-11
-2.961253877e-10
5.08183335e-11
9.497833972e-06
8.700288145e-13
2.752575031e-13
9.49783211e-06
1.035715092e-12
7.488566536e-13
9.497832256e-06
1.451137983e-12
3.87176459e-13
9.497832604e-06
6.744116122e-13
-1.049597429e-12
9.497829614e-06
5.185835685e-13
-5.360625129e-13
9.497829747e-06
-4.314574664e-15
8.191438424e-13
9.497826463e-06
-1.311366259e-12
6.059432958e-13
9.497825116e-06
-2.201817379e-12
2.539852937e-12
9.497817353e-06
-4.175982409e-12
2.321514324e-12
9.497805618e-06
-1.725228111e-11
7.363018692e-12
9.497779858e-06
-1.1873195e-11
1.2840327e-11
9.497749646e-06
-1.122575644e-10
3.68350807e-11
9.497634934e-06
-7.348381127e-11
5.585493059e-11
-8.33797265e-10
1.422664275e-10
9.497804891e-06
-2.585312937e-13
-2.528201312e-13
9.497803671e-06
-1.275927791e-13
-1.539834015e-13
9.497803698e-06
6.952194156e-13
-1.304388396e-12
9.497804354e-06
1.146531661e-12
-7.895389175e-13
9.497802952e-06
3.589510574e-13
-3.1469091e-13
9.497802846e-06
3.400869718e-14
1.997729874e-13
9.497799215e-06
1.316735722e-12
7.462905106e-13
9.497793629e-06
-2.123446295e-12
2.169749395e-12
9.497788451e-06
-4.070641182e-12
3.379987435e-12
9.497767215e-06
-1.82929681e-11
1.033925798e-11
9.497755485e-06
-2.725544244e-11
1.292295905e-11
9.497685707e-06
-1.588721214e-10
5.864771941e-11
9.497749251e-06
-2.521596279e-10
5.980552342e-11
-1.915779808e-09
2.609420251e-10
9.497819806e-06
-5.898791014e-13
-7.07524313e-14
9.497821578e-06
-1.288327505e-12
-3.51562819e-13
9.4978205e-06
-9.906556912e-13
-1.155509424e-12
9.497819605e-06
-2.378234482e-13
-1.580888522e-12
9.497819149e-06
-4.769717158e-13
-1.516117544e-12
9.497817232e-06
-3.728961941e-15
-1.034266953e-12
9.497809958e-06
-1.607008007e-12
-1.670574738e-12
9.497798908e-06
3.50831985e-12
2.230731786e-12
9.497779724e-06
6.424031594e-12
4.128688711e-12
9.497701431e-06
1.985643891e-11
1.895097478e-11
9.497590323e-06
2.881190375e-11
2.772649236e-11
9.496947379e-06
1.597304315e-10
1.601093947e-10
9.495940758e-06
2.520190366e-10
2.537470289e-10
9.488281038e-06
1.913125821e-09
1.915648419e-09
4.545327984e-09
9.497845901e-06
-4.168663892e-13
8.435026792e-13
9.497847084e-06
-3.79577052e-13
6.844370707e-13
9.497846697e-06
-7.322063976e-13
2.083260957e-13
9.497844852e-06
-3.334344563e-14
4.413326739e-13
9.497845793e-06
-3.015265631e-13
-8.943299572e-13
9.497844672e-06
2.530698697e-13
-1.131346279e-12
9.497844738e-06
1.357452598e-12
2.305182299e-12
9.49783741e-06
2.360315009e-12
2.909153015e-12
9.497829743e-06
3.745370059e-12
1.722790138e-12
9.497809398e-06
1.828941168e-11
1.06008563e-11
9.497797747e-06
1.268748015e-11
1.278883023e-11
9.497726721e-06
1.11279293e-10
5.891384905e-11
9.497788812e-06
7.193272714e-11
5.934187544e-11
9.498345551e-06
8.335147854e-10
2.621293121e-10
2.56904984e-09
9.497806857e-06
-1.731794642e-12
-5.059966488e-13
9.497808108e-06
-1.061592428e-12
4.318918791e-13
9.497806952e-06
-2.6268037e-13
1.085048527e-12
9.49780464e-06
-1.846034233e-12
-1.034217745e-12
9.497804608e-06
-6.310367021e-13
-1.594872977e-12
9.497804246e-06
8.592048201e-13
7.986144816e-13
9.497801934e-06
4.106894134e-13
1.433210853e-12
9.497800191e-06
3.075168364e-12
2.283321883e-12
9.49779033e-06
2.560847668e-12
2.212200636e-12
9.497779413e-06
1.466009031e-11
7.246942101e-12
9.497751564e-06
1.406720618e-11
1.136686396e-11