/*--------------------------------*- C++ -*----------------------------------*\
| =========                 |                                                 |
| \\      /  F ield         | OpenFOAM: The Open Source CFD Toolbox           |
|  \\    /   O peration     | Version:  4.x                                   |
|   \\  /    A nd           | Web:      www.OpenFOAM.org                      |
|    \\/     M anipulation  |                                                 |
\*---------------------------------------------------------------------------*/
FoamFile
{
    version     2.0;
    format      ascii;
    class       volScalarField;
    location    "8000";
    object      rho;
}
// * * * * * * * * * * * * * * * * * * * * * * * * * * * * * * * * * * * * * //

dimensions      [1 -3 0 0 0 0 0];

internalField   nonuniform List<scalar> 
1175
(
0.2797541383
0.2797541067
0.2797541243
0.2797541133
0.2797541357
0.2797541622
0.2797541817
0.2797541551
0.2797541474
0.2797541481
0.2797541443
0.2797541454
0.2797541405
0.2797541924
0.2797542864
0.279755131
0.2797551303
0.2797551368
0.2797551183
0.2797551234
0.279755109
0.2797551113
0.2797551142
0.279755117
0.2797551492
0.2797551445
0.2797551109
0.279755155
0.2797552493
0.2797553586
0.2797545034
0.2797545118
0.2797545192
0.2797545591
0.2797545521
0.2797545495
0.2797545567
0.2797545516
0.27975453
0.2797545086
0.279754518
0.2797545025
0.2797545757
0.279754733
0.2797550239
0.2797545294
0.2797545472
0.2797545353
0.2797545162
0.2797545235
0.2797545418
0.2797545568
0.2797545392
0.2797545105
0.2797545437
0.2797545917
0.2797546423
0.2797547196
0.2797549578
0.2797554933
0.2797538116
0.2797538047
0.2797537566
0.2797537767
0.2797538019
0.2797537922
0.2797537575
0.2797537656
0.2797537775
0.2797538112
0.2797538661
0.2797539322
0.2797540737
0.279754479
0.2797551232
0.2797538127
0.2797538243
0.2797538437
0.2797538129
0.2797538195
0.2797538063
0.2797538058
0.2797538413
0.2797538663
0.2797539228
0.2797539635
0.2797539809
0.2797540712
0.2797543152
0.2797548272
0.279754836
0.2797547913
0.2797548342
0.2797548157
0.2797547835
0.2797547755
0.2797547684
0.2797547815
0.2797547769
0.2797547898
0.2797548315
0.2797548757
0.2797549515
0.2797550866
0.27975539
0.2797542054
0.2797541969
0.2797542089
0.2797541874
0.2797541751
0.2797541867
0.2797541683
0.2797541867
0.2797542075
0.2797542102
0.2797541771
0.2797542049
0.2797542361
0.2797543243
0.2797544938
0.2797539322
0.2797539446
0.2797539031
0.2797539094
0.2797539338
0.2797539284
0.2797539366
0.2797539509
0.2797539567
0.2797539593
0.2797539534
0.2797539636
0.2797539935
0.2797540377
0.2797541122
0.2797550352
0.2797550413
0.2797550376
0.279755032
0.2797550137
0.2797549925
0.2797549917
0.2797550087
0.2797550292
0.2797550421
0.2797550648
0.2797550896
0.2797550955
0.279755213
0.2797535901
0.2797535756
0.2797535897
0.2797536219
0.2797536047
0.2797536428
0.2797536335
0.2797536446
0.2797536523
0.2797536228
0.2797535968
0.2797536553
0.2797537402
0.2797538979
0.2797542153
0.2797531604
0.2797531688
0.2797531545
0.2797531634
0.2797532006
0.2797532167
0.2797532398
0.2797532435
0.2797532578
0.2797532652
0.2797532704
0.279753351
0.2797534546
0.2797537836
0.2797545108
0.2797543429
0.279754305
0.27975429
0.2797542935
0.2797542892
0.2797542806
0.2797542608
0.2797542954
0.2797542898
0.2797542716
0.2797543251
0.2797544455
0.2797547282
0.2797554582
0.2797569319
0.2797538588
0.279753848
0.2797538581
0.2797538263
0.2797538372
0.2797538518
0.2797538409
0.2797538701
0.2797538644
0.2797538887
0.2797538831
0.2797539906
0.2797544098
0.2797554294
0.2797577591
0.2797551197
0.2797551
0.2797550954
0.2797551151
0.2797551451
0.2797551427
0.2797551256
0.279755101
0.2797551172
0.2797550982
0.2797551235
0.2797552487
0.2797555174
0.2797562103
0.2797576398
0.2797526614
0.2797526816
0.2797526309
0.2797526534
0.2797526761
0.2797526969
0.2797526819
0.2797526547
0.2797526935
0.2797526784
0.2797526975
0.2797527825
0.2797529256
0.2797533137
0.279753986
0.2797557251
0.279755719
0.2797557592
0.2797557969
0.2797558198
0.2797557856
0.2797557916
0.2797557961
0.2797557326
0.2797557368
0.2797557813
0.2797557862
0.2797558412
0.279755941
0.2797562522
0.2797525478
0.2797524956
0.2797524723
0.279752449
0.279752466
0.2797524921
0.279752482
0.279752507
0.2797525064
0.279752511
0.2797525379
0.2797525523
0.2797525888
0.2797526625
0.2797528377
0.279754006
0.2797540206
0.2797540202
0.2797539861
0.2797540022
0.2797539665
0.2797540189
0.2797540264
0.2797539938
0.2797540142
0.2797540781
0.2797540913
0.2797541332
0.2797542511
0.2797559488
0.2797559679
0.2797559325
0.2797559137
0.2797559091
0.2797559363
0.279755934
0.2797559307
0.2797559609
0.2797559394
0.2797559563
0.2797560232
0.2797561573
0.2797564681
0.2797547994
0.2797548131
0.2797548348
0.2797547958
0.2797547986
0.2797548121
0.2797547822
0.2797547823
0.2797548174
0.2797548264
0.2797548494
0.279754985
0.2797553188
0.2797562656
0.2797582116
0.2797541413
0.2797541405
0.2797541339
0.2797541684
0.2797541441
0.2797541069
0.2797540956
0.2797541191
0.2797541318
0.2797541181
0.2797541887
0.279754397
0.2797551802
0.2797575521
0.2797627149
0.2797552152
0.2797552264
0.2797552113
0.2797551634
0.2797552142
0.2797551853
0.2797551683
0.2797551992
0.2797551916
0.2797552431
0.2797553403
0.2797556499
0.2797569806
0.279761387
0.2797723267
0.2797544451
0.2797544207
0.2797544097
0.2797544197
0.279754417
0.2797544355
0.2797544085
0.2797543859
0.2797544206
0.2797544538
0.279754492
0.2797547208
0.2797555127
0.2797579067
0.2797631287
0.2797541087
0.2797541178
0.2797541419
0.2797541511
0.279754131
0.2797541081
0.2797540423
0.27975408
0.2797540564
0.2797540801
0.2797540612
0.2797541791
0.2797545269
0.2797554713
0.2797574547
0.2797529414
0.279752928
0.2797529175
0.2797528991
0.2797528664
0.2797528737
0.2797529142
0.279752906
0.2797529051
0.2797528964
0.2797528484
0.279752911
0.2797530597
0.2797533765
0.2797540871
0.2797552126
0.2797552407
0.2797552111
0.2797552373
0.2797552287
0.2797552072
0.2797552478
0.2797552523
0.2797552621
0.2797552351
0.2797552623
0.2797553118
0.2797553536
0.2797555138
0.2797557924
0.2797538572
0.2797539005
0.2797538802
0.2797538944
0.2797538837
0.2797538903
0.2797539134
0.2797539436
0.2797539519
0.2797539962
0.2797539996
0.2797540019
0.2797541414
0.2797544144
0.2797531101
0.2797530997
0.2797530959
0.2797531162
0.2797531559
0.2797531608
0.2797531677
0.2797532291
0.2797532085
0.2797532543
0.2797532862
0.2797533989
0.2797536859
0.2797543549
0.2797550766
0.279755073
0.279755038
0.2797550322
0.279755029
0.2797550166
0.2797550112
0.2797549897
0.2797549869
0.2797550032
0.2797550507
0.2797552824
0.2797561094
0.2797585092
0.2797540717
0.2797540602
0.2797540793
0.2797541112
0.279754122
0.2797541203
0.2797541128
0.279754117
0.2797541112
0.2797541305
0.2797542581
0.2797548156
0.279756981
0.2797645934
0.2797840003
0.2797523608
0.2797524143
0.2797523604
0.2797523711
0.2797523747
0.2797524231
0.2797524266
0.2797524186
0.2797524441
0.2797525275
0.2797526941
0.2797536044
0.2797579153
0.2797766409
0.2798421581
0.279755012
0.2797549547
0.2797549226
0.279754954
0.2797549363
0.2797548969
0.2797548877
0.2797549366
0.2797549398
0.2797550023
0.2797551048
0.279755698
0.2797578958
0.2797655335
0.2797849249
0.2797539797
0.2797539613
0.2797540072
0.2797539852
0.2797539959
0.2797540292
0.2797540241
0.2797540379
0.2797540356
0.2797540439
0.279754099
0.2797543245
0.2797551088
0.2797574783
0.2797626254
0.2797558182
0.2797557844
0.2797558163
0.2797558064
0.2797557769
0.2797557803
0.2797557589
0.2797557358
0.2797557493
0.2797557377
0.2797557347
0.2797558594
0.2797561499
0.2797568543
0.2797582824
0.279754795
0.2797547991
0.2797547861
0.2797548157
0.2797548308
0.2797547929
0.27975479
0.2797547983
0.2797547891
0.2797547987
0.2797548008
0.2797548434
0.279754923
0.2797552043
0.2797557561
0.2797544876
0.2797544547
0.2797544443
0.2797544216
0.2797544462
0.279754479
0.2797544488
0.2797544088
0.2797544341
0.2797544417
0.2797544514
0.2797545161
0.2797546604
0.2797550064
0.2797552586
0.2797552471
0.279755201
0.2797552099
0.2797552305
0.279755234
0.2797552323
0.2797552484
0.2797552426
0.2797552558
0.2797552454
0.279755375
0.2797557674
0.2797568322
0.2797543685
0.2797543575
0.2797543627
0.2797543332
0.2797543296
0.2797543514
0.2797542936
0.2797542542
0.2797542811
0.2797542812
0.2797544022
0.2797547982
0.2797561132
0.2797604822
0.2797535726
0.279753537
0.2797535543
0.2797535315
0.2797534973
0.2797534884
0.2797534701
0.2797534754
0.2797534947
0.2797535566
0.2797537217
0.2797546467
0.2797589781
0.2797777151
0.2797539995
0.2797540302
0.2797540352
0.2797540389
0.279754017
0.2797539852
0.2797539642
0.2797539569
0.2797539388
0.27975404
0.2797543514
0.279756133
0.2797668959
0.2798371194
0.2812254061
0.2797547195
0.2797547113
0.2797547755
0.2797547449
0.2797547635
0.2797547786
0.2797547884
0.2797548137
0.2797547832
0.2797548144
0.2797550377
0.2797559413
0.2797601898
0.2797789212
0.2798444703
0.279753612
0.2797535976
0.2797535883
0.2797535876
0.2797535726
0.2797535441
0.2797535363
0.2797535427
0.2797535621
0.2797535364
0.2797535687
0.2797539189
0.2797552395
0.2797596801
0.2797706253
0.2797537524
0.2797537568
0.2797537603
0.2797537089
0.2797537149
0.2797537271
0.2797537262
0.2797537433
0.2797537417
0.2797537258
0.2797538102
0.2797539213
0.2797543524
0.2797553918
0.2797577313
0.2797531432
0.279753166
0.2797531579
0.2797531859
0.2797531947
0.2797531855
0.2797532228
0.2797532104
0.2797531947
0.2797531695
0.2797531961
0.2797532456
0.2797533487
0.2797537092
0.279754435
0.27975428
0.279754299
0.2797543225
0.2797543388
0.2797543815
0.2797543568
0.2797543799
0.2797543975
0.2797544221
0.2797544118
0.2797543409
0.2797543602
0.2797544737
0.279754752
0.2797546629
0.2797546482
0.2797546486
0.2797546186
0.2797546123
0.2797546166
0.2797546029
0.2797546142
0.279754583
0.2797546127
0.2797546566
0.2797548068
0.2797551339
0.2797558372
0.2797537387
0.2797537934
0.2797537948
0.2797537876
0.279753826
0.2797538528
0.2797538489
0.2797538339
0.2797538479
0.2797538569
0.2797539268
0.2797541363
0.2797548948
0.2797573161
0.2797557472
0.2797557309
0.2797557326
0.2797556978
0.2797556848
0.2797556997
0.279755695
0.2797557263
0.2797557284
0.2797557605
0.2797558739
0.2797564439
0.279758591
0.2797661971
0.2797535747
0.279753583
0.2797536085
0.2797536024
0.2797536568
0.2797536438
0.2797536452
0.2797536621
0.2797536621
0.2797536683
0.2797538583
0.2797547508
0.2797590778
0.2797777868
0.2797540365
0.2797540201
0.27975401
0.2797540637
0.2797540243
0.2797540084
0.2797540214
0.2797540386
0.2797540621
0.2797540555
0.2797541782
0.2797547148
0.27975692
0.2797644921
0.2797551774
0.2797552005
0.2797552385
0.2797552259
0.2797552319
0.2797552383
0.2797552208
0.2797552429
0.2797552273
0.2797552164
0.2797552742
0.279755524
0.2797562937
0.2797586522
0.2797639072
0.2797535366
0.2797535298
0.2797535203
0.2797535394
0.279753512
0.2797535857
0.2797536006
0.2797536029
0.2797536185
0.2797535986
0.279753625
0.2797536832
0.2797539864
0.2797547194
0.2797561603
0.2797537557
0.2797537413
0.2797537449
0.2797537613
0.2797537528
0.2797537857
0.2797537705
0.2797537466
0.2797537406
0.2797537477
0.2797537414
0.2797537806
0.2797539072
0.2797541713
0.2797546818
0.2797540751
0.2797541009
0.2797540666
0.2797540791
0.2797540769
0.2797540809
0.279754059
0.2797540673
0.2797540692
0.2797541036
0.2797541085
0.2797541522
0.2797542142
0.2797543395
0.2797535069
0.2797534836
0.2797534427
0.2797534528
0.2797534743
0.2797534889
0.2797535146
0.2797535404
0.2797535557
0.2797535781
0.2797535654
0.2797536197
0.2797537499
0.2797540878
0.2797544702
0.2797544534
0.2797544411
0.2797544394
0.2797544022
0.2797544012
0.279754389
0.2797543802
0.2797543716
0.2797543735
0.2797544038
0.2797545104
0.279754863
0.2797558494
0.279753223
0.2797532064
0.2797532421
0.2797531797
0.2797532057
0.2797532034
0.279753201
0.2797532296
0.2797532442
0.2797532747
0.2797532987
0.2797535782
0.2797543896
0.2797568007
0.2797553218
0.2797552824
0.2797553022
0.2797552878
0.2797552803
0.2797552278
0.2797552306
0.279755248
0.2797552502
0.2797553104
0.2797553755
0.2797557479
0.2797570622
0.279761481
0.2797542611
0.2797542643
0.2797542585
0.2797542679
0.2797542498
0.2797542886
0.2797543105
0.2797543482
0.2797543095
0.2797543372
0.2797544201
0.279754689
0.2797554811
0.2797578727
0.2797534955
0.2797535436
0.2797535528
0.2797535845
0.279753611
0.2797536208
0.2797536146
0.2797536423
0.2797536396
0.2797536489
0.2797536689
0.2797537896
0.2797541619
0.2797551191
0.279754888
0.279754873
0.2797548339
0.2797548334
0.2797548262
0.2797548395
0.2797548943
0.2797549045
0.2797549444
0.2797549615
0.279754982
0.2797550192
0.2797552155
0.2797555662
0.2797562802
0.2797551287
0.2797551068
0.2797551058
0.2797551112
0.2797550786
0.2797550774
0.279755042
0.2797550222
0.279755026
0.2797550378
0.2797550354
0.2797550668
0.2797551465
0.2797552887
0.2797555842
0.2797544142
0.2797544438
0.2797544536
0.2797544435
0.279754408
0.2797544339
0.2797544594
0.2797544421
0.2797544305
0.2797544631
0.2797544706
0.2797544779
0.2797545216
0.2797545795
0.2797552942
0.2797553072
0.2797552942
0.2797553188
0.2797552874
0.2797552992
0.2797553018
0.2797552932
0.2797553479
0.2797553463
0.2797553551
0.2797553699
0.279755415
0.2797555527
0.279754587
0.2797545707
0.2797545457
0.2797545168
0.2797545064
0.2797545194
0.2797545353
0.2797545447
0.2797545284
0.2797545006
0.2797545021
0.2797545319
0.2797546796
0.2797550555
0.2797542313
0.2797542669
0.2797542325
0.279754231
0.2797542585
0.2797542361
0.2797542025
0.279754202
0.2797542048
0.2797542202
0.2797542391
0.2797543032
0.2797545523
0.2797552842
0.2797538345
0.2797538625
0.2797538256
0.2797538559
0.2797538541
0.2797538828
0.279753866
0.2797538491
0.2797538934
0.2797539527
0.279753972
0.2797540834
0.2797544627
0.2797555237
0.2797554276
0.279755415
0.2797553858
0.2797554216
0.2797554423
0.2797554696
0.2797554682
0.2797554695
0.2797555128
0.2797555076
0.2797555126
0.279755651
0.2797559207
0.2797566917
0.2797546817
0.27975466
0.279754612
0.2797546007
0.2797545487
0.2797545377
0.2797546081
0.279754551
0.2797545386
0.2797545577
0.2797545567
0.2797545767
0.2797547426
0.2797551005
0.2797546732
0.2797546776
0.2797547129
0.2797547502
0.2797547502
0.2797547615
0.2797547495
0.2797548012
0.2797548034
0.2797548242
0.2797548235
0.2797548089
0.2797549041
0.2797550581
0.2797542445
0.279754254
0.2797542369
0.2797542481
0.2797542274
0.2797542442
0.2797542449
0.2797542473
0.2797542339
0.279754255
0.2797542328
0.2797542582
0.2797542837
0.2797543493
0.2797545039
0.2797544027
0.2797543981
0.2797543877
0.2797543905
0.2797543916
0.2797543868
0.2797543701
0.279754352
0.2797543703
0.279754383
0.2797543938
0.279754404
0.2797544037
0.2797544493
0.2797546777
0.2797546632
0.2797546956
0.2797546879
0.2797546758
0.2797546926
0.2797546971
0.2797547096
0.2797546961
0.2797546881
0.2797547022
0.2797547317
0.2797547586
0.2797548339
0.2797538456
0.2797538651
0.279753858
0.2797538681
0.2797538901
0.2797538388
0.2797538292
0.279753851
0.2797538062
0.2797538197
0.2797538574
0.2797538998
0.2797539951
0.2797541642
0.2797567116
0.2797566953
0.2797567103
0.2797566827
0.2797566956
0.2797566893
0.2797567115
0.2797566997
0.2797566902
0.2797567239
0.2797567296
0.279756794
0.2797569118
0.2797571504
0.2797550623
0.2797550374
0.2797550585
0.2797550539
0.2797550971
0.279755093
0.2797550885
0.2797550857
0.2797550852
0.27975509
0.2797551066
0.2797551491
0.27975529
0.2797556315
0.2797542063
0.2797541815
0.2797542005
0.2797541611
0.2797541642
0.2797541338
0.2797541233
0.2797541232
0.2797540774
0.2797540783
0.2797540952
0.2797541311
0.2797542466
0.2797545068
0.279754218
0.2797542025
0.2797541886
0.279754184
0.2797541865
0.2797542331
0.2797542504
0.279754249
0.2797542736
0.279754273
0.27975425
0.279754283
0.2797543364
0.2797544972
0.2797547688
0.2797547185
0.279754683
0.2797546725
0.2797546831
0.2797546779
0.2797546389
0.2797546487
0.2797546254
0.2797546249
0.2797546356
0.2797546551
0.2797546616
0.2797547107
0.279754685
0.2797547121
0.2797547202
0.2797547257
0.2797547142
0.2797546977
0.2797546856
0.2797546808
0.2797546781
0.2797546898
0.2797546586
0.279754709
0.2797546887
0.279754737
)
;

boundaryField
{
    top
    {
        type            calculated;
        value           nonuniform List<scalar> 
134
(
0.2797539322
0.2797525478
0.2797552126
0.279754795
0.2797531432
0.2797537557
0.2797551287
0.2797542445
0.279754685
0.2797539446
0.2797524956
0.2797552407
0.2797547991
0.279753166
0.2797537413
0.2797551068
0.279754254
0.2797547121
0.2797539031
0.2797524723
0.2797552111
0.2797547861
0.2797531579
0.2797537449
0.2797551058
0.2797542369
0.2797547202
0.2797539094
0.279752449
0.2797552373
0.2797548157
0.2797531859
0.2797537613
0.2797551112
0.2797542481
0.2797547257
0.2797539338
0.279752466
0.2797552287
0.2797548308
0.2797531947
0.2797537528
0.2797550786
0.2797542274
0.2797547142
0.2797539284
0.2797524921
0.2797552072
0.2797547929
0.2797531855
0.2797537857
0.2797550774
0.2797542442
0.2797546977
0.2797539366
0.279752482
0.2797552478
0.27975479
0.2797532228
0.2797537705
0.279755042
0.2797542449
0.2797546856
0.2797539509
0.279752507
0.2797552523
0.2797547983
0.2797532104
0.2797537466
0.2797550222
0.2797542473
0.2797546808
0.2797539567
0.2797525064
0.2797552621
0.2797547891
0.2797531947
0.2797537406
0.279755026
0.2797542339
0.2797546781
0.2797539593
0.279752511
0.2797552351
0.2797547987
0.2797531695
0.2797537477
0.2797550378
0.279754255
0.2797546898
0.2797539534
0.2797525379
0.2797552623
0.2797548008
0.2797531961
0.2797537414
0.2797550354
0.2797542328
0.2797546586
0.2797539636
0.2797525523
0.2797553118
0.2797548434
0.2797532456
0.2797537806
0.2797550668
0.2797542582
0.279754709
0.2797539935
0.2797525888
0.2797553536
0.279754923
0.2797533487
0.2797539072
0.2797551465
0.2797542837
0.2797546887
0.2797540377
0.2797526625
0.2797555138
0.2797552043
0.2797537092
0.2797541713
0.2797552887
0.2797543493
0.279754737
0.2797541122
0.2797528377
0.2797557924
0.2797557561
0.279754435
0.2797546818
0.2797555842
0.2797545039
)
;
    }
    bottom
    {
        type            calculated;
        value           nonuniform List<scalar> 
127
(
0.2797541383
0.2797550352
0.279754006
0.2797538572
0.2797544876
0.27975428
0.2797540751
0.2797544142
0.2797544027
0.2797541067
0.2797550413
0.2797540206
0.2797539005
0.2797544547
0.279754299
0.2797541009
0.2797544438
0.2797543981
0.2797541243
0.2797550376
0.2797540202
0.2797538802
0.2797544443
0.2797543225
0.2797540666
0.2797544536
0.2797543877
0.2797541133
0.279755032
0.2797539861
0.2797538944
0.2797544216
0.2797543388
0.2797540791
0.2797544435
0.2797543905
0.2797541357
0.2797550137
0.2797540022
0.2797538837
0.2797544462
0.2797543815
0.2797540769
0.279754408
0.2797543916
0.2797541622
0.2797549925
0.2797539665
0.2797538903
0.279754479
0.2797543568
0.2797540809
0.2797544339
0.2797543868
0.2797541817
0.2797549917
0.2797540189
0.2797539134
0.2797544488
0.2797543799
0.279754059
0.2797544594
0.2797543701
0.2797541551
0.2797550087
0.2797540264
0.2797539436
0.2797544088
0.2797543975
0.2797540673
0.2797544421
0.279754352
0.2797541474
0.2797550292
0.2797539938
0.2797539519
0.2797544341
0.2797544221
0.2797540692
0.2797544305
0.2797543703
0.2797541481
0.2797550421
0.2797540142
0.2797539962
0.2797544417
0.2797544118
0.2797541036
0.2797544631
0.279754383
0.2797541443
0.2797550648
0.2797540781
0.2797539996
0.2797544514
0.2797543409
0.2797541085
0.2797544706
0.2797543938
0.2797541454
0.2797550896
0.2797540913
0.2797540019
0.2797545161
0.2797543602
0.2797541522
0.2797544779
0.279754404
0.2797541405
0.2797550955
0.2797541332
0.2797541414
0.2797546604
0.2797544737
0.2797542142
0.2797545216
0.2797544037
0.2797541924
0.279755213
0.2797542511
0.2797544144
0.2797550064
0.279754752
0.2797543395
0.2797545795
0.2797544493
0.2797542864
)
;
    }
    side-walls
    {
        type            calculated;
        value           nonuniform List<scalar> 
261
(
0.2797541383
0.279755131
0.2797545034
0.2797545294
0.2797538116
0.2797538127
0.279754836
0.2797542054
0.2797539322
0.2797541067
0.2797551303
0.2797545118
0.2797545472
0.2797538047
0.2797538243
0.2797547913
0.2797541969
0.2797539446
0.2797541243
0.2797551368
0.2797545192
0.2797545353
0.2797537566
0.2797538437
0.2797548342
0.2797542089
0.2797539031
0.2797541133
0.2797551183
0.2797545591
0.2797545162
0.2797537767
0.2797538129
0.2797548157
0.2797541874
0.2797539094
0.2797541357
0.2797551234
0.2797545521
0.2797545235
0.2797538019
0.2797538195
0.2797547835
0.2797541751
0.2797539338
0.2797541622
0.279755109
0.2797545495
0.2797545418
0.2797537922
0.2797538063
0.2797547755
0.2797541867
0.2797539284
0.2797541817
0.2797551113
0.2797545567
0.2797545568
0.2797537575
0.2797538058
0.2797547684
0.2797541683
0.2797539366
0.2797541551
0.2797551142
0.2797545516
0.2797545392
0.2797537656
0.2797538413
0.2797547815
0.2797541867
0.2797539509
0.2797541474
0.279755117
0.27975453
0.2797545105
0.2797537775
0.2797538663
0.2797547769
0.2797542075
0.2797539567
0.2797541481
0.2797551492
0.2797545086
0.2797545437
0.2797538112
0.2797539228
0.2797547898
0.2797542102
0.2797539593
0.2797541443
0.2797551445
0.279754518
0.2797545917
0.2797538661
0.2797539635
0.2797548315
0.2797541771
0.2797539534
0.2797541454
0.2797551109
0.2797545025
0.2797546423
0.2797539322
0.2797539809
0.2797548757
0.2797542049
0.2797539636
0.2797541405
0.279755155
0.2797545757
0.2797547196
0.2797540737
0.2797540712
0.2797549515
0.2797542361
0.2797539935
0.2797541924
0.2797552493
0.279754733
0.2797549578
0.279754479
0.2797543152
0.2797550866
0.2797543243
0.2797540377
0.2797542864
0.2797553586
0.2797550239
0.2797554933
0.2797551232
0.2797548272
0.27975539
0.2797544938
0.2797541122
0.2797544027
0.2797546777
0.2797538456
0.2797567116
0.2797550623
0.2797542063
0.279754218
0.2797547688
0.279754685
0.2797543981
0.2797546632
0.2797538651
0.2797566953
0.2797550374
0.2797541815
0.2797542025
0.2797547185
0.2797547121
0.2797543877
0.2797546956
0.279753858
0.2797567103
0.2797550585
0.2797542005
0.2797541886
0.279754683
0.2797547202
0.2797543905
0.2797546879
0.2797538681
0.2797566827
0.2797550539
0.2797541611
0.279754184
0.2797546725
0.2797547257
0.2797543916
0.2797546758
0.2797538901
0.2797566956
0.2797550971
0.2797541642
0.2797541865
0.2797546831
0.2797547142
0.2797543868
0.2797546926
0.2797538388
0.2797566893
0.279755093
0.2797541338
0.2797542331
0.2797546779
0.2797546977
0.2797543701
0.2797546971
0.2797538292
0.2797567115
0.2797550885
0.2797541233
0.2797542504
0.2797546389
0.2797546856
0.279754352
0.2797547096
0.279753851
0.2797566997
0.2797550857
0.2797541232
0.279754249
0.2797546487
0.2797546808
0.2797543703
0.2797546961
0.2797538062
0.2797566902
0.2797550852
0.2797540774
0.2797542736
0.2797546254
0.2797546781
0.279754383
0.2797546881
0.2797538197
0.2797567239
0.27975509
0.2797540783
0.279754273
0.2797546249
0.2797546898
0.2797543938
0.2797547022
0.2797538574
0.2797567296
0.2797551066
0.2797540952
0.27975425
0.2797546356
0.2797546586
0.279754404
0.2797547317
0.2797538998
0.279756794
0.2797551491
0.2797541311
0.279754283
0.2797546551
0.279754709
0.2797544037
0.2797547586
0.2797539951
0.2797569118
0.27975529
0.2797542466
0.2797543364
0.2797546616
0.2797546887
0.2797544493
0.2797548339
0.2797541642
0.2797571504
0.2797556315
0.2797545068
0.2797544972
0.2797547107
0.279754737
)
;
    }
    inlet
    {
        type            calculated;
        value           nonuniform List<scalar> 
81
(
0.2797541383
0.279755131
0.2797545034
0.2797545294
0.2797538116
0.2797538127
0.279754836
0.2797542054
0.2797539322
0.2797550352
0.2797535901
0.2797531604
0.2797543429
0.2797538588
0.2797551197
0.2797526614
0.2797557251
0.2797525478
0.279754006
0.2797559488
0.2797547994
0.2797541413
0.2797552152
0.2797544451
0.2797541087
0.2797529414
0.2797552126
0.2797538572
0.2797531101
0.2797550766
0.2797540717
0.2797523608
0.279755012
0.2797539797
0.2797558182
0.279754795
0.2797544876
0.2797552586
0.2797543685
0.2797535726
0.2797539995
0.2797547195
0.279753612
0.2797537524
0.2797531432
0.27975428
0.2797546629
0.2797537387
0.2797557472
0.2797535747
0.2797540365
0.2797551774
0.2797535366
0.2797537557
0.2797540751
0.2797535069
0.2797544702
0.279753223
0.2797553218
0.2797542611
0.2797534955
0.279754888
0.2797551287
0.2797544142
0.2797552942
0.279754587
0.2797542313
0.2797538345
0.2797554276
0.2797546817
0.2797546732
0.2797542445
0.2797544027
0.2797546777
0.2797538456
0.2797567116
0.2797550623
0.2797542063
0.279754218
0.2797547688
0.279754685
)
;
    }
    outlet
    {
        type            calculated;
        value           nonuniform 0();
    }
    procBoundary0to1
    {
        type            processor;
        value           nonuniform List<scalar> 
97
(
0.2797544505
0.2797552887
0.2797556222
0.2797555117
0.2797563207
0.2797562164
0.279755596
0.2797558691
0.2797547156
0.2797542375
0.2797552887
0.2797552887
0.2797547105
0.2797571695
0.2797555351
0.2797589639
0.2797605336
0.2797596006
0.2797550573
0.279756717
0.2797531095
0.2797545598
0.2797571695
0.2797571695
0.2797608263
0.279763737
0.2797684133
0.2797805388
0.2797688629
0.2797600833
0.2797551172
0.2797562785
0.2797548953
0.2797558609
0.279763737
0.279763737
0.2797971543
0.2798432478
0.2798522492
0.2797980664
0.2797682778
0.2797602717
0.2797565533
0.2797556835
0.2797591594
0.2797714767
0.2798432478
0.2798432478
0.2809884652
0.2798432895
0.2798545328
0.2797839145
0.2797788363
0.2797605255
0.2797554551
0.2797552824
0.2797572972
0.2797625289
0.2797855883
0.2798432895
0.2797839145
0.2797839145
0.279769599
0.2797570659
0.2797581776
0.2797554978
0.2797546648
0.2797547658
0.2797577898
0.2797620077
0.2797723887
0.2797630493
0.2797570659
0.2797570659
0.2797573178
0.2797553669
0.2797560882
0.2797547187
0.2797558987
0.2797557469
0.2797567803
0.2797578697
0.2797581122
0.2797557394
0.2797553669
0.2797553669
0.2797547316
0.2797548251
0.2797545451
0.2797549716
0.2797544535
0.2797576713
0.2797563168
0.2797549886
0.2797547945
0.2797548383
0.2797548251
)
;
    }
}


// ************************************************************************* //
