/*--------------------------------*- C++ -*----------------------------------*\
| =========                 |                                                 |
| \\      /  F ield         | OpenFOAM: The Open Source CFD Toolbox           |
|  \\    /   O peration     | Version:  4.x                                   |
|   \\  /    A nd           | Web:      www.OpenFOAM.org                      |
|    \\/     M anipulation  |                                                 |
\*---------------------------------------------------------------------------*/
FoamFile
{
    version     2.0;
    format      ascii;
    class       volScalarField;
    location    "8000";
    object      T;
}
// * * * * * * * * * * * * * * * * * * * * * * * * * * * * * * * * * * * * * //

dimensions      [0 0 0 1 0 0 0];

internalField   nonuniform List<scalar> 
1175
(
1223.150865
1223.151003
1223.150926
1223.150974
1223.150876
1223.150761
1223.150676
1223.150792
1223.150827
1223.150829
1223.150859
1223.15089
1223.150999
1223.150965
1223.150935
1223.146524
1223.146528
1223.146499
1223.14658
1223.146558
1223.146621
1223.146611
1223.146599
1223.146589
1223.146456
1223.146497
1223.146702
1223.146658
1223.146581
1223.146764
1223.149269
1223.149232
1223.1492
1223.149025
1223.149056
1223.149067
1223.149036
1223.149059
1223.149157
1223.149263
1223.149259
1223.149433
1223.149395
1223.149363
1223.149386
1223.149155
1223.149077
1223.149129
1223.149212
1223.149181
1223.149101
1223.149036
1223.149114
1223.149244
1223.149117
1223.148964
1223.148915
1223.14905
1223.149149
1223.149078
1223.152293
1223.152324
1223.152533
1223.152446
1223.152336
1223.152378
1223.15253
1223.152496
1223.15245
1223.152324
1223.152152
1223.152076
1223.152062
1223.151793
1223.152007
1223.152288
1223.152238
1223.152153
1223.152287
1223.152258
1223.152316
1223.152319
1223.152165
1223.152061
1223.151832
1223.151711
1223.151807
1223.151885
1223.151959
1223.151991
1223.147815
1223.14801
1223.147823
1223.147903
1223.148044
1223.148079
1223.14811
1223.148054
1223.148078
1223.148033
1223.147888
1223.147802
1223.147752
1223.147817
1223.147786
1223.150572
1223.150609
1223.150556
1223.15065
1223.150704
1223.150653
1223.150734
1223.150654
1223.150565
1223.150561
1223.150727
1223.150664
1223.150676
1223.150626
1223.150545
1223.151766
1223.151712
1223.151893
1223.151865
1223.151759
1223.151782
1223.151747
1223.151685
1223.151662
1223.151655
1223.151694
1223.151685
1223.151641
1223.151642
1223.151696
1223.146943
1223.146917
1223.146932
1223.146957
1223.147037
1223.14713
1223.147133
1223.14706
1223.146973
1223.146924
1223.146846
1223.146796
1223.146918
1223.14674
1223.153261
1223.153325
1223.153263
1223.153123
1223.153198
1223.153031
1223.153072
1223.153025
1223.152995
1223.153136
1223.153286
1223.153137
1223.153049
1223.153025
1223.152953
1223.15514
1223.155104
1223.155166
1223.155127
1223.154965
1223.154895
1223.154794
1223.15478
1223.154723
1223.154711
1223.154759
1223.154625
1223.154791
1223.154874
1223.154735
1223.149971
1223.150136
1223.150202
1223.150186
1223.150205
1223.150243
1223.15033
1223.150181
1223.150215
1223.150327
1223.150212
1223.150078
1223.150033
1223.149954
1223.149887
1223.152087
1223.152134
1223.15209
1223.152229
1223.152181
1223.152118
1223.152166
1223.152041
1223.152076
1223.152011
1223.152185
1223.152239
1223.152094
1223.152351
1223.152271
1223.146574
1223.14666
1223.14668
1223.146594
1223.146463
1223.146474
1223.146549
1223.146659
1223.146597
1223.146713
1223.146721
1223.146566
1223.146583
1223.146666
1223.146792
1223.157322
1223.157234
1223.157455
1223.157357
1223.157258
1223.157167
1223.157233
1223.157354
1223.15719
1223.157277
1223.157263
1223.157111
1223.157104
1223.156929
1223.157029
1223.143927
1223.143954
1223.143778
1223.143613
1223.143513
1223.143662
1223.143636
1223.143618
1223.143899
1223.143892
1223.143734
1223.14382
1223.143863
1223.144092
1223.144047
1223.157819
1223.158047
1223.158149
1223.158251
1223.158176
1223.158063
1223.158107
1223.157998
1223.158003
1223.15799
1223.157894
1223.157889
1223.157878
1223.157891
1223.157786
1223.151443
1223.151379
1223.151381
1223.15153
1223.15146
1223.151616
1223.151387
1223.151355
1223.151501
1223.151424
1223.151182
1223.151231
1223.15133
1223.15147
1223.142949
1223.142866
1223.14302
1223.143102
1223.143122
1223.143004
1223.143014
1223.143031
1223.142905
1223.14302
1223.143016
1223.142942
1223.142975
1223.143137
1223.147975
1223.147915
1223.14782
1223.14799
1223.147978
1223.147919
1223.14805
1223.148053
1223.14791
1223.147912
1223.147962
1223.147879
1223.14799
1223.148015
1223.148073
1223.150852
1223.150855
1223.150884
1223.150734
1223.15084
1223.151003
1223.151053
1223.150955
1223.150916
1223.151048
1223.151017
1223.151143
1223.151258
1223.151287
1223.151536
1223.146157
1223.146108
1223.146174
1223.146383
1223.146161
1223.146287
1223.146363
1223.146233
1223.146288
1223.146154
1223.146109
1223.14628
1223.146227
1223.146194
1223.146257
1223.149524
1223.14963
1223.149678
1223.149635
1223.149646
1223.149566
1223.149685
1223.149788
1223.149654
1223.14958
1223.149691
1223.149727
1223.149804
1223.149736
1223.149725
1223.150994
1223.150954
1223.150849
1223.150809
1223.150897
1223.150997
1223.151285
1223.151124
1223.151238
1223.151175
1223.151407
1223.151401
1223.151452
1223.151487
1223.15138
1223.156098
1223.156156
1223.156202
1223.156283
1223.156426
1223.156394
1223.156217
1223.156255
1223.156265
1223.156324
1223.156604
1223.156549
1223.156518
1223.156654
1223.156587
1223.146168
1223.146045
1223.146174
1223.14606
1223.146097
1223.146191
1223.146014
1223.145996
1223.145956
1223.146086
1223.146004
1223.145895
1223.145993
1223.145949
1223.146027
1223.152093
1223.151904
1223.151993
1223.151931
1223.151978
1223.151949
1223.151849
1223.151718
1223.151687
1223.151511
1223.151553
1223.151715
1223.151579
1223.151526
1223.15536
1223.155406
1223.155422
1223.155333
1223.15516
1223.155139
1223.155109
1223.154844
1223.154942
1223.154775
1223.154754
1223.154654
1223.154591
1223.154779
1223.146762
1223.146778
1223.146931
1223.146957
1223.146971
1223.147025
1223.14705
1223.147148
1223.147177
1223.147178
1223.147248
1223.147272
1223.147196
1223.147103
1223.151156
1223.151207
1223.151123
1223.150984
1223.150936
1223.150944
1223.150978
1223.150967
1223.151022
1223.15107
1223.151086
1223.151064
1223.151148
1223.151048
1223.151081
1223.158637
1223.158403
1223.158638
1223.158592
1223.158576
1223.158365
1223.158351
1223.158394
1223.158321
1223.158137
1223.158259
1223.158314
1223.158265
1223.158411
1223.156829
1223.147045
1223.147295
1223.147436
1223.147299
1223.147376
1223.147549
1223.14759
1223.147384
1223.147399
1223.147258
1223.147384
1223.147206
1223.147147
1223.146936
1223.147027
1223.151558
1223.151638
1223.151438
1223.151534
1223.151487
1223.151342
1223.151365
1223.151309
1223.151337
1223.151372
1223.151409
1223.15146
1223.15157
1223.151609
1223.151926
1223.14352
1223.143668
1223.143529
1223.143572
1223.143701
1223.143686
1223.14378
1223.143883
1223.143833
1223.143917
1223.144048
1223.143896
1223.143817
1223.14385
1223.143982
1223.147993
1223.147976
1223.148033
1223.147903
1223.147837
1223.148003
1223.148016
1223.147981
1223.148026
1223.148002
1223.148049
1223.148035
1223.14816
1223.148071
1223.147929
1223.149338
1223.149481
1223.149527
1223.149626
1223.149518
1223.149376
1223.149508
1223.149684
1223.14958
1223.149567
1223.149593
1223.149523
1223.149497
1223.149488
1223.145967
1223.146017
1223.146219
1223.14618
1223.14609
1223.146075
1223.146083
1223.146015
1223.146051
1223.146034
1223.146229
1223.146187
1223.146158
1223.146219
1223.149858
1223.149906
1223.149884
1223.150013
1223.150028
1223.149934
1223.150187
1223.150364
1223.150268
1223.150359
1223.15021
1223.150004
1223.15002
1223.150154
1223.153338
1223.153494
1223.153419
1223.153518
1223.153668
1223.153707
1223.153788
1223.153774
1223.153727
1223.153637
1223.153766
1223.153757
1223.153619
1223.153727
1223.151472
1223.151337
1223.151316
1223.1513
1223.151395
1223.151535
1223.151629
1223.151671
1223.1518
1223.151616
1223.151634
1223.151649
1223.151808
1223.152154
1219.269273
1223.148324
1223.148359
1223.148079
1223.148212
1223.148131
1223.148066
1223.148025
1223.147923
1223.148094
1223.148138
1223.148013
1223.148097
1223.14832
1223.148443
1223.146723
1223.153166
1223.153229
1223.153269
1223.153273
1223.153338
1223.153463
1223.153498
1223.153476
1223.153413
1223.153616
1223.153854
1223.153849
1223.153839
1223.153657
1223.153695
1223.152552
1223.152533
1223.152518
1223.152742
1223.152716
1223.152663
1223.152667
1223.152596
1223.152613
1223.152723
1223.152504
1223.152542
1223.152344
1223.152515
1223.152392
1223.155215
1223.155116
1223.155152
1223.155029
1223.154991
1223.155031
1223.154868
1223.154924
1223.154998
1223.155129
1223.155081
1223.155077
1223.155231
1223.155159
1223.155016
1223.150245
1223.150162
1223.150059
1223.149988
1223.149802
1223.14991
1223.149809
1223.149733
1223.149631
1223.149694
1223.15006
1223.150147
1223.150125
1223.150049
1223.148571
1223.148635
1223.148634
1223.148765
1223.148793
1223.148774
1223.148834
1223.148787
1223.148933
1223.148836
1223.148762
1223.148498
1223.148259
1223.148298
1223.152612
1223.152373
1223.152367
1223.152398
1223.15223
1223.152114
1223.152132
1223.152201
1223.152157
1223.152189
1223.152162
1223.152283
1223.152506
1223.15232
1223.143831
1223.143902
1223.143894
1223.144046
1223.144103
1223.144039
1223.144061
1223.143931
1223.143952
1223.143943
1223.144021
1223.143945
1223.144109
1223.144041
1223.153329
1223.153292
1223.153181
1223.153208
1223.15297
1223.153027
1223.153023
1223.152957
1223.152996
1223.153148
1223.153169
1223.153302
1223.153184
1223.153415
1223.15131
1223.151382
1223.151426
1223.151191
1223.151363
1223.151433
1223.151378
1223.151309
1223.151237
1223.151398
1223.151435
1223.151505
1223.151415
1223.151494
1223.146321
1223.146221
1223.146055
1223.14611
1223.146083
1223.146056
1223.146133
1223.146041
1223.146127
1223.146245
1223.146271
1223.146216
1223.14639
1223.146477
1223.146326
1223.153495
1223.153525
1223.153566
1223.153483
1223.153603
1223.153281
1223.153217
1223.153209
1223.15315
1223.15327
1223.153272
1223.153411
1223.153276
1223.153185
1223.153261
1223.152538
1223.1526
1223.152585
1223.152513
1223.152551
1223.152407
1223.152474
1223.152579
1223.152611
1223.152597
1223.152681
1223.152682
1223.152602
1223.152588
1223.152626
1223.151141
1223.151028
1223.151178
1223.151123
1223.151133
1223.151116
1223.151212
1223.151177
1223.151172
1223.151033
1223.151048
1223.150964
1223.150975
1223.151083
1223.153626
1223.153727
1223.153906
1223.153862
1223.153768
1223.153704
1223.153592
1223.153481
1223.15342
1223.153343
1223.153469
1223.15345
1223.1535
1223.153544
1223.149414
1223.149487
1223.149541
1223.149548
1223.149711
1223.149715
1223.14977
1223.149811
1223.149859
1223.149892
1223.14991
1223.149953
1223.149983
1223.149835
1223.154867
1223.154939
1223.154783
1223.155056
1223.154942
1223.154952
1223.154964
1223.154843
1223.154797
1223.154735
1223.154908
1223.154723
1223.154715
1223.154573
1223.14569
1223.145862
1223.145776
1223.145839
1223.145872
1223.146101
1223.14609
1223.146019
1223.146031
1223.14586
1223.145954
1223.145852
1223.145871
1223.145787
1223.150328
1223.150313
1223.150339
1223.150298
1223.150377
1223.150208
1223.150113
1223.149953
1223.150139
1223.150089
1223.150006
1223.149867
1223.149943
1223.149886
1223.153675
1223.153465
1223.153425
1223.153286
1223.15317
1223.153127
1223.153156
1223.153038
1223.15306
1223.15306
1223.153123
1223.153104
1223.153048
1223.153028
1223.147587
1223.147652
1223.147823
1223.147825
1223.147857
1223.147799
1223.14756
1223.147517
1223.147349
1223.147295
1223.147275
1223.147331
1223.147092
1223.14708
1223.146998
1223.146535
1223.14663
1223.146635
1223.146611
1223.146754
1223.146759
1223.146914
1223.147001
1223.146989
1223.146949
1223.146996
1223.146966
1223.146899
1223.146933
1223.146937
1223.149658
1223.149529
1223.149486
1223.14953
1223.149685
1223.149572
1223.149461
1223.149537
1223.14959
1223.149455
1223.149443
1223.14947
1223.149427
1223.149509
1223.145811
1223.145754
1223.145811
1223.145703
1223.14584
1223.145789
1223.145778
1223.145816
1223.145581
1223.1456
1223.145598
1223.145639
1223.145727
1223.145789
1223.148903
1223.148974
1223.149084
1223.14921
1223.149255
1223.149199
1223.149129
1223.14909
1223.149167
1223.14931
1223.149373
1223.149462
1223.149435
1223.149313
1223.150458
1223.150303
1223.150452
1223.150459
1223.150339
1223.150437
1223.150585
1223.150589
1223.150586
1223.150552
1223.150587
1223.1507
1223.150802
1223.150716
1223.152193
1223.152071
1223.152232
1223.152099
1223.152107
1223.151982
1223.152056
1223.152133
1223.15195
1223.151731
1223.151796
1223.151833
1223.151862
1223.151939
1223.145228
1223.145282
1223.14541
1223.145254
1223.145163
1223.145044
1223.145051
1223.145048
1223.144868
1223.144923
1223.145019
1223.144807
1223.144819
1223.144562
1223.148489
1223.148584
1223.148793
1223.148843
1223.14907
1223.149118
1223.148812
1223.149062
1223.149123
1223.14906
1223.149134
1223.149266
1223.14916
1223.149117
1223.148526
1223.148507
1223.148353
1223.14819
1223.148189
1223.14814
1223.148193
1223.147968
1223.147962
1223.147882
1223.147922
1223.148092
1223.14796
1223.147952
1223.1504
1223.150359
1223.150434
1223.150385
1223.150475
1223.150402
1223.150399
1223.150389
1223.15045
1223.150365
1223.150483
1223.150431
1223.150467
1223.150516
1223.150501
1223.149708
1223.149729
1223.149774
1223.149762
1223.149757
1223.149778
1223.149851
1223.149931
1223.149852
1223.149802
1223.149768
1223.149759
1223.149847
1223.149841
1223.148506
1223.14857
1223.148428
1223.148462
1223.148514
1223.148441
1223.148422
1223.148368
1223.148429
1223.148471
1223.148431
1223.14836
1223.148391
1223.148397
1223.152144
1223.152059
1223.15209
1223.152046
1223.15195
1223.152174
1223.152216
1223.152122
1223.152321
1223.152274
1223.152147
1223.152068
1223.151933
1223.15185
1223.139614
1223.139685
1223.139619
1223.13974
1223.139683
1223.139711
1223.139614
1223.139667
1223.139714
1223.139585
1223.139616
1223.139507
1223.139465
1223.139563
1223.146825
1223.146934
1223.146842
1223.146862
1223.146673
1223.146691
1223.146711
1223.146725
1223.146733
1223.146732
1223.146728
1223.146755
1223.146744
1223.146754
1223.150568
1223.150676
1223.150593
1223.150765
1223.150751
1223.150884
1223.150931
1223.150933
1223.151138
1223.151151
1223.151134
1223.151149
1223.151118
1223.151122
1223.150516
1223.150584
1223.150645
1223.150665
1223.150654
1223.15045
1223.150375
1223.150382
1223.150278
1223.150293
1223.15043
1223.150392
1223.150441
1223.150394
1223.148108
1223.148328
1223.148483
1223.148529
1223.148483
1223.148506
1223.148676
1223.148634
1223.148738
1223.148748
1223.148722
1223.148695
1223.148815
1223.148936
1223.148475
1223.148356
1223.148321
1223.148297
1223.148347
1223.148419
1223.148472
1223.148494
1223.148507
1223.148461
1223.14861
1223.148426
1223.148602
1223.148584
)
;

boundaryField
{
    top
    {
        type            zeroGradient;
    }
    bottom
    {
        type            zeroGradient;
    }
    side-walls
    {
        type            zeroGradient;
    }
    inlet
    {
        type            zeroGradient;
    }
    outlet
    {
        type            zeroGradient;
    }
    procBoundary0to1
    {
        type            processor;
        value           nonuniform List<scalar> 
97
(
1223.150881
1223.147069
1223.146731
1223.149365
1223.148984
1223.151699
1223.152153
1223.147802
1223.150694
1223.151812
1223.147069
1223.147069
1223.152913
1223.143111
1223.154843
1223.149707
1223.152161
1223.146923
1223.156932
1223.14414
1223.157717
1223.151416
1223.143111
1223.143111
1223.148091
1223.14707
1223.151424
1223.146317
1223.149457
1223.151338
1223.15667
1223.146012
1223.151693
1223.154571
1223.14707
1223.14707
1223.15114
1223.152106
1223.156832
1223.147148
1223.152015
1223.143989
1223.147967
1223.149558
1223.14615
1223.149978
1223.152106
1223.152106
1219.270182
1223.151923
1223.146849
1223.151455
1223.153759
1223.152196
1223.155027
1223.15
1223.14829
1223.15235
1223.144136
1223.151923
1223.151455
1223.151455
1223.14624
1223.153082
1223.153145
1223.152582
1223.150957
1223.153619
1223.149916
1223.154629
1223.145991
1223.150075
1223.153082
1223.153082
1223.147048
1223.147918
1223.146844
1223.149561
1223.145593
1223.14933
1223.150551
1223.151788
1223.144727
1223.149363
1223.147918
1223.147918
1223.150624
1223.148579
1223.149803
1223.148456
1223.15188
1223.139556
1223.146789
1223.151285
1223.150389
1223.149039
1223.148579
)
;
    }
}


// ************************************************************************* //
