/*--------------------------------*- C++ -*----------------------------------*\
| =========                 |                                                 |
| \\      /  F ield         | OpenFOAM: The Open Source CFD Toolbox           |
|  \\    /   O peration     | Version:  4.x                                   |
|   \\  /    A nd           | Web:      www.OpenFOAM.org                      |
|    \\/     M anipulation  |                                                 |
\*---------------------------------------------------------------------------*/
FoamFile
{
    version     2.0;
    format      ascii;
    class       volVectorField;
    location    "8000";
    object      U;
}
// * * * * * * * * * * * * * * * * * * * * * * * * * * * * * * * * * * * * * //

dimensions      [0 1 -1 0 0 0 0];

internalField   nonuniform List<vector> 
1175
(
(0.01099999877 -2.331132642e-09 -1.915893323e-09)
(0.01099999967 -9.184663033e-10 1.688952024e-10)
(0.01099999849 -1.902156843e-09 -1.642045494e-09)
(0.01099999984 -2.690647582e-09 1.012954817e-09)
(0.01099999901 -5.335714505e-10 1.256884919e-09)
(0.0110000011 -6.646434091e-10 3.978955153e-10)
(0.01100000231 3.926433295e-10 1.120073873e-09)
(0.01100000593 -6.177773858e-10 -8.975345627e-10)
(0.01100000936 -1.190016072e-09 -4.376371171e-09)
(0.01100001427 -3.439830677e-10 -5.745066779e-09)
(0.0110000233 -1.95988762e-09 -3.210823087e-09)
(0.01100003299 -3.602364561e-09 -2.774591907e-09)
(0.01100005918 -6.826567858e-09 -5.749156533e-09)
(0.01100007074 -4.111573903e-09 -2.735701232e-09)
(0.01100011335 -1.242983087e-08 -1.14165053e-08)
(0.01100000106 -3.589306534e-10 9.188164891e-10)
(0.0109999983 -2.011841399e-10 -1.326800429e-09)
(0.01100000092 -7.148836764e-10 3.297526626e-10)
(0.01099999981 -2.405911341e-09 9.592693504e-11)
(0.01099999881 -5.578548486e-11 4.05176163e-11)
(0.01100000066 -4.252588694e-10 -3.697989751e-10)
(0.011000002 -8.882563058e-10 -3.415250431e-11)
(0.01100000253 -2.686358557e-09 -2.061842693e-09)
(0.01100000816 -2.656990036e-09 -1.25555818e-09)
(0.01100001003 -6.705762492e-09 -2.801289813e-09)
(0.0110000224 -1.054020542e-08 -4.092009669e-09)
(0.01100003039 -1.328575782e-08 -4.892556381e-09)
(0.01100005717 -2.315999954e-08 -6.062697678e-09)
(0.01100006454 -2.228715804e-08 -4.676885909e-09)
(0.01100011225 -5.212623074e-08 -1.886653093e-08)
(0.0109999997 -5.939469275e-10 -8.115736912e-10)
(0.01100000105 -2.350658688e-09 -2.820273141e-10)
(0.01099999818 -2.026080191e-10 6.96046877e-10)
(0.01099999885 -1.590114979e-09 1.527480407e-09)
(0.01099999945 -1.839025469e-09 9.186153378e-10)
(0.01099999976 -1.302890705e-09 -2.228380049e-09)
(0.01100000125 -8.886509022e-10 -4.719267596e-11)
(0.01099999967 -1.625485471e-09 -2.557964149e-09)
(0.01100000388 -1.755154472e-09 -3.907849822e-09)
(0.01100000842 -5.329596219e-09 -3.127636749e-09)
(0.01100001611 -8.962264538e-09 -4.857761771e-09)
(0.01100001781 -1.34568717e-08 -8.617159888e-09)
(0.01100004586 -2.199904874e-08 -9.28116032e-09)
(0.01100004163 -2.023436408e-08 -1.165510872e-08)
(0.01100011103 -6.048448801e-08 -4.298592692e-08)
(0.01100000057 -2.593921917e-09 5.226503889e-10)
(0.01099999963 -1.303856045e-09 2.739824205e-09)
(0.01100000135 -5.583773756e-10 4.817457802e-10)
(0.01099999984 -9.173513086e-10 -1.84299972e-09)
(0.01099999918 -4.367224953e-10 -1.823126548e-09)
(0.01099999992 -3.777681876e-11 -7.883661128e-10)
(0.01100000391 -9.550138834e-10 -9.600010909e-10)
(0.01100000188 -2.244037121e-09 -3.501339771e-09)
(0.01100000367 -2.561300614e-09 -2.805420759e-09)
(0.01100000685 -5.05585334e-09 -3.693913185e-09)
(0.01100001251 -8.444647995e-09 -2.154075699e-09)
(0.01100001298 -1.915107917e-08 -7.821366461e-09)
(0.0110000457 -3.275552761e-08 -9.478339045e-09)
(0.01100002685 -4.295922019e-08 -6.958029372e-09)
(0.01100011817 -1.127796371e-07 -5.244141885e-08)
(0.0110000016 -1.208619844e-09 3.935799717e-10)
(0.01100000132 4.338108304e-11 -9.794835044e-10)
(0.01100000142 -2.019128487e-09 2.341582847e-10)
(0.0109999993 -5.964645491e-10 1.180895179e-09)
(0.01100000182 -6.272233439e-10 -1.696298842e-09)
(0.01099999749 1.047524417e-09 -3.281535015e-09)
(0.01100000103 -1.432486194e-09 -1.600532011e-09)
(0.011000001 -4.758085511e-10 -5.271082907e-09)
(0.01100000085 1.385913522e-09 -2.473087116e-09)
(0.01099999908 2.039776265e-09 -4.827746278e-09)
(0.01099999925 1.13633157e-09 -7.455274657e-09)
(0.01099998916 6.847113663e-10 -1.86159117e-08)
(0.01100001692 -1.722335913e-09 -2.283577087e-08)
(0.01099996162 1.24476142e-10 -4.47303553e-08)
(0.01100013392 3.119343808e-10 -1.523640562e-07)
(0.01100000076 -3.542201134e-10 3.864844945e-10)
(0.01100000206 -1.273785129e-09 -7.320293889e-10)
(0.01099999814 -1.00281571e-09 2.393565206e-10)
(0.01100000034 1.132789151e-09 -6.593012937e-10)
(0.01100000073 -8.176771391e-10 8.521370086e-10)
(0.01100000198 -7.037787242e-10 -1.686341553e-10)
(0.01100000137 7.859563305e-10 1.539020773e-09)
(0.01100000283 1.656986613e-09 -3.001231601e-10)
(0.01100000632 3.333506021e-09 -1.347235751e-09)
(0.01100000328 5.056959324e-09 -2.565481764e-09)
(0.01100000974 9.960836662e-09 -3.323094197e-09)
(0.01100001303 1.872148738e-08 -6.430370461e-09)
(0.01100004345 3.449626485e-08 -5.52961713e-09)
(0.01100002503 4.328837098e-08 -5.360032651e-09)
(0.01100011657 1.090534932e-07 -5.156889746e-08)
(0.01099999965 -1.816041764e-09 1.178231175e-10)
(0.01100000342 -1.315445478e-09 2.648153807e-10)
(0.01099999914 -9.896239554e-10 5.731475475e-10)
(0.01100000034 -1.273797195e-09 7.657103007e-11)
(0.01100000217 5.514566857e-10 -4.421007838e-10)
(0.01100000001 1.441972648e-09 1.4833629e-09)
(0.01100000151 2.101730129e-09 -1.011343992e-09)
(0.01100000495 1.963626658e-09 -1.538566032e-09)
(0.01100000717 2.362100477e-09 -5.639120614e-10)
(0.01100000787 7.052448256e-09 -1.648301796e-09)
(0.01100001376 8.693013486e-09 -3.175871338e-09)
(0.01100001366 1.275059049e-08 -7.651484538e-09)
(0.01100004217 2.137180561e-08 -1.017753499e-08)
(0.01100004019 1.986914557e-08 -1.039841817e-08)
(0.01100011221 6.196126301e-08 -3.988002321e-08)
(0.01100000082 -5.641205342e-11 -9.825505798e-10)
(0.01100000134 -1.257733934e-10 3.76654399e-10)
(0.01099999925 2.557107319e-11 -9.13292666e-11)
(0.01100000088 3.562246447e-10 -1.048887173e-09)
(0.01100000258 1.392040803e-09 4.26592175e-10)
(0.01100000068 7.937581976e-10 -1.451558936e-09)
(0.01100000308 1.075869397e-09 2.262229583e-10)
(0.01100000526 2.62434273e-09 -7.299290259e-10)
(0.01100000909 3.145881389e-09 -2.648269813e-10)
(0.01100001093 7.234110867e-09 -2.265149119e-09)
(0.01100002256 7.972676453e-09 -3.728998701e-09)
(0.01100002691 1.382169826e-08 -3.556317324e-09)
(0.01100005409 2.325012838e-08 -8.486565976e-09)
(0.01100006319 2.145100187e-08 -4.711451974e-09)
(0.01100010835 5.132053294e-08 -1.948031002e-08)
(0.011000001 -6.113983756e-10 3.932524034e-10)
(0.01099999987 -4.127016301e-11 -2.134930173e-09)
(0.01100000121 -6.157907824e-10 -3.184096373e-09)
(0.01100000257 -3.757597856e-10 7.423699197e-10)
(0.01100000225 -2.642641714e-10 2.63738723e-09)
(0.01100000292 1.001006347e-09 -7.995148176e-10)
(0.01100000404 1.458387168e-09 1.0272116e-09)
(0.0110000056 2.713516596e-09 -8.541503757e-10)
(0.01100000886 2.824381756e-09 -2.14368115e-09)
(0.011000013 3.263820168e-09 3.637429203e-11)
(0.01100002159 5.237054642e-09 -2.267009348e-09)
(0.01100003122 3.983447102e-09 -2.144174416e-09)
(0.01100005594 6.398553125e-09 -7.584370749e-09)
(0.01100007006 4.491905655e-09 -5.035553771e-09)
(0.01100010939 1.323580582e-08 -1.252264761e-08)
(0.01100000121 -3.724274515e-11 -7.695570653e-10)
(0.01100000041 3.409635449e-10 7.607445203e-12)
(0.0109999996 7.883797238e-10 -5.782382125e-11)
(0.01100000006 -1.250065689e-09 -5.129524066e-10)
(0.01099999992 -7.281048466e-10 -4.280101949e-10)
(0.01100000282 -7.562905977e-11 -6.824841936e-10)
(0.01100000256 1.172315019e-10 -6.571948591e-10)
(0.01100000421 -8.931347009e-10 -3.837718427e-09)
(0.01100000799 -1.964879434e-09 -2.203694208e-09)
(0.01100001343 -1.70575753e-09 -5.854334492e-09)
(0.0110000236 -4.660506541e-09 -7.985053859e-09)
(0.01100002732 -5.04806e-09 -1.303348549e-08)
(0.01100005733 -7.959800657e-09 -2.287400061e-08)
(0.01100006095 -5.164325951e-09 -2.196126252e-08)
(0.01100000094 -6.677628534e-10 -1.044073253e-10)
(0.01099999982 -5.273126919e-10 -2.562884646e-10)
(0.01099999931 -1.202442122e-09 2.747267625e-10)
(0.01099999861 -1.107428981e-09 -5.471545682e-10)
(0.01100000127 -1.663833738e-09 -2.881242567e-10)
(0.01100000098 -9.566295244e-13 -3.661487238e-10)
(0.01099999959 -8.890985345e-10 -2.60380558e-10)
(0.0110000033 -2.408486551e-09 -3.554542387e-09)
(0.01100000619 -2.414188771e-09 -2.483140827e-09)
(0.0110000079 -5.486516085e-09 -4.953748518e-09)
(0.01100002177 -9.394179385e-09 -9.550687743e-09)
(0.01100002507 -1.639297349e-08 -1.668485996e-08)
(0.01100005221 -2.525037752e-08 -2.639596724e-08)
(0.01100005212 -2.826057723e-08 -2.845887175e-08)
(0.01100011613 -7.971821064e-08 -7.999598653e-08)
(0.01100000223 -3.765951676e-10 9.141904836e-10)
(0.01099999995 -7.515642157e-10 -4.355547583e-10)
(0.01100000024 -1.817628535e-09 7.902315263e-11)
(0.01100000006 -2.354294823e-09 -5.506910885e-10)
(0.01099999902 -1.002104024e-09 -2.627873616e-10)
(0.01100000012 -1.951311428e-09 -6.178818919e-10)
(0.01100000015 -2.869534625e-09 -8.206597979e-10)
(0.01100000019 -3.3721555e-09 -3.272431756e-09)
(0.01100000299 -2.911804559e-09 -3.462652249e-09)
(0.01100000489 -6.525994805e-09 -8.217460692e-09)
(0.01100001033 -7.43859648e-09 -9.348148162e-09)
(0.01100000886 -1.593389964e-08 -2.521015824e-08)
(0.01100003753 -2.328946443e-08 -4.188202503e-08)
(0.01100001258 -2.084700915e-08 -5.520134354e-08)
(0.01100011736 -9.717173931e-08 -1.836660656e-07)
(0.01099999968 1.423836398e-10 6.607122637e-10)
(0.01099999901 -6.50373396e-10 5.31535753e-10)
(0.01099999916 -4.422421986e-10 -9.454274853e-10)
(0.01100000035 -1.846044559e-10 9.012004797e-11)
(0.01100000004 -2.165586136e-09 -4.96025408e-10)
(0.01099999861 -1.209212748e-09 -2.238138591e-10)
(0.01100000043 -5.989352715e-10 -1.660443771e-09)
(0.01099999928 -1.780635458e-09 -5.277362013e-09)
(0.01100000235 -4.154478122e-09 -3.545996209e-09)
(0.01100000684 -7.891172345e-09 -1.018447224e-08)
(0.01100000923 -1.102395186e-08 -9.678351757e-09)
(0.0110000101 -2.959936516e-08 -2.968210855e-08)
(0.01100004089 -4.702013987e-08 -3.674652614e-08)
(0.01099999077 -7.649364739e-08 -6.516096813e-08)
(0.0110001248 -2.233777201e-07 -2.748377939e-07)
(0.01099999968 -1.361250596e-09 -2.350177463e-10)
(0.01099999821 -1.669450337e-09 2.519809895e-10)
(0.01100000151 -7.642509207e-10 -6.357639918e-10)
(0.01099999905 -1.791520881e-10 -3.648601377e-10)
(0.01099999829 9.456715303e-10 -6.22260717e-10)
(0.01100000052 3.334522698e-10 -2.704824848e-09)
(0.01100000021 -2.851716956e-10 -1.953663606e-09)
(0.01099999803 2.632976117e-10 -2.567407629e-09)
(0.0109999968 2.512627576e-09 -4.707739204e-09)
(0.01099999432 1.476639853e-09 -1.440601199e-08)
(0.01099998849 -4.492656061e-10 -1.681878535e-08)
(0.010999975 -3.129056035e-10 -6.456827577e-08)
(0.01099997514 -5.11758032e-10 -9.029051553e-08)
(0.01099985296 4.631792091e-10 -2.32267621e-07)
(0.01100015834 -5.105692005e-10 -7.298270774e-07)
(0.01099999989 -1.655391145e-09 6.74545118e-10)
(0.01100000292 -1.726808586e-09 -3.808608184e-10)
(0.01100000038 -8.441318962e-10 -8.128223298e-10)
(0.01099999974 -1.726693055e-10 -3.622131395e-10)
(0.01099999961 1.584318625e-09 1.510079765e-10)
(0.01099999927 1.479038231e-09 -8.050832938e-10)
(0.01099999947 7.450388463e-10 -4.078160702e-10)
(0.01100000117 2.767998795e-09 -2.801903962e-09)
(0.01100000231 4.063971545e-09 -3.095486239e-09)
(0.01100000321 7.629602042e-09 -1.008180522e-08)
(0.01100000827 1.172991192e-08 -1.121710705e-08)
(0.01100000834 2.938794415e-08 -3.087383487e-08)
(0.01100004027 4.624886641e-08 -3.906062501e-08)
(0.01099998875 7.733822745e-08 -6.592569893e-08)
(0.01100012026 2.223354911e-07 -2.713627486e-07)
(0.01100000074 -3.082512197e-09 3.673391155e-10)
(0.01100000136 -1.196762688e-09 2.14887915e-10)
(0.0110000015 -2.785698089e-09 -3.461450524e-10)
(0.01100000105 3.386942239e-10 -4.404772241e-10)
(0.01100000164 1.052719999e-09 -2.96121946e-11)
(0.01099999913 2.727543796e-10 -1.078069947e-09)
(0.01100000036 2.668803173e-09 -1.866893506e-09)
(0.0110000028 4.09752886e-09 -2.384505022e-09)
(0.01100000531 3.637148543e-09 -3.736210808e-09)
(0.01100000332 6.967064669e-09 -7.654320629e-09)
(0.01100001046 8.30602382e-09 -1.155505658e-08)
(0.01100000811 1.599701931e-08 -2.401194582e-08)
(0.0110000386 2.329529632e-08 -4.070717732e-08)
(0.0110000087 2.022077273e-08 -5.701022039e-08)
(0.01100011771 9.656293703e-08 -1.823366744e-07)
(0.01100000106 2.493934519e-10 4.341797147e-10)
(0.01100000286 5.992829264e-10 1.233994965e-09)
(0.01100000155 6.272114413e-10 5.641065417e-10)
(0.01100000208 -2.340106752e-10 -6.071891302e-10)
(0.01099999939 9.800055437e-10 -4.780781196e-12)
(0.01100000177 -4.40198747e-10 -1.542323079e-09)
(0.0110000036 -1.920823653e-10 -1.620824917e-09)
(0.0110000031 2.737277757e-09 -8.203919502e-10)
(0.0110000067 2.268659417e-09 -3.438658664e-09)
(0.01100001163 5.116347755e-09 -5.314832243e-09)
(0.01100001782 7.826023687e-09 -8.774877329e-09)
(0.01100002383 1.641263956e-08 -1.431633324e-08)
(0.01100005308 2.609809586e-08 -2.656810428e-08)
(0.01100005253 2.730927598e-08 -2.864761288e-08)
(0.01100011504 8.154383428e-08 -7.976794892e-08)
(0.01099999981 1.03117974e-09 1.676660213e-10)
(0.0110000015 4.082919165e-10 1.699175508e-09)
(0.01100000249 1.004201963e-09 -5.53027682e-10)
(0.01100000168 8.502026347e-10 2.140271131e-10)
(0.01100000037 -1.944513066e-09 -5.69786863e-10)
(0.01100000111 1.049650604e-09 -1.529897485e-09)
(0.01100000464 -4.538940463e-11 -1.674435625e-09)
(0.01100000313 3.843992778e-10 -2.357079636e-09)
(0.01100000818 4.713265342e-10 -3.37852031e-09)
(0.01100001121 2.031125232e-09 -5.964350233e-09)
(0.01100002237 4.64811912e-09 -6.92275803e-09)
(0.01100002723 4.753723049e-09 -1.017277679e-08)
(0.01100005459 6.867892159e-09 -2.200445111e-08)
(0.01100006414 4.204827949e-09 -2.314772582e-08)
(0.0110001112 1.719033486e-08 -5.257173472e-08)
(0.01100000045 -5.737239572e-10 -1.172135455e-09)
(0.01099999933 9.496259764e-11 -2.365591548e-09)
(0.01099999781 -1.029291508e-09 -3.706595591e-10)
(0.01099999897 -2.259310692e-09 -8.880310445e-10)
(0.01099999875 -2.480033523e-09 -1.577679848e-09)
(0.01100000316 2.599697928e-09 -1.082163109e-09)
(0.01099999911 -2.400967346e-09 -1.662202544e-09)
(0.01100000163 -3.520918675e-10 -1.67617936e-09)
(0.01100000703 1.184557276e-09 -3.954738656e-09)
(0.0110000087 -4.203124378e-10 -5.084284211e-09)
(0.01100001368 -2.776253979e-09 -9.942346492e-09)
(0.01100001617 -4.942437206e-09 -1.642442226e-08)
(0.01100004423 -1.219859142e-08 -2.332568068e-08)
(0.01100004046 -9.263700407e-09 -2.169738237e-08)
(0.01099999866 2.999189497e-10 -1.27474267e-09)
(0.01099999893 -3.434985044e-10 -1.604819232e-09)
(0.01099999835 -1.257784754e-09 -3.502537092e-09)
(0.01099999814 -1.273269459e-09 -2.154125481e-09)
(0.01100000077 -4.645178277e-10 -1.847906899e-09)
(0.01099999832 -1.532237018e-09 -2.28782787e-09)
(0.01099999835 -1.412288628e-09 -2.429836574e-09)
(0.01099999993 -3.306647226e-09 -2.455977237e-09)
(0.01100000214 -3.091158554e-09 -4.372002377e-09)
(0.01100000433 -7.41171442e-09 -5.689621714e-09)
(0.01100000893 -9.239459948e-09 -7.645479691e-09)
(0.01100000775 -2.490293377e-08 -1.654393293e-08)
(0.0110000358 -4.20238014e-08 -2.39340387e-08)
(0.01100001222 -5.614970133e-08 -2.052963664e-08)
(0.01099999938 1.822344159e-11 -3.601558578e-10)
(0.01099999961 -1.394944497e-09 3.468839135e-11)
(0.01099999554 -8.421209769e-10 -7.909900044e-10)
(0.01099999899 -1.945889164e-09 3.893528873e-11)
(0.01099999997 -1.152596796e-09 -1.187820745e-09)
(0.01099999834 -2.095889328e-09 -2.818582536e-09)
(0.01099999928 -2.215281086e-09 -2.406455328e-09)
(0.01099999919 -2.423782649e-09 -4.373551651e-09)
(0.01099999789 -4.43177365e-09 -4.631826358e-09)
(0.01099999792 -1.108391281e-08 -9.485310866e-09)
(0.0109999953 -1.017735656e-08 -1.107725218e-08)
(0.01099998055 -2.836426116e-08 -3.184837236e-08)
(0.01099999969 -3.246056075e-08 -3.465495367e-08)
(0.01099991066 -5.795068586e-08 -5.726326908e-08)
(0.01100011132 -2.535096791e-07 -2.598491257e-07)
(0.01100000043 -1.99561118e-09 -3.40788885e-10)
(0.01100000043 -2.263365788e-09 -1.066635746e-09)
(0.01099999808 -8.595661005e-10 -5.24291241e-10)
(0.0109999966 -3.09738332e-11 -1.600438939e-09)
(0.01099999943 4.293126036e-10 -3.638342217e-10)
(0.01099999963 3.984279926e-10 -1.815555357e-09)
(0.01099999912 -1.017663364e-09 -1.024687151e-09)
(0.01099999807 -1.731637786e-09 -2.006634136e-09)
(0.0109999939 -3.215613283e-09 -2.906585866e-09)
(0.01099999981 -1.183423815e-08 -9.770558737e-09)
(0.01099998742 -1.468919515e-08 -1.638801869e-09)
(0.01099999161 -5.896727306e-08 -3.273431637e-08)
(0.01099997672 -8.299171616e-08 1.205534954e-08)
(0.01099985843 -2.218460053e-07 -3.612932364e-08)
(0.01100004819 -6.680834792e-07 -3.414643429e-07)
(0.01100000039 -8.494692231e-10 -7.281230926e-10)
(0.01099999989 -1.505680451e-09 5.98800268e-10)
(0.01099999984 -1.882266556e-09 -4.491130526e-10)
(0.01100000127 -2.785662614e-10 -9.179294173e-10)
(0.01099999993 -8.014212858e-10 -4.765507364e-10)
(0.01099999907 -5.27560686e-10 -1.587629309e-09)
(0.01099999772 1.027805569e-09 -5.867789173e-10)
(0.01099999628 1.692738354e-09 -4.480824802e-09)
(0.01099998498 1.595184509e-09 -5.645022325e-09)
(0.01099998521 1.044678667e-09 -2.171071731e-08)
(0.01099994253 -1.886825543e-10 -1.338144064e-08)
(0.0109999216 9.145862515e-10 -9.35483014e-08)
(0.01099977786 -1.969173264e-09 -5.45779888e-08)
(0.01099946369 -5.099226906e-10 -4.208055661e-07)
(0.01099996592 9.473762843e-10 -1.365030635e-06)
(0.01099999899 -1.159502591e-10 1.290864396e-09)
(0.01099999996 -1.285430456e-09 -6.606759887e-10)
(0.01100000061 -6.807748158e-10 -1.178214936e-09)
(0.01099999914 -1.433014541e-10 3.339183766e-11)
(0.0110000005 -3.103008398e-10 -9.188119778e-10)
(0.01099999903 1.851288064e-10 -2.178792389e-09)
(0.01099999987 5.692526791e-10 -2.373481977e-09)
(0.01099999844 2.294583363e-09 -3.164795407e-09)
(0.01099999561 4.775266017e-09 -3.620154673e-09)
(0.01099999483 1.276355533e-08 -1.190754653e-08)
(0.01099998713 1.466053133e-08 -1.910733158e-09)
(0.01099999089 5.860874642e-08 -3.224606812e-08)
(0.010999977 8.342337199e-08 1.154876569e-08)
(0.01099986205 2.200959581e-07 -3.640703046e-08)
(0.01100004678 6.67390583e-07 -3.401349477e-07)
(0.01100000023 -1.930073578e-09 1.274759337e-09)
(0.01100000065 -5.560623587e-10 3.724676741e-10)
(0.01099999992 -6.029763103e-10 1.271411236e-09)
(0.01099999894 7.098891717e-10 1.319216953e-09)
(0.01100000018 1.541346174e-09 -1.345021716e-10)
(0.0109999988 8.244416328e-10 -1.785545178e-09)
(0.01100000114 1.324921019e-09 -2.228073322e-09)
(0.01099999919 3.179164243e-09 -1.121356672e-09)
(0.01100000042 3.282827885e-09 -2.692509392e-09)
(0.01099999488 1.065992731e-08 -1.055798569e-08)
(0.01099999611 1.115498113e-08 -9.510349532e-09)
(0.01099998378 3.025916185e-08 -2.877073004e-08)
(0.01099999898 3.370721025e-08 -3.354295456e-08)
(0.01099991288 5.881089418e-08 -5.823867854e-08)
(0.01100011309 2.572844645e-07 -2.581508794e-07)
(0.01099999954 2.780517722e-11 2.699563735e-09)
(0.01100000042 3.898580564e-10 4.424726253e-11)
(0.01100000003 7.605449624e-11 8.219823578e-10)
(0.01100000084 -3.322421345e-10 -2.336791966e-10)
(0.01100000235 -1.29546599e-09 -5.206364928e-10)
(0.01100000182 -4.157875382e-10 -2.079790514e-09)
(0.01100000141 -1.760273465e-10 -2.508454095e-09)
(0.01100000208 3.429532015e-09 -3.96433917e-09)
(0.0110000027 3.923416333e-09 -4.635061148e-09)
(0.01100000407 8.564354226e-09 -7.831600533e-09)
(0.0110000113 1.20735467e-08 -6.993255394e-09)
(0.01100000886 2.599207509e-08 -1.550416458e-08)
(0.01100003733 4.320722722e-08 -2.207193551e-08)
(0.01100001022 5.550025112e-08 -2.087973888e-08)
(0.01100011715 1.826309497e-07 -9.660075465e-08)
(0.01100000144 -7.157396705e-10 1.558465018e-09)
(0.01100000131 1.368809686e-09 1.952327109e-09)
(0.01100000203 9.60742187e-10 1.052227898e-09)
(0.01100000021 7.108159886e-10 -5.764661366e-10)
(0.01099999925 -1.243488541e-09 -1.005083664e-09)
(0.01100000332 -2.425005018e-10 -1.696990896e-09)
(0.01100000209 -3.494288903e-12 -2.802017258e-09)
(0.01100000213 1.01370465e-09 -1.793746159e-09)
(0.01100000435 8.809694535e-10 -3.737996309e-09)
(0.01100000711 2.51927127e-09 -4.732856243e-09)
(0.01100001468 2.859427219e-09 -9.617319514e-09)
(0.01100001568 6.215145054e-09 -1.532546116e-08)
(0.01100004272 9.304080048e-09 -2.303082545e-08)
(0.01100003984 1.014741221e-08 -2.060165456e-08)
(0.01100011103 4.074363262e-08 -6.02428787e-08)
(0.01100000081 -1.981089367e-10 -1.493077387e-09)
(0.0110000004 -3.034795161e-09 -2.269112652e-09)
(0.01100000138 -2.41401589e-09 -2.936234201e-09)
(0.0109999988 -3.158833537e-10 -3.458510224e-09)
(0.01099999953 3.081882181e-10 -1.220894765e-09)
(0.01099999989 -9.819764645e-10 -1.380310002e-09)
(0.01100000019 -5.524066593e-10 -2.478116927e-09)
(0.01100000035 -5.213385659e-10 -2.350953442e-09)
(0.01100000345 -1.728169669e-09 -3.730551452e-09)
(0.01100000491 -3.410481929e-09 -5.009060017e-09)
(0.01100001135 -4.08868172e-09 -1.158045286e-08)
(0.01100001428 -6.019004715e-09 -1.991885718e-08)
(0.01100004396 -4.981826593e-09 -3.373249612e-08)
(0.01100002368 -4.938796891e-09 -4.443586767e-08)
(0.01099999922 1.293748729e-10 -6.047768225e-10)
(0.01099999948 -8.383544957e-10 -2.260889018e-09)
(0.01100000054 -1.201121522e-09 -8.887779506e-10)
(0.01100000035 -7.109412242e-10 -2.214785813e-09)
(0.01100000072 -1.432565015e-09 -1.144589305e-09)
(0.01099999852 -1.18764961e-09 -1.772303302e-09)
(0.0110000008 -2.047085391e-09 -1.773438633e-09)
(0.01099999837 -5.03020775e-09 -2.391029037e-09)
(0.01100000186 -3.211448675e-09 -2.502746652e-09)
(0.01100000264 -9.831258112e-09 -8.093984658e-09)
(0.01100000823 -1.001900231e-08 -1.418103935e-08)
(0.01100000903 -3.144774251e-08 -3.134149424e-08)
(0.01100003818 -3.806739255e-08 -4.792814045e-08)
(0.01099999103 -6.529484651e-08 -7.685322071e-08)
(0.01099999928 -9.241505087e-11 -1.244746953e-09)
(0.01099999901 -2.388325324e-10 -1.240956923e-09)
(0.01100000127 -4.513517052e-10 -1.741456993e-09)
(0.01099999946 1.305408353e-09 -5.638855767e-10)
(0.0109999995 5.597368295e-10 2.681455527e-10)
(0.01099999902 -1.242990572e-10 -9.86593284e-10)
(0.01099999659 2.207931946e-10 -1.581228689e-09)
(0.01100000016 -2.753074161e-09 -2.611242936e-09)
(0.01099999654 -2.244688393e-09 -4.222632767e-09)
(0.01099999769 -1.056060805e-08 -1.278701531e-08)
(0.01099998787 -1.091035609e-09 -1.655452115e-08)
(0.0109999907 -2.979395507e-08 -5.893030074e-08)
(0.01099997759 1.326617398e-08 -8.372118164e-08)
(0.01099986141 -3.46898631e-08 -2.231258354e-07)
(0.01100000041 -7.19418005e-10 1.434365818e-10)
(0.01099999955 3.95486104e-10 2.491937529e-10)
(0.01100000078 -3.37616891e-10 7.169247509e-10)
(0.01099999913 -4.09297135e-11 1.416885756e-09)
(0.01099999848 -7.263583441e-11 3.106115068e-10)
(0.01099999788 1.952360681e-10 -9.148543809e-10)
(0.01099999658 1.188688822e-10 -3.443876567e-10)
(0.01099999795 -2.114554394e-09 -3.015469027e-09)
(0.01099999187 -3.064584034e-09 -4.90037258e-09)
(0.01100000391 -1.70141605e-08 -1.704245008e-08)
(0.01099998193 -1.378508743e-08 -1.595197877e-08)
(0.01100004536 -9.287241174e-08 -9.359696142e-08)
(0.01099994528 -6.63399723e-08 -6.953947166e-08)
(0.01099997199 -4.403835149e-07 -4.404471471e-07)
(0.01099937288 -1.331366965e-06 -1.329896076e-06)
(0.01100000213 -3.880994843e-10 4.488603166e-10)
(0.01100000059 -1.69535823e-09 4.978906845e-10)
(0.01100000036 -9.130110781e-10 1.757303317e-09)
(0.01099999978 -3.037197889e-10 2.114515577e-10)
(0.01099999875 -1.324160866e-09 6.777974683e-10)
(0.01099999914 -6.746790106e-10 -2.156266398e-10)
(0.01099999302 -1.420416765e-09 -2.347115016e-10)
(0.0109999949 -2.586278804e-10 -4.953463504e-09)
(0.0109999786 2.354436811e-10 -6.42621298e-09)
(0.01099998601 -6.184512826e-10 -3.023144251e-08)
(0.01099990414 1.14559001e-09 -3.548308724e-08)
(0.01099995996 1.175128326e-09 -2.431082326e-07)
(0.0109994462 -1.465493436e-09 -2.815138182e-07)
(0.01099937655 -1.455809334e-09 -2.479580635e-06)
(0.01099735653 9.62111186e-10 -6.779836632e-06)
(0.01099999837 6.650657219e-10 -1.207245213e-10)
(0.01100000008 -1.736221817e-09 -1.025083326e-10)
(0.0110000034 1.042850345e-09 -4.320235199e-10)
(0.0109999993 -4.826334209e-10 -5.245422552e-10)
(0.01099999948 8.523035529e-10 3.014332588e-10)
(0.01099999768 8.552576547e-10 -1.49784566e-09)
(0.0109999996 7.508632784e-11 -1.776948453e-09)
(0.01099999727 3.694322996e-09 -3.671521821e-09)
(0.01099999301 5.117292808e-09 -3.108102759e-09)
(0.01100000292 1.748133152e-08 -1.737702755e-08)
(0.01099998168 1.442159908e-08 -1.424364525e-08)
(0.01100004304 9.390015158e-08 -9.233397316e-08)
(0.01099994384 6.709194396e-08 -6.709630925e-08)
(0.01099997305 4.400577144e-07 -4.416190015e-07)
(0.01099937215 1.330314524e-06 -1.333772886e-06)
(0.01100000002 -3.898358307e-10 1.009606354e-10)
(0.01100000186 1.329891771e-09 -1.096123683e-10)
(0.01099999878 1.246721032e-10 6.342178628e-10)
(0.01100000004 3.965717094e-10 -5.39129015e-10)
(0.01099999988 1.340321597e-09 -8.968440573e-10)
(0.01099999744 1.272296393e-09 -2.470663666e-09)
(0.01099999998 3.140301584e-10 -1.941963909e-09)
(0.01099999936 2.221423011e-09 -4.758384548e-09)
(0.01099999429 2.243657117e-09 -4.528973752e-09)
(0.01099999956 1.301583354e-08 -1.310024034e-08)
(0.01099998801 2.778402633e-09 -1.593207856e-08)
(0.01099998888 3.04661364e-08 -5.899449065e-08)
(0.01099997661 -1.212366994e-08 -8.485591946e-08)
(0.01099985882 3.507026098e-08 -2.240613853e-07)
(0.01100004783 3.392914042e-07 -6.709764659e-07)
(0.01099999851 4.529419892e-10 1.972894641e-10)
(0.01100000072 5.060124718e-10 -3.066765167e-10)
(0.0109999989 -4.48908104e-10 3.32464148e-11)
(0.01100000115 -4.00730792e-12 -7.060804416e-10)
(0.01099999983 6.027563447e-10 7.741534046e-11)
(0.01099999894 3.685268763e-10 1.521673334e-10)
(0.01100000025 9.660449478e-10 -6.36672621e-10)
(0.01100000258 3.034782292e-09 -3.860395655e-09)
(0.01100000236 2.763994355e-09 -2.979022419e-09)
(0.0110000057 9.983244871e-09 -6.822589453e-09)
(0.01100001021 1.00482457e-08 -1.231625945e-08)
(0.01100001087 3.130105471e-08 -3.059560293e-08)
(0.01100003848 3.768162682e-08 -4.756903721e-08)
(0.01099998925 6.583100177e-08 -7.737236565e-08)
(0.01100012482 2.744964875e-07 -2.250519793e-07)
(0.01100000102 2.1421121e-10 1.165964435e-09)
(0.01099999894 1.158304753e-09 -1.206469251e-09)
(0.01100000019 -3.834068812e-10 3.100985936e-11)
(0.01100000066 4.680251482e-10 -1.638023768e-09)
(0.01099999783 -1.230232916e-09 -5.217982842e-11)
(0.01100000132 -1.679826112e-10 -2.250890532e-10)
(0.01100000136 5.704099802e-10 -6.861930986e-10)
(0.01100000186 1.693698989e-09 -4.156183457e-09)
(0.0110000046 6.953490882e-10 -3.196574725e-09)
(0.01100000642 3.435233368e-09 -6.167054752e-09)
(0.01100001281 3.089235304e-09 -9.238350767e-09)
(0.01100001196 6.989594116e-09 -1.935140484e-08)
(0.0110000447 6.678597675e-09 -3.309566154e-08)
(0.01100002709 4.573819514e-09 -4.584184424e-08)
(0.01100011727 5.251377841e-08 -1.110318681e-07)
(0.01099999905 9.715466577e-10 6.416385846e-11)
(0.01099999966 1.74141301e-09 -8.6208768e-10)
(0.01099999916 1.327981752e-09 2.118516161e-11)
(0.01099999978 9.218252996e-10 -1.209603432e-09)
(0.01100000125 1.555632039e-10 -2.765096012e-09)
(0.01099999853 1.140489365e-09 -1.893120237e-09)
(0.01099999961 -9.714965457e-11 -1.222641136e-09)
(0.01099999907 1.790924921e-09 -7.255893012e-10)
(0.01100000106 -1.289327006e-09 5.799277645e-10)
(0.01099999887 -3.705550986e-09 4.299318516e-10)
(0.01100000185 -3.723517152e-09 8.67556116e-10)
(0.01099999165 -1.605599665e-08 -2.186414208e-10)
(0.01100001747 -2.184665545e-08 -8.992116279e-10)
(0.01099995988 -4.210049213e-08 8.116205875e-10)
(0.01099999934 5.373603065e-10 -4.598591282e-10)
(0.01099999874 -7.77291217e-10 7.097593332e-10)
(0.0109999989 -1.227147908e-09 7.245605091e-10)
(0.01099999966 -1.784254745e-10 -3.597605362e-11)
(0.01099999871 -1.30608741e-09 -2.622247126e-09)
(0.01099999843 -1.236409351e-09 -8.712283312e-10)
(0.01099999873 -1.532335899e-09 7.75772193e-10)
(0.01099999779 -4.841284884e-09 2.36397069e-11)
(0.01099999654 -4.902855086e-09 8.766025467e-10)
(0.01099999365 -1.675609597e-08 4.29793182e-10)
(0.0109999886 -1.763532664e-08 1.624489691e-09)
(0.01099997525 -6.192473924e-08 6.683051749e-10)
(0.01099997628 -8.901428931e-08 5.543498574e-10)
(0.01099985176 -2.319558197e-07 2.224539763e-10)
(0.011 9.816134389e-10 6.08858934e-10)
(0.01099999835 9.43325912e-11 1.619741046e-09)
(0.01099999982 2.288187539e-11 2.95411536e-10)
(0.0109999997 1.002338945e-09 -1.925619847e-09)
(0.01099999909 2.655155727e-09 -2.288303571e-09)
(0.01099999621 2.368909299e-12 -3.090340273e-10)
(0.01099999673 -2.358887562e-09 -2.381293291e-10)
(0.01099999791 -3.212934094e-09 2.627974195e-10)
(0.01099998725 -4.703222416e-09 9.886544342e-10)
(0.01099998443 -2.039695938e-08 -4.101519772e-10)
(0.01099994605 -1.30339306e-08 5.804862826e-10)
(0.01099992051 -9.400879694e-08 4.829844998e-10)
(0.01099977912 -5.526355074e-08 7.684463722e-10)
(0.01099946652 -4.201213371e-07 1.935192013e-10)
(0.01099999922 5.1564073e-11 9.240871587e-10)
(0.01099999868 1.351059276e-09 -5.064634222e-10)
(0.01099999786 1.324673543e-09 -5.841456566e-10)
(0.01099999966 -4.558381199e-10 -1.77021132e-09)
(0.01099999863 2.80895334e-10 -3.578625388e-10)
(0.01099999906 -4.243458407e-10 -1.914380795e-09)
(0.01099999661 2.208647276e-11 -6.424289457e-10)
(0.01099999601 -4.013200545e-09 3.09304774e-10)
(0.01099997809 -6.817577516e-09 1.121305921e-09)
(0.01099998724 -3.034221898e-08 -1.334402196e-09)
(0.010999904 -3.296228761e-08 2.45707542e-10)
(0.01099996008 -2.438035648e-07 1.432770213e-10)
(0.0109994492 -2.812201048e-07 1.723027619e-10)
(0.0109993786 -2.47932476e-06 -1.4827486e-09)
(0.011 -1.205937614e-09 1.394504444e-09)
(0.01099999945 -1.257252923e-09 -1.402639863e-09)
(0.01099999848 1.993435537e-10 -2.890127871e-10)
(0.01099999877 6.34319487e-10 -2.439244441e-09)