/*--------------------------------*- C++ -*----------------------------------*\
| =========                 |                                                 |
| \\      /  F ield         | OpenFOAM: The Open Source CFD Toolbox           |
|  \\    /   O peration     | Version:  4.x                                   |
|   \\  /    A nd           | Web:      www.OpenFOAM.org                      |
|    \\/     M anipulation  |                                                 |
\*---------------------------------------------------------------------------*/
FoamFile
{
    version     2.0;
    format      ascii;
    class       volScalarField;
    location    "8000";
    object      X_CO;
}
// * * * * * * * * * * * * * * * * * * * * * * * * * * * * * * * * * * * * * //

dimensions      [0 0 0 0 0 0 0];

internalField   nonuniform List<scalar> 
1175
(
0.3728740609
0.372874061
0.372874061
0.3728740611
0.3728740609
0.3728740607
0.3728740605
0.3728740598
0.3728740576
0.3728740508
0.3728740316
0.3728739804
0.3728738552
0.3728735781
0.3728730319
0.3728740609
0.3728740611
0.3728740609
0.372874061
0.3728740609
0.3728740608
0.3728740605
0.3728740595
0.3728740562
0.3728740459
0.3728740156
0.3728739317
0.3728737189
0.3728732379
0.3728722902
0.372874061
0.372874061
0.372874061
0.3728740607
0.3728740608
0.3728740606
0.3728740603
0.3728740587
0.3728740536
0.3728740366
0.3728739838
0.3728738307
0.3728734264
0.3728724858
0.3728706272
0.3728740608
0.3728740608
0.3728740609
0.3728740611
0.372874061
0.3728740608
0.3728740602
0.3728740582
0.3728740508
0.3728740258
0.3728739442
0.3728736975
0.3728730183
0.3728713819
0.3728681253
0.3728740608
0.3728740608
0.3728740611
0.3728740609
0.3728740608
0.3728740607
0.3728740602
0.3728740579
0.3728740494
0.3728740199
0.372873922
0.372873617
0.3728727491
0.3728705919
0.3728662447
0.3728740609
0.3728740609
0.3728740609
0.372874061
0.372874061
0.3728740609
0.3728740604
0.3728740581
0.3728740508
0.3728740256
0.3728739441
0.3728736975
0.3728730181
0.3728713818
0.3728681253
0.3728740607
0.3728740609
0.3728740607
0.3728740609
0.372874061
0.3728740609
0.3728740605
0.3728740589
0.3728740539
0.3728740368
0.3728739838
0.3728738307
0.3728734263
0.3728724859
0.3728706274
0.3728740608
0.3728740608
0.3728740609
0.3728740609
0.3728740609
0.3728740608
0.3728740606
0.3728740595
0.3728740561
0.372874046
0.3728740158
0.3728739317
0.3728737189
0.372873238
0.3728722903
0.3728740609
0.3728740609
0.3728740611
0.372874061
0.3728740609
0.3728740608
0.3728740606
0.3728740598
0.3728740576
0.3728740509
0.3728740316
0.3728739804
0.3728738551
0.372873578
0.3728730319
0.3728740611
0.3728740611
0.372874061
0.3728740611
0.3728740611
0.372874061
0.3728740607
0.3728740596
0.3728740562
0.3728740459
0.3728740155
0.3728739315
0.3728737189
0.3728732379
0.3728740611
0.3728740611
0.372874061
0.3728740609
0.372874061
0.3728740609
0.3728740605
0.3728740588
0.3728740538
0.3728740372
0.3728739849
0.3728738316
0.3728734242
0.3728724698
0.3728705824
0.372874061
0.372874061
0.372874061
0.372874061
0.3728740609
0.3728740607
0.3728740601
0.3728740578
0.3728740491
0.372874019
0.3728739186
0.3728736048
0.3728727168
0.3728705343
0.3728661732
0.3728740607
0.3728740608
0.3728740609
0.3728740608
0.3728740609
0.3728740607
0.3728740598
0.3728740563
0.3728740435
0.3728739958
0.3728738265
0.3728732627
0.3728715543
0.372867088
0.3728579411
0.3728740608
0.3728740609
0.3728740608
0.372874061
0.3728740607
0.3728740606
0.3728740596
0.3728740556
0.3728740404
0.3728739821
0.3728737674
0.3728730154
0.3728705953
0.37286383
0.3728493318
0.3728740609
0.3728740609
0.372874061
0.3728740609
0.3728740608
0.3728740606
0.3728740598
0.3728740564
0.3728740434
0.3728739957
0.3728738266
0.3728732627
0.3728715541
0.372867088
0.3728579412
0.3728740609
0.3728740608
0.372874061
0.3728740609
0.3728740608
0.3728740606
0.3728740601
0.3728740578
0.3728740492
0.3728740192
0.3728739186
0.3728736047
0.3728727167
0.3728705342
0.3728661735
0.372874061
0.3728740611
0.3728740609
0.3728740609
0.3728740609
0.3728740609
0.3728740604
0.3728740589
0.372874054
0.3728740373
0.3728739848
0.3728738318
0.3728734242
0.37287247
0.3728705828
0.3728740609
0.3728740612
0.3728740612
0.3728740611
0.3728740611
0.3728740608
0.3728740606
0.3728740595
0.3728740563
0.372874046
0.3728740156
0.3728739316
0.3728737188
0.3728732381
0.3728722902
0.3728740609
0.372874061
0.3728740611
0.3728740612
0.3728740609
0.372874061
0.3728740603
0.3728740587
0.3728740536
0.3728740367
0.3728739836
0.3728738305
0.3728734263
0.3728724857
0.3728740611
0.372874061
0.3728740611
0.372874061
0.372874061
0.3728740607
0.3728740601
0.3728740576
0.3728740489
0.372874019
0.3728739185
0.3728736047
0.3728727167
0.3728705341
0.3728740609
0.372874061
0.3728740609
0.3728740609
0.3728740609
0.3728740606
0.3728740596
0.3728740556
0.3728740397
0.3728739805
0.3728737655
0.3728730349
0.3728707804
0.3728648059
0.3728525181
0.372874061
0.3728740609
0.3728740608
0.3728740608
0.3728740607
0.3728740605
0.3728740591
0.3728740529
0.3728740277
0.3728739257
0.372873526
0.3728720388
0.3728669608
0.3728520415
0.3728192991
0.3728740608
0.3728740608
0.3728740609
0.372874061
0.3728740607
0.3728740605
0.3728740589
0.3728740515
0.3728740206
0.3728738894
0.3728733451
0.3728711563
0.3728628853
0.3728352905
0.3727665759
0.3728740608
0.3728740608
0.3728740609
0.3728740608
0.3728740608
0.3728740604
0.372874059
0.3728740529
0.3728740278
0.3728739257
0.3728735261
0.372872039
0.3728669611
0.3728520423
0.3728193005
0.372874061
0.3728740611
0.3728740609
0.3728740607
0.3728740609
0.3728740606
0.3728740597
0.3728740554
0.3728740399
0.3728739806
0.3728737659
0.3728730352
0.3728707808
0.3728648064
0.3728525195
0.3728740609
0.372874061
0.372874061
0.372874061
0.372874061
0.3728740608
0.3728740601
0.3728740576
0.3728740491
0.3728740191
0.3728739188
0.3728736049
0.3728727169
0.3728705345
0.3728661735
0.3728740611
0.372874061
0.372874061
0.372874061
0.3728740609
0.372874061
0.3728740604
0.3728740588
0.3728740536
0.3728740368
0.3728739839
0.3728738307
0.3728734265
0.3728724858
0.3728706272
0.3728740612
0.372874061
0.3728740611
0.372874061
0.372874061
0.3728740608
0.3728740603
0.3728740581
0.3728740506
0.3728740256
0.3728739441
0.3728736977
0.3728730181
0.3728713815
0.3728740609
0.372874061
0.372874061
0.372874061
0.372874061
0.3728740607
0.3728740598
0.3728740562
0.3728740434
0.3728739956
0.3728738264
0.3728732628
0.3728715541
0.3728670876
0.3728740609
0.3728740609
0.372874061
0.3728740609
0.3728740609
0.3728740606
0.3728740591
0.372874053
0.3728740278
0.3728739258
0.3728735261
0.3728720387
0.3728669606
0.3728520406
0.372874061
0.3728740611
0.3728740609
0.3728740608
0.3728740607
0.3728740603
0.372874058
0.3728740483
0.3728740053
0.3728738159
0.3728729926
0.3728695262
0.3728558231
0.3728082125
0.3726864308
0.3728740609
0.3728740608
0.372874061
0.3728740609
0.3728740607
0.3728740601
0.3728740576
0.3728740459
0.3728739909
0.3728737329
0.3728725119
0.3728667226
0.372839749
0.3727220637
0.3723133117
0.3728740607
0.372874061
0.3728740609
0.3728740608
0.3728740607
0.3728740604
0.3728740582
0.3728740483
0.3728740052
0.3728738158
0.3728729926
0.3728695263
0.3728558235
0.3728082145
0.3726864396
0.3728740609
0.3728740609
0.3728740608
0.372874061
0.3728740608
0.3728740604
0.3728740591
0.3728740529
0.3728740277
0.3728739258
0.3728735261
0.3728720388
0.372866961
0.3728520419
0.3728193005
0.3728740609
0.372874061
0.3728740608
0.3728740609
0.3728740609
0.3728740607
0.3728740597
0.3728740565
0.3728740435
0.372873996
0.3728738268
0.372873263
0.3728715543
0.3728670882
0.3728579414
0.372874061
0.372874061
0.372874061
0.3728740609
0.3728740608
0.3728740608
0.3728740601
0.3728740581
0.3728740507
0.3728740257
0.3728739444
0.3728736978
0.3728730183
0.372871382
0.3728681254
0.372874061
0.3728740611
0.3728740611
0.3728740611
0.372874061
0.3728740607
0.3728740602
0.3728740579
0.3728740494
0.37287402
0.3728739222
0.3728736171
0.3728727489
0.3728705918
0.3728740608
0.3728740609
0.3728740611
0.3728740609
0.3728740608
0.3728740606
0.3728740596
0.3728740556
0.3728740405
0.3728739822
0.3728737673
0.3728730154
0.3728705951
0.3728638292
0.3728740608
0.3728740609
0.3728740609
0.372874061
0.3728740608
0.3728740605
0.372874059
0.3728740517
0.3728740207
0.3728738896
0.3728733451
0.372871156
0.3728628848
0.3728352881
0.372874061
0.372874061
0.3728740608
0.3728740609
0.3728740608
0.3728740603
0.3728740578
0.372874046
0.3728739911
0.372873733
0.3728725118
0.3728667224
0.3728397479
0.3727220552
0.372874061
0.3728740608
0.3728740608
0.3728740609
0.3728740608
0.3728740601
0.3728740572
0.3728740423
0.3728739699
0.3728735997
0.3728716211
0.3728604226
0.3727926722
0.3723516168
0.3692427184
0.3728740611
0.3728740611
0.3728740609
0.3728740609
0.3728740608
0.3728740602
0.3728740575
0.3728740458
0.3728739909
0.3728737329
0.3728725117
0.3728667225
0.3728397491
0.3727220637
0.3723133128
0.372874061
0.372874061
0.372874061
0.3728740611
0.3728740609
0.3728740605
0.3728740588
0.3728740512
0.3728740203
0.3728738894
0.3728733452
0.3728711563
0.3728628854
0.3728352904
0.372766576
0.3728740609
0.3728740609
0.372874061
0.372874061
0.372874061
0.3728740607
0.3728740596
0.3728740556
0.3728740404
0.3728739824
0.3728737674
0.3728730156
0.3728705954
0.37286383
0.3728493318
0.372874061
0.3728740609
0.372874061
0.3728740609
0.372874061
0.3728740608
0.3728740601
0.3728740578
0.3728740494
0.3728740202
0.3728739224
0.3728736173
0.3728727493
0.3728705922
0.3728662446
0.3728740612
0.3728740611
0.3728740611
0.3728740611
0.3728740609
0.3728740608
0.3728740602
0.3728740581
0.3728740506
0.3728740256
0.3728739445
0.3728736978
0.3728730183
0.3728713818
0.3728740609
0.3728740611
0.372874061
0.3728740609
0.3728740609
0.3728740607
0.3728740598
0.3728740565
0.3728740437
0.3728739958
0.3728738266
0.3728732629
0.3728715542
0.3728670877
0.3728740611
0.3728740609
0.372874061
0.372874061
0.3728740609
0.3728740605
0.3728740591
0.372874053
0.3728740277
0.3728739258
0.3728735261
0.3728720388
0.3728669607
0.3728520404
0.3728740609
0.372874061
0.3728740609
0.3728740612
0.3728740609
0.3728740603
0.3728740582
0.3728740484
0.3728740054
0.3728738158
0.3728729925
0.372869526
0.3728558228
0.3728082104
0.3728740611
0.3728740612
0.3728740611
0.372874061
0.3728740607
0.3728740602
0.3728740577
0.3728740458
0.3728739909
0.372873733
0.3728725118
0.3728667224
0.3728397476
0.3727220544
0.372874061
0.3728740611
0.3728740612
0.3728740609
0.3728740609
0.3728740603
0.3728740581
0.3728740484
0.3728740054
0.372873816
0.3728729926
0.3728695263
0.3728558228
0.372808211
0.3728740611
0.372874061
0.3728740609
0.3728740608
0.3728740608
0.3728740606
0.3728740592
0.3728740528
0.3728740278
0.3728739259
0.3728735261
0.3728720388
0.3728669607
0.3728520414
0.3728192979
0.372874061
0.3728740611
0.3728740611
0.3728740611
0.3728740612
0.3728740606
0.3728740599
0.3728740564
0.3728740436
0.372873996
0.3728738268
0.3728732631
0.3728715544
0.3728670881
0.372857941
0.372874061
0.3728740611
0.372874061
0.3728740609
0.3728740609
0.3728740606
0.3728740601
0.3728740582
0.3728740507
0.3728740258
0.3728739444
0.3728736978
0.3728730183
0.3728713819
0.3728681253
0.3728740612
0.3728740611
0.3728740612
0.3728740611
0.3728740611
0.372874061
0.3728740606
0.372874059
0.3728740539
0.3728740368
0.3728739841
0.3728738307
0.3728734266
0.3728724859
0.3728740609
0.372874061
0.372874061
0.372874061
0.3728740609
0.3728740608
0.3728740602
0.3728740578
0.3728740492
0.3728740192
0.3728739188
0.372873605
0.3728727168
0.3728705343
0.3728740609
0.3728740609
0.372874061
0.372874061
0.372874061
0.3728740607
0.3728740597
0.3728740556
0.3728740398
0.3728739806
0.3728737657
0.3728730351
0.3728707806
0.3728648057
0.372874061
0.3728740611
0.3728740609
0.3728740611
0.372874061
0.3728740606
0.3728740592
0.3728740531
0.3728740278
0.3728739257
0.3728735263
0.3728720389
0.3728669607
0.3728520406
0.372874061
0.3728740612
0.3728740609
0.372874061
0.3728740609
0.3728740606
0.3728740588
0.3728740515
0.3728740206
0.3728738894
0.3728733452
0.372871156
0.3728628846
0.3728352879
0.3728740611
0.372874061
0.3728740611
0.372874061
0.372874061
0.3728740606
0.3728740591
0.3728740529
0.3728740279
0.3728739258
0.3728735261
0.3728720387
0.3728669606
0.3728520406
0.3728740611
0.3728740609
0.372874061
0.372874061
0.3728740609
0.3728740606
0.3728740597
0.3728740557
0.3728740399
0.3728739806
0.3728737658
0.3728730353
0.3728707806
0.3728648058
0.372874061
0.372874061
0.3728740612
0.3728740612
0.3728740612
0.3728740608
0.3728740601
0.3728740577
0.3728740491
0.3728740191
0.3728739186
0.372873605
0.3728727168
0.3728705344
0.3728661732
0.3728740608
0.372874061
0.3728740609
0.3728740608
0.3728740609
0.3728740608
0.3728740604
0.372874059
0.3728740538
0.3728740368
0.3728739839
0.3728738307
0.3728734265
0.3728724859
0.3728706273
0.372874061
0.372874061
0.372874061
0.372874061
0.3728740611
0.3728740609
0.3728740605
0.3728740596
0.3728740564
0.3728740461
0.3728740157
0.3728739318
0.372873719
0.3728732382
0.3728740611
0.372874061
0.372874061
0.3728740609
0.372874061
0.3728740609
0.3728740605
0.372874059
0.3728740539
0.3728740372
0.3728739849
0.3728738318
0.3728734244
0.37287247
0.3728740609
0.3728740611
0.372874061
0.3728740611
0.372874061
0.3728740609
0.3728740602
0.3728740578
0.3728740493
0.3728740192
0.3728739187
0.372873605
0.3728727168
0.3728705341
0.3728740611
0.372874061
0.3728740611
0.3728740611
0.372874061
0.3728740609
0.3728740601
0.3728740566
0.3728740435
0.3728739958
0.3728738265
0.3728732629
0.3728715544
0.3728670877
0.3728740611
0.372874061
0.3728740612
0.372874061
0.3728740609
0.3728740606
0.3728740598
0.3728740559
0.3728740405
0.3728739822
0.3728737673
0.3728730155
0.3728705953
0.3728638294
0.372874061
0.372874061
0.3728740611
0.372874061
0.3728740609
0.3728740606
0.3728740598
0.3728740565
0.3728740434
0.3728739959
0.3728738265
0.3728732627
0.3728715542
0.3728670875
0.372874061
0.372874061
0.3728740611
0.3728740612
0.3728740612
0.372874061
0.3728740601
0.3728740578
0.3728740493
0.3728740192
0.3728739188
0.372873605
0.3728727166
0.3728705342
0.3728740612
0.3728740611
0.3728740611
0.3728740609
0.372874061
0.3728740608
0.3728740605
0.3728740589
0.3728740539
0.3728740372
0.372873985
0.3728738319
0.3728734242
0.3728724698
0.3728740611
0.372874061
0.3728740611
0.372874061
0.3728740611
0.372874061
0.3728740606
0.3728740596
0.3728740564
0.372874046
0.3728740159
0.3728739318
0.3728737191
0.372873238
0.3728722902
0.372874061
0.372874061
0.3728740611
0.372874061
0.372874061
0.3728740609
0.3728740608
0.3728740602
0.3728740578
0.372874051
0.3728740318
0.3728739806
0.3728738554
0.3728735782
0.3728740611
0.372874061
0.372874061
0.372874061
0.3728740611
0.3728740609
0.3728740606
0.3728740596
0.3728740565
0.3728740462
0.3728740158
0.3728739317
0.372873719
0.372873238
0.3728740611
0.3728740611
0.372874061
0.372874061
0.3728740609
0.372874061
0.3728740605
0.3728740589
0.3728740539
0.3728740369
0.3728739839
0.3728738307
0.3728734265
0.3728724858
0.372874061
0.3728740612
0.3728740611
0.3728740612
0.3728740611
0.372874061
0.3728740603
0.3728740583
0.3728740509
0.3728740258
0.3728739444
0.3728736977
0.3728730181
0.3728713819
0.372874061
0.3728740611
0.372874061
0.372874061
0.3728740608
0.3728740607
0.3728740602
0.3728740579
0.3728740495
0.3728740199
0.3728739222
0.3728736172
0.3728727491
0.3728705919
0.372874061
0.3728740611
0.372874061
0.372874061
0.3728740608
0.3728740608
0.3728740602
0.3728740581
0.3728740509
0.3728740258
0.3728739444
0.3728736977
0.3728730182
0.3728713817
0.3728740608
0.372874061
0.3728740611
0.3728740612
0.3728740611
0.3728740609
0.3728740603
0.3728740589
0.3728740537
0.3728740367
0.372873984
0.3728738308
0.3728734266
0.3728724859
0.3728740608
0.372874061
0.3728740611
0.372874061
0.372874061
0.3728740608
0.3728740606
0.3728740596
0.3728740564
0.3728740462
0.3728740158
0.3728739317
0.3728737191
0.3728732381
0.372874061
0.3728740608
0.3728740609
0.3728740609
0.3728740609
0.3728740609
0.3728740607
0.37287406
0.3728740577
0.3728740509
0.3728740318
0.3728739803
0.3728738552
0.372873578
)
;

boundaryField
{
    top
    {
        type            calculated;
        value           nonuniform List<scalar> 
134
(
0.3728740609
0.3728740609
0.3728740611
0.372874061
0.372874061
0.372874061
0.3728740608
0.3728740611
0.372874061
0.3728740609
0.3728740612
0.372874061
0.372874061
0.3728740609
0.3728740611
0.372874061
0.372874061
0.3728740608
0.3728740611
0.3728740612
0.372874061
0.372874061
0.372874061
0.372874061
0.3728740609
0.3728740611
0.3728740609
0.372874061
0.3728740611
0.372874061
0.3728740609
0.3728740609
0.3728740609
0.3728740608
0.372874061
0.3728740609
0.3728740609
0.3728740611
0.3728740609
0.3728740608
0.372874061
0.3728740609
0.3728740609
0.3728740611
0.3728740609
0.3728740608
0.3728740608
0.372874061
0.3728740608
0.3728740608
0.3728740606
0.3728740608
0.372874061
0.3728740609
0.3728740606
0.3728740606
0.3728740604
0.3728740601
0.3728740601
0.3728740601
0.3728740604
0.3728740606
0.3728740607
0.3728740598
0.3728740595
0.3728740588
0.3728740581
0.3728740578
0.3728740582
0.372874059
0.3728740596
0.37287406
0.3728740576
0.3728740563
0.3728740536
0.3728740507
0.3728740494
0.3728740507
0.3728740538
0.3728740564
0.3728740577
0.3728740509
0.372874046
0.3728740368
0.3728740257
0.3728740202
0.3728740258
0.3728740368
0.372874046
0.3728740509
0.3728740316
0.3728740156
0.3728739839
0.3728739444
0.3728739224
0.3728739444
0.3728739839
0.3728740159
0.3728740318
0.3728739804
0.3728739316
0.3728738307
0.3728736978
0.3728736173
0.3728736978
0.3728738307
0.3728739318
0.3728739803
0.3728738551
0.3728737188
0.3728734265
0.3728730183
0.3728727493
0.3728730183
0.3728734265
0.3728737191
0.3728738552
0.372873578
0.3728732381
0.3728724858
0.372871382
0.3728705922
0.3728713819
0.3728724859
0.372873238
0.372873578
0.3728730319
0.3728722902
0.3728706272
0.3728681254
0.3728662446
0.3728681253
0.3728706273
0.3728722902
)
;
    }
    bottom
    {
        type            calculated;
        value           nonuniform List<scalar> 
127
(
0.3728740609
0.3728740611
0.3728740609
0.3728740612
0.372874061
0.3728740612
0.3728740612
0.372874061
0.372874061
0.372874061
0.3728740611
0.372874061
0.372874061
0.3728740611
0.3728740611
0.3728740611
0.372874061
0.372874061
0.372874061
0.372874061
0.3728740611
0.3728740611
0.3728740611
0.3728740611
0.3728740612
0.372874061
0.3728740611
0.3728740611
0.3728740611
0.3728740612
0.372874061
0.3728740611
0.3728740611
0.3728740611
0.372874061
0.372874061
0.3728740609
0.3728740611
0.3728740609
0.372874061
0.372874061
0.3728740609
0.3728740611
0.3728740611
0.372874061
0.3728740607
0.372874061
0.372874061
0.3728740608
0.3728740607
0.3728740608
0.372874061
0.3728740609
0.3728740609
0.3728740605
0.3728740607
0.3728740603
0.3728740603
0.3728740602
0.3728740602
0.3728740606
0.3728740605
0.3728740608
0.3728740598
0.3728740596
0.3728740587
0.3728740581
0.3728740579
0.3728740581
0.372874059
0.3728740596
0.3728740602
0.3728740576
0.3728740562
0.3728740536
0.3728740506
0.3728740494
0.3728740506
0.3728740539
0.3728740564
0.3728740578
0.3728740508
0.3728740459
0.3728740367
0.3728740256
0.37287402
0.3728740256
0.3728740368
0.3728740461
0.372874051
0.3728740316
0.3728740155
0.3728739836
0.3728739441
0.3728739222
0.3728739445
0.3728739841
0.3728740157
0.3728740318
0.3728739804
0.3728739315
0.3728738305
0.3728736977
0.3728736171
0.3728736978
0.3728738307
0.3728739318
0.3728739806
0.3728738552
0.3728737189
0.3728734263
0.3728730181
0.3728727489
0.3728730183
0.3728734266
0.372873719
0.3728738554
0.3728735781
0.3728732379
0.3728724857
0.3728713815
0.3728705918
0.3728713818
0.3728724859
0.3728732382
0.3728735782
0.3728730319
)
;
    }
    side-walls
    {
        type            calculated;
        value           nonuniform List<scalar> 
261
(
0.3728740609
0.3728740609
0.372874061
0.3728740608
0.3728740608
0.3728740609
0.3728740607
0.3728740608
0.3728740609
0.372874061
0.3728740611
0.372874061
0.3728740608
0.3728740608
0.3728740609
0.3728740609
0.3728740608
0.3728740609
0.372874061
0.3728740609
0.372874061
0.3728740609
0.3728740611
0.3728740609
0.3728740607
0.3728740609
0.3728740611
0.3728740611
0.372874061
0.3728740607
0.3728740611
0.3728740609
0.372874061
0.3728740609
0.3728740609
0.372874061
0.3728740609
0.3728740609
0.3728740608
0.372874061
0.3728740608
0.372874061
0.372874061
0.3728740609
0.3728740609
0.3728740607
0.3728740608
0.3728740606
0.3728740608
0.3728740607
0.3728740609
0.3728740609
0.3728740608
0.3728740608
0.3728740605
0.3728740605
0.3728740603
0.3728740602
0.3728740602
0.3728740604
0.3728740605
0.3728740606
0.3728740606
0.3728740598
0.3728740595
0.3728740587
0.3728740582
0.3728740579
0.3728740581
0.3728740589
0.3728740595
0.3728740598
0.3728740576
0.3728740562
0.3728740536
0.3728740508
0.3728740494
0.3728740508
0.3728740539
0.3728740561
0.3728740576
0.3728740508
0.3728740459
0.3728740366
0.3728740258
0.3728740199
0.3728740256
0.3728740368
0.372874046
0.3728740509
0.3728740316
0.3728740156
0.3728739838
0.3728739442
0.372873922
0.3728739441
0.3728739838
0.3728740158
0.3728740316
0.3728739804
0.3728739317
0.3728738307
0.3728736975
0.372873617
0.3728736975
0.3728738307
0.3728739317
0.3728739804
0.3728738552
0.3728737189
0.3728734264
0.3728730183
0.3728727491
0.3728730181
0.3728734263
0.3728737189
0.3728738551
0.3728735781
0.3728732379
0.3728724858
0.3728713819
0.3728705919
0.3728713818
0.3728724859
0.372873238
0.372873578
0.3728730319
0.3728722902
0.3728706272
0.3728681253
0.3728662447
0.3728681253
0.3728706274
0.3728722903
0.3728730319
0.372874061
0.3728740611
0.3728740611
0.372874061
0.372874061
0.372874061
0.3728740608
0.3728740608
0.372874061
0.372874061
0.372874061
0.3728740611
0.3728740612
0.3728740611
0.3728740611
0.372874061
0.372874061
0.3728740608
0.3728740611
0.372874061
0.372874061
0.3728740611
0.372874061
0.372874061
0.3728740611
0.3728740611
0.3728740609
0.372874061
0.372874061
0.372874061
0.3728740612
0.372874061
0.372874061
0.3728740612
0.372874061
0.3728740609
0.372874061
0.3728740611
0.3728740609
0.3728740611
0.3728740608
0.3728740608
0.3728740611
0.372874061
0.3728740609
0.3728740609
0.3728740609
0.372874061
0.372874061
0.3728740607
0.3728740608
0.3728740609
0.3728740608
0.3728740609
0.3728740608
0.3728740606
0.3728740605
0.3728740603
0.3728740602
0.3728740602
0.3728740603
0.3728740606
0.3728740607
0.3728740602
0.3728740596
0.3728740589
0.3728740583
0.3728740579
0.3728740581
0.3728740589
0.3728740596
0.37287406
0.3728740578
0.3728740565
0.3728740539
0.3728740509
0.3728740495
0.3728740509
0.3728740537
0.3728740564
0.3728740577
0.372874051
0.3728740462
0.3728740369
0.3728740258
0.3728740199
0.3728740258
0.3728740367
0.3728740462
0.3728740509
0.3728740318
0.3728740158
0.3728739839
0.3728739444
0.3728739222
0.3728739444
0.372873984
0.3728740158
0.3728740318
0.3728739806
0.3728739317
0.3728738307
0.3728736977
0.3728736172
0.3728736977
0.3728738308
0.3728739317
0.3728739803
0.3728738554
0.372873719
0.3728734265
0.3728730181
0.3728727491
0.3728730182
0.3728734266
0.3728737191
0.3728738552
0.3728735782
0.372873238
0.3728724858
0.3728713819
0.3728705919
0.3728713817
0.3728724859
0.3728732381
0.372873578
)
;
    }
    inlet
    {
        type            calculated;
        value           nonuniform List<scalar> 
81
(
0.3728740609
0.3728740609
0.372874061
0.3728740608
0.3728740608
0.3728740609
0.3728740607
0.3728740608
0.3728740609
0.3728740611
0.3728740611
0.372874061
0.3728740607
0.3728740608
0.3728740609
0.3728740609
0.372874061
0.3728740609
0.3728740609
0.3728740611
0.3728740609
0.372874061
0.3728740608
0.3728740608
0.372874061
0.3728740609
0.3728740611
0.3728740612
0.3728740609
0.3728740609
0.372874061
0.3728740609
0.3728740607
0.3728740609
0.3728740609
0.372874061
0.372874061
0.3728740608
0.3728740608
0.372874061
0.372874061
0.3728740611
0.372874061
0.3728740609
0.372874061
0.3728740612
0.3728740609
0.3728740611
0.3728740609
0.3728740611
0.372874061
0.3728740611
0.372874061
0.372874061
0.3728740612
0.3728740609
0.3728740609
0.372874061
0.372874061
0.3728740611
0.3728740611
0.372874061
0.3728740608
0.372874061
0.3728740611
0.3728740609
0.3728740611
0.3728740611
0.372874061
0.372874061
0.3728740612
0.3728740611
0.372874061
0.3728740611
0.3728740611
0.372874061
0.372874061
0.372874061
0.3728740608
0.3728740608
0.372874061
)
;
    }
    outlet
    {
        type            calculated;
        value           nonuniform 0();
    }
    procBoundary0to1
    {
        type            processor;
        value           nonuniform List<scalar> 
97
(
0.3728720801
0.3728722903
0.3728706851
0.3728675995
0.3728630705
0.3728598308
0.3728630707
0.3728675997
0.3728706853
0.3728720802
0.3728722903
0.3728722903
0.3728675339
0.372866173
0.3728595933
0.3728454546
0.372832088
0.3728454549
0.3728595936
0.3728675342
0.3728706851
0.3728706271
0.372866173
0.372866173
0.3728360923
0.3728192972
0.3727837185
0.3727149827
0.3727837198
0.3728360932
0.3728595938
0.3728675995
0.3728681251
0.3728579404
0.3728192972
0.3728192972
0.3726038369
0.3723132888
0.372250046
0.3726038415
0.37278372
0.3728454549
0.3728630707
0.3728662443
0.3728493309
0.3727665722
0.3723132888
0.3723132888
0.3707233824
0.3723132899
0.3722500479
0.372686433
0.3727149828
0.3728320881
0.3728598308
0.3728681252
0.3728579408
0.3728192987
0.3726864341
0.3723132899
0.372686433
0.372686433
0.3727837191
0.3728525184
0.3728454547
0.3728630706
0.3728706273
0.3728661735
0.3728525189
0.3728192989
0.3727665728
0.372819299
0.3728525184
0.3728525184
0.3728595935
0.3728705827
0.3728675995
0.3728722905
0.3728705828
0.3728661733
0.3728579407
0.3728493313
0.3728579407
0.3728661734
0.3728705827
0.3728705827
0.3728706852
0.372873032
0.3728730321
0.3728722903
0.3728706273
0.3728681253
0.3728662446
0.3728681254
0.3728706274
0.3728722904
0.372873032
)
;
    }
}


// ************************************************************************* //
