/*--------------------------------*- C++ -*----------------------------------*\
| =========                 |                                                 |
| \\      /  F ield         | OpenFOAM: The Open Source CFD Toolbox           |
|  \\    /   O peration     | Version:  4.x                                   |
|   \\  /    A nd           | Web:      www.OpenFOAM.org                      |
|    \\/     M anipulation  |                                                 |
\*---------------------------------------------------------------------------*/
FoamFile
{
    version     2.0;
    format      ascii;
    class       volScalarField;
    location    "8000";
    object      X_CO2;
}
// * * * * * * * * * * * * * * * * * * * * * * * * * * * * * * * * * * * * * //

dimensions      [0 0 0 0 0 0 0];

internalField   nonuniform List<scalar> 
1175
(
0.004151311357
0.004151311085
0.004151311331
0.004151311042
0.004151311333
0.004151311845
0.004151312013
0.004151312621
0.004151314742
0.004151321616
0.004151340862
0.004151391935
0.004151517173
0.004151794344
0.004152340995
0.004151311427
0.00415131092
0.004151311421
0.004151311196
0.004151311483
0.004151311506
0.004151311813
0.004151312972
0.004151316331
0.004151326726
0.004151356764
0.004151440617
0.004151653595
0.004152134884
0.004153082774
0.004151311137
0.004151311202
0.004151311193
0.004151311853
0.004151311642
0.004151311972
0.004151312098
0.0041513138
0.004151318832
0.00415133583
0.004151388633
0.004151541558
0.004151946203
0.004152886949
0.00415474635
0.004151311624
0.004151311708
0.004151311432
0.004151310935
0.004151311073
0.004151311377
0.004151312062
0.004151314053
0.004151321335
0.004151346292
0.004151428373
0.004151675071
0.004152354179
0.004153990994
0.004157248636
0.004151311608
0.00415131162
0.004151310895
0.004151311508
0.004151311515
0.004151311555
0.004151311887
0.004151314234
0.00415132284
0.004151352552
0.004151450675
0.0041517557
0.004152623485
0.004154781497
0.004159129483
0.004151311451
0.004151311451
0.004151311506
0.004151311253
0.00415131123
0.004151311258
0.004151311598
0.004151314138
0.004151321428
0.004151346931
0.004151428604
0.004151675116
0.004152354692
0.004153991341
0.00415724884
0.004151311975
0.004151311339
0.00415131188
0.004151311437
0.004151311257
0.004151311277
0.00415131161
0.004151313241
0.004151318114
0.004151335449
0.004151388796
0.004151541794
0.004151946484
0.004152886909
0.004154745948
0.004151311701
0.004151311734
0.004151311519
0.004151311388
0.004151311373
0.004151311544
0.004151311506
0.0041513129
0.004151316396
0.004151326493
0.004151356367
0.004151440635
0.00415165352
0.004152134692
0.004153082523
0.004151311443
0.004151311359
0.004151310885
0.004151311159
0.00415131142
0.004151311497
0.004151311659
0.004151312582
0.004151314777
0.00415132138
0.004151340761
0.004151392147
0.004151517376
0.004151794615
0.004152340901
0.004151310974
0.004151310904
0.004151311137
0.004151310875
0.004151310883
0.004151311034
0.004151311292
0.004151312669
0.004151316312
0.004151326585
0.00415135718
0.004151440966
0.004151653489
0.004152134958
0.004151310889
0.004151310801
0.004151311104
0.004151311354
0.004151311163
0.004151311239
0.004151311569
0.00415131361
0.004151318574
0.004151335172
0.004151387461
0.004151540901
0.00415194843
0.004152903142
0.004154791478
0.004151311099
0.004151311101
0.004151311068
0.004151311096
0.004151311253
0.004151311744
0.004151312158
0.004151314514
0.004151323363
0.004151353457
0.004151453701
0.004151767688
0.004152655773
0.004154838907
0.004159201452
0.004151311953
0.004151311625
0.004151311364
0.004151311575
0.004151311476
0.004151311646
0.004151312405
0.004151316108
0.004151328713
0.004151376415
0.004151545823
0.004152109878
0.004153818437
0.004158285653
0.004167434833
0.004151311735
0.004151311588
0.004151311767
0.004151311134
0.004151311858
0.004151311676
0.004151312745
0.004151316786
0.004151331904
0.004151390307
0.004151604829
0.004152357144
0.004154777697
0.004161543862
0.0041760451
0.004151311543
0.004151311338
0.004151311153
0.004151311416
0.004151311739
0.004151311738
0.004151312545
0.004151315813
0.004151328981
0.004151376734
0.004151545744
0.004152109964
0.004153819031
0.004158285819
0.004167434912
0.004151311573
0.004151311644
0.00415131129
0.004151311518
0.004151311528
0.004151311799
0.004151312178
0.004151314276
0.004151323165
0.004151353021
0.00415145363
0.004151767953
0.004152656038
0.004154839101
0.004159200952
0.004151311287
0.004151311048
0.004151311377
0.004151311322
0.004151311316
0.004151311131
0.004151311849
0.004151313504
0.004151318027
0.004151334768
0.00415138767
0.00415154044
0.004151948324
0.004152902613
0.004154790533
0.004151311442
0.004151310682
0.004151310771
0.004151310847
0.004151310991
0.004151311595
0.004151311664
0.004151312793
0.004151316071
0.004151326343
0.004151356778
0.004151440868
0.004151653737
0.004152134372
0.004153082796
0.004151311428
0.004151311259
0.004151311036
0.004151310714
0.004151311326
0.00415131105
0.004151312005
0.004151313774
0.004151318736
0.004151335602
0.0041513892
0.004151542234
0.004151946502
0.004152887231
0.004151310997
0.004151311107
0.004151311054
0.004151311202
0.004151311235
0.004151311727
0.004151312215
0.00415131488
0.004151323846
0.004151353639
0.004151454047
0.004151767898
0.004152656091
0.004154839418
0.004151311377
0.004151311246
0.004151311588
0.004151311484
0.004151311372
0.004151311684
0.004151312683
0.004151316582
0.004151332825
0.004151392049
0.004151607217
0.004152337932
0.004154592881
0.004160568692
0.004172860337
0.004151311321
0.004151311343
0.004151311716
0.004151311797
0.004151311788
0.004151311652
0.00415131317
0.004151319551
0.004151344711
0.0041514466
0.00415184649
0.004153333844
0.004158412563
0.004173334456
0.004206083669
0.00415131173
0.004151311702
0.004151311458
0.004151311142
0.004151311889
0.004151311688
0.004151313073
0.004151320768
0.004151351611
0.00415148304
0.004152027248
0.004154216203
0.00416248853
0.004190086363
0.004258810246
0.004151311754
0.004151311712
0.004151311482
0.004151311563
0.004151311571
0.004151312141
0.004151313344
0.004151319355
0.00415134446
0.004151446712
0.00415184612
0.004153333308
0.004158411952
0.004173332891
0.004206081144
0.004151311184
0.004151310999
0.004151311455
0.004151311855
0.004151311403
0.004151311639
0.004151312333
0.004151317167
0.004151332375
0.004151391698
0.0041516062
0.004152337089
0.004154591932
0.004160567587
0.004172857484
0.004151311551
0.004151311297
0.004151311257
0.004151311185
0.004151311011
0.00415131139
0.004151312321
0.004151314991
0.00415132325
0.004151353126
0.004151453058
0.004151767413
0.004152655557
0.004154838297
0.004159200932
0.004151310993
0.004151311269
0.004151311176
0.004151311078
0.004151311317
0.004151311054
0.004151311805
0.004151313568
0.004151318839
0.004151335369
0.004151388438
0.004151541719
0.004151946064
0.004152887154
0.004154746514
0.00415131078
0.004151311211
0.00415131106
0.00415131115
0.004151311196
0.004151311494
0.004151311886
0.004151314291
0.004151321878
0.004151346985
0.004151428569
0.004151674757
0.004152354728
0.004153991976
0.004151311368
0.004151311244
0.004151311161
0.004151311199
0.00415131117
0.004151311457
0.004151312581
0.00415131636
0.004151329146
0.004151376889
0.004151546117
0.004152109752
0.004153819037
0.004158286507
0.004151311429
0.004151311437
0.004151311204
0.004151311321
0.004151311411
0.004151311577
0.004151313143
0.004151319202
0.00415134448
0.004151446297
0.004151846271
0.004153334026
0.004158413003
0.004173336485
0.004151311289
0.004151311028
0.00415131149
0.00415131173
0.004151311865
0.004151312118
0.004151314487
0.004151324103
0.004151367159
0.00415155656
0.004152379917
0.004155846795
0.004169551667
0.00421716889
0.004338972147
0.004151311389
0.004151311822
0.00415131128
0.004151311287
0.00415131171
0.004151312517
0.004151314631
0.004151326295
0.004151381453
0.004151639538
0.004152860492
0.004158650345
0.004185626143
0.004303319411
0.004712099001
0.004151311871
0.004151311248
0.004151311346
0.004151311747
0.004151311735
0.004151311796
0.004151313996
0.004151324149
0.004151367391
0.004151556769
0.004152379907
0.004155846602
0.004169551049
0.004217165413
0.004338955341
0.004151311413
0.00415131139
0.004151311793
0.004151311243
0.004151311464
0.004151311965
0.004151313131
0.00415131933
0.004151344527
0.004151446542
0.004151846243
0.004153333712
0.004158412136
0.004173333776
0.004206081138
0.004151311497
0.004151311191
0.00415131179
0.004151311476
0.004151311275
0.004151311415
0.004151312691
0.004151315515
0.004151328834
0.004151376019
0.004151544978
0.004152109284
0.004153818392
0.004158285423
0.004167434332
0.004151311291
0.004151311301
0.004151311277
0.004151311567
0.004151311765
0.0041513114
0.004151312246
0.004151314117
0.004151321596
0.004151346535
0.004151427801
0.00415167437
0.004152354056
0.004153990932
0.004157248606
0.004151311269
0.00415131102
0.004151311016
0.004151311007
0.004151311173
0.004151311711
0.004151311935
0.004151314214
0.004151322797
0.004151352176
0.004151450146
0.004151755423
0.004152623974
0.004154781729
0.004151311828
0.004151311503
0.004151310996
0.004151311326
0.00415131173
0.004151311796
0.004151312723
0.004151316888
0.004151331789
0.0041513901
0.004151605023
0.004152357201
0.004154778188
0.004161545632
0.004151311677
0.004151311356
0.004151311373
0.004151311042
0.004151311575
0.004151311767
0.004151312981
0.004151320208
0.004151351224
0.004151482478
0.004152027322
0.00415421691
0.004162489418
0.004190091467
0.004151311308
0.004151311168
0.004151311695
0.004151311396
0.004151311376
0.004151311965
0.004151314301
0.004151325896
0.004151380903
0.00415163936
0.004152860602
0.004158650629
0.004185628637
0.004303336849
0.004151311121
0.004151311753
0.004151311688
0.00415131141
0.004151311437
0.004151312095
0.004151314934
0.004151329952
0.00415140221
0.004151772709
0.004153751455
0.004164950653
0.004232704813
0.004673775947
0.007782743733
0.004151310941
0.004151310978
0.004151311517
0.004151311321
0.004151311568
0.004151312162
0.004151315048
0.004151326611
0.004151381268
0.004151639564
0.004152860997
0.00415865064
0.00418562636
0.004303320803
0.004712099124
0.004151311171
0.00415131114
0.004151311158
0.004151310829
0.004151311153
0.004151311754
0.004151313495
0.004151321468
0.004151352264
0.004151483048
0.004152026929
0.004154216147
0.004162488027
0.004190086759
0.004258810222
0.004151311554
0.004151311591
0.004151311303
0.00415131112
0.004151311179
0.004151311329
0.004151312724
0.004151316811
0.004151331871
0.004151389658
0.004151604872
0.004152356568
0.004154777434
0.004161543696
0.004176045163
0.004151311242
0.004151311457
0.00415131117
0.004151311476
0.004151311225
0.004151311421
0.00415131216
0.004151314517
0.004151322713
0.004151351718
0.004151449514
0.004151754975
0.004152623009
0.004154780753
0.004159129794
0.004151310751
0.004151311001
0.004151310972
0.004151310956
0.004151311488
0.004151311426
0.004151311932
0.004151314257
0.004151322021
0.004151346749
0.004151427551
0.004151674306
0.004152354212
0.004153991264
0.004151311509
0.004151311044
0.004151311167
0.004151311433
0.00415131144
0.004151311428
0.004151312419
0.004151315734
0.004151328336
0.004151376364
0.004151545556
0.004152109459
0.00415381864
0.00415828641
0.004151310989
0.00415131143
0.004151311169
0.004151311128
0.004151311343
0.004151311802
0.004151312976
0.004151319048
0.004151344569
0.004151446455
0.004151846082
0.004153333673
0.004158412792
0.004173337011
0.00415131157
0.004151311205
0.004151311345
0.004151310742
0.004151311119
0.004151311985
0.004151313844
0.004151323994
0.004151366856
0.004151556627
0.004152379953
0.004155847237
0.004169552466
0.004217174079
0.004151310934
0.004151310728
0.004151310942
0.004151311056
0.004151311779
0.004151312074
0.004151314561
0.004151326424
0.00415138134
0.004151639383
0.004152860776
0.004158650814
0.004185629227
0.004303339301
0.004151311285
0.004151311033
0.004151310783
0.004151311422
0.00415131124
0.004151311973
0.004151314284
0.004151323962
0.004151366973
0.004151556346
0.004152379873
0.00415584657
0.004169552464
0.004217172459
0.004151310984
0.004151311237
0.004151311591
0.004151311744
0.004151311453
0.004151311639
0.004151312939
0.004151319701
0.004151344337
0.004151446202
0.004151846174
0.004153333868
0.004158412757
0.004173334849
0.004206086575
0.004151311085
0.004151310807
0.004151310841
0.004151310936
0.004151310655
0.00415131188
0.00415131232
0.00415131599
0.004151328642
0.004151375905
0.004151545213
0.004152108986
0.004153818133
0.004158285397
0.004167434975
0.004151311137
0.00415131104
0.004151311105
0.004151311561
0.004151311443
0.004151312018
0.004151312221
0.00415131407
0.004151321613
0.004151346369
0.004151427657
0.004151674426
0.00415235418
0.004153991014
0.004157248672
0.004151310763
0.004151311063
0.004151310718
0.004151310858
0.004151310963
0.004151311047
0.004151311302
0.004151313168
0.004151318088
0.004151335415
0.00415138791
0.00415154155
0.004151945771
0.004152886629
0.004151311516
0.004151311153
0.004151311077
0.004151311273
0.004151311481
0.004151311318
0.004151311885
0.004151314523
0.004151323121
0.004151353042
0.004151453165
0.004151767152
0.004152655798
0.004154838912
0.004151311489
0.004151311417
0.004151311303
0.004151311222
0.004151311176
0.004151311434
0.004151312295
0.004151316562
0.004151332595
0.004151391795
0.004151606698
0.004152337339
0.004154592395
0.004160569014
0.00415131133
0.004151310945
0.004151311578
0.004151310922
0.004151311052
0.004151311527
0.004151312806
0.004151318989
0.004151344415
0.004151446644
0.004151845713
0.00415333349
0.004158412735
0.004173336651
0.004151311126
0.004151310768
0.004151311391
0.004151311196
0.004151311203
0.004151311457
0.004151313305
0.004151320767
0.00415135165
0.004151483046
0.004152027078
0.004154216877
0.00416248991
0.004190092166
0.004151310905
0.004151311075
0.004151311027
0.004151311178
0.0041513109
0.004151311424
0.004151313072
0.004151319415
0.004151344138
0.004151446458
0.004151846191
0.004153333946
0.004158413071
0.004173336554
0.004151310872
0.004151311388
0.004151311224
0.004151311125
0.004151311429
0.00415131175
0.004151312507
0.004151316509
0.004151332253
0.004151391682
0.004151606376
0.004152336821
0.004154592351
0.004160568707
0.004151311102
0.004151311087
0.004151310631
0.004151310631
0.004151310699
0.004151311235
0.004151312094
0.004151314601
0.004151323405
0.00415135333
0.004151453777
0.004151767106
0.004152655677
0.004154838606
0.00415920143
0.004151311706
0.004151311147
0.004151311459
0.004151311645
0.004151311408
0.004151311446
0.00415131173
0.004151313181
0.004151318231
0.004151335447
0.004151388435
0.004151541678
0.004151945987
0.004152886702
0.004154746162
0.004151311158
0.004151311073
0.004151311217
0.004151311226
0.004151310841
0.004151311369
0.004151311734
0.004151312607
0.004151315706
0.0041513261
0.00415135656
0.004151440144
0.004151653178
0.004152134144
0.004151311025
0.004151311071
0.004151311132
0.004151311388
0.004151311013
0.004151311234
0.004151311667
0.004151313129
0.004151318491
0.004151335214
0.004151387289
0.004151540379
0.004151947709
0.004152902473
0.004151311522
0.004151311057
0.0041513113
0.004151310936
0.004151311093
0.004151311211
0.004151311996
0.0041513143
0.00415132285
0.004151352903
0.00415145342
0.004151767224
0.004152655691
0.004154839372
0.004151311046
0.00415131108
0.004151311022
0.004151310853
0.004151311051
0.004151311008
0.00415131176
0.004151315322
0.004151328723
0.004151376393
0.004151545825
0.004152109385
0.004153818207
0.004158286424
0.004151310934
0.00415131108
0.004151310692
0.004151311244
0.004151311406
0.004151311707
0.004151312338
0.004151316125
0.004151331703
0.004151390094
0.004151605137
0.004152356841
0.004154777491
0.004161544947
0.004151311306
0.004151311308
0.004151310819
0.004151311158
0.004151311462
0.004151311677
0.004151312412
0.004151315641
0.00415132901
0.004151376203
0.004151545777
0.004152109868
0.004153818785
0.004158287104
0.004151311305
0.004151311121
0.00415131088
0.004151310767
0.004151310525
0.004151310936
0.00415131232
0.004151314384
0.004151322911
0.004151352878
0.004151453274
0.004151767129
0.004152656145
0.004154839189
0.004151310706
0.004151310814
0.004151310977
0.004151311414
0.004151311226
0.004151311393
0.004151311683
0.004151313474
0.004151318361
0.004151335139
0.004151387201
0.004151540195
0.004151948299
0.004152903038
0.004151311049
0.00415131117
0.004151311043
0.004151311219
0.004151310885
0.004151311137
0.004151311566
0.004151312719
0.00415131575
0.004151326394
0.004151356147
0.004151440347
0.0041516531
0.004152134524
0.004153082774
0.004151311197
0.00415131107
0.004151311006
0.004151311148
0.004151311165
0.004151311379
0.004151311227
0.004151311578
0.004151314262
0.004151321071
0.004151340393
0.004151391499
0.00415151663
0.00415179404
0.004151311044
0.004151311094
0.004151311121
0.004151311193
0.004151310868
0.004151311276
0.004151311472
0.004151312701
0.00415131543
0.004151325862
0.00415135628
0.004151440511
0.004151653387
0.004152134474
0.004151310892
0.004151311045
0.004151311115
0.004151311211
0.004151311342
0.004151310849
0.004151311579
0.004151313241
0.004151317946
0.004151335053
0.00415138836
0.004151541685
0.004151946003
0.004152887022
0.004151311085
0.004151310777
0.00415131097
0.004151310749
0.004151310798
0.004151310952
0.004151311827
0.004151313717
0.004151321078
0.004151346231
0.00415142767
0.004151674557
0.00415235459
0.004153991127
0.004151311211
0.004151310952
0.004151311178
0.004151311208
0.004151311684
0.004151311554
0.004151311887
0.00415131418
0.004151322594
0.004151352353
0.004151450143
0.00415175508
0.004152623519
0.004154781469
0.004151311283
0.004151311029
0.00415131119
0.004151311071
0.004151311521
0.004151311272
0.004151312004
0.004151314102
0.004151321055
0.0041513463
0.004151427797
0.004151674701
0.004152354326
0.004153991478
0.004151311648
0.004151311147
0.004151310972
0.004151310632
0.004151310936
0.004151311295
0.00415131203
0.004151313258
0.004151318624
0.004151335751
0.004151388217
0.004151541451
0.00415194581
0.004152886743
0.004151311655
0.004151311297
0.004151311023
0.004151311108
0.004151311221
0.004151311413
0.00415131156
0.004151312581
0.004151315669
0.004151325978
0.004151356359
0.004151440569
0.004151653139
0.004152134333
0.004151311203
0.004151311623
0.004151311368
0.004151311561
0.004151311408
0.004151311229
0.004151311506
0.004151312279
0.004151314554
0.004151321448
0.004151340384
0.004151392201
0.004151517078
0.004151794512
)
;

boundaryField
{
    top
    {
        type            calculated;
        value           nonuniform List<scalar> 
134
(
0.004151311443
0.004151311442
0.004151310993
0.004151311291
0.004151311242
0.004151311137
0.004151311706
0.004151311049
0.004151311203
0.004151311359
0.004151310682
0.004151311269
0.004151311301
0.004151311457
0.00415131104
0.004151311147
0.00415131117
0.004151311623
0.004151310885
0.004151310771
0.004151311176
0.004151311277
0.00415131117
0.004151311105
0.004151311459
0.004151311043
0.004151311368
0.004151311159
0.004151310847
0.004151311078
0.004151311567
0.004151311476
0.004151311561
0.004151311645
0.004151311219
0.004151311561
0.00415131142
0.004151310991
0.004151311317
0.004151311765
0.004151311225
0.004151311443
0.004151311408
0.004151310885
0.004151311408
0.004151311497
0.004151311595
0.004151311054
0.0041513114
0.004151311421
0.004151312018
0.004151311446
0.004151311137
0.004151311229
0.004151311659
0.004151311664
0.004151311805
0.004151312246
0.00415131216
0.004151312221
0.00415131173
0.004151311566
0.004151311506
0.004151312582
0.004151312793
0.004151313568
0.004151314117
0.004151314517
0.00415131407
0.004151313181
0.004151312719
0.004151312279
0.004151314777
0.004151316071
0.004151318839
0.004151321596
0.004151322713
0.004151321613
0.004151318231
0.00415131575
0.004151314554
0.00415132138
0.004151326343
0.004151335369
0.004151346535
0.004151351718
0.004151346369
0.004151335447
0.004151326394
0.004151321448
0.004151340761
0.004151356778
0.004151388438
0.004151427801
0.004151449514
0.004151427657
0.004151388435
0.004151356147
0.004151340384
0.004151392147
0.004151440868
0.004151541719
0.00415167437
0.004151754975
0.004151674426
0.004151541678
0.004151440347
0.004151392201
0.004151517376
0.004151653737
0.004151946064
0.004152354056
0.004152623009
0.00415235418
0.004151945987
0.0041516531
0.004151517078
0.004151794615
0.004152134372
0.004152887154
0.004153990932
0.004154780753
0.004153991014
0.004152886702
0.004152134524
0.004151794512
0.004152340901
0.004153082796
0.004154746514
0.004157248606
0.004159129794
0.004157248672
0.004154746162
0.004153082774
)
;
    }
    bottom
    {
        type            calculated;
        value           nonuniform List<scalar> 
127
(
0.004151311357
0.004151310974
0.004151311428
0.00415131078
0.004151311269
0.004151310751
0.004151310763
0.004151311158
0.004151311197
0.004151311085
0.004151310904
0.004151311259
0.004151311211
0.00415131102
0.004151311001
0.004151311063
0.004151311073
0.00415131107
0.004151311331
0.004151311137
0.004151311036
0.00415131106
0.004151311016
0.004151310972
0.004151310718
0.004151311217
0.004151311006
0.004151311042
0.004151310875
0.004151310714
0.00415131115
0.004151311007
0.004151310956
0.004151310858
0.004151311226
0.004151311148
0.004151311333
0.004151310883
0.004151311326
0.004151311196
0.004151311173
0.004151311488
0.004151310963
0.004151310841
0.004151311165
0.004151311845
0.004151311034
0.00415131105
0.004151311494
0.004151311711
0.004151311426
0.004151311047
0.004151311369
0.004151311379
0.004151312013
0.004151311292
0.004151312005
0.004151311886
0.004151311935
0.004151311932
0.004151311302
0.004151311734
0.004151311227
0.004151312621
0.004151312669
0.004151313774
0.004151314291
0.004151314214
0.004151314257
0.004151313168
0.004151312607
0.004151311578
0.004151314742
0.004151316312
0.004151318736
0.004151321878
0.004151322797
0.004151322021
0.004151318088
0.004151315706
0.004151314262
0.004151321616
0.004151326585
0.004151335602
0.004151346985
0.004151352176
0.004151346749
0.004151335415
0.0041513261
0.004151321071
0.004151340862
0.00415135718
0.0041513892
0.004151428569
0.004151450146
0.004151427551
0.00415138791
0.00415135656
0.004151340393
0.004151391935
0.004151440966
0.004151542234
0.004151674757
0.004151755423
0.004151674306
0.00415154155
0.004151440144
0.004151391499
0.004151517173
0.004151653489
0.004151946502
0.004152354728
0.004152623974
0.004152354212
0.004151945771
0.004151653178
0.00415151663
0.004151794344
0.004152134958
0.004152887231
0.004153991976
0.004154781729
0.004153991264
0.004152886629
0.004152134144
0.00415179404
0.004152340995
)
;
    }
    side-walls
    {
        type            calculated;
        value           nonuniform List<scalar> 
261
(
0.004151311357
0.004151311427
0.004151311137
0.004151311624
0.004151311608
0.004151311451
0.004151311975
0.004151311701
0.004151311443
0.004151311085
0.00415131092
0.004151311202
0.004151311708
0.00415131162
0.004151311451
0.004151311339
0.004151311734
0.004151311359
0.004151311331
0.004151311421
0.004151311193
0.004151311432
0.004151310895
0.004151311506
0.00415131188
0.004151311519
0.004151310885
0.004151311042
0.004151311196
0.004151311853
0.004151310935
0.004151311508
0.004151311253
0.004151311437
0.004151311388
0.004151311159
0.004151311333
0.004151311483
0.004151311642
0.004151311073
0.004151311515
0.00415131123
0.004151311257
0.004151311373
0.00415131142
0.004151311845
0.004151311506
0.004151311972
0.004151311377
0.004151311555
0.004151311258
0.004151311277
0.004151311544
0.004151311497
0.004151312013
0.004151311813
0.004151312098
0.004151312062
0.004151311887
0.004151311598
0.00415131161
0.004151311506
0.004151311659
0.004151312621
0.004151312972
0.0041513138
0.004151314053
0.004151314234
0.004151314138
0.004151313241
0.0041513129
0.004151312582
0.004151314742
0.004151316331
0.004151318832
0.004151321335
0.00415132284
0.004151321428
0.004151318114
0.004151316396
0.004151314777
0.004151321616
0.004151326726
0.00415133583
0.004151346292
0.004151352552
0.004151346931
0.004151335449
0.004151326493
0.00415132138
0.004151340862
0.004151356764
0.004151388633
0.004151428373
0.004151450675
0.004151428604
0.004151388796
0.004151356367
0.004151340761
0.004151391935
0.004151440617
0.004151541558
0.004151675071
0.0041517557
0.004151675116
0.004151541794
0.004151440635
0.004151392147
0.004151517173
0.004151653595
0.004151946203
0.004152354179
0.004152623485
0.004152354692
0.004151946484
0.00415165352
0.004151517376
0.004151794344
0.004152134884
0.004152886949
0.004153990994
0.004154781497
0.004153991341
0.004152886909
0.004152134692
0.004151794615
0.004152340995
0.004153082774
0.00415474635
0.004157248636
0.004159129483
0.00415724884
0.004154745948
0.004153082523
0.004152340901
0.004151311197
0.004151311044
0.004151310892
0.004151311085
0.004151311211
0.004151311283
0.004151311648
0.004151311655
0.004151311203
0.00415131107
0.004151311094
0.004151311045
0.004151310777
0.004151310952
0.004151311029
0.004151311147
0.004151311297
0.004151311623
0.004151311006
0.004151311121
0.004151311115
0.00415131097
0.004151311178
0.00415131119
0.004151310972
0.004151311023
0.004151311368
0.004151311148
0.004151311193
0.004151311211
0.004151310749
0.004151311208
0.004151311071
0.004151310632
0.004151311108
0.004151311561
0.004151311165
0.004151310868
0.004151311342
0.004151310798
0.004151311684
0.004151311521
0.004151310936
0.004151311221
0.004151311408
0.004151311379
0.004151311276
0.004151310849
0.004151310952
0.004151311554
0.004151311272
0.004151311295
0.004151311413
0.004151311229
0.004151311227
0.004151311472
0.004151311579
0.004151311827
0.004151311887
0.004151312004
0.00415131203
0.00415131156
0.004151311506
0.004151311578
0.004151312701
0.004151313241
0.004151313717
0.00415131418
0.004151314102
0.004151313258
0.004151312581
0.004151312279
0.004151314262
0.00415131543
0.004151317946
0.004151321078
0.004151322594
0.004151321055
0.004151318624
0.004151315669
0.004151314554
0.004151321071
0.004151325862
0.004151335053
0.004151346231
0.004151352353
0.0041513463
0.004151335751
0.004151325978
0.004151321448
0.004151340393
0.00415135628
0.00415138836
0.00415142767
0.004151450143
0.004151427797
0.004151388217
0.004151356359
0.004151340384
0.004151391499
0.004151440511
0.004151541685
0.004151674557
0.00415175508
0.004151674701
0.004151541451
0.004151440569
0.004151392201
0.00415151663
0.004151653387
0.004151946003
0.00415235459
0.004152623519
0.004152354326
0.00415194581
0.004151653139
0.004151517078
0.00415179404
0.004152134474
0.004152887022
0.004153991127
0.004154781469
0.004153991478
0.004152886743
0.004152134333
0.004151794512
)
;
    }
    inlet
    {
        type            calculated;
        value           nonuniform List<scalar> 
81
(
0.004151311357
0.004151311427
0.004151311137
0.004151311624
0.004151311608
0.004151311451
0.004151311975
0.004151311701
0.004151311443
0.004151310974
0.004151310889
0.004151311099
0.004151311953
0.004151311735
0.004151311543
0.004151311573
0.004151311287
0.004151311442
0.004151311428
0.004151310997
0.004151311377
0.004151311321
0.00415131173
0.004151311754
0.004151311184
0.004151311551
0.004151310993
0.00415131078
0.004151311368
0.004151311429
0.004151311289
0.004151311389
0.004151311871
0.004151311413
0.004151311497
0.004151311291
0.004151311269
0.004151311828
0.004151311677
0.004151311308
0.004151311121
0.004151310941
0.004151311171
0.004151311554
0.004151311242
0.004151310751
0.004151311509
0.004151310989
0.00415131157
0.004151310934
0.004151311285
0.004151310984
0.004151311085
0.004151311137
0.004151310763
0.004151311516
0.004151311489
0.00415131133
0.004151311126
0.004151310905
0.004151310872
0.004151311102
0.004151311706
0.004151311158
0.004151311025
0.004151311522
0.004151311046
0.004151310934
0.004151311306
0.004151311305
0.004151310706
0.004151311049
0.004151311197
0.004151311044
0.004151310892
0.004151311085
0.004151311211
0.004151311283
0.004151311648
0.004151311655
0.004151311203
)
;
    }
    outlet
    {
        type            calculated;
        value           nonuniform 0();
    }
    procBoundary0to1
    {
        type            processor;
        value           nonuniform List<scalar> 
97
(
0.004153293091
0.004153082476
0.004154688587
0.004157775037
0.004162305285
0.004165545694
0.004162304806
0.004157774593
0.004154688116
0.004153292967
0.004153082476
0.004153082476
0.004157840681
0.004159201844
0.004165783346
0.004179925246
0.004193294085
0.00417992473
0.004165782888
0.004157840157
0.004154688562
0.004154746664
0.004159201844
0.004159201844
0.00418929019
0.004206087724
0.004241673648
0.004310418047
0.004241671596
0.004189288662
0.004165782529
0.004157775016
0.004157249202
0.004167436333
0.004206087724
0.004206087724
0.004421584045
0.00471215635
0.004775413311
0.004421576709
0.004241670907
0.004179924782
0.004162305014
0.004159130454
0.004176047382
0.00425881868
0.00471215635
0.00471215635
0.006302229648
0.004712154284
0.004775411268
0.004338970531
0.004310418308
0.004193293957
0.004165545616
0.004157248892
0.004167435541
0.004206084973
0.004338968619
0.004712154284
0.004338970531
0.004338970531
0.004241672739
0.004172859557
0.004179925002
0.004162304993
0.004154745996
0.00415920095
0.004172858808
0.004206084685
0.004258817987
0.004206084569
0.004172859557
0.004172859557
0.004165783098
0.004154790752
0.004157774997
0.004153081991
0.004154790467
0.004159201368
0.004167435877
0.004176046418
0.004167436048
0.004159201142
0.004154790752
0.004154790752
0.004154688259
0.004152340711
0.004152340395
0.004153082529
0.004154746137
0.004157248789
0.004159129759
0.004157248445
0.004154745873
0.0041530823
0.004152340711
)
;
    }
}


// ************************************************************************* //
