/*--------------------------------*- C++ -*----------------------------------*\
| =========                 |                                                 |
| \\      /  F ield         | OpenFOAM: The Open Source CFD Toolbox           |
|  \\    /   O peration     | Version:  4.x                                   |
|   \\  /    A nd           | Web:      www.OpenFOAM.org                      |
|    \\/     M anipulation  |                                                 |
\*---------------------------------------------------------------------------*/
FoamFile
{
    version     2.0;
    format      ascii;
    class       volScalarField;
    location    "4000";
    object      CO2;
}
// * * * * * * * * * * * * * * * * * * * * * * * * * * * * * * * * * * * * * //

dimensions      [0 0 0 0 0 0 0];

internalField   nonuniform List<scalar> 
1175
(
8.794974315e-10
8.803224334e-10
8.843159623e-10
8.997801474e-10
9.558090715e-10
1.151716843e-09
1.8160951e-09
3.995665958e-09
1.087326828e-08
3.158514464e-08
9.052560131e-08
2.470887622e-07
6.295988997e-07
1.475061632e-06
3.139902043e-06
8.800913299e-10
8.81082873e-10
8.859277618e-10
9.050577783e-10
9.76111121e-10
1.231823572e-09
2.127494031e-09
5.171960288e-09
1.515356703e-08
4.645223663e-08
1.392673311e-07
3.957898404e-07
1.044218205e-06
2.508894704e-06
5.393227541e-06
8.810277541e-10
8.822885034e-10
8.885293089e-10
9.137518464e-10
1.010197559e-09
1.369037957e-09
2.673119399e-09
7.287476439e-09
2.308420392e-08
7.493571793e-08
2.361350896e-07
7.028921683e-07
1.933002213e-06
4.79316908e-06
1.043976337e-05
8.818691961e-10
8.833843722e-10
8.909593037e-10
9.221043652e-10
1.043775264e-09
1.50781376e-09
3.241905465e-09
9.572193328e-09
3.200871439e-08
1.085356373e-07
3.5659966e-07
1.107221874e-06
3.172508286e-06
8.14130445e-06
1.80223432e-05
8.822047312e-10
8.838258543e-10
8.919614353e-10
9.25631818e-10
1.058269295e-09
1.569190154e-09
3.501020805e-09
1.065199346e-08
3.642310443e-08
1.261077825e-07
4.239561323e-07
1.351558705e-06
3.988145073e-06
1.053290724e-05
2.371454047e-05
8.81863862e-10
8.833790339e-10
8.909541489e-10
9.220996057e-10
1.043771911e-09
1.507813944e-09
3.241915005e-09
9.57222027e-09
3.200874828e-08
1.08535458e-07
3.565978662e-07
1.107212162e-06
3.17246679e-06
8.141166139e-06
1.802199283e-05
8.810169069e-10
8.822778652e-10
8.885190406e-10
9.137425329e-10
1.010190705e-09
1.369037422e-09
2.673134772e-09
7.287524492e-09
2.308427348e-08
7.493548775e-08
2.361326051e-07
7.028784868e-07
1.93294588e-06
4.792984067e-06
1.043931308e-05
8.800741064e-10
8.810664472e-10
8.859128381e-10
9.050445347e-10
9.761003178e-10
1.231816452e-09
2.127490741e-09
5.171942293e-09
1.51534069e-08
4.645127298e-08
1.392627262e-07
3.957708641e-07
1.044150412e-06
2.508690474e-06
5.392755234e-06
8.794708111e-10
8.803012929e-10
8.842988374e-10
8.9976672e-10
9.558000335e-10
1.151714286e-09
1.816101323e-09
3.995670438e-09
1.087316337e-08
3.158435192e-08
9.052158626e-08
2.470720224e-07
6.2953865e-07
1.474874608e-06
3.13944042e-06
8.80091348e-10
8.810829242e-10
8.859278542e-10
9.050580826e-10
9.761124257e-10
1.231829121e-09
2.12751732e-09
5.172055119e-09
1.515394621e-08
4.645372088e-08
1.392730225e-07
3.958112809e-07
1.04429909e-06
2.509214368e-06
8.807623414e-10
8.819725581e-10
8.879616197e-10
9.121735788e-10
1.004846376e-09
1.350318404e-09
2.609720321e-09
7.085685578e-09
2.249754239e-08
7.34469442e-08
2.331501098e-07
6.996794313e-07
1.939644795e-06
4.840861837e-06
1.057354622e-05
8.818221017e-10
8.833901432e-10
8.91280089e-10
9.240809768e-10
1.054079645e-09
1.5585871e-09
3.482626695e-09
1.067096865e-08
3.681524229e-08
1.285254224e-07
4.347001309e-07
1.388914917e-06
4.086550581e-06
1.070895693e-05
2.393191533e-05
8.827781817e-10
8.846891667e-10
8.94427155e-10
9.357626031e-10
1.103909304e-09
1.776677377e-09
4.433903392e-09
1.476731072e-08
5.410997361e-08
1.99499514e-07
7.142885481e-07
2.426439487e-06
7.608801091e-06
2.114124478e-05
4.883608212e-05
8.831610144e-10
8.852163689e-10
8.957428566e-10
9.40790889e-10
1.125977153e-09
1.876528749e-09
4.887927613e-09
1.682768517e-08
6.339957799e-08
2.408457901e-07
8.940060206e-07
3.175517057e-06
1.050945763e-05
3.098745273e-05
7.484565843e-05
8.827730517e-10
8.846840309e-10
8.94422359e-10
9.357581771e-10
1.103905912e-09
1.776676648e-09
4.433907309e-09
1.476730481e-08
5.410980747e-08
1.994981612e-07
7.142806307e-07
2.42639994e-06
7.60862898e-06
2.11406211e-05
4.883442063e-05
8.818118087e-10
8.833800209e-10
8.912705558e-10
9.240725222e-10
1.054074098e-09
1.558589638e-09
3.48264846e-09
1.067102318e-08
3.681522413e-08
1.285243329e-07
4.34691996e-07
1.388870639e-06
4.086355997e-06
1.070825798e-05
2.393007917e-05
8.807463131e-10
8.81957465e-10
8.87947839e-10
9.121619032e-10
1.00483808e-09
1.350316828e-09
2.609729304e-09
7.085688782e-09
2.249735558e-08
7.344539018e-08
2.331413411e-07
6.996379753e-07
1.93947447e-06
4.840264594e-06
1.057188774e-05
8.800679728e-10
8.810648301e-10
8.859135793e-10
9.05047517e-10
9.761065934e-10
1.231830315e-09
2.127526937e-09
5.172049027e-09
1.515372504e-08
4.645219354e-08
1.392652003e-07
3.957768494e-07
1.044162963e-06
2.508711893e-06
5.392780773e-06
8.810280638e-10
8.822888973e-10
8.885299616e-10
9.137534854e-10
1.010203429e-09
1.369061521e-09
2.673213878e-09
7.287853274e-09
2.308568438e-08
7.494138286e-08
2.361562078e-07
7.029683264e-07
1.93326584e-06
4.794033044e-06
8.818223418e-10
8.833904075e-10
8.91280659e-10
9.240824971e-10
1.05408512e-09
1.558609346e-09
3.482716608e-09
1.067133618e-08
3.681672854e-08
1.28531348e-07
4.347235081e-07
1.389006101e-06
4.08690774e-06
1.071040792e-05
8.830805637e-10
8.851586095e-10
8.958311192e-10
9.41688332e-10
1.131038447e-09
1.90163058e-09
5.002564028e-09
1.730534006e-08
6.514111695e-08
2.457652737e-07
8.991502897e-07
3.117060744e-06
9.953185873e-06
2.805036025e-05
6.524355725e-05
8.842223868e-10
8.867968958e-10
9.002286196e-10
9.593905147e-10
1.211386878e-09
2.275290274e-09
6.74362785e-09
2.537581581e-08
1.02145026e-07
4.122829274e-07
1.625823403e-06
6.1346096e-06
2.150808465e-05
6.662542781e-05
0.0001655756352
8.846819413e-10
8.874685797e-10
9.020982304e-10
9.671860846e-10
1.248072389e-09
2.453520109e-09
7.621419107e-09
2.974152275e-08
1.240151778e-07
5.22107819e-07
2.17358423e-06
8.802689972e-06
3.381332557e-05
0.0001171545323
0.0003246013541
8.842174208e-10
8.867920575e-10
9.002238999e-10
9.593859101e-10
1.21138175e-09
2.275280964e-09
6.743590307e-09
2.537561064e-08
1.021438691e-07
4.122765539e-07
1.625789622e-06
6.134439859e-06
2.150728366e-05
6.662214124e-05
0.0001655655777
8.830707247e-10
8.851491193e-10
8.958221467e-10
9.416805896e-10
1.131034121e-09
1.901635078e-09
5.002587224e-09
1.73053556e-08
6.514070605e-08
2.457612842e-07
8.991237826e-07
3.116911851e-06
9.95245601e-06
2.804731118e-05
6.523384221e-05
8.81807467e-10
8.833764845e-10
8.91267996e-10
9.240717481e-10
1.054077292e-09
1.558605335e-09
3.482708542e-09
1.067124031e-08
3.681599209e-08
1.285268859e-07
4.346998418e-07
1.388892446e-06
4.086405714e-06
1.070833967e-05
2.393013553e-05
8.810065727e-10
8.822725883e-10
8.885173728e-10
9.137446376e-10
1.010199209e-09
1.369063461e-09
2.673216856e-09
7.287791477e-09
2.308513045e-08
7.493810751e-08
2.361399926e-07
7.028970189e-07
1.932984753e-06
4.793044944e-06
1.043935914e-05
8.818697682e-10
8.833849005e-10
8.90960187e-10
9.221071008e-10
1.043785639e-09
1.50785568e-09
3.242077587e-09
9.572894925e-09
3.201154092e-08
1.085467788e-07
3.566420858e-07
1.107376995e-06
3.173040328e-06
8.142968417e-06
8.827786003e-10
8.84689639e-10
8.944281427e-10
9.357652046e-10
1.103919016e-09
1.776718521e-09
4.434082755e-09
1.476809253e-08
5.411339056e-08
1.995142723e-07
7.143514855e-07
2.426700745e-06
7.609846295e-06
2.114514227e-05
8.842226183e-10
8.867972664e-10
9.002291417e-10
9.593918607e-10
1.211392568e-09
2.275316632e-09
6.743754514e-09
2.5376433e-08
1.021480969e-07
4.122981831e-07
1.625899242e-06
6.134985922e-06
2.150994485e-05
6.663469677e-05
8.855392575e-10
8.887682924e-10
9.059212478e-10
9.836286748e-10
1.32656924e-09
2.837270188e-09
9.510081339e-09
3.905238219e-08
1.698009527e-07
7.453006773e-07
3.241360464e-06
1.3733077e-05
5.51508e-05
0.0001988827612
0.0005662693346
8.860718612e-10
8.895834062e-10
9.083760202e-10
9.945165282e-10
1.380629896e-09
3.115848325e-09
1.098154308e-08
4.701663832e-08
2.139986329e-07
9.964250999e-07
4.694439359e-06
2.219534939e-05
0.0001036045598
0.0004582885698
0.001689274511
8.855348946e-10
8.887638363e-10
9.059168624e-10
9.836242609e-10
1.326564269e-09
2.837261049e-09
9.510037037e-09
3.905209497e-08
1.697990581e-07
7.452885551e-07
3.241283244e-06
1.373260069e-05
5.514795439e-05
0.0001988672793
0.0005662021628
8.84213541e-10
8.867884617e-10
9.002207441e-10
9.593847139e-10
1.211388209e-09
2.275318485e-09
6.743756713e-09
2.537630858e-08
1.021467381e-07
4.122879525e-07
1.625832284e-06
6.134585882e-06
2.150771337e-05
6.662305308e-05
0.0001655662006
8.827648627e-10
8.846767038e-10
8.944166798e-10
9.35755977e-10
1.103913794e-09
1.776721013e-09
4.434089392e-09
1.476800381e-08
5.411240553e-08
1.995073971e-07
7.143114416e-07
2.426491812e-06
7.608861541e-06
2.114104866e-05
4.883471943e-05
8.81849591e-10
8.833700245e-10
8.9094909e-10
9.220998223e-10
1.043783371e-09
1.507860599e-09
3.242083462e-09
9.572810945e-09
3.201074522e-08
1.085419013e-07
3.566170703e-07
1.107263475e-06
3.172582474e-06
8.141359782e-06
1.802214983e-05
8.822056042e-10
8.838267877e-10
8.919629883e-10
9.256360255e-10
1.058284163e-09
1.569249961e-09
3.501266427e-09
1.065300107e-08
3.642717785e-08
1.261238892e-07
4.240177358e-07
1.351784061e-06
3.988914147e-06
1.053526459e-05
8.83161812e-10
8.852172849e-10
8.957443365e-10
9.407948009e-10
1.125991722e-09
1.876591486e-09
4.888206623e-09
1.682893184e-08
6.340515597e-08
2.408705123e-07
8.941141415e-07
3.175976101e-06
1.05113077e-05
3.099419632e-05
8.846825876e-10
8.874693197e-10
9.020994503e-10
9.671897652e-10
1.248088265e-09
2.453593419e-09
7.621769467e-09
2.974323687e-08
1.240236593e-07
5.22150106e-07
2.173797215e-06
8.803759255e-06
3.381860241e-05
0.0001171790404
8.860722801e-10
8.895838161e-10
9.083769141e-10
9.945192222e-10
1.380642111e-09
3.115908319e-09
1.098184903e-08
4.701824046e-08
2.140072636e-07
9.964735305e-07
4.694722996e-06
2.219709627e-05
0.0001036158577
0.000458365776
8.866352808e-10
8.904616461e-10
9.111027572e-10
1.006923003e-09
1.443828907e-09
3.452063152e-09
1.283447873e-08
5.764019868e-08
2.777574621e-07
1.399238237e-06
7.383465181e-06
4.11866006e-05
0.000245314321
0.001571703513
0.010897839
8.860680482e-10
8.895797129e-10
9.083729085e-10
9.945157763e-10
1.380639651e-09
3.115906148e-09
1.098182763e-08
4.701800191e-08
2.140052392e-07
9.964572843e-07
4.694597202e-06
2.219611382e-05
0.0001036080309
0.0004583015561
0.001689286566
8.846740838e-10
8.874610663e-10
9.02091805e-10
9.671833996e-10
1.248084942e-09
2.453597118e-09
7.621774551e-09
2.974308785e-08
1.240219696e-07
5.221366491e-07
2.173703373e-06
8.803152574e-06
3.381492308e-05
0.0001171586529
0.0003246043593
8.831489341e-10
8.852052096e-10
8.957334981e-10
9.407859271e-10
1.125985725e-09
1.876587595e-09
4.888184205e-09
1.682871488e-08
6.340355908e-08
2.40860672e-07
8.9405864e-07
3.175687781e-06
1.050993165e-05
3.0988395e-05
7.484613294e-05
8.821865287e-10
8.838128599e-10
8.919528117e-10
9.256296086e-10
1.058282085e-09
1.569252468e-09
3.501258301e-09
1.065285059e-08
3.642608274e-08
1.261176427e-07
4.239865829e-07
1.351643605e-06
3.98834609e-06
1.053325587e-05
2.371477789e-05
8.818649447e-10
8.833802919e-10
8.909561313e-10
9.221046879e-10
1.043789617e-09
1.507883633e-09
3.242195217e-09
9.573336744e-09
3.201310747e-08
1.085520089e-07
3.566582355e-07
1.107420461e-06
3.173132293e-06
8.143066226e-06
8.827741334e-10
8.846853206e-10
8.944243738e-10
9.357636405e-10
1.103926048e-09
1.776760643e-09
4.434265463e-09
1.476883379e-08
5.411627785e-08
1.995251018e-07
7.143895781e-07
2.426820563e-06
7.610142339e-06
2.114545809e-05
8.842184916e-10
8.867932317e-10
9.002258788e-10
9.593918721e-10
1.211406265e-09
2.275389851e-09
6.744086909e-09
2.537789456e-08
1.021543927e-07
4.123248598e-07
1.626007977e-06
6.135397071e-06
2.151126161e-05
6.663694218e-05
8.85535601e-10
8.887645789e-10
9.059183824e-10
9.836294861e-10
1.326586106e-09
2.837363457e-09
9.510535553e-09
3.905456534e-08
1.698115099e-07
7.45352208e-07
3.241611669e-06
1.373429047e-05
5.515646673e-05
0.0001989071511
8.860683328e-10
8.895800526e-10
9.083738786e-10
9.945191542e-10
1.38065446e-09
3.115977601e-09
1.098218181e-08
4.701981005e-08
2.140147705e-07
9.965092562e-07
4.694893491e-06
2.21978875e-05
0.0001036192629
0.0004583769787
8.855315469e-10
8.887606249e-10
9.059145955e-10
9.836261785e-10
1.326584056e-09
2.837363693e-09
9.510530101e-09
3.905444654e-08
1.698103969e-07
7.453437714e-07
3.2415552e-06
1.373394558e-05
5.515461494e-05
0.0001989000281
8.84210494e-10
8.867854014e-10
9.002187018e-10
9.593854236e-10
1.211401139e-09
2.27538471e-09
6.744059483e-09
2.537765647e-08
1.021527074e-07
4.123142145e-07
1.625946473e-06
6.135068586e-06
2.150965638e-05
6.663007022e-05
0.0001655886818
8.827620502e-10
8.846740251e-10
8.944144156e-10
9.357553893e-10
1.103920159e-09
1.776755424e-09
4.434239562e-09
1.476863161e-08
5.411495834e-08
1.995175388e-07
7.143505763e-07
2.42663647e-06
7.609357898e-06
2.114253243e-05
4.883812854e-05
8.818469836e-10
8.83367498e-10
8.909468665e-10
9.22098788e-10
1.043787012e-09
1.507881862e-09
3.24217144e-09
9.573151092e-09
3.201201529e-08
1.085464569e-07
3.566327471e-07
1.107314166e-06
3.172732296e-06
8.14173814e-06
1.802286353e-05
8.810182799e-10
8.822794491e-10
8.8852132e-10
9.137475292e-10
1.010206645e-09
1.369097351e-09
2.673366283e-09
7.288412133e-09
2.308760071e-08
7.494755299e-08
2.361743606e-07
7.030147325e-07
1.933355966e-06
4.794093403e-06
8.818131639e-10
8.833815429e-10
8.912726772e-10
9.240778429e-10
1.054092655e-09
1.558663029e-09
3.482948022e-09
1.06722421e-08
3.682010728e-08
1.285434124e-07
4.347636604e-07
1.389125643e-06
4.087192311e-06
1.071069581e-05
8.830720176e-10
8.851503857e-10
8.958242585e-10
9.416866102e-10
1.131056972e-09
1.901731787e-09
5.003006745e-09
1.730717405e-08
6.514852952e-08
2.457943995e-07
8.992599039e-07
3.117446222e-06
9.954403431e-06
2.805359534e-05
8.842145677e-10
8.867894537e-10
9.002227693e-10
9.593905131e-10
1.211411483e-09
2.275421908e-09
6.744228382e-09
2.537847906e-08
1.021567476e-07
4.123338875e-07
1.626040195e-06
6.13549807e-06
2.151149783e-05
6.663710775e-05
8.846747409e-10
8.874617701e-10
9.020930514e-10
9.671875682e-10
1.24810213e-09
2.453675864e-09
7.622144397e-09
2.974485135e-08
1.240305314e-07
5.221785442e-07
2.173909235e-06
8.804164076e-06
3.381979414e-05
0.0001171806411
8.842108526e-10
8.86785865e-10
9.002192148e-10
9.593872183e-10
1.211408557e-09
2.275418302e-09
6.744212533e-09
2.537837151e-08
1.021560239e-07
4.123295469e-07
1.626016924e-06
6.135384799e-06
2.151102191e-05
6.663559738e-05
8.830646494e-10
8.851431143e-10
8.958173722e-10
9.416801908e-10
1.131050381e-09
1.901720791e-09
5.002963868e-09
1.73069461e-08
6.514730804e-08
2.457881701e-07
8.992306642e-07
3.117323548e-06
9.95398148e-06
2.80527943e-05
8.818018265e-10
8.833710774e-10
8.912633816e-10
9.240701756e-10
1.054086706e-09
1.55865676e-09
3.482924325e-09
1.067209289e-08
3.681926571e-08
1.285391366e-07
4.347442177e-07
1.389045709e-06
4.086902769e-06
1.070979108e-05
2.393384109e-05
8.810013143e-10
8.822675134e-10
8.885130026e-10
9.137426363e-10
1.010204641e-09
1.369095761e-09
2.673347741e-09
7.288278748e-09
2.308687459e-08
7.494413279e-08
2.361598853e-07
7.029589871e-07
1.933162636e-06
4.793491486e-06
1.044023037e-05
8.800757108e-10
8.810681807e-10
8.859151174e-10
9.050492333e-10
9.761144596e-10
1.231866414e-09
2.127673405e-09
5.172606305e-09
1.515575878e-08
4.645930839e-08
1.39288873e-07
3.958509921e-07
1.044377747e-06
2.509276206e-06
8.807479591e-10
8.819591828e-10
8.879501125e-10
9.121670015e-10
1.00485406e-09
1.350376403e-09
2.609958628e-09
7.086564399e-09
2.250062681e-08
7.345724651e-08
2.331824605e-07
6.997724843e-07
1.939881184e-06
4.841367513e-06
8.818088654e-10
8.83377923e-10
8.912702964e-10
9.240772126e-10
1.054096133e-09
1.558679803e-09
3.48301106e-09
1.067246433e-08
3.682086272e-08
1.285457951e-07
4.347705593e-07
1.389142855e-06
4.087224489e-06
1.071072055e-05
8.827660551e-10
8.846780207e-10
8.944186008e-10
9.357611406e-10
1.103932776e-09
1.776799694e-09
4.434425241e-09
1.47694384e-08
5.411846959e-08
1.995325712e-07
7.144129212e-07
2.426883267e-06
7.610265105e-06
2.114551756e-05
8.831496694e-10
8.852060509e-10
8.957350194e-10
9.407902269e-10
1.126002237e-09
1.876657507e-09
4.888487322e-09
1.683003582e-08
6.340932043e-08
2.40885548e-07
8.941643407e-07
3.176123387e-06
1.051163143e-05
3.099439669e-05
8.827625267e-10
8.846745972e-10
8.944151518e-10
9.35757906e-10
1.103929832e-09
1.776795954e-09
4.434412884e-09
1.476937475e-08
5.411810417e-08
1.995307306e-07
7.144043336e-07
2.426847095e-06
7.610133437e-06
2.114513257e-05
8.818020054e-10
8.833712341e-10
8.912638583e-10
9.240711228e-10
1.054089551e-09
1.55866898e-09
3.482975609e-09
1.067230915e-08
3.682015633e-08
1.285427496e-07
4.347583858e-07
1.38909941e-06
4.087098407e-06
1.071048025e-05
8.807376825e-10
8.819496237e-10
8.879417709e-10
9.121597157e-10
1.004847208e-09
1.350365391e-09
2.609922262e-09
7.086408188e-09
2.249995589e-08
7.345452867e-08
2.331723687e-07
6.997393268e-07
1.93979389e-06
4.841260242e-06
8.800601328e-10
8.81057926e-10
8.859083606e-10
9.050455154e-10
9.761131694e-10
1.231865005e-09
2.127658141e-09
5.172511847e-09
1.515530435e-08
4.645740787e-08
1.392817363e-07
3.958268063e-07
1.044304993e-06
2.509080343e-06
5.393614597e-06
8.794725299e-10
8.803031291e-10
8.843010954e-10
8.997709776e-10
9.558120892e-10
1.151755245e-09
1.816245701e-09
3.996175555e-09
1.08748781e-08
3.1589947e-08
9.053896839e-08
2.471228717e-07
6.296768122e-07
1.475219111e-06
8.800696351e-10
8.810665656e-10
8.859159005e-10
9.050521617e-10
9.761206632e-10
1.231880082e-09
2.127709493e-09
5.172710453e-09
1.515606426e-08
4.64601589e-08
1.392910816e-07
3.958560412e-07
1.044387317e-06
2.509288992e-06
8.810079775e-10
8.822741516e-10
8.885195369e-10
9.137496462e-10
1.010215544e-09
1.369124701e-09
2.673451972e-09
7.288686177e-09
2.30884497e-08
7.495002599e-08
2.361809698e-07
7.030299179e-07
1.933382923e-06
4.794118639e-06
8.818507581e-10
8.833713428e-10
8.909510392e-10
9.221045862e-10
1.043800078e-09
1.50792603e-09
3.242343937e-09
9.573843976e-09
3.20147637e-08
1.085570983e-07
3.566723133e-07
1.107453678e-06
3.173188773e-06
8.1430904e-06
8.821873694e-10
8.8381377e-10
8.919542687e-10
9.256334356e-10
1.058296526e-09
1.569309942e-09
3.501492647e-09
1.065380243e-08
3.642988036e-08
1.261324816e-07
4.240425877e-07
1.351845256e-06
3.989023288e-06
1.053530562e-05
8.818474015e-10
8.833680698e-10
8.909479032e-10
9.221015404e-10
1.043796921e-09
1.507921128e-09
3.242330441e-09
9.573787319e-09
3.201451435e-08
1.085560501e-07
3.566681728e-07
1.107438583e-06
3.17314005e-06
8.142954514e-06
8.810015212e-10
8.822678632e-10
8.885135868e-10
9.137440052e-10
1.010209876e-09
1.369116078e-09
2.673427411e-09
7.288588141e-09
2.308804992e-08
7.494847e-08
2.361753353e-07
7.03011759e-07
1.933332797e-06
4.794008919e-06
8.800602628e-10
8.810580141e-10
8.859084385e-10
9.050460616e-10
9.761150397e-10
1.231871945e-09
2.127684394e-09
5.172610832e-09
1.515566633e-08
4.645869488e-08
1.392861538e-07
3.958416392e-07
1.044353569e-06
2.509241743e-06
8.79459555e-10
8.802954558e-10
8.842968789e-10
8.997698641e-10
9.558136144e-10
1.151757317e-09
1.81623961e-09
3.996121139e-09
1.087461926e-08
3.158893452e-08
9.053555309e-08
2.471130962e-07
6.296558332e-07
1.475207361e-06
)
;

boundaryField
{
    top
    {
        type            zeroGradient;
    }
    bottom
    {
        type            zeroGradient;
    }
    side-walls
    {
        type            zeroGradient;
    }
    inlet
    {
        type            zeroGradient;
    }
    outlet
    {
        type            zeroGradient;
    }
    procBoundary0to1
    {
        type            processor;
        value           nonuniform List<scalar> 
97
(
6.038530397e-06
5.393632703e-06
1.027343393e-05
1.963079944e-05
3.334695099e-05
4.3145398e-05
3.334650763e-05
1.963025847e-05
1.027290335e-05
6.038160317e-06
5.393632703e-06
5.393632703e-06
1.982515068e-05
2.393413653e-05
4.386534918e-05
8.660788437e-05
0.0001269554096
8.660603139e-05
4.386358045e-05
1.982406216e-05
1.027295142e-05
1.044042258e-05
2.393413653e-05
2.393413653e-05
0.0001149091454
0.0001655932734
0.0002729851789
0.0004801212681
0.0002729767521
0.0001149034784
4.386364458e-05
1.963032709e-05
1.802352822e-05
4.883986576e-05
0.0001655932734
0.0001655932734
0.0008150893066
0.001689520901
0.001879301721
0.0008150611966
0.0002729773533
8.660638612e-05
3.33467239e-05
2.371633457e-05
7.485224817e-05
0.000324637819
0.001689520901
0.001689520901
0.006465804352
0.001689515935
0.001879301317
0.000566267516
0.0004801228308
0.0001269556498
4.314565911e-05
1.802343634e-05
4.883863505e-05
0.0001655813858
0.0005662597046
0.001689515935
0.000566267516
0.000566267516
0.0002729844515
6.524336406e-05
8.660881181e-05
3.334745293e-05
1.044011189e-05
2.393201509e-05
6.523954013e-05
0.0001655814205
0.0003246377403
0.0001655806829
6.524336406e-05
6.524336406e-05
4.386532008e-05
1.057349021e-05
1.963110828e-05
5.393169007e-06
1.057271196e-05
2.393204464e-05
4.883865844e-05
7.485214816e-05
4.883817786e-05
2.393226687e-05
1.057349021e-05
1.057349021e-05
1.027340238e-05
3.139898216e-06
3.139673861e-06
5.393194082e-06
1.044015002e-05
1.802344531e-05
2.371629912e-05
1.802322692e-05
1.044005791e-05
5.393271401e-06
3.139898216e-06
)
;
    }
}


// ************************************************************************* //
