/*--------------------------------*- C++ -*----------------------------------*\
| =========                 |                                                 |
| \\      /  F ield         | OpenFOAM: The Open Source CFD Toolbox           |
|  \\    /   O peration     | Version:  4.x                                   |
|   \\  /    A nd           | Web:      www.OpenFOAM.org                      |
|    \\/     M anipulation  |                                                 |
\*---------------------------------------------------------------------------*/
FoamFile
{
    version     2.0;
    format      ascii;
    class       volScalarField;
    location    "4000";
    object      Cpv;
}
// * * * * * * * * * * * * * * * * * * * * * * * * * * * * * * * * * * * * * //

dimensions      [0 2 -2 -1 0 0 0];

internalField   nonuniform List<scalar> 
1175
(
1210.459609
1210.459607
1210.459624
1210.459611
1210.459619
1210.459621
1210.459613
1210.45962
1210.459636
1210.459646
1210.459663
1210.459666
1210.459683
1210.459737
1210.459839
1210.460578
1210.460566
1210.460588
1210.460591
1210.460577
1210.460561
1210.460572
1210.460582
1210.460572
1210.460578
1210.4606
1210.46062
1210.460672
1210.460787
1210.460972
1210.459787
1210.459758
1210.459779
1210.459767
1210.459764
1210.459757
1210.459768
1210.459749
1210.459773
1210.459752
1210.459762
1210.459787
1210.459875
1210.460058
1210.460383
1210.459688
1210.459695
1210.459701
1210.459699
1210.459701
1210.459706
1210.459695
1210.459706
1210.459713
1210.459743
1210.459775
1210.459838
1210.459979
1210.460297
1210.460926
1210.459517
1210.459519
1210.45952
1210.459517
1210.459517
1210.459522
1210.459524
1210.459527
1210.459508
1210.459515
1210.459522
1210.459572
1210.459745
1210.460138
1210.46098
1210.459751
1210.459755
1210.459762
1210.459767
1210.459775
1210.459778
1210.459759
1210.459766
1210.459754
1210.459765
1210.459755
1210.459805
1210.459936
1210.460253
1210.46087
1210.460092
1210.460104
1210.460099
1210.460127
1210.460115
1210.460113
1210.460105
1210.460106
1210.46011
1210.460112
1210.460123
1210.460156
1210.460202
1210.460406
1210.460771
1210.45929
1210.459285
1210.459274
1210.459284
1210.459283
1210.459297
1210.459266
1210.459252
1210.459236
1210.459218
1210.459223
1210.459244
1210.45928
1210.459382
1210.459567
1210.459639
1210.459647
1210.459651
1210.459639
1210.45964
1210.45964
1210.459643
1210.459636
1210.459639
1210.459641
1210.459632
1210.459653
1210.459672
1210.459715
1210.459826
1210.459658
1210.459658
1210.459664
1210.459672
1210.459653
1210.459663
1210.45967
1210.45966
1210.459659
1210.459679
1210.459677
1210.459699
1210.459726
1210.459811
1210.458999
1210.459018
1210.459011
1210.459018
1210.459023
1210.459012
1210.459003
1210.45901
1210.459
1210.459002
1210.459024
1210.459021
1210.459108
1210.459297
1210.459644
1210.459282
1210.459279
1210.459265
1210.459246
1210.459232
1210.459258
1210.459281
1210.459267
1210.45926
1210.459277
1210.459283
1210.459361
1210.459546
1210.459972
1210.460819
1210.459426
1210.459416
1210.459414
1210.459441
1210.459436
1210.459445
1210.459442
1210.459459
1210.459469
1210.459456
1210.459506
1210.459621
1210.459947
1210.460801
1210.462569
1210.461
1210.461005
1210.461019
1210.461031
1210.461024
1210.461042
1210.461043
1210.461014
1210.461028
1210.461035
1210.461065
1210.461214
1210.461712
1210.463036
1210.465819
1210.45961
1210.459605
1210.459596
1210.459605
1210.459583
1210.459597
1210.459605
1210.459596
1210.459575
1210.459592
1210.459632
1210.459712
1210.460048
1210.460883
1210.462635
1210.459736
1210.459739
1210.459753
1210.459768
1210.459784
1210.45977
1210.459776
1210.459775
1210.459779
1210.459795
1210.45981
1210.45989
1210.460039
1210.460456
1210.461312
1210.459838
1210.459831
1210.459823
1210.459792
1210.459789
1210.4598
1210.459792
1210.45982
1210.459812
1210.459816
1210.459841
1210.459882
1210.459962
1210.460136
1210.46049
1210.459808
1210.459765
1210.459792
1210.459785
1210.459776
1210.459783
1210.459774
1210.459787
1210.459789
1210.459803
1210.459813
1210.459816
1210.459888
1210.459966
1210.460168
1210.459905
1210.45991
1210.459898
1210.459892
1210.459887
1210.459904
1210.459899
1210.459895
1210.459912
1210.459905
1210.459913
1210.459942
1210.460036
1210.460214
1210.460748
1210.460747
1210.460745
1210.460767
1210.460757
1210.460751
1210.460769
1210.460772
1210.460781
1210.460792
1210.460791
1210.460822
1210.461008
1210.461395
1210.459458
1210.459459
1210.459458
1210.459463
1210.459482
1210.459467
1210.459467
1210.459452
1210.459426
1210.459462
1210.459535
1210.459682
1210.460109
1210.461283
1210.463652
1210.460425
1210.460456
1210.460489
1210.460477
1210.460467
1210.460473
1210.460468
1210.460434
1210.460461
1210.460461
1210.460554
1210.460842
1210.461816
1210.464666
1210.470927
1210.460364
1210.460351
1210.460337
1210.460321
1210.460342
1210.460349
1210.460349
1210.460342
1210.460341
1210.460366
1210.460468
1210.460868
1210.462441
1210.467701
1210.480828
1210.459326
1210.459331
1210.459338
1210.459313
1210.459297
1210.459309
1210.459301
1210.459288
1210.459273
1210.459282
1210.459354
1210.459642
1210.460616
1210.463476
1210.469738
1210.460462
1210.460459
1210.460451
1210.460433
1210.460413
1210.460434
1210.460406
1210.460402
1210.460417
1210.460438
1210.460503
1210.46063
1210.461061
1210.462192
1210.464559
1210.459566
1210.459572
1210.459581
1210.459586
1210.459568
1210.459577
1210.459587
1210.459596
1210.459588
1210.459614
1210.459619
1210.459704
1210.459878
1210.460304
1210.461125
1210.459677
1210.459675
1210.459673
1210.459669
1210.459651
1210.459657
1210.459659
1210.459668
1210.459675
1210.459662
1210.459683
1210.459701
1210.459768
1210.459939
1210.460318
1210.459696
1210.459715
1210.459723
1210.459713
1210.459698
1210.45967
1210.459688
1210.459684
1210.459701
1210.459718
1210.459733
1210.45976
1210.459904
1210.460229
1210.459559
1210.459554
1210.459564
1210.459568
1210.459591
1210.459588
1210.459589
1210.459576
1210.459575
1210.459582
1210.459618
1210.459727
1210.460068
1210.46092
1210.45963
1210.459616
1210.459638
1210.459639
1210.459617
1210.459599
1210.459586
1210.45961
1210.459614
1210.459635
1210.459714
1210.459958
1210.460925
1210.463774
1210.460524
1210.460505
1210.460512
1210.460494
1210.460486
1210.460509
1210.460488
1210.460492
1210.460458
1210.460516
1210.460683
1210.461358
1210.464003
1210.473113
1210.496338
1210.459397
1210.459405
1210.459402
1210.459438
1210.45944
1210.459434
1210.459434
1210.459419
1210.459427
1210.459473
1210.459717
1210.460805
1210.465958
1210.488383
1210.565201
1210.459676
1210.459661
1210.459656
1210.459675
1210.459674
1210.459648
1210.459651
1210.459652
1210.459706
1210.459735
1210.4599
1210.460554
1210.463164
1210.472261
1210.495504
1210.459543
1210.459534
1210.459585
1210.459611
1210.459599
1210.459585
1210.45959
1210.459609
1210.459629
1210.459644
1210.45972
1210.460014
1210.460984
1210.463869
1210.470123
1210.460385
1210.460369
1210.460368
1210.460352
1210.460354
1210.460374
1210.460334
1210.460327
1210.46033
1210.460341
1210.460382
1210.460492
1210.460819
1210.461646
1210.463367
1210.459741
1210.459744
1210.459744
1210.459759
1210.459743
1210.459756
1210.459757
1210.459767
1210.459783
1210.459741
1210.45976
1210.459823
1210.459962
1210.460301
1210.460919
1210.4596
1210.459616
1210.459631
1210.459622
1210.459618
1210.459629
1210.459617
1210.459628
1210.459612
1210.459641
1210.459653
1210.459719
1210.459884
1210.460316
1210.459858
1210.459865
1210.459843
1210.459816
1210.459816
1210.459816
1210.459812
1210.459839
1210.459804
1210.459806
1210.459844
1210.459989
1210.460457
1210.46176
1210.459884
1210.459874
1210.459886
1210.459879
1210.459842
1210.45985
1210.459875
1210.459892
1210.459922
1210.459941
1210.460047
1210.46049
1210.46208
1210.467335
1210.459553
1210.459557
1210.459553
1210.459557
1210.459558
1210.459547
1210.459567
1210.45957
1210.459573
1210.459651
1210.459881
1210.460982
1210.466101
1210.488537
1210.459587
1210.4596
1210.459588
1210.459582
1210.459582
1210.4596
1210.459593
1210.459599
1210.459604
1210.459704
1210.460081
1210.462225
1210.475139
1210.559043
1210.038534
1210.459288
1210.459293
1210.459286
1210.45927
1210.459271
1210.459266
1210.4593
1210.459301
1210.459303
1210.459343
1210.459579
1210.460674
1210.465814
1210.488247
1210.565111
1210.46024
1210.460252
1210.460242
1210.460239
1210.460268
1210.460289
1210.460276
1210.460286
1210.460302
1210.460337
1210.46044
1210.460873
1210.462436
1210.467729
1210.480843
1210.459295
1210.45931
1210.459316
1210.459311
1210.459314
1210.459317
1210.459339
1210.45935
1210.459328
1210.459302
1210.459336
1210.459471
1210.459924
1210.46119
1210.463974
1210.459683
1210.459687
1210.459681
1210.459675
1210.459691
1210.459696
1210.459708
1210.459703
1210.459712
1210.459729
1210.459768
1210.459834
1210.460002
1210.460425
1210.461265
1210.460387
1210.460364
1210.460351
1210.460344
1210.460339
1210.460337
1210.460327
1210.460321
1210.460327
1210.460301
1210.460346
1210.460398
1210.46053
1210.460834
1210.459777
1210.459777
1210.459764
1210.459738
1210.459745
1210.459734
1210.459743
1210.459764
1210.459769
1210.459771
1210.459808
1210.459934
1210.460258
1210.461126
1210.46015
1210.460169
1210.460151
1210.46015
1210.460135
1210.460148
1210.460148
1210.460175
1210.460192
1210.460237
1210.460299
1210.460605
1210.461565
1210.46444
1210.459432
1210.459436
1210.459445
1210.459454
1210.459467
1210.459448
1210.459452
1210.459464
1210.459512
1210.459547
1210.459689
1210.460344
1210.462959
1210.472064
1210.460093
1210.460089
1210.460071
1210.460065
1210.460072
1210.46009
1210.460098
1210.460118
1210.460122
1210.460136
1210.460372
1210.461471
1210.466594
1210.489017
1210.459509
1210.459525
1210.459539
1210.459544
1210.459552
1210.459553
1210.459547
1210.459545
1210.459557
1210.459597
1210.459748
1210.460439
1210.463078
1210.472158
1210.459866
1210.459838
1210.459828
1210.459844
1210.459801
1210.459798
1210.459802
1210.459819
1210.459813
1210.459819
1210.459902
1210.460197
1210.461166
1210.464047
1210.47033
1210.460005
1210.459983
1210.459967
1210.459982
1210.45996
1210.459969
1210.459989
1210.45998
1210.459988
1210.460021
1210.460038
1210.460164
1210.460496
1210.461329
1210.463087
1210.459707
1210.459718
1210.459733
1210.459748
1210.459771
1210.459758
1210.459767
1210.459775
1210.459755
1210.459743
1210.45977
1210.459828
1210.459962
1210.460281
1210.4609
1210.459732
1210.459717
1210.459757
1210.459754
1210.459735
1210.459735
1210.459745
1210.459761
1210.459763
1210.459758
1210.459765
1210.459808
1210.4599
1210.460096
1210.459213
1210.459212
1210.459205
1210.459222
1210.459237
1210.45924
1210.459243
1210.459243
1210.459246
1210.459265
1210.459282
1210.459341
1210.459498
1210.459925
1210.460465
1210.460492
1210.460513
1210.460529
1210.460513
1210.460505
1210.460482
1210.460481
1210.46047
1210.46044
1210.460489
1210.460652
1210.461112
1210.462252
1210.459883
1210.459869
1210.459849
1210.459854
1210.459835
1210.459864
1210.459868
1210.459895
1210.459865
1210.459887
1210.45998
1210.460259
1210.461257
1210.464109
1210.46001
1210.460015
1210.460036
1210.460014
1210.460031
1210.460025
1210.460019
1210.460025
1210.459995
1210.460001
1210.460131
1210.460544
1210.462135
1210.467435
1210.459729
1210.459748
1210.459746
1210.459748
1210.459754
1210.459758
1210.45977
1210.459769
1210.459776
1210.459809
1210.459888
1210.460191
1210.46115
1210.464007
1210.459776
1210.459793
1210.459767
1210.459744
1210.459743
1210.459754
1210.459765
1210.459767
1210.459743
1210.459763
1210.459789
1210.459919
1210.460321
1210.461451
1210.459951
1210.459952
1210.459929
1210.459932
1210.459925
1210.459914
1210.45992
1210.459934
1210.459962
1210.459969
1210.459978
1210.46004
1210.460204
1210.460647
1210.46148
1210.459497
1210.459532
1210.459525
1210.459515
1210.459521
1210.45953
1210.459538
1210.459517
1210.459528
1210.45953
1210.459557
1210.459584
1210.459654
1210.459827
1210.460179
1210.459761
1210.459756
1210.459756
1210.459734
1210.459745
1210.459741
1210.459724
1210.459715
1210.459713
1210.459704
1210.459719
1210.459738
1210.459776
1210.459874
1210.459949
1210.45993
1210.459937
1210.459954
1210.459976
1210.459974
1210.459976
1210.460007
1210.459994
1210.45998
1210.46
1210.460065
1210.460158
1210.460333
1210.4597
1210.459713
1210.459696
1210.459694
1210.459693
1210.459682
1210.45966
1210.459667
1210.459664
1210.459668
1210.459672
1210.459696
1210.459869
1210.46031
1210.45978
1210.459777
1210.4598
1210.459785
1210.459786
1210.459799
1210.459828
1210.459794
1210.459789
1210.459805
1210.459878
1210.45997
1210.46029
1210.461144
1210.459605
1210.459628
1210.459599
1210.45959
1210.459564
1210.459575
1210.459561
1210.459563
1210.459587
1210.459595
1210.459618
1210.459782
1210.46024
1210.461558
1210.459907
1210.459895
1210.459917
1210.459903
1210.459891
1210.459909
1210.45991
1210.459881
1210.459891
1210.459908
1210.459967
1210.460082
1210.460421
1210.461244
1210.45906
1210.459063
1210.459053
1210.459056
1210.459062
1210.459033
1210.459032
1210.459042
1210.459067
1210.459078
1210.459103
1210.459154
1210.459314
1210.459737
1210.458633
1210.458647
1210.45868
1210.458663
1210.45868
1210.458673
1210.458664
1210.458629
1210.45862
1210.458611
1210.458628
1210.458684
1210.458751
1210.458932
1210.459651
1210.459634
1210.459648
1210.459652
1210.459648
1210.459658
1210.459659
1210.459661
1210.459687
1210.459686
1210.459671
1210.459668
1210.459702
1210.4598
1210.459991
1210.459389
1210.459385
1210.45939
1210.459403
1210.459404
1210.459416
1210.459425
1210.459417
1210.459427
1210.459432
1210.459419
1210.459417
1210.459426
1210.459485
1210.460197
1210.460187
1210.460193
1210.460204
1210.460199
1210.460182
1210.460198
1210.460212
1210.46021
1210.460221
1210.460226
1210.460223
1210.460278
1210.460362
1210.460137
1210.460136
1210.460136
1210.460134
1210.460138
1210.46014
1210.460127
1210.460129
1210.460133
1210.460139
1210.460139
1210.460158
1210.46023
1210.460399
1210.459904
1210.459893
1210.459912
1210.459906
1210.45989
1210.459868
1210.459874
1210.459865
1210.459882
1210.459889
1210.459913
1210.459965
1210.460114
1210.460438
1210.459489
1210.459494
1210.459496
1210.459489
1210.459502
1210.459484
1210.459478
1210.459492
1210.459489
1210.459474
1210.459474
1210.459538
1210.459712
1210.460126
1210.459777
1210.459771
1210.459767
1210.459759
1210.459748
1210.459747
1210.459763
1210.459745
1210.459738
1210.459754
1210.459777
1210.459821
1210.459954
1210.460291
1210.460027
1210.460024
1210.460001
1210.460015
1210.460013
1210.460008
1210.460022
1210.460015
1210.460035
1210.460038
1210.460045
1210.460064
1210.460151
1210.460334
1210.459909
1210.45992
1210.45993
1210.459908
1210.459907
1210.459909
1210.459922
1210.459922
1210.459916
1210.459919
1210.459916
1210.459931
1210.459971
1210.460051
1210.459792
1210.459782
1210.459795
1210.459802
1210.459813
1210.459789
1210.459776
1210.459785
1210.459768
1210.459764
1210.459767
1210.459788
1210.459826
1210.459875
)
;

boundaryField
{
    top
    {
        type            calculated;
        value           nonuniform List<scalar> 
134
(
1210.459639
1210.459808
1210.459677
1210.459741
1210.459683
1210.459707
1210.459497
1210.459651
1210.459792
1210.459647
1210.459765
1210.459675
1210.459744
1210.459687
1210.459718
1210.459532
1210.459634
1210.459782
1210.459651
1210.459792
1210.459673
1210.459744
1210.459681
1210.459733
1210.459525
1210.459648
1210.459795
1210.459639
1210.459785
1210.459669
1210.459759
1210.459675
1210.459748
1210.459515
1210.459652
1210.459802
1210.45964
1210.459776
1210.459651
1210.459743
1210.459691
1210.459771
1210.459521
1210.459648
1210.459813
1210.45964
1210.459783
1210.459657
1210.459756
1210.459696
1210.459758
1210.45953
1210.459658
1210.459789
1210.459643
1210.459774
1210.459659
1210.459757
1210.459708
1210.459767
1210.459538
1210.459659
1210.459776
1210.459636
1210.459787
1210.459668
1210.459767
1210.459703
1210.459775
1210.459517
1210.459661
1210.459785
1210.459639
1210.459789
1210.459675
1210.459783
1210.459712
1210.459755
1210.459528
1210.459687
1210.459768
1210.459641
1210.459803
1210.459662
1210.459741
1210.459729
1210.459743
1210.45953
1210.459686
1210.459764
1210.459632
1210.459813
1210.459683
1210.45976
1210.459768
1210.45977
1210.459557
1210.459671
1210.459767
1210.459653
1210.459816
1210.459701
1210.459823
1210.459834
1210.459828
1210.459584
1210.459668
1210.459788
1210.459672
1210.459888
1210.459768
1210.459962
1210.460002
1210.459962
1210.459654
1210.459702
1210.459826
1210.459715
1210.459966
1210.459939
1210.460301
1210.460425
1210.460281
1210.459827
1210.4598
1210.459875
1210.459826
1210.460168
1210.460318
1210.460919
1210.461265
1210.4609
1210.460179
1210.459991
)
;
    }
    bottom
    {
        type            calculated;
        value           nonuniform List<scalar> 
127
(
1210.459609
1210.459658
1210.459905
1210.459696
1210.4596
1210.460387
1210.459732
1210.459761
1210.459389
1210.459607
1210.459658
1210.45991
1210.459715
1210.459616
1210.460364
1210.459717
1210.459756
1210.459385
1210.459624
1210.459664
1210.459898
1210.459723
1210.459631
1210.460351
1210.459757
1210.459756
1210.45939
1210.459611
1210.459672
1210.459892
1210.459713
1210.459622
1210.460344
1210.459754
1210.459734
1210.459403
1210.459619
1210.459653
1210.459887
1210.459698
1210.459618
1210.460339
1210.459735
1210.459745
1210.459404
1210.459621
1210.459663
1210.459904
1210.45967
1210.459629
1210.460337
1210.459735
1210.459741
1210.459416
1210.459613
1210.45967
1210.459899
1210.459688
1210.459617
1210.460327
1210.459745
1210.459724
1210.459425
1210.45962
1210.45966
1210.459895
1210.459684
1210.459628
1210.460321
1210.459761
1210.459715
1210.459417
1210.459636
1210.459659
1210.459912
1210.459701
1210.459612
1210.460327
1210.459763
1210.459713
1210.459427
1210.459646
1210.459679
1210.459905
1210.459718
1210.459641
1210.460301
1210.459758
1210.459704
1210.459432
1210.459663
1210.459677
1210.459913
1210.459733
1210.459653
1210.460346
1210.459765
1210.459719
1210.459419
1210.459666
1210.459699
1210.459942
1210.45976
1210.459719
1210.460398
1210.459808
1210.459738
1210.459417
1210.459683
1210.459726
1210.460036
1210.459904
1210.459884
1210.46053
1210.4599
1210.459776
1210.459426
1210.459737
1210.459811
1210.460214
1210.460229
1210.460316
1210.460834
1210.460096
1210.459874
1210.459485
1210.459839
)
;
    }
    side-walls
    {
        type            calculated;
        value           nonuniform List<scalar> 
261
(
1210.459609
1210.460578
1210.459787
1210.459688
1210.459517
1210.459751
1210.460092
1210.45929
1210.459639
1210.459607
1210.460566
1210.459758
1210.459695
1210.459519
1210.459755
1210.460104
1210.459285
1210.459647
1210.459624
1210.460588
1210.459779
1210.459701
1210.45952
1210.459762
1210.460099
1210.459274
1210.459651
1210.459611
1210.460591
1210.459767
1210.459699
1210.459517
1210.459767
1210.460127
1210.459284
1210.459639
1210.459619
1210.460577
1210.459764
1210.459701
1210.459517
1210.459775
1210.460115
1210.459283
1210.45964
1210.459621
1210.460561
1210.459757
1210.459706
1210.459522
1210.459778
1210.460113
1210.459297
1210.45964
1210.459613
1210.460572
1210.459768
1210.459695
1210.459524
1210.459759
1210.460105
1210.459266
1210.459643
1210.45962
1210.460582
1210.459749
1210.459706
1210.459527
1210.459766
1210.460106
1210.459252
1210.459636
1210.459636
1210.460572
1210.459773
1210.459713
1210.459508
1210.459754
1210.46011
1210.459236
1210.459639
1210.459646
1210.460578
1210.459752
1210.459743
1210.459515
1210.459765
1210.460112
1210.459218
1210.459641
1210.459663
1210.4606
1210.459762
1210.459775
1210.459522
1210.459755
1210.460123
1210.459223
1210.459632
1210.459666
1210.46062
1210.459787
1210.459838
1210.459572
1210.459805
1210.460156
1210.459244
1210.459653
1210.459683
1210.460672
1210.459875
1210.459979
1210.459745
1210.459936
1210.460202
1210.45928
1210.459672
1210.459737
1210.460787
1210.460058
1210.460297
1210.460138
1210.460253
1210.460406
1210.459382
1210.459715
1210.459839
1210.460972
1210.460383
1210.460926
1210.46098
1210.46087
1210.460771
1210.459567
1210.459826
1210.459389
1210.460197
1210.460137
1210.459904
1210.459489
1210.459777
1210.460027
1210.459909
1210.459792
1210.459385
1210.460187
1210.460136
1210.459893
1210.459494
1210.459771
1210.460024
1210.45992
1210.459782
1210.45939
1210.460193
1210.460136
1210.459912
1210.459496
1210.459767
1210.460001
1210.45993
1210.459795
1210.459403
1210.460204
1210.460134
1210.459906
1210.459489
1210.459759
1210.460015
1210.459908
1210.459802
1210.459404
1210.460199
1210.460138
1210.45989
1210.459502
1210.459748
1210.460013
1210.459907
1210.459813
1210.459416
1210.460182
1210.46014
1210.459868
1210.459484
1210.459747
1210.460008
1210.459909
1210.459789
1210.459425
1210.460198
1210.460127
1210.459874
1210.459478
1210.459763
1210.460022
1210.459922
1210.459776
1210.459417
1210.460212
1210.460129
1210.459865
1210.459492
1210.459745
1210.460015
1210.459922
1210.459785
1210.459427
1210.46021
1210.460133
1210.459882
1210.459489
1210.459738
1210.460035
1210.459916
1210.459768
1210.459432
1210.460221
1210.460139
1210.459889
1210.459474
1210.459754
1210.460038
1210.459919
1210.459764
1210.459419
1210.460226
1210.460139
1210.459913
1210.459474
1210.459777
1210.460045
1210.459916
1210.459767
1210.459417
1210.460223
1210.460158
1210.459965
1210.459538
1210.459821
1210.460064
1210.459931
1210.459788
1210.459426
1210.460278
1210.46023
1210.460114
1210.459712
1210.459954
1210.460151
1210.459971
1210.459826
1210.459485
1210.460362
1210.460399
1210.460438
1210.460126
1210.460291
1210.460334
1210.460051
1210.459875
)
;
    }
    inlet
    {
        type            calculated;
        value           nonuniform List<scalar> 
81
(
1210.459609
1210.460578
1210.459787
1210.459688
1210.459517
1210.459751
1210.460092
1210.45929
1210.459639
1210.459658
1210.458999
1210.459282
1210.459426
1210.461
1210.45961
1210.459736
1210.459838
1210.459808
1210.459905
1210.460748
1210.459458
1210.460425
1210.460364
1210.459326
1210.460462
1210.459566
1210.459677
1210.459696
1210.459559
1210.45963
1210.460524
1210.459397
1210.459676
1210.459543
1210.460385
1210.459741
1210.4596
1210.459858
1210.459884
1210.459553
1210.459587
1210.459288
1210.46024
1210.459295
1210.459683
1210.460387
1210.459777
1210.46015
1210.459432
1210.460093
1210.459509
1210.459866
1210.460005
1210.459707
1210.459732
1210.459213
1210.460465
1210.459883
1210.46001
1210.459729
1210.459776
1210.459951
1210.459497
1210.459761
1210.459949
1210.4597
1210.45978
1210.459605
1210.459907
1210.45906
1210.458633
1210.459651
1210.459389
1210.460197
1210.460137
1210.459904
1210.459489
1210.459777
1210.460027
1210.459909
1210.459792
)
;
    }
    outlet
    {
        type            calculated;
        value           nonuniform 0();
    }
    procBoundary0to1
    {
        type            processor;
        value           nonuniform List<scalar> 
97
(
1210.460025
1210.460019
1210.461284
1210.461001
1210.461911
1210.462195
1210.461863
1210.461315
1210.459877
1210.460013
1210.460019
1210.460019
1210.460242
1210.462229
1210.462066
1210.464927
1210.469108
1210.46502
1210.46261
1210.461085
1210.460471
1210.460584
1210.462229
1210.462229
1210.466778
1210.470041
1210.477713
1210.490666
1210.47654
1210.467689
1210.462394
1210.460917
1210.460844
1210.46269
1210.470041
1210.470041
1210.512075
1210.565417
1210.577224
1210.511227
1210.476913
1210.465746
1210.461886
1210.461144
1210.464519
1210.480465
1210.565417
1210.565417
1209.759269
1210.565869
1210.577149
1210.495414
1210.490658
1210.467294
1210.462498
1210.461452
1210.462882
1210.470703
1210.495308
1210.565869
1210.495414
1210.495414
1210.477104
1210.463805
1210.46546
1210.461872
1210.46044
1210.460766
1210.464598
1210.470368
1210.480555
1210.470283
1210.463805
1210.463805
1210.462757
1210.459308
1210.460733
1210.46006
1210.460673
1210.461127
1210.462899
1210.464326
1210.462982
1210.460565
1210.459308
1210.459308
1210.4603
1210.45997
1210.459597
1210.460543
1210.460765
1210.46107
1210.460956
1210.460928
1210.460667
1210.46022
1210.45997
)
;
    }
}


// ************************************************************************* //
