/*--------------------------------*- C++ -*----------------------------------*\
| =========                 |                                                 |
| \\      /  F ield         | OpenFOAM: The Open Source CFD Toolbox           |
|  \\    /   O peration     | Version:  4.x                                   |
|   \\  /    A nd           | Web:      www.OpenFOAM.org                      |
|    \\/     M anipulation  |                                                 |
\*---------------------------------------------------------------------------*/
FoamFile
{
    version     2.0;
    format      ascii;
    class       volScalarField;
    location    "4000";
    object      molarConc;
}
// * * * * * * * * * * * * * * * * * * * * * * * * * * * * * * * * * * * * * //

dimensions      [0 -3 0 0 1 0 0];

internalField   nonuniform List<scalar> 
1175
(
9.963286374
9.963286454
9.96328553
9.96328626
9.96328581
9.963285684
9.96328613
9.963285733
9.963284909
9.963284427
9.963283715
9.963284097
9.963284472
9.963284464
9.963284592
9.963233111
9.963233793
9.963232592
9.963232399
9.963233173
9.963234052
9.963233486
9.963232911
9.963233502
9.963233303
9.963232388
9.963232194
9.963231609
9.963230333
9.963230217
9.963276594
9.963278156
9.963277017
9.963277671
9.96327783
9.963278233
9.963277636
9.963278666
9.963277421
9.963278754
9.963278781
9.963279015
9.963278441
9.96327831
9.963280082
9.963281992
9.963281621
9.963281324
9.963281413
9.963281319
9.963281011
9.963281615
9.963281029
9.963280771
9.963279345
9.963278468
9.963277636
9.963277064
9.963276847
9.963276585
9.963291379
9.963291277
9.963291252
9.963291394
9.963291416
9.963291121
9.96329102
9.963290866
9.963292034
9.963291926
9.96329259
9.963293062
9.963292745
9.963293843
9.963293355
9.963278575
9.963278306
9.963277959
9.963277652
9.963277253
9.963277049
9.96327813
9.963277745
9.963278476
9.963278181
9.963279551
9.963279409
9.9632794
9.963279239
9.963279662
9.963259794
9.96325914
9.96325946
9.963257885
9.963258578
9.963258647
9.963259113
9.963259049
9.963258927
9.963258983
9.963258943
9.963258751
9.963260471
9.963259199
9.963258756
9.963303856
9.963304128
9.963304741
9.963304189
9.963304282
9.963303461
9.96330522
9.96330595
9.963306905
9.963307974
9.963308024
9.96330776
9.963308042
9.963307547
9.963307397
9.96328469
9.963284245
9.963284021
9.963284687
9.96328463
9.963284675
9.963284463
9.96328489
9.963284758
9.963284673
9.963285382
9.963284803
9.963285072
9.96328565
9.963285344
9.963283685
9.963283661
9.963283354
9.963282896
9.963283941
9.963283368
9.963283021
9.963283581
9.963283653
9.963282691
9.963283114
9.963282794
9.963283571
9.963283983
9.963319865
9.963318824
9.963319197
9.963318815
9.96331854
9.963319117
9.963319642
9.963319293
9.963319882
9.963319956
9.963319277
9.963321077
9.963320581
9.963320288
9.963321159
9.963304286
9.963304457
9.963305237
9.963306305
9.963307065
9.963305639
9.963304386
9.963305146
9.963305661
9.963305026
9.963305751
9.963304818
9.963304017
9.963303573
9.963302986
9.963296398
9.963296927
9.963297078
9.963295559
9.963295832
9.963295374
9.963295509
9.963294644
9.96329423
9.963295424
9.963294477
9.963294112
9.963294187
9.963294262
9.963293319
9.963209939
9.963209694
9.963208906
9.963208225
9.963208646
9.963207654
9.963207579
9.963209262
9.963208641
9.963208846
9.963209491
9.963209195
9.963207346
9.963205713
9.963205122
9.963286304
9.963286543
9.963287055
9.963286584
9.963287766
9.963287014
9.963286592
9.963287091
9.963288398
9.963287951
9.963287584
9.963289116
9.963288654
9.963289761
9.963289686
9.963279376
9.9632792
9.963278457
9.963277591
9.963276713
9.963277522
9.963277186
9.96327728
9.963277159
9.963276578
9.963276814
9.963275736
9.963276927
9.963277018
9.963275889
9.963273789
9.96327416
9.963274611
9.963276318
9.963276479
9.963275844
9.963276279
9.963274807
9.963275271
9.963275241
9.963274435
9.963273771
9.963273707
9.963274203
9.963274672
9.963275394
9.963277762
9.963276313
9.963276678
9.963277165
9.963276796
9.96327727
9.963276577
9.963276497
9.96327583
9.963275643
9.963276358
9.963274642
9.963275446
9.963274378
9.963270083
9.963269817
9.963270478
9.963270826
9.96327109
9.963270172
9.963270435
9.963270685
9.963269799
9.96327033
9.963270447
9.963270484
9.963269582
9.963269771
9.963223785
9.963223835
9.963223942
9.963222757
9.963223285
9.963223602
9.963222626
9.963222504
9.963222116
9.963221826
9.963222916
9.963224564
9.963223694
9.963225426
9.963294663
9.963294614
9.963294642
9.963294358
9.963293328
9.963294128
9.963294181
9.963295031
9.963296651
9.963295271
9.963293542
9.963293175
9.963293425
9.963291777
9.963290797
9.963241516
9.963239829
9.963237988
9.963238683
9.963239241
9.963238873
9.963239194
9.963241115
9.96323991
9.963240997
9.963240097
9.963239911
9.963239821
9.96323988
9.963239524
9.963244907
9.963245592
9.963246389
9.963247222
9.963246069
9.963245727
9.963245736
9.963246185
9.963246562
9.963246604
9.963246698
9.963247755
9.963248191
9.963248616
9.963247834
9.963301919
9.963301608
9.963301232
9.96330263
9.963303471
9.963302818
9.963303303
9.963304081
9.963305177
9.963305755
9.963305982
9.963305824
9.963305723
9.963305223
9.963304838
9.963239521
9.963239672
9.9632401
9.963241074
9.963242177
9.963241032
9.963242606
9.963242876
9.963242201
9.963241641
9.963240372
9.963241092
9.963241125
9.963241861
9.963240967
9.963288732
9.963288404
9.963287904
9.96328764
9.963288588
9.963288085
9.963287555
9.963287101
9.963287618
9.963286539
9.963287323
9.96328593
9.963285781
9.963285356
9.963286186
9.963282591
9.963282739
9.963282822
9.963283072
9.963284042
9.963283728
9.963283627
9.963283111
9.963282805
9.963283675
9.963283123
9.963283753
9.963284324
9.963284844
9.963283667
9.963281555
9.963280522
9.963280089
9.963280648
9.963281489
9.963283006
9.963282013
9.963282248
9.963281395
9.963280741
9.9632808
9.963281916
9.963281161
9.963280591
9.963289093
9.96328935
9.963288815
9.963288618
9.963287338
9.963287488
9.963287436
9.963288234
9.963288411
9.96328854
9.963288315
9.963288283
9.963287576
9.963287749
9.963285191
9.963285943
9.963284773
9.963284699
9.963285912
9.963286883
9.963287621
9.963286378
9.963286439
9.963286374
9.963286205
9.963288464
9.963288749
9.963288935
9.963236105
9.963237157
9.963236764
9.963237758
9.963238171
9.963236949
9.963238111
9.963238006
9.963240329
9.963239132
9.963238589
9.963237939
9.963236485
9.963235123
9.963234938
9.963298005
9.96329755
9.963297729
9.963295739
9.963295623
9.963295981
9.963296006
9.963296947
9.9632971
9.963297302
9.963296709
9.963297704
9.963297332
9.963296941
9.963351247
9.963282648
9.963283486
9.96328375
9.963282723
9.963282776
9.963284226
9.963284067
9.963284122
9.96328162
9.963282004
9.963281594
9.963282116
9.963282555
9.963281822
9.963280485
9.96328995
9.963290471
9.963287672
9.963286238
9.963286897
9.963287667
9.963287398
9.963286416
9.963285589
9.963285852
9.963285906
9.963285374
9.963285507
9.963283687
9.963283677
9.963243749
9.963244586
9.963244652
9.963245515
9.963245458
9.963244317
9.963246554
9.963246978
9.963246946
9.963246833
9.963246364
9.963246296
9.963246305
9.963247838
9.963249487
9.963279109
9.963278922
9.963278957
9.963278123
9.963279
9.963278267
9.963278205
9.963277678
9.963276891
9.963279467
9.963279289
9.963278425
9.963277962
9.96327662
9.963276954
9.963286845
9.963285956
9.96328513
9.963285627
9.963285844
9.963285241
9.963285942
9.96328532
9.963286287
9.963285031
9.96328541
9.963284982
9.963285107
9.963284104
9.96327269
9.963272279
9.963273476
9.963274962
9.963274955
9.963275011
9.96327523
9.963273762
9.963275851
9.963276382
9.963276519
9.963276512
9.963276247
9.963275804
9.96327126
9.963271812
9.963271128
9.963271496
9.96327358
9.963273107
9.963271772
9.963270894
9.963269589
9.963269899
9.96326986
9.963268543
9.963268022
9.963268807
9.963289405
9.963289179
9.963289436
9.963289224
9.96328915
9.963289784
9.963288717
9.963288643
9.963289083
9.963287487
9.963287715
9.963287979
9.963289486
9.963288759
9.963287546
9.963286842
9.963287489
9.963287811
9.96328781
9.963286864
9.963287295
9.963287104
9.963287593
9.963285993
9.96328603
9.963285626
9.963284989
9.963281333
10.02423903
9.963303983
9.963303703
9.963304074
9.963304949
9.963304902
9.963305207
9.963303336
9.963303447
9.963303907
9.963304418
9.963304269
9.963304898
9.963305213
9.963304475
9.963356268
9.963251715
9.963251039
9.963251572
9.963251774
9.963250139
9.963248979
9.963249748
9.963249279
9.963248734
9.963248183
9.963248275
9.963247499
9.963248488
9.96324711
9.963246993
9.963303594
9.96330278
9.963302453
9.963302718
9.963302543
9.963302373
9.963301189
9.963300619
9.963301988
9.963304057
9.963304473
9.963304948
9.96330555
9.963307069
9.963306432
9.963282272
9.963282044
9.96328241
9.963282709
9.963281872
9.963281553
9.963280945
9.963281224
9.963280824
9.963280217
9.96327908
9.963278695
9.963278592
9.963278085
9.963277741
9.963243628
9.963244877
9.963245578
9.96324598
9.96324625
9.963246354
9.96324692
9.963247251
9.963247033
9.963248715
9.963247089
9.96324686
9.963246762
9.96324736
9.96327714
9.963277144
9.963277817
9.963279238
9.963278898
9.963279503
9.963279024
9.963277889
9.963277731
9.963278119
9.963277907
9.96327692
9.963277119
9.963276451
9.963256612
9.963255582
9.963256583
9.96325662
9.963257464
9.963256725
9.96325676
9.963255336
9.963254671
9.963253265
9.963254091
9.963252939
9.963253575
9.963252364
9.96329608
9.963295833
9.963295348
9.963294841
9.963294155
9.963295205
9.96329498
9.963294438
9.963292291
9.963292319
9.963293187
9.963293655
9.963293822
9.963292817
9.963259784
9.963259996
9.963260948
9.963261332
9.963260898
9.96325995
9.963259535
9.963258544
9.963258897
9.963260878
9.963260751
9.963261154
9.96326241
9.963262449
9.963291831
9.963290967
9.963290198
9.96328991
9.963289475
9.96328946
9.963289793
9.963289985
9.963289774
9.963289598
9.963289976
9.963288416
9.963287319
9.963287616
9.963272222
9.963273783
9.963274326
9.963273422
9.963275799
9.963275956
9.963275743
9.963274922
9.963275506
9.963276221
9.963275915
9.963275332
9.963275482
9.963273888
9.963272397
9.963264613
9.963265804
9.963266673
9.963265873
9.963267046
9.9632666
9.963265493
9.963266046
9.963265724
9.963264396
9.963265274
9.96326427
9.963264059
9.963265296
9.963264901
9.963280947
9.963280345
9.963279521
9.963278708
9.96327747
9.963278193
9.963277655
9.963277248
9.963278435
9.963279387
9.963278737
9.963278182
9.963277951
9.963277705
9.963277989
9.963279598
9.963280406
9.963278204
9.963278373
9.963279429
9.963279431
9.963278897
9.963278014
9.963277978
9.963278426
9.963278583
9.963277855
9.963277067
9.963276241
9.963308079
9.963308141
9.963308557
9.963307598
9.963306762
9.963306638
9.963306445
9.963306486
9.963306437
9.963305682
9.963305802
9.963305909
9.963306608
9.963306194
9.963239344
9.963237866
9.963236688
9.963235824
9.963236712
9.963237149
9.963238436
9.963238532
9.963239298
9.963241584
9.963241117
9.963239894
9.963238373
9.96323859
9.963271279
9.963272067
9.963273164
9.963272891
9.963273937
9.963272348
9.963272149
9.963270746
9.963272622
9.963272535
9.963271603
9.963271934
9.963270534
9.963270542
9.963264321
9.963264062
9.963262911
9.963264119
9.96326316
9.96326353
9.963263832
9.96326359
9.963265564
9.963266629
9.963265213
9.963265571
9.963265039
9.963263308
9.963279733
9.9632787
9.963278822
9.963278689
9.963278404
9.96327817
9.963277547
9.963277636
9.963277554
9.963276767
9.963276654
9.963275667
9.963276399
9.963276124
9.963277174
9.963276233
9.963277684
9.963278927
9.963279003
9.963278378
9.963277809
9.963277733
9.963279213
9.963278718
9.963279564
9.963280152
9.963281774
9.963282596
9.963267563
9.963267507
9.963268792
9.963268612
9.96326899
9.963269622
9.963269252
9.963268528
9.963267102
9.963267022
9.963267585
9.963267474
9.963267866
9.963266503
9.963266688
9.963292481
9.963290582
9.963290956
9.963291519
9.963291194
9.963290665
9.963290267
9.963291433
9.9632909
9.96329093
9.963290012
9.963290146
9.963290563
9.963291037
9.963291312
9.963277993
9.963278277
9.963278303
9.963279483
9.963278891
9.963279076
9.963280014
9.96328057
9.963280709
9.96328129
9.963280801
9.963280629
9.963280827
9.963280515
9.963267686
9.963268717
9.963268316
9.963267395
9.963266183
9.963266322
9.963266177
9.963264512
9.96326529
9.963266235
9.963265658
9.963263725
9.963262955
9.963263366
9.963281359
9.963280616
9.963281592
9.963281706
9.963281711
9.963282334
9.963283562
9.963283225
9.96328348
9.963283525
9.96328439
9.963286379
9.963286269
9.963285021
9.963276934
9.963277122
9.963275834
9.963276686
9.963276625
9.963275939
9.963274328
9.963276222
9.96327667
9.963276263
9.963274075
9.963274972
9.963275344
9.963275444
9.963286597
9.963285284
9.96328688
9.963287413
9.963288816
9.963288244
9.963289025
9.96328891
9.963287773
9.963287946
9.963288982
9.963287862
9.963288193
9.96328689
9.963270009
9.963270658
9.963269425
9.963270228
9.963270835
9.963269872
9.96326985
9.963271468
9.963271026
9.963270591
9.963269174
9.963268808
9.963268186
9.963269982
9.963316488
9.963316331
9.963316873
9.963316713
9.963316388
9.963317969
9.963318056
9.963317554
9.963316258
9.963315961
9.963315676
9.96331618
9.963316735
9.963316511
9.963339936
9.963339183
9.963337374
9.963338332
9.963337382
9.963337741
9.963338252
9.963340197
9.963340773
9.963341394
9.963341029
9.963339581
9.963340232
9.963340339
9.963284063
9.963284953
9.963284219
9.963284015
9.963284189
9.963283665
9.963283598
9.963283491
9.963282123
9.963282277
9.963283437
9.963284465
9.963284889
9.963284542
9.963284118
9.963298461
9.963298627
9.96329837
9.963297643
9.963297637
9.96329695
9.963296452
9.963296918
9.963296398
9.963296205
9.963297105
9.963297744
9.963298588
9.963298286
9.963254041
9.96325461
9.963254275
9.963253692
9.963253959
9.963254868
9.963254003
9.963253255
9.963253374
9.96325287
9.963252936
9.963254007
9.963253244
9.963253711
9.963257374
9.963257414
9.963257405
9.963257488
9.963257289
9.963257204
9.963257908
9.963257813
9.963257671
9.963257478
9.963258057
9.963258626
9.963258943
9.963259611
9.96327015
9.963270772
9.963269682
9.963270026
9.963270913
9.963272107
9.963271813
9.963272299
9.963271487
9.963271371
9.963270899
9.96327066
9.963269644
9.963269084
9.963292925
9.963292686
9.96329258
9.963292953
9.963292245
9.963293191
9.963293556
9.963292834
9.963293067
9.963294173
9.963295237
9.963294935
9.963294526
9.963294529
9.963277122
9.963277441
9.963277661
9.96327813
9.963278739
9.96327876
9.963277897
9.963278918
9.963279398
9.963278764
9.963278364
9.963278526
9.963278435
9.963277152
9.963263371
9.96326358
9.963264822
9.963264062
9.963264166
9.963264421
9.96326368
9.963264068
9.963263051
9.963263018
9.963263192
9.963263822
9.963263276
9.963263153
9.963269873
9.963269268
9.963268724
9.963269947
9.963269976
9.963269851
9.963269184
9.9632692
9.96326954
9.963269502
9.963269948
9.963270035
9.963270076
9.963270762
9.963276322
9.963276845
9.96327613
9.963275727
9.963275143
9.963276456
9.963277168
9.963276697
9.963277674
9.963277954
9.963277978
9.96327736
9.963276604
9.963276884
)
;

boundaryField
{
    top
    {
        type            calculated;
        value           nonuniform List<scalar> 
134
(
9.96328469
9.963275394
9.963282591
9.963279109
9.963282272
9.963280947
9.963292481
9.963284063
9.963276322
9.963284245
9.963277762
9.963282739
9.963278922
9.963282044
9.963280345
9.963290582
9.963284953
9.963276845
9.963284021
9.963276313
9.963282822
9.963278957
9.96328241
9.963279521
9.963290956
9.963284219
9.96327613
9.963284687
9.963276678
9.963283072
9.963278123
9.963282709
9.963278708
9.963291519
9.963284015
9.963275727
9.96328463
9.963277165
9.963284042
9.963279
9.963281872
9.96327747
9.963291194
9.963284189
9.963275143
9.963284675
9.963276796
9.963283728
9.963278267
9.963281553
9.963278193
9.963290665
9.963283665
9.963276456
9.963284463
9.96327727
9.963283627
9.963278205
9.963280945
9.963277655
9.963290267
9.963283598
9.963277168
9.96328489
9.963276577
9.963283111
9.963277678
9.963281224
9.963277248
9.963291433
9.963283491
9.963276697
9.963284758
9.963276497
9.963282805
9.963276891
9.963280824
9.963278435
9.9632909
9.963282123
9.963277674
9.963284673
9.96327583
9.963283675
9.963279467
9.963280217
9.963279387
9.96329093
9.963282277
9.963277954
9.963285382
9.963275643
9.963283123
9.963279289
9.96327908
9.963278737
9.963290012
9.963283437
9.963277978
9.963284803
9.963276358
9.963283753
9.963278425
9.963278695
9.963278182
9.963290146
9.963284465
9.96327736
9.963285072
9.963274642
9.963284324
9.963277962
9.963278592
9.963277951
9.963290563
9.963284889
9.963276604
9.96328565
9.963275446
9.963284844
9.96327662
9.963278085
9.963277705
9.963291037
9.963284542
9.963276884
9.963285344
9.963274378
9.963283667
9.963276954
9.963277741
9.963277989
9.963291312
9.963284118
)
;
    }
    bottom
    {
        type            calculated;
        value           nonuniform List<scalar> 
127
(
9.963286374
9.963283685
9.963270083
9.963281555
9.963286845
9.963243628
9.963279598
9.963277993
9.963298461
9.963286454
9.963283661
9.963269817
9.963280522
9.963285956
9.963244877
9.963280406
9.963278277
9.963298627
9.96328553
9.963283354
9.963270478
9.963280089
9.96328513
9.963245578
9.963278204
9.963278303
9.96329837
9.96328626
9.963282896
9.963270826
9.963280648
9.963285627
9.96324598
9.963278373
9.963279483
9.963297643
9.96328581
9.963283941
9.96327109
9.963281489
9.963285844
9.96324625
9.963279429
9.963278891
9.963297637
9.963285684
9.963283368
9.963270172
9.963283006
9.963285241
9.963246354
9.963279431
9.963279076
9.96329695
9.96328613
9.963283021
9.963270435
9.963282013
9.963285942
9.96324692
9.963278897
9.963280014
9.963296452
9.963285733
9.963283581
9.963270685
9.963282248
9.96328532
9.963247251
9.963278014
9.96328057
9.963296918
9.963284909
9.963283653
9.963269799
9.963281395
9.963286287
9.963247033
9.963277978
9.963280709
9.963296398
9.963284427
9.963282691
9.96327033
9.963280741
9.963285031
9.963248715
9.963278426
9.96328129
9.963296205
9.963283715
9.963283114
9.963270447
9.9632808
9.96328541
9.963247089
9.963278583
9.963280801
9.963297105
9.963284097
9.963282794
9.963270484
9.963281916
9.963284982
9.96324686
9.963277855
9.963280629
9.963297744
9.963284472
9.963283571
9.963269582
9.963281161
9.963285107
9.963246762
9.963277067
9.963280827
9.963298588
9.963284464
9.963283983
9.963269771
9.963280591
9.963284104
9.96324736
9.963276241
9.963280515
9.963298286
9.963284592
)
;
    }
    side-walls
    {
        type            calculated;
        value           nonuniform List<scalar> 
261
(
9.963286374
9.963233111
9.963276594
9.963281992
9.963291379
9.963278575
9.963259794
9.963303856
9.96328469
9.963286454
9.963233793
9.963278156
9.963281621
9.963291277
9.963278306
9.96325914
9.963304128
9.963284245
9.96328553
9.963232592
9.963277017
9.963281324
9.963291252
9.963277959
9.96325946
9.963304741
9.963284021
9.96328626
9.963232399
9.963277671
9.963281413
9.963291394
9.963277652
9.963257885
9.963304189
9.963284687
9.96328581
9.963233173
9.96327783
9.963281319
9.963291416
9.963277253
9.963258578
9.963304282
9.96328463
9.963285684
9.963234052
9.963278233
9.963281011
9.963291121
9.963277049
9.963258647
9.963303461
9.963284675
9.96328613
9.963233486
9.963277636
9.963281615
9.96329102
9.96327813
9.963259113
9.96330522
9.963284463
9.963285733
9.963232911
9.963278666
9.963281029
9.963290866
9.963277745
9.963259049
9.96330595
9.96328489
9.963284909
9.963233502
9.963277421
9.963280771
9.963292034
9.963278476
9.963258927
9.963306905
9.963284758
9.963284427
9.963233303
9.963278754
9.963279345
9.963291926
9.963278181
9.963258983
9.963307974
9.963284673
9.963283715
9.963232388
9.963278781
9.963278468
9.96329259
9.963279551
9.963258943
9.963308024
9.963285382
9.963284097
9.963232194
9.963279015
9.963277636
9.963293062
9.963279409
9.963258751
9.96330776
9.963284803
9.963284472
9.963231609
9.963278441
9.963277064
9.963292745
9.9632794
9.963260471
9.963308042
9.963285072
9.963284464
9.963230333
9.96327831
9.963276847
9.963293843
9.963279239
9.963259199
9.963307547
9.96328565
9.963284592
9.963230217
9.963280082
9.963276585
9.963293355
9.963279662
9.963258756
9.963307397
9.963285344
9.963298461
9.963254041
9.963257374
9.96327015
9.963292925
9.963277122
9.963263371
9.963269873
9.963276322
9.963298627
9.96325461
9.963257414
9.963270772
9.963292686
9.963277441
9.96326358
9.963269268
9.963276845
9.96329837
9.963254275
9.963257405
9.963269682
9.96329258
9.963277661
9.963264822
9.963268724
9.96327613
9.963297643
9.963253692
9.963257488
9.963270026
9.963292953
9.96327813
9.963264062
9.963269947
9.963275727
9.963297637
9.963253959
9.963257289
9.963270913
9.963292245
9.963278739
9.963264166
9.963269976
9.963275143
9.96329695
9.963254868
9.963257204
9.963272107
9.963293191
9.96327876
9.963264421
9.963269851
9.963276456
9.963296452
9.963254003
9.963257908
9.963271813
9.963293556
9.963277897
9.96326368
9.963269184
9.963277168
9.963296918
9.963253255
9.963257813
9.963272299
9.963292834
9.963278918
9.963264068
9.9632692
9.963276697
9.963296398
9.963253374
9.963257671
9.963271487
9.963293067
9.963279398
9.963263051
9.96326954
9.963277674
9.963296205
9.96325287
9.963257478
9.963271371
9.963294173
9.963278764
9.963263018
9.963269502
9.963277954
9.963297105
9.963252936
9.963258057
9.963270899
9.963295237
9.963278364
9.963263192
9.963269948
9.963277978
9.963297744
9.963254007
9.963258626
9.96327066
9.963294935
9.963278526
9.963263822
9.963270035
9.96327736
9.963298588
9.963253244
9.963258943
9.963269644
9.963294526
9.963278435
9.963263276
9.963270076
9.963276604
9.963298286
9.963253711
9.963259611
9.963269084
9.963294529
9.963277152
9.963263153
9.963270762
9.963276884
)
;
    }
    inlet
    {
        type            calculated;
        value           nonuniform List<scalar> 
81
(
9.963286374
9.963233111
9.963276594
9.963281992
9.963291379
9.963278575
9.963259794
9.963303856
9.96328469
9.963283685
9.963319865
9.963304286
9.963296398
9.963209939
9.963286304
9.963279376
9.963273789
9.963275394
9.963270083
9.963223785
9.963294663
9.963241516
9.963244907
9.963301919
9.963239521
9.963288732
9.963282591
9.963281555
9.963289093
9.963285191
9.963236105
9.963298005
9.963282648
9.96328995
9.963243749
9.963279109
9.963286845
9.96327269
9.96327126
9.963289405
9.963287546
9.963303983
9.963251715
9.963303594
9.963282272
9.963243628
9.96327714
9.963256612
9.96329608
9.963259784
9.963291831
9.963272222
9.963264613
9.963280947
9.963279598
9.963308079
9.963239344
9.963271279
9.963264321
9.963279733
9.963277174
9.963267563
9.963292481
9.963277993
9.963267686
9.963281359
9.963276934
9.963286597
9.963270009
9.963316488
9.963339936
9.963284063
9.963298461
9.963254041
9.963257374
9.96327015
9.963292925
9.963277122
9.963263371
9.963269873
9.963276322
)
;
    }
    outlet
    {
        type            calculated;
        value           nonuniform 0();
    }
    procBoundary0to1
    {
        type            processor;
        value           nonuniform List<scalar> 
97
(
9.963284461
9.963282528
9.963230019
9.963278034
9.963275702
9.963294079
9.963278303
9.963260814
9.963307307
9.963285124
9.963282528
9.963282528
9.963320397
9.963225511
9.963303711
9.963294921
9.963205365
9.963289849
9.963273824
9.963274092
9.963274682
9.963269056
9.963225511
9.963225511
9.963291542
9.963288257
9.963239722
9.963247396
9.963304136
9.963241453
9.963285653
9.963282669
9.963281076
9.963286701
9.963288257
9.963288257
9.963234417
9.963340348
9.96335068
9.963280919
9.963283619
9.963249966
9.963277067
9.963284398
9.963276538
9.963267862
9.963340348
9.963340348
10.02425694
9.963315495
9.963354843
9.963285681
9.963247853
9.963304987
9.963277447
9.963247682
9.963276158
9.963251885
9.963291475
9.963315495
9.963285681
9.963285681
9.963273154
9.963282395
9.963265649
9.963277822
9.96327694
9.963305873
9.963238806
9.963270261
9.963262932
9.963274929
9.963282395
9.963282395
9.963265747
9.963339575
9.963292784
9.963280293
9.963264596
9.963286086
9.963275178
9.963287159
9.963270667
9.963316945
9.963339575
9.963339575
9.963284082
9.963277414
9.963297894
9.963253772
9.963259098
9.963268699
9.963294699
9.963276456
9.963264481
9.963271539
9.963277414
)
;
    }
}


// ************************************************************************* //
