/*--------------------------------*- C++ -*----------------------------------*\
| =========                 |                                                 |
| \\      /  F ield         | OpenFOAM: The Open Source CFD Toolbox           |
|  \\    /   O peration     | Version:  4.x                                   |
|   \\  /    A nd           | Web:      www.OpenFOAM.org                      |
|    \\/     M anipulation  |                                                 |
\*---------------------------------------------------------------------------*/
FoamFile
{
    version     2.0;
    format      ascii;
    class       surfaceScalarField;
    location    "4000";
    object      phi;
}
// * * * * * * * * * * * * * * * * * * * * * * * * * * * * * * * * * * * * * //

dimensions      [1 0 -1 0 0 0 0];

internalField   nonuniform List<scalar> 
3175
(
9.475345949e-06
1.081898603e-12
5.222324324e-14
9.475345167e-06
3.557801911e-13
8.659603138e-14
9.475342935e-06
4.917086482e-13
-2.560414364e-13
9.47534276e-06
2.980584016e-13
1.770783615e-12
9.475345268e-06
6.014119757e-13
1.463688888e-12
9.47534603e-06
-1.046249401e-12
4.07582313e-13
9.475344898e-06
-2.591683871e-12
-3.265992157e-13
9.475348142e-06
-1.462966549e-12
3.136539367e-13
9.475347077e-06
-2.954274148e-12
-1.135552251e-12
9.475350348e-06
-5.112355694e-13
-2.096522141e-12
9.475356023e-06
-3.536693683e-12
-5.06693177e-12
9.475364388e-06
-5.987460177e-12
-5.170836344e-12
9.475398176e-06
-1.472844985e-11
-1.278741098e-11
9.475422196e-06
-1.191732168e-11
-8.786582285e-12
-4.420463782e-11
9.475294564e-06
-5.519876455e-13
-1.358545208e-12
9.475293301e-06
-1.927271942e-12
-1.602762125e-12
9.475293697e-06
-8.159161397e-13
-1.127287023e-12
9.475292329e-06
-4.697908554e-13
-1.801915673e-12
9.475293198e-06
-1.359485735e-12
-3.0666234e-13
9.475295182e-06
7.360443993e-13
-2.197912475e-13
9.47529549e-06
1.548301511e-12
-3.882386873e-13
9.47529436e-06
4.414822898e-13
3.02418818e-13
9.475297512e-06
-1.330480758e-12
3.495905846e-13
9.47529883e-06
-3.378556312e-12
-1.187924628e-12
9.475302442e-06
-6.99831814e-12
-3.690947693e-12
9.475311841e-06
-8.503815097e-12
-4.025141713e-12
9.475340728e-06
-2.514410491e-11
-1.428236235e-11
9.475362994e-06
-2.025475143e-11
-9.041626165e-12
-9.023814372e-11
-6.970134016e-11
9.475335707e-06
-1.486544414e-12
-1.220151515e-13
9.475337015e-06
3.131657838e-13
1.444653708e-13
9.475336907e-06
-1.1245658e-12
-9.150228347e-13
9.475336143e-06
-1.584411409e-13
-7.814741072e-13
9.475336511e-06
-2.305255777e-13
-6.673902814e-13
9.475336844e-06
5.498710929e-13
-8.578053938e-13
9.475335661e-06
-9.272579071e-13
-1.232730627e-12
9.475335097e-06
-5.86976133e-13
-1.753353024e-12
9.47533732e-06
2.746227089e-13
-1.051828958e-12
9.475337528e-06
-8.777385102e-13
-1.018340412e-12
9.475338545e-06
-3.299826856e-12
-1.692350216e-12
9.475342879e-06
-5.53904902e-12
-5.011362937e-12
9.475365561e-06
-2.461988152e-11
-2.216548536e-11
9.475378146e-06
-1.883286745e-11
-1.577542723e-11
-1.101883694e-10
-1.527394757e-10
9.47534111e-06
1.372665143e-12
9.668800702e-13
9.475339837e-06
2.056617471e-12
5.436094193e-13
9.475341177e-06
1.516253505e-12
5.724516497e-13
9.475339472e-06
3.705825363e-13
-5.125182705e-13
9.475338758e-06
-1.167940413e-12
-1.79084965e-12
9.475339095e-06
-1.608509478e-12
-1.741739332e-12
9.475339745e-06
-7.665308403e-13
-7.617620246e-14
9.475336199e-06
-1.329028248e-12
-5.459474801e-13
9.475337294e-06
-1.475167963e-12
-7.004090902e-13
9.475337037e-06
-1.313750921e-12
-1.112535642e-12
9.475335259e-06
-5.646570559e-12
2.624155085e-13
9.475338532e-06
-8.853398171e-12
-1.943165133e-12
9.475356829e-06
-2.48446806e-11
-1.568044988e-11
9.475372385e-06
-2.930425024e-11
-9.945410239e-12
-1.058788276e-10
-2.346097074e-10
9.475349595e-06
9.07352134e-13
-7.911329621e-13
9.475347753e-06
1.025374482e-12
-1.098746296e-12
9.47534925e-06
7.242898536e-13
-2.766486945e-13
9.475350853e-06
1.661397878e-12
5.244506402e-13
9.475349999e-06
1.19428161e-12
2.230041768e-13
9.475351246e-06
-1.169680999e-13
-7.799814291e-13
9.47534864e-06
-1.288998947e-13
-1.129614756e-12
9.475346555e-06
-1.775373953e-12
-1.24422525e-12
9.475345829e-06
-5.478120132e-14
3.134031853e-13
9.475342362e-06
6.97249037e-13
-1.271275716e-12
9.475333957e-06
3.280798431e-12
-8.873882729e-13
9.475326442e-06
7.880630007e-12
-8.565889916e-12
9.475317666e-06
2.493174255e-11
-3.800153523e-11
9.475311561e-06
2.750217169e-11
-4.934928294e-11
1.056804602e-10
-5.942446039e-10
9.475337972e-06
1.784588438e-13
-1.571458352e-12
9.475335218e-06
-4.711507429e-13
-4.44918673e-13
9.475336778e-06
-2.30777528e-13
-4.50443124e-13
9.475335779e-06
-1.099354612e-12
-1.54795988e-13
9.475333358e-06
-4.956088467e-14
-1.126361579e-12
9.475337715e-06
1.333648189e-12
8.287440796e-13
9.475336098e-06
-1.636726042e-13
-7.066919426e-13
9.475338729e-06
-2.95318177e-13
-3.632082664e-13
9.475337782e-06
1.268784399e-12
1.206607621e-13
9.475336923e-06
1.38674701e-12
-7.674639191e-13
9.475337192e-06
4.486037183e-12
1.781163098e-12
9.475341766e-06
5.408425629e-12
-2.28638529e-12
9.475356995e-06
2.149921863e-11
-1.599575387e-11
9.475374809e-06
1.786857062e-11
-8.868188952e-12
1.096420642e-10
-2.363878536e-10
9.475318158e-06
5.661263362e-13
-1.063657167e-12
9.47531851e-06
7.827142666e-13
-9.568236514e-13
9.47531794e-06
4.281772035e-13
1.240173969e-12
9.47531911e-06
6.435231353e-13
2.5615189e-13
9.475318275e-06
-3.880307116e-13
-4.204315317e-13
9.475317745e-06
-1.355250367e-13
-1.531934707e-12
9.475317567e-06
8.518091957e-13
-2.57649207e-13
9.475320803e-06
9.217203569e-13
8.865370781e-13
9.475319103e-06
1.763919195e-12
-9.561411869e-14
9.47531788e-06
1.956710259e-12
-2.404285826e-12
9.475318959e-06
5.763572692e-12
-2.572244249e-12
9.475322698e-06
8.02431726e-12
-3.947394252e-12
9.475346229e-06
2.613459544e-11
-2.298734548e-11
9.475359141e-06
1.990709823e-11
-1.656490025e-11
8.791173183e-11
-1.546823849e-10
9.475360893e-06
-3.751854468e-13
-4.749138296e-13
9.475360509e-06
-7.923611308e-13
-1.318764403e-12
9.475359636e-06
-2.159315617e-13
3.640350787e-13
9.47536041e-06
-3.330692959e-13
-7.458762926e-13
9.47536264e-06
5.27212712e-13
-2.01850489e-13
9.475363677e-06
7.069367362e-13
-2.32963888e-13
9.47536351e-06
7.18298438e-13
-9.465522095e-14
9.475365629e-06
2.274782737e-12
9.28908437e-13
9.475366699e-06
1.506443035e-12
-5.650440046e-13
9.475368653e-06
1.866016819e-12
-1.87175426e-13
9.475374037e-06
3.513292152e-12
-1.595992554e-12
9.47538329e-06
4.930119583e-12
-2.386809134e-12
9.47541167e-06
1.450013788e-11
-1.654366662e-11
9.47543322e-06
1.120177494e-11
-1.039105272e-11
4.378338278e-11
-6.99917356e-11
9.47534229e-06
-1.125167406e-12
9.475340242e-06
-1.106023052e-12
9.475341856e-06
-3.470791811e-13
9.475343293e-06
9.33588532e-13
9.475344164e-06
-1.588391728e-16
9.475344768e-06
-2.994009878e-13
9.475344298e-06
-2.72334105e-13
9.475344984e-06
9.531874653e-13
9.475347401e-06
-3.850107192e-13
9.475349232e-06
7.627376304e-14
9.475358157e-06
-1.67542575e-12
9.475367681e-06
-3.568671322e-12
9.475396416e-06
-1.455365936e-11
9.475422916e-06
-1.094927985e-11
-4.488677454e-11
9.475342933e-06
-2.003831769e-13
3.763701367e-13
9.475342092e-06
3.61243473e-14
-3.124642057e-13
9.475342473e-06
-2.532248824e-13
-1.849050037e-13
9.475343303e-06
-8.55568149e-13
-3.322145327e-13
9.475342105e-06
-3.652595496e-13
-9.520601253e-13
9.475342399e-06
-1.177737828e-12
-5.771690904e-13
9.475342575e-06
-2.022624241e-12
-2.233562723e-12
9.475344541e-06
-4.535200683e-13
-3.140899214e-12
9.47534506e-06
-2.251029876e-12
-3.143376e-12
9.475346091e-06
-2.329137284e-12
-3.191499054e-12
9.475350761e-06
-3.376203915e-12
-6.627081261e-12
9.475360376e-06
-5.016139691e-12
-8.637332295e-12
9.475388189e-06
-1.73263331e-11
-2.543279558e-11
-1.090620694e-11
-2.028624013e-11
9.475377391e-06
3.415386418e-13
9.799752453e-13
9.475375581e-06
-7.456654543e-13
-3.924077233e-13
9.475374705e-06
-9.03029667e-13
1.429687926e-13
9.47537772e-06
-1.393830234e-13
1.515387496e-12
9.475374831e-06
-1.683325293e-12
-6.186840973e-14
9.475374793e-06
2.505959364e-13
2.274813347e-13
9.475378844e-06
9.501925624e-13
1.648739932e-13
9.475376122e-06
-2.484212423e-12
-2.72187205e-12
9.47537981e-06
-1.879295536e-12
-1.902498173e-12
9.475379935e-06
-3.003953253e-12
-2.90484411e-12
9.475382709e-06
-4.7476882e-12
-5.530601834e-12
9.475392115e-06
-8.195236456e-12
-7.378330071e-12
9.47541567e-06
-2.967582626e-11
-2.919980943e-11
9.47543878e-06
-2.069399088e-11
-2.123073184e-11
-1.474524404e-10
9.475360803e-06
5.045994046e-14
5.280737139e-13
9.475363102e-06
-3.761942988e-13
5.473674048e-13
9.475363467e-06
-1.006755733e-13
-4.66192757e-14
9.475363781e-06
5.292280928e-13
7.713852031e-13
9.475364738e-06
2.189117928e-13
-5.493430386e-13
9.47536276e-06
1.31465778e-13
-6.164974301e-13
9.475362001e-06
5.696867729e-13
-9.70439588e-13
9.475362395e-06
1.03450626e-13
-1.01962782e-12
9.475361828e-06
7.978362456e-13
-5.034073969e-13
9.475362314e-06
-2.817593694e-13
-1.551051965e-12
9.475358985e-06
-2.695856055e-12
-4.562444983e-12
9.4753602e-06
-5.46571851e-12
-1.138931451e-11
9.475372515e-06
-2.628916908e-11
-3.847521496e-11
9.475388525e-06
-1.981537018e-11
-3.682962128e-11
-2.128784261e-10
-3.499739212e-10
9.475353578e-06
1.048979857e-13
-1.573447918e-13
9.475354892e-06
8.561857544e-13
-7.337888599e-14
9.47535574e-06
1.084593498e-12
4.12978747e-13
9.475354503e-06
8.28777551e-13
-2.458581544e-13
9.475353383e-06
1.759441751e-13
2.323129605e-14
9.475354891e-06
-2.660050841e-13
2.810580848e-14
9.475354014e-06
-4.88526652e-13
-9.149643923e-13
9.475351111e-06
-6.496978434e-13
-1.623581464e-12
9.475351576e-06
-4.135427259e-13
1.016559587e-12
9.475351818e-06
-2.612116314e-12
-2.216981893e-12
9.47535083e-06
-4.843077048e-12
5.462736451e-12
9.475356841e-06
-1.061601304e-11
-6.602357328e-12
9.475360896e-06
-3.279015218e-11
-9.944016253e-12
9.475405867e-06
-4.323430855e-11
-3.056626973e-11
-2.156451902e-10
-5.666241222e-10
9.475271682e-06
-4.098314743e-13
-1.508159402e-13
9.475270761e-06
1.422674529e-12
-3.702242182e-14
9.475270522e-06
9.460452008e-13
-3.190807585e-13
9.475269975e-06
9.40933183e-13
-7.102149039e-13
9.47527129e-06
7.840930046e-13
5.557461172e-14
9.475269882e-06
1.829235764e-13
-5.956658459e-13
9.475270582e-06
-6.736291215e-13
-4.085553754e-13
9.47526998e-06
-1.327396015e-12
-1.770053307e-12
9.475264934e-06
-1.085247982e-12
-4.250842121e-13
9.475262849e-06
1.114284262e-12
-8.581073682e-13
9.475247326e-06
5.266991423e-12
5.221980753e-12
9.475233265e-06
1.033200673e-11
-1.690256775e-11
9.475168649e-06
3.297660555e-11
-4.309276286e-11
9.475177279e-06
4.199512521e-11
-1.450552237e-10
2.148974127e-10
-1.707624455e-09
9.475346121e-06
6.411803763e-13
-2.577564841e-13
9.475342863e-06
-4.339935044e-13
-1.100682181e-12
9.475345281e-06
5.626076563e-13
-1.1280803e-12
9.475345728e-06
-1.041994592e-13
-3.683887683e-13
9.475346329e-06
4.792768361e-13
8.472478489e-13
9.475345673e-06
-5.694006076e-13
-4.437559742e-13
9.475344932e-06
-2.049599391e-15
1.376632278e-12
9.475346056e-06
1.146530921e-12
-1.199812245e-13
9.475345936e-06
5.247793902e-13
1.294270284e-12
9.475346171e-06
-3.832908125e-13
4.49292336e-13
9.475344266e-06
1.514942168e-12
5.563050236e-12
9.475349936e-06
4.726383031e-12
-5.887596985e-12
9.47535407e-06
2.400513464e-11
-9.226089952e-12
9.475399982e-06
1.727617147e-11
-3.070917611e-11
2.099213425e-10
-5.65442698e-10
9.475336739e-06
8.505057845e-13
-1.108273451e-13
9.475338227e-06
4.660779139e-13
2.256394956e-13
9.475333853e-06
3.519707363e-14
-5.360541294e-13
9.475334976e-06
6.125790752e-14
6.535251048e-13
9.475334656e-06
3.964855345e-13
5.901608477e-13
9.475336642e-06
6.504305283e-13
7.925157729e-13
9.475335447e-06
-3.379817669e-14
-2.840751436e-13
9.475334804e-06
3.518710346e-13
-7.931425965e-13
9.475334639e-06
1.255757668e-12
-2.291573694e-13
9.475334639e-06
2.835520634e-12
-3.479798512e-13
9.475334027e-06
5.453769451e-12
-1.773927548e-12
9.475332837e-06
6.901301791e-12
-9.14500754e-12
9.475345894e-06
2.81557568e-11
-3.673192789e-11
9.475360441e-06
1.963467182e-11
-3.731671194e-11
1.466236565e-10
-3.493716558e-10
9.47533199e-06
-4.146356029e-13
-6.875105274e-13
9.475333673e-06
5.667439215e-13
5.304117305e-13
9.475333554e-06
3.638268953e-13
-3.03794987e-13
9.475334395e-06
2.030118479e-13
5.679577992e-13
9.475333796e-06
1.483423937e-14
7.488042049e-13
9.47533351e-06
2.167106749e-13
1.797706689e-12
9.475334683e-06
-2.786737096e-13
7.217862922e-13
9.475334397e-06
1.194894411e-12
1.498146758e-13
9.475335414e-06
1.351151095e-12
1.296066799e-13
9.475335353e-06
1.336410839e-12
-1.362575967e-12
9.475338124e-06
2.334229827e-12
-4.071745809e-12
9.475345464e-06
4.139214822e-12
-7.108249265e-12
9.475370715e-06
1.730114762e-11
-2.775274383e-11
9.475394001e-06
9.587129254e-12
-2.044852471e-11
6.929066238e-11
-1.466430813e-10
9.475334534e-06
-2.067159514e-13
9.475335153e-06
4.127316042e-13
9.475334513e-06
-1.285278864e-12
9.475332824e-06
-1.945702179e-13
9.475335892e-06
1.287784583e-12
9.47533432e-06
8.987652732e-13
9.475337455e-06
-2.397881549e-13
9.475335092e-06
-1.556425121e-12
9.475337107e-06
-1.784069736e-12
9.475338243e-06
-3.072254456e-12
9.47534394e-06
-5.185764851e-12
9.475353715e-06
-7.55820396e-12
9.475379566e-06
-2.462196233e-11
9.475403036e-06
-2.059112741e-11
-8.880051729e-11
9.475327955e-06
1.553516518e-13
-7.626799536e-13
9.475328629e-06
-1.960374002e-13
-9.669417466e-13
9.475329621e-06
-1.806622596e-13
-1.746104917e-12
9.475328961e-06
2.056108224e-13
-1.822032682e-12
9.475328482e-06
-1.002069337e-13
-1.131764048e-13
9.475328994e-06
4.672830032e-13
-7.520180949e-13
9.475329247e-06
-6.583498573e-14
-6.579977033e-13
9.475330942e-06
3.528750535e-14
-1.169882048e-12
9.47533023e-06
-1.09915656e-12
-1.76847546e-12
9.475329448e-06
-2.381083675e-12
-3.941166562e-12
9.475331895e-06
-2.93301135e-12
-6.064237237e-12
9.47533565e-06
-5.396904634e-12
-6.653842549e-12
9.475355601e-06
-2.469012526e-11
-2.49731713e-11
-1.769878009e-11
-1.94055785e-11
9.475284516e-06
-6.367187011e-13
-6.214120267e-13
9.475285312e-06
-8.001820322e-13
-8.376964957e-13
9.475284126e-06
-8.138427048e-13
-1.029845445e-12
9.47528339e-06
-6.765140558e-13
-2.344530238e-12
9.475285398e-06
-1.332517073e-12
-3.013501246e-13
9.475283551e-06
-1.412170841e-12
-1.439435321e-12
9.475284591e-06
-1.224873008e-12
-4.625604315e-13
9.475284646e-06
-7.319686388e-13
-4.373922446e-13
9.475284103e-06
-6.093790482e-13
-2.42419522e-13
9.475283143e-06
-1.806779879e-12
-1.190419842e-12
9.475282267e-06
-3.405935091e-12
-2.608052389e-12
9.475285505e-06
-1.070877745e-11
-5.474827108e-12
9.475296134e-06
-3.815221964e-11
-2.581201607e-11
-3.622571012e-11
-1.869460393e-11
9.475351559e-06
-4.270367649e-13
1.142708177e-13
9.475352518e-06
-8.764486921e-13
4.132775791e-14
9.475353491e-06
1.108648352e-12
1.740974736e-12
9.475350296e-06
-2.225508374e-13
-2.907473581e-13
9.475351226e-06
-7.911108956e-15
-2.888719928e-13
9.475351556e-06
2.575153249e-13
-1.622707644e-12
9.475352739e-06
5.049443956e-13
-3.457067255e-13
9.475352848e-06
1.721673542e-13
-5.579841936e-13
9.475350382e-06
1.644595314e-12
1.581095859e-12
9.475344925e-06
-1.575068291e-12
-3.308632921e-12
9.47533673e-06
4.392184175e-12
2.624033899e-12
9.475328931e-06
-5.72136651e-12
-6.548642664e-12
9.475308162e-06
-3.081806564e-11
-2.845730406e-11
9.475314219e-06
-4.210248e-11
-3.993817587e-11
-5.968155834e-10
9.475301442e-06
1.775215851e-13
-6.645672023e-13
9.475302208e-06
7.962756621e-13
1.304088735e-12
9.475298275e-06
-4.270931808e-14
-1.085497736e-13
9.47529855e-06
7.17664303e-14
-1.305404458e-12
9.47530176e-06
2.385824401e-13
5.323509382e-13
9.475299821e-06
-7.983769287e-13
-1.065630279e-12
9.475300425e-06
4.89766559e-13
6.66578314e-13
9.475300995e-06
-3.46494289e-13
5.660381681e-13
9.475297964e-06
-1.017468392e-12
2.673081542e-12
9.475300217e-06
-9.083530609e-13
2.107814982e-12
9.47529266e-06
-5.537364851e-12
1.512994303e-11
9.475293339e-06
-1.61558243e-11
4.894185615e-13
9.475271136e-06
-5.479610823e-11
4.157381758e-11
9.475342217e-06
-1.025765501e-10
-4.159217943e-11
-6.483407967e-10
-1.153328975e-09
9.475306368e-06
-6.799928495e-13
-1.85835328e-13
9.475305047e-06
-3.108082788e-13
7.342569479e-14
9.475305901e-06
-9.023281606e-14
-2.353117767e-13
9.475307576e-06
1.465072515e-12
1.073202727e-12
9.475306439e-06
4.002678835e-13
7.897670777e-13
9.475306903e-06
1.264159875e-12
1.012862203e-12
9.475305157e-06
-3.337007665e-13
1.177710944e-12
9.475305689e-06
-3.166439524e-13
1.266754065e-12
9.475301998e-06
2.401350559e-13
4.814090774e-12
9.475292784e-06
2.08324735e-12
1.47173957e-12
9.475270069e-06
4.127949361e-12
2.138709805e-11
9.475224977e-06
1.654374835e-11
-6.61570816e-12
9.47503915e-06
5.496029153e-11
3.184634783e-11
9.474936964e-06
1.022691774e-10
-2.407840523e-10
6.479841935e-10
-4.61557893e-09
9.47536063e-06
6.252065372e-13
4.940733926e-13
9.475359069e-06
7.226904127e-14
2.886421701e-13
9.475360601e-06
1.043775535e-12
1.569136686e-12
9.47535964e-06
-4.577807509e-13
8.710492863e-13
9.475359044e-06
2.228806544e-13
3.192767598e-13
9.475359819e-06
8.32248551e-13
9.412451897e-13
9.475359176e-06
-3.739956196e-13
9.198595627e-13
9.475361327e-06
3.874266239e-13
1.28915875e-12
9.475362327e-06
-6.662754065e-13
2.840053824e-12
9.475361795e-06
-3.662125811e-13
9.001991893e-13
9.475356713e-06
-1.988095613e-12
1.592830504e-11
9.475356052e-06
6.824380152e-12
5.771060299e-13
9.475331404e-06
2.941216622e-11
4.24480467e-11
9.475406065e-06
4.008204026e-11
-3.92430401e-11
5.955803042e-10
-1.152760832e-09
9.475300515e-06
4.258466333e-13
5.911309507e-13
9.475300673e-06
4.203507611e-13
-1.125907875e-13
9.475300463e-06
-5.30832611e-13
9.545054535e-14
9.475303004e-06
-2.329384816e-15
1.719966691e-12
9.475300242e-06
-1.026373426e-13
-1.753189007e-13
9.475300375e-06
3.611843535e-13
-8.980003454e-13
9.475302416e-06
1.931884528e-12
7.393659908e-13
9.475301068e-06
1.113503886e-12
1.176302111e-12
9.475299742e-06
1.894786459e-12
2.195262551e-12
9.475296774e-06
2.804103232e-12
-4.632310769e-13
9.475287121e-06
3.346733385e-12
1.622572667e-13
9.475277709e-06
8.939958323e-12
-6.848916256e-12
9.475258579e-06
3.689996799e-11
-2.918333717e-11
9.475266881e-06
3.523029158e-11
-3.944749102e-11
3.490358674e-10
-5.96299968e-10
9.475346725e-06
3.611359247e-13
5.211502064e-15
9.475346626e-06
5.040562781e-13
-6.187559041e-13
9.475344822e-06
-1.347223453e-12
-7.642975808e-13
9.475346521e-06
-5.404144755e-14
1.275668821e-13
9.475346496e-06
-2.946248729e-13
-5.578254061e-13
9.475344868e-06
-1.566956921e-13
1.047252665e-13
9.475344366e-06
-9.761201938e-13
1.564866357e-14
9.475345087e-06
2.222332502e-13
-8.000935346e-14
9.475342448e-06
-3.830706767e-13
-1.969248533e-13
9.475344502e-06
-4.312974023e-13
-1.296179385e-12
9.475341776e-06
3.000587831e-12
-1.940842029e-12
9.475345038e-06
5.620093387e-12
-5.315917837e-12
9.475353965e-06
2.438363999e-11
-2.416158473e-11
9.475371715e-06
1.619699336e-11
-1.684673861e-11
1.523915299e-10
-2.10091473e-10
9.475341387e-06
-4.733102429e-13
9.475340401e-06
2.598175172e-13
9.475341462e-06
-3.65576924e-13
9.475341999e-06
1.283576508e-12
9.475342893e-06
1.129162808e-12
9.475341005e-06
3.558377635e-13
9.475343132e-06
-6.354663863e-13
9.475342074e-06
-2.955362648e-13
9.475341984e-06
-9.809772623e-13
9.475343379e-06
-1.272462369e-12
9.475341894e-06
-5.05736369e-12
9.475347858e-06
-8.163322481e-12
9.475367729e-06
-2.524680387e-11
9.475383256e-06
-1.849319702e-11
-1.0845886e-10
9.475339306e-06
4.024950154e-13
-1.008597476e-12
9.475339926e-06
-7.221171591e-13
-4.39130372e-13
9.475338888e-06
3.467358854e-13
7.586307649e-13
9.475340659e-06
-1.646738685e-13
1.049091464e-12
9.475338845e-06
-4.81642504e-13
-1.575922813e-12
9.475339314e-06
2.918871856e-13
-7.878069069e-13
9.475340361e-06
9.10339686e-13
2.469865981e-13
9.475342829e-06
4.377241316e-13
-5.018822354e-13
9.475339896e-06
-3.788687087e-14
-2.212162578e-12
9.475340391e-06
8.684623784e-14
-2.67135417e-12
9.475340576e-06
1.393499997e-12
-3.724860009e-12
9.475344644e-06
-3.575943698e-12
-8.257766969e-12
9.475359827e-06
-1.571653719e-11
-2.520774714e-11
-1.001716477e-11
-2.812528709e-11
9.475346709e-06
3.904131627e-13
-5.098507638e-13
9.475347539e-06
7.171103855e-14
7.638446136e-13
9.475345767e-06
7.279094443e-13
6.667085207e-14
9.475346953e-06
7.717911019e-13
3.401794993e-13
9.475346077e-06
-8.597329403e-13
-7.43513752e-13
9.475345819e-06
-6.625505685e-13
9.247798027e-13
9.475346194e-06
-7.146910009e-13
4.626381136e-13
9.475346877e-06
-4.65553431e-14
3.671197674e-13
9.475345837e-06
2.81621e-12
1.903708205e-15
9.475345163e-06
-1.828968672e-12
-2.597118058e-12
9.475344367e-06
6.283755105e-12
-5.383176941e-12
9.475353293e-06
-5.706296864e-12
-1.003709003e-11
9.475352444e-06
-8.020210177e-12
-3.295595089e-11
-2.857900903e-11
-4.160747462e-11
9.475341868e-06
-1.231504014e-12
-9.001337156e-13
9.475343829e-06
1.017154971e-12
-1.241200912e-12
9.475343232e-06
-5.656428197e-13
-1.489025087e-12
9.475341368e-06
-1.138935045e-12
-3.340080848e-13
9.475344456e-06
1.197139087e-12
-3.76534543e-13
9.475345063e-06
1.406170638e-12
6.133081991e-13
9.475345879e-06
3.709536024e-13
1.374410289e-13
9.475348066e-06
6.642304536e-13
7.927281651e-13
9.475341909e-06
2.008672019e-12
3.95348599e-13
9.475343629e-06
2.529945256e-12
-1.594411206e-12
9.475338751e-06
1.583392747e-11
-5.204814076e-12
9.475342513e-06
3.099831825e-13
-1.605753071e-11
9.475317103e-06
4.006481571e-11
-5.5352006e-11
-4.38432455e-11
-1.018571509e-10
9.475298691e-06
9.30121834e-13
-2.58651916e-15
9.475297001e-06
2.818867704e-13
-1.046611888e-12
9.47529592e-06
-5.549928037e-13
7.381338257e-13
9.475298578e-06
1.80959765e-12
-5.609850815e-14
9.47529691e-06
7.536123307e-13
3.494987667e-13
9.475299356e-06
9.248445248e-13
8.944062075e-13
9.47530051e-06
9.374051071e-13
6.518396057e-13
9.475301869e-06
-1.787092562e-13
1.739125182e-12
9.475304835e-06
1.7076383e-12
7.214352587e-13
9.475312222e-06
-7.345582057e-13
-6.50357392e-13
9.475337433e-06
1.682281904e-12
1.438061089e-12
9.475371887e-06
-1.650408927e-11
-1.661587242e-11
9.475509121e-06
-2.591003429e-11
-2.390578829e-11
9.475827744e-06
-2.025029799e-10
-2.011991625e-10
-1.250811302e-09
9.475356291e-06
3.941042229e-13
-7.928633375e-13
9.475355675e-06
-2.877429225e-14
-6.172287756e-13
9.475355724e-06
9.996097729e-13
3.410860615e-13
9.47535417e-06
1.719836303e-12
7.496524378e-13
9.475353084e-06
-3.261099828e-13
6.107921685e-14
9.475352738e-06
3.10919286e-13
1.152853059e-13
9.475353308e-06
-1.404655688e-13
1.209840599e-12
9.475356994e-06
-1.85253598e-13
1.593602791e-12
9.475356997e-06
-1.73403774e-12
9.260497309e-13
9.475356443e-06
8.074388704e-13
-1.607341232e-12
9.475378789e-06
-2.411451406e-12
5.849226941e-12
9.475355283e-06
1.669293475e-11
-2.057824774e-11
9.475375367e-06
2.576338155e-11
-3.440730395e-11
9.475310655e-06
2.025239119e-10
-5.752758698e-10
1.250189978e-09
-8.796685279e-09
9.475341098e-06
6.595496873e-13
-5.216097318e-13
9.475342408e-06
2.41489737e-13
-5.262611708e-13
9.47534205e-06
5.545812099e-13
-7.577559056e-13
9.475341273e-06
4.876525955e-13
-4.814200258e-13
9.475342799e-06
1.032444794e-12
2.398774291e-13
9.475340556e-06
-1.273813759e-12
-4.143085601e-13
9.47534198e-06
1.318143501e-14
1.702316872e-12
9.475342228e-06
-2.358284993e-13
6.417040953e-13
9.475347176e-06
-2.181901887e-12
1.514050719e-12
9.475353737e-06
-1.978258862e-12
-1.940592081e-12
9.47537984e-06
-1.757553466e-11
1.733820509e-12
9.475414628e-06
-6.536654315e-13
-1.758928828e-11
9.475551321e-06
-4.238601875e-11
-2.513511562e-11
9.475870025e-06
3.992865826e-11
-2.029807237e-10
1.151543964e-09
-1.251720041e-09
9.475347081e-06
-6.873263201e-13
-1.739031056e-12
9.475348553e-06
-7.539181402e-14
-5.137682082e-13
9.475345815e-06
8.538370704e-14
-7.125346935e-13
9.475344057e-06
-7.504588458e-13
6.062036167e-14
9.475343565e-06
-1.027733711e-12
9.094738347e-13
9.475346229e-06
1.611293503e-12
4.154647712e-13
9.475344228e-06
7.709588959e-13
2.293530913e-13
9.475343945e-06
1.669659486e-12
5.21677017e-13
9.475342643e-06
-1.203465259e-12
-7.687191046e-13
9.475340629e-06
4.480049153e-13
-2.241998819e-12
9.475339457e-06
-4.09743718e-12
-4.405185058e-12
9.475337021e-06
5.008663394e-12
-1.852286973e-11
9.475313184e-06
9.454679217e-12
-5.698422051e-11
9.47538461e-06
2.977155231e-11
-1.028375512e-10
5.662040623e-10
-6.482155074e-10
9.47530392e-06
-1.193960967e-13
-1.045071129e-12
9.475305837e-06
6.76975802e-13
-1.379213274e-12
9.475304686e-06
-3.203357814e-13
-3.350460799e-13
9.475305295e-06
1.165533279e-12
8.142386213e-14
9.475307271e-06
6.103450904e-13
1.518315896e-12
9.475304205e-06
-2.594550417e-13
-2.206700139e-12
9.475306084e-06
-2.03593608e-12
-6.737702416e-13
9.475306624e-06
-2.476031006e-13
-3.109309433e-13
9.475305682e-06
-1.407279276e-12
-1.671544439e-12
9.475306864e-06
-3.022176544e-13
-2.003069931e-12
9.475303105e-06
-1.939897885e-12
-4.514951835e-12
9.475313884e-06
1.991011936e-12
-1.075961233e-11
9.475314536e-06
1.358696435e-11
-3.447443252e-11
9.475360953e-06
7.633895795e-12
-4.44051115e-11
2.353405186e-10
-2.168417091e-10
9.475338747e-06
4.615566892e-15
9.475336665e-06
1.505125595e-12
9.475337937e-06
8.357119086e-13
9.475337358e-06
-9.079144268e-13
9.475337724e-06
-2.653052441e-13
9.475334302e-06
-1.28052112e-12
9.475338202e-06
6.304456462e-13
9.475335263e-06
-1.094191834e-12
9.475336838e-06
-3.469161858e-13
9.475336648e-06
-1.496826125e-12
9.475335443e-06
-3.278409868e-12
9.475340215e-06
-6.312533904e-12
9.475355878e-06
-2.379450808e-11
9.475372439e-06
-2.75759062e-11
-1.049772473e-10
9.475344314e-06
1.564359412e-12
-2.041929495e-12
9.475344373e-06
2.951172745e-13
-2.111477632e-12
9.47534376e-06
-4.712918809e-14
-1.900089735e-12
9.475341032e-06
-1.019002363e-12
-9.737836715e-13
9.475343706e-06
6.578161341e-13
5.710942244e-14
9.475343151e-06
1.723767937e-12
-5.930646467e-13
9.475342617e-06
1.139194143e-12
8.964133684e-14
9.475343228e-06
1.651559147e-12
2.132687037e-12
9.475340359e-06
2.107022009e-12
2.119239011e-12
9.475339317e-06
-1.257094335e-12
3.053795973e-12
9.475328692e-06
-1.485018832e-12
5.3915613e-12
9.475321316e-06
-9.285107534e-12
7.055598602e-12
9.475312026e-06
-3.735611636e-11
2.633417258e-11
-4.949210564e-11
3.022568886e-11
9.475330142e-06
-2.260928253e-13
-1.833165541e-12
9.475332215e-06
-8.177120189e-13
-1.506432163e-12
9.475331476e-06
-9.348410256e-13
-1.723715201e-12
9.475331434e-06
7.314726708e-13
1.772390383e-13
9.475334125e-06
4.599996619e-13
-1.815253831e-13
9.475332742e-06
7.064231912e-14
-1.185616859e-13
9.475333574e-06
6.788580443e-13
-1.014789856e-13
9.475332147e-06
5.52507059e-13
1.329149663e-12
9.475328669e-06
3.690844803e-12
1.35251335e-12
9.475327578e-06
-4.943956463e-13
2.826565285e-12
9.475313045e-06
6.38151843e-12
6.081340579e-12
9.475300355e-06
-1.584316539e-11
1.145032706e-11
9.475237152e-06
-4.313732732e-11
3.434573596e-11
-1.447160579e-10
4.295071323e-11
9.475329827e-06
-6.196944978e-13
-1.709205322e-12
9.475330755e-06
5.321145369e-13
-2.10425193e-14
9.475330549e-06
1.275784174e-12
-1.797587335e-12
9.47532905e-06
-2.447308102e-13
-2.241106472e-13
9.475332131e-06
1.701472345e-12
9.998024208e-13
9.475330195e-06
4.414540843e-13
7.091290365e-13
9.475330951e-06
1.09972024e-12
1.414380032e-12
9.475327824e-06
8.46110479e-13
1.749065843e-12
9.475321828e-06
2.082195397e-12
5.431499987e-13
9.475317008e-06
2.032088599e-12
3.496086148e-12
9.475292722e-06
2.11929789e-11
5.649811337e-12
9.475247318e-06
-7.669742331e-12
1.782266935e-11
9.47506085e-06
3.205314426e-11
5.640952207e-11
-2.430409055e-10
1.026260177e-10
9.475346199e-06
2.501080332e-13
-1.031819616e-12
9.475348975e-06
4.852607728e-13
-7.949353006e-13
9.475345812e-06
-2.713720339e-13
-2.144875631e-12
9.475348825e-06
2.070914196e-12
1.354311439e-12
9.475347151e-06
4.130831806e-13
-4.563207383e-13
9.475347432e-06
5.18998511e-13
9.134084287e-14
9.475349018e-06
4.625272266e-13
9.188328424e-13
9.475345932e-06
-5.47694507e-13
-4.395788811e-13
9.475349127e-06
1.596998384e-12
5.239495451e-14
9.475349125e-06
-1.182314211e-12
3.267316008e-12
9.475371357e-06
6.02535862e-12
-4.022674233e-13
9.475349893e-06
-2.129090772e-11
1.843520053e-11
9.475366971e-06
-3.614407026e-11
2.690171401e-11
-5.770871414e-10
2.031290727e-10
9.475346221e-06
3.93351616e-13
-5.398865391e-13
9.475345691e-06
-1.200796271e-13
-1.919621295e-12
9.475345667e-06
1.378366863e-12
-1.679173358e-13
9.47534458e-06
5.546749481e-13
-5.938441281e-13
9.475345707e-06
8.03590277e-13
2.676073672e-14
9.475344108e-06
-2.142826799e-13
-4.145789798e-13
9.475345311e-06
1.401182045e-13
-3.73039736e-13
9.475344068e-06
-4.344433242e-13
2.212137043e-13
9.475347377e-06
-1.13515381e-12
-1.1096937e-12
9.47534205e-06
5.83974838e-13
2.131496309e-12
9.475360941e-06
-6.494608219e-12
-4.550297269e-12
9.475279502e-06
1.953654361e-11
2.077958771e-11
9.47514296e-06
3.51243653e-11
3.744706559e-11
9.472840757e-06
5.741746967e-10
5.778680737e-10
8.79481886e-09
9.47536135e-06
-2.935130113e-13
-1.677857754e-12
9.47536101e-06
1.971183672e-13
-1.314938638e-12
9.475362656e-06
2.033900339e-13
-1.090606116e-12
9.475361489e-06
4.363696774e-13
-1.417640331e-12
9.475360983e-06
6.672168995e-13
-1.357206302e-12
9.475362127e-06
-2.827807417e-14
-2.838034912e-13
9.475360689e-06
-1.104141473e-12
-3.746162187e-13
9.475361666e-06
4.326184889e-13
3.700932089e-14
9.475365758e-06
-3.027609463e-12
-6.293881504e-13
9.475365951e-06
-1.19177e-12
2.544238855e-12
9.475385685e-06
-2.256487467e-11
-1.009927714e-12
9.475364934e-06
5.82960853e-12
1.865503024e-11
9.475381783e-06
-3.364639436e-11
2.683557476e-11
9.475316412e-06
2.409557476e-10
2.025252509e-10
4.616193127e-09
9.475313487e-06
-2.95489709e-14
7.274841084e-13
9.475312078e-06
-1.211638542e-13
-1.638934425e-12
9.475312474e-06
4.040128208e-13
-1.008853916e-12
9.47530977e-06
-1.008558546e-12
-1.051850477e-13
9.475307551e-06
-4.112773098e-13
7.152633918e-13
9.475308783e-06
-2.205367194e-13
5.992178448e-13
9.475309241e-06
-3.432825189e-13
8.93429787e-13
9.475305367e-06
5.225779181e-13
7.521069124e-13
9.475303558e-06
-1.871193127e-12
1.265273496e-12
9.475294925e-06
1.523878753e-12
1.875106636e-12
9.475271418e-06
-3.517302053e-12
4.599473548e-12
9.475228226e-06
1.780698182e-11
1.688839142e-11
9.475039435e-06
4.346346765e-11
5.498369291e-11
9.474935813e-06