/*--------------------------------*- C++ -*----------------------------------*\
| =========                 |                                                 |
| \\      /  F ield         | OpenFOAM: The Open Source CFD Toolbox           |
|  \\    /   O peration     | Version:  4.x                                   |
|   \\  /    A nd           | Web:      www.OpenFOAM.org                      |
|    \\/     M anipulation  |                                                 |
\*---------------------------------------------------------------------------*/
FoamFile
{
    version     2.0;
    format      ascii;
    class       volScalarField;
    location    "4000";
    object      rho;
}
// * * * * * * * * * * * * * * * * * * * * * * * * * * * * * * * * * * * * * //

dimensions      [1 -3 0 0 0 0 0];

internalField   nonuniform List<scalar> 
1175
(
0.2790919593
0.2790919907
0.2790919671
0.2790919817
0.2790919671
0.2790919629
0.279091971
0.2790919328
0.2790919378
0.2790919118
0.2790919123
0.2790919383
0.279091982
0.2790920499
0.279092227
0.2790905063
0.2790905013
0.2790904719
0.2790904873
0.2790904965
0.2790904975
0.2790904891
0.2790904881
0.2790904848
0.2790904943
0.2790904645
0.2790904709
0.2790905461
0.2790906796
0.2790909666
0.2790916982
0.2790917091
0.2790917092
0.2790917197
0.2790917496
0.2790917499
0.2790917748
0.2790917556
0.2790917331
0.279091773
0.2790917793
0.2790918348
0.2790919419
0.279092262
0.2790928325
0.2790918361
0.2790918581
0.2790918574
0.2790918446
0.2790918214
0.2790918344
0.2790918251
0.2790918518
0.2790918372
0.2790917809
0.2790918012
0.2790918416
0.2790920582
0.2790925469
0.2790935308
0.2790921067
0.2790921343
0.2790921134
0.2790920862
0.2790920938
0.2790920978
0.2790921256
0.2790921136
0.279092131
0.2790921326
0.279092196
0.2790922965
0.2790925681
0.2790932496
0.2790945699
0.2790917497
0.2790917486
0.2790917461
0.2790917243
0.2790917452
0.2790917423
0.2790917208
0.2790917205
0.2790917363
0.2790917527
0.279091788
0.2790918899
0.2790920794
0.2790925918
0.2790936035
0.2790912379
0.27909123
0.2790911992
0.2790911822
0.2790912011
0.2790911862
0.2790912136
0.2790911967
0.2790912075
0.2790912028
0.2790912367
0.2790912786
0.2790914421
0.2790917168
0.2790922786
0.2790924719
0.2790924527
0.279092491
0.2790924874
0.2790924612
0.2790924497
0.2790925016
0.2790925219
0.2790925515
0.2790925796
0.2790926054
0.2790926223
0.2790926875
0.2790928302
0.2790931091
0.2790919293
0.2790919038
0.2790919264
0.2790919281
0.2790919209
0.2790919314
0.2790919243
0.2790919433
0.2790919224
0.2790919398
0.2790919389
0.2790919306
0.2790919809
0.2790920775
0.2790922709
0.2790919004
0.2790919044
0.2790918711
0.2790918844
0.2790918891
0.2790918955
0.2790919024
0.2790919165
0.2790918915
0.2790918921
0.2790918912
0.2790919454
0.2790920226
0.2790921836
0.2790929078
0.279092904
0.2790929153
0.2790928804
0.279092885
0.2790928907
0.2790929147
0.2790929326
0.2790929017
0.2790929257
0.2790929321
0.2790929956
0.2790931574
0.2790934073
0.2790940224
0.2790925
0.2790924798
0.279092491
0.2790925009
0.2790925299
0.2790925023
0.2790925265
0.2790924773
0.2790925109
0.2790925137
0.2790925434
0.2790926518
0.279092892
0.2790935362
0.2790949023
0.2790922556
0.2790922765
0.2790922452
0.2790922251
0.2790922322
0.2790922438
0.279092227
0.279092221
0.2790922106
0.2790922509
0.279092262
0.2790924531
0.2790929422
0.2790943415
0.2790971392
0.279089839
0.2790898275
0.279089817
0.2790898044
0.2790897976
0.2790898034
0.2790897983
0.2790897975
0.2790897956
0.279089832
0.2790898956
0.2790901346
0.2790908337
0.2790928768
0.2790972912
0.2790919688
0.2790919617
0.2790920067
0.2790919796
0.2790919771
0.2790919613
0.2790919776
0.2790920056
0.2790920557
0.2790920705
0.279092106
0.279092323
0.2790928244
0.2790942116
0.2790970412
0.2790917935
0.2790917719
0.2790917858
0.2790917335
0.2790917283
0.2790917427
0.2790917251
0.279091739
0.2790917198
0.2790917257
0.2790917581
0.2790918044
0.2790921136
0.2790928191
0.2790941071
0.2790916061
0.2790916397
0.2790916506
0.2790916787
0.2790916952
0.2790917153
0.2790916738
0.2790916482
0.2790916709
0.2790916622
0.2790916783
0.279091717
0.2790918151
0.2790921043
0.2790926973
0.279091673
0.2790917092
0.2790917069
0.2790917021
0.2790917245
0.2790917224
0.2790917222
0.2790917274
0.2790916968
0.2790916935
0.2790917206
0.2790917303
0.2790917806
0.2790919168
0.2790921827
0.2790915155
0.2790915247
0.2790915348
0.2790915336
0.2790915364
0.2790915512
0.2790915588
0.2790915469
0.2790915568
0.2790915393
0.2790915474
0.2790915964
0.2790916921
0.2790919914
0.2790902337
0.2790902146
0.2790902318
0.2790902014
0.2790902081
0.2790902159
0.2790901835
0.2790901648
0.2790901698
0.2790901727
0.2790902345
0.2790903611
0.2790906357
0.2790913322
0.2790922003
0.2790922121
0.2790922134
0.2790922033
0.279092192
0.2790922028
0.2790921918
0.2790922366
0.2790922675
0.2790922656
0.2790922703
0.2790924773
0.2790931811
0.2790949892
0.2790987087
0.2790907187
0.2790906753
0.2790906365
0.2790906481
0.2790906535
0.2790906408
0.2790906539
0.2790907087
0.2790906967
0.2790907225
0.2790908489
0.2790912801
0.2790928492
0.2790974089
0.2791074707
0.2790908141
0.2790908344
0.2790908516
0.2790908635
0.2790908452
0.2790908019
0.2790908399
0.2790908453
0.279090852
0.2790909396
0.2790911214
0.2790918118
0.2790943388
0.2791027848
0.2791238423
0.27909238
0.2790923892
0.2790923966
0.2790924467
0.2790924342
0.2790924356
0.2790924476
0.279092493
0.279092512
0.2790925553
0.2790926703
0.2790931579
0.2790946932
0.2790992458
0.2791092919
0.2790906425
0.2790906858
0.2790906965
0.2790906938
0.2790907183
0.2790907175
0.2790907357
0.2790907334
0.2790907338
0.2790907261
0.2790907993
0.2790910119
0.2790917144
0.2790935498
0.2790973369
0.2790920171
0.2790920299
0.2790920209
0.2790920116
0.2790920312
0.2790920355
0.2790920197
0.2790920074
0.2790920355
0.2790920159
0.279092029
0.2790921015
0.2790923631
0.279093038
0.2790944023
0.2790918729
0.2790918638
0.2790918771
0.279091876
0.2790918923
0.2790919059
0.2790918897
0.2790918718
0.2790918792
0.2790919073
0.2790919398
0.2790919656
0.2790920978
0.2790923741
0.2790929453
0.2790918174
0.2790917977
0.2790917803
0.2790918043
0.2790918347
0.2790918671
0.2790918492
0.2790918394
0.2790918145
0.279091848
0.2790918284
0.2790919466
0.2790921397
0.2790926375
0.2790920393
0.2790920434
0.2790920591
0.2790920434
0.2790920258
0.2790920121
0.2790920328
0.2790920147
0.2790920523
0.2790920708
0.2790921008
0.2790922372
0.2790927652
0.279094146
0.2790919455
0.2790919676
0.2790919316
0.2790919268
0.2790919578
0.2790919677
0.2790919828
0.2790919485
0.2790919596
0.279092022
0.2790921763
0.2790926451
0.2790942186
0.2790988264
0.2790905597
0.2790905891
0.2790906029
0.2790906167
0.2790906568
0.2790905961
0.2790905905
0.2790906455
0.2790906937
0.279090739
0.2790909771
0.2790920074
0.2790961991
0.2791107045
0.2791479896
0.279092306
0.2790922979
0.2790922524
0.2790922499
0.2790922568
0.2790922577
0.2790922397
0.2790922691
0.2790922788
0.2790923909
0.279092759
0.2790945297
0.279102804
0.2791387949
0.2792652279
0.2790918904
0.2790918972
0.2790919078
0.2790918577
0.2790918659
0.279091905
0.2790919108
0.2790919271
0.2790918966
0.2790919351
0.2790921511
0.2790932626
0.2790974508
0.2791120116
0.2791492483
0.2790920837
0.2790921092
0.2790920101
0.2790920009
0.2790919888
0.2790920047
0.2790919896
0.2790919856
0.279091995
0.2790920263
0.2790921295
0.2790925755
0.2790941295
0.2790986773
0.2791087088
0.2790907915
0.2790907803
0.279090831
0.279090843
0.2790908174
0.279090829
0.2790908731
0.2790908559
0.2790908743
0.2790908842
0.2790909463
0.2790911044
0.2790916094
0.2790930447
0.2790958835
0.2790917705
0.2790917689
0.2790917556
0.2790917477
0.279091744
0.2790917331
0.2790917365
0.279091745
0.2790917244
0.2790917774
0.2790918066
0.2790918832
0.279092045
0.2790925206
0.2790935706
0.2790919657
0.2790919693
0.2790919404
0.2790919402
0.2790919369
0.2790919523
0.2790919419
0.2790919445
0.2790919469
0.2790919504
0.2790919684
0.279092082
0.2790923315
0.2790930009
0.2790915953
0.2790915952
0.279091634
0.2790916609
0.2790916371
0.279091644
0.2790916498
0.2790916295
0.279091686
0.2790916896
0.2790917954
0.2790920206
0.2790927527
0.2790948281
0.2790915512
0.2790915626
0.279091551
0.2790915495
0.2790916272
0.2790916046
0.279091575
0.2790915615
0.2790915424
0.2790915421
0.279091726
0.27909237
0.2790949008
0.2791033516
0.279092073
0.2790920595
0.2790920588
0.2790920419
0.279092031
0.2790920311
0.2790920524
0.2790920645
0.2790920508
0.2790921291
0.2790924555
0.2790942722
0.2791025663
0.2791385639
0.2790919796
0.2790919968
0.2790920205
0.2790920102
0.279092014
0.2790919896
0.2790919835
0.2790920292
0.2790920355
0.2790921227
0.2790927038
0.2790961257
0.2791167888
0.2792513707
0.281915985
0.2790924804
0.2790924773
0.2790924533
0.279092487
0.2790925039
0.2790924877
0.2790924725
0.2790924755
0.2790924932
0.2790925677
0.2790929538
0.2790947518
0.2791029938
0.2791389691
0.2792653809
0.2790909758
0.2790909898
0.2790910121
0.2790910097
0.2790909874
0.2790909406
0.2790909554
0.2790909372
0.2790909392
0.279090929
0.2790910936
0.2790917582
0.2790943494
0.2791027634
0.2791238101
0.2790924598
0.2790924421
0.2790924114
0.2790924393
0.2790924351
0.2790923941
0.2790923809
0.2790923937
0.27909243
0.2790924934
0.2790925613
0.2790928192
0.2790935681
0.279095687
0.2791001378
0.2790918663
0.2790918561
0.2790918758
0.2790918837
0.2790918277
0.2790918302
0.2790918411
0.2790918248
0.2790918143
0.2790918061
0.2790918377
0.2790918991
0.2790921703
0.2790928297
0.2790941349
0.2790907673
0.2790907974
0.2790908171
0.2790908194
0.2790908482
0.2790908535
0.2790908834
0.2790908923
0.2790909047
0.2790909098
0.2790909315
0.2790909954
0.2790911948
0.2790916937
0.2790917101
0.2790917311
0.2790917553
0.2790917816
0.2790917569
0.2790917842
0.2790917607
0.2790917468
0.2790917378
0.279091759
0.2790917993
0.2790919601
0.2790924723
0.2790938494
0.2790911604
0.2790911468
0.2790911379
0.2790911416
0.279091158
0.2790911457
0.2790911288
0.2790911352
0.2790911098
0.2790911242
0.2790912575
0.2790916393
0.2790932464
0.279097792
0.2790922689
0.2790922269
0.2790922176
0.2790922374
0.2790921945
0.2790922177
0.2790922203
0.2790921978
0.2790921795
0.2790922363
0.2790924801
0.2790935855
0.2790977911
0.2791123511
0.2790912228
0.2790912279
0.2790912739
0.2790912946
0.2790912723
0.2790912366
0.2790912253
0.2790912077
0.2790912494
0.279091331
0.2790917332
0.279093543
0.2791018081
0.2791377864
0.2790921205
0.2790920946
0.2790920799
0.2790920839
0.2790920462
0.2790920676
0.2790920684
0.2790920716
0.279092089
0.2790921357
0.2790924107
0.2790934774
0.2790976222
0.2791121945
0.2790915832
0.2790915952
0.2790916665
0.2790916534
0.2790916754
0.2790916682
0.2790917103
0.2790916787
0.2790916878
0.2790917442
0.279091858
0.2790923039
0.2790938558
0.2790983617
0.2791083884
0.279091381
0.2790913813
0.2790914229
0.2790914121
0.2790914139
0.2790914082
0.2790913966
0.2790914195
0.279091443
0.2790913918
0.2790914669
0.2790916239
0.2790921541
0.2790935303
0.2790963242
0.2790918246
0.2790918275
0.2790918023
0.2790917598
0.2790917421
0.2790917374
0.2790917152
0.2790917271
0.2790917587
0.2790917825
0.2790917848
0.2790918541
0.2790920664
0.2790925526
0.2790935814
0.2790917694
0.2790918003
0.2790917669
0.2790917556
0.2790917591
0.2790917589
0.2790917624
0.2790917381
0.2790917357
0.279091781
0.2790917799
0.2790918089
0.2790919183
0.2790921751
0.2790925825
0.2790925807
0.2790925878
0.2790925663
0.2790925858
0.27909258
0.2790925375
0.2790925335
0.2790925168
0.2790925516
0.2790925773
0.2790926663
0.2790929437
0.2790936307
0.2790906541
0.2790906164
0.2790905674
0.2790905686
0.2790905842
0.279090587
0.2790906268
0.279090628
0.279090658
0.2790907063
0.2790907627
0.279090969
0.2790916446
0.27909348
0.2790915787
0.2790915727
0.2790916028
0.2790915935
0.2790916003
0.2790916013
0.279091559
0.2790915471
0.2790915725
0.2790916316
0.2790917491
0.2790921786
0.2790937478
0.2790983066
0.2790913437
0.2790913454
0.2790913229
0.279091353
0.2790913296
0.2790913298
0.2790913612
0.2790913183
0.2790913973
0.279091465
0.2790916062
0.2790922843
0.2790948339
0.279103234
0.2790917775
0.2790917773
0.2790917586
0.2790917592
0.2790917593
0.2790917746
0.2790917332
0.2790917516
0.2790917303
0.279091725
0.2790918681
0.2790923095
0.2790938847
0.2790984454
0.2790917343
0.2790917016
0.2790917116
0.2790917628
0.2790917524
0.2790917488
0.2790917539
0.2790917458
0.2790917887
0.2790917791
0.2790918416
0.2790920998
0.2790928351
0.2790947005
0.2790914497
0.2790914651
0.2790914477
0.2790914562
0.2790914881
0.2790914889
0.2790914891
0.2790914688
0.2790914613
0.2790914314
0.2790914911
0.279091591
0.2790918478
0.2790925087
0.2790938314
0.2790921554
0.2790921163
0.2790921076
0.2790921438
0.2790921253
0.279092098
0.2790920942
0.2790920878
0.279092102
0.2790921182
0.2790921268
0.2790921362
0.2790922889
0.2790926004
0.2790931834
0.2790917571
0.2790917382
0.2790917669
0.2790917767
0.2790917782
0.2790917841
0.2790918038
0.2790918209
0.2790918247
0.2790918458
0.2790918437
0.2790918555
0.2790919132
0.2790920592
0.2790914624
0.2790914849
0.2790914502
0.2790914629
0.2790914008
0.2790914196
0.2790913958
0.2790913643
0.2790913709
0.279091396
0.2790914279
0.2790914093
0.279091519
0.2790918295
0.2790918161
0.2790917968
0.2790918637
0.2790918528
0.2790918607
0.2790918716
0.2790918751
0.279091875
0.2790918955
0.2790919119
0.2790919696
0.2790920943
0.2790923788
0.2790930226
0.2790917178
0.2790917081
0.2790917059
0.2790917185
0.2790916816
0.2790916605
0.279091655
0.2790916478
0.2790916942
0.2790916851
0.2790917339
0.2790919082
0.2790924358
0.279093792
0.279091986
0.2790919539
0.2790919774
0.2790920165
0.2790920461
0.2790920381
0.2790920449
0.279092015
0.2790920193
0.2790920495
0.2790921258
0.27909235
0.2790930716
0.2790951347
0.279091509
0.2790915276
0.2790914814
0.2790915174
0.2790915349
0.2790915186
0.2790915082
0.2790915626
0.2790915427
0.2790915501
0.2790915908
0.2790917506
0.279092232
0.2790936319
0.2790928027
0.2790927911
0.2790928362
0.2790928483
0.2790928124
0.2790928645
0.2790928566
0.2790928571
0.2790928357
0.2790928277
0.2790928437
0.2790929359
0.2790932598
0.2790939257
0.2790934741
0.2790934565
0.2790934209
0.2790934186
0.2790934013
0.2790934211
0.2790934438
0.2790934892
0.2790935141
0.2790935233
0.2790935477
0.2790935493
0.2790936799
0.27909395
0.2790919153
0.2790919286
0.2790919487
0.2790919236
0.2790918989
0.2790919002
0.2790918988
0.2790918775
0.2790918585
0.2790918925
0.2790919276
0.2790919452
0.2790920303
0.279092184
0.2790924573
0.2790923187
0.2790923048
0.2790923015
0.2790922822
0.2790922549
0.2790922756
0.2790922474
0.2790922685
0.27909225
0.2790922549
0.279092271
0.2790923178
0.2790923734
0.2790924709
0.2790910785
0.2790910759
0.2790910805
0.2790910514
0.2790910861
0.2790910831
0.2790910825
0.2790910471
0.2790910598
0.2790910441
0.2790910488
0.2790910797
0.27909115
0.2790912927
0.279091152
0.279091155
0.2790911452
0.2790911608
0.2790911532
0.279091165
0.279091187
0.279091217
0.2790912031
0.2790911825
0.2790912058
0.2790912644
0.2790914132
0.2790917216
0.2790915173
0.2790915378
0.2790915166
0.2790915078
0.2790915119
0.2790915733
0.279091556
0.279091583
0.2790915658
0.279091589
0.2790915803
0.2790916542
0.2790918371
0.2790923247
0.2790921627
0.2790921418
0.2790921522
0.2790921351
0.279092161
0.2790921719
0.2790921712
0.2790921786
0.279092145
0.2790922005
0.279092259
0.2790923498
0.2790926029
0.279093303
0.2790917083
0.2790917328
0.2790917425
0.279091732
0.2790917444
0.2790917446
0.279091743
0.279091755
0.2790917537
0.2790917931
0.2790918066
0.2790918821
0.2790920959
0.2790925442
0.27909133
0.2790913453
0.2790913604
0.2790913375
0.2790913595
0.2790913502
0.2790913396
0.2790913158
0.2790913185
0.2790913349
0.279091346
0.2790914171
0.2790915264
0.2790918092
0.2790915048
0.2790915028
0.2790914856
0.2790915167
0.2790915107
0.2790915258
0.2790915054
0.2790914922
0.2790914776
0.2790915276
0.2790915118
0.279091552
0.2790916089
0.2790917817
0.2790916988
0.2790916991
0.2790916815
0.2790916699
0.2790916733
0.2790916763
0.279091699
0.2790917295
0.2790917378
0.2790917335
0.2790917471
0.2790917606
0.2790917675
0.2790918528
)
;

boundaryField
{
    top
    {
        type            calculated;
        value           nonuniform List<scalar> 
134
(
0.2790919293
0.279091673
0.2790918729
0.2790917705
0.2790918663
0.2790918246
0.2790921554
0.2790919153
0.2790916988
0.2790919038
0.2790917092
0.2790918638
0.2790917689
0.2790918561
0.2790918275
0.2790921163
0.2790919286
0.2790916991
0.2790919264
0.2790917069
0.2790918771
0.2790917556
0.2790918758
0.2790918023
0.2790921076
0.2790919487
0.2790916815
0.2790919281
0.2790917021
0.279091876
0.2790917477
0.2790918837
0.2790917598
0.2790921438
0.2790919236
0.2790916699
0.2790919209
0.2790917245
0.2790918923
0.279091744
0.2790918277
0.2790917421
0.2790921253
0.2790918989
0.2790916733
0.2790919314
0.2790917224
0.2790919059
0.2790917331
0.2790918302
0.2790917374
0.279092098
0.2790919002
0.2790916763
0.2790919243
0.2790917222
0.2790918897
0.2790917365
0.2790918411
0.2790917152
0.2790920942
0.2790918988
0.279091699
0.2790919433
0.2790917274
0.2790918718
0.279091745
0.2790918248
0.2790917271
0.2790920878
0.2790918775
0.2790917295
0.2790919224
0.2790916968
0.2790918792
0.2790917244
0.2790918143
0.2790917587
0.279092102
0.2790918585
0.2790917378
0.2790919398
0.2790916935
0.2790919073
0.2790917774
0.2790918061
0.2790917825
0.2790921182
0.2790918925
0.2790917335
0.2790919389
0.2790917206
0.2790919398
0.2790918066
0.2790918377
0.2790917848
0.2790921268
0.2790919276
0.2790917471
0.2790919306
0.2790917303
0.2790919656
0.2790918832
0.2790918991
0.2790918541
0.2790921362
0.2790919452
0.2790917606
0.2790919809
0.2790917806
0.2790920978
0.279092045
0.2790921703
0.2790920664
0.2790922889
0.2790920303
0.2790917675
0.2790920775
0.2790919168
0.2790923741
0.2790925206
0.2790928297
0.2790925526
0.2790926004
0.279092184
0.2790918528
0.2790922709
0.2790921827
0.2790929453
0.2790935706
0.2790941349
0.2790935814
0.2790931834
0.2790924573
)
;
    }
    bottom
    {
        type            calculated;
        value           nonuniform List<scalar> 
127
(
0.2790919593
0.2790919004
0.2790915155
0.2790918174
0.2790919657
0.2790907673
0.2790917694
0.2790917571
0.2790923187
0.2790919907
0.2790919044
0.2790915247
0.2790917977
0.2790919693
0.2790907974
0.2790918003
0.2790917382
0.2790923048
0.2790919671
0.2790918711
0.2790915348
0.2790917803
0.2790919404
0.2790908171
0.2790917669
0.2790917669
0.2790923015
0.2790919817
0.2790918844
0.2790915336
0.2790918043
0.2790919402
0.2790908194
0.2790917556
0.2790917767
0.2790922822
0.2790919671
0.2790918891
0.2790915364
0.2790918347
0.2790919369
0.2790908482
0.2790917591
0.2790917782
0.2790922549
0.2790919629
0.2790918955
0.2790915512
0.2790918671
0.2790919523
0.2790908535
0.2790917589
0.2790917841
0.2790922756
0.279091971
0.2790919024
0.2790915588
0.2790918492
0.2790919419
0.2790908834
0.2790917624
0.2790918038
0.2790922474
0.2790919328
0.2790919165
0.2790915469
0.2790918394
0.2790919445
0.2790908923
0.2790917381
0.2790918209
0.2790922685
0.2790919378
0.2790918915
0.2790915568
0.2790918145
0.2790919469
0.2790909047
0.2790917357
0.2790918247
0.27909225
0.2790919118
0.2790918921
0.2790915393
0.279091848
0.2790919504
0.2790909098
0.279091781
0.2790918458
0.2790922549
0.2790919123
0.2790918912
0.2790915474
0.2790918284
0.2790919684
0.2790909315
0.2790917799
0.2790918437
0.279092271
0.2790919383
0.2790919454
0.2790915964
0.2790919466
0.279092082
0.2790909954
0.2790918089
0.2790918555
0.2790923178
0.279091982
0.2790920226
0.2790916921
0.2790921397
0.2790923315
0.2790911948
0.2790919183
0.2790919132
0.2790923734
0.2790920499
0.2790921836
0.2790919914
0.2790926375
0.2790930009
0.2790916937
0.2790921751
0.2790920592
0.2790924709
0.279092227
)
;
    }
    side-walls
    {
        type            calculated;
        value           nonuniform List<scalar> 
261
(
0.2790919593
0.2790905063
0.2790916982
0.2790918361
0.2790921067
0.2790917497
0.2790912379
0.2790924719
0.2790919293
0.2790919907
0.2790905013
0.2790917091
0.2790918581
0.2790921343
0.2790917486
0.27909123
0.2790924527
0.2790919038
0.2790919671
0.2790904719
0.2790917092
0.2790918574
0.2790921134
0.2790917461
0.2790911992
0.279092491
0.2790919264
0.2790919817
0.2790904873
0.2790917197
0.2790918446
0.2790920862
0.2790917243
0.2790911822
0.2790924874
0.2790919281
0.2790919671
0.2790904965
0.2790917496
0.2790918214
0.2790920938
0.2790917452
0.2790912011
0.2790924612
0.2790919209
0.2790919629
0.2790904975
0.2790917499
0.2790918344
0.2790920978
0.2790917423
0.2790911862
0.2790924497
0.2790919314
0.279091971
0.2790904891
0.2790917748
0.2790918251
0.2790921256
0.2790917208
0.2790912136
0.2790925016
0.2790919243
0.2790919328
0.2790904881
0.2790917556
0.2790918518
0.2790921136
0.2790917205
0.2790911967
0.2790925219
0.2790919433
0.2790919378
0.2790904848
0.2790917331
0.2790918372
0.279092131
0.2790917363
0.2790912075
0.2790925515
0.2790919224
0.2790919118
0.2790904943
0.279091773
0.2790917809
0.2790921326
0.2790917527
0.2790912028
0.2790925796
0.2790919398
0.2790919123
0.2790904645
0.2790917793
0.2790918012
0.279092196
0.279091788
0.2790912367
0.2790926054
0.2790919389
0.2790919383
0.2790904709
0.2790918348
0.2790918416
0.2790922965
0.2790918899
0.2790912786
0.2790926223
0.2790919306
0.279091982
0.2790905461
0.2790919419
0.2790920582
0.2790925681
0.2790920794
0.2790914421
0.2790926875
0.2790919809
0.2790920499
0.2790906796
0.279092262
0.2790925469
0.2790932496
0.2790925918
0.2790917168
0.2790928302
0.2790920775
0.279092227
0.2790909666
0.2790928325
0.2790935308
0.2790945699
0.2790936035
0.2790922786
0.2790931091
0.2790922709
0.2790923187
0.2790910785
0.279091152
0.2790915173
0.2790921627
0.2790917083
0.27909133
0.2790915048
0.2790916988
0.2790923048
0.2790910759
0.279091155
0.2790915378
0.2790921418
0.2790917328
0.2790913453
0.2790915028
0.2790916991
0.2790923015
0.2790910805
0.2790911452
0.2790915166
0.2790921522
0.2790917425
0.2790913604
0.2790914856
0.2790916815
0.2790922822
0.2790910514
0.2790911608
0.2790915078
0.2790921351
0.279091732
0.2790913375
0.2790915167
0.2790916699
0.2790922549
0.2790910861
0.2790911532
0.2790915119
0.279092161
0.2790917444
0.2790913595
0.2790915107
0.2790916733
0.2790922756
0.2790910831
0.279091165
0.2790915733
0.2790921719
0.2790917446
0.2790913502
0.2790915258
0.2790916763
0.2790922474
0.2790910825
0.279091187
0.279091556
0.2790921712
0.279091743
0.2790913396
0.2790915054
0.279091699
0.2790922685
0.2790910471
0.279091217
0.279091583
0.2790921786
0.279091755
0.2790913158
0.2790914922
0.2790917295
0.27909225
0.2790910598
0.2790912031
0.2790915658
0.279092145
0.2790917537
0.2790913185
0.2790914776
0.2790917378
0.2790922549
0.2790910441
0.2790911825
0.279091589
0.2790922005
0.2790917931
0.2790913349
0.2790915276
0.2790917335
0.279092271
0.2790910488
0.2790912058
0.2790915803
0.279092259
0.2790918066
0.279091346
0.2790915118
0.2790917471
0.2790923178
0.2790910797
0.2790912644
0.2790916542
0.2790923498
0.2790918821
0.2790914171
0.279091552
0.2790917606
0.2790923734
0.27909115
0.2790914132
0.2790918371
0.2790926029
0.2790920959
0.2790915264
0.2790916089
0.2790917675
0.2790924709
0.2790912927
0.2790917216
0.2790923247
0.279093303
0.2790925442
0.2790918092
0.2790917817
0.2790918528
)
;
    }
    inlet
    {
        type            calculated;
        value           nonuniform List<scalar> 
81
(
0.2790919593
0.2790905063
0.2790916982
0.2790918361
0.2790921067
0.2790917497
0.2790912379
0.2790924719
0.2790919293
0.2790919004
0.2790929078
0.2790925
0.2790922556
0.279089839
0.2790919688
0.2790917935
0.2790916061
0.279091673
0.2790915155
0.2790902337
0.2790922003
0.2790907187
0.2790908141
0.27909238
0.2790906425
0.2790920171
0.2790918729
0.2790918174
0.2790920393
0.2790919455
0.2790905597
0.279092306
0.2790918904
0.2790920837
0.2790907915
0.2790917705
0.2790919657
0.2790915953
0.2790915512
0.279092073
0.2790919796
0.2790924804
0.2790909758
0.2790924598
0.2790918663
0.2790907673
0.2790917101
0.2790911604
0.2790922689
0.2790912228
0.2790921205
0.2790915832
0.279091381
0.2790918246
0.2790917694
0.2790925825
0.2790906541
0.2790915787
0.2790913437
0.2790917775
0.2790917343
0.2790914497
0.2790921554
0.2790917571
0.2790914624
0.2790918161
0.2790917178
0.279091986
0.279091509
0.2790928027
0.2790934741
0.2790919153
0.2790923187
0.2790910785
0.279091152
0.2790915173
0.2790921627
0.2790917083
0.27909133
0.2790915048
0.2790916988
)
;
    }
    outlet
    {
        type            calculated;
        value           nonuniform 0();
    }
    procBoundary0to1
    {
        type            processor;
        value           nonuniform List<scalar> 
97
(
0.279092539
0.2790924176
0.2790914274
0.2790937627
0.2790950698
0.2790965697
0.2790951318
0.2790932489
0.2790936061
0.279092557
0.2790924176
0.2790924176
0.2790949393
0.2790926908
0.2790969019
0.2791009973
0.2791025626
0.279100834
0.2790961004
0.279093658
0.279092678
0.2790925349
0.2790926908
0.2790926908
0.2791037789
0.279108826
0.2791183719
0.2791396048
0.2791201738
0.2791023772
0.2790964206
0.2790938833
0.2790936561
0.2790969558
0.279108826
0.279108826
0.2791732444
0.2792650386
0.2792845977
0.2791745198
0.2791195889
0.2790997316
0.2790950999
0.2790943404
0.2790992816
0.279124406
0.2792650386
0.2792650386
0.2814612355
0.2792643118
0.2792846918
0.2791494049
0.2791396004
0.2791053877
0.2790961213
0.2790927098
0.279096637
0.2791078082
0.2791495937
0.2792643118
0.2791494049
0.2791494049
0.2791192914
0.2790984766
0.2791001877
0.2790951048
0.2790927582
0.2790949446
0.2790972741
0.279108324
0.2791242422
0.27910849
0.2790984766
0.2790984766
0.2790958264
0.2790945459
0.2790941336
0.2790923805
0.2790924512
0.2790943981
0.2790966425
0.279099618
0.2790965018
0.2790952531
0.2790945459
0.2790945459
0.2790929439
0.2790920379
0.2790926104
0.2790916217
0.2790922777
0.2790933059
0.2790946236
0.2790935129
0.2790924456
0.2790920902
0.2790920379
)
;
    }
}


// ************************************************************************* //
