/*--------------------------------*- C++ -*----------------------------------*\
| =========                 |                                                 |
| \\      /  F ield         | OpenFOAM: The Open Source CFD Toolbox           |
|  \\    /   O peration     | Version:  4.x                                   |
|   \\  /    A nd           | Web:      www.OpenFOAM.org                      |
|    \\/     M anipulation  |                                                 |
\*---------------------------------------------------------------------------*/
FoamFile
{
    version     2.0;
    format      ascii;
    class       volVectorField;
    location    "4000";
    object      U;
}
// * * * * * * * * * * * * * * * * * * * * * * * * * * * * * * * * * * * * * //

dimensions      [0 1 -1 0 0 0 0];

internalField   nonuniform List<vector> 
1175
(
(0.01100000108 1.227843231e-09 5.712284041e-10)
(0.01100000108 6.976692911e-10 6.997850945e-11)
(0.0110000005 4.698333088e-10 -6.243359208e-10)
(0.01099999747 -1.312125416e-09 2.090481205e-09)
(0.01100000074 -5.173224627e-10 -2.018462033e-10)
(0.01100000045 -3.065997288e-10 -2.553805115e-10)
(0.01100000004 -1.103460961e-09 -3.635966851e-11)
(0.01100000314 -1.539158605e-09 7.35063834e-10)
(0.01100000657 -1.28964656e-09 -3.160669399e-09)
(0.01100000411 1.495017832e-09 -2.888518123e-09)
(0.01100001326 -1.43685983e-09 -3.45466125e-09)
(0.01100001161 -3.547944023e-09 -2.850589015e-09)
(0.01100004618 -8.406030456e-09 -6.245620737e-09)
(0.01100005995 -5.374539462e-09 -4.790057388e-09)
(0.01100011938 -2.504001711e-08 -2.193436943e-08)
(0.01099999863 4.638069149e-11 -1.474127199e-09)
(0.01099999936 -9.304910618e-10 -1.438694788e-09)
(0.0110000005 7.563946016e-10 -2.167909217e-09)
(0.01099999877 -2.12676543e-10 -1.49511604e-09)
(0.01099999902 6.899505939e-10 -1.192512789e-09)
(0.01099999896 -9.753662147e-10 -4.383094901e-10)
(0.01100000094 -1.40613419e-09 -6.268390042e-10)
(0.01100000069 -7.960040596e-10 6.409895684e-10)
(0.01100000341 -2.303322005e-09 -8.251480688e-10)
(0.01100000107 -1.635896649e-09 -1.315464997e-09)
(0.01100001048 -6.996734321e-09 -3.255335117e-09)
(0.01100000647 -1.081825492e-08 -1.928228159e-09)
(0.01100004176 -2.86994726e-08 -9.367690224e-09)
(0.01100004299 -2.397273879e-08 -3.521174882e-09)
(0.01100010907 -9.254612909e-08 -3.65469212e-08)
(0.0109999994 -8.214908922e-10 -1.672458077e-10)
(0.01100000134 -8.351419236e-10 7.954404528e-11)
(0.01099999986 -1.077695454e-09 -6.837968024e-10)
(0.01099999951 -7.657640052e-10 1.767145897e-09)
(0.01100000047 -2.005264953e-09 -1.368323001e-10)
(0.01099999974 5.428124096e-10 -1.126858182e-09)
(0.01099999911 7.310869135e-10 1.90109629e-10)
(0.01099999766 5.697933974e-10 -2.514893852e-09)
(0.0110000003 -8.21517963e-10 -2.851721407e-09)
(0.01099999495 -3.194287999e-09 -1.1702278e-09)
(0.01100000476 -5.533269076e-09 -3.232183533e-09)
(0.01099998841 -7.734278156e-09 -4.594805261e-09)
(0.01100002578 -2.963729958e-08 -1.151187411e-08)
(0.01099999148 -2.067530925e-08 -8.378555348e-09)
(0.01100008209 -1.150434504e-07 -7.964636825e-08)
(0.01100000009 -8.494506459e-10 1.52493142e-10)
(0.0110000004 1.061444519e-09 1.623637425e-09)
(0.01099999975 1.798058771e-10 2.791358432e-10)
(0.01099999929 7.56895641e-10 -1.644882912e-09)
(0.01100000025 -6.445951994e-10 -1.411158999e-09)
(0.01099999924 -4.987189198e-10 -2.135539457e-09)
(0.0110000007 -9.685111597e-10 1.225825935e-10)
(0.01099999647 -1.092672283e-09 -7.978320278e-10)
(0.01099999962 -9.548543197e-10 -8.49387844e-10)
(0.01099999414 -1.262720007e-09 -1.201489623e-09)
(0.01100000449 -8.172975313e-09 -4.993216802e-10)
(0.01099998086 -1.343798967e-08 -1.488629856e-09)
(0.0110000228 -4.155527986e-08 -1.117643049e-08)
(0.01099995456 -4.288980834e-08 -7.475831944e-10)
(0.01100007707 -1.93447899e-07 -1.108610438e-07)
(0.01100000059 1.703786265e-09 -2.384204582e-09)
(0.01099999853 1.41299972e-09 -8.913906657e-10)
(0.01099999857 1.140203952e-09 3.392807498e-10)
(0.0110000007 3.603901125e-10 6.578271524e-10)
(0.01100000117 1.32725776e-09 2.525471264e-10)
(0.01100000113 -1.799156267e-09 -1.752141753e-09)
(0.01100000004 -9.430646569e-10 -1.877073895e-10)
(0.01099999838 -2.969457237e-09 -2.641157754e-09)
(0.01099999723 -2.723921063e-09 2.471073093e-10)
(0.01099999013 -1.820388152e-09 3.974727945e-10)
(0.01099999264 -1.92692784e-09 -2.904916847e-09)
(0.01099995248 -1.229082618e-10 -8.322703888e-09)
(0.0109999861 -1.579383185e-10 -2.529692706e-08)
(0.01099983771 -1.233762607e-09 -2.468671305e-08)
(0.0110000377 1.119212992e-11 -2.830388317e-07)
(0.01100000014 7.908633222e-10 -1.568288819e-09)
(0.01100000049 5.647020173e-10 1.685708946e-10)
(0.01099999865 2.797788695e-10 -1.02398641e-09)
(0.01100000155 5.737842649e-10 6.597616653e-11)
(0.0109999964 5.16993717e-10 -1.811851987e-09)
(0.0109999987 7.596644853e-10 4.685107473e-10)
(0.01100000086 -3.193092084e-10 9.912123674e-10)
(0.01099999954 -6.85467483e-10 -7.111451907e-10)
(0.01100000319 1.839513329e-09 1.214204265e-09)
(0.01099999646 1.870470457e-09 -5.300277486e-10)
(0.01100000316 7.092696422e-09 2.915495504e-09)
(0.01099998118 1.164416534e-08 -6.583000389e-10)
(0.01100002123 3.98201657e-08 -8.985596024e-09)
(0.01099995481 4.050176583e-08 -7.144306843e-10)
(0.01100007641 1.923760989e-07 -1.114343038e-07)
(0.01099999981 1.867899163e-10 -1.158743294e-09)
(0.01099999785 -7.987369365e-10 -8.634374434e-10)
(0.01099999911 8.563088521e-11 2.684375624e-09)
(0.01100000096 2.799201458e-10 -5.320928128e-10)
(0.01100000023 -1.388387574e-09 3.586430789e-10)
(0.01100000029 1.045889871e-09 -9.327515634e-11)
(0.01099999675 1.238321349e-09 -1.940202624e-09)
(0.01100000035 1.469308412e-09 6.806611012e-11)
(0.01100000299 1.710842725e-09 1.461386496e-09)
(0.01099999737 3.108114368e-09 -1.904053854e-09)
(0.01100000373 6.74896539e-09 -1.743664938e-09)
(0.0109999873 8.647698673e-09 -1.996391587e-09)
(0.01100002249 2.889884671e-08 -1.360269414e-08)
(0.010999992 1.916302593e-08 -6.715993081e-09)
(0.01100008114 1.136437191e-07 -8.013100417e-08)
(0.01099999959 6.235785915e-10 -6.281544536e-11)
(0.01099999901 2.894435566e-10 2.063858854e-09)
(0.01099999795 -1.518925763e-10 1.193473227e-09)
(0.01099999786 1.908496566e-10 -2.131006558e-09)
(0.01099999908 8.069648617e-10 1.343432113e-11)
(0.01100000267 8.842366971e-10 5.744506182e-10)
(0.01100000045 8.859234523e-10 3.159721093e-10)
(0.01100000069 8.292816364e-10 5.876641713e-10)
(0.01100000323 1.74710019e-09 1.312297152e-10)
(0.01100000077 1.964663907e-09 8.864977997e-10)
(0.01100000838 5.742401155e-09 9.037439574e-11)
(0.0110000046 8.154337252e-09 1.361346623e-10)
(0.01100004031 2.889195528e-08 -1.152863094e-08)
(0.01100004071 2.481102473e-08 -5.563510754e-09)
(0.01100010654 9.00503623e-08 -3.776438723e-08)
(0.01099999884 -7.258862834e-10 -9.167255615e-10)
(0.01099999877 -1.145371221e-09 -2.404921812e-09)
(0.01099999703 -1.433177502e-11 -1.712066878e-09)
(0.01099999971 -8.423185624e-10 1.00424878e-09)
(0.01100000044 5.077976507e-10 1.556968479e-09)
(0.01100000175 -6.220246103e-11 4.815418274e-10)
(0.01100000202 9.053688007e-10 1.26880212e-09)
(0.01100000041 2.217193846e-09 2.005689907e-09)
(0.01100000537 1.830526174e-09 6.999383388e-10)
(0.01100000308 2.509667517e-09 4.556597458e-09)
(0.01100001188 2.839899433e-09 1.295774644e-09)
(0.01100001415 3.006334449e-09 -8.725856534e-10)
(0.01100004444 8.778019706e-09 -9.893143609e-09)
(0.011000061 5.184890311e-09 -4.985888784e-09)
(0.01100011615 2.554364555e-08 -2.522620349e-08)
(0.01100000096 -3.445022348e-10 3.923370513e-10)
(0.01100000022 1.002411274e-09 1.459748464e-10)
(0.01100000065 3.605600678e-10 -1.418066679e-11)
(0.01100000101 -5.603248955e-10 8.191858297e-10)
(0.01100000005 -1.22190002e-09 2.707065739e-10)
(0.01099999982 -1.557912541e-09 1.27181028e-09)
(0.0109999994 -2.171487159e-09 -1.5259117e-09)
(0.01100000092 -4.380756774e-10 -2.013860909e-09)
(0.0110000051 -2.021795339e-09 -2.687070399e-09)
(0.01100000106 -1.76492823e-09 -3.47384344e-09)
(0.01100001205 -3.045346831e-09 -6.913164466e-09)
(0.011000005 -4.356712855e-09 -8.910403306e-09)
(0.01100003917 -1.065981791e-08 -2.90178189e-08)
(0.01100004034 -4.654314277e-09 -2.18372576e-08)
(0.01099999992 -1.552132129e-10 -4.790510891e-10)
(0.01100000166 -7.056146514e-10 -1.024395428e-09)
(0.01099999764 -5.922173914e-10 6.838427763e-10)
(0.0109999999 -3.94094474e-11 5.967628878e-10)
(0.01100000114 -4.23200173e-10 4.277500238e-10)
(0.01099999919 1.547500186e-10 -1.098082041e-10)
(0.01100000168 1.816473487e-10 7.791133718e-10)
(0.0110000006 -4.997856596e-10 -1.213987242e-09)
(0.01100000254 -1.864811783e-09 -7.642714216e-10)
(0.0110000009 -2.509587141e-09 -1.646984669e-09)
(0.01100000899 -5.181092865e-09 -5.756025971e-09)
(0.01099999845 -8.886728331e-09 -9.230122845e-09)
(0.01100003446 -3.379662314e-08 -3.19062723e-08)
(0.01100001252 -2.644596015e-08 -2.599699722e-08)
(0.01100009483 -1.470415108e-07 -1.484015575e-07)
(0.01100000059 1.006941518e-09 -1.370356832e-10)
(0.011 -5.338018382e-10 2.807234751e-10)
(0.01100000065 -1.039633639e-09 -2.709125869e-10)
(0.01099999973 -1.014767637e-10 -1.071292346e-10)
(0.01099999962 -1.093161718e-09 -1.867494013e-10)
(0.01100000269 -2.504487568e-10 -6.125042089e-10)
(0.01099999772 1.053891741e-09 -5.963606271e-10)
(0.01100000025 -2.08648526e-09 -1.306125416e-10)
(0.01100000132 -1.274305553e-09 -7.122556254e-10)
(0.01099999437 -3.434196951e-09 -1.36930933e-09)
(0.01100000287 -4.390573242e-09 -6.245024719e-09)
(0.01099997601 -7.941657235e-09 -1.109795705e-08)
(0.01100001267 -3.103016822e-08 -4.838742319e-08)
(0.01099992951 -1.618863865e-08 -4.157617601e-08)
(0.01100005537 -1.937568951e-07 -3.252048555e-07)
(0.01099999923 2.529431422e-10 5.125555364e-10)
(0.01099999871 9.06368186e-12 4.798139757e-10)
(0.01100000117 1.201984151e-09 7.486102102e-10)
(0.011000001 1.421265492e-09 5.598889777e-10)
(0.010999999 7.117435303e-10 -3.869315395e-10)
(0.01100000072 -3.490431862e-10 -4.81003335e-10)
(0.01100000233 1.600844705e-10 -1.058428503e-10)
(0.01099999825 7.637452915e-11 -3.569447962e-10)
(0.01100000129 -1.381961484e-10 -8.972931702e-10)
(0.01099999258 -2.525278864e-09 -2.500293546e-09)
(0.01100000409 -7.382464237e-09 1.153732313e-09)
(0.01099997345 -1.321365132e-08 -7.879843045e-09)
(0.01100001047 -5.26686287e-08 -3.615935605e-08)
(0.01099987145 -5.734298544e-08 -3.670240782e-08)
(0.01100003663 -4.028625236e-07 -5.114644032e-07)
(0.01100000023 -8.140121333e-10 -4.220571747e-10)
(0.01099999918 7.853391385e-10 -7.146199581e-10)
(0.01100000016 2.430133072e-09 1.048626041e-10)
(0.01099999999 6.455449999e-10 6.500534318e-10)
(0.01099999851 6.543694289e-10 3.035832737e-10)
(0.01100000156 6.130230457e-10 -1.133908911e-09)
(0.01099999918 -1.171671361e-09 -1.288577048e-09)
(0.01099999805 -2.417235615e-09 -1.195913837e-09)
(0.01099999875 -1.820447108e-09 -3.928838565e-10)
(0.01099998734 -1.732518775e-10 -2.033911474e-09)
(0.01099998872 6.678370978e-10 -7.764826111e-10)
(0.01099992965 -1.658852055e-10 -1.842353027e-08)
(0.01099994517 -2.575995868e-11 -8.104817793e-08)
(0.01099961224 4.965575184e-11 -1.270046656e-07)
(0.01099993439 -5.519836212e-10 -1.296671986e-06)
(0.01100000094 9.260197775e-10 -1.437790068e-09)
(0.01100000064 2.877246215e-10 -1.071401431e-09)
(0.01099999806 -2.775761426e-10 -8.335451619e-10)
(0.01099999987 5.669110323e-10 -4.52006574e-10)
(0.0109999995 1.094296897e-09 -9.970717787e-10)
(0.01100000197 -1.290895575e-09 6.432868e-11)
(0.01099999926 -3.015242e-10 8.417142804e-10)
(0.01099999893 8.611370445e-10 -1.498372704e-12)
(0.01100000153 8.682193888e-10 -5.134646584e-10)
(0.01099999485 1.097373938e-09 -5.669933665e-11)
(0.01100000245 5.869409916e-09 1.333246626e-09)
(0.01099997179 1.325059176e-08 -7.311582156e-09)
(0.01100000957 5.040313368e-08 -3.573436571e-08)
(0.01099986968 5.477355985e-08 -3.633088213e-08)
(0.01100003305 3.999399731e-07 -5.130575046e-07)
(0.01099999873 8.728371574e-10 -8.817006758e-10)
(0.01100000147 8.980816413e-10 -9.297312374e-10)
(0.01099999769 3.398500537e-10 2.152525559e-10)
(0.0109999985 3.072861014e-10 -1.290344253e-09)
(0.01099999918 -6.197087872e-10 -1.407116244e-09)
(0.01099999783 1.211682417e-09 -1.317903644e-10)
(0.01100000089 8.970443348e-11 3.56749075e-10)
(0.0109999974 8.640346133e-10 -3.320265689e-10)
(0.01099999863 6.471848404e-10 -5.657759894e-10)
(0.01099999614 1.555633168e-09 -2.364752963e-09)
(0.01100000138 3.785512784e-09 -4.477882935e-09)
(0.01099997819 6.267697794e-09 -1.010215484e-08)
(0.0110000132 2.86333909e-08 -4.815318258e-08)
(0.01099992574 1.459348172e-08 -4.386687805e-08)
(0.01100005648 1.918867824e-07 -3.271052253e-07)
(0.0109999993 3.139862057e-10 -8.101361718e-10)
(0.01100000083 5.751632276e-11 -1.537035028e-09)
(0.0109999988 6.752666025e-10 -2.856445202e-10)
(0.01099999843 -1.545209215e-10 -8.631076058e-10)
(0.01099999869 8.878328559e-10 4.105321694e-10)
(0.0109999973 4.103637524e-10 9.059743857e-10)
(0.01099999916 7.533515512e-10 3.753175313e-10)
(0.01100000115 9.408049162e-10 -7.323775866e-10)
(0.01100000164 1.350378007e-09 -1.540339302e-09)
(0.01099999854 3.040789549e-09 -1.546405118e-09)
(0.01100000792 5.278916226e-09 -4.470302187e-09)
(0.01099999472 8.881400919e-09 -7.415545746e-09)
(0.01100003414 3.302300962e-08 -3.252358642e-08)
(0.01100001045 2.416498985e-08 -2.559293107e-08)
(0.01100009846 1.454047393e-07 -1.458608642e-07)
(0.0109999999 -2.246264252e-10 -1.646832095e-10)
(0.010999998 -1.780541511e-10 4.999900797e-12)
(0.01100000032 2.320465034e-10 -1.421580853e-09)
(0.01099999771 6.607926698e-10 9.516700987e-10)
(0.01099999875 -6.577124929e-10 5.176090077e-10)
(0.01099999813 -1.003980516e-09 -1.228189572e-09)
(0.01100000108 -1.211317585e-10 -8.139001858e-10)
(0.0109999993 1.639192299e-09 -7.486934422e-10)
(0.01100000296 1.826001537e-09 -1.660080189e-09)
(0.01099999948 1.219299595e-09 -3.397493141e-09)
(0.0110000091 1.469538208e-09 -5.653099919e-09)
(0.01100000533 1.440989604e-09 -8.206119741e-09)
(0.01100004149 1.157749471e-08 -2.829664884e-08)
(0.01100004173 4.266012447e-09 -2.438043135e-08)
(0.01100010847 3.779947533e-08 -9.06585093e-08)
(0.01100000013 -8.433399744e-12 -8.885143183e-10)
(0.010999999 -8.017740057e-11 -7.320729542e-10)
(0.01099999915 -4.294681514e-10 -1.387860825e-09)
(0.01099999831 -1.33642426e-09 -1.454537672e-09)
(0.01100000022 -3.57173475e-10 -1.317781189e-09)
(0.01099999886 1.41157226e-09 -1.383980883e-09)
(0.01099999791 -9.256497441e-10 -1.196674403e-09)
(0.01100000074 1.776218018e-09 -2.778318206e-09)
(0.01100000106 3.031733197e-10 -2.304411666e-09)
(0.0109999971 -6.247020343e-10 -5.232927487e-09)
(0.01100000635 -4.375208211e-10 -1.036127484e-08)
(0.01099998977 -1.082308294e-09 -1.149535697e-08)
(0.01100002684 -1.640699937e-08 -2.929097464e-08)
(0.01099999001 -6.711334717e-09 -2.081423562e-08)
(0.01099999714 -7.275320238e-10 3.434274696e-10)
(0.01100000138 -1.336048801e-09 -1.808881437e-09)
(0.01099999835 1.720594793e-10 -1.254656372e-09)
(0.01099999981 -2.122154853e-10 -2.198394954e-10)
(0.01099999881 1.072774006e-10 -3.753309357e-10)
(0.01099999839 -4.393884453e-10 -4.569506571e-10)
(0.01100000013 -1.506640056e-09 -1.708720593e-09)
(0.0110000008 -9.404250457e-10 -2.892315994e-09)
(0.01100000162 -1.910213791e-09 -1.71209061e-09)
(0.01099999559 -2.645329677e-09 -2.194979651e-09)
(0.01100000232 -5.136262923e-09 -4.427346157e-09)
(0.0109999773 -1.381783955e-08 -6.901876908e-09)
(0.01100001405 -4.860271146e-08 -3.029240749e-08)
(0.010999926 -4.309055098e-08 -1.519422469e-08)
(0.01099999974 -2.375410285e-10 8.507794031e-12)
(0.01099999992 -3.932850361e-11 8.775930173e-10)
(0.01100000081 4.798941903e-10 1.081994681e-09)
(0.01099999917 -8.547506504e-10 8.967600315e-10)
(0.01099999839 -1.882842877e-09 -7.697868863e-10)
(0.01099999828 3.198605418e-10 -2.779598662e-09)
(0.01100000006 -2.072020301e-10 -1.617013279e-09)
(0.01099999786 -6.782569549e-10 -1.07137873e-09)
(0.0109999992 3.905306768e-10 1.774925861e-10)
(0.0109999891 -3.508407418e-09 -3.426042199e-09)
(0.01099999254 1.592122445e-09 9.508673615e-10)
(0.01099994689 -6.183997036e-09 -8.952928124e-09)
(0.01099996699 -3.158639547e-08 -3.116553308e-08)
(0.01099973787 -2.950621251e-08 -2.86102533e-08)
(0.01099994132 -4.854534801e-07 -4.877198749e-07)
(0.01099999899 -2.046237635e-10 -9.04944949e-10)
(0.01100000243 -5.988978141e-10 2.645341344e-10)
(0.01100000126 4.301730734e-10 7.456856134e-11)
(0.01099999786 -2.141710775e-10 -1.893649748e-09)
(0.01100000052 8.432222182e-12 6.515771453e-10)
(0.01100000088 -8.117221907e-10 -5.829603125e-10)
(0.01100000027 5.39094155e-10 -8.35143058e-10)
(0.01099999734 1.802678864e-10 -1.010432317e-09)
(0.01099999924 3.086157338e-10 3.225696793e-09)
(0.01099999641 -1.140135717e-09 5.804425566e-10)
(0.01099999209 -6.386280851e-10 1.545803919e-08)
(0.01099995398 -1.931828327e-08 4.872840663e-10)
(0.01099993187 -7.680267574e-08 4.218130569e-08)
(0.01099961456 -1.285515914e-07 -3.228170389e-09)
(0.01099971527 -1.181486428e-06 -7.327887966e-07)
(0.01100000057 -1.753325811e-10 4.594910376e-11)
(0.01100000085 3.165504972e-10 4.155798581e-10)
(0.01099999917 -3.299711817e-10 -9.00589492e-10)
(0.010999998 1.52719723e-09 -1.53084667e-10)
(0.01100000011 1.307180626e-09 7.623541849e-10)
(0.01100000215 -4.522583476e-11 1.503113655e-09)
(0.01099999849 4.755811967e-10 2.697132335e-10)
(0.01099999748 -1.764992448e-09 -5.367393439e-10)
(0.01099999717 -1.298514753e-09 3.662309854e-09)
(0.01099998885 1.142982068e-09 1.028001151e-09)
(0.01099996938 -1.416552312e-09 2.132405972e-08)
(0.01099988369 4.752571571e-10 -1.001343918e-08)
(0.01099976302 5.755195745e-10 2.441410314e-08)
(0.01099890161 4.047693423e-10 -1.971345365e-07)
(0.01099903178 -1.419973111e-10 -2.624767993e-06)
(0.01100000093 -3.863851177e-10 7.949958489e-10)
(0.0110000008 4.240621384e-11 -3.327231375e-10)
(0.01100000018 3.116563469e-10 1.422484177e-09)
(0.01099999968 5.789409409e-10 4.606593095e-10)
(0.01099999877 -7.224048134e-10 1.76917965e-09)
(0.01099999952 9.296886706e-10 6.837143587e-10)
(0.01099999862 -3.804221911e-10 1.250574017e-09)
(0.01099999654 2.547074298e-10 8.363371642e-10)
(0.01099999972 2.493858517e-10 3.741111446e-09)
(0.0109999964 1.784124707e-09 9.704357464e-10)
(0.01099999295 2.638432541e-09 1.738327055e-08)
(0.01099995396 1.933505884e-08 1.288069948e-09)
(0.01099992986 7.49265715e-08 4.220566213e-08)
(0.01099961399 1.253268513e-07 -3.028732761e-09)
(0.01099971684 1.180359873e-06 -7.307195512e-07)
(0.01100000088 1.322750362e-09 6.053202685e-10)
(0.01100000063 8.584523469e-10 3.583813546e-10)
(0.01099999849 1.671190569e-09 -4.180172965e-10)
(0.01099999952 -7.932178774e-10 2.506696975e-09)
(0.01099999999 1.441771686e-10 1.124685145e-09)
(0.01099999763 9.390670312e-10 -3.666434133e-10)
(0.01099999888 5.818041864e-10 6.887417009e-11)
(0.01099999697 1.432093827e-09 4.15478553e-10)
(0.010999999 3.571537571e-10 1.128357094e-09)
(0.01099999131 9.114726765e-10 1.290252971e-09)
(0.01099999501 -9.987689581e-10 9.814002235e-10)
(0.01099994519 6.856445236e-09 -7.960804879e-09)
(0.01099996646 2.985566633e-08 -2.952745329e-08)
(0.01099973759 2.779804714e-08 -2.846182539e-08)
(0.01099994093 4.867961245e-07 -4.865889271e-07)
(0.01100000063 2.504998291e-10 -2.815997374e-10)
(0.01100000007 -2.235965907e-10 -1.289570228e-10)
(0.0109999992 -1.347003915e-09 -4.719601541e-10)
(0.01099999976 7.87405146e-10 1.145430982e-09)
(0.01100000028 7.339157884e-10 8.367123236e-10)
(0.01099999921 -2.450503749e-10 6.889259097e-10)
(0.01099999789 -3.002635588e-10 1.011257834e-09)
(0.01099999909 1.858692113e-09 6.925683e-10)
(0.01099999818 1.686551761e-09 5.227929736e-10)
(0.0109999943 1.751919284e-09 -9.242491648e-10)
(0.01100000261 4.808653753e-09 -3.829145239e-09)
(0.0109999766 1.18291975e-08 -7.115580658e-09)
(0.01100001603 4.896462036e-08 -2.833446285e-08)
(0.01099992505 4.108169007e-08 -1.272031374e-08)
(0.01100005856 3.244123473e-07 -1.912721994e-07)
(0.01099999992 6.501016854e-10 -8.834377052e-10)
(0.01099999926 1.287487227e-09 1.024271189e-09)
(0.01099999854 -6.855281714e-10 -6.496015836e-10)
(0.01100000018 -7.290479336e-10 4.449581188e-10)
(0.01099999938 7.994475619e-10 1.921366214e-09)
(0.01099999942 -1.457175806e-10 1.75610283e-09)
(0.0109999999 1.34112877e-10 2.278920667e-11)
(0.0110000008 -1.840190945e-10 -1.805547117e-09)
(0.01100000039 -3.873371029e-10 -5.20938197e-10)
(0.01099999758 -3.662641347e-10 -1.996004208e-09)
(0.01100000524 2.674216241e-09 -7.279176036e-09)
(0.01099998848 1.979486493e-09 -1.025629587e-08)
(0.01100002365 1.433954543e-08 -3.025816872e-08)
(0.01099999007 7.463184918e-09 -1.997230209e-08)
(0.0110000837 7.791011509e-08 -1.146726549e-07)
(0.01099999964 1.146179321e-09 -7.12741148e-10)
(0.01099999963 -1.511375153e-09 -1.293036785e-09)
(0.01100000142 3.489417811e-10 -3.122284024e-10)
(0.01099999919 -2.27466141e-10 -4.349000239e-10)
(0.01099999977 -6.156062398e-10 9.461678031e-11)
(0.01099999754 -2.015352064e-10 -1.432328598e-09)
(0.01099999932 2.138142033e-09 -1.38516667e-09)
(0.0109999996 1.030587625e-09 -2.020986467e-09)
(0.01100000328 4.307130361e-10 -3.987667156e-09)
(0.01099999523 3.256025334e-10 -3.823063926e-09)
(0.01100000684 1.301613248e-09 -6.450467473e-09)
(0.01099998309 -1.923499601e-09 -1.132294118e-08)
(0.01100002434 -6.873624619e-09 -4.164859954e-08)
(0.01099995483 5.254211932e-10 -4.285193708e-08)
(0.01099999958 -4.431547337e-10 -7.590559084e-10)
(0.01100000188 -2.894425361e-10 1.06058093e-09)
(0.01099999748 3.226225712e-10 2.717835754e-11)
(0.01099999976 -1.83197897e-10 -8.840481064e-10)
(0.01099999975 -1.856803889e-10 -1.694684482e-10)
(0.0109999999 2.10238357e-12 6.272250505e-11)
(0.01099999996 -6.106081333e-11 5.551756797e-10)
(0.0109999999 -1.321162611e-10 -5.315056269e-11)
(0.01100000212 4.021462194e-10 -2.651622863e-11)
(0.01099999429 -2.156833776e-09 -3.762436866e-09)
(0.01100000132 2.366624894e-09 -5.992715785e-09)
(0.01099997538 -8.655742538e-09 -1.314216509e-08)
(0.01100001166 -3.620910457e-08 -5.149610942e-08)
(0.01099986932 -3.589986604e-08 -5.50286782e-08)
(0.01099999892 5.941080587e-10 -3.492858982e-11)
(0.01099999842 4.68275742e-10 -7.745302836e-10)
(0.01100000053 5.652977392e-10 7.848427944e-10)
(0.01099999841 9.738423001e-10 -6.944853958e-10)
(0.01099999639 -6.175651041e-10 -8.779436732e-10)
(0.01099999986 -3.136141762e-10 -1.330605107e-10)
(0.01100000053 -5.871869829e-10 -3.791590165e-10)
(0.01100000197 9.433580033e-10 -5.268303058e-10)
(0.01099999952 3.939406757e-09 1.804564758e-09)
(0.01099999602 1.411314527e-09 -2.35022077e-09)
(0.01099999227 1.721987664e-08 -2.138686751e-09)
(0.01099995486 2.363722279e-09 -1.974637293e-08)
(0.01099993398 4.269894507e-08 -7.443087067e-08)
(0.01099961188 -3.611082585e-09 -1.269379107e-07)
(0.01100000023 -1.597020225e-09 -4.409687162e-10)
(0.01100000037 -1.997933628e-10 -6.212562884e-10)
(0.01099999888 -1.562488135e-09 5.82072768e-10)
(0.01099999931 7.22082001e-10 -9.483636971e-10)
(0.01099999808 2.262243698e-09 2.625848461e-10)
(0.01100000054 2.272866454e-09 -2.198345634e-10)
(0.01100000261 3.78223908e-10 1.156699225e-09)
(0.0109999998 5.063952374e-10 1.081260143e-09)
(0.01100000057 1.997173064e-09 3.027047096e-09)
(0.01100001174 1.549589504e-10 1.398343012e-10)
(0.01099999654 1.329494334e-08 1.350796146e-08)
(0.01100003855 -1.818801436e-08 -1.699814562e-08)
(0.01099983022 8.134738518e-10 4.060874252e-09)
(0.01099974119 -2.26495236e-07 -2.250801008e-07)
(0.0109983523 -2.540080271e-06 -2.537804432e-06)
(0.01100000198 1.959843384e-09 -5.093847452e-10)
(0.01100000024 9.02761028e-10 -4.391782823e-10)
(0.01100000121 1.784404665e-10 -8.202837061e-10)
(0.01100000024 2.24323136e-09 3.546311467e-10)
(0.01099999967 3.377582556e-10 7.937528912e-10)
(0.01099999863 5.474448609e-10 4.026421937e-10)
(0.01099999866 8.254297828e-10 1.924560193e-10)
(0.01100000149 -1.672690353e-09 1.220963808e-09)
(0.01099999768 1.334003694e-09 4.3208106e-09)
(0.01100000694 1.208636721e-09 -9.666280455e-10)
(0.01099996675 -1.367978511e-09 2.015101649e-08)
(0.01099999338 5.379159394e-10 -2.586395435e-08)
(0.01099941229 -6.649082297e-11 -1.882012374e-08)
(0.01099855662 -9.157093864e-11 -6.469424673e-07)
(0.01099313184 -1.115047855e-09 -1.235487085e-05)
(0.01099999947 6.682923357e-10 1.257347016e-10)
(0.01100000009 1.595302785e-10 -8.150973418e-11)
(0.01099999919 1.900972297e-09 7.364557e-10)
(0.01100000129 1.425573505e-09 -7.632432667e-10)
(0.01100000057 -2.236705209e-10 -4.56277599e-11)
(0.01099999801 2.121770343e-11 1.160978172e-10)
(0.01099999745 -4.167419729e-11 1.764005344e-09)
(0.01100000011 4.900726004e-10 1.037809829e-09)
(0.01100000262 -2.77012878e-09 2.927997391e-09)
(0.0110000127 -1.256437528e-09 -1.200326638e-09)
(0.01099999808 -1.402530488e-08 1.223277377e-08)
(0.01100003804 1.665570599e-08 -1.758018753e-08)
(0.01099983009 -3.314248493e-09 3.020990801e-09)
(0.01099973813 2.237411253e-07 -2.230293116e-07)
(0.01099835345 2.538175164e-06 -2.539367656e-06)
(0.01100000012 -4.689453664e-10 -1.087864869e-09)
(0.01099999871 4.426970656e-10 2.881809268e-10)
(0.01100000183 4.093851024e-10 -4.779995114e-10)
(0.01099999914 -2.09464026e-10 1.162442256e-09)
(0.01099999767 -6.037660444e-10 8.607947104e-11)
(0.01099999878 2.042924936e-10 -9.45452893e-10)
(0.01099999998 7.454606311e-11 4.342002764e-10)
(0.01099999939 7.765007483e-10 2.498879859e-10)
(0.01099999883 -3.39173596e-09 7.373397684e-10)
(0.01099999359 -6.809059146e-11 -2.85887273e-09)
(0.01099999405 -1.722382694e-08 -3.772198921e-09)
(0.01099995517 -2.409191383e-09 -2.128065622e-08)
(0.01099993239 -4.175778956e-08 -7.561160645e-08)
(0.01099961431 3.099321886e-09 -1.258628817e-07)
(0.0109997141 7.294993921e-07 -1.181023364e-06)
(0.01100000012 -1.110607343e-10 -2.166734021e-10)
(0.01100000021 -6.307121144e-10 -2.80048909e-10)
(0.01099999935 -1.964559569e-10 -1.434052269e-09)
(0.0109999977 -3.212747577e-10 1.000358166e-10)
(0.0110000008 3.089027191e-10 -3.731369432e-10)
(0.0110000003 1.33915039e-09 -8.411819592e-10)
(0.01099999694 -4.200285561e-10 -1.178946217e-09)
(0.01099999957 7.057855802e-10 -3.781736182e-10)
(0.01099999967 -1.670864037e-09 -1.013887244e-09)
(0.01099999469 5.127650153e-11 -3.442226728e-09)
(0.01100000227 -1.446637093e-09 -5.547146692e-09)
(0.01099997368 8.715661825e-09 -1.366623073e-08)
(0.01100001287 3.492927621e-08 -5.181303189e-08)
(0.01099986883 3.433560559e-08 -5.763739728e-08)
(0.01100003514 5.133980111e-07 -4.02421446e-07)
(0.01100000011 -1.866900479e-10 3.81433626e-12)
(0.01099999987 9.917774588e-10 5.645861726e-10)
(0.0110000006 -6.023991825e-10 -4.552016653e-10)
(0.01099999948 7.666570448e-10 1.016752688e-10)
(0.01100000038 -1.139980187e-10 -8.188865087e-10)
(0.01099999828 -1.058835016e-09 -1.448093385e-09)
(0.01099999987 -1.061919182e-09 2.743306769e-10)
(0.01099999928 3.920336646e-12 -6.551196891e-11)
(0.01100000049 6.361916591e-10 -1.925426403e-09)
(0.01099999423 -8.049476838e-10 -2.697568874e-09)
(0.01100000267 2.041867245e-10 -5.332890205e-09)
(0.01099998132 3.795583141e-11 -1.065608568e-08)
(0.01100002016 6.644848888e-09 -4.00365848e-08)
(0.01099995776 -1.102442693e-09 -4.086388915e-08)
(0.01100007711 1.10017895e-07 -1.914121526e-07)
(0.01100000014 2.395703786e-09 -1.73367599e-09)
(0.01099999948 -2.7578398e-10 -1.490788705e-09)
(0.011000001 -9.62909211e-11 -8.117938024e-10)
(0.01099999654 -9.250982489e-10 -5.441494518e-10)
(0.0109999995 5.598131002e-10 -2.504353699e-09)
(0.01099999778 3.209095628e-09 -1.473229575e-09)
(0.01099999997 3.376070714e-10 8.670520168e-10)
(0.01099999853 3.972694505e-09 2.651238151e-09)
(0.01099999877 9.289729822e-10 9.321962761e-10)
(0.01099999172 -1.273418935e-09 -3.775395164e-10)
(0.01099999694 4.690138043e-10 1.890727737e-09)
(0.01099995351 -3.226371859e-09 -5.594390816e-10)
(0.01099998935 -2.232929442e-08 5.502817367e-10)
(0.01099984055 -2.197117229e-08 1.28222103e-09)
(0.01099999937 9.040619697e-10 -1.534951527e-09)
(0.01099999926 -1.223019353e-10 -1.01038773e-09)
(0.01099999909 -9.485821437e-10 -7.882564931e-10)
(0.01099999576 -8.220719595e-11 -3.290030564e-10)
(0.01099999947 1.080651057e-09 -1.47800044e-09)
(0.01099999958 7.033882691e-10 -2.313129444e-10)
(0.01099999924 1.36926894e-09 3.918437957e-10)
(0.0109999998 6.870562122e-10 1.689308994e-09)
(0.010999995 2.584931572e-09 3.126373739e-11)
(0.01099998937 -1.861526678e-09 -3.274351224e-11)
(0.01099998959 -1.297714668e-09 -2.14142571e-10)
(0.01099993278 -2.076356292e-08 1.206338071e-09)
(0.01099994808 -8.125813925e-08 4.496060021e-10)
(0.01099961278 -1.270597359e-07 -8.892063908e-10)
(0.01099999987 -1.156502831e-09 -1.275657331e-09)
(0.01100000009 3.511900718e-10 1.54029233e-10)
(0.01100000006 -4.196883279e-11 -2.95071316e-09)
(0.01099999996 5.167284112e-11 -1.065807141e-09)
(0.0109999981 1.921182445e-09 6.595743435e-10)
(0.01099999899 6.068309114e-10 1.042405424e-09)
(0.0109999998 1.457721609e-09 2.369886383e-09)
(0.01099999767 1.204712994e-09 1.883614284e-09)
(0.01099999567 5.071847128e-09 1.036040806e-09)
(0.01099998788 2.689994905e-09 4.354672496e-10)
(0.01099997042 2.133475403e-08 4.994110263e-10)
(0.01099988765 -8.433485519e-09 9.418482822e-10)
(0.01099976766 2.358606984e-08 9.405220311e-10)
(0.01099890347 -1.985005853e-07 1.099559223e-09)
(0.01099999751 -7.750370667e-11 -3.881436052e-10)
(0.01099999929 -1.582511056e-10 -6.480312032e-10)
(0.0109999996 7.487137074e-10 -2.14346078e-09)
(0.01099999941 6.787753106e-10 1.529093625e-09)
(0.01100000031 7.744871602e-10 -9.384723509e-10)
(0.01100000123 -6.399806517e-10 9.02837153e-10)
(0.01100000141 1.507148759e-10 2.116837675e-09)
(0.01100000059 4.919028398e-10 3.675507231e-10)
(0.01099999658 1.254792488e-09 8.33472247e-10)
(0.0110000076 -1.231222305e-09 2.361085336e-09)
(0.01099996986 2.079024768e-08 -3.353530496e-10)
(0.0109999946 -2.667031239e-08 9.23963936e-10)
(0.01099941343 -1.953780512e-08 8.573966612e-10)
(0.01099855638 -6.48522906e-07 2.258294705e-09)
(0.01100000064 7.012234478e-10 -1.979128591e-09)
(0.01100000162 2.343455581e-10 -1.820700628e-09)
(0.01099999948 6.359292053e-10 5.368358829e-10)
(0.0110000005 2.731499317e-09 1.74095345e-10)
(0.01099999871 1.38970954e-09 2.859074842e-10)
(0.010999999 8.002104749e-10 -3.218517989e-10)
(0.01099999881 7.960280581e-10 1.69059634e-09)