/*--------------------------------*- C++ -*----------------------------------*\
| =========                 |                                                 |
| \\      /  F ield         | OpenFOAM: The Open Source CFD Toolbox           |
|  \\    /   O peration     | Version:  4.x                                   |
|   \\  /    A nd           | Web:      www.OpenFOAM.org                      |
|    \\/     M anipulation  |                                                 |
\*---------------------------------------------------------------------------*/
FoamFile
{
    version     2.0;
    format      ascii;
    class       volScalarField;
    location    "4000";
    object      X_CO2;
}
// * * * * * * * * * * * * * * * * * * * * * * * * * * * * * * * * * * * * * //

dimensions      [0 0 0 0 0 0 0];

internalField   nonuniform List<scalar> 
1175
(
5.597124997e-10
5.602376901e-10
5.627799972e-10
5.726247142e-10
6.082933302e-10
7.330104403e-10
1.155961084e-09
2.543500421e-09
6.921858953e-09
2.010727021e-08
5.762942116e-08
1.572992806e-07
4.008095819e-07
9.390410438e-07
1.998898883e-06
5.600905604e-10
5.607217702e-10
5.638060982e-10
5.759844742e-10
6.212178512e-10
7.840072871e-10
1.354201147e-09
3.292342103e-09
9.646744249e-09
2.957182349e-08
8.865894012e-08
2.519640336e-07
6.647609225e-07
1.597191274e-06
3.433394796e-06
5.606867277e-10
5.614893883e-10
5.654622947e-10
5.815192017e-10
6.429176266e-10
8.713594588e-10
1.701551994e-09
4.639102478e-09
1.469547321e-08
4.770471682e-08
1.503260168e-07
4.474687936e-07
1.230571045e-06
3.051388994e-06
6.646093453e-06
5.612224323e-10
5.621869714e-10
5.670092925e-10
5.868365258e-10
6.642935739e-10
9.597056225e-10
2.063647709e-09
6.093578274e-09
2.037691562e-08
6.909479015e-08
2.270150649e-07
7.048695804e-07
2.019655352e-06
5.182858062e-06
1.14732954e-05
5.614360158e-10
5.624680027e-10
5.676472163e-10
5.890821949e-10
6.735206723e-10
9.987785862e-10
2.228603095e-09
6.780990754e-09
2.318716241e-08
8.028140128e-08
2.698949325e-07
8.604171919e-07
2.538900011e-06
6.705388672e-06
1.509706479e-05
5.612189822e-10
5.62183574e-10
5.670059476e-10
5.868335179e-10
6.642914311e-10
9.597057131e-10
2.063653583e-09
6.093595648e-09
2.037693299e-08
6.909467445e-08
2.27013929e-07
7.048633863e-07
2.019629012e-06
5.18277032e-06
1.147307257e-05
5.606798142e-10
5.614825108e-10
5.654557812e-10
5.815133509e-10
6.429132796e-10
8.713591145e-10
1.701562031e-09
4.639133336e-09
1.469551832e-08
4.770457143e-08
1.503244282e-07
4.47460059e-07
1.230535238e-06
3.051271083e-06
6.645806168e-06
5.600795822e-10
5.607113882e-10
5.637966016e-10
5.759760411e-10
6.212109852e-10
7.84002713e-10
1.354198998e-09
3.292330603e-09
9.64664126e-09
2.957121206e-08
8.865600403e-08
2.519519434e-07
6.647177527e-07
1.597061329e-06
3.433094211e-06
5.596955299e-10
5.602242277e-10
5.627691258e-10
5.726161702e-10
6.082875918e-10
7.330087941e-10
1.155965059e-09
2.543503152e-09
6.921791597e-09
2.01067656e-08
5.762687071e-08
1.572886307e-07
4.00771215e-07
9.389219226e-07
1.998604877e-06
5.600906107e-10
5.607218244e-10
5.638061664e-10
5.759846565e-10
6.21218711e-10
7.840107728e-10
1.354215759e-09
3.292402545e-09
9.64698475e-09
2.957276759e-08
8.866256245e-08
2.519776702e-07
6.648123466e-07
1.59739478e-06
5.605177303e-10
5.612881576e-10
5.651008715e-10
5.805144866e-10
6.395109924e-10
8.594423883e-10
1.661191648e-09
4.510640321e-09
1.432199842e-08
4.675694392e-08
1.484257391e-07
4.454235335e-07
1.234799695e-06
3.081751002e-06
6.731261475e-06
5.61192383e-10
5.621906386e-10
5.672135014e-10
5.880949312e-10
6.708535303e-10
9.920285446e-10
2.216893216e-09
6.793071033e-09
2.343680319e-08
8.182050675e-08
2.767346831e-07
8.841985131e-07
2.601545963e-06
6.817464023e-06
1.523544968e-05
5.618010493e-10
5.630176081e-10
5.692169429e-10
5.955315111e-10
7.025755591e-10
1.130867147e-09
2.822486436e-09
9.400845712e-09
3.444681165e-08
1.270033679e-07
4.54723735e-07
1.544698523e-06
4.843857797e-06
1.34588466e-05
3.109012823e-05
5.620447506e-10
5.633532562e-10
5.700545156e-10
5.987325979e-10
7.166242131e-10
1.194433539e-09
3.111523092e-09
1.071250262e-08
4.036067299e-08
1.533248642e-07
5.691338228e-07
2.021570291e-06
6.690458019e-06
1.972716617e-05
4.764884914e-05
5.617978328e-10
5.630143553e-10
5.692138745e-10
5.955286989e-10
7.025734321e-10
1.130866673e-09
2.822488762e-09
9.400841432e-09
3.444670577e-08
1.270025104e-07
4.547186665e-07
1.544673352e-06
4.843747659e-06
1.345844964e-05
3.108907024e-05
5.611858437e-10
5.621842257e-10
5.672073513e-10
5.880894883e-10
6.70849947e-10
9.920301297e-10
2.21690712e-09
6.793104963e-09
2.343678911e-08
8.181980834e-08
2.767295138e-07
8.841703514e-07
2.601422172e-06
6.817019136e-06
1.523428126e-05
5.605075485e-10
5.612785928e-10
5.650920991e-10
5.805070815e-10
6.395057814e-10
8.594413439e-10
1.661197299e-09
4.510642433e-09
1.432187947e-08
4.67559581e-08
1.484201532e-07
4.453971128e-07
1.234691347e-06
3.081370721e-06
6.730205445e-06
5.600757036e-10
5.607103365e-10
5.637970641e-10
5.759779654e-10
6.212149883e-10
7.840115319e-10
1.354222076e-09
3.292398553e-09
9.646844277e-09
2.95717949e-08
8.865757831e-08
2.519557568e-07
6.647256758e-07
1.597075038e-06
3.433110748e-06
5.606869277e-10
5.614895562e-10
5.654626782e-10
5.815202739e-10
6.429214074e-10
8.713744654e-10
1.701612289e-09
4.639342762e-09
1.469641416e-08
4.770831882e-08
1.503394509e-07
4.475172691e-07
1.230738826e-06
3.051939265e-06
5.611925034e-10
5.621908131e-10
5.672138127e-10
5.880957904e-10
6.708569423e-10
9.920426415e-10
2.216950463e-09
6.793304961e-09
2.343774525e-08
8.182427484e-08
2.767495752e-07
8.842566244e-07
2.601773401e-06
6.818388492e-06
5.619935515e-10
5.633164624e-10
5.701107254e-10
5.993038661e-10
7.198462751e-10
1.210413701e-09
3.184501797e-09
1.101658295e-08
4.146935555e-08
1.564566483e-07
5.724087368e-07
1.984356508e-06
6.336327576e-06
1.785734168e-05
4.15357398e-05
5.627204384e-10
5.643594455e-10
5.729102062e-10
6.105733317e-10
7.709969701e-10
1.44828947e-09
4.292881927e-09
1.615433426e-08
6.502643566e-08
2.624635889e-07
1.035016955e-06
3.905366438e-06
1.369238161e-05
4.241548503e-05
0.0001054135709
5.630130082e-10
5.647870181e-10
5.741004561e-10
6.155360679e-10
7.943514247e-10
1.561752557e-09
4.851692677e-09
1.89335894e-08
7.894921096e-08
3.3237924e-07
1.383727681e-06
5.603903022e-06
2.152618363e-05
7.458499268e-05
0.0002066690815
5.627173214e-10
5.643563685e-10
5.729072308e-10
6.105703535e-10
7.709937339e-10
1.448283489e-09
4.292857842e-09
1.615420179e-08
6.502570238e-08
2.624595083e-07
1.034995429e-06
3.90525791e-06
1.369187182e-05
4.241338966e-05
0.0001054071623
5.619873027e-10
5.633103769e-10
5.701050037e-10
5.992990335e-10
7.19843508e-10
1.210416618e-09
3.184516828e-09
1.101659358e-08
4.146909802e-08
1.564541173e-07
5.723918672e-07
1.984261515e-06
6.335862569e-06
1.785540109e-05
4.152955136e-05
5.61183082e-10
5.621819559e-10
5.672057417e-10
5.880889972e-10
6.708519764e-10
9.920400996e-10
2.216945278e-09
6.793243308e-09
2.343727615e-08
8.182143326e-08
2.767344975e-07
8.841842252e-07
2.601453848e-06
6.817071753e-06
1.523431728e-05
5.606732481e-10
5.614792039e-10
5.654546676e-10
5.815146648e-10
6.429187699e-10
8.713756497e-10
1.701614253e-09
4.639303714e-09
1.469606281e-08
4.7706241e-08
1.503291253e-07
4.47471865e-07
1.230559952e-06
3.051310393e-06
6.645836221e-06
5.612227831e-10
5.621873258e-10
5.670098479e-10
5.868383151e-10
6.64300223e-10
9.597323333e-10
2.063757075e-09
6.094025565e-09
2.037871251e-08
6.910188011e-08
2.270420921e-07
7.04968359e-07
2.019994157e-06
5.183917563e-06
5.618013421e-10
5.630179151e-10
5.692175192e-10
5.955331765e-10
7.025817752e-10
1.130893346e-09
2.822600491e-09
9.401344192e-09
3.444898789e-08
1.270127715e-07
4.547637864e-07
1.544865164e-06
4.844523399e-06
1.346133001e-05
5.627205621e-10
5.643596658e-10
5.729104886e-10
6.105741555e-10
7.710006544e-10
1.44830643e-09
4.292962573e-09
1.615472707e-08
6.502838981e-08
2.624732952e-07
1.035065223e-06
3.905605904e-06
1.369356574e-05
4.242138398e-05
5.635588074e-10
5.656143983e-10
5.76534198e-10
6.26003587e-10
8.443232514e-10
1.806051892e-09
6.054035716e-09
2.486098131e-08
1.080969173e-07
4.744662964e-07
2.063486506e-06
8.742665146e-06
3.511028336e-05
0.0001266200217
0.0003605673367
5.638978527e-10
5.66133318e-10
5.780969615e-10
6.329349004e-10
8.787388506e-10
1.983397718e-09
6.990783729e-09
2.993111167e-08
1.362336227e-07
6.343347646e-07
2.988534152e-06
1.412990488e-05
6.595822009e-05
0.0002917998837
0.001076071156
5.635560023e-10
5.656115984e-10
5.765313893e-10
6.260007859e-10
8.443202042e-10
1.806046076e-09
6.054007176e-09
2.486079602e-08
1.080957127e-07
4.744585308e-07
2.063437481e-06
8.742360905e-06
3.510847054e-05
0.0001266101478
0.0003605245377
5.627148187e-10
5.643540395e-10
5.729051869e-10
6.105696066e-10
7.709977602e-10
1.448307411e-09
4.292963717e-09
1.615464719e-08
6.502752349e-08
2.624667629e-07
1.035022688e-06
3.905350774e-06
1.36921447e-05
4.241396724e-05
0.0001054075509
5.617925822e-10
5.630097132e-10
5.69210219e-10
5.955273498e-10
7.025784363e-10
1.130894847e-09
2.822604685e-09
9.40128702e-09
3.444835904e-08
1.270083938e-07
4.54738219e-07
1.544731917e-06
4.843895845e-06
1.345872176e-05
3.108926258e-05
5.612099097e-10
5.621778426e-10
5.670027694e-10
5.868336576e-10
6.642987895e-10
9.597354352e-10
2.063760995e-09
6.093971459e-09
2.037820697e-08
6.909877785e-08
2.27026163e-07
7.048960748e-07
2.019702719e-06
5.182893546e-06
1.147317123e-05
5.614365835e-10
5.624686126e-10
5.676482051e-10
5.890848375e-10
6.735301315e-10
9.988165395e-10
2.22875961e-09
6.781632319e-09
2.318975605e-08
8.029166127e-08
2.699341596e-07
8.605606112e-07
2.539389555e-06
6.706889342e-06
5.62045267e-10
5.633537917e-10
5.700554139e-10
5.987350699e-10
7.166334894e-10
1.194473465e-09
3.111700549e-09
1.071329656e-08
4.036422377e-08
1.533406041e-07
5.692027071e-07
2.021862572e-06
6.691636295e-06
1.973145995e-05
5.630134165e-10
5.647874926e-10
5.741012127e-10
6.155384117e-10
7.943614648e-10
1.561799305e-09
4.851916317e-09
1.89346792e-08
7.895460576e-08
3.324062249e-07
1.383863309e-06
5.604583774e-06
2.152954378e-05
7.460059603e-05
5.638980792e-10
5.661335995e-10
5.780974725e-10
6.329366843e-10
8.78746674e-10
1.983436071e-09
6.990978644e-09
2.993212926e-08
1.362391335e-07
6.343656186e-07
2.98871502e-06
1.413101663e-05
6.596542011e-05
0.0002918490238
5.642565533e-10
5.666924343e-10
5.798327733e-10
6.408330259e-10
9.189721552e-10
2.197435596e-09
8.170381848e-09
3.669417965e-08
1.768231584e-07
8.90769997e-07
4.70040309e-06
2.622020874e-05
0.0001561835553
0.00100113457
0.006965277591
5.638954162e-10
5.661309784e-10
5.780949713e-10
6.329344488e-10
8.787450897e-10
1.983434661e-09
6.990964254e-09
2.993197903e-08
1.362378277e-07
6.343552643e-07
2.988634599e-06
1.413039065e-05
6.596042899e-05
0.0002918081755
0.001076078716
5.630080852e-10
5.647822109e-10
5.740963255e-10
6.155343423e-10
7.943593194e-10
1.561801549e-09
4.85191952e-09
1.893458688e-08
7.895353479e-08
3.323976538e-07
1.383803616e-06
5.604197858e-06
2.152720131e-05
7.458760482e-05
0.0002066709777
5.620371002e-10
5.633461328e-10
5.700485538e-10
5.987294213e-10
7.166296353e-10
1.194471138e-09
3.111686267e-09
1.071315778e-08
4.036321114e-08
1.533343276e-07
5.691673063e-07
2.02167876e-06
6.690760262e-06
1.972776645e-05
4.764915179e-05
5.614243917e-10
5.624597239e-10
5.676417322e-10
5.89080774e-10
6.735288288e-10
9.988182267e-10
2.228754287e-09
6.781536918e-09
2.31890584e-08
8.02876815e-08
2.699142989e-07
8.604711849e-07
2.539027883e-06
6.705609937e-06
1.509721607e-05
5.61219703e-10
5.621844042e-10
5.67007256e-10
5.868367349e-10
6.643027468e-10
9.597501861e-10
2.063832072e-09
6.094306112e-09
2.037971064e-08
6.910521242e-08
2.270523533e-07
7.049960232e-07
2.020052596e-06
5.183979749e-06
5.617984948e-10
5.630151645e-10
5.69215134e-10
5.955321905e-10
7.025862245e-10
1.130920179e-09
2.822716883e-09
9.401815981e-09
3.445082741e-08
1.270196587e-07
4.547880355e-07
1.544941332e-06
4.844711756e-06
1.34615292e-05
5.627179672e-10
5.643570448e-10
5.729084856e-10
6.105741713e-10
7.710093142e-10
1.44835286e-09
4.29317406e-09
1.615565634e-08
6.503240306e-08
2.624902508e-07
1.035134508e-06
3.905867625e-06
1.369440499e-05
4.242281392e-05
5.63556464e-10
5.656121009e-10
5.765323569e-10
6.260040723e-10
8.44334e-10
1.806111379e-09
6.05432461e-09
2.486236917e-08
1.081036507e-07
4.744990563e-07
2.063646401e-06
8.743437064e-06
3.511388684e-05
0.000126635538
5.638956084e-10
5.661312022e-10
5.780955886e-10
6.329365911e-10
8.787545392e-10
1.983480046e-09
6.991190508e-09
2.993312961e-08
1.362438982e-07
6.343883683e-07
2.988823361e-06
1.413152058e-05
6.596758391e-05
0.0002918561863
5.635538572e-10
5.656095722e-10
5.765299657e-10
6.260019979e-10
8.443327803e-10
1.806111607e-09
6.054321228e-09
2.486229631e-08
1.081029384e-07
4.74493709e-07
2.063610471e-06
8.743216601e-06
3.511270688e-05
0.000126631005
5.627128586e-10
5.643521257e-10
5.729038721e-10
6.105700563e-10
7.710060635e-10
1.448349646e-09
4.293156661e-09
1.615550501e-08
6.503133061e-08
2.624835122e-07
1.035095288e-06
3.905658634e-06
1.369338351e-05
4.241843946e-05
0.0001054218783
5.617907903e-10
5.630079907e-10
5.692088165e-10
5.9552694e-10
7.0258251e-10
1.130916893e-09
2.822700336e-09
9.40168654e-09
3.444998344e-08
1.270148429e-07
4.547632343e-07
1.544823932e-06
4.844211559e-06
1.345966658e-05
3.10914322e-05
5.612082459e-10
5.621762097e-10
5.670013317e-10
5.868329678e-10
6.643010333e-10
9.59749016e-10
2.063817037e-09
6.094187793e-09
2.037901501e-08
6.910167722e-08
2.270361449e-07
7.049283496e-07
2.019797896e-06
5.183134331e-06
1.147362626e-05
5.606807288e-10
5.614835531e-10
5.654571795e-10
5.815164826e-10
6.429234684e-10
8.713972498e-10
1.701709379e-09
4.63969867e-09
1.469763578e-08
4.77122505e-08
1.503510178e-07
4.475467931e-07
1.230796236e-06
3.051977492e-06
5.611867315e-10
5.6218515e-10
5.672087755e-10
5.880928911e-10
6.708617258e-10
9.92076821e-10
2.217097927e-09
6.79388153e-09
2.343989985e-08
8.183195111e-08
2.767751165e-07
8.843326912e-07
2.601954808e-06
6.818571596e-06
5.619881543e-10
5.633112445e-10
5.701063112e-10
5.993027929e-10
7.198580709e-10
1.210478056e-09
3.18478353e-09
1.101775077e-08
4.147407835e-08
1.56475213e-07
5.72478568e-07
1.984601915e-06
6.337102721e-06
1.78594024e-05
5.6271546e-10
5.64354683e-10
5.72906483e-10
6.105732798e-10
7.7101269e-10
1.448373233e-09
4.293264125e-09
1.615603086e-08
6.503390512e-08
2.624960152e-07
1.035154901e-06
3.905932073e-06
1.369455483e-05
4.242291745e-05
5.630084704e-10
5.647826734e-10
5.740970943e-10
6.155369929e-10
7.943703055e-10
1.561851659e-09
4.852154773e-09
1.89357097e-08
7.895897868e-08
3.324243051e-07
1.383934686e-06
5.604842257e-06
2.153030127e-05
7.460161128e-05
5.627131159e-10
5.643523825e-10
5.729042207e-10
6.10571198e-10
7.710107701e-10
1.448370927e-09
4.293253851e-09
1.615596108e-08
6.50334422e-08
2.624932587e-07
1.035140193e-06
3.905859726e-06
1.36942518e-05
4.242195835e-05
5.619834047e-10
5.633066194e-10
5.701019695e-10
5.99298773e-10
7.198539611e-10
1.210471146e-09
3.184756266e-09
1.101760517e-08
4.147330012e-08
1.564712311e-07
5.724599473e-07
1.98452379e-06
6.336833939e-06
1.785889354e-05
5.611795018e-10
5.621784922e-10
5.672028689e-10
5.880880331e-10
6.708579275e-10
9.920729383e-10
2.217082809e-09
6.793786642e-09
2.343936202e-08
8.182923258e-08
2.767627398e-07
8.842818021e-07
2.601770185e-06
6.817995553e-06
1.523667746e-05
5.606698671e-10
5.614759118e-10
5.654518975e-10
5.815133391e-10
6.429221354e-10
8.713961866e-10
1.701697615e-09
4.639613991e-09
1.469717311e-08
4.771007456e-08
1.503417972e-07
4.475113245e-07
1.230673108e-06
3.051594222e-06
6.646390086e-06
5.600806159e-10
5.607124736e-10
5.63798054e-10
5.759790478e-10
6.212199695e-10
7.840345177e-10
1.354315331e-09
3.292753454e-09
9.648138867e-09
2.957632504e-08
8.867265833e-08
2.520029694e-07
6.64862499e-07
1.597434255e-06
5.605085609e-10
5.612797073e-10
5.650936286e-10
5.805102493e-10
6.395159103e-10
8.594793581e-10
1.661343329e-09
4.511199682e-09
1.432396215e-08
4.676350501e-08
1.484463318e-07
4.4548275e-07
1.234950247e-06
3.082072718e-06
5.61184005e-10
5.621828739e-10
5.672072532e-10
5.880924805e-10
6.708639664e-10
9.920874644e-10
2.217138041e-09
6.794022867e-09
2.344037672e-08
8.183346839e-08
2.767795167e-07
8.843437237e-07
2.601975319e-06
6.818587059e-06
5.617933431e-10
5.630105513e-10
5.692114666e-10
5.955305246e-10
7.025905864e-10
1.130945108e-09
2.822818589e-09
9.402201716e-09
3.445222485e-08
1.270244234e-07
4.548028813e-07
1.544981159e-06
4.844790092e-06
1.346156729e-05
5.620375607e-10
5.633466256e-10
5.700494875e-10
5.987321652e-10
7.166401901e-10
1.194515526e-09
3.111879329e-09
1.071399924e-08
4.036687552e-08
1.533501697e-07
5.692346405e-07
2.021956367e-06
6.691842493e-06
1.97315861e-05
5.617910937e-10
5.630083588e-10
5.69209308e-10
5.955285315e-10
7.025886648e-10
1.130942626e-09
2.82281085e-09
9.402159904e-09
3.445199278e-08
1.270232486e-07
4.547974222e-07
1.54495817e-06
4.844705843e-06
1.346132302e-05
5.611796237e-10
5.621786325e-10
5.672031286e-10
5.88088595e-10
6.708597974e-10
9.920806638e-10
2.217115394e-09
6.793923864e-09
2.343992945e-08
8.183153532e-08
2.767717512e-07
8.843159975e-07
2.601894716e-06
6.818434362e-06
5.605020471e-10
5.612735813e-10
5.650881942e-10
5.805056633e-10
6.395115546e-10
8.594722562e-10
1.661320058e-09
4.511100377e-09
1.432353508e-08
4.676177805e-08
1.484399115e-07
4.454615975e-07
1.234894737e-06
3.082004811e-06
5.600707547e-10
5.607058846e-10
5.63793711e-10
5.759766525e-10
6.212191964e-10
7.840336525e-10
1.354305589e-09
3.29269326e-09
9.647849789e-09
2.957511419e-08
8.866810897e-08
2.519875691e-07
6.648161746e-07
1.597309487e-06
3.433641468e-06
5.5969665e-10
5.60225425e-10
5.627705744e-10
5.726188767e-10
6.082952853e-10
7.330348998e-10
1.156057071e-09
2.543824605e-09
6.922883386e-09
2.011032818e-08
5.763793651e-08
1.573210016e-07
4.008591963e-07
9.391411988e-07
5.600767543e-10
5.60711443e-10
5.637985836e-10
5.759809484e-10
6.21223901e-10
7.840432672e-10
1.354338193e-09
3.292819919e-09
9.64833313e-09
2.957686839e-08
8.867406349e-08
2.520061894e-07
6.648685595e-07
1.59744245e-06
5.606741201e-10
5.614801782e-10
5.654560397e-10
5.815178429e-10
6.429291429e-10
8.714146345e-10
1.701763873e-09
4.639872464e-09
1.469817517e-08
4.771382698e-08
1.503552259e-07
4.475564784e-07
1.230813363e-06
3.05199369e-06
5.612106314e-10
5.621786685e-10
5.670039555e-10
5.868367111e-10
6.643094204e-10
9.597771404e-10
2.063926674e-09
6.0946291e-09
2.038076527e-08
6.910844784e-08
2.270613502e-07
7.050171549e-07
2.020088697e-06
5.183995201e-06
5.614249434e-10
5.624603315e-10
5.6764265e-10
5.890831974e-10
6.735379948e-10
9.988548201e-10
2.228903708e-09
6.782142434e-09
2.319147705e-08
8.029713387e-08
2.699499831e-07
8.605996146e-07
2.539458999e-06
6.70691524e-06
5.612085217e-10
5.621765742e-10
5.67001982e-10
5.868347868e-10
6.643074347e-10
9.597740762e-10
2.063918172e-09
6.094593175e-09
2.038060836e-08
6.910778542e-08
2.270586912e-07
7.050075518e-07
2.020057595e-06
5.183908811e-06
5.606700109e-10
5.614761824e-10
5.654523005e-10
5.815142549e-10
6.429254717e-10
8.714091777e-10
1.701748361e-09
4.639810829e-09
1.469792145e-08
4.771283801e-08
1.503516402e-07
4.475449097e-07
1.230781415e-06
3.051923826e-06
5.60070803e-10
5.607059726e-10
5.63793802e-10
5.759770303e-10
6.212203539e-10
7.840380071e-10
1.354322248e-09
3.292756045e-09
9.648080703e-09
2.957593537e-08
8.867092291e-08
2.519970009e-07
6.648470983e-07
1.597412372e-06
5.596883715e-10
5.602205177e-10
5.627678965e-10
5.726181626e-10
6.082962395e-10
7.330362116e-10
1.15605306e-09
2.543790111e-09
6.922718668e-09
2.01096834e-08
5.763575701e-08
1.573147755e-07
4.008458174e-07
9.391337382e-07
)
;

boundaryField
{
    top
    {
        type            calculated;
        value           nonuniform List<scalar> 
134
(
5.596955299e-10
5.600757036e-10
5.606732481e-10
5.612099097e-10
5.614243917e-10
5.612082459e-10
5.606698671e-10
5.600707547e-10
5.596883715e-10
5.602242277e-10
5.607103365e-10
5.614792039e-10
5.621778426e-10
5.624597239e-10
5.621762097e-10
5.614759118e-10
5.607058846e-10
5.602205177e-10
5.627691258e-10
5.637970641e-10
5.654546676e-10
5.670027694e-10
5.676417322e-10
5.670013317e-10
5.654518975e-10
5.63793711e-10
5.627678965e-10
5.726161702e-10
5.759779654e-10
5.815146648e-10
5.868336576e-10
5.89080774e-10
5.868329678e-10
5.815133391e-10
5.759766525e-10
5.726181626e-10
6.082875918e-10
6.212149883e-10
6.429187699e-10
6.642987895e-10
6.735288288e-10
6.643010333e-10
6.429221354e-10
6.212191964e-10
6.082962395e-10
7.330087941e-10
7.840115319e-10
8.713756497e-10
9.597354352e-10
9.988182267e-10
9.59749016e-10
8.713961866e-10
7.840336525e-10
7.330362116e-10
1.155965059e-09
1.354222076e-09
1.701614253e-09
2.063760995e-09
2.228754287e-09
2.063817037e-09
1.701697615e-09
1.354305589e-09
1.15605306e-09
2.543503152e-09
3.292398553e-09
4.639303714e-09
6.093971459e-09
6.781536918e-09
6.094187793e-09
4.639613991e-09
3.29269326e-09
2.543790111e-09
6.921791597e-09
9.646844277e-09
1.469606281e-08
2.037820697e-08
2.31890584e-08
2.037901501e-08
1.469717311e-08
9.647849789e-09
6.922718668e-09
2.01067656e-08
2.95717949e-08
4.7706241e-08
6.909877785e-08
8.02876815e-08
6.910167722e-08
4.771007456e-08
2.957511419e-08
2.01096834e-08
5.762687071e-08
8.865757831e-08
1.503291253e-07
2.27026163e-07
2.699142989e-07
2.270361449e-07
1.503417972e-07
8.866810897e-08
5.763575701e-08
1.572886307e-07
2.519557568e-07
4.47471865e-07
7.048960748e-07
8.604711849e-07
7.049283496e-07
4.475113245e-07
2.519875691e-07
1.573147755e-07
4.00771215e-07
6.647256758e-07
1.230559952e-06
2.019702719e-06
2.539027883e-06
2.019797896e-06
1.230673108e-06
6.648161746e-07
4.008458174e-07
9.389219226e-07
1.597075038e-06
3.051310393e-06
5.182893546e-06
6.705609937e-06
5.183134331e-06
3.051594222e-06
1.597309487e-06
9.391337382e-07
1.998604877e-06
3.433110748e-06
6.645836221e-06
1.147317123e-05
1.509721607e-05
1.147362626e-05
6.646390086e-06
3.433641468e-06
)
;
    }
    bottom
    {
        type            calculated;
        value           nonuniform List<scalar> 
127
(
5.597124997e-10
5.600906107e-10
5.606869277e-10
5.612227831e-10
5.614365835e-10
5.61219703e-10
5.606807288e-10
5.600806159e-10
5.5969665e-10
5.602376901e-10
5.607218244e-10
5.614895562e-10
5.621873258e-10
5.624686126e-10
5.621844042e-10
5.614835531e-10
5.607124736e-10
5.60225425e-10
5.627799972e-10
5.638061664e-10
5.654626782e-10
5.670098479e-10
5.676482051e-10
5.67007256e-10
5.654571795e-10
5.63798054e-10
5.627705744e-10
5.726247142e-10
5.759846565e-10
5.815202739e-10
5.868383151e-10
5.890848375e-10
5.868367349e-10
5.815164826e-10
5.759790478e-10
5.726188767e-10
6.082933302e-10
6.21218711e-10
6.429214074e-10
6.64300223e-10
6.735301315e-10
6.643027468e-10
6.429234684e-10
6.212199695e-10
6.082952853e-10
7.330104403e-10
7.840107728e-10
8.713744654e-10
9.597323333e-10
9.988165395e-10
9.597501861e-10
8.713972498e-10
7.840345177e-10
7.330348998e-10
1.155961084e-09
1.354215759e-09
1.701612289e-09
2.063757075e-09
2.22875961e-09
2.063832072e-09
1.701709379e-09
1.354315331e-09
1.156057071e-09
2.543500421e-09
3.292402545e-09
4.639342762e-09
6.094025565e-09
6.781632319e-09
6.094306112e-09
4.63969867e-09
3.292753454e-09
2.543824605e-09
6.921858953e-09
9.64698475e-09
1.469641416e-08
2.037871251e-08
2.318975605e-08
2.037971064e-08
1.469763578e-08
9.648138867e-09
6.922883386e-09
2.010727021e-08
2.957276759e-08
4.770831882e-08
6.910188011e-08
8.029166127e-08
6.910521242e-08
4.77122505e-08
2.957632504e-08
2.011032818e-08
5.762942116e-08
8.866256245e-08
1.503394509e-07
2.270420921e-07
2.699341596e-07
2.270523533e-07
1.503510178e-07
8.867265833e-08
5.763793651e-08
1.572992806e-07
2.519776702e-07
4.475172691e-07
7.04968359e-07
8.605606112e-07
7.049960232e-07
4.475467931e-07
2.520029694e-07
1.573210016e-07
4.008095819e-07
6.648123466e-07
1.230738826e-06
2.019994157e-06
2.539389555e-06
2.020052596e-06
1.230796236e-06
6.64862499e-07
4.008591963e-07
9.390410438e-07
1.59739478e-06
3.051939265e-06
5.183917563e-06
6.706889342e-06
5.183979749e-06
3.051977492e-06
1.597434255e-06
9.391411988e-07
1.998898883e-06
)
;
    }
    side-walls
    {
        type            calculated;
        value           nonuniform List<scalar> 
261
(
5.597124997e-10
5.600905604e-10
5.606867277e-10
5.612224323e-10
5.614360158e-10
5.612189822e-10
5.606798142e-10
5.600795822e-10
5.596955299e-10
5.602376901e-10
5.607217702e-10
5.614893883e-10
5.621869714e-10
5.624680027e-10
5.62183574e-10
5.614825108e-10
5.607113882e-10
5.602242277e-10
5.627799972e-10
5.638060982e-10
5.654622947e-10
5.670092925e-10
5.676472163e-10
5.670059476e-10
5.654557812e-10
5.637966016e-10
5.627691258e-10
5.726247142e-10
5.759844742e-10
5.815192017e-10
5.868365258e-10
5.890821949e-10
5.868335179e-10
5.815133509e-10
5.759760411e-10
5.726161702e-10
6.082933302e-10
6.212178512e-10
6.429176266e-10
6.642935739e-10
6.735206723e-10
6.642914311e-10
6.429132796e-10
6.212109852e-10
6.082875918e-10
7.330104403e-10
7.840072871e-10
8.713594588e-10
9.597056225e-10
9.987785862e-10
9.597057131e-10
8.713591145e-10
7.84002713e-10
7.330087941e-10
1.155961084e-09
1.354201147e-09
1.701551994e-09
2.063647709e-09
2.228603095e-09
2.063653583e-09
1.701562031e-09
1.354198998e-09
1.155965059e-09
2.543500421e-09
3.292342103e-09
4.639102478e-09
6.093578274e-09
6.780990754e-09
6.093595648e-09
4.639133336e-09
3.292330603e-09
2.543503152e-09
6.921858953e-09
9.646744249e-09
1.469547321e-08
2.037691562e-08
2.318716241e-08
2.037693299e-08
1.469551832e-08
9.64664126e-09
6.921791597e-09
2.010727021e-08
2.957182349e-08
4.770471682e-08
6.909479015e-08
8.028140128e-08
6.909467445e-08
4.770457143e-08
2.957121206e-08
2.01067656e-08
5.762942116e-08
8.865894012e-08
1.503260168e-07
2.270150649e-07
2.698949325e-07
2.27013929e-07
1.503244282e-07
8.865600403e-08
5.762687071e-08
1.572992806e-07
2.519640336e-07
4.474687936e-07
7.048695804e-07
8.604171919e-07
7.048633863e-07
4.47460059e-07
2.519519434e-07
1.572886307e-07
4.008095819e-07
6.647609225e-07
1.230571045e-06
2.019655352e-06
2.538900011e-06
2.019629012e-06
1.230535238e-06
6.647177527e-07
4.00771215e-07
9.390410438e-07
1.597191274e-06
3.051388994e-06
5.182858062e-06
6.705388672e-06
5.18277032e-06
3.051271083e-06
1.597061329e-06
9.389219226e-07
1.998898883e-06
3.433394796e-06
6.646093453e-06
1.14732954e-05
1.509706479e-05
1.147307257e-05
6.645806168e-06
3.433094211e-06
1.998604877e-06
5.5969665e-10
5.600767543e-10
5.606741201e-10
5.612106314e-10
5.614249434e-10
5.612085217e-10
5.606700109e-10
5.60070803e-10
5.596883715e-10
5.60225425e-10
5.60711443e-10
5.614801782e-10
5.621786685e-10
5.624603315e-10
5.621765742e-10
5.614761824e-10
5.607059726e-10
5.602205177e-10
5.627705744e-10
5.637985836e-10
5.654560397e-10
5.670039555e-10
5.6764265e-10
5.67001982e-10
5.654523005e-10
5.63793802e-10
5.627678965e-10
5.726188767e-10
5.759809484e-10
5.815178429e-10
5.868367111e-10
5.890831974e-10
5.868347868e-10
5.815142549e-10
5.759770303e-10
5.726181626e-10
6.082952853e-10
6.21223901e-10
6.429291429e-10
6.643094204e-10
6.735379948e-10
6.643074347e-10
6.429254717e-10
6.212203539e-10
6.082962395e-10
7.330348998e-10
7.840432672e-10
8.714146345e-10
9.597771404e-10
9.988548201e-10
9.597740762e-10
8.714091777e-10
7.840380071e-10
7.330362116e-10
1.156057071e-09
1.354338193e-09
1.701763873e-09
2.063926674e-09
2.228903708e-09
2.063918172e-09
1.701748361e-09
1.354322248e-09
1.15605306e-09
2.543824605e-09
3.292819919e-09
4.639872464e-09
6.0946291e-09
6.782142434e-09
6.094593175e-09
4.639810829e-09
3.292756045e-09
2.543790111e-09
6.922883386e-09
9.64833313e-09
1.469817517e-08
2.038076527e-08
2.319147705e-08
2.038060836e-08
1.469792145e-08
9.648080703e-09
6.922718668e-09
2.011032818e-08
2.957686839e-08
4.771382698e-08
6.910844784e-08
8.029713387e-08
6.910778542e-08
4.771283801e-08
2.957593537e-08
2.01096834e-08
5.763793651e-08
8.867406349e-08
1.503552259e-07
2.270613502e-07
2.699499831e-07
2.270586912e-07
1.503516402e-07
8.867092291e-08
5.763575701e-08
1.573210016e-07
2.520061894e-07
4.475564784e-07
7.050171549e-07
8.605996146e-07
7.050075518e-07
4.475449097e-07
2.519970009e-07
1.573147755e-07
4.008591963e-07
6.648685595e-07
1.230813363e-06
2.020088697e-06
2.539458999e-06
2.020057595e-06
1.230781415e-06
6.648470983e-07
4.008458174e-07
9.391411988e-07
1.59744245e-06
3.05199369e-06
5.183995201e-06
6.70691524e-06
5.183908811e-06
3.051923826e-06
1.597412372e-06
9.391337382e-07
)
;
    }
    inlet
    {
        type            calculated;
        value           nonuniform List<scalar> 
81
(
5.597124997e-10
5.600905604e-10
5.606867277e-10
5.612224323e-10
5.614360158e-10
5.612189822e-10
5.606798142e-10
5.600795822e-10
5.596955299e-10
5.600906107e-10
5.605177303e-10
5.61192383e-10
5.618010493e-10
5.620447506e-10
5.617978328e-10
5.611858437e-10
5.605075485e-10
5.600757036e-10
5.606869277e-10
5.611925034e-10
5.619935515e-10
5.627204384e-10
5.630130082e-10
5.627173214e-10
5.619873027e-10
5.61183082e-10
5.606732481e-10
5.612227831e-10
5.618013421e-10
5.627205621e-10
5.635588074e-10
5.638978527e-10
5.635560023e-10
5.627148187e-10
5.617925822e-10
5.612099097e-10
5.614365835e-10
5.62045267e-10
5.630134165e-10
5.638980792e-10
5.642565533e-10
5.638954162e-10
5.630080852e-10
5.620371002e-10
5.614243917e-10
5.61219703e-10
5.617984948e-10
5.627179672e-10
5.63556464e-10
5.638956084e-10
5.635538572e-10
5.627128586e-10
5.617907903e-10
5.612082459e-10
5.606807288e-10
5.611867315e-10
5.619881543e-10
5.6271546e-10
5.630084704e-10
5.627131159e-10
5.619834047e-10
5.611795018e-10
5.606698671e-10
5.600806159e-10
5.605085609e-10
5.61184005e-10
5.617933431e-10
5.620375607e-10
5.617910937e-10
5.611796237e-10
5.605020471e-10
5.600707547e-10
5.5969665e-10
5.600767543e-10
5.606741201e-10
5.612106314e-10
5.614249434e-10
5.612085217e-10
5.606700109e-10
5.60070803e-10
5.596883715e-10
)
;
    }
    outlet
    {
        type            calculated;
        value           nonuniform 0();
    }
    procBoundary0to1
    {
        type            processor;
        value           nonuniform List<scalar> 
97
(
3.844204338e-06
3.433652926e-06
6.540206505e-06
1.249727179e-05
2.122929095e-05
2.746726317e-05
2.122900844e-05
1.249692714e-05
6.539867924e-06
3.843968641e-06
3.433652926e-06