/*--------------------------------*- C++ -*----------------------------------*\
| =========                 |                                                 |
| \\      /  F ield         | OpenFOAM: The Open Source CFD Toolbox           |
|  \\    /   O peration     | Version:  4.x                                   |
|   \\  /    A nd           | Web:      www.OpenFOAM.org                      |
|    \\/     M anipulation  |                                                 |
\*---------------------------------------------------------------------------*/
FoamFile
{
    version     2.0;
    format      ascii;
    class       volScalarField;
    location    "2000";
    object      CO;
}
// * * * * * * * * * * * * * * * * * * * * * * * * * * * * * * * * * * * * * //

dimensions      [0 0 0 0 0 0 0];

internalField   nonuniform List<scalar> 
1174
(
0.310176257
0.310172354
0.3101668988
0.3101598501
0.3101513066
0.3101414759
0.3101306334
0.3101190824
0.3101071233
0.3100950332
0.3100830643
0.3100714823
0.3100607597
0.3100523975
0.3101726743
0.3101665331
0.3101584347
0.3101485944
0.3101373708
0.3101251824
0.3101124438
0.3100995245
0.3100867296
0.3100742976
0.3100624134
0.3100512556
0.3100411768
0.3100334488
0.3101648503
0.3101541938
0.3101411373
0.3101264434
0.3101109115
0.3100952412
0.3100799731
0.310065481
0.310051993
0.310039624
0.3100284143
0.310018385
0.3100096902
0.3100032162
0.3101535521
0.3101372291
0.3101186679
0.3100992394
0.3100800574
0.3100619001
0.3100452359
0.3100302886
0.3100171093
0.310005638
0.3099957541
0.3099873295
0.3099803403
0.3099753071
0.3101456168
0.310126242
0.3101052871
0.3100842285
0.3100641097
0.3100455771
0.3100289635
0.3100143769
0.3100017759
0.3099910293
0.3099819612
0.3099743958
0.3099682493
0.309963897
0.3101535523
0.3101372295
0.3101186683
0.3100992399
0.310080058
0.3100619008
0.3100452367
0.3100302895
0.3100171103
0.310005639
0.3099957552
0.3099873306
0.3099803415
0.3099753083
0.3101648506
0.3101541943
0.310141138
0.3101264442
0.3101109124
0.3100952422
0.3100799743
0.3100654823
0.3100519944
0.3100396256
0.310028416
0.3100183869
0.3100096921
0.3100032182
0.3101726746
0.3101665335
0.3101584352
0.310148595
0.3101373715
0.3101251834
0.310112445
0.3100995258
0.3100867311
0.3100742993
0.3100624153
0.3100512576
0.310041179
0.3100334512
0.3101762572
0.3101723543
0.3101668992
0.3101598506
0.3101513072
0.3101414767
0.3101306343
0.3101190836
0.3101071246
0.3100950349
0.3100830661
0.3100714844
0.310060762
0.3100524001
0.3101768662
0.3101726744
0.3101665331
0.3101584348
0.3101485945
0.3101373708
0.3101251825
0.3101124439
0.3100995246
0.3100867297
0.3100742977
0.3100624135
0.3100512556
0.3100411769
0.3100334489
0.3101647334
0.310154176
0.3101414245
0.3101272646
0.3101124625
0.3100976478
0.3100832778
0.3100696487
0.3100569283
0.3100451919
0.3100344607
0.310024755
0.3100162444
0.3100098484
0.3101450149
0.3101249235
0.3101033077
0.3100819881
0.3100621706
0.3100444796
0.3100291096
0.3100159868
0.3100048969
0.3099955718
0.3099877436
0.3099811864
0.309975798
0.3099719313
0.3101105302
0.3100776842
0.3100467878
0.3100200672
0.3099982173
0.3099810347
0.3099679014
0.3099580811
0.3099508709
0.3099456648
0.3099419696
0.3099393982
0.3099376631
0.3099366179
0.3100785668
0.3100394562
0.3100066509
0.3099808698
0.3099614746
0.3099473737
0.3099374439
0.3099306965
0.3099263218
0.3099236831
0.3099222901
0.309921766
0.3099218025
0.3099220776
0.310110531
0.3100776852
0.3100467889
0.3100200684
0.3099982186
0.309981036
0.3099679028
0.3099580825
0.3099508723
0.3099456663
0.3099419711
0.3099393997
0.3099376646
0.3099366194
0.310145016
0.3101249247
0.310103309
0.3100819896
0.3100621723
0.3100444815
0.3100291116
0.3100159889
0.3100048991
0.3099955741
0.309987746
0.3099811889
0.3099758005
0.3099719339
0.3101647341
0.3101541767
0.3101414253
0.3101272656
0.3101124637
0.3100976492
0.3100832794
0.3100696506
0.3100569304
0.3100451942
0.3100344632
0.3100247576
0.3100162472
0.3100098514
0.3101726746
0.3101665335
0.3101584352
0.3101485951
0.3101373717
0.3101251836
0.3101124453
0.3100995262
0.3100867316
0.3100742999
0.3100624159
0.3100512583
0.3100411798
0.310033452
0.3101725968
0.3101648504
0.3101541941
0.3101411376
0.3101264438
0.3101109118
0.3100952415
0.3100799734
0.3100654813
0.3100519933
0.3100396244
0.3100284146
0.3100183854
0.3100096905
0.3100032165
0.3101614237
0.3101450152
0.3101249238
0.3101033079
0.3100819884
0.3100621709
0.31004448
0.3100291099
0.3100159871
0.3100048972
0.3099955721
0.3099877439
0.3099811867
0.3099757983
0.3099719316
0.3100877176
0.3100463009
0.3100092766
0.3099793039
0.3099567797
0.3099408875
0.3099303527
0.3099238732
0.3099203157
0.3099187754
0.3099185674
0.3099191847
0.3099202273
0.3099212435
0.3099624014
0.3098939698
0.3098476692
0.3098210594
0.3098092135
0.3098073432
0.3098116699
0.3098195051
0.3098290556
0.3098391826
0.3098491888
0.3098586353
0.3098671021
0.3098735246
0.3098011661
0.3097345869
0.3097071985
0.3097036886
0.3097133287
0.3097294676
0.3097482208
0.3097674142
0.3097858873
0.3098030647
0.3098186957
0.3098326666
0.3098447387
0.3098536965
0.3099624049
0.3098939733
0.3098476724
0.3098210625
0.3098092164
0.3098073459
0.3098116725
0.3098195075
0.3098290579
0.3098391848
0.309849191
0.3098586374
0.3098671041
0.3098735266
0.3100877209
0.3100463038
0.3100092795
0.3099793069
0.3099567828
0.3099408907
0.309930356
0.3099238765
0.309920319
0.3099187787
0.3099185707
0.3099191879
0.3099202305
0.3099212467
0.310145016
0.3101249249
0.3101033093
0.31008199
0.3100621729
0.3100444822
0.3100291125
0.3100159899
0.3100049002
0.3099955753
0.3099877473
0.3099811902
0.3099758019
0.3099719353
0.3101648506
0.3101541944
0.3101411382
0.3101264446
0.310110913
0.3100952431
0.3100799753
0.3100654836
0.3100519959
0.3100396273
0.3100284178
0.3100183888
0.3100096942
0.3100032205
0.3101662788
0.3101535525
0.3101372296
0.3101186685
0.31009924
0.310080058
0.3100619008
0.3100452366
0.3100302893
0.3100171101
0.3100056387
0.3099957548
0.3099873302
0.309980341
0.3099753077
0.3101411014
0.3101105307
0.3100776849
0.3100467886
0.310020068
0.3099982181
0.3099810354
0.3099679021
0.3099580818
0.3099508716
0.3099456655
0.3099419702
0.3099393988
0.3099376637
0.3099366185
0.3100472789
0.3099624021
0.3098939709
0.3098476701
0.3098210603
0.3098092143
0.3098073439
0.3098116706
0.3098195057
0.3098290561
0.3098391831
0.3098491893
0.3098586358
0.3098671025
0.309873525
0.3095391953
0.3094568846
0.3094464309
0.3094739932
0.309517898
0.3095661644
0.3096128665
0.3096554605
0.3096931511
0.3097259769
0.3097543179
0.309778596
0.3097988894
0.3098136137
0.3087232234
0.3088380172
0.3090069731
0.3091667573
0.3093014324
0.3094106727
0.3094984105
0.3095690326
0.3096262894
0.3096731208
0.3097117445
0.309743739
0.3097698462
0.3097885034
0.3095392092
0.3094568942
0.3094464384
0.3094739995
0.3095179035
0.3095661692
0.3096128707
0.3096554642
0.3096931544
0.30972598
0.3097543207
0.3097785987
0.3097988919
0.3098136161
0.3099624049
0.3098939743
0.3098476742
0.3098210648
0.309809219
0.3098073487
0.3098116754
0.3098195103
0.3098290607
0.3098391875
0.3098491935
0.3098586399
0.3098671065
0.309873529
0.3101105311
0.3100776858
0.3100467901
0.3100200701
0.3099982208
0.3099810386
0.3099679056
0.3099580856
0.3099508755
0.3099456696
0.3099419745
0.3099394031
0.309937668
0.309936623
0.3101535524
0.3101372297
0.3101186689
0.3100992409
0.3100800595
0.3100619027
0.3100452389
0.3100302921
0.3100171133
0.3100056422
0.3099957587
0.3099873343
0.3099803454
0.3099753123
0.3101616176
0.3101456172
0.3101262427
0.3101052879
0.3100842294
0.3100641107
0.3100455781
0.3100289645
0.3100143779
0.310001777
0.3099910303
0.3099819622
0.3099743968
0.3099682503
0.3099638979
0.3101202617
0.3100785678
0.3100394577
0.3100066525
0.3099808714
0.3099614762
0.3099473751
0.3099374453
0.3099306978
0.3099263231
0.3099236843
0.3099222912
0.309921767
0.3099218035
0.3099220785
0.3099220168
0.3098011672
0.3097345897
0.3097072011
0.3097036909
0.3097133308
0.3097294693
0.3097482223
0.3097674156
0.3097858885
0.3098030658
0.3098186967
0.3098326675
0.3098447395
0.3098536972
0.3088596469
0.3087232307
0.3088380226
0.3090069771
0.3091667604
0.3093014348
0.3094106746
0.309498412
0.3095690339
0.3096262905
0.3096731217
0.3097117452
0.3097437396
0.3097698468
0.3097885039
0.3052486986
0.3070383617
0.3080241213
0.3085989219
0.3089539609
0.3091858012
0.3093451243
0.3094596272
0.3095450871
0.3096108711
0.3096627546
0.3097043412
0.3097374862
0.3097608401
0.3087232238
0.3088380305
0.3090069861
0.3091667683
0.3093014415
0.3094106804
0.309498417
0.3095690383
0.3096262944
0.3096731252
0.3097117485
0.3097437426
0.3097698496
0.3097885066
0.3098011664
0.3097345919
0.3097072052
0.309703696
0.3097133362
0.3097294749
0.3097482278
0.3097674209
0.3097858936
0.3098030707
0.3098187014
0.3098326721
0.3098447438
0.3098537015
0.3100785671
0.3100394579
0.3100066537
0.3099808735
0.309961479
0.3099473785
0.3099374491
0.3099307019
0.3099263274
0.3099236888
0.3099222958
0.3099217716
0.3099218082
0.3099220833
0.3101456168
0.3101262425
0.3101052882
0.3100842303
0.3100641122
0.3100455802
0.3100289671
0.310014381
0.3100017805
0.3099910342
0.3099819664
0.3099744012
0.309968255
0.3099639029
0.3101662789
0.3101535528
0.3101372302
0.3101186692
0.3100992409
0.3100800591
0.310061902
0.3100452379
0.3100302907
0.3100171115
0.3100056402
0.3099957564
0.3099873318
0.3099803427
0.3099753094
0.3101411022
0.3101105321
0.3100776868
0.3100467906
0.3100200702
0.3099982204
0.3099810377
0.3099679044
0.3099580841
0.3099508738
0.3099456677
0.3099419724
0.309939401
0.3099376658
0.3099366206
0.3100472842
0.3099624075
0.3098939766
0.3098476757
0.3098210655
0.3098092191
0.3098073483
0.3098116747
0.3098195095
0.3098290597
0.3098391864
0.3098491924
0.3098586387
0.3098671053
0.3098735278
0.3097310509
0.309539216
0.3094569011
0.3094464441
0.3094740041
0.3095179071
0.3095661721
0.3096128731
0.3096554663
0.3096931562
0.3097259815
0.309754322
0.3097785999
0.309798893
0.3098136171
0.3088596509
0.3087232364
0.3088380389
0.3090069916
0.3091667721
0.3093014442
0.3094106824
0.3094984185
0.3095690396
0.3096262955
0.3096731261
0.3097117492
0.3097437433
0.3097698501
0.3097885071
0.3097310482
0.309539218
0.309456905
0.3094464486
0.3094740088
0.3095179116
0.3095661764
0.3096128771
0.3096554699
0.3096931596
0.3097259847
0.309754325
0.3097786026
0.3097988956
0.3098136196
0.3099624013
0.3098939748
0.3098476765
0.309821068
0.3098092226
0.3098073524
0.309811679
0.3098195139
0.3098290641
0.3098391908
0.3098491967
0.3098586429
0.3098671094
0.3098735318
0.31011053
0.3100776854
0.3100467903
0.3100200709
0.309998222
0.3099810401
0.3099679073
0.3099580874
0.3099508775
0.3099456717
0.3099419765
0.3099394052
0.3099376702
0.3099366251
0.310153552
0.3101372295
0.3101186689
0.3100992412
0.3100800599
0.3100619034
0.3100452399
0.3100302933
0.3100171145
0.3100056437
0.3099957602
0.3099873359
0.3099803471
0.3099753141
0.310172597
0.3101648509
0.3101541948
0.3101411386
0.310126445
0.3101109133
0.3100952432
0.3100799754
0.3100654835
0.3100519956
0.3100396268
0.3100284172
0.3100183881
0.3100096934
0.3100032195
0.3101614247
0.3101450166
0.3101249257
0.3101033101
0.3100819908
0.3100621736
0.3100444828
0.310029113
0.3100159903
0.3100049005
0.3099955754
0.3099877473
0.3099811902
0.3099758018
0.3099719351
0.3101277285
0.3100877225
0.3100463058
0.3100092817
0.3099793091
0.3099567849
0.3099408927
0.3099303579
0.3099238784
0.3099203207
0.3099187803
0.3099185722
0.3099191894
0.3099202319
0.3099212481
0.3100472843
0.3099624085
0.3098939785
0.3098476782
0.3098210684
0.3098092222
0.3098073515
0.3098116779
0.3098195125
0.3098290627
0.3098391893
0.3098491952
0.3098586414
0.3098671078
0.3098735302
0.3099220181
0.3098011727
0.3097345977
0.3097072102
0.3097037
0.3097133396
0.3097294776
0.3097482301
0.3097674229
0.3097858953
0.3098030722
0.3098187027
0.3098326732
0.3098447449
0.3098537025
0.3100472848
0.3099624095
0.30989398
0.3098476801
0.3098210706
0.3098092246
0.3098073539
0.3098116802
0.3098195149
0.309829065
0.3098391915
0.3098491973
0.3098586435
0.3098671099
0.3098735323
0.3101277268
0.3100877211
0.3100463052
0.310009282
0.3099793102
0.3099567868
0.3099408951
0.3099303606
0.3099238813
0.3099203238
0.3099187835
0.3099185755
0.3099191927
0.3099202352
0.3099212514
0.310145015
0.3101249246
0.3101033097
0.310081991
0.3100621744
0.3100444842
0.3100291149
0.3100159926
0.3100049031
0.3099955784
0.3099877505
0.3099811936
0.3099758054
0.3099719389
0.3101648502
0.3101541942
0.3101411382
0.3101264449
0.3101109136
0.310095244
0.3100799766
0.3100654852
0.3100519978
0.3100396295
0.3100284202
0.3100183914
0.310009697
0.3100032234
0.3101768665
0.3101726748
0.3101665338
0.3101584356
0.3101485956
0.3101373722
0.3101251841
0.3101124458
0.3100995267
0.3100867321
0.3100743004
0.3100624164
0.3100512588
0.3100411802
0.3100334524
0.3101725095
0.3101647344
0.3101541772
0.310141426
0.3101272664
0.3101124646
0.3100976503
0.3100832805
0.3100696518
0.3100569316
0.3100451955
0.3100344644
0.3100247589
0.3100162484
0.3100098526
0.3101614247
0.3101450167
0.3101249259
0.3101033105
0.3100819913
0.3100621743
0.3100444837
0.310029114
0.3100159914
0.3100049017
0.3099955767
0.3099877487
0.3099811916
0.3099758033
0.3099719366
0.3101411022
0.3101105325
0.3100776877
0.3100467921
0.3100200722
0.3099982229
0.3099810406
0.3099679075
0.3099580874
0.3099508773
0.3099456713
0.309941976
0.3099394046
0.3099376694
0.3099366243
0.3101202621
0.3100785694
0.3100394606
0.3100066564
0.3099808761
0.3099614813
0.3099473807
0.3099374511
0.3099307037
0.3099263291
0.3099236903
0.3099222973
0.309921773
0.3099218094
0.3099220844
0.3101411025
0.3101105329
0.3100776883
0.3100467929
0.3100200732
0.309998224
0.3099810419
0.3099679089
0.3099580889
0.3099508788
0.3099456728
0.3099419776
0.3099394062
0.3099376711
0.3099366259
0.3101614246
0.3101450166
0.310124926
0.3101033109
0.3100819921
0.3100621754
0.3100444851
0.3100291157
0.3100159933
0.3100049038
0.309995579
0.3099877511
0.3099811941
0.3099758059
0.3099719393
0.3101725091
0.310164734
0.3101541769
0.3101414259
0.3101272666
0.3101124651
0.3100976511
0.3100832817
0.3100696533
0.3100569334
0.3100451976
0.3100344669
0.3100247616
0.3100162514
0.3100098557
0.3101726743
0.3101665334
0.3101584353
0.3101485955
0.3101373723
0.3101251846
0.3101124466
0.3100995279
0.3100867337
0.3100743023
0.3100624187
0.3100512614
0.3100411832
0.3100334557
0.3101787957
0.3101762574
0.3101723545
0.3101668995
0.310159851
0.3101513077
0.3101414773
0.3101306351
0.3101190844
0.3101071256
0.3100950359
0.3100830672
0.3100714856
0.3100607632
0.3100524013
0.3101768665
0.3101726748
0.3101665338
0.3101584357
0.3101485957
0.3101373723
0.3101251843
0.3101124461
0.3100995271
0.3100867326
0.3100743009
0.310062417
0.3100512594
0.3100411809
0.3100334532
0.310172597
0.310164851
0.3101541949
0.3101411389
0.3101264454
0.3101109139
0.3100952441
0.3100799764
0.3100654847
0.3100519971
0.3100396285
0.310028419
0.31001839
0.3100096954
0.3100032217
0.310166279
0.310153553
0.3101372307
0.3101186701
0.3100992422
0.3100800608
0.3100619042
0.3100452404
0.3100302936
0.3100171147
0.3100056437
0.3099957601
0.3099873357
0.3099803467
0.3099753136
0.3101616177
0.3101456179
0.3101262439
0.3101052898
0.3100842319
0.3100641139
0.3100455819
0.3100289688
0.3100143827
0.3100017821
0.3099910357
0.3099819679
0.3099744026
0.3099682563
0.3099639041
0.3101662791
0.3101535532
0.310137231
0.3101186705
0.3100992428
0.3100800616
0.310061905
0.3100452414
0.3100302947
0.3100171159
0.310005645
0.3099957614
0.3099873371
0.3099803481
0.3099753151
0.310172597
0.3101648511
0.3101541951
0.3101411392
0.310126446
0.3101109147
0.3100952451
0.3100799777
0.3100654862
0.3100519988
0.3100396303
0.310028421
0.3100183922
0.3100096978
0.3100032241
0.3101768664
0.3101726747
0.3101665337
0.3101584357
0.3101485959
0.3101373727
0.310125185
0.310112447
0.3100995282
0.310086734
0.3100743027
0.310062419
0.3100512617
0.3100411834
0.3100334559
0.3101787956
0.3101762572
0.3101723544
0.3101668994
0.310159851
0.3101513078
0.3101414776
0.3101306356
0.3101190853
0.3101071268
0.3100950374
0.3100830691
0.3100714878
0.3100607657
0.3100524041
)
;

boundaryField
{
    top
    {
        type            zeroGradient;
    }
    bottom
    {
        type            zeroGradient;
    }
    side-walls
    {
        type            zeroGradient;
    }
    inlet
    {
        type            zeroGradient;
    }
    outlet
    {
        type            zeroGradient;
    }
    procBoundary1to0
    {
        type            processor;
        value           nonuniform List<scalar> 
97
(
0.3101787956
0.3101787956
0.3101768664
0.310172597
0.3101662792
0.3101616182
0.3101662794
0.3101725973
0.3101768666
0.3101787958
0.3101793752
0.310172509
0.310172509
0.310172509
0.3101614245
0.3101411027
0.3101202636
0.3101411034
0.3101614254
0.3101725097
0.3101768666
0.3101774168
0.3101724527
0.3101277263
0.3101277263
0.3101277263
0.3100472847
0.3099220252
0.3100472884
0.3101277301
0.3101614253
0.3101725972
0.310174589
0.3101638231
0.3101267636
0.3097310384
0.3097310384
0.3097310384
0.3088596906
0.3097310631
0.3100472882
0.3101411033
0.3101662793
0.3101726033
0.310155827
0.3100864473
0.3098171115
0.3018118641
0.3018118641
0.3018118641
0.308859686
0.308859686
0.3099220243
0.3101202634
0.3101616181
0.310174589
0.3101638233
0.3101267639
0.3100209369
0.3098171108
0.3100209382
0.3100472808
0.3100472808
0.3100472808
0.3101411021
0.310166279
0.3101774168
0.3101724528
0.3101581154
0.3101267638
0.3100864473
0.3101267641
0.3101581154
0.3101614239
0.3101614239
0.3101614239
0.3101725969
0.3101793752
0.3101773877
0.3101724528
0.3101638232
0.3101558271
0.3101638233
0.3101724528
0.3101773877
0.3101768663
0.3101768663
0.3101768663
0.310180272
0.3101793752
0.3101774168
0.310174589
0.3101726033
0.3101745891
0.3101774168
0.3101793752
0.310180272
)
;
    }
}


// ************************************************************************* //
