/*--------------------------------*- C++ -*----------------------------------*\
| =========                 |                                                 |
| \\      /  F ield         | OpenFOAM: The Open Source CFD Toolbox           |
|  \\    /   O peration     | Version:  4.x                                   |
|   \\  /    A nd           | Web:      www.OpenFOAM.org                      |
|    \\/     M anipulation  |                                                 |
\*---------------------------------------------------------------------------*/
FoamFile
{
    version     2.0;
    format      ascii;
    class       volScalarField;
    location    "2000";
    object      CO2;
}
// * * * * * * * * * * * * * * * * * * * * * * * * * * * * * * * * * * * * * //

dimensions      [0 0 0 0 0 0 0];

internalField   nonuniform List<scalar> 
1174
(
0.06498743642
0.06499188044
0.06499809209
0.06500611858
0.06501584764
0.06502704308
0.06503939157
0.06505254771
0.0650661697
0.06507994183
0.0650935772
0.06510677279
0.06511899042
0.06512851907
0.06499151502
0.06499850731
0.06500772831
0.06501893319
0.06503171402
0.06504559419
0.06506010201
0.06507481685
0.06508939112
0.06510355331
0.06511709299
0.06512980635
0.06514129146
0.06515009852
0.06500042192
0.0650125546
0.0650274205
0.06504415164
0.06506183822
0.06507968364
0.06509707253
0.06511357923
0.06512894401
0.06514303576
0.06515580867
0.0651672382
0.06517714851
0.06518452848
0.06501328333
0.06503186704
0.06505300015
0.06507512209
0.06509696511
0.06511764309
0.06513662283
0.06515364913
0.06516866373
0.06518173484
0.06519299931
0.06520260292
0.0652105721
0.06521631236
0.06502231631
0.06504437429
0.06506823263
0.06509221081
0.06511512081
0.06513622681
0.06515514957
0.06517176596
0.06518612276
0.06519836933
0.06520870554
0.06521733135
0.06522434144
0.06522930665
0.0650132831
0.06503186669
0.06505299971
0.06507512157
0.06509696452
0.06511764244
0.06513662214
0.0651536484
0.06516866297
0.06518173406
0.06519299851
0.06520260211
0.06521057128
0.06521631153
0.06500042157
0.0650125541
0.06502741987
0.0650441509
0.06506183737
0.06507968268
0.06509707148
0.06511357811
0.06512894281
0.0651430345
0.06515580736
0.06516723684
0.06517714711
0.06518452704
0.06499151471
0.0649985069
0.0650077278
0.06501893257
0.06503171328
0.06504559333
0.06506010102
0.06507481574
0.06508938989
0.06510355197
0.06511709153
0.0651298048
0.06514128982
0.0651500968
0.06498743616
0.06499188013
0.06499809169
0.06500611809
0.06501584704
0.06502704234
0.0650393907
0.0650525467
0.06506616854
0.06507994052
0.06509357576
0.06510677121
0.06511898871
0.06512851725
0.06498674243
0.06499151501
0.06499850728
0.06500772828
0.06501893315
0.06503171398
0.06504559415
0.06506010196
0.0650748168
0.06508939106
0.06510355325
0.06511709292
0.06512980628
0.06514129139
0.06515009845
0.06500055481
0.06501257469
0.06502709326
0.06504321632
0.06506007181
0.06507694297
0.06509330922
0.06510883307
0.06512332365
0.06513669488
0.06514892265
0.06515998357
0.06516968389
0.06517697481
0.06502300121
0.06504587485
0.06507048549
0.06509476061
0.06511732739
0.06513747491
0.06515498157
0.06516993115
0.06518256727
0.06519319501
0.06520211912
0.06520959656
0.06521574316
0.06522015521
0.06506225541
0.06509964901
0.06513482568
0.06516525116
0.06519013389
0.06520970517
0.06522466783
0.0652358598
0.06524408096
0.0652500209
0.06525424112
0.0652571819
0.06525917007
0.0652603703
0.06509863828
0.06514316366
0.06518051454
0.06520987202
0.06523196196
0.06524802642
0.0652593434
0.06526703818
0.06527203209
0.06527504997
0.06527664972
0.06527726022
0.06527723169
0.06527692912
0.06506225464
0.06509964803
0.06513482461
0.06516525005
0.06519013276
0.06520970404
0.06522466671
0.0652358587
0.06524407988
0.06525001983
0.06525424007
0.06525718088
0.06525916906
0.0652603693
0.06502300015
0.06504587361
0.06507048414
0.06509475915
0.06511732584
0.06513747329
0.06515497991
0.06516992945
0.06518256556
0.0651931933
0.06520211739
0.06520959483
0.06521574143
0.06522015347
0.06500055407
0.06501257392
0.06502709239
0.06504321532
0.06506007068
0.0650769417
0.06509330782
0.06510883154
0.06512332202
0.06513669315
0.06514892083
0.06515998167
0.06516968191
0.06517697278
0.06499151471
0.06499850688
0.06500772775
0.06501893248
0.06503171315
0.06504559315
0.0650601008
0.06507481547
0.06508938957
0.06510355161
0.06511709114
0.06512980437
0.06514128936
0.06515009631
0.06499160277
0.06500042186
0.06501255445
0.06502742032
0.06504415144
0.06506183799
0.0650796834
0.06509707227
0.06511357897
0.06512894374
0.06514303548
0.0651558084
0.06516723792
0.06517714824
0.06518452821
0.06500432118
0.06502300112
0.06504587467
0.06507048529
0.06509476038
0.06511732715
0.06513747467
0.06515498133
0.0651699309
0.06518256704
0.06519319478
0.06520211889
0.06520959634
0.06521574295
0.06522015501
0.06508822272
0.06513537334
0.06517752663
0.06521165544
0.06523730715
0.06525541067
0.0652674163
0.065274806
0.06527886966
0.06528063693
0.06528088746
0.06528019831
0.06527902425
0.0652778777
0.06523086529
0.06530877008
0.06536148769
0.06539179372
0.06540529517
0.06540744149
0.06540253317
0.06539363052
0.06538277444
0.06537126141
0.06535988517
0.06534914539
0.06533951994
0.06533221886
0.065414387
0.06549018782
0.06552138296
0.06552539907
0.06551444636
0.06549609516
0.06547476664
0.0654529356
0.0654319234
0.06541238495
0.06539460596
0.06537871577
0.06536498615
0.06535479897
0.06523086187
0.06530876671
0.06536148464
0.06539179097
0.06540529271
0.06540743927
0.06540253115
0.06539362869
0.06538277277
0.06537125986
0.06535988373
0.06534914404
0.06533951866
0.06533221762
0.06508821934
0.06513537038
0.06517752381
0.06521165269
0.06523730446
0.06525540805
0.06526741376
0.06527480355
0.0652788673
0.06528063466
0.06528088526
0.06528019617
0.06527902217
0.06527787565
0.06502300014
0.0650458735
0.06507048391
0.06509475881
0.0651173254
0.06513747275
0.06515497928
0.06516992875
0.06518256481
0.06519319249
0.06520211655
0.06520959396
0.06521574054
0.06522015257
0.06500042154
0.06501255399
0.06502741966
0.06504415056
0.06506183689
0.06507968207
0.06509707072
0.06511357723
0.06512894182
0.06514303341
0.06515580619
0.06516723559
0.06517714581
0.06518452568
0.06499879487
0.06501328318
0.06503186671
0.06505299973
0.06507512162
0.06509696459
0.06511764254
0.06513662226
0.06515364855
0.06516866314
0.06518173427
0.06519299874
0.06520260236
0.06521057156
0.06521631183
0.06502745408
0.06506225534
0.06509964856
0.06513482515
0.0651652506
0.06519013331
0.06520970459
0.06522466726
0.06523585922
0.0652440804
0.06525002035
0.0652542406
0.0652571814
0.06525916958
0.06526036984
0.06513424657
0.06523086524
0.06530876945
0.065361487
0.06539179305
0.06540529453
0.06540744088
0.0654025326
0.06539362999
0.06538277396
0.06537126097
0.06535988477
0.06534914503
0.0653395196
0.06533221854
0.06571256762
0.06580628389
0.0658182118
0.06578686682
0.06573691708
0.0656819995
0.06562885954
0.06558039317
0.06553750613
0.06550015496
0.06546790768
0.06544028399
0.06541719505
0.06540044317
0.06664129635
0.06651068787
0.06631842302
0.06613658802
0.0659833249
0.06585900618
0.06575915797
0.06567878816
0.06561362914
0.06556033524
0.0655163826
0.06547997478
0.06545026731
0.06542903801
0.0657125538
0.06580627448
0.06581820484
0.0657868614
0.06573691277
0.06568199601
0.06562885664
0.0655803907
0.06553750398
0.06550015306
0.06546790596
0.06544028243
0.06541719359
0.06540044178
0.06523086182
0.06530876574
0.06536148317
0.06539178921
0.06540529079
0.06540743731
0.06540252923
0.06539362683
0.06538277097
0.06537125814
0.0653598821
0.06534914248
0.06533951717
0.06533221617
0.0650622545
0.06509964744
0.06513482362
0.06516524871
0.06519013114
0.06520970222
0.06522466474
0.06523585662
0.06524407774
0.06525001767
0.06525423789
0.06525717869
0.06525916687
0.06526036712
0.06501328304
0.06503186641
0.06505299918
0.06507512076
0.06509696343
0.06511764109
0.06513662055
0.0651536466
0.06516866099
0.06518173194
0.06519299628
0.06520259978
0.06521056887
0.06521630905
0.06500410075
0.06502231605
0.06504437377
0.06506823198
0.06509221007
0.06511512002
0.06513622598
0.06515514872
0.06517176509
0.0651861219
0.06519836848
0.06520870471
0.06521733054
0.06522434064
0.06522930587
0.06505117479
0.06509863772
0.06514316244
0.06518051319
0.06520987065
0.06523196063
0.06524802516
0.06525934221
0.06526703706
0.06527203104
0.06527504899
0.0652766488
0.06527725935
0.06527723087
0.06527692833
0.06527682074
0.0654143871
0.06549018567
0.06552138077
0.06552539713
0.06551444466
0.06549609367
0.06547476532
0.06545293444
0.06543192238
0.06541238403
0.06539460514
0.06537871502
0.06536498546
0.06535479832
0.06648597607
0.06664129131
0.06651068354
0.06631841966
0.0661365854
0.06598332283
0.06585900452
0.06575915662
0.06567878704
0.06561362819
0.06556033443
0.06551638192
0.06547997419
0.06545026678
0.06542903753
0.07059584734
0.06855903037
0.06743712481
0.06678293184
0.06637885258
0.06611498864
0.06593365901
0.06580334114
0.06570607865
0.06563121035
0.06557216332
0.06552483594
0.06548711647
0.06546054025
0.0666412958
0.06651067489
0.06631841169
0.06613657929
0.06598331812
0.06585900076
0.0657591535
0.06567878439
0.06561362588
0.06556033239
0.06551638008
0.06547997251
0.06545026523
0.06542903606
0.06541438634
0.06549018309
0.06552137732
0.06552539338
0.06551444091
0.06549609006
0.06547476191
0.06545293121
0.06543191934
0.06541238117
0.06539460242
0.06537871244
0.06536498298
0.06535479591
0.06509863784
0.06514316205
0.06518051219
0.06520986913
0.06523195872
0.06524802295
0.0652593398
0.06526703453
0.06527202842
0.06527504631
0.06527664609
0.06527725662
0.06527722814
0.06527692559
0.06502231618
0.06504437375
0.06506823168
0.06509220943
0.06511511901
0.06513622464
0.06515514707
0.06517176318
0.06518611976
0.06519836615
0.06520870223
0.06521732792
0.06522433791
0.06522930305
0.06499879467
0.06501328278
0.06503186613
0.065052999
0.06507512075
0.06509696362
0.06511764148
0.06513662114
0.06515364738
0.06516866194
0.06518173304
0.0651929975
0.06520260112
0.0652105703
0.06521631057
0.06502745316
0.06506225381
0.0650996467
0.06513482312
0.06516524852
0.06519013125
0.06520970258
0.0652246653
0.06523585735
0.0652440786
0.06525001862
0.06525423893
0.06525717979
0.06525916802
0.06526036831
0.06513424172
0.06523086012
0.06530876396
0.06536148192
0.06539178848
0.06540529046
0.06540743726
0.06540252936
0.06539362708
0.06538277131
0.06537125854
0.06535988252
0.06534914293
0.06533951763
0.06533221666
0.06549418009
0.06571254908
0.06580626883
0.0658182001
0.06578685759
0.06573690969
0.06568199347
0.06562885453
0.06558038892
0.06553750246
0.06550015174
0.06546790481
0.06544028141
0.06541719267
0.06540044094
0.06648597223
0.06664128565
0.06651066795
0.0663184071
0.06613657614
0.06598331586
0.06585899909
0.06575915222
0.06567878337
0.06561362505
0.06556033169
0.06551637948
0.06547997199
0.06545026476
0.06542903563
0.06549418226
0.0657125467
0.06580626542
0.06581819673
0.06578685451
0.06573690692
0.065681991
0.06562885231
0.06558038689
0.06553750059
0.06550015002
0.06546790322
0.06544027991
0.06541719126
0.06540043958
0.06523086534
0.06530876577
0.06536148171
0.06539178713
0.06540528849
0.06540743498
0.06540252694
0.06539362462
0.06538276887
0.06537125614
0.06535988018
0.06534914065
0.0653395154
0.06533221446
0.06506225554
0.06509964794
0.06513482366
0.06516524839
0.06519013055
0.06520970142
0.06522466379
0.06523585557
0.06524407662
0.0652500165
0.0652542367
0.06525717747
0.06525916564
0.06526036587
0.06501328334
0.06503186664
0.0650529993
0.06507512075
0.06509696326
0.06511764077
0.06513662009
0.06515364603
0.06516866032
0.06518173119
0.06519299545
0.06520259889
0.06521056793
0.06521630808
0.0649916025
0.06500042134
0.0650125537
0.06502741935
0.06504415026
0.06506183663
0.06507968186
0.06509707059
0.06511357717
0.06512894184
0.0651430335
0.06515580635
0.06516723583
0.0651771461
0.06518452604
0.0650043202
0.0650229997
0.06504587287
0.06507048324
0.06509475815
0.06511732477
0.06513747218
0.06515497877
0.06516992831
0.06518256442
0.06519319217
0.06520211628
0.06520959375
0.06521574037
0.06522015243
0.06504267633
0.06508821826
0.06513536874
0.06517752202
0.06521165088
0.06523730269
0.06525540635
0.06526741214
0.06527480201
0.06527886585
0.06528063329
0.06528088397
0.06528019495
0.06527902102
0.06527787454
0.06513424151
0.06523085914
0.06530876232
0.06536147985
0.06539178619
0.06540528812
0.06540743496
0.06540252715
0.06539362498
0.06538276933
0.06537125666
0.06535988074
0.06534914124
0.06533951602
0.0653322151
0.06527681922
0.06541438157
0.06549017837
0.06552137326
0.06552539001
0.06551443813
0.06549608776
0.06547475997
0.06545292955
0.06543191791
0.06541237991
0.06539460131
0.06537871144
0.06536498207
0.06535479508
0.06513424104
0.06523085827
0.06530876127
0.06536147868
0.06539178496
0.06540528687
0.06540743372
0.06540252593
0.06539362379
0.06538276817
0.06537125554
0.06535987965
0.06534914018
0.06533951498
0.06533221407
0.06504267782
0.06508821959
0.06513536952
0.06517752219
0.06521165051
0.0652373019
0.06525540526
0.06526741084
0.06527480056
0.0652788643
0.06528063167
0.06528088231
0.06528019327
0.0652790193
0.06527787282
0.06502300114
0.06504587389
0.06507048385
0.06509475834
0.06511732458
0.06513747164
0.06515497793
0.06516992721
0.06518256311
0.06519319068
0.06520211465
0.06520959198
0.06521573849
0.06522015047
0.06500042193
0.0650125543
0.06502741982
0.06504415054
0.06506183666
0.06507968162
0.06509707007
0.06511357638
0.06512894079
0.06514303222
0.06515580485
0.06516723413
0.06517714423
0.06518452402
0.06498674216
0.06499151457
0.06499850665
0.06500772745
0.06501893212
0.06503171273
0.06504559269
0.0650601003
0.06507481494
0.06508938903
0.06510355106
0.06511709059
0.06512980383
0.06514128883
0.06515009581
0.06499170206
0.06500055382
0.0650125735
0.06502709185
0.06504321467
0.06506006993
0.06507694088
0.06509330693
0.06510883061
0.06512332105
0.06513669216
0.06514891982
0.06515998065
0.0651696809
0.06517697177
0.0650043202
0.06502299965
0.06504587272
0.06507048299
0.06509475778
0.06511732429
0.06513747161
0.06515497812
0.06516992758
0.06518256364
0.06519319134
0.06520211543
0.06520959287
0.06521573947
0.06522015152
0.06502745314
0.06506225346
0.06509964596
0.06513482199
0.06516524705
0.06519012949
0.06520970062
0.0652246632
0.06523585515
0.06524407634
0.06525001634
0.06525423663
0.06525717749
0.06525916574
0.06526036602
0.06505117427
0.06509863614
0.06514315997
0.06518051005
0.06520986708
0.0652319568
0.06524802118
0.06525933818
0.06526703303
0.06527202703
0.06527504503
0.06527664491
0.06527725553
0.06527722712
0.06527692463
0.06502745293
0.06506225315
0.06509964556
0.06513482149
0.06516524646
0.06519012884
0.06520969991
0.06522466245
0.06523585438
0.06524407555
0.06525001553
0.06525423581
0.06525717666
0.0652591649
0.06526036518
0.06500432032
0.06502299977
0.06504587274
0.06507048282
0.06509475741
0.06511732373
0.06513747087
0.06515497723
0.06516992657
0.06518256252
0.06519319013
0.06520211415
0.06520959153
0.06521573808
0.06522015009
0.06499170239
0.06500055421
0.06501257386
0.06502709208
0.06504321474
0.06506006981
0.06507694055
0.0650933064
0.06510882988
0.06512332015
0.06513669108
0.06514891859
0.06515997928
0.06516967941
0.06517697018
0.064991515
0.06499850705
0.06500772779
0.06501893236
0.06503171284
0.06504559263
0.06506010005
0.0650748145
0.06508938837
0.0651035502
0.06511708953
0.06512980258
0.0651412874
0.06515009423
0.06498454589
0.06498743607
0.06499187996
0.06499809144
0.06500611775
0.0650158466
0.06502704182
0.06503939009
0.065052546
0.06506616777
0.06507993969
0.06509357487
0.06510677029
0.06511898775
0.06512851627
0.06498674217
0.06499151458
0.06499850665
0.06500772743
0.06501893207
0.06503171265
0.06504559257
0.06506010014
0.06507481475
0.06508938879
0.06510355078
0.06511709027
0.06512980347
0.06514128844
0.06515009537
0.06499160251
0.06500042132
0.06501255362
0.06502741918
0.06504414997
0.06506183621
0.06507968131
0.0650970699
0.06511357636
0.06512894091
0.06514303248
0.06515580524
0.06516723464
0.06517714485
0.06518452472
0.06499879464
0.0650132826
0.06503186573
0.06505299833
0.0650751198
0.06509696238
0.06511763998
0.0651366194
0.06515364544
0.06516865984
0.0651817308
0.06519299515
0.06520259868
0.0652105678
0.065216308
0.06500410052
0.06502231544
0.06504437272
0.06506823045
0.06509220809
0.06511511762
0.06513622324
0.06515514569
0.06517176184
0.06518611847
0.06519836491
0.06520870104
0.0652173268
0.06522433685
0.06522930203
0.06499879452
0.06501328241
0.06503186547
0.06505299799
0.06507511938
0.06509696189
0.06511763943
0.0651366188
0.0651536448
0.06516865916
0.06518173009
0.06519299442
0.06520259793
0.06521056703
0.06521630723
0.06499160247
0.06500042125
0.06501255349
0.06502741895
0.06504414962
0.06506183574
0.06507968071
0.06509706919
0.06511357553
0.06512893998
0.06514303145
0.06515580413
0.06516723346
0.0651771436
0.06518452343
0.06498674223
0.06499151467
0.06499850674
0.06500772748
0.06501893205
0.06503171252
0.06504559231
0.06506009974
0.06507481419
0.06508938808
0.06510354992
0.06511708927
0.06512980233
0.06514128717
0.065150094
0.064984546
0.06498743622
0.06499188014
0.06499809162
0.06500611789
0.06501584668
0.06502704179
0.06503938993
0.06505254569
0.0650661673
0.06507993904
0.06509357404
0.06510676928
0.06511898657
0.06512851495
)
;

boundaryField
{
    top
    {
        type            zeroGradient;
    }
    bottom
    {
        type            zeroGradient;
    }
    side-walls
    {
        type            zeroGradient;
    }
    inlet
    {
        type            zeroGradient;
    }
    outlet
    {
        type            zeroGradient;
    }
    procBoundary1to0
    {
        type            processor;
        value           nonuniform List<scalar> 
97
(
0.06498454603
0.06498454603
0.06498674227
0.06499160252
0.06499879448
0.06500410028
0.06499879433
0.06499160231
0.06498674207
0.06498454584
0.06498388602
0.06499170249
0.06499170249
0.06499170249
0.0650043205
0.06502745294
0.06505117352
0.06502745234
0.06500431975
0.06499170187
0.06498674207
0.06498611545
0.06499176628
0.06504267841
0.06504267841
0.06504267841
0.06513424209
0.06527681589
0.06513423875
0.06504267514
0.06500431976
0.06499160231
0.06498933444
0.06500158932
0.065043773
0.06549419489
0.06549419489
0.06549419489
0.06648595978
0.06549417365
0.06513423898
0.06502745239
0.06499879436
0.06499159482
0.06501069086
0.06508966145
0.06539622042
0.07450753246
0.07450753246
0.07450753246
0.06648596355
0.06648596355
0.06527681658
0.06505117358
0.06500410033
0.06498933439
0.06500158907
0.06504377234
0.06516422682
0.06539621969
0.0651642264
0.06513424479
0.06513424479
0.06513424479
0.06502745346
0.06499879462
0.06498611538
0.0649917661
0.06500808625
0.06504377239
0.06508966123
0.06504377219
0.06500808646
0.06500432093
0.06500432093
0.06500432093
0.06499160264
0.06498388596
0.06498614847
0.06499176612
0.06500158914
0.06501069079
0.06500158904
0.06499176612
0.06498614853
0.06498674237
0.06498674237
0.06498674237
0.06498286503
0.06498388597
0.0649861154
0.06498933441
0.06499159478
0.06498933435
0.06498611537
0.06498388598
0.06498286506
)
;
    }
}


// ************************************************************************* //
