/*--------------------------------*- C++ -*----------------------------------*\
| =========                 |                                                 |
| \\      /  F ield         | OpenFOAM: The Open Source CFD Toolbox           |
|  \\    /   O peration     | Version:  4.x                                   |
|   \\  /    A nd           | Web:      www.OpenFOAM.org                      |
|    \\/     M anipulation  |                                                 |
\*---------------------------------------------------------------------------*/
FoamFile
{
    version     2.0;
    format      ascii;
    class       volScalarField;
    location    "2000";
    object      Cpv;
}
// * * * * * * * * * * * * * * * * * * * * * * * * * * * * * * * * * * * * * //

dimensions      [0 2 -2 -1 0 0 0];

internalField   nonuniform List<scalar> 
1174
(
1277.532965
1277.53263
1277.532152
1277.531533
1277.530778
1277.529902
1277.528945
1277.527925
1277.526874
1277.525834
1277.524774
1277.52378
1277.522874
1277.522163
1277.532303
1277.53174
1277.531059
1277.530191
1277.529219
1277.528165
1277.527053
1277.525931
1277.52482
1277.52374
1277.52269
1277.521692
1277.520825
1277.520176
1277.531425
1277.530464
1277.529326
1277.528023
1277.526677
1277.525297
1277.523943
1277.522668
1277.521449
1277.520347
1277.519393
1277.518496
1277.517747
1277.517202
1277.530646
1277.529214
1277.527553
1277.525825
1277.52414
1277.522525
1277.52106
1277.519787
1277.518632
1277.517662
1277.516797
1277.516095
1277.515495
1277.515065
1277.529732
1277.528014
1277.526198
1277.524339
1277.52259
1277.520967
1277.519502
1277.518228
1277.517145
1277.516229
1277.515437
1277.514771
1277.514252
1277.513885
1277.530609
1277.529164
1277.527529
1277.525818
1277.524141
1277.522533
1277.521093
1277.519786
1277.518619
1277.517636
1277.516791
1277.516092
1277.515482
1277.515077
1277.53143
1277.530498
1277.529333
1277.528052
1277.526687
1277.525307
1277.523958
1277.5227
1277.521514
1277.52043
1277.519443
1277.518573
1277.517832
1277.517233
1277.532338
1277.53178
1277.531053
1277.530203
1277.52921
1277.528147
1277.526998
1277.525888
1277.524758
1277.523657
1277.522639
1277.521689
1277.5208
1277.520129
1277.532928
1277.532575
1277.532097
1277.531484
1277.530728
1277.529848
1277.528884
1277.527902
1277.526835
1277.525794
1277.524735
1277.523729
1277.522792
1277.522047
1277.532999
1277.532635
1277.532091
1277.531352
1277.530458
1277.529474
1277.528402
1277.527303
1277.526159
1277.525008
1277.523945
1277.52291
1277.521932
1277.521048
1277.520369
1277.531577
1277.530612
1277.529496
1277.528255
1277.526959
1277.525657
1277.524393
1277.523191
1277.522052
1277.521016
1277.520085
1277.51924
1277.518514
1277.517969
1277.530444
1277.528672
1277.526745
1277.524879
1277.523143
1277.521586
1277.520248
1277.519105
1277.518144
1277.517331
1277.51669
1277.516102
1277.515647
1277.51532
1277.52684
1277.523921
1277.521163
1277.51881
1277.516907
1277.515414
1277.51428
1277.513426
1277.512813
1277.512351
1277.512047
1277.511854
1277.511716
1277.511639
1277.52467
1277.521206
1277.518342
1277.516076
1277.514356
1277.513117
1277.512242
1277.511646
1277.511241
1277.511005
1277.510889
1277.510844
1277.510867
1277.510897
1277.526907
1277.523956
1277.52123
1277.518888
1277.516987
1277.515478
1277.514309
1277.513482
1277.512871
1277.51244
1277.512104
1277.511881
1277.511744
1277.511646
1277.529874
1277.52811
1277.526211
1277.524348
1277.522622
1277.521078
1277.519751
1277.518621
1277.517651
1277.516834
1277.516189
1277.515617
1277.515166
1277.514859
1277.531695
1277.530758
1277.529609
1277.528361
1277.527024
1277.525717
1277.524462
1277.523265
1277.522142
1277.521117
1277.52018
1277.519331
1277.518574
1277.518021
1277.532346
1277.531807
1277.531089
1277.530173
1277.529185
1277.528116
1277.527008
1277.525875
1277.524742
1277.52366
1277.522615
1277.521639
1277.52076
1277.520109
1277.532391
1277.53168
1277.530749
1277.529598
1277.528299
1277.526938
1277.525572
1277.524203
1277.522948
1277.521748
1277.52068
1277.519724
1277.518855
1277.518087
1277.517509
1277.531518
1277.530067
1277.528318
1277.526404
1277.524526
1277.522765
1277.521217
1277.51987
1277.518747
1277.517774
1277.516968
1277.516279
1277.51569
1277.515247
1277.514889
1277.525027
1277.521383
1277.518138
1277.515479
1277.513485
1277.512072
1277.511183
1277.510617
1277.510353
1277.510231
1277.510237
1277.510285
1277.510411
1277.51052
1277.513512
1277.507476
1277.503372
1277.501017
1277.499991
1277.499837
1277.500255
1277.500968
1277.501826
1277.502756
1277.503657
1277.504522
1277.505294
1277.505862
1277.499719
1277.493842
1277.491429
1277.491167
1277.492072
1277.493543
1277.495221
1277.496906
1277.49855
1277.500115
1277.501505
1277.502763
1277.503847
1277.504667
1277.513812
1277.507749
1277.503672
1277.501344
1277.500288
1277.500155
1277.50057
1277.501287
1277.502161
1277.503072
1277.503974
1277.504834
1277.5056
1277.50617
1277.523926
1277.520264
1277.516992
1277.514338
1277.512342
1277.510946
1277.510026
1277.509497
1277.50921
1277.509106
1277.509133
1277.509215
1277.509343
1277.509485
1277.530089
1277.528334
1277.526457
1277.524584
1277.52284
1277.521286
1277.519945
1277.518796
1277.517839
1277.517044
1277.516354
1277.515797
1277.515343
1277.514998
1277.531155
1277.530221
1277.529062
1277.52776
1277.526358
1277.524988
1277.52364
1277.522389
1277.521221
1277.520141
1277.519171
1277.518297
1277.517563
1277.516977
1277.531475
1277.530341
1277.528888
1277.527197
1277.525493
1277.523811
1277.522217
1277.520765
1277.519459
1277.518324
1277.517336
1277.51649
1277.515756
1277.515177
1277.51474
1277.529991
1277.527282
1277.524374
1277.521631
1277.519289
1277.517344
1277.515845
1277.51472
1277.513864
1277.513243
1277.512799
1277.512483
1277.512276
1277.512112
1277.512041
1277.521267
1277.51373
1277.507641
1277.503546
1277.501196
1277.50019
1277.500042
1277.500463
1277.501201
1277.502036
1277.502943
1277.503836
1277.5047
1277.505445
1277.506043
1277.476581
1277.469297
1277.46842
1277.470877
1277.474794
1277.479114
1277.483275
1277.487066
1277.490435
1277.493379
1277.495909
1277.498083
1277.499896
1277.501225
1277.400268
1277.410514
1277.425536
1277.439769
1277.451745
1277.461441
1277.46925
1277.475549
1277.480655
1277.484849
1277.488301
1277.491125
1277.493447
1277.495079
1277.475993
1277.46871
1277.467793
1277.470247
1277.474162
1277.478485
1277.482665
1277.486453
1277.489818
1277.492731
1277.495267
1277.497431
1277.499233
1277.500593
1277.514201
1277.508138
1277.504048
1277.50173
1277.500691
1277.500533
1277.500937
1277.501633
1277.502503
1277.503419
1277.504308
1277.505173
1277.505928
1277.506515
1277.526755
1277.523854
1277.52113
1277.518769
1277.51684
1277.515338
1277.514182
1277.513351
1277.512759
1277.512313
1277.512012
1277.511802
1277.511674
1277.511625
1277.530647
1277.529224
1277.527607
1277.525877
1277.524204
1277.522603
1277.521147
1277.519839
1277.518668
1277.517667
1277.516795
1277.516085
1277.515488
1277.515068
1277.531693
1277.530278
1277.528563
1277.526708
1277.524866
1277.523123
1277.521453
1277.519976
1277.518705
1277.517591
1277.516655
1277.515865
1277.515204
1277.514678
1277.514324
1277.527845
1277.524178
1277.520716
1277.51782
1277.515529
1277.513805
1277.51255
1277.511668
1277.511097
1277.510716
1277.510504
1277.510402
1277.510378
1277.510416
1277.510437
1277.510139
1277.49944
1277.49351
1277.491103
1277.490849
1277.491745
1277.493211
1277.494892
1277.496611
1277.498246
1277.499789
1277.501201
1277.502484
1277.503558
1277.504369
1277.412773
1277.400703
1277.410923
1277.425964
1277.440208
1277.452164
1277.46187
1277.469635
1277.475931
1277.481027
1277.485178
1277.488616
1277.491486
1277.493799
1277.495432
1275.075084
1275.234733
1275.321609
1275.371324
1275.401126
1275.419737
1275.431715
1275.439651
1275.444951
1275.448412
1275.450627
1275.451911
1275.452463
1275.452042
1277.400667
1277.410866
1277.425888
1277.440102
1277.452075
1277.461809
1277.469633
1277.475923
1277.481033
1277.485203
1277.488637
1277.491481
1277.493791
1277.495447
1277.499211
1277.493318
1277.490904
1277.490624
1277.491515
1277.492975
1277.49469
1277.496383
1277.498042
1277.499574
1277.50097
1277.502233
1277.503295
1277.504145
1277.523906
1277.520454
1277.517567
1277.51529
1277.513575
1277.512339
1277.511494
1277.510923
1277.510549
1277.510354
1277.510248
1277.510235
1277.510217
1277.510226
1277.529829
1277.528134
1277.526289
1277.524467
1277.522648
1277.521039
1277.519558
1277.518295
1277.517178
1277.516264
1277.515457
1277.514764
1277.514213
1277.513856
1277.532036
1277.530914
1277.529478
1277.52788
1277.526135
1277.524389
1277.522776
1277.521319
1277.520027
1277.518867
1277.517857
1277.516998
1277.516272
1277.515697
1277.51526
1277.528928
1277.526241
1277.523319
1277.520594
1277.518252
1277.516331
1277.514849
1277.513717
1277.51287
1277.512248
1277.511812
1277.511508
1277.511311
1277.511171
1277.511087
1277.521287
1277.513759
1277.507714
1277.503631
1277.501293
1277.500267
1277.500127
1277.500565
1277.501304
1277.502192
1277.503099
1277.503954
1277.504804
1277.505576
1277.506141
1277.493134
1277.476118
1277.468849
1277.467985
1277.470472
1277.474415
1277.478696
1277.482863
1277.486656
1277.489993
1277.492921
1277.49544
1277.497621
1277.499403
1277.500715
1277.41243
1277.400349
1277.410567
1277.42563
1277.439821
1277.451809
1277.461511
1277.469312
1277.475617
1277.480708
1277.484831
1277.488245
1277.491115
1277.49345
1277.49513
1277.493358
1277.476354
1277.469071
1277.468184
1277.470663
1277.474544
1277.478861
1277.483031
1277.486837
1277.490186
1277.493143
1277.495663
1277.497833
1277.499654
1277.50096
1277.513957
1277.507887
1277.503789
1277.501448
1277.500413
1277.500272
1277.500678
1277.50141
1277.502248
1277.503161
1277.50409
1277.50495
1277.505689
1277.506273
1277.527223
1277.52434
1277.521605
1277.519257
1277.517319
1277.515789
1277.514656
1277.513826
1277.513201
1277.512748
1277.512413
1277.512183
1277.512047
1277.511962
1277.530454
1277.529015
1277.527387
1277.525669
1277.523984
1277.522374
1277.520904
1277.519605
1277.518446
1277.517457
1277.516599
1277.515882
1277.515277
1277.514832
1277.531896
1277.531204
1277.530271
1277.529129
1277.527844
1277.526488
1277.52512
1277.523784
1277.52252
1277.521335
1277.520263
1277.519295
1277.518431
1277.517659
1277.517108
1277.531755
1277.530297
1277.528502
1277.526585
1277.524713
1277.522987
1277.521444
1277.520072
1277.518918
1277.517947
1277.517121
1277.516429
1277.51589
1277.515416
1277.515082
1277.52799
1277.524446
1277.520737
1277.517486
1277.514826
1277.512851
1277.511456
1277.510514
1277.509946
1277.509669
1277.509554
1277.509585
1277.509623
1277.509756
1277.509841
1277.521597
1277.514061
1277.508016
1277.503924
1277.501597
1277.500562
1277.500437
1277.500891
1277.501586
1277.502473
1277.503404
1277.504315
1277.505156
1277.505913
1277.506508
1277.510304
1277.499623
1277.493729
1277.491287
1277.491005
1277.491909
1277.493334
1277.495012
1277.496763
1277.498381
1277.49992
1277.50133
1277.502569
1277.503663
1277.504514
1277.521267
1277.513732
1277.507672
1277.503571
1277.501238
1277.500193
1277.500044
1277.500435
1277.501127
1277.501991
1277.502891
1277.503825
1277.504696
1277.50543
1277.506019
1277.528234
1277.524693
1277.521021
1277.517752
1277.515132
1277.513151
1277.511762
1277.51084
1277.510259
1277.509959
1277.509861
1277.50986
1277.509905
1277.50999
1277.510097
1277.530229
1277.528439
1277.526519
1277.524624
1277.522893
1277.521321
1277.519986
1277.518818
1277.517852
1277.517044
1277.516368
1277.515819
1277.515391
1277.515037
1277.53148
1277.530527
1277.529359
1277.528062
1277.526673
1277.525307
1277.523958
1277.522702
1277.521547
1277.520467
1277.519465
1277.518592
1277.517845
1277.517271
1277.532526
1277.532175
1277.531615
1277.530905
1277.53003
1277.529028
1277.527952
1277.526824
1277.525691
1277.524572
1277.523494
1277.522463
1277.521494
1277.520601
1277.519912
1277.531999
1277.531314
1277.530366
1277.529254
1277.528015
1277.526703
1277.525405
1277.524133
1277.522953
1277.521836
1277.520801
1277.519875
1277.519033
1277.518286
1277.517728
1277.531749
1277.53029
1277.528525
1277.526612
1277.52474
1277.522987
1277.521422
1277.520052
1277.518899
1277.517964
1277.517135
1277.51649
1277.515937
1277.515467
1277.515133
1277.529925
1277.527229
1277.524326
1277.521602
1277.519263
1277.517346
1277.515853
1277.514714
1277.51385
1277.513212
1277.512813
1277.512515
1277.512316
1277.512147
1277.512077
1277.527969
1277.524251
1277.520783
1277.517896
1277.51558
1277.513873
1277.512624
1277.511745
1277.511187
1277.510825
1277.510602
1277.51052
1277.510474
1277.510491
1277.510491
1277.529472
1277.526788
1277.523872
1277.521158
1277.518794
1277.51687
1277.515355
1277.514203
1277.513357
1277.512749
1277.512294
1277.511974
1277.51175
1277.511637
1277.51159
1277.530758
1277.529312
1277.527565
1277.525607
1277.523746
1277.521999
1277.520411
1277.519088
1277.517902
1277.516927
1277.516092
1277.515403
1277.514842
1277.514354
1277.51402
1277.532129
1277.531432
1277.530515
1277.529401
1277.52818
1277.526888
1277.525587
1277.524313
1277.523141
1277.522013
1277.520995
1277.520039
1277.519177
1277.51842
1277.517875
1277.532471
1277.531918
1277.531195
1277.530329
1277.529342
1277.528268
1277.527142
1277.525999
1277.524873
1277.523783
1277.522729
1277.521743
1277.520873
1277.5202
1277.532642
1277.532416
1277.532067
1277.531576
1277.530964
1277.530187
1277.52932
1277.528394
1277.527348
1277.526319
1277.525283
1277.524261
1277.52323
1277.522306
1277.521574
1277.532787
1277.532434
1277.531879
1277.531179
1277.53032
1277.529333
1277.52829
1277.527155
1277.526025
1277.5249
1277.523807
1277.522783
1277.521815
1277.520929
1277.520274
1277.53251
1277.531798
1277.53086
1277.529714
1277.528408
1277.527053
1277.525672
1277.524317
1277.523059
1277.521859
1277.520783
1277.519826
1277.518931
1277.518201
1277.517642
1277.53226
1277.531129
1277.529658
1277.528018
1277.526309
1277.524616
1277.523024
1277.521569
1277.520258
1277.519105
1277.518078
1277.517203
1277.516475
1277.515871
1277.515421
1277.531151
1277.529739
1277.528031
1277.526158
1277.524275
1277.522519
1277.520891
1277.519436
1277.518157
1277.517043
1277.516121
1277.515334
1277.514693
1277.514173
1277.513815
1277.531465
1277.530341
1277.52888
1277.527222
1277.525513
1277.523825
1277.522224
1277.520771
1277.519466
1277.518293
1277.517311
1277.516492
1277.515761
1277.515174
1277.514756
1277.531648
1277.530968
1277.530049
1277.528892
1277.527584
1277.526204
1277.524835
1277.523501
1277.522254
1277.521071
1277.519995
1277.519016
1277.518155
1277.517418
1277.516862
1277.532747
1277.532382
1277.53184
1277.531139
1277.530267
1277.529277
1277.528176
1277.527053
1277.525921
1277.524806
1277.523727
1277.522713
1277.521761
1277.520899
1277.520211
1277.532868
1277.532666
1277.532342
1277.531851
1277.531231
1277.530472
1277.529596
1277.528641
1277.527643
1277.526585
1277.525537
1277.524496
1277.523494
1277.52256
1277.521837
)
;

boundaryField
{
    top
    {
        type            calculated;
        value           nonuniform List<scalar> 
127
(
1277.532868
1277.532928
1277.532346
1277.531155
1277.530647
1277.529829
1277.530454
1277.53148
1277.532471
1277.532666
1277.532575
1277.531807
1277.530221
1277.529224
1277.528134
1277.529015
1277.530527
1277.531918
1277.532342
1277.532097
1277.531089
1277.529062
1277.527607
1277.526289
1277.527387
1277.529359
1277.531195
1277.531851
1277.531484
1277.530173
1277.52776
1277.525877
1277.524467
1277.525669
1277.528062
1277.530329
1277.531231
1277.530728
1277.529185
1277.526358
1277.524204
1277.522648
1277.523984
1277.526673
1277.529342
1277.530472
1277.529848
1277.528116
1277.524988
1277.522603
1277.521039
1277.522374
1277.525307
1277.528268
1277.529596
1277.528884
1277.527008
1277.52364
1277.521147
1277.519558
1277.520904
1277.523958
1277.527142
1277.528641
1277.527902
1277.525875
1277.522389
1277.519839
1277.518295
1277.519605
1277.522702
1277.525999
1277.527643
1277.526835
1277.524742
1277.521221
1277.518668
1277.517178
1277.518446
1277.521547
1277.524873
1277.526585
1277.525794
1277.52366
1277.520141
1277.517667
1277.516264
1277.517457
1277.520467
1277.523783
1277.525537
1277.524735
1277.522615
1277.519171
1277.516795
1277.515457
1277.516599
1277.519465
1277.522729
1277.524496
1277.523729
1277.521639
1277.518297
1277.516085
1277.514764
1277.515882
1277.518592
1277.521743
1277.523494
1277.522792
1277.52076
1277.517563
1277.515488
1277.514213
1277.515277
1277.517845
1277.520873
1277.52256
1277.522047
1277.520109
1277.516977
1277.515068
1277.513856
1277.514832
1277.517271
1277.5202
1277.521837
)
;
    }
    bottom
    {
        type            calculated;
        value           nonuniform List<scalar> 
134
(
1277.532999
1277.532391
1277.531475
1277.531693
1277.532036
1277.531896
1277.532526
1277.532642
1277.532965
1277.532635
1277.53168
1277.530341
1277.530278
1277.530914
1277.531204
1277.532175
1277.532416
1277.53263
1277.532091
1277.530749
1277.528888
1277.528563
1277.529478
1277.530271
1277.531615
1277.532067
1277.532152
1277.531352
1277.529598
1277.527197
1277.526708
1277.52788
1277.529129
1277.530905
1277.531576
1277.531533
1277.530458
1277.528299
1277.525493
1277.524866
1277.526135
1277.527844
1277.53003
1277.530964
1277.530778
1277.529474
1277.526938
1277.523811
1277.523123
1277.524389
1277.526488
1277.529028
1277.530187
1277.529902
1277.528402
1277.525572
1277.522217
1277.521453
1277.522776
1277.52512
1277.527952
1277.52932
1277.528945
1277.527303
1277.524203
1277.520765
1277.519976
1277.521319
1277.523784
1277.526824
1277.528394
1277.527925
1277.526159
1277.522948
1277.519459
1277.518705
1277.520027
1277.52252
1277.525691
1277.527348
1277.526874
1277.525008
1277.521748
1277.518324
1277.517591
1277.518867
1277.521335
1277.524572
1277.526319
1277.525834
1277.523945
1277.52068
1277.517336
1277.516655
1277.517857
1277.520263
1277.523494
1277.525283
1277.524774
1277.52291
1277.519724
1277.51649
1277.515865
1277.516998
1277.519295
1277.522463
1277.524261
1277.52378
1277.521932
1277.518855
1277.515756
1277.515204
1277.516272
1277.518431
1277.521494
1277.52323
1277.522874
1277.521048
1277.518087
1277.515177
1277.514678
1277.515697
1277.517659
1277.520601
1277.522306
1277.522163
1277.520369
1277.517509
1277.51474
1277.514324
1277.51526
1277.517108
1277.519912
1277.521574
)
;
    }
    side-walls
    {
        type            calculated;
        value           nonuniform List<scalar> 
261
(
1277.532965
1277.532303
1277.531425
1277.530646
1277.529732
1277.530609
1277.53143
1277.532338
1277.532928
1277.53263
1277.53174
1277.530464
1277.529214
1277.528014
1277.529164
1277.530498
1277.53178
1277.532575
1277.532152
1277.531059
1277.529326
1277.527553
1277.526198
1277.527529
1277.529333
1277.531053
1277.532097
1277.531533
1277.530191
1277.528023
1277.525825
1277.524339
1277.525818
1277.528052
1277.530203
1277.531484
1277.530778
1277.529219
1277.526677
1277.52414
1277.52259
1277.524141
1277.526687
1277.52921
1277.530728
1277.529902
1277.528165
1277.525297
1277.522525
1277.520967
1277.522533
1277.525307
1277.528147
1277.529848
1277.528945
1277.527053
1277.523943
1277.52106
1277.519502
1277.521093
1277.523958
1277.526998
1277.528884
1277.527925
1277.525931
1277.522668
1277.519787
1277.518228
1277.519786
1277.5227
1277.525888
1277.527902
1277.526874
1277.52482
1277.521449
1277.518632
1277.517145
1277.518619
1277.521514
1277.524758
1277.526835
1277.525834
1277.52374
1277.520347
1277.517662
1277.516229
1277.517636
1277.52043
1277.523657
1277.525794
1277.524774
1277.52269
1277.519393
1277.516797
1277.515437
1277.516791
1277.519443
1277.522639
1277.524735
1277.52378
1277.521692
1277.518496
1277.516095
1277.514771
1277.516092
1277.518573
1277.521689
1277.523729
1277.522874
1277.520825
1277.517747
1277.515495
1277.514252
1277.515482
1277.517832
1277.5208
1277.522792
1277.522163
1277.520176
1277.517202
1277.515065
1277.513885
1277.515077
1277.517233
1277.520129
1277.522047
1277.532642
1277.532787
1277.53251
1277.53226
1277.531151
1277.531465
1277.531648
1277.532747
1277.532868
1277.532416
1277.532434
1277.531798
1277.531129
1277.529739
1277.530341
1277.530968
1277.532382
1277.532666
1277.532067
1277.531879
1277.53086
1277.529658
1277.528031
1277.52888
1277.530049
1277.53184
1277.532342
1277.531576
1277.531179
1277.529714
1277.528018
1277.526158
1277.527222
1277.528892
1277.531139
1277.531851
1277.530964
1277.53032
1277.528408
1277.526309
1277.524275
1277.525513
1277.527584
1277.530267
1277.531231
1277.530187
1277.529333
1277.527053
1277.524616
1277.522519
1277.523825
1277.526204
1277.529277
1277.530472
1277.52932
1277.52829
1277.525672
1277.523024
1277.520891
1277.522224
1277.524835
1277.528176
1277.529596
1277.528394
1277.527155
1277.524317
1277.521569
1277.519436
1277.520771
1277.523501
1277.527053
1277.528641
1277.527348
1277.526025
1277.523059
1277.520258
1277.518157
1277.519466
1277.522254
1277.525921
1277.527643
1277.526319
1277.5249
1277.521859
1277.519105
1277.517043
1277.518293
1277.521071
1277.524806
1277.526585
1277.525283
1277.523807
1277.520783
1277.518078
1277.516121
1277.517311
1277.519995
1277.523727
1277.525537
1277.524261
1277.522783
1277.519826
1277.517203
1277.515334
1277.516492
1277.519016
1277.522713
1277.524496
1277.52323
1277.521815
1277.518931
1277.516475
1277.514693
1277.515761
1277.518155
1277.521761
1277.523494
1277.522306
1277.520929
1277.518201
1277.515871
1277.514173
1277.515174
1277.517418
1277.520899
1277.52256
1277.521574
1277.520274
1277.517642
1277.515421
1277.513815
1277.514756
1277.516862
1277.520211
1277.521837
)
;
    }
    inlet
    {
        type            calculated;
        value           nonuniform 0();
    }
    outlet
    {
        type            calculated;
        value           nonuniform List<scalar> 
81
(
1277.522163
1277.520176
1277.517202
1277.515065
1277.513885
1277.515077
1277.517233
1277.520129
1277.522047
1277.520369
1277.517969
1277.51532
1277.511639
1277.510897
1277.511646
1277.514859
1277.518021
1277.520109
1277.517509
1277.514889
1277.51052
1277.505862
1277.504667
1277.50617
1277.509485
1277.514998
1277.516977
1277.51474
1277.512041
1277.506043
1277.501225
1277.495079
1277.500593
1277.506515
1277.511625
1277.515068
1277.514324
1277.510437
1277.504369
1277.495432
1275.452042
1277.495447
1277.504145
1277.510226
1277.513856
1277.51526
1277.511087
1277.506141
1277.500715
1277.49513
1277.50096
1277.506273
1277.511962
1277.514832
1277.517108
1277.515082
1277.509841
1277.506508
1277.504514
1277.506019
1277.510097
1277.515037
1277.517271
1277.519912
1277.517728
1277.515133
1277.512077
1277.510491
1277.51159
1277.51402
1277.517875
1277.5202
1277.521574
1277.520274
1277.517642
1277.515421
1277.513815
1277.514756
1277.516862
1277.520211
1277.521837
)
;
    }
    procBoundary1to0
    {
        type            processor;
        value           nonuniform List<scalar> 
97
(
1277.533202
1277.533202
1277.532685
1277.532131
1277.53175
1277.531132
1277.531754
1277.532106
1277.532719
1277.533168
1277.533195
1277.532256
1277.532256
1277.532256
1277.531879
1277.529528
1277.528341
1277.529627
1277.531317
1277.532378
1277.532742
1277.532827
1277.532517
1277.528578
1277.528578
1277.528578
1277.521055
1277.510424
1277.521338
1277.527465
1277.531531
1277.531856
1277.532208
1277.53199
1277.528333
1277.493578
1277.493578
1277.493578
1277.41228
1277.492957
1277.521696
1277.529482
1277.531785
1277.53266
1277.531002
1277.524747
1277.501007
1274.764122
1274.764122
1274.764122
1277.412645
1277.412645
1277.509889
1277.527642
1277.531266
1277.532781
1277.530924
1277.528325
1277.518865
1277.500694
1277.519079
1277.521464
1277.521464
1277.521464
1277.529909
1277.531586
1277.53232
1277.53275
1277.530668
1277.528639
1277.524919
1277.528316
1277.530918
1277.531673
1277.531673
1277.531673
1277.532178
1277.532734
1277.532416
1277.532736
1277.531958
1277.531121
1277.531492
1277.531716
1277.532579
1277.532872
1277.532872
1277.532872
1277.532775
1277.533011
1277.532954
1277.532992
1277.532118
1277.532186
1277.532082
1277.532973
1277.532999
)
;
    }
}


// ************************************************************************* //
