/*--------------------------------*- C++ -*----------------------------------*\
| =========                 |                                                 |
| \\      /  F ield         | OpenFOAM: The Open Source CFD Toolbox           |
|  \\    /   O peration     | Version:  4.x                                   |
|   \\  /    A nd           | Web:      www.OpenFOAM.org                      |
|    \\/     M anipulation  |                                                 |
\*---------------------------------------------------------------------------*/
FoamFile
{
    version     2.0;
    format      ascii;
    class       volScalarField;
    location    "2000";
    object      H2;
}
// * * * * * * * * * * * * * * * * * * * * * * * * * * * * * * * * * * * * * //

dimensions      [0 0 0 0 0 0 0];

internalField   nonuniform List<scalar> 
1174
(
0.004463567358
0.00446338095
0.004463120467
0.004462783989
0.004462376294
0.004461907356
0.004461390372
0.004460839874
0.004460270225
0.004459694674
0.004459125242
0.004458574586
0.004458065107
0.004457667982
0.004463396041
0.004463102625
0.004462715809
0.004462245954
0.004461710261
0.004461128793
0.004460521388
0.004459905719
0.004459296372
0.004458704726
0.004458139576
0.004457609402
0.004457130876
0.004456764189
0.004463021815
0.004462512495
0.004461888671
0.004461186904
0.004460445472
0.00445969786
0.004458969911
0.004458279473
0.004457637414
0.004457049186
0.004456516654
0.004456040755
0.004455628656
0.004455322103
0.004462481248
0.004461700908
0.004460813919
0.004459885944
0.004458970278
0.004458104129
0.004457309845
0.004456598078
0.004455971202
0.004455426276
0.004454957479
0.004454558586
0.004454228265
0.00445399075
0.004462101438
0.004461175113
0.004460173706
0.004459167903
0.00445820762
0.004457323722
0.004456532069
0.004455837749
0.004455238711
0.004454728604
0.004454298951
0.004453941255
0.004453651316
0.004453446419
0.004462481256
0.004461700919
0.004460813934
0.004459885962
0.004458970299
0.004458104152
0.00445730987
0.004456598105
0.004455971231
0.004455426306
0.00445495751
0.004454558619
0.004454228298
0.004453990784
0.004463021827
0.004462512511
0.004461888693
0.004461186929
0.004460445502
0.004459697895
0.00445896995
0.004458279515
0.004457637459
0.004457049235
0.004456516706
0.00445604081
0.004455628713
0.004455322162
0.004463396052
0.004463102639
0.004462715826
0.004462245976
0.004461710286
0.004461128824
0.004460521424
0.00445990576
0.004459296419
0.004458704777
0.004458139633
0.004457609464
0.004457130942
0.004456764259
0.004463567366
0.004463380961
0.00446312048
0.004462784006
0.004462376315
0.004461907381
0.004461390403
0.004460839912
0.004460270268
0.004459694724
0.004459125298
0.004458574648
0.004458065176
0.004457668057
0.00446359636
0.004463396043
0.004463102627
0.004462715811
0.004462245956
0.004461710262
0.004461128795
0.00446052139
0.004459905721
0.004459296374
0.004458704728
0.004458139578
0.004457609404
0.004457130878
0.004456764191
0.004463016184
0.004462511572
0.004461902304
0.004461226038
0.004460519463
0.004459812706
0.004459127629
0.004458478377
0.004457872929
0.004457314854
0.004456805107
0.004456344585
0.004455941213
0.00445563833
0.004462072667
0.004461112024
0.004460078944
0.004459060595
0.004458114656
0.004457270939
0.004456538674
0.004455914251
0.004455387352
0.004454945087
0.004454574586
0.004454264963
0.004454011141
0.004453829362
0.004460422013
0.004458851184
0.004457374451
0.004456098295
0.004455055838
0.004454237185
0.004453612633
0.004453146833
0.004452806068
0.004452561282
0.004452388818
0.004452270098
0.004452191193
0.004452144475
0.004458891454
0.004457020979
0.00445545327
0.004454222538
0.004453298006
0.004452627235
0.004452156323
0.004451837841
0.004451632971
0.004451511186
0.004451448992
0.004451428298
0.004451434202
0.004451450668
0.004460422038
0.004458851216
0.004457374487
0.004456098333
0.004455055878
0.004454237226
0.004453612675
0.004453146875
0.00445280611
0.004452561324
0.00445238886
0.00445227014
0.004452191235
0.004452144517
0.004462072703
0.004461112066
0.004460078991
0.004459060646
0.004458114711
0.004457270999
0.004456538736
0.004455914315
0.004455387418
0.004454945155
0.004454574656
0.004454265033
0.004454011212
0.004453829434
0.004463016208
0.004462511597
0.004461902333
0.004461226073
0.004460519503
0.004459812753
0.004459127681
0.004458478435
0.004457872992
0.004457314922
0.00445680518
0.004456344662
0.004455941294
0.004455638414
0.004463396052
0.00446310264
0.004462715828
0.004462245979
0.004461710291
0.00446112883
0.004460521433
0.004459905771
0.004459296432
0.004458704793
0.00445813965
0.004457609482
0.004457130962
0.004456764281
0.004463392142
0.004463021819
0.004462512501
0.004461888679
0.004461186912
0.004460445481
0.00445969787
0.004458969921
0.004458279483
0.004457637424
0.004457049197
0.004456516664
0.004456040765
0.004455628666
0.004455322113
0.004462857478
0.004462072673
0.004461112032
0.004460078952
0.004459060604
0.004458114665
0.004457270949
0.004456538683
0.00445591426
0.004455387361
0.004454945096
0.004454574595
0.004454264971
0.004454011149
0.004453829369
0.004459330078
0.004457349172
0.00445557944
0.004454148016
0.004453073692
0.004452317174
0.004451817294
0.00445151161
0.004451345799
0.004451276521
0.004451270959
0.004451304803
0.004451358764
0.004451410628
0.004453329537
0.004450056272
0.004447843952
0.004446575172
0.004446013549
0.00444592952
0.004446142013
0.004446522227
0.00444698431
0.004447473751
0.004447957195
0.00444841363
0.004448822845
0.004449133361
0.004445606226
0.004442423113
0.004441117983
0.004440956607
0.004441424727
0.004442203621
0.004443107233
0.004444031484
0.004444920849
0.004445747855
0.004446500545
0.00444717351
0.004447755229
0.004448187028
0.004453329653
0.004450056386
0.004447844056
0.004446575268
0.004446013637
0.004445929603
0.00444614209
0.004446522299
0.004446984377
0.004447473815
0.004447957254
0.004448413687
0.004448822899
0.004449133414
0.004459330191
0.004457349271
0.004455579537
0.004454148114
0.004453073789
0.004452317271
0.004451817392
0.004451511706
0.004451345894
0.004451276613
0.00445127105
0.004451304892
0.004451358852
0.004451410716
0.004462072703
0.00446111207
0.004460078999
0.004459060659
0.004458114729
0.00445727102
0.004456538761
0.004455914344
0.00445538745
0.004454945189
0.004454574691
0.00445426507
0.00445401125
0.004453829473
0.004463021828
0.004462512515
0.0044618887
0.004461186942
0.00446044552
0.004459697919
0.00445896998
0.004458279552
0.0044576375
0.004457049281
0.004456516756
0.004456040863
0.004455628769
0.004455322222
0.004463089838
0.004462481256
0.004461700922
0.004460813935
0.004459885963
0.004458970298
0.00445810415
0.004457309867
0.0044565981
0.004455971224
0.004455426298
0.0044549575
0.004454558607
0.004454228285
0.004453990769
0.004461884647
0.004460422021
0.004458851202
0.004457374472
0.004456098316
0.00445505586
0.004454237206
0.004453612654
0.004453146855
0.004452806089
0.004452561302
0.004452388837
0.004452270117
0.004452191211
0.004452144492
0.004457391993
0.004453329551
0.004450056299
0.004447843979
0.004446575197
0.004446013573
0.004445929543
0.004446142034
0.004446522247
0.004446984328
0.004447473768
0.00444795721
0.004448413643
0.004448822857
0.004449133372
0.004433059197
0.004429124887
0.004428633232
0.004429961969
0.004432072475
0.004434390834
0.004436633337
0.004438678326
0.004440487886
0.004442064015
0.004443425019
0.004444591186
0.004445566214
0.004446273829
0.004393963129
0.004399478394
0.004407585715
0.004415250618
0.004421710193
0.004426949525
0.004431157531
0.004434544768
0.004437291165
0.004439537754
0.004441390904
0.004442926308
0.004444179476
0.004445075218
0.00443305966
0.004429125205
0.004428633474
0.004429962164
0.004432072636
0.004434390969
0.004436633453
0.004438678427
0.004440487976
0.004442064096
0.004443425093
0.004444591255
0.004445566278
0.004446273891
0.004453329652
0.004450056417
0.004447844109
0.004446575335
0.004446013713
0.004445929681
0.004446142169
0.004446522377
0.004446984453
0.004447473888
0.004447957325
0.004448413754
0.004448822964
0.004449133477
0.004460422042
0.004458851236
0.004457374523
0.004456098384
0.004455055942
0.004454237299
0.004453612755
0.004453146961
0.004452806199
0.004452561416
0.004452388953
0.004452270234
0.004452191329
0.004452144612
0.004462481257
0.004461700929
0.004460813953
0.004459885993
0.004458970341
0.004458104206
0.004457309935
0.00445659818
0.004455971313
0.004455426396
0.004454957606
0.004454558719
0.004454228403
0.004453990893
0.00446286672
0.00446210145
0.004461175133
0.004460173731
0.004459167931
0.004458207649
0.004457323753
0.004456532101
0.004455837781
0.004455238743
0.004454728635
0.004454298982
0.004453941285
0.004453651345
0.004453446448
0.004460886637
0.004458891481
0.004457021025
0.004455453321
0.004454222589
0.004453298056
0.004452627282
0.004452156367
0.004451837882
0.00445163301
0.004451511223
0.004451449026
0.004451428331
0.004451434233
0.004451450697
0.004451390995
0.004445606243
0.004442423194
0.004441118063
0.004440956678
0.004441424789
0.004442203675
0.004443107282
0.004444031526
0.004444920887
0.004445747888
0.004446500575
0.004447173538
0.004447755254
0.004448187052
0.004400485237
0.004393963336
0.004399478559
0.00440758584
0.004415250717
0.004421710271
0.004426949587
0.004431157582
0.00443454481
0.004437291202
0.004439537784
0.00444139093
0.00444292633
0.004444179496
0.004445075236
0.004227452928
0.00431324933
0.004360503257
0.004388055743
0.004405073613
0.004416186169
0.004423822947
0.004429311601
0.004433408371
0.004436562242
0.004439050016
0.004441044406
0.004442634267
0.004443754666
0.004393963135
0.004399478823
0.004407586116
0.004415250945
0.004421710458
0.004426949744
0.004431157715
0.004434544926
0.004437291304
0.004439537876
0.004441391014
0.004442926407
0.004444179567
0.004445075304
0.004445606241
0.004442423272
0.004441118187
0.004440956823
0.004441424941
0.004442203826
0.004443107429
0.004444031668
0.004444921022
0.004445748017
0.004446500698
0.004447173655
0.004447755368
0.004448187162
0.004458891468
0.004457021035
0.004455453358
0.004454222649
0.004453298135
0.004452627375
0.004452156471
0.004451837993
0.004451633125
0.004451511342
0.004451449148
0.004451428453
0.004451434357
0.004451450822
0.004462101442
0.004461175131
0.004460173741
0.004459167957
0.004458207691
0.00445732381
0.004456532172
0.004455837865
0.004455238838
0.004454728739
0.004454299094
0.004453941404
0.004453651469
0.004453446577
0.004463089844
0.004462481269
0.004461700941
0.00446081396
0.004459885992
0.004458970332
0.004458104188
0.004457309907
0.004456598143
0.004455971268
0.004455426344
0.004454957547
0.004454558655
0.004454228334
0.004453990819
0.004461884679
0.004460422073
0.004458851266
0.004457374542
0.00445609839
0.004455055934
0.00445423728
0.004453612727
0.004453146925
0.004452806157
0.004452561369
0.004452388902
0.00445227018
0.004452191273
0.004452144554
0.00445739216
0.004453329724
0.004450056486
0.004447844155
0.004446575358
0.004446013719
0.004445929676
0.004446142155
0.004446522358
0.004446984431
0.004447473863
0.004447957299
0.004448413727
0.004448822937
0.004449133449
0.004442243354
0.004433059851
0.004429125412
0.004428633646
0.004429962303
0.004432072749
0.004434391062
0.00443663353
0.004438678493
0.004440488032
0.004442064144
0.004443425135
0.004444591292
0.004445566312
0.004446273922
0.004400485381
0.004393963531
0.004399479086
0.004407586288
0.004415251062
0.004421710542
0.004426949805
0.004431157762
0.004434544964
0.004437291335
0.004439537902
0.004441391035
0.004442926426
0.004444179584
0.004445075319
0.004442243267
0.004433059917
0.004429125528
0.004428633775
0.004429962431
0.004432072869
0.004434391173
0.004436633633
0.004438678588
0.00444048812
0.004442064226
0.004443425211
0.004444591364
0.00444556638
0.004446273987
0.004453329535
0.004450056424
0.004447844172
0.004446575422
0.00444601381
0.004445929781
0.004446142268
0.004446522473
0.004446984545
0.004447473976
0.004447957409
0.004448413835
0.004448823042
0.004449133553
0.004460422006
0.004458851221
0.004457374526
0.004456098401
0.00445505597
0.004454237336
0.004453612799
0.004453147009
0.00445280625
0.004452561469
0.004452389007
0.004452270289
0.004452191385
0.004452144669
0.004462481247
0.004461700921
0.00446081395
0.004459885996
0.004458970352
0.004458104223
0.004457309958
0.004456598208
0.004455971346
0.004455426432
0.004454957645
0.004454558761
0.004454228447
0.004453990938
0.004463392151
0.004463021836
0.004462512526
0.004461888712
0.004461186953
0.004460445529
0.004459697925
0.004458969982
0.00445827955
0.004457637495
0.004457049272
0.004456516743
0.004456040846
0.004455628749
0.004455322199
0.004462857511
0.004462072721
0.004461112093
0.004460079023
0.004459060682
0.00445811475
0.004457271039
0.004456538777
0.004455914357
0.00445538746
0.004454945197
0.004454574696
0.004454265073
0.004454011251
0.004453829472
0.004461244476
0.004459330233
0.004457349331
0.004455579601
0.004454148179
0.004453073853
0.004452317333
0.004451817451
0.004451511762
0.004451345947
0.004451276663
0.004451271097
0.004451304937
0.004451358894
0.004451410756
0.004457392165
0.004453329756
0.004450056543
0.004447844231
0.004446575445
0.00444601381
0.004445929767
0.004446142245
0.004446522444
0.004446984513
0.004447473942
0.004447957374
0.004448413799
0.004448823006
0.004449133516
0.004451391044
0.004445606428
0.00444242345
0.004441118338
0.004440956948
0.004441425044
0.004442203911
0.0044431075
0.004444031729
0.004444921074
0.004445748063
0.004446500739
0.004447173692
0.004447755401
0.004448187193
0.004457392181
0.004453329788
0.004450056585
0.004447844281
0.004446575501
0.00444601387
0.004445929828
0.004446142305
0.004446522503
0.004446984571
0.004447473998
0.004447957429
0.004448413852
0.004448823058
0.004449133567
0.004461244424
0.004459330187
0.004457349307
0.004455579603
0.004454148204
0.004453073897
0.00445231739
0.004451817517
0.004451511835
0.004451346024
0.004451276743
0.004451271179
0.00445130502
0.004451358978
0.004451410841
0.00446207267
0.004461112058
0.004460079005
0.004459060682
0.004458114766
0.004457271071
0.004456538822
0.004455914413
0.004455387526
0.004454945271
0.004454574777
0.004454265159
0.004454011342
0.004453829567
0.004463021814
0.004462512505
0.004461888697
0.004461186947
0.004460445534
0.004459697942
0.004458970012
0.004458279592
0.004457637549
0.004457049337
0.004456516818
0.004456040931
0.004455628842
0.004455322299
0.004463596369
0.004463396058
0.004463102649
0.00446271584
0.004462245992
0.004461710307
0.004461128847
0.004460521451
0.004459905789
0.00445929645
0.004458704811
0.004458139667
0.004457609499
0.004457130978
0.004456764295
0.004463387939
0.004463016218
0.004462511613
0.004461902353
0.004461226096
0.00446051953
0.004459812783
0.004459127713
0.004458478469
0.004457873027
0.004457314958
0.004456805217
0.004456344699
0.00445594133
0.004455638451
0.004462857511
0.004462072722
0.004461112098
0.004460079032
0.004459060696
0.004458114768
0.004457271061
0.004456538803
0.004455914386
0.004455387492
0.00445494523
0.004454574732
0.00445426511
0.004454011289
0.00445382951
0.004461884677
0.004460422082
0.004458851291
0.004457374583
0.004456098445
0.004455056002
0.004454237357
0.004453612811
0.004453147014
0.00445280625
0.004452561464
0.004452388999
0.004452270277
0.004452191371
0.004452144651
0.004460886653
0.004458891534
0.004457021113
0.004455453437
0.004454222724
0.004453298205
0.00445262744
0.004452156531
0.004451838048
0.004451633176
0.004451511389
0.004451449191
0.004451428493
0.004451434394
0.004451450857
0.004461884685
0.004460422095
0.004458851309
0.004457374606
0.004456098473
0.004455056034
0.004454237392
0.004453612848
0.004453147053
0.00445280629
0.004452561505
0.00445238904
0.004452270319
0.004452191413
0.004452144694
0.004462857508
0.00446207272
0.004461112101
0.004460079044
0.004459060717
0.004458114798
0.0044572711
0.004456538849
0.004455914438
0.004455387548
0.004454945291
0.004454574796
0.004454265176
0.004454011358
0.004453829581
0.004463387928
0.004463016205
0.004462511602
0.004461902348
0.004461226099
0.004460519541
0.004459812803
0.004459127743
0.004458478508
0.004457873075
0.004457315013
0.004456805279
0.004456344768
0.004455941405
0.00445563853
0.004463396042
0.004463102635
0.004462715829
0.004462245986
0.004461710307
0.004461128856
0.004460521468
0.004459905816
0.004459296487
0.004458704857
0.004458139723
0.004457609564
0.004457131051
0.004456764376
0.004463688624
0.00446356737
0.004463380967
0.00446312049
0.004462784018
0.004462376331
0.004461907401
0.004461390426
0.004460839937
0.004460270296
0.004459694754
0.004459125331
0.004458574682
0.004458065211
0.004457668092
0.004463596369
0.004463396057
0.004463102648
0.00446271584
0.004462245994
0.004461710309
0.004461128851
0.004460521457
0.004459905797
0.00445929646
0.004458704822
0.004458139681
0.004457609515
0.004457130995
0.004456764314
0.00446339215
0.004463021836
0.004462512528
0.004461888718
0.004461186963
0.004460445544
0.004459697946
0.004458970009
0.004458279582
0.004457637532
0.004457049314
0.004456516789
0.004456040897
0.004455628803
0.004455322256
0.004463089844
0.004462481274
0.004461700954
0.004460813984
0.004459886028
0.004458970379
0.004458104246
0.004457309977
0.004456598222
0.004455971355
0.004455426437
0.004454957646
0.004454558758
0.004454228441
0.00445399093
0.004462866727
0.004462101471
0.00446117517
0.004460173787
0.004459168006
0.004458207742
0.004457323862
0.004456532223
0.004455837914
0.004455238885
0.004454728784
0.004454299137
0.004453941444
0.004453651508
0.004453446614
0.004463089849
0.004462481282
0.004461700966
0.004460813999
0.004459886047
0.004458970403
0.004458104273
0.004457310006
0.004456598254
0.004455971389
0.004455426473
0.004454957683
0.004454558796
0.00445422848
0.004453990969
0.004463392152
0.004463021841
0.004462512536
0.00446188873
0.004461186981
0.004460445569
0.004459697976
0.004458970045
0.004458279624
0.00445763758
0.004457049366
0.004456516845
0.004456040956
0.004455628866
0.004455322321
0.004463596367
0.004463396055
0.004463102646
0.00446271584
0.004462245998
0.004461710319
0.004461128868
0.00446052148
0.004459905828
0.004459296498
0.004458704868
0.004458139733
0.004457609573
0.00445713106
0.004456764385
0.004463688621
0.004463567365
0.004463380961
0.004463120485
0.004462784016
0.004462376332
0.004461907407
0.004461390439
0.004460839958
0.004460270325
0.004459694791
0.004459125376
0.004458574737
0.004458065274
0.004457668163
)
;

boundaryField
{
    top
    {
        type            zeroGradient;
    }
    bottom
    {
        type            zeroGradient;
    }
    side-walls
    {
        type            zeroGradient;
    }
    inlet
    {
        type            zeroGradient;
    }
    outlet
    {
        type            zeroGradient;
    }
    procBoundary1to0
    {
        type            processor;
        value           nonuniform List<scalar> 
97
(
0.00446368862
0.00446368862
0.004463596366
0.004463392151
0.004463089852
0.004462866738
0.004463089857
0.004463392158
0.004463596373
0.004463688626
0.004463716265
0.004463387924
0.004463387924
0.004463387924
0.004462857502
0.00446188469
0.004460886688
0.004461884711
0.004462857529
0.004463387946
0.004463596373
0.004463622595
0.004463385057
0.004461244406
0.004461244406
0.004461244406
0.004457392164
0.004451391219
0.004457392281
0.004461244524
0.004462857529
0.004463392158
0.004463487301
0.004462971996
0.004461197575
0.004442242901
0.004442242901
0.004442242901
0.004400486267
0.004442243669
0.004457392272
0.004461884709
0.004463089856
0.004463392259
0.004462589112
0.004459266422
0.004446362895
0.004062669785
0.004062669785
0.004062669785
0.004400486114
0.004400486114
0.004451391193
0.004460886687
0.004462866736
0.004463487302
0.004462972003
0.00446119759
0.004456128794
0.0044463629
0.004456128821
0.004457392055
0.004457392055
0.004457392055
0.00446188467
0.004463089847
0.004463622598
0.004463385061
0.00446269879
0.004461197587
0.004459266426
0.004461197597
0.004462698785
0.004462857486
0.004462857486
0.004462857486
0.004463392146
0.004463716267
0.004463621194
0.004463385061
0.004462972
0.004462589114
0.004462972004
0.004463385062
0.004463621193
0.004463596362
0.004463596362
0.004463596362
0.00446375915
0.004463716267
0.004463622597
0.004463487301
0.00446339226
0.004463487304
0.004463622598
0.004463716267
0.004463759149
)
;
    }
}


// ************************************************************************* //
