/*--------------------------------*- C++ -*----------------------------------*\
| =========                 |                                                 |
| \\      /  F ield         | OpenFOAM: The Open Source CFD Toolbox           |
|  \\    /   O peration     | Version:  4.x                                   |
|   \\  /    A nd           | Web:      www.OpenFOAM.org                      |
|    \\/     M anipulation  |                                                 |
\*---------------------------------------------------------------------------*/
FoamFile
{
    version     2.0;
    format      ascii;
    class       volScalarField;
    location    "2000";
    object      H2O;
}
// * * * * * * * * * * * * * * * * * * * * * * * * * * * * * * * * * * * * * //

dimensions      [0 0 0 0 0 0 0];

internalField   nonuniform List<scalar> 
1174
(
1.211652403e-05
1.365816726e-05
1.581242771e-05
1.859520711e-05
2.196702792e-05
2.584543527e-05
3.012131017e-05
3.467451233e-05
3.93862806e-05
4.414702736e-05
4.885735558e-05
5.341256011e-05
5.762729717e-05
6.091265474e-05
1.353341124e-05
1.595995736e-05
1.915892427e-05
2.304467791e-05
2.747502238e-05
3.228407669e-05
3.730780385e-05
4.240008156e-05
4.744027924e-05
5.233430339e-05
5.700938624e-05
6.139536398e-05
6.535426746e-05
6.838796088e-05
1.662822264e-05
2.084007268e-05
2.59988712e-05
3.180237083e-05
3.793407691e-05
4.411712574e-05
5.013783266e-05
5.584858115e-05
6.115950115e-05
6.602546149e-05
7.043101483e-05
7.436835932e-05
7.77780952e-05
8.031460122e-05
2.109827343e-05
2.755105467e-05
3.488591431e-05
4.255994564e-05
5.013248893e-05
5.729587852e-05
6.386527931e-05
6.975259715e-05
7.493815765e-05
7.944623305e-05
8.332491294e-05
8.66256159e-05
8.935923578e-05
9.132490401e-05
2.423867027e-05
3.189847398e-05
4.017940854e-05
4.849700958e-05
5.643854189e-05
6.374875739e-05
7.029647769e-05
7.603959485e-05
8.099500076e-05
8.521521143e-05
8.877025787e-05
9.173033545e-05
9.413005636e-05
9.582601727e-05
2.109812811e-05
2.755084284e-05
3.48856185e-05
4.255954824e-05
5.013196473e-05
5.729521658e-05
6.386448567e-05
6.975166111e-05
7.493708393e-05
7.944503496e-05
8.332360166e-05
8.662421011e-05
8.935772699e-05
9.132331783e-05
1.662799744e-05
2.083977592e-05
2.599848097e-05
3.180184412e-05
3.793338318e-05
4.411623118e-05
5.013671289e-05
5.584723259e-05
6.115790917e-05
6.602362866e-05
7.042895476e-05
7.436608456e-05
7.777562133e-05
8.031194397e-05
1.353321002e-05
1.595971892e-05
1.915862448e-05
2.304427465e-05
2.74744681e-05
3.228331868e-05
3.730680755e-05
4.239881122e-05
4.743870968e-05
5.233242198e-05
5.700718278e-05
6.139284755e-05
6.535144503e-05
6.838485868e-05
1.211637771e-05
1.365801575e-05
1.581224683e-05
1.859495305e-05
2.196664451e-05
2.58448749e-05
3.012051752e-05
3.467343096e-05
3.938486979e-05
4.414526821e-05
4.885521506e-05
5.341002667e-05
5.762436806e-05
6.090932488e-05
1.187660412e-05
1.353326417e-05
1.595981691e-05
1.915878732e-05
2.304454469e-05
2.747489544e-05
3.228394359e-05
3.73076751e-05
4.239995967e-05
4.744015811e-05
5.23341786e-05
5.700926272e-05
6.139524436e-05
6.535414421e-05
6.838783834e-05
1.667489705e-05
2.084773121e-05
2.588613214e-05
3.147875143e-05
3.732224127e-05
4.316747067e-05
4.883368131e-05
5.420387143e-05
5.921205933e-05
6.382868258e-05
6.804581909e-05
7.18560073e-05
7.519356836e-05
7.769966259e-05
2.447726145e-05
3.24207851e-05
4.096356164e-05
4.938487273e-05
5.720779678e-05
6.418579923e-05
7.024250302e-05
7.540770609e-05
7.976666619e-05
8.342592235e-05
8.649187654e-05
8.905448262e-05
9.115555565e-05
9.266029027e-05
3.812582507e-05
5.111446117e-05
6.332562469e-05
7.387884362e-05
8.25001541e-05
8.927127496e-05
9.443769182e-05
9.829162012e-05
0.0001011118051
0.0001031384143
0.0001045670474
0.0001055512628
0.0001062060642
0.0001065940433
5.077987039e-05
6.624601355e-05
7.920958687e-05
8.93875244e-05
9.703406642e-05
0.0001025826842
0.0001064789524
0.0001091149472
0.0001108115969
0.0001118212586
0.0001123381883
0.000112511908
0.0001124655015
0.0001123310075
3.812525661e-05
5.111377983e-05
6.332480662e-05
7.387785626e-05
8.249898611e-05
8.926993495e-05
9.443621326e-05
9.82900099e-05
0.000101110064
0.0001031365818
0.0001045651332
0.0001055492873
0.0001062040409
0.0001065919578
2.447656106e-05
3.24200169e-05
4.096265443e-05
4.938375337e-05
5.720641206e-05
6.41841229e-05
7.024053865e-05
7.540545434e-05
7.976416095e-05
8.3423197e-05
8.64889467e-05
8.905136273e-05
9.1152261e-05
9.265684866e-05
1.667446468e-05
2.084731792e-05
2.588562685e-05
3.14780611e-05
3.732128961e-05
4.316619999e-05
4.883206806e-05
5.420189576e-05
5.920971112e-05
6.382598041e-05
6.804277335e-05
7.185262873e-05
7.518989872e-05
7.769570546e-05
1.353322437e-05
1.595971739e-05
1.915858924e-05
2.304418626e-05
2.747430793e-05
3.22830595e-05
3.730643336e-05
4.2398316e-05
4.743808542e-05
5.233167152e-05
5.700631108e-05
6.139185737e-05
6.535033361e-05
6.838358541e-05
1.356544299e-05
1.662786312e-05
2.083968983e-05
2.599847289e-05
3.180196217e-05
3.79336657e-05
4.411670855e-05
5.013741846e-05
5.584817822e-05
6.115910105e-05
6.602505815e-05
7.043061925e-05
7.436797346e-05
7.777773386e-05
8.031424662e-05
1.798729866e-05
2.447677284e-05
3.242035255e-05
4.096316213e-05
4.938449606e-05
5.720743942e-05
6.418544992e-05
7.024217416e-05
7.540738259e-05
7.976636036e-05
8.34256321e-05
8.649159737e-05
8.90542039e-05
9.115528886e-05
9.266003611e-05
4.715565083e-05
6.353431325e-05
7.816783301e-05
9.000483118e-05
9.888975584e-05
0.0001051472902
0.0001092830474
0.0001118132381
0.0001131869419
0.000113762476
0.0001138111431
0.0001135339363
0.0001130901616
0.0001126630095
9.676863874e-05
0.0001238321606
0.0001421253628
0.0001526183353
0.0001572649535
0.0001579629844
0.0001562093411
0.0001530688664
0.0001492513875
0.0001452075473
0.0001412131615
0.0001374419195
0.0001340608234
0.0001314949984
0.0001606176852
0.0001869370347
0.0001977314752
0.0001990699543
0.0001952037669
0.0001887679055
0.0001813006072
0.0001736624013
0.0001663123516
0.0001594776448
0.0001532572151
0.000147695753
0.0001428883995
0.000139319734
9.676603492e-05
0.0001238296642
0.0001421227977
0.0001526156122
0.0001572620933
0.0001579599892
0.0001562062877
0.0001530657943
0.0001492483195
0.0001452045195
0.0001412101893
0.000137438992
0.0001340579502
0.0001314921023
4.715353949e-05
6.35324749e-05
7.816579789e-05
9.000237524e-05
9.888684557e-05
0.0001051439671
0.0001092793609
0.0001118092738
0.0001131827649
0.0001137581607
0.0001138067237
0.0001135294283
0.0001130855907
0.0001126583263
2.447659088e-05
3.241993203e-05
4.096238292e-05
4.938325635e-05
5.720567306e-05
6.418314269e-05
7.023934076e-05
7.540407163e-05
7.976261553e-05
8.34214976e-05
8.648712698e-05
8.904944079e-05
9.115026222e-05
9.265477388e-05
1.662803517e-05
2.083972929e-05
2.59982772e-05
3.180142325e-05
3.793269075e-05
4.411522508e-05
5.013537997e-05
5.584557269e-05
6.115593641e-05
6.60213601e-05
7.042641256e-05
7.436328736e-05
7.777259318e-05
8.030864163e-05
1.606528546e-05
2.109767159e-05
2.755037588e-05
3.488518868e-05
4.2559181e-05
5.013170126e-05
5.729507656e-05
6.386448734e-05
6.975181595e-05
7.493738353e-05
7.944546759e-05
8.332417478e-05
8.662490272e-05
8.935855185e-05
9.132426303e-05
2.603109283e-05
3.812476217e-05
5.11134232e-05
6.332463571e-05
7.387788713e-05
8.249923773e-05
8.927040726e-05
9.443687828e-05
9.829083784e-05
0.0001011110495
0.0001031377072
0.0001045663641
0.0001055506159
0.0001062054682
0.0001065934683
6.317978954e-05
9.676663583e-05
0.0001238306533
0.0001421241363
0.0001526172826
0.0001572640559
0.0001579621908
0.0001562086451
0.000153068241
0.0001492508182
0.0001452070357
0.0001412126869
0.0001374414858
0.0001340604426
0.0001314946182
0.0002643578545
0.0002968842968
0.0003009527782
0.000289972057
0.0002725278709
0.0002533648353
0.0002348284441
0.0002179245769
0.00020296674
0.0001899385531
0.000178688687
0.0001690494524
0.0001609901817
0.0001551410253
0.0005875550237
0.0005419689697
0.000474953434
0.0004115931735
0.0003581957397
0.000314885094
0.000280099731
0.0002520993194
0.0002293964295
0.0002108253102
0.0001955066757
0.0001828147542
0.0001724559062
0.0001650513402
0.0002643481567
0.0002968772767
0.0003009463933
0.0002899658694
0.0002725218659
0.0002533590976
0.0002348229994
0.00021791945
0.0002029619203
0.0001899340314
0.0001786844188
0.0001690454253
0.0001609863575
0.0001551372909
9.67662355e-05
0.0001238287959
0.0001421208699
0.0001526128807
0.0001572587901
0.0001579563667
0.0001562024952
0.0001530619484
0.0001492444651
0.0001452007244
0.0001412064701
0.0001374353757
0.0001340544247
0.0001314886464
3.812535966e-05
5.111331168e-05
6.332360595e-05
7.387588574e-05
8.249631387e-05
8.926667615e-05
9.443244531e-05
9.828585446e-05
0.0001011056193
0.0001031319111
0.0001045603041
0.0001055443185
0.0001061989935
0.0001065867996
2.109821395e-05
2.755067771e-05
3.488503702e-05
4.255842265e-05
5.013022125e-05
5.72928362e-05
6.386148118e-05
6.974807166e-05
7.493296823e-05
7.944044221e-05
8.331860321e-05
8.661884532e-05
8.935203607e-05
9.131726954e-05
1.791014437e-05
2.423794721e-05
3.189761761e-05
4.017844804e-05
4.849597158e-05
5.64374546e-05
6.374765055e-05
7.02953574e-05
7.603847849e-05
8.099391219e-05
8.521414657e-05
8.87692085e-05
9.1729324e-05
9.412907172e-05
9.58250371e-05
3.42822197e-05
5.077837907e-05
6.624439434e-05
7.920793949e-05
8.938589892e-05
9.703249503e-05
0.0001025812024
0.0001064775602
0.0001091136317
0.0001108103528
0.0001118200966
0.0001123370873
0.0001125108638
0.0001124644977
0.0001123300619
0.0001127887989
0.0001606144425
0.000186933887
0.0001977286607
0.0001990675011
0.0001952016356
0.0001887660699
0.0001812989967
0.0001736609743
0.0001663110823
0.000159476541
0.000153256213
0.0001476948251
0.0001428875496
0.00013931896
0.0005336287389
0.0005875453242
0.0005419628472
0.0004749492503
0.0004115901117
0.0003581934589
0.0003148833044
0.0002800983206
0.0002520981305
0.0002293954497
0.0002108244977
0.0001955059821
0.0001828141363
0.0001724553597
0.0001650508229
0.001964039236
0.001254798156
0.0008641714959
0.0006364075111
0.0004957281426
0.0004038653621
0.0003407352825
0.0002953628363
0.0002614965888
0.0002354250274
0.0002148599203
0.0001983734985
0.0001852310984
0.0001759691586
0.0005875552449
0.0005419591582
0.0004749411129
0.0004115810278
0.0003581846745
0.0003148751743
0.0002800909692
0.0002520914682
0.0002293893883
0.0002108189227
0.0001955008199
0.0001828093791
0.0001724509028
0.0001650465364
0.0001606182889
0.0001869331336
0.000197724568
0.0001990613471
0.0001951943796
0.0001887582698
0.0001812910234
0.0001736530423
0.0001663033266
0.0001594689668
0.0001532488821
0.000147687727
0.0001428806559
0.0001393121511
5.078010892e-05
6.624479422e-05
7.920678937e-05
8.938331051e-05
9.702871804e-05
0.000102576429
0.0001064720224
0.0001091075417
0.0001108038447
0.0001118132651
0.0001123300298
0.0001125036587
0.0001124571861
0.0001123226038
2.423882549e-05
3.18981284e-05
4.01783036e-05
4.849500218e-05
5.643557854e-05
6.374483232e-05
7.029166673e-05
7.603396315e-05
8.098866173e-05
8.520824851e-05
8.876276073e-05
9.172238789e-05
9.412170352e-05
9.581722462e-05
1.606522386e-05
2.109747508e-05
2.755002374e-05
3.488465956e-05
4.255847421e-05
5.013081203e-05
5.729400627e-05
6.386323242e-05
6.97503884e-05
7.49358177e-05
7.944377015e-05
8.332235857e-05
8.662299201e-05
8.935652824e-05
9.132213897e-05
2.603057211e-05
3.812384291e-05
5.111216266e-05
6.33230817e-05
7.387609072e-05
8.24972404e-05
8.926823766e-05
9.443456398e-05
9.828843285e-05
0.0001011085639
0.0001031351571
0.0001045637735
0.0001055479764
0.0001062028001
0.0001065907486
6.317541212e-05
9.676251418e-05
0.0001238261603
0.0001421194902
0.0001526125943
0.0001572593743
0.000157957578
0.0001562041237
0.0001530638545
0.0001492465688
0.000145202937
0.0001412087263
0.0001374376554
0.0001340567086
0.0001314909546
0.0001884167589
0.0002643393505
0.0002968701558
0.0003009407103
0.0002899613056
0.0002725182345
0.000253356154
0.0002348205654
0.0002179174118
0.0002029602091
0.0001899325454
0.0001786831175
0.0001690442413
0.0001609852955
0.0001551362964
0.0005336256795
0.0005875415247
0.0005419505604
0.000474935483
0.0004115771541
0.0003581818763
0.0003148731384
0.0002800893693
0.0002520901646
0.0002293883203
0.0002108180504
0.0001955000874
0.0001828087128
0.0001724503178
0.0001650459976
0.0001884196867
0.0002643388845
0.0002968665287
0.0003009350955
0.0002899547719
0.0002725114672
0.0002533495126
0.0002348142782
0.0002179114735
0.0002029546551
0.0001899273521
0.000178678256
0.0001690396973
0.000160980977
0.0001551321373
9.676870988e-05
0.0001238275588
0.0001421175365
0.000152608352
0.0001572536808
0.0001579510249
0.0001561971251
0.0001530566761
0.0001492393842
0.0001451958158
0.0001412017328
0.0001374308164
0.0001340500284
0.0001314843292
3.812628819e-05
5.111337973e-05
6.332282559e-05
7.387439084e-05
8.249425932e-05
8.926419542e-05
9.442966236e-05
9.828286159e-05
0.000101102486
0.0001031286832
0.0001045570341
0.000105541019
0.0001061956734
0.0001065834395
2.109850423e-05
2.755076432e-05
3.48848152e-05
4.255782947e-05
5.012927234e-05
5.729154101e-05
6.38598685e-05
6.974618259e-05
7.493083621e-05
7.943810381e-05
8.331610144e-05
8.66162184e-05
8.934930653e-05
9.131444067e-05
1.356531525e-05
1.662755854e-05
2.083918942e-05
2.599774831e-05
3.180098709e-05
3.793242086e-05
4.411517396e-05
5.013558344e-05
5.584605021e-05
6.115668936e-05
6.602237919e-05
7.04276921e-05
7.436481617e-05
7.777436507e-05
8.031068633e-05
1.798649495e-05
2.447570534e-05
3.241895768e-05
4.096143345e-05
4.938241298e-05
5.720499853e-05
6.418265933e-05
7.023905667e-05
7.540398129e-05
7.976270997e-05
8.342175731e-05
8.648754873e-05
8.904998445e-05
9.11509248e-05
9.265553798e-05
3.132436533e-05
4.715152167e-05
6.353021369e-05
7.816343677e-05
9.000002409e-05
9.888456313e-05
0.0001051417787
0.0001092772925
0.0001118073251
0.0001131809474
0.0001137564328
0.0001138051143
0.0001135279131
0.0001130841592
0.0001126569828
6.317544482e-05
9.67617206e-05
0.0001238243056
0.0001421167293
0.0001526091458
0.0001572554991
0.0001579534711
0.0001561999364
0.0001530596918
0.0001492424672
0.0001451989233
0.0001412048351
0.0001374338802
0.0001340530272
0.0001314873453
0.000112788455
0.0001606107949
0.0001869268341
0.0001977194083
0.0001990571699
0.0001951909538
0.0001887554668
0.0001812886974
0.0001736510354
0.000166301607
0.0001594674947
0.0001532475475
0.0001476865462
0.0001428795948
0.0001393111605
6.317519236e-05
9.676082258e-05
0.0001238224764
0.0001421140061
0.0001526057829
0.000157251732
0.0001579494939
0.0001561958907
0.0001530556495
0.0001492385038
0.0001451950454
0.0001412010661
0.0001374302237
0.000134049492
0.000131483837
3.132589591e-05
4.715268153e-05
6.353027498e-05
7.816220975e-05
8.999760092e-05
9.888114137e-05
0.0001051376026
0.0001092725855
0.000111802245
0.0001131756153
0.0001137509746
0.0001137995503
0.0001135223217
0.0001130785501
0.0001126513188
2.44772559e-05
3.241976413e-05
4.096137697e-05
4.938143622e-05
5.720310831e-05
6.41799272e-05
7.02355746e-05
7.539985044e-05
7.97580264e-05
8.34166201e-05
8.648202132e-05
8.904413784e-05
9.114481592e-05
9.264917933e-05
1.662835565e-05
2.083980611e-05
2.599798428e-05
3.180066522e-05
3.79314203e-05
4.41134379e-05
5.013308971e-05
5.584280394e-05
6.115272244e-05
6.601774829e-05
7.042245661e-05
7.435902099e-05
7.776805755e-05
8.030388449e-05
1.187640902e-05
1.353294741e-05
1.595934688e-05
1.915813474e-05
2.304366309e-05
2.747374485e-05
3.228248582e-05
3.730587372e-05
4.239779668e-05
4.743762349e-05
5.233127484e-05
5.700599153e-05
6.139162262e-05
6.535019699e-05
6.838360082e-05
1.360014528e-05
1.667400108e-05
2.084669693e-05
2.588484936e-05
3.147714595e-05
3.732025982e-05
4.316507663e-05
4.883086998e-05
5.420064545e-05
5.920842378e-05
6.382466955e-05
6.804144486e-05
7.185130286e-05
7.518856894e-05
7.769439144e-05
1.798651088e-05
2.44756425e-05
3.241874146e-05
4.096100403e-05
4.938174258e-05
5.720408038e-05
6.418151555e-05
7.023770091e-05
7.540244451e-05
7.976100995e-05
8.341993964e-05
8.648559901e-05
8.904795692e-05
9.114881881e-05
9.265336918e-05
2.603062739e-05
3.812350014e-05
5.111116692e-05
6.332132071e-05
7.387357334e-05
8.249403681e-05
8.926447788e-05
9.443035305e-05
9.828387878e-05
0.0001011037556
0.0001031301572
0.0001045586501
0.0001055427665
0.0001061975218
0.000106585407
3.428214974e-05
5.077719503e-05
6.624173959e-05
7.92038175e-05
8.938052838e-05
9.702613637e-05
0.0001025740861
0.000106469887
0.0001091055837
0.0001108020451
0.0001118116219
0.0001123285243
0.000112502262
0.0001124558817
0.0001123213721
2.603042605e-05
3.812307472e-05
5.111040403e-05
6.332017485e-05
7.387205521e-05
8.24922074e-05
8.926237577e-05
9.442804485e-05
9.828141726e-05
0.0001011011823
0.0001031275066
0.0001045559417
0.0001055400256
0.0001061947507
0.0001065825863
1.798661001e-05
2.447566708e-05
3.241845275e-05
4.096024295e-05
4.938042827e-05
5.720220735e-05
6.417911343e-05
7.023483583e-05
7.53991759e-05
7.975740045e-05
8.341605013e-05
8.648148689e-05
8.90436669e-05
9.11443798e-05
9.26487704e-05
1.360047499e-05
1.667435847e-05
2.08468843e-05
2.588470741e-05
3.147655073e-05
3.731914379e-05
4.316340144e-05
4.882863109e-05
5.41978573e-05
5.920512368e-05
6.3820892e-05
6.803723178e-05
7.184669199e-05
7.518360544e-05
7.768912346e-05
1.353341987e-05
1.595969529e-05
1.915826926e-05
2.304347867e-05
2.747313335e-05
3.228136799e-05
3.730419409e-05
4.239551647e-05
4.743473299e-05
5.232777745e-05
5.700190909e-05
6.138697566e-05
6.534500696e-05
6.837787863e-05
1.111339911e-05
1.211620229e-05
1.365775949e-05
1.581189234e-05
1.859449027e-05
2.196607257e-05
2.58441881e-05
3.011972272e-05
3.46725443e-05
3.938389586e-05
4.414421839e-05
4.885409978e-05
5.340886498e-05
5.762315958e-05
6.090808599e-05
1.187641929e-05
1.353295292e-05
1.595933071e-05
1.915807662e-05
2.304354389e-05
2.747354118e-05
3.22821833e-05
3.730546012e-05
4.239726417e-05
4.743696621e-05
5.23304953e-05
5.700508892e-05
6.139060203e-05
6.534905242e-05
6.838229628e-05
1.356534087e-05
1.662753842e-05
2.083905566e-05
2.599743248e-05
3.180042583e-05
3.79315619e-05
4.411399834e-05
5.013408308e-05
5.58442207e-05
6.115455625e-05
6.601995736e-05
7.042500304e-05
7.436188288e-05
7.777119998e-05
8.030726297e-05
1.60652553e-05
2.109733456e-05
2.75495441e-05
3.488369234e-05
4.255691983e-05
5.012861702e-05
5.72911725e-05
6.385978572e-05
6.97463867e-05
7.493131104e-05
7.943882299e-05
8.33170227e-05
8.661732221e-05
8.935057566e-05
9.13158518e-05
1.791012283e-05
2.423754172e-05
3.189655727e-05
4.017654313e-05
4.849314114e-05
5.64336761e-05
6.374294779e-05
7.028981448e-05
7.60321866e-05
8.0986964e-05
8.520662613e-05
8.87612175e-05
9.172092664e-05
9.41203149e-05
9.581589977e-05
1.606515507e-05
2.109713186e-05
2.754918085e-05
3.488312658e-05
4.255611975e-05
5.012757398e-05
5.728989585e-05
6.385829633e-05
6.974469858e-05
7.492944028e-05
7.943679185e-05
8.331487344e-05
8.661506545e-05
8.934822093e-05
9.131340209e-05
1.356529708e-05
1.662743098e-05
2.083880226e-05
2.599694249e-05
3.179962521e-05
3.793039754e-05
4.411244264e-05
5.013213493e-05
5.584188913e-05
6.115186046e-05
6.601694254e-05
7.042169423e-05
7.435830622e-05
7.776738526e-05
8.030323806e-05
1.187645886e-05
1.353300029e-05
1.595931126e-05
1.915789692e-05
2.304311207e-05
2.747277581e-05
3.228102389e-05
3.730385921e-05
4.239519656e-05
4.743443138e-05
5.232748355e-05
5.700162876e-05
6.138670964e-05
6.534476013e-05
6.837764019e-05
1.111349804e-05
1.211633774e-05
1.36578705e-05
1.581190149e-05
1.859430902e-05
2.196560712e-05
2.584335579e-05
3.011844818e-05
3.467076193e-05
3.938157336e-05
4.414132258e-05
4.88506284e-05
5.340481459e-05
5.761855755e-05
6.090293483e-05
)
;

boundaryField
{
    top
    {
        type            zeroGradient;
    }
    bottom
    {
        type            zeroGradient;
    }
    side-walls
    {
        type            zeroGradient;
    }
    inlet
    {
        type            zeroGradient;
    }
    outlet
    {
        type            zeroGradient;
    }
    procBoundary1to0
    {
        type            processor;
        value           nonuniform List<scalar> 
97
(
1.111349751e-05
1.111349751e-05
1.187643618e-05
1.356519316e-05
1.606481152e-05
1.790943549e-05
1.606469193e-05
1.356500889e-05
1.18762535e-05
1.111331195e-05
1.088468433e-05
1.360048739e-05
1.360048739e-05
1.360048739e-05
1.798648147e-05
2.602961255e-05
3.427971666e-05
2.602906568e-05
1.798576249e-05
1.359983474e-05
1.187626132e-05
1.165937006e-05
1.362365313e-05
3.13259399e-05
3.13259399e-05
3.13259399e-05
6.317315283e-05
0.0001127756115
6.316980608e-05
3.132229867e-05
1.798578875e-05
1.356503191e-05
1.277822545e-05
1.703929448e-05
3.171038798e-05
0.000188420133
0.000188420133
0.000188420133
0.0005335415301
0.0001883963337
6.317003762e-05
2.60291597e-05
1.606475467e-05
1.356415465e-05
2.020515054e-05
4.767673396e-05
0.0001543468831
0.003325604068
0.003325604068
0.003325604068
0.0005335464011
0.0005335464011
0.0001127767226
3.428000404e-05
1.790956057e-05
1.277825254e-05
1.703937741e-05
3.171118625e-05
7.361859052e-05
0.0001543504243
7.361606395e-05
6.3178176e-05
6.3178176e-05
6.3178176e-05
2.603045488e-05
1.606503204e-05
1.165939019e-05
1.362376347e-05
1.929867042e-05
3.171127297e-05
4.767719306e-05
3.171072064e-05
1.929842262e-05
1.798721237e-05
1.798721237e-05
1.798721237e-05
1.356538101e-05
1.088470332e-05
1.167099576e-05
1.362377703e-05
1.703942816e-05
2.020521348e-05
1.703927091e-05
1.362369159e-05
1.167096605e-05
1.187660167e-05
1.187660167e-05
1.187660167e-05
1.053002204e-05
1.088470995e-05
1.165940548e-05
1.277827446e-05
1.356416644e-05
1.27782123e-05
1.165935785e-05
1.088469589e-05
1.053002073e-05
)
;
    }
}


// ************************************************************************* //
