/*--------------------------------*- C++ -*----------------------------------*\
| =========                 |                                                 |
| \\      /  F ield         | OpenFOAM: The Open Source CFD Toolbox           |
|  \\    /   O peration     | Version:  4.x                                   |
|   \\  /    A nd           | Web:      www.OpenFOAM.org                      |
|    \\/     M anipulation  |                                                 |
\*---------------------------------------------------------------------------*/
FoamFile
{
    version     2.0;
    format      ascii;
    class       volScalarField;
    location    "2000";
    object      molarConc;
}
// * * * * * * * * * * * * * * * * * * * * * * * * * * * * * * * * * * * * * //

dimensions      [0 -3 0 0 1 0 0];

internalField   nonuniform List<scalar> 
1174
(
9.963257211
9.963251018
9.963242827
9.963232317
9.963219888
9.963206041
9.963190286
9.963173611
9.963156172
9.963137506
9.963120618
9.96310279
9.96308563
9.963072515
9.963269492
9.963261522
9.963247902
9.963233421
9.963216047
9.963197194
9.963178076
9.963158484
9.963139179
9.963120543
9.963103765
9.963088696
9.963073448
9.96306097
9.96326742
9.963252684
9.963232721
9.963211441
9.963187421
9.963164409
9.963142589
9.963121538
9.963103687
9.963086615
9.963069063
9.963055681
9.963042764
9.963032521
9.963239493
9.963214845
9.963188603
9.96316067
9.963132145
9.963106376
9.963081948
9.963058152
9.963038995
9.963020701
9.963006582
9.96299293
9.962982697
9.962975254
9.963238494
9.963210122
9.963177457
9.96314648
9.963115711
9.963088098
9.963064042
9.963042504
9.963023166
9.963006513
9.962993561
9.962983273
9.96297392
9.962967394
9.963241376
9.963217371
9.963189776
9.963160984
9.963132072
9.963105929
9.96308026
9.963058177
9.963039576
9.963021942
9.963006822
9.962993051
9.962983274
9.962974567
9.963267183
9.963250978
9.963232372
9.963209924
9.963186893
9.963163885
9.963141802
9.963119848
9.963100264
9.963082316
9.963066401
9.963051632
9.963038302
9.963030834
9.963267709
9.963259487
9.963248205
9.963232786
9.963216496
9.963198111
9.963180861
9.963160651
9.963142262
9.963124704
9.963106245
9.963088748
9.96307455
9.9630632
9.963259089
9.963253779
9.963245593
9.963234829
9.963222426
9.963208759
9.963193357
9.963174756
9.963158117
9.963139461
9.963122525
9.963105244
9.963089648
9.963078248
9.963259083
9.963252582
9.963243672
9.963232964
9.963219827
9.963203096
9.963185134
9.963165375
9.963146908
9.963129618
9.963110146
9.963092541
9.963076499
9.963062093
9.963051176
9.963258985
9.963245033
9.963225737
9.963204503
9.963182286
9.963160444
9.96313942
9.963119751
9.963102372
9.963085756
9.963069823
9.963055702
9.963042676
9.963032959
9.963198688
9.963168788
9.963137806
9.963105642
9.963075963
9.963050022
9.963026933
9.963007437
9.962990886
9.962977485
9.96296425
9.962955979
9.962947859
9.962942187
9.963175623
9.963127738
9.963083594
9.963044016
9.963010895
9.962984932
9.962964985
9.962950713
9.96293981
9.962933256
9.962927678
9.962923224
9.962920849
9.962919315
9.963094431
9.963036829
9.962986763
9.962948494
9.962920865
9.962900507
9.962886647
9.962877688
9.962873245
9.962870575
9.962869281
9.962869491
9.962869571
9.962870515
9.963172183
9.963125971
9.96308016
9.963040029
9.963006777
9.96298161
9.962963436
9.962947762
9.962936785
9.962928629
9.962924677
9.962921737
9.96291934
9.962918884
9.963227677
9.963197393
9.963164949
9.96313262
9.963102419
9.963075777
9.963052145
9.963031941
9.963015856
9.963002636
9.962989585
9.962980473
9.962972178
9.962965437
9.963252953
9.96323763
9.963219993
9.963199099
9.963178937
9.963157311
9.963135803
9.963115855
9.963097705
9.963080472
9.963064861
9.96305094
9.96303949
9.963030068
9.963267323
9.963258121
9.963246376
9.963234347
9.963217783
9.963199635
9.963180308
9.963161291
9.963143053
9.963124485
9.96310743
9.963091226
9.963076532
9.96306418
9.963264513
9.963254438
9.963238185
9.96321884
9.963197362
9.963174128
9.963150416
9.963129347
9.963107259
9.963088429
9.963069672
9.963052201
9.963037413
9.963025408
9.963016901
9.963242132
9.963217849
9.963186791
9.963155158
9.96312357
9.963095193
9.963068772
9.963046146
9.963025619
9.963009715
9.962995927
9.962985156
9.962976901
9.962968207
9.96296409
9.963131355
9.963069086
9.963013035
9.962969656
9.962937216
9.962914957
9.962898208
9.962889316
9.962882599
9.962880664
9.962880254
9.962882573
9.962883433
9.962884737
9.962966356
9.962864142
9.962796638
9.962758317
9.962740908
9.962738934
9.962744894
9.962756871
9.962771599
9.962786114
9.962801314
9.962814961
9.962827332
9.96283767
9.962701047
9.962602186
9.962562463
9.962556441
9.96256979
9.962593169
9.962621579
9.962652171
9.962680455
9.962704878
9.962728893
9.962749584
9.962767674
9.962780353
9.96295099
9.962850166
9.962781248
9.962741569
9.962725662
9.962722634
9.962728741
9.962740484
9.962754405
9.962769918
9.962785055
9.962798902
9.96281165
9.96282185
9.963187308
9.963125928
9.963071308
9.96302761
9.962995212
9.962972119
9.962956907
9.962946138
9.962940552
9.962937728
9.962936174
9.9629368
9.962937517
9.962937136
9.963216747
9.963185966
9.963152423
9.963120599
9.963091259
9.963065178
9.963042178
9.963022965
9.963006255
9.96299183
9.962981137
9.96297125
9.962963084
9.962958275
9.96328116
9.963265073
9.963246117
9.963224783
9.963203567
9.963180039
9.963157905
9.963135587
9.963115076
9.963096919
9.963080125
9.963065561
9.963051841
9.963043684
9.963273322
9.963254976
9.963231376
9.963206673
9.963177517
9.963148881
9.963122007
9.963096913
9.963074797
9.963054598
9.963037247
9.963022189
9.963010172
9.962998838
9.962991773
9.963198104
9.963153059
9.963104653
9.963059771
9.963019611
9.96298858
9.962962944
9.962942586
9.962928368
9.962917878
9.962910444
9.962905498
9.962901731
9.962900684
9.962898855
9.963079966
9.962955128
9.962855659
9.962787683
9.962749174
9.962730741
9.962728481
9.962734285
9.962744973
9.962760919
9.962776608
9.962792192
9.96280587
9.962819653
9.962828422
9.96230824
9.962187001
9.962171095
9.962213417
9.96227923
9.96235045
9.962420108
9.962483824
9.962539461
9.962587497
9.962629554
9.962665342
9.96269555
9.962716776
9.961295551
9.961466066
9.961718237
9.961954847
9.962155178
9.962318603
9.962448719
9.962552861
9.962637386
9.962705693
9.962762488
9.962811365
9.962850468
9.962879792
9.962337866
9.962216582
9.9622027
9.962245154
9.962311097
9.962382115
9.962450866
9.962514743
9.96257059
9.962620209
9.962661981
9.962698327
9.96272908
9.962748754
9.962931236
9.962830318
9.962762062
9.962721776
9.962705005
9.962703196
9.962709877
9.962722689
9.96273682
9.962752069
9.962767872
9.962781479
9.962794742
9.962804096
9.963179923
9.963131145
9.963085199
9.963045967
9.963014111
9.962988538
9.962969703
9.962954246
9.962942265
9.962934831
9.962929154
9.962925511
9.96292266
9.962919698
9.963239422
9.963214331
9.963185793
9.963157946
9.963128809
9.963102231
9.963077338
9.96305528
9.963036879
9.963020119
9.963006388
9.962993105
9.962982643
9.962974699
9.963234323
9.963210647
9.963182174
9.963151453
9.963119652
9.963088516
9.963063318
9.963039857
9.963018162
9.963000415
9.962984753
9.96297178
9.962961188
9.962952199
9.962945027
9.96318234
9.963119389
9.963061701
9.963013266
9.962976238
9.962948804
9.962929274
9.962915813
9.962905572
9.962899898
9.96289602
9.962894011
9.962893185
9.962892483
9.962893902
9.962894511
9.962714942
9.96261891
9.962578898
9.962572483
9.962586311
9.962609974
9.962638272
9.962667108
9.962695821
9.962721415
9.962744276
9.962763754
9.96278233
9.962795449
9.961474318
9.961272634
9.961444983
9.961696291
9.961932406
9.962133791
9.962296732
9.962429131
9.962533373
9.962618423
9.962688957
9.962746407
9.962792967
9.962832554
9.962861844
10.05869976
10.06150407
10.06310765
10.0640924
10.06474754
10.06521918
10.06558503
10.06588266
10.06613681
10.06636433
10.06657028
10.0667607
10.06693675
10.06710235
9.961275306
9.96144784
9.961699779
9.961937365
9.962137863
9.962299371
9.962428822
9.962533456
9.962617804
9.962687341
9.962745078
9.962792987
9.962832698
9.962860856
9.962726948
9.962628679
9.962588816
9.962583599
9.962597649
9.9626216
9.962648119
9.962678319
9.962705816
9.96273196
9.962755652
9.962776115
9.962795372
9.962806512
9.963133349
9.96307504
9.963026063
9.962988267
9.962960306
9.962939778
9.962924381
9.962914133
9.962908039
9.962903276
9.96290147
9.962900076
9.962902222
9.96290421
9.963233559
9.963204014
9.963172776
9.96313987
9.96311262
9.96308424
9.963060952
9.96303881
9.963021151
9.963004376
9.962992168
9.96298321
9.9629755
9.96296842
9.96324476
9.963225784
9.963201351
9.963171901
9.963144814
9.963119401
9.963093501
9.963068701
9.963045824
9.963026914
9.963010674
9.962996242
9.962983805
9.962972266
9.962965187
9.96325219
9.963205982
9.963158284
9.963112472
9.963072337
9.963040035
9.963013499
9.962993472
9.962978861
9.962968408
9.962960503
9.962954948
9.962950658
9.962948456
9.962947249
9.963078746
9.962953463
9.962851766
9.962783176
9.962744014
9.962726619
9.962723915
9.962728907
9.962739518
9.962752754
9.96276844
9.962786015
9.962800386
9.962812798
9.962823239
9.962614469
9.962330932
9.962209175
9.962192681
9.962233544
9.962298061
9.962371254
9.962440688
9.962504352
9.962561616
9.962610463
9.962653165
9.962688587
9.962720398
9.962742512
9.961491613
9.961290517
9.961462583
9.961712649
9.961951457
9.962151257
9.962314456
9.962445049
9.962548962
9.962634288
9.962706238
9.962764973
9.962811553
9.962850041
9.962876954
9.962603317
9.962318958
9.962197706
9.962182286
9.962223451
9.962291148
9.962362509
9.962431791
9.962494799
9.962551523
9.962598902
9.962641536
9.96267758
9.962707364
9.962729789
9.962943722
9.96284301
9.962775048
9.962735911
9.96271888
9.962716187
9.962722804
9.96273373
9.962749546
9.962764899
9.962778694
9.962792616
9.962806697
9.962816179
9.96315616
9.963106384
9.963060984
9.963021054
9.962989623
9.962965463
9.962945449
9.962929885
9.962919596
9.962912548
9.962908545
9.962905935
9.962903484
9.962902376
9.96324926
9.963224955
9.963196999
9.963168501
9.963139956
9.963113827
9.963089592
9.963067076
9.963048089
9.963030695
9.963016223
9.963003294
9.962993277
9.962986562
9.963289679
9.963278619
9.963262469
9.963242676
9.963220462
9.963196949
9.963173318
9.96315059
9.963128947
9.963109358
9.963090783
9.96307386
9.963058818
9.963047052
9.963037143
9.963230016
9.963206123
9.963177393
9.963145858
9.963113959
9.963083773
9.963057117
9.963035717
9.963016754
9.96300077
9.962987947
9.962977335
9.96296654
9.962959412
9.962954076
9.963219871
9.963160728
9.963101756
9.963046062
9.96300267
9.962969223
9.962946049
9.962931998
9.962923175
9.962917125
9.96291486
9.962913107
9.962915972
9.962916412
9.962919005
9.963063021
9.96293806
9.962836324
9.962768141
9.962728392
9.96271146
9.962707945
9.962712088
9.962724969
9.962738257
9.962752733
9.962767432
9.96278229
9.962795483
9.962804391
9.962886114
9.962705544
9.962607515
9.9625691
9.962564053
9.962577449
9.962603177
9.962631653
9.962658898
9.962688494
9.962714285
9.962737281
9.962758994
9.962776613
9.962787667
9.9630798
9.962954789
9.962853735
9.962785975
9.962746485
9.96273
9.962727712
9.96273508
9.962748098
9.962762553
9.962778603
9.962792177
9.962805505
9.96281982
9.962829087
9.9632075
9.963148221
9.963087311
9.963032449
9.962986985
9.962953756
9.96293025
9.962915138
9.962907013
9.962902063
9.962898917
9.962898803
9.962901279
9.962904227
9.96290567
9.963209636
9.963180639
9.963149213
9.963118447
9.963088427
9.963063223
9.963039893
9.963021661
9.963005317
9.962991594
9.962980157
9.962969817
9.962960355
9.962956017
9.963264629
9.963249487
9.963231014
9.963209364
9.963187479
9.963163713
9.963141624
9.9631195
9.963098333
9.963080118
9.963064944
9.963050333
9.963037255
9.963028462
9.96328314
9.963275991
9.963267865
9.963255676
9.963241593
9.963225709
9.963207956
9.963189666
9.963170619
9.96315172
9.963132963
9.963115142
9.96309862
9.963084614
9.963074179
9.963283931
9.963272323
9.963257519
9.963238023
9.963216638
9.963195259
9.963173132
9.963152504
9.963131674
9.963113192
9.963096479
9.963080326
9.963066016
9.963054053
9.963044955
9.963230336
9.963206447
9.963176218
9.963144471
9.96311258
9.963083735
9.963058139
9.963036695
9.963017683
9.962999808
9.962987144
9.962974137
9.962964023
9.962956694
9.962951364
9.963201479
9.963155706
9.963107014
9.963061106
9.963020739
9.962988246
9.962962261
9.962942565
9.962928748
9.962919108
9.96290933
9.962903469
9.962899287
9.962898524
9.962896593
9.963176042
9.963115637
9.963058164
9.96300917
9.962973395
9.962945045
9.962925166
9.962911485
9.962900578
9.962893927
9.962890628
9.962887537
9.962887833
9.962888251
9.962890696
9.9632245
9.963178122
9.963130096
9.963083614
9.963044536
9.963012367
9.962987494
9.962968441
9.962953686
9.962942541
9.962935585
9.96293083
9.96292791
9.962924301
9.96292124
9.963280754
9.963256245
9.963225036
9.963195568
9.963163053
9.963133903
9.963109455
9.963085553
9.96306824
9.963052357
9.963040019
9.963029232
9.963019537
9.963013102
9.963007716
9.963277347
9.963266359
9.963249942
9.963230518
9.96320819
9.963185773
9.963163773
9.963143218
9.963121993
9.963104031
9.963086405
9.963071759
9.963058472
9.96304699
9.963037187
9.963260977
9.963252439
9.963240914
9.963226325
9.963209695
9.96319181
9.963173403
9.963154845
9.963136196
9.963118058
9.963101364
9.963085683
9.963070521
9.963059252
9.96328879
9.963285119
9.963279603
9.963272085
9.963261252
9.963249944
9.963235568
9.963218246
9.963202901
9.963184336
9.963165405
9.963146577
9.963130593
9.9631143
9.963102239
9.963269865
9.96326284
9.963254403
9.963241763
9.963226819
9.963210209
9.963190759
9.963172799
9.963153588
9.963134948
9.963116982
9.963098837
9.963082206
9.963067891
9.9630557
9.963258456
9.963248398
9.963232516
9.963212919
9.96319176
9.963168158
9.963145203
9.963123423
9.963101434
9.963082556
9.963064195
9.963046715
9.963033201
9.963019283
9.963009784
9.96323337
9.963214859
9.963192161
9.963164804
9.963135905
9.963107743
9.963080733
9.963055789
9.963033883
9.963014589
9.962999133
9.962985529
9.962973202
9.962963099
9.962956696
9.963261922
9.963238087
9.96320917
9.963179373
9.963149546
9.963119097
9.963091691
9.963067089
9.963045742
9.963027979
9.963011577
9.962998351
9.962986747
9.962977459
9.962970424
9.963273823
9.963254964
9.963231778
9.963205319
9.963176369
9.963147965
9.963121405
9.963096338
9.963074082
9.963055816
9.963038055
9.963021594
9.963009386
9.962998424
9.9629904
9.963302336
9.963290646
9.963273755
9.963254715
9.963233639
9.963211305
9.963187681
9.963164835
9.963142263
9.963122508
9.963104114
9.963087775
9.963072515
9.963058926
9.963049235
9.96327193
9.963265439
9.963256393
9.963243748
9.963229497
9.963213031
9.963196517
9.963177911
9.963158784
9.963139644
9.963120881
9.96310221
9.963084739
9.963069186
9.963058671
9.963277277
9.963272408
9.963265637
9.963258093
9.963247661
9.963235408
9.96322152
9.963205609
9.96318781
9.963170642
9.963152336
9.963134439
9.963116953
9.963101157
9.963088601
)
;

boundaryField
{
    top
    {
        type            calculated;
        value           nonuniform List<scalar> 
127
(
9.963277277
9.963259089
9.963267323
9.96328116
9.963239422
9.963233559
9.96324926
9.963264629
9.963260977
9.963272408
9.963253779
9.963258121
9.963265073
9.963214331
9.963204014
9.963224955
9.963249487
9.963252439
9.963265637
9.963245593
9.963246376
9.963246117
9.963185793
9.963172776
9.963196999
9.963231014
9.963240914
9.963258093
9.963234829
9.963234347
9.963224783
9.963157946
9.96313987
9.963168501
9.963209364
9.963226325
9.963247661
9.963222426
9.963217783
9.963203567
9.963128809
9.96311262
9.963139956
9.963187479
9.963209695
9.963235408
9.963208759
9.963199635
9.963180039
9.963102231
9.96308424
9.963113827
9.963163713
9.96319181
9.96322152
9.963193357
9.963180308
9.963157905
9.963077338
9.963060952
9.963089592
9.963141624
9.963173403
9.963205609
9.963174756
9.963161291
9.963135587
9.96305528
9.96303881
9.963067076
9.9631195
9.963154845
9.96318781
9.963158117
9.963143053
9.963115076
9.963036879
9.963021151
9.963048089
9.963098333
9.963136196
9.963170642
9.963139461
9.963124485
9.963096919
9.963020119
9.963004376
9.963030695
9.963080118
9.963118058
9.963152336
9.963122525
9.96310743
9.963080125
9.963006388
9.962992168
9.963016223
9.963064944
9.963101364
9.963134439
9.963105244
9.963091226
9.963065561
9.962993105
9.96298321
9.963003294
9.963050333
9.963085683
9.963116953
9.963089648
9.963076532
9.963051841
9.962982643
9.9629755
9.962993277
9.963037255
9.963070521
9.963101157
9.963078248
9.96306418
9.963043684
9.962974699
9.96296842
9.962986562
9.963028462
9.963059252
9.963088601
)
;
    }
    bottom
    {
        type            calculated;
        value           nonuniform List<scalar> 
134
(
9.963259083
9.963264513
9.963273322
9.963234323
9.96324476
9.963289679
9.96328314
9.96328879
9.963257211
9.963252582
9.963254438
9.963254976
9.963210647
9.963225784
9.963278619
9.963275991
9.963285119
9.963251018
9.963243672
9.963238185
9.963231376
9.963182174
9.963201351
9.963262469
9.963267865
9.963279603
9.963242827
9.963232964
9.96321884
9.963206673
9.963151453
9.963171901
9.963242676
9.963255676
9.963272085
9.963232317
9.963219827
9.963197362
9.963177517
9.963119652
9.963144814
9.963220462
9.963241593
9.963261252
9.963219888
9.963203096
9.963174128
9.963148881
9.963088516
9.963119401
9.963196949
9.963225709
9.963249944
9.963206041
9.963185134
9.963150416
9.963122007
9.963063318
9.963093501
9.963173318
9.963207956
9.963235568
9.963190286
9.963165375
9.963129347
9.963096913
9.963039857
9.963068701
9.96315059
9.963189666
9.963218246
9.963173611
9.963146908
9.963107259
9.963074797
9.963018162
9.963045824
9.963128947
9.963170619
9.963202901
9.963156172
9.963129618
9.963088429
9.963054598
9.963000415
9.963026914
9.963109358
9.96315172
9.963184336
9.963137506
9.963110146
9.963069672
9.963037247
9.962984753
9.963010674
9.963090783
9.963132963
9.963165405
9.963120618
9.963092541
9.963052201
9.963022189
9.96297178
9.962996242
9.96307386
9.963115142
9.963146577
9.96310279
9.963076499
9.963037413
9.963010172
9.962961188
9.962983805
9.963058818
9.96309862
9.963130593
9.96308563
9.963062093
9.963025408
9.962998838
9.962952199
9.962972266
9.963047052
9.963084614
9.9631143
9.963072515
9.963051176
9.963016901
9.962991773
9.962945027
9.962965187
9.963037143
9.963074179
9.963102239
)
;
    }
    side-walls
    {
        type            calculated;
        value           nonuniform List<scalar> 
261
(
9.963257211
9.963269492
9.96326742
9.963239493
9.963238494
9.963241376
9.963267183
9.963267709
9.963259089
9.963251018
9.963261522
9.963252684
9.963214845
9.963210122
9.963217371
9.963250978
9.963259487
9.963253779
9.963242827
9.963247902
9.963232721
9.963188603
9.963177457
9.963189776
9.963232372
9.963248205
9.963245593
9.963232317
9.963233421
9.963211441
9.96316067
9.96314648
9.963160984
9.963209924
9.963232786
9.963234829
9.963219888
9.963216047
9.963187421
9.963132145
9.963115711
9.963132072
9.963186893
9.963216496
9.963222426
9.963206041
9.963197194
9.963164409
9.963106376
9.963088098
9.963105929
9.963163885
9.963198111
9.963208759
9.963190286
9.963178076
9.963142589
9.963081948
9.963064042
9.96308026
9.963141802
9.963180861
9.963193357
9.963173611
9.963158484
9.963121538
9.963058152
9.963042504
9.963058177
9.963119848
9.963160651
9.963174756
9.963156172
9.963139179
9.963103687
9.963038995
9.963023166
9.963039576
9.963100264
9.963142262
9.963158117
9.963137506
9.963120543
9.963086615
9.963020701
9.963006513
9.963021942
9.963082316
9.963124704
9.963139461
9.963120618
9.963103765
9.963069063
9.963006582
9.962993561
9.963006822
9.963066401
9.963106245
9.963122525
9.96310279
9.963088696
9.963055681
9.96299293
9.962983273
9.962993051
9.963051632
9.963088748
9.963105244
9.96308563
9.963073448
9.963042764
9.962982697
9.96297392
9.962983274
9.963038302
9.96307455
9.963089648
9.963072515
9.96306097
9.963032521
9.962975254
9.962967394
9.962974567
9.963030834
9.9630632
9.963078248
9.96328879
9.963269865
9.963258456
9.96323337
9.963261922
9.963273823
9.963302336
9.96327193
9.963277277
9.963285119
9.96326284
9.963248398
9.963214859
9.963238087
9.963254964
9.963290646
9.963265439
9.963272408
9.963279603
9.963254403
9.963232516
9.963192161
9.96320917
9.963231778
9.963273755
9.963256393
9.963265637
9.963272085
9.963241763
9.963212919
9.963164804
9.963179373
9.963205319
9.963254715
9.963243748
9.963258093
9.963261252
9.963226819
9.96319176
9.963135905
9.963149546
9.963176369
9.963233639
9.963229497
9.963247661
9.963249944
9.963210209
9.963168158
9.963107743
9.963119097
9.963147965
9.963211305
9.963213031
9.963235408
9.963235568
9.963190759
9.963145203
9.963080733
9.963091691
9.963121405
9.963187681
9.963196517
9.96322152
9.963218246
9.963172799
9.963123423
9.963055789
9.963067089
9.963096338
9.963164835
9.963177911
9.963205609
9.963202901
9.963153588
9.963101434
9.963033883
9.963045742
9.963074082
9.963142263
9.963158784
9.96318781
9.963184336
9.963134948
9.963082556
9.963014589
9.963027979
9.963055816
9.963122508
9.963139644
9.963170642
9.963165405
9.963116982
9.963064195
9.962999133
9.963011577
9.963038055
9.963104114
9.963120881
9.963152336
9.963146577
9.963098837
9.963046715
9.962985529
9.962998351
9.963021594
9.963087775
9.96310221
9.963134439
9.963130593
9.963082206
9.963033201
9.962973202
9.962986747
9.963009386
9.963072515
9.963084739
9.963116953
9.9631143
9.963067891
9.963019283
9.962963099
9.962977459
9.962998424
9.963058926
9.963069186
9.963101157
9.963102239
9.9630557
9.963009784
9.962956696
9.962970424
9.9629904
9.963049235
9.963058671
9.963088601
)
;
    }
    inlet
    {
        type            calculated;
        value           nonuniform 0();
    }
    outlet
    {
        type            calculated;
        value           nonuniform List<scalar> 
81
(
9.963072515
9.96306097
9.963032521
9.962975254
9.962967394
9.962974567
9.963030834
9.9630632
9.963078248
9.963051176
9.963032959
9.962942187
9.962919315
9.962870515
9.962918884
9.962965437
9.963030068
9.96306418
9.963016901
9.96296409
9.962884737
9.96283767
9.962780353
9.96282185
9.962937136
9.962958275
9.963043684
9.962991773
9.962898855
9.962828422
9.962716776
9.962879792
9.962748754
9.962804096
9.962919698
9.962974699
9.962945027
9.962893902
9.962795449
9.962861844
10.06710235
9.962860856
9.962806512
9.96290421
9.96296842
9.962965187
9.962947249
9.962823239
9.962742512
9.962876954
9.962729789
9.962816179
9.962902376
9.962986562
9.963037143
9.962954076
9.962919005
9.962804391
9.962787667
9.962829087
9.96290567
9.962956017
9.963028462
9.963074179
9.963044955
9.962951364
9.962896593
9.962890696
9.96292124
9.963007716
9.963037187
9.963059252
9.963102239
9.9630557
9.963009784
9.962956696
9.962970424
9.9629904
9.963049235
9.963058671
9.963088601
)
;
    }
    procBoundary1to0
    {
        type            processor;
        value           nonuniform List<scalar> 
97
(
9.963260262
9.963260262
9.963275065
9.963277718
9.963259302
9.963262815
9.963259121
9.963278975
9.963273298
9.963262005
9.963264093
9.963270849
9.963270849
9.963270849
9.963223719
9.963221585
9.963156987
9.963216546
9.963252262
9.96326462
9.96327213
9.963271081
9.963257169
9.963190013
9.963190013
9.963190013
9.963090436
9.962879287
9.963075902
9.963246452
9.96324141
9.963291742
9.963285694
9.963232333
9.963196358
9.962591885
9.962591885
9.962591885
9.961493862
9.96262241
9.963057697
9.96322395
9.963257513
9.963250818
9.963234688
9.963137077
9.962728672
10.05351387
10.05351387
10.05351387
9.961475503
9.961475503
9.962906573
9.963192611
9.963256007
9.963256552
9.963286597
9.963196811
9.963043646
9.962744866
9.963032577
9.963069911
9.963069911
9.963069911
9.963202278
9.963267666
9.963296895
9.963245323
9.963265462
9.963180842
9.963128362
9.96319727
9.963252719
9.963234232
9.963234232
9.963234232
9.963275369
9.963287506
9.963291835
9.963246045
9.963233963
9.963228634
9.963257678
9.963297938
9.963283516
9.963265557
9.963265557
9.963265557
9.963290778
9.963273459
9.96326465
9.963245783
9.963278374
9.963286814
9.963309028
9.963275383
9.963279373
)
;
    }
}


// ************************************************************************* //
