/*--------------------------------*- C++ -*----------------------------------*\
| =========                 |                                                 |
| \\      /  F ield         | OpenFOAM: The Open Source CFD Toolbox           |
|  \\    /   O peration     | Version:  4.x                                   |
|   \\  /    A nd           | Web:      www.OpenFOAM.org                      |
|    \\/     M anipulation  |                                                 |
\*---------------------------------------------------------------------------*/
FoamFile
{
    version     2.0;
    format      ascii;
    class       volScalarField;
    location    "2000";
    object      N2;
}
// * * * * * * * * * * * * * * * * * * * * * * * * * * * * * * * * * * * * * //

dimensions      [0 0 0 0 0 0 0];

internalField   nonuniform List<scalar> 
1174
(
0.6203606227
0.6203587264
0.6203560762
0.6203526521
0.6203485024
0.6203437282
0.6203384634
0.6203328555
0.6203270505
0.6203211832
0.6203153759
0.6203097577
0.6203045575
0.6203005028
0.6203588812
0.620355897
0.6203519623
0.6203471817
0.6203417299
0.6203358105
0.6203296249
0.6203233529
0.6203171426
0.62031111
0.6203053447
0.6202999333
0.6202950466
0.6202913006
0.6203550778
0.620349899
0.6203435546
0.6203364156
0.6203288708
0.6203212602
0.6203138467
0.6203068117
0.6203002661
0.6202942656
0.6202888294
0.6202839677
0.6202797546
0.6202766186
0.620349585
0.6203416519
0.6203326321
0.6203231926
0.6203138748
0.6203050568
0.6202969662
0.6202897116
0.6202833176
0.6202777547
0.6202729642
0.6202688834
0.6202655001
0.6202630649
0.6203457268
0.6203363101
0.6203261272
0.6203158958
0.6203061233
0.6202971236
0.6202890584
0.6202819798
0.6202758676
0.6202706575
0.620266264
0.6202626013
0.6202596279
0.6202575239
0.6203495852
0.6203416521
0.6203326324
0.620323193
0.6203138752
0.6203050574
0.6202969668
0.6202897123
0.6202833184
0.6202777556
0.6202729652
0.6202688844
0.6202655012
0.6202630661
0.620355078
0.6203498993
0.620343555
0.6203364161
0.6203288714
0.620321261
0.6203138476
0.6203068128
0.6203002674
0.620294267
0.620288831
0.6202839694
0.6202797564
0.6202766206
0.6203588814
0.6203558973
0.6203519626
0.6203471821
0.6203417304
0.6203358112
0.6203296258
0.6203233539
0.6203171439
0.6203111115
0.6203053464
0.6202999353
0.6202950488
0.6202913029
0.6203606229
0.6203587266
0.6203560764
0.6203526524
0.6203485028
0.6203437287
0.6203384641
0.6203328564
0.6203270517
0.6203211846
0.6203153776
0.6203097597
0.6203045597
0.6203005053
0.6203609184
0.6203588813
0.6203558971
0.6203519624
0.6203471818
0.62034173
0.6203358106
0.620329625
0.620323353
0.6203171427
0.6203111101
0.6203053448
0.6202999334
0.6202950467
0.6202913006
0.6203550207
0.62034989
0.6203436938
0.6203368143
0.620329624
0.620322429
0.6203154517
0.620308836
0.6203026631
0.6202969696
0.6202917657
0.6202870609
0.620282937
0.6202798387
0.6203454339
0.6203356688
0.6203251644
0.6203148059
0.6203051796
0.6202965887
0.6202891276
0.6202827601
0.6202773818
0.6202728622
0.6202690708
0.6202658975
0.6202632921
0.6202614238
0.6203286665
0.6203127012
0.6202976865
0.6202847045
0.6202740928
0.6202657517
0.6202593805
0.6202546207
0.6202511303
0.6202486146
0.6202468334
0.6202455986
0.6202447696
0.6202442732
0.6203131236
0.6202941131
0.6202781717
0.6202656481
0.6202562314
0.62024939
0.6202445774
0.6202413126
0.6202392015
0.6202379344
0.620237273
0.6202370336
0.6202370661
0.6202372116
0.6203286671
0.6203127018
0.6202976872
0.6202847054
0.6202740938
0.6202657528
0.6202593816
0.6202546219
0.6202511316
0.6202486159
0.6202468349
0.6202456
0.6202447711
0.6202442748
0.6203454346
0.6203356696
0.6203251652
0.6203148069
0.6203051808
0.6202965901
0.6202891292
0.6202827619
0.6202773838
0.6202728643
0.620269073
0.6202658999
0.6202632946
0.6202614264
0.6203550212
0.6203498905
0.6203436943
0.6203368149
0.6203296248
0.6203224301
0.620315453
0.6203088375
0.6203026649
0.6202969717
0.620291768
0.6202870634
0.6202829397
0.6202798417
0.6203588814
0.6203558973
0.6203519626
0.6203471822
0.6203417306
0.6203358114
0.6203296261
0.6203233543
0.6203171444
0.620311112
0.620305347
0.620299936
0.6202950496
0.6202913038
0.6203588429
0.620355078
0.6203498993
0.6203435549
0.6203364159
0.6203288711
0.6203212605
0.620313847
0.620306812
0.6203002664
0.6202942659
0.6202888297
0.620283968
0.6202797548
0.6202766189
0.6203534103
0.6203454343
0.6203356691
0.6203251646
0.6203148062
0.6203051798
0.620296589
0.6202891279
0.6202827604
0.6202773821
0.6202728624
0.620269071
0.6202658978
0.6202632923
0.620261424
0.6203175739
0.6202974423
0.6202794495
0.6202648878
0.6202539497
0.6202462374
0.6202411306
0.6202379959
0.6202362819
0.6202355487
0.620235463
0.6202357783
0.6202362995
0.6202368052
0.6202566352
0.6202233716
0.6202008738
0.6201879533
0.6201822128
0.6201813228
0.6201834456
0.6201872733
0.6201919343
0.6201968747
0.6202017557
0.6202063637
0.6202104943
0.6202136281
0.620178223
0.6201458651
0.6201325691
0.6201308858
0.6201355964
0.6201434658
0.6201526048
0.6201619563
0.6201709561
0.6201793248
0.6201869406
0.6201937483
0.6201996316
0.6202039978
0.6202566375
0.6202233739
0.6202008761
0.6201879557
0.6201822152
0.6201813252
0.6201834479
0.6201872757
0.6201919366
0.620196877
0.6202017579
0.6202063659
0.6202104964
0.6202136302
0.620317576
0.6202974441
0.6202794513
0.62026489
0.6202539521
0.62024624
0.6202411335
0.620237999
0.6202362851
0.6202355519
0.6202354663
0.6202357816
0.6202363029
0.6202368086
0.6203454346
0.6203356696
0.6203251654
0.6203148073
0.6203051813
0.6202965909
0.6202891301
0.6202827629
0.6202773849
0.6202728655
0.6202690744
0.6202659013
0.620263296
0.6202614279
0.620355078
0.6203498993
0.6203435552
0.6203364165
0.6203288719
0.6203212617
0.6203138486
0.6203068141
0.6203002688
0.6202942687
0.6202888329
0.6202839715
0.6202797586
0.620276623
0.6203557712
0.6203495854
0.6203416524
0.6203326327
0.6203231932
0.6203138754
0.6203050574
0.6202969668
0.6202897122
0.6202833182
0.6202777553
0.6202729648
0.620268884
0.6202655006
0.6202630654
0.6203435288
0.6203286672
0.6203127019
0.6202976872
0.6202847052
0.6202740935
0.6202657524
0.6202593811
0.6202546213
0.6202511309
0.6202486151
0.620246834
0.6202455991
0.6202447701
0.6202442737
0.6202979027
0.6202566364
0.6202233727
0.6202008747
0.6201879542
0.6201822135
0.6201813235
0.6201834461
0.6201872738
0.6201919348
0.6201968751
0.6202017561
0.6202063641
0.6202104946
0.6202136284
0.62005082
0.6200108223
0.6200057713
0.6200192059
0.6200405845
0.6200640804
0.6200868122
0.6201075435
0.6201258882
0.6201418655
0.6201556608
0.6201674793
0.6201773591
0.6201845283
0.6196539621
0.6197098476
0.6197920648
0.6198698108
0.6199353368
0.6199884865
0.6200311743
0.6200655351
0.6200933938
0.6201161809
0.6201349754
0.6201505452
0.6201632511
0.6201723321
0.6200508291
0.6200108288
0.6200057769
0.620019211
0.6200405893
0.6200640848
0.6200868162
0.6201075472
0.6201258917
0.6201418688
0.6201556638
0.6201674822
0.6201773618
0.620184531
0.6202566374
0.6202233747
0.6202008776
0.6201879578
0.6201822177
0.6201813279
0.6201834507
0.6201872785
0.6201919394
0.6201968797
0.6202017606
0.6202063685
0.620210499
0.6202136327
0.620328667
0.6203127022
0.6202976882
0.6202847069
0.6202740958
0.6202657552
0.6202593844
0.620254625
0.6202511349
0.6202486194
0.6202468384
0.6202456036
0.6202447748
0.6202442785
0.6203495851
0.6203416522
0.6203326329
0.6203231939
0.6203138766
0.6203050592
0.6202969691
0.620289715
0.6202833215
0.620277759
0.6202729688
0.6202688883
0.6202655053
0.6202630705
0.6203535048
0.6203457273
0.6203363108
0.6203261279
0.6203158966
0.6203061241
0.6202971245
0.6202890593
0.6202819807
0.6202758685
0.6202706584
0.6202662649
0.6202626021
0.6202596287
0.6202575247
0.6203333946
0.6203131246
0.6202941144
0.620278173
0.6202656494
0.6202562327
0.6202493912
0.6202445786
0.6202413136
0.6202392025
0.6202379354
0.6202372739
0.6202370345
0.6202370669
0.6202372124
0.6202369827
0.620178225
0.6201458676
0.6201325714
0.6201308878
0.6201355981
0.6201434672
0.6201526061
0.6201619574
0.6201709571
0.6201793257
0.6201869414
0.6201937491
0.6201996323
0.6202039984
0.619720263
0.6196539693
0.6197098524
0.6197920681
0.6198698133
0.6199353387
0.619988488
0.6200311755
0.6200655361
0.6200933947
0.6201161816
0.6201349759
0.6201505457
0.6201632516
0.6201723325
0.6179639619
0.6188345604
0.6193140791
0.619593683
0.6197663848
0.6198791586
0.6199566584
0.6200123572
0.6200539293
0.6200859312
0.6201111722
0.620131405
0.620147532
0.6201588959
0.619653962
0.6197098566
0.619792075
0.6198698204
0.6199353452
0.6199884939
0.6200311808
0.6200655409
0.620093399
0.6201161856
0.6201349796
0.6201505491
0.6201632547
0.6201723355
0.6201782227
0.6201458686
0.6201325747
0.6201308925
0.6201356035
0.620143473
0.6201526118
0.6201619631
0.6201709627
0.6201793311
0.6201869466
0.6201937541
0.6201996372
0.6202040033
0.6203131235
0.6202941142
0.620278174
0.6202656514
0.6202562355
0.6202493947
0.6202445826
0.620241318
0.6202392072
0.6202379403
0.6202372789
0.6202370396
0.6202370721
0.6202372177
0.6203457267
0.6203363105
0.6203261281
0.6203158974
0.6203061255
0.6202971266
0.620289062
0.620281984
0.6202758722
0.6202706626
0.6202662695
0.620262607
0.6202596339
0.6202575303
0.6203557713
0.6203495857
0.6203416527
0.6203326332
0.6203231938
0.6203138761
0.6203050583
0.6202969679
0.6202897134
0.6202833194
0.6202777566
0.6202729662
0.6202688854
0.6202655022
0.6202630671
0.6203435293
0.6203286681
0.6203127031
0.6202976886
0.6202847068
0.6202740952
0.6202657542
0.620259383
0.6202546232
0.6202511328
0.6202486171
0.620246836
0.6202456011
0.6202447721
0.6202442758
0.6202979065
0.6202566402
0.6202233768
0.6202008788
0.6201879581
0.6201822174
0.6201813272
0.6201834497
0.6201872772
0.620191938
0.6201968783
0.620201759
0.620206367
0.6202104974
0.6202136312
0.6201441089
0.6200508357
0.6200108345
0.6200057815
0.6200192147
0.6200405922
0.6200640872
0.6200868182
0.6201075489
0.6201258931
0.62014187
0.6201556649
0.6201674832
0.6201773627
0.6201845318
0.6197202658
0.6196539729
0.6197098635
0.6197920795
0.6198698235
0.6199353475
0.6199884956
0.6200311821
0.6200655419
0.6200933998
0.6201161863
0.6201349802
0.6201505496
0.6201632552
0.620172336
0.6201441066
0.6200508365
0.6200108376
0.6200057858
0.6200192195
0.6200405971
0.6200640919
0.6200868227
0.6201075531
0.620125897
0.6201418737
0.6201556683
0.6201674864
0.6201773658
0.6201845347
0.6202566351
0.6202233755
0.6202008801
0.6201879611
0.6201822214
0.6201813318
0.6201834546
0.6201872823
0.6201919431
0.6201968833
0.620201764
0.6202063718
0.6202105021
0.6202136358
0.6203286662
0.6203127021
0.6202976887
0.6202847079
0.6202740972
0.620265757
0.6202593864
0.6202546271
0.6202511371
0.6202486217
0.6202468407
0.620245606
0.6202447771
0.6202442809
0.6203495849
0.6203416521
0.620332633
0.6203231943
0.6203138772
0.62030506
0.6202969702
0.6202897163
0.6202833229
0.6202777606
0.6202729706
0.6202688902
0.6202655073
0.6202630725
0.620358843
0.6203550783
0.6203498997
0.6203435556
0.6203364168
0.6203288721
0.6203212618
0.6203138485
0.6203068138
0.6203002684
0.620294268
0.620288832
0.6202839704
0.6202797574
0.6202766216
0.620353411
0.6203454352
0.6203356704
0.6203251662
0.620314808
0.6203051819
0.6202965913
0.6202891304
0.6202827631
0.6202773849
0.6202728654
0.6202690742
0.620265901
0.6202632956
0.6202614274
0.6203370263
0.6203175775
0.6202974459
0.6202794532
0.6202648918
0.6202539539
0.6202462418
0.6202411352
0.6202380005
0.6202362865
0.6202355533
0.6202354676
0.6202357828
0.620236304
0.6202368097
0.6202979066
0.6202566409
0.6202233783
0.620200881
0.6201879608
0.6201822203
0.6201813303
0.6201834528
0.6201872803
0.620191941
0.6201968812
0.6202017619
0.6202063697
0.6202105001
0.6202136338
0.6202369832
0.6201782285
0.6201458736
0.6201325788
0.6201308959
0.6201356063
0.6201434752
0.6201526137
0.6201619648
0.6201709641
0.6201793323
0.6201869477
0.6201937551
0.620199638
0.6202040041
0.6202979068
0.6202566416
0.6202233797
0.6202008829
0.6201879632
0.620182223
0.6201813331
0.6201834556
0.6201872832
0.6201919438
0.6201968839
0.6202017645
0.6202063723
0.6202105026
0.6202136362
0.6203370251
0.6203175765
0.6202974457
0.620279454
0.6202648935
0.6202539563
0.6202462447
0.6202411384
0.620238004
0.6202362903
0.6202355571
0.6202354715
0.6202357867
0.620236308
0.6202368136
0.620345434
0.6203356697
0.6203251661
0.6203148085
0.6203051831
0.6202965931
0.6202891328
0.6202827659
0.6202773882
0.620272869
0.620269078
0.6202659051
0.6202632999
0.6202614319
0.6203550777
0.6203498992
0.6203435553
0.6203364169
0.6203288728
0.620321263
0.6203138502
0.620306816
0.6203002711
0.6202942712
0.6202888356
0.6202839745
0.6202797618
0.6202766264
0.6203609186
0.6203588816
0.6203558976
0.6203519629
0.6203471826
0.620341731
0.6203358118
0.6203296265
0.6203233547
0.6203171448
0.6203111124
0.6203053474
0.6202999362
0.6202950498
0.6202913039
0.6203588004
0.6203550215
0.6203498909
0.6203436949
0.6203368156
0.6203296256
0.620322431
0.620315454
0.6203088385
0.6203026659
0.6202969728
0.6202917691
0.6202870645
0.6202829408
0.6202798427
0.620353411
0.6203454353
0.6203356706
0.6203251665
0.6203148085
0.6203051826
0.6202965921
0.6202891314
0.6202827642
0.6202773862
0.6202728668
0.6202690756
0.6202659025
0.6202632972
0.620261429
0.6203435293
0.6203286684
0.6203127039
0.62029769
0.6202847087
0.6202740976
0.620265757
0.6202593861
0.6202546266
0.6202511364
0.6202486208
0.6202468397
0.6202456049
0.6202447759
0.6202442796
0.6203333948
0.6203131257
0.6202941166
0.6202781763
0.6202656536
0.6202562375
0.6202493966
0.6202445843
0.6202413196
0.6202392086
0.6202379416
0.6202372801
0.6202370407
0.6202370732
0.6202372187
0.6203435295
0.6203286688
0.6203127045
0.6202976908
0.6202847098
0.6202740989
0.6202657585
0.6202593877
0.6202546283
0.6202511382
0.6202486226
0.6202468416
0.6202456068
0.6202447779
0.6202442816
0.6203534109
0.6203454353
0.6203356707
0.620325167
0.6203148094
0.6203051839
0.6202965938
0.6202891334
0.6202827665
0.6202773887
0.6202728695
0.6202690785
0.6202659055
0.6202633003
0.6202614322
0.6203588001
0.6203550212
0.6203498908
0.620343695
0.620336816
0.6203296264
0.6203224321
0.6203154555
0.6203088404
0.6203026682
0.6202969754
0.620291772
0.6202870677
0.6202829442
0.6202798464
0.6203588812
0.6203558973
0.6203519628
0.6203471827
0.6203417314
0.6203358126
0.6203296277
0.6203233563
0.6203171467
0.6203111148
0.6203053502
0.6202999395
0.6202950534
0.6202913079
0.6203618564
0.620360623
0.6203587268
0.6203560767
0.6203526527
0.6203485033
0.6203437293
0.6203384647
0.6203328571
0.6203270525
0.6203211855
0.6203153785
0.6203097606
0.6203045607
0.6203005063
0.6203609186
0.6203588816
0.6203558976
0.620351963
0.6203471827
0.6203417312
0.620335812
0.6203296268
0.6203233551
0.6203171452
0.620311113
0.620305348
0.620299937
0.6202950506
0.6202913048
0.620358843
0.6203550783
0.6203498999
0.6203435558
0.6203364172
0.6203288728
0.6203212627
0.6203138496
0.6203068151
0.6203002699
0.6202942698
0.620288834
0.6202839726
0.6202797597
0.6202766241
0.6203557713
0.6203495858
0.6203416531
0.6203326339
0.620323195
0.6203138778
0.6203050604
0.6202969704
0.6202897163
0.6202833228
0.6202777602
0.6202729701
0.6202688895
0.6202655065
0.6202630716
0.6203535049
0.6203457277
0.6203363117
0.6203261295
0.6203158988
0.620306127
0.6202971281
0.6202890634
0.6202819854
0.6202758736
0.6202706639
0.6202662707
0.6202626082
0.620259635
0.6202575313
0.6203557714
0.6203495859
0.6203416534
0.6203326344
0.6203231956
0.6203138786
0.6203050614
0.6202969715
0.6202897175
0.6202833241
0.6202777617
0.6202729716
0.6202688911
0.6202655081
0.6202630733
0.6203588431
0.6203550784
0.6203499
0.6203435562
0.6203364178
0.6203288736
0.6203212638
0.620313851
0.6203068168
0.6203002718
0.6202942719
0.6202888363
0.6202839751
0.6202797624
0.6202766269
0.6203609185
0.6203588815
0.6203558976
0.6203519631
0.620347183
0.6203417317
0.6203358128
0.6203296279
0.6203233565
0.620317147
0.6203111151
0.6203053504
0.6202999397
0.6202950536
0.6202913081
0.6203618563
0.6203606229
0.6203587267
0.6203560766
0.6203526528
0.6203485035
0.6203437298
0.6203384655
0.6203328583
0.620327054
0.6203211874
0.6203153809
0.6203097634
0.6203045639
0.6203005098
)
;

boundaryField
{
    top
    {
        type            zeroGradient;
    }
    bottom
    {
        type            zeroGradient;
    }
    side-walls
    {
        type            zeroGradient;
    }
    inlet
    {
        type            zeroGradient;
    }
    outlet
    {
        type            zeroGradient;
    }
    procBoundary1to0
    {
        type            processor;
        value           nonuniform List<scalar> 
97
(
0.6203618563
0.6203618563
0.6203609185
0.6203588431
0.6203557716
0.6203535054
0.6203557717
0.6203588433
0.6203609187
0.6203618564
0.6203621378
0.6203588001
0.6203588001
0.6203588001
0.620353411
0.62034353
0.6203333965
0.6203435305
0.6203534116
0.6203588006
0.6203609187
0.6203611858
0.6203587723
0.6203370249
0.6203370249
0.6203370249
0.6202979079
0.6202369921
0.6202979107
0.6203370279
0.6203534116
0.6203588433
0.620359811
0.6203545763
0.6203365554
0.6201441036
0.6201441036
0.6201441036
0.6197203218
0.6201441233
0.6202979105
0.6203435304
0.6203557717
0.6203588455
0.6203506879
0.6203169481
0.6201859583
0.6162923296
0.6162923296
0.6162923296
0.6197203179
0.6197203179
0.6202369912
0.6203333963
0.6203535053
0.620359811
0.6203545763
0.620336555
0.6202850889
0.6201859562
0.6202850906
0.6202979041
0.6202979041
0.6202979041
0.6203435294
0.6203557715
0.6203611858
0.6203587723
0.6203518009
0.620336555
0.6203169478
0.6203365554
0.620351801
0.6203534104
0.6203534104
0.6203534104
0.620358843
0.6203621378
0.6203611716
0.6203587723
0.6203545762
0.6203506878
0.6203545764
0.6203587723
0.6203611716
0.6203609184
0.6203609184
0.6203609184
0.6203625738
0.6203621378
0.6203611858
0.620359811
0.6203588455
0.620359811
0.6203611858
0.6203621378
0.6203625738
)
;
    }
}


// ************************************************************************* //
