/*--------------------------------*- C++ -*----------------------------------*\
| =========                 |                                                 |
| \\      /  F ield         | OpenFOAM: The Open Source CFD Toolbox           |
|  \\    /   O peration     | Version:  4.x                                   |
|   \\  /    A nd           | Web:      www.OpenFOAM.org                      |
|    \\/     M anipulation  |                                                 |
\*---------------------------------------------------------------------------*/
FoamFile
{
    version     2.0;
    format      ascii;
    class       surfaceScalarField;
    location    "2000";
    object      phi;
}
// * * * * * * * * * * * * * * * * * * * * * * * * * * * * * * * * * * * * * //

dimensions      [1 0 -1 0 0 0 0];

internalField   nonuniform List<scalar> 
3172
(
9.16595547e-06
-6.491106715e-11
-6.463532648e-11
9.166068445e-06
-5.676839349e-11
-5.626405791e-11
9.166153391e-06
-4.061129945e-11
-4.04179808e-11
9.166208212e-06
-2.520324544e-11
-2.60918717e-11
9.166239584e-06
-1.415252998e-11
-1.403220334e-11
9.166252492e-06
-5.505638534e-12
-5.819970043e-12
9.166250136e-06
7.958922557e-13
1.737874225e-12
9.166238342e-06
5.476250152e-12
6.593438076e-12
9.166220612e-06
7.162661254e-12
9.315217343e-12
9.166199271e-06
8.86713695e-12
1.19744019e-11
9.166174175e-06
1.08648611e-11
1.2594494e-11
9.166151081e-06
1.182334434e-11
1.389299328e-11
9.166125343e-06
1.332740317e-11
1.473178151e-11
1.332263659e-11
1.23941429e-11
9.165999112e-06
-1.162621479e-10
-8.508520473e-11
9.166111722e-06
-9.748848932e-11
-7.322742567e-11
9.166187787e-06
-6.63634912e-11
-4.944028511e-11
9.166229752e-06
-4.070986231e-11
-2.785606057e-11
9.166244719e-06
-2.089370135e-11
-1.032303412e-11
9.166243367e-06
-5.73387806e-12
2.012542359e-13
9.166228669e-06
4.374327049e-12
8.042216308e-12
9.166210016e-06
1.100783783e-11
1.322228573e-11
9.166188594e-06
1.607037502e-11
1.795291518e-11
9.166163832e-06
1.825681398e-11
1.80165721e-11
9.166141339e-06
1.949357785e-11
1.751452408e-11
9.166117552e-06
1.989127733e-11
1.796454371e-11
9.166094128e-06
2.278234315e-11
1.878634414e-11
2.028049548e-11
1.54067768e-11
9.166067209e-06
-1.151093731e-10
-1.539919663e-10
9.166178592e-06
-8.756530931e-11
-1.196821657e-10
9.166231318e-06
-5.428206072e-11
-6.638712202e-11
9.166244598e-06
-2.697653868e-11
-2.626109482e-11
9.166235104e-06
-9.752553942e-12
-8.062560309e-13
9.166212202e-06
1.412418755e-12
1.386693478e-11
9.166182683e-06
8.039057257e-12
2.259531082e-11
9.166156501e-06
1.455508031e-11
2.641992801e-11
9.166131342e-06
1.726046148e-11
2.768394344e-11
9.166106328e-06
1.888716455e-11
2.412972401e-11
9.166085471e-06
1.864484758e-11
2.407748686e-11
9.166066417e-06
1.804334903e-11
2.181060807e-11
9.166048796e-06
2.038639369e-11
2.330354183e-11
1.7948182e-11
1.847112713e-11
9.166103872e-06
-8.197816704e-11
-1.521482545e-10
9.166188587e-06
-5.220690741e-11
-1.236680434e-10
9.166215375e-06
-2.667108262e-11
-5.151000369e-11
9.16620346e-06
-1.017789477e-11
-2.666060221e-12
9.166175976e-06
-1.597192419e-12
2.428739352e-11
9.166138707e-06
7.427871594e-13
3.567158133e-11
9.166106145e-06
4.528924579e-12
4.122142416e-11
9.166073409e-06
5.15750302e-12
3.877601443e-11
9.166047999e-06
5.57057565e-12
3.714515695e-11
9.166023041e-06
5.474853373e-12
3.233688197e-11
9.166006378e-06
6.973720156e-12
3.026550155e-11
9.165993313e-06
8.671555076e-12
2.679408039e-11
9.165981476e-06
8.126091667e-12
2.688930671e-11
7.536283784e-12
2.088853669e-11
9.166213786e-06
8.100206922e-11
-2.844316273e-10
9.166261911e-06
5.043134724e-11
-1.49410473e-10
9.166249231e-06
2.600740446e-11
-4.008802255e-11
9.166208708e-06
9.462146128e-12
1.915274451e-11
9.166163992e-06
7.064866144e-13
4.231531683e-11
9.166120882e-06
-3.39108412e-12
5.071540819e-11
9.166082735e-06
-5.068558621e-12
5.001062226e-11
9.166049876e-06
-6.00632197e-12
4.48580702e-11
9.166025985e-06
-6.680001901e-12
3.982114606e-11
9.166004712e-06
-6.928559434e-12
3.551556655e-11
9.165991418e-06
-7.071895959e-12
3.182753241e-11
9.165978194e-06
-5.551853262e-12
2.753378467e-11
9.165969682e-06
-4.767465297e-12
3.042335689e-11
-5.542686715e-12
2.111710454e-11
9.166104586e-06
1.165810374e-10
-1.500975462e-10
9.166190922e-06
8.929448788e-11
-1.221693443e-10
9.166215507e-06
5.486517759e-11
-5.143817933e-11
9.166201771e-06
2.638654843e-11
-3.029944899e-12
9.166174592e-06
6.855586313e-12
2.427323048e-11
9.166141219e-06
-4.015288827e-12
3.666206123e-11
9.166106051e-06
-1.153580118e-11
3.980941348e-11
9.166073667e-06
-1.401026406e-11
3.976842961e-11
9.166048585e-06
-1.653945555e-11
3.716713154e-11
9.166025645e-06
-1.775521202e-11
3.231392948e-11
9.166008645e-06
-1.773150137e-11
2.920100429e-11
9.16599452e-06
-1.746185796e-11
2.618471626e-11
9.165979519e-06
-1.973387168e-11
2.701503634e-11
-1.728191199e-11
2.170901342e-11
9.166065024e-06
1.176211412e-10
-1.506477983e-10
9.166176046e-06
9.783118386e-11
-1.182726273e-10
9.166228656e-06
6.651843452e-11
-6.666143477e-11
9.166242905e-06
4.027429364e-11
-2.490797585e-11
9.166234727e-06
1.995172457e-11
1.795478142e-12
9.166212259e-06
7.44143432e-12
1.807942112e-11
9.166186015e-06
-1.853722049e-12
2.466504928e-11
9.166154146e-06
-1.002742183e-11
2.557139117e-11
9.166130253e-06
-1.284437429e-11
2.626788707e-11
9.166105606e-06
-1.623244848e-11
2.467776668e-11
9.166082509e-06
-1.856408611e-11
2.510671839e-11
9.166063832e-06
-1.990522462e-11
2.316099765e-11
9.16604446e-06
-2.258811284e-11
2.27172631e-11
-1.994494019e-11
1.875297162e-11
9.165996468e-06
6.501470017e-11
-8.381950617e-11
9.16611065e-06
5.62572695e-11
-7.218672025e-11
9.166186932e-06
4.231038696e-11
-4.741799824e-11
9.166227146e-06
2.770527618e-11
-2.629036861e-11
9.166247396e-06
1.719522906e-11
-8.20326869e-12
9.166244775e-06
7.658945049e-12
1.333209888e-12
9.166233511e-06
1.184775147e-12
8.690630649e-12
9.166213826e-06
-5.231701292e-12
1.185357521e-11
9.166190122e-06
-9.142558513e-12
1.454749089e-11
9.166168194e-06
-1.010996652e-11
1.598055585e-11
9.166142723e-06
-1.212792685e-11
1.674788631e-11
9.166120345e-06
-1.313540245e-11
1.65790894e-11
9.166094593e-06
-1.499076524e-11
1.801132757e-11
-1.350458772e-11
1.455381064e-11
9.16595512e-06
-6.426328366e-11
9.166070872e-06
-5.576505185e-11
9.166154052e-06
-4.079667416e-11
9.166207164e-06
-2.658911749e-11
9.166241576e-06
-1.402626426e-11
9.166252644e-06
-6.028402984e-12
9.166250859e-06
7.634276259e-13
9.166240945e-06
5.262364316e-12
9.166223509e-06
7.732103695e-12
9.166203059e-06
9.11531012e-12
9.166178066e-06
1.089651345e-11
9.166155497e-06
1.231398611e-11
9.166127437e-06
1.410030315e-11
1.36463281e-11
9.165848156e-06
-1.811869303e-10
9.165984776e-06
-8.472194742e-11
-1.170378003e-10
9.166099032e-06
-7.276927325e-11
-9.822470054e-11
9.166174974e-06
-4.797301613e-11
-6.669137002e-11
9.166218462e-06
-2.615147299e-11
-3.971884555e-11
9.166233011e-06
-1.103258295e-11
-1.98123144e-11
9.166233032e-06
1.284116103e-12
-5.482413579e-12
9.166217876e-06
7.965429695e-12
5.190688223e-12
9.166198777e-06
1.277754671e-11
1.214264038e-11
9.166176883e-06
1.581323625e-11
1.677392601e-11
9.166154141e-06
1.61556295e-11
1.960402897e-11
9.166129528e-06
1.714832593e-11
1.975980916e-11
9.166106704e-06
1.72898427e-11
1.784472955e-11
9.166083999e-06
1.909577466e-11
2.199533569e-11
1.7233864e-11
2.17143007e-11
9.166043428e-06
-1.488994361e-10
-1.499110573e-10
9.166144472e-06
-1.223543549e-10
-1.219006064e-10
9.166199019e-06
-7.396134813e-11
-7.456957942e-11
9.166217992e-06
-3.456269827e-11
-3.526864472e-11
9.166211749e-06
-9.096013489e-12
-9.671237195e-12
9.166195569e-06
9.088305517e-12
8.305485033e-12
9.16617356e-06
2.069455236e-11
2.08653354e-11
9.166151372e-06
2.60763366e-11
2.53564408e-11
9.166128818e-06
2.791784995e-11
2.703892928e-11
9.166106781e-06
2.739988542e-11
2.859639722e-11
9.16608751e-06
2.79802847e-11
2.799834986e-11
9.166066266e-06
2.625257982e-11
2.491848438e-11
9.166048029e-06
2.822731682e-11
2.783699544e-11
2.411803728e-11
2.398491813e-11
9.16609834e-06
-1.477600634e-10
-2.778473703e-10
9.16616551e-06
-1.082438253e-10
-1.988937767e-10
9.166170229e-06
-5.121815913e-11
-9.239059266e-11
9.16614154e-06
-1.19150309e-11
-2.134435895e-11
9.166105555e-06
1.037759072e-11
1.702233465e-11
9.166070248e-06
2.159927549e-11
3.889768128e-11
9.16603606e-06
2.619618265e-11
4.666870498e-11
9.166011586e-06
2.704161067e-11
4.715058788e-11
9.165992248e-06
2.858346772e-11
4.648680928e-11
9.165979995e-06
2.858156409e-11
4.274848008e-11
9.165965208e-06
2.488235289e-11
3.81922335e-11
9.165956698e-06
2.361140503e-11
3.446406391e-11
9.165948255e-06
2.455493611e-11
3.691056485e-11
2.105816286e-11
2.920215978e-11
9.166145596e-06
-9.011265524e-11
-2.139472506e-10
9.166147975e-06
-5.441216829e-11
-1.758840622e-10
9.166105065e-06
-2.044607744e-11
-4.220560829e-11
9.166051104e-06
-2.431201085e-13
3.986370579e-11
9.166003769e-06
7.925653185e-12
7.133679549e-11
9.16596689e-06
1.109751687e-11
8.266252541e-11
9.165941862e-06
1.190379091e-11
8.194206383e-11
9.165928564e-06
1.24565748e-11
7.331489424e-11
9.165920241e-06
1.042168237e-11
6.426578939e-11
9.165914284e-06
9.539439995e-12
5.32768372e-11
9.165912978e-06
9.918960192e-12
4.795691158e-11
9.165915526e-06
1.033062322e-11
4.244226953e-11
9.16591899e-06
1.277849819e-11
4.29920189e-11
8.666798725e-12
3.498862461e-11
9.166270421e-06
9.098459197e-11
-3.692652113e-10
9.166156418e-06
5.329194038e-11
-1.44124818e-10
9.166050143e-06
2.000978057e-11
2.178807768e-11
9.165967744e-06
-1.065115124e-12
1.028508597e-10
9.165911904e-06
-9.275282361e-12
1.16919892e-10
9.165878089e-06
-1.402343713e-11
1.108291354e-10
9.165859935e-06
-1.434359687e-11
9.725083904e-11
9.165851201e-06
-1.225040809e-11
8.43530023e-11
9.165852414e-06
-1.150727833e-11
7.193513452e-11
9.165853799e-06
-1.144033287e-11
5.893868981e-11
9.1658583e-06
-1.136088444e-11
5.132894448e-11
9.165864465e-06
-1.017282414e-11
4.490499106e-11
9.165867416e-06
-1.120766541e-11
4.346743819e-11
-7.133694543e-12
3.591138714e-11
9.166140081e-06
1.495641303e-10
-2.127432343e-10
9.166142312e-06
1.089552037e-10
-1.771765654e-10
9.166101827e-06
5.076820298e-11
-4.318188657e-11
9.166048714e-06
1.176785406e-11
3.980336285e-11
9.166000215e-06
-1.006663166e-11
7.209172673e-11
9.165966198e-06
-2.06881458e-11
8.405921311e-11
9.16594284e-06
-2.648300817e-11
8.201154688e-11
9.165923942e-06
-2.863370833e-11
7.2261281e-11
9.165915379e-06
-2.843842178e-11
6.524092143e-11
9.165913027e-06
-2.665479952e-11
5.557865337e-11
9.165914844e-06
-2.40460186e-11
5.041364582e-11
9.165915267e-06
-2.21600002e-11
4.301898352e-11
9.165917321e-06
-2.51726088e-11
4.26763004e-11
-2.130772052e-11
3.420379321e-11
9.166121383e-06
1.510726186e-10
-2.752128384e-10
9.166188852e-06
1.24194573e-10
-1.990838499e-10
9.16619515e-06
7.732043144e-11
-9.240537308e-11
9.166168275e-06
3.67965027e-11
-2.101854312e-11
9.166129888e-06
9.128426793e-12
1.744966396e-11
9.166092314e-06
-9.204851666e-12
3.939128758e-11
9.166061695e-06
-1.896068217e-11
4.695267157e-11
9.16603545e-06
-2.515754019e-11
4.847182746e-11
9.166017061e-06
-2.664025805e-11
4.850213516e-11
9.166002147e-06
-2.695927642e-11
4.356124538e-11
9.165988598e-06
-2.737792393e-11
3.919266017e-11
9.165979599e-06
-2.701685864e-11
3.495404143e-11
9.165971257e-06
-2.895717033e-11
3.594652421e-11
-2.374718753e-11
2.984814378e-11
9.166033788e-06
8.495196605e-11
-1.51596468e-10
9.166135941e-06
7.379045219e-11
-1.214252264e-10
9.166191337e-06
4.923643028e-11
-7.455549529e-11
9.16621111e-06
2.752770157e-11
-3.622871115e-11
9.166209352e-06
1.259436544e-11
-8.186261287e-12
9.166192656e-06
7.714007778e-13
9.716261883e-12
9.166169994e-06
-7.256205133e-12
1.968197587e-11
9.166147637e-06
-1.243248573e-11
2.507968865e-11
9.166124738e-06
-1.607079857e-11
2.909350788e-11
9.1661038e-06
-1.622092184e-11
2.937222762e-11
9.166082176e-06
-1.84638484e-11
2.757899751e-11
9.166066126e-06
-1.789209134e-11
2.645640366e-11
9.166047783e-06
-1.863811051e-11
2.680660824e-11
-1.430175059e-11
2.362240349e-11
9.165995812e-06
-1.1761132e-10
9.166109149e-06
-9.651083815e-11
9.166186567e-06
-6.65598969e-11
9.166228492e-06
-4.001321335e-11
9.166244746e-06
-2.035337262e-11
9.166243272e-06
-5.923307616e-12
9.166230129e-06
2.898031234e-12
9.166212643e-06
1.021919482e-11
9.166191934e-06
1.642460607e-11
9.166168034e-06
1.863657845e-11
9.166144304e-06
2.026222971e-11
9.166121512e-06
2.027336903e-11
9.166097458e-06
2.243101481e-11
1.896442333e-11
9.16590321e-06
-2.89361548e-10
-2.131131312e-10
9.166053315e-06
-1.511925562e-10
-1.147127855e-10
9.166165185e-06
-1.171100464e-10
-8.792155822e-11
9.166218017e-06
-6.538558703e-11
-5.304960181e-11
9.166232592e-06
-2.516233294e-11
-2.477739129e-11
9.166221214e-06
-1.206591203e-12
-6.55826611e-12
9.166200144e-06
1.434752548e-11
3.997833879e-12
9.166170061e-06
2.344351809e-11
1.024306527e-11
9.166142359e-06
2.633469519e-11
1.426829852e-11
9.166116142e-06
2.640146351e-11
1.653579063e-11
9.166088982e-06
2.509435108e-11
1.779971811e-11
9.166067952e-06
2.488210758e-11
1.985279587e-11
9.166049002e-06
2.344734867e-11
1.961667203e-11
9.166032442e-06
2.556492927e-11
1.996670669e-11
2.002549663e-11
1.70268618e-11
9.165990282e-06
-4.021663864e-10
9.166116139e-06
-2.764974814e-10
-1.487791984e-10
9.166179497e-06
-1.997594949e-10
-1.102702527e-10
9.166186115e-06
-9.170757961e-11
-5.042848107e-11
9.166159646e-06
-2.07306714e-11
-1.076231153e-11
9.166122176e-06
1.772528806e-11
1.082532492e-11
9.166086792e-06
3.954607852e-11
2.155153825e-11
9.166053507e-06
4.730359935e-11
2.765139379e-11
9.166028702e-06
4.851092066e-11
2.885955105e-11
9.166010463e-06
4.646137881e-11
2.803265514e-11
9.165994949e-06
4.240275876e-11
2.6790029e-11
9.165981762e-06
3.802297064e-11
2.524000128e-11
9.165977065e-06
3.589154626e-11
2.43183361e-11
9.165968585e-06
3.665304556e-11
2.358146918e-11
2.984711873e-11
2.087142049e-11
9.166232739e-06
-2.966734058e-10
-2.973926512e-10
9.166183064e-06
-1.729306715e-10
-1.74970597e-10
9.16608104e-06
-4.162257915e-11
-4.215950923e-11
9.165986012e-06
2.601202605e-11
2.455221477e-11
9.165923504e-06
5.232132475e-11
5.193787207e-11
9.165881042e-06
5.910454106e-11
5.931083056e-11
9.165857925e-06
5.809614042e-11
5.828786877e-11
9.165853518e-06
5.174331726e-11
5.45466778e-11
9.165851927e-06
4.602909429e-11
4.62600813e-11
9.16585955e-06
3.982365743e-11
4.093369391e-11
9.165869141e-06
3.648884845e-11
3.596816991e-11
9.16587819e-06
3.233315107e-11
3.157440388e-11
9.16588602e-06
3.214924134e-11
3.229954676e-11
2.751232447e-11
2.620305216e-11
9.166126507e-06
-1.434561815e-10
-4.406873162e-11
9.165921471e-06
-7.53123072e-11
-7.249257593e-11
9.165770413e-06
-6.104239254e-12
7.349784781e-11
9.165682064e-06
2.580280022e-11
1.299564334e-10
9.165650205e-06
3.213716846e-11
1.270110832e-10
9.16565142e-06
2.933759973e-11
1.119027648e-10
9.165669984e-06
2.50046628e-11
9.290041995e-11
9.165703306e-06
2.268028489e-11
7.71182005e-11
9.165732602e-06
1.768708492e-11
6.015408711e-11
9.165764468e-06
1.616878664e-11
5.107684896e-11
9.165794117e-06
1.459972515e-11
4.22595825e-11
9.165819356e-06
1.391130192e-11
3.607083676e-11
9.165848131e-06
1.398158083e-11
3.725894526e-11
9.959672119e-12
2.926887744e-11
9.166292601e-06
1.46511746e-10
5.661764817e-11
9.165805275e-06
7.483343232e-11
2.033479071e-10
9.165576503e-06
3.773367601e-12
2.470786222e-10
9.165492081e-06
-2.602904884e-11
2.427854333e-10
9.165483204e-06
-3.258144185e-11
1.85913559e-10
9.165515817e-06
-3.198721701e-11
1.417989721e-10
9.165561709e-06
-2.73388315e-11
1.080160573e-10
9.165609789e-06
-2.37246463e-11
8.413550784e-11
9.165656581e-06
-1.916101892e-11
6.611073605e-11
9.165697226e-06
-1.622789874e-11
5.293031812e-11
9.165735532e-06
-1.254551433e-11
4.627658017e-11
9.165764473e-06
-1.229704363e-11
3.697481796e-11
9.165798105e-06
-1.309466335e-11
3.750800602e-11
-1.023769973e-11
3.011864218e-11
9.166108891e-06
2.986035223e-10
-4.402936202e-11
9.165906169e-06
1.744021898e-10
-7.207041824e-11
9.165757068e-06
4.325517446e-11
7.42974924e-11
9.165668447e-06
-2.767612862e-11
1.30304666e-10
9.165632965e-06
-5.311667873e-11
1.263623638e-10
9.16563747e-06
-5.925264891e-11
1.132254518e-10
9.165656807e-06
-5.918762564e-11
9.422508222e-11
9.165687799e-06
-5.15105113e-11
7.789316118e-11
9.165718779e-06
-4.439704516e-11
6.354117943e-11
9.165750486e-06
-3.915691326e-11
5.1403679e-11
9.165779298e-06
-3.626852808e-11
4.354610789e-11
9.165802954e-06
-3.132076641e-11
3.61896567e-11
9.165831981e-06
-3.164090824e-11
3.705356115e-11
-2.547583652e-11
3.141290494e-11
9.166280199e-06
2.756469829e-10
-2.980275493e-10
9.166233598e-06
2.017866411e-10
-1.732351891e-10
9.166134472e-06
9.467433017e-11
-4.190158319e-11
9.166041802e-06
2.206859292e-11
2.719551685e-11
9.165975211e-06
-1.722618589e-11
5.272162829e-11
9.16593224e-06
-3.881731696e-11
6.029654948e-11
9.165914825e-06
-4.637695621e-11
5.936070144e-11
9.165907397e-06
-4.824261064e-11
5.362933089e-11
9.165906527e-06
-4.663811073e-11
4.527176401e-11
9.165911511e-06
-4.126019807e-11
3.936807948e-11
9.165920325e-06
-3.977209365e-11
3.543622859e-11
9.165926696e-06
-3.563795562e-11
3.118302125e-11
9.165936887e-06
-3.707508765e-11
3.180245823e-11
-2.989950393e-11
2.651727056e-11
9.166114018e-06
1.525559649e-10
-1.507035766e-10
9.166178353e-06
1.185360715e-10
-1.105972107e-10
9.16618207e-06
6.667317087e-11
-5.191011968e-11
9.166154838e-06
2.608627384e-11
-1.171662323e-11
9.166117947e-06
1.536170133e-12
9.95634504e-12
9.166081708e-06
-1.524774676e-11
2.326032736e-11
9.166051405e-06
-2.404283694e-11
2.689611375e-11
9.166026796e-06
-2.615897617e-11
2.916922438e-11
9.166006731e-06
-2.720032189e-11
2.791895152e-11
9.165990993e-06
-2.594362368e-11
2.664620847e-11
9.165980739e-06
-2.494358747e-11
2.617198321e-11
9.165970953e-06
-2.222021857e-11
2.352532989e-11
9.165964943e-06
-2.210872907e-11
2.540953911e-11
-1.850136951e-11
2.197377748e-11
9.166079032e-06
-1.161496077e-10
9.166189983e-06
-8.886622965e-11
9.166243381e-06
-5.379726657e-11
9.166257371e-06
-2.588690586e-11
9.16624714e-06
-9.2654705e-12
9.166225818e-06
3.214671759e-12
9.166198938e-06
1.084419048e-11
9.166169759e-06
1.481553394e-11
9.166142383e-06
1.614478528e-11
9.166116543e-06
1.736525094e-11
9.166093978e-06
1.888596011e-11
9.166076208e-06
1.904845178e-11
9.166056773e-06
2.093949265e-11
1.678136861e-11
9.165996842e-06
-4.521135058e-10
-1.883022217e-10
9.166118213e-06
-1.517079762e-10
-8.13405684e-11
9.166204924e-06
-1.22770825e-10
-5.105483319e-11
9.166230794e-06
-5.079112842e-11
-2.531474399e-11
9.166220082e-06
-2.261496464e-12
-1.021436947e-11
9.166189959e-06
2.301034912e-11
-3.365653758e-12
9.166155747e-06
3.545898235e-11
7.31661507e-13
9.166118061e-06
4.101937556e-11
3.944562873e-12
9.16608648e-06
4.017222473e-11
6.502783704e-12
9.166061707e-06
3.715591313e-11
7.370269015e-12
9.166038315e-06
3.272206555e-11
7.559788897e-12
9.166020222e-06
2.947018783e-11
7.798168598e-12
9.166006233e-06
2.703339753e-11
8.838502634e-12
9.165993673e-06
2.894408036e-11
1.04916044e-11
2.273386087e-11
8.332640036e-12
9.166125335e-06
-1.072615814e-09
-3.813036299e-10
9.166125389e-06
-2.120981172e-10
-8.936514762e-11
9.166124913e-06
-1.759253482e-10
-5.336434769e-11
9.166082353e-06
-4.120228381e-11
-2.171770948e-11
9.166029318e-06
3.889432062e-11
-1.391398411e-12
9.165981125e-06
7.197001861e-11
6.611598906e-12
9.165947016e-06
8.44159552e-11
1.11515721e-11
9.165919393e-06
8.218711684e-11
1.143800793e-11
9.165905593e-06
7.550513819e-11
1.327424071e-11
9.165899036e-06
6.562181859e-11
1.234571327e-11
9.165895279e-06
5.569806287e-11
1.050660239e-11
9.165893607e-06
4.854852515e-11
1.048358071e-11
9.165896125e-06
4.343051114e-11
1.133347939e-11
9.165898867e-06
4.409073704e-11
1.150588796e-11
3.506893506e-11
9.660410355e-12
9.166432178e-06
-1.093825345e-09
9.166115459e-06
-4.321183303e-11
-1.446164582e-10
9.165913557e-06
-7.071241989e-11
-7.474045578e-11
9.165759169e-06
7.262032156e-11
-6.017208066e-12
9.165673092e-06
1.306356765e-10
2.73853887e-11
9.165640375e-06
1.272801486e-10
3.06048555e-11
9.165641787e-06
1.113920844e-10
2.877356023e-11
9.165661829e-06
9.153866622e-11
2.359417759e-11
9.165689698e-06
7.455392251e-11
2.04011524e-11
9.165723183e-06
6.110408056e-11
1.838895991e-11
9.16575592e-06
5.041274257e-11
1.621588329e-11
9.165784296e-06
4.233253019e-11
1.481588684e-11
9.165812285e-06
3.620303388e-11
1.255570037e-11
9.165837387e-06
3.651813739e-11
1.182777529e-11
3.054332406e-11
9.703543997e-12
9.165070416e-06
4.947072251e-10
4.926981321e-10
9.164901352e-06
1.3371859e-11
1.280149125e-11
9.164920543e-06
6.715419973e-11
6.758967469e-11
9.165012563e-06
8.631071793e-11
8.803662769e-11
9.165132854e-06
6.842487819e-11
6.856199139e-11
9.165254895e-06
5.376462289e-11
5.30131311e-11
9.165364787e-06
3.924865729e-11
4.022014427e-11
9.16545732e-06
3.07700014e-11
3.165821323e-11
9.165538242e-06
2.583302836e-11
2.553570675e-11
9.165603134e-06
1.940289277e-11
2.049953946e-11
9.165660869e-06
1.906135016e-11
1.839503999e-11
9.16570854e-06
1.523501639e-11
1.47509251e-11
9.165757083e-06
1.444054893e-11
1.413722147e-11
1.349529411e-11
1.079197693e-11
9.164405162e-06
-4.938332e-10
3.117434388e-09
9.164331584e-06
-1.46121749e-11
3.132738632e-10
9.164588258e-06
-6.853838808e-11
1.373071452e-10
9.164870887e-06
-8.741658128e-11
1.446996725e-10
9.16510974e-06
-7.004936972e-11
9.242658396e-11
9.16530303e-06
-5.419510895e-11
6.060923561e-11
9.165456311e-06
-4.059467144e-11
4.459380078e-11
9.16557248e-06
-3.141142855e-11
3.370340144e-11
9.165666634e-06
-2.346459134e-11
2.516114472e-11
9.165745361e-06
-1.817874989e-11
1.994158007e-11
9.165808463e-06
-1.641373309e-11
1.706453955e-11
9.165862559e-06
-1.356432076e-11
1.325055692e-11
9.165923321e-06
-1.291952363e-11
1.454928623e-11
-1.174889736e-11
3.520518634e-12
9.165096365e-06
4.438791702e-11
4.937366883e-10
9.164930692e-06
7.272775449e-11
1.459558523e-11
9.16495173e-06
-7.315027679e-11
6.971971268e-11
9.165041372e-06
-1.305116951e-10
8.793335049e-11
9.165163706e-06
-1.259878447e-10
7.080803564e-11
9.165283688e-06
-1.12472344e-10
5.409848218e-11
9.16539422e-06
-9.349353286e-11
4.127421901e-11
9.165489938e-06
-7.615583179e-11
3.24258118e-11
9.165568157e-06
-6.327141384e-11
2.386515365e-11
9.165635413e-06
-5.152971514e-11
1.880246201e-11
9.165691099e-06
-4.451011083e-11
1.509476444e-11
9.16573795e-06
-3.674757707e-11
1.296906294e-11
9.165786706e-06
-3.734303864e-11
1.365072148e-11
-3.015806908e-11
1.040402203e-11
9.16609118e-06
2.117500889e-10
-1.44078953e-10
9.165888227e-06
1.762803245e-10
-7.387349502e-11
9.165737323e-06
4.269004626e-11
-3.420023678e-12
9.165648319e-06
-3.88442377e-11
2.78391049e-11
9.165617388e-06
-7.208636531e-11
3.223115842e-11
9.165617777e-06
-8.225251126e-11
3.141882738e-11
9.165639859e-06
-8.147296588e-11
2.663686589e-11
9.165670967e-06
-7.366347346e-11
2.271371263e-11
9.165704299e-06
-6.487954406e-11
2.032211669e-11
9.165734584e-06
-5.490597241e-11
1.6319477e-11
9.165764243e-06
-4.825628866e-11
1.337376624e-11
9.1657893e-06
-4.210799538e-11
1.14554116e-11
9.165815937e-06
-4.319605505e-11
1.252170939e-11
-3.416927823e-11
1.062194106e-11
9.166147511e-06
1.526871811e-10
-8.895728771e-11
9.166148462e-06
1.243656508e-10
-5.277008635e-11
9.166107005e-06
5.307713107e-11
-2.01983571e-11
9.166053912e-06
3.047147399e-12
1.908034078e-13
9.166006795e-06
-2.36680837e-11
9.796942209e-12
9.165968126e-06
-3.753729207e-11
1.167102242e-11
9.165945917e-06
-4.212765491e-11
1.377998407e-11
9.165930422e-06
-4.006497695e-11
1.36253222e-11
9.16592185e-06
-3.807866154e-11
1.269160722e-11
9.165916517e-06
-3.379121031e-11
1.130154379e-11
9.16591708e-06
-2.998663661e-11
1.053724333e-11
9.16591796e-06
-2.586487302e-11
9.265323277e-12
9.165920841e-06
-2.598490471e-11
1.027501109e-11
-2.288554927e-11
7.313447319e-12
9.166102079e-06
-8.124930227e-11
9.16618726e-06
-5.079204104e-11
9.166211951e-06
-2.669498117e-11
9.166198329e-06
-9.118034466e-12
9.166172286e-06
-9.764186784e-14
9.166135994e-06
4.709152185e-12
9.166102963e-06
5.466072811e-12
9.166069838e-06
7.161050029e-12
9.166045742e-06
8.129440711e-12
9.166022323e-06
8.049252131e-12
9.166005126e-06
8.56227246e-12
9.165992629e-06
7.476929723e-12
9.165978296e-06
7.834929281e-12
7.213556015e-12
9.166066994e-06
-1.036103911e-09
1.866960704e-10
9.166189653e-06
-2.824955601e-10
8.118593302e-11
9.16623956e-06
-1.496351311e-10
5.224052951e-11
9.166224864e-06
-4.237047932e-11
2.692563268e-11
9.166184968e-06
1.895345993e-11
1.110239031e-11
9.166138219e-06
4.086351551e-11
1.698007466e-12
9.1660963e-06
5.025242076e-11
-1.992446749e-12
9.166059125e-06
5.060041944e-11
-5.836384842e-12
9.16602756e-06
4.661191241e-11
-7.956377781e-12
9.166003396e-06
4.188890451e-11
-6.85091034e-12
9.16598336e-06
3.473500803e-11
-6.859743216e-12
9.165967087e-06
3.132319651e-11
-8.393019826e-12
9.165956287e-06
2.876605436e-11
-7.868909966e-12
9.165945698e-06
2.98392557e-11
-8.318788607e-12
2.370827759e-11
-8.087751011e-12
9.166390717e-06
-2.939395028e-09
3.812847589e-10
9.166294075e-06
-3.675850926e-10
8.921558938e-11
9.166179214e-06
-1.430270942e-10
5.357975738e-11
9.16607472e-06
2.321115787e-11
2.192485907e-11
9.165992054e-06
1.034963368e-10
2.7357525e-13
9.165938737e-06
1.171920695e-10
-7.317823893e-12
9.165905856e-06
1.111223613e-10
-1.141258046e-11
9.165886397e-06
9.700857188e-11
-1.37888583e-11
9.165875965e-06
8.338775198e-11
-1.307387902e-11
9.165874581e-06
7.048995012e-11
-1.131800982e-11
9.165876073e-06
6.00750723e-11
-9.00222556e-12
9.165879878e-06
5.247170545e-11
-8.79126472e-12
9.165884944e-06
4.376300986e-11
-8.99393481e-12
9.165891897e-06
4.446042217e-11
-8.815283475e-12
3.570050143e-11
-8.908076781e-12
9.167016362e-06
-7.647178377e-09
1.093659485e-09
9.166305945e-06
5.486674139e-11
1.443644203e-10
9.165818833e-06
2.023981028e-10
7.370242901e-11
9.165589491e-06
2.466271592e-10
3.909996284e-12
9.165503399e-06
2.429518524e-10
-2.701783791e-11
9.16549971e-06
1.872966203e-10
-3.190409729e-11
9.165532321e-06
1.428889731e-10
-2.964463583e-11
9.165578723e-06
1.085565358e-10
-2.638739576e-11
9.165625368e-06
8.398223278e-11
-2.232618872e-11
9.165672293e-06
6.58507941e-11
-1.758786044e-11
9.165711004e-06
5.291470339e-11
-1.45131608e-11
9.165746197e-06
4.48957155e-11
-1.277573986e-11
9.16577716e-06
3.753452974e-11
-1.153143829e-11
9.165810967e-06
3.876674619e-11
-1.174869142e-11
2.91364788e-11
-1.032129435e-11
9.16644741e-06
2.233569039e-09
9.164384275e-06
3.119575681e-09
-4.929351812e-10
9.164311736e-06
3.139836767e-10
-1.37759901e-11
9.164567341e-06
1.371132704e-10
-6.788002003e-11
9.164849965e-06
1.438853219e-10
-8.886870275e-11
9.165090482e-06
9.263187549e-11
-7.097372078e-11
9.165283692e-06
6.084521163e-11
-5.362482927e-11
9.165437405e-06
4.396081326e-11
-4.059670221e-11
9.165555382e-06
3.243400873e-11
-3.146108964e-11
9.165651256e-06
2.514848899e-11
-2.246207811e-11
9.165727782e-06
1.970853051e-11
-1.717263457e-11
9.165791993e-06
1.717320028e-11
-1.499782412e-11
9.165845797e-06
1.373518187e-11
-1.432868245e-11
9.165903369e-06
1.448735098e-11
-1.463097485e-11
6.237564386e-12
-1.242386972e-11
9.25658893e-06
-3.117505003e-09
-3.11949544e-09
9.25798565e-06
-3.130150668e-10
-3.133410707e-10
9.258668633e-06
-1.367871208e-10
-1.372489952e-10
9.259376677e-06
-1.441550264e-10
-1.452885908e-10
9.259873163e-06
-9.224413127e-11
-9.305396936e-11
9.260245815e-06
-6.121020434e-11
-6.118132666e-11
9.260542977e-06
-4.37700619e-11
-4.273802102e-11
9.260794374e-06
-3.185600502e-11
-3.219554692e-11
9.261017822e-06
-2.419307601e-11
-2.377759027e-11
9.261220809e-06
-1.96886178e-11
-1.833790016e-11
9.261407966e-06
-1.69173506e-11
-1.566904919e-11
9.261582355e-06
-1.441041488e-11
-1.442821554e-11
9.261764692e-06
-1.453020258e-11
-1.44084186e-11
-3.747964915e-12
-4.165907772e-12
9.164386334e-06
-5.564927419e-11
-4.949376286e-10
9.164314708e-06
-2.023812524e-10
-1.388561919e-11
9.164569679e-06
-2.470163178e-10
-6.861109762e-11
9.16485336e-06
-2.434160437e-10
-8.829254446e-11
9.165093389e-06
-1.868163215e-10
-6.988545221e-11
9.165284971e-06
-1.417106025e-10
-5.312030082e-11
9.165436947e-06
-1.086442417e-10
-3.908210017e-11
9.165553515e-06
-8.488584005e-11
-3.076556982e-11
9.165649223e-06
-6.61748938e-11
-2.393398427e-11
9.165727203e-06
-5.312896598e-11
-1.9230847e-11
9.165790951e-06
-4.569383016e-11
-1.6697309e-11
9.16584735e-06
-3.717233868e-11
-1.30493379e-11
9.165904827e-06
-3.864929392e-11
-1.385135088e-11
-2.832683986e-11
-1.198988766e-11
9.166313754e-06
3.680822446e-10
1.434715372e-10
9.165826899e-06
1.427685624e-10
7.357012261e-11
9.165598951e-06
-2.243841805e-11
5.632444627e-12
9.165513284e-06
-1.040342987e-10
-2.548873103e-11
9.165509491e-06
-1.164484901e-10
-3.238886079e-11
9.165540109e-06
-1.115291733e-10
-3.075756692e-11
9.165587745e-06
-9.700063843e-11
-2.536066408e-11
9.165635009e-06
-8.384497124e-11
-2.144749891e-11
9.165680722e-06
-7.13039314e-11
-1.891863295e-11
9.165721897e-06
-5.806702652e-11
-1.467427948e-11
9.165758554e-06
-5.145508585e-11
-1.330131006e-11
9.165791674e-06
-4.385555574e-11
-1.067139225e-11
9.165824675e-06
-4.464727363e-11
-1.139549276e-11
-3.619036003e-11
-1.046641575e-11
9.166301482e-06
2.829466621e-10
9.0712712e-11
9.166189496e-06
1.511592785e-10
5.459736041e-11
9.166084648e-06
4.16536249e-11
2.237275635e-11
9.166003532e-06
-1.730055128e-11
2.770392946e-12
9.165945459e-06
-4.233903588e-11
-8.353721625e-12
9.165913391e-06
-4.998662049e-11
-1.173861988e-11
9.165892951e-06
-5.125464512e-11
-1.181146749e-11
9.165884803e-06
-4.673067317e-11
-1.228314628e-11
9.165882522e-06
-4.14896919e-11
-1.116832159e-11
9.165883084e-06
-3.589234959e-11
-1.163650184e-11
9.165887049e-06
-3.115545954e-11
-8.899062437e-12
9.165892958e-06
-2.734216134e-11
-7.924053124e-12
9.165898898e-06
-2.922861786e-11
-8.869615325e-12
-2.249856509e-11
-7.206131161e-12
9.166208394e-06
8.29003732e-11
9.16625746e-06
5.154000911e-11
9.166244595e-06
2.86540501e-11
9.16620275e-06
1.253855056e-11
9.166159719e-06
1.830344753e-12
9.166115263e-06
-3.425447904e-12
9.166078881e-06
-3.695206815e-12
9.166047257e-06
-5.752369813e-12
9.166022019e-06
-6.890421619e-12
9.166001003e-06
-8.214410904e-12
9.165986422e-06
-7.295508236e-12
9.165977195e-06
-6.862769172e-12
9.165967801e-06
-6.728557474e-12
-7.189381018e-12