/*--------------------------------*- C++ -*----------------------------------*\
| =========                 |                                                 |
| \\      /  F ield         | OpenFOAM: The Open Source CFD Toolbox           |
|  \\    /   O peration     | Version:  4.x                                   |
|   \\  /    A nd           | Web:      www.OpenFOAM.org                      |
|    \\/     M anipulation  |                                                 |
\*---------------------------------------------------------------------------*/
FoamFile
{
    version     2.0;
    format      ascii;
    class       volScalarField;
    location    "2000";
    object      rhoeps;
}
// * * * * * * * * * * * * * * * * * * * * * * * * * * * * * * * * * * * * * //

dimensions      [1 -3 0 0 0 0 0];

internalField   nonuniform List<scalar> 
1174
(
0.2699636633
0.2699643515
0.2699652454
0.2699664339
0.2699679432
0.2699696301
0.2699714896
0.2699734872
0.2699755572
0.2699775861
0.2699796316
0.2699816084
0.2699834132
0.2699848013
0.2699647566
0.269965848
0.2699672089
0.2699688836
0.2699707552
0.2699728686
0.2699750216
0.2699772071
0.269979381
0.2699815159
0.2699835688
0.2699854617
0.2699872048
0.2699885236
0.2699663665
0.2699681991
0.2699704362
0.2699729621
0.2699755954
0.269978285
0.2699809174
0.2699833959
0.2699857441
0.2699878956
0.2699898148
0.2699915504
0.2699930064
0.2699941268
0.2699680003
0.2699708074
0.269973974
0.2699773156
0.2699806274
0.2699837651
0.2699865875
0.2699891297
0.2699913726
0.2699933377
0.2699949935
0.2699963999
0.2699976074
0.2699984408
0.2699696599
0.269972965
0.2699765421
0.26998013
0.2699835391
0.2699867163
0.2699895512
0.2699920633
0.2699941752
0.2699959912
0.2699975641
0.269998845
0.2699999141
0.2700006701
0.2699680208
0.2699708558
0.2699740204
0.2699773787
0.2699806479
0.2699837352
0.2699865714
0.2699891204
0.2699913687
0.2699933415
0.269995008
0.269996435
0.269997605
0.2699984593
0.2699663511
0.2699681795
0.2699704347
0.2699729004
0.2699755576
0.2699782545
0.2699808655
0.2699833519
0.2699856591
0.2699877857
0.2699897096
0.269991443
0.2699929135
0.2699940552
0.2699647264
0.2699657951
0.2699671759
0.2699688608
0.2699707667
0.2699728706
0.2699750929
0.2699772992
0.2699794833
0.2699816273
0.26998363
0.2699855108
0.2699872465
0.2699885727
0.2699637358
0.269964385
0.269965348
0.2699665514
0.2699679993
0.2699697139
0.2699715863
0.2699735317
0.2699755715
0.2699776589
0.2699796986
0.2699816794
0.269983524
0.2699849821
0.2699636239
0.2699642966
0.2699653415
0.2699667408
0.2699684811
0.2699704134
0.2699724843
0.2699746801
0.2699769078
0.2699791114
0.269981232
0.2699832706
0.2699851662
0.2699868923
0.2699882221
0.2699661354
0.2699679699
0.2699701908
0.2699725984
0.269975138
0.2699776696
0.2699801203
0.2699824636
0.2699846882
0.2699866946
0.2699885554
0.269990237
0.2699916609
0.269992764
0.2699686896
0.2699721587
0.2699758749
0.2699794978
0.2699828861
0.2699859382
0.26998853
0.2699907774
0.2699926554
0.2699942331
0.2699955643
0.2699967139
0.2699976475
0.2699982817
0.2699753698
0.2699810087
0.269986317
0.2699909284
0.2699946522
0.2699975574
0.2699997833
0.2700014676
0.2700027217
0.2700035964
0.2700042484
0.2700046954
0.2700049398
0.2700051317
0.269979938
0.2699866381
0.2699922342
0.269996638
0.2699999641
0.2700023894
0.2700041291
0.2700052785
0.270006087
0.2700065629
0.2700068175
0.2700069262
0.2700069372
0.2700068498
0.2699752693
0.2699809535
0.2699862413
0.2699908169
0.2699945138
0.2699974376
0.2699997354
0.2700014159
0.2700026297
0.2700035084
0.270004132
0.2700046083
0.2700048985
0.2700050969
0.2699694735
0.2699728782
0.2699765579
0.2699801992
0.2699835756
0.2699866211
0.2699892211
0.2699914305
0.2699933249
0.2699949326
0.2699962675
0.2699973791
0.2699982512
0.2699989145
0.2699660105
0.2699678028
0.2699700277
0.2699724596
0.2699750249
0.2699775521
0.2699800401
0.2699823784
0.2699845583
0.2699865551
0.2699884077
0.2699900663
0.2699915527
0.2699926168
0.2699646968
0.2699657634
0.2699671654
0.2699688987
0.2699708449
0.26997292
0.2699750829
0.269977286
0.2699794696
0.2699816025
0.2699836477
0.2699855603
0.2699873014
0.2699886184
0.2699646345
0.269966018
0.2699678292
0.2699700514
0.2699725725
0.2699752307
0.2699779024
0.2699805394
0.2699830353
0.2699853584
0.2699874433
0.2699893421
0.2699910621
0.2699925781
0.2699937033
0.2699664044
0.2699692122
0.2699726227
0.2699763323
0.2699799747
0.2699833877
0.269986424
0.2699890551
0.2699912792
0.2699931774
0.2699947682
0.2699961209
0.269997255
0.2699981781
0.26999884
0.269978993
0.2699860585
0.2699923706
0.2699975294
0.2700014073
0.2700041398
0.2700059422
0.270007053
0.2700076524
0.2700078767
0.2700078818
0.2700078225
0.2700076176
0.2700074654
0.2700010057
0.2700127521
0.270020707
0.2700252891
0.270027315
0.2700276556
0.2700268879
0.270025519
0.2700239015
0.2700221554
0.2700204203
0.2700187786
0.2700173197
0.2700162151
0.2700279699
0.2700393476
0.2700440642
0.2700446599
0.2700429607
0.2700401611
0.2700369569
0.2700337071
0.270030546
0.2700275502
0.2700248982
0.2700225278
0.2700204597
0.2700188667
0.2700006277
0.2700123524
0.2700202697
0.2700248355
0.2700268937
0.2700271947
0.2700264395
0.2700250789
0.2700234386
0.2700217084
0.2700200134
0.2700183568
0.2700169163
0.2700157791
0.2699805226
0.2699876034
0.2699939534
0.2699990731
0.27000295
0.2700057151
0.2700074985
0.2700085972
0.2700091776
0.2700094345
0.2700094417
0.2700093057
0.2700090773
0.270008824
0.2699691566
0.2699725909
0.2699762601
0.2699799084
0.2699832978
0.2699863255
0.2699889391
0.2699911963
0.2699931007
0.2699946668
0.2699960024
0.2699971091
0.2699980193
0.2699987043
0.2699667521
0.2699685571
0.2699707899
0.2699733151
0.269976023
0.2699786863
0.2699813035
0.2699837843
0.2699860799
0.2699881944
0.2699900987
0.2699918109
0.2699932987
0.2699943986
0.2699662609
0.2699684173
0.2699712147
0.2699744674
0.2699777923
0.2699810808
0.2699841674
0.2699870094
0.2699895875
0.2699918075
0.2699937573
0.2699954403
0.2699968549
0.2699980559
0.2699989422
0.2699694973
0.2699747519
0.2699803978
0.269985728
0.2699902862
0.2699940274
0.2699969566
0.2699992159
0.2700008625
0.2700020922
0.2700030078
0.2700036078
0.270004071
0.2700044013
0.270004599
0.2699861355
0.2700007228
0.2700125127
0.2700204669
0.2700250204
0.2700270452
0.2700273562
0.2700266029
0.2700252129
0.2700235968
0.2700218815
0.2700201695
0.2700185408
0.2700171243
0.2700159763
0.2700728165
0.2700869393
0.2700887057
0.2700839973
0.270076436
0.2700681525
0.2700601279
0.2700528387
0.2700463405
0.2700406952
0.2700358205
0.2700316561
0.2700281484
0.2700256361
0.2702182669
0.270198503
0.270169476
0.2701420428
0.2701189122
0.2701001958
0.2700851172
0.2700730218
0.2700631741
0.2700550996
0.2700484633
0.2700429632
0.2700384868
0.2700353542
0.270073586
0.2700877067
0.270089535
0.2700848421
0.2700772918
0.2700690143
0.270060976
0.2700536771
0.2700471806
0.2700415758
0.2700366942
0.270032554
0.2700290895
0.2700265363
0.2700000617
0.2700118352
0.2700197372
0.270024316
0.270026335
0.2700266605
0.2700259329
0.270024599
0.2700229253
0.2700212
0.2700194914
0.2700178583
0.2700164254
0.2700153448
0.2699754513
0.2699810819
0.2699863937
0.269990977
0.2699947112
0.269997679
0.2699998954
0.2700015606
0.270002776
0.2700036429
0.2700042726
0.2700046669
0.2700049809
0.2700051286
0.2699679557
0.2699707689
0.2699739316
0.2699772799
0.2699805234
0.2699836462
0.2699864913
0.2699890557
0.2699913328
0.2699932994
0.2699950115
0.2699964425
0.269997599
0.2699984421
0.2699661386
0.2699688797
0.2699721991
0.2699758112
0.2699793907
0.2699828086
0.2699860569
0.2699888895
0.2699914079
0.2699935791
0.2699954215
0.2699969698
0.2699982811
0.2699993471
0.2700000567
0.2699734655
0.2699806274
0.2699873035
0.2699929512
0.2699973856
0.2700007069
0.2700031659
0.2700049215
0.2700060389
0.2700067914
0.2700072479
0.2700074818
0.2700075728
0.2700075294
0.2700074842
0.270007633
0.2700283605
0.2700398038
0.2700445296
0.2700451147
0.2700434125
0.2700406213
0.2700373836
0.2700341088
0.2700309456
0.2700280106
0.2700253253
0.27002291
0.2700208447
0.2700192914
0.2701942114
0.270217656
0.2701979421
0.2701689138
0.2701414407
0.2701183388
0.2700996212
0.2700845927
0.2700724629
0.270062638
0.2700546097
0.2700480175
0.2700424879
0.2700380136
0.2700348362
0.2736061794
0.2732974352
0.2731293764
0.2730328512
0.272974525
0.272937684
0.2729134684
0.2728970233
0.2728856045
0.2728776715
0.2728721643
0.2728684384
0.2728661108
0.2728655912
0.270217724
0.2701980306
0.2701690047
0.2701415686
0.2701184527
0.2700996736
0.2700846235
0.2700724884
0.2700626627
0.2700546006
0.270047966
0.2700424964
0.2700380226
0.2700348335
0.2700287074
0.270040081
0.2700448053
0.270045399
0.2700437355
0.2700409182
0.2700376774
0.2700343883
0.270031265
0.2700282877
0.2700256482
0.2700232432
0.2700211781
0.2700195944
0.2699809839
0.2699876982
0.2699932764
0.2699976785
0.2700010389
0.2700034284
0.2700051243
0.2700062845
0.2700070383
0.27000746
0.2700076681
0.2700077775
0.2700078009
0.2700077753
0.269969492
0.2699727999
0.2699763638
0.2699799648
0.2699834469
0.2699865889
0.2699894732
0.2699919557
0.2699941257
0.2699959692
0.2699975586
0.2699988663
0.2699999365
0.2700006798
0.2699654248
0.2699675992
0.2699703989
0.2699735566
0.2699769258
0.2699802597
0.2699833992
0.2699862372
0.269988781
0.269991066
0.2699930295
0.2699947229
0.2699961828
0.2699973157
0.2699981743
0.2699710028
0.2699762094
0.2699818423
0.2699871383
0.2699916933
0.2699954328
0.2699983563
0.270000575
0.2700022452
0.2700034721
0.2700043649
0.2700049857
0.2700054045
0.2700057229
0.2700058955
0.2699861345
0.2700007055
0.2700124217
0.2700203393
0.2700248979
0.2700269229
0.2700272344
0.2700264525
0.270025071
0.2700234232
0.2700217051
0.2700200124
0.2700183883
0.2700169307
0.2700158236
0.2700404923
0.2700734126
0.2700875023
0.2700892754
0.2700845131
0.2700769579
0.2700686994
0.2700606816
0.2700534014
0.2700469527
0.270041334
0.2700364627
0.2700322947
0.2700288448
0.2700263136
0.2701946584
0.270218137
0.270198411
0.2701693789
0.2701419324
0.2701187983
0.2701000877
0.2700850377
0.270072897
0.270063088
0.2700550774
0.2700484912
0.2700429813
0.2700385007
0.2700353012
0.2700401605
0.270073089
0.2700872243
0.2700890222
0.2700842723
0.2700767509
0.2700684666
0.2700604681
0.270053133
0.2700466658
0.2700410187
0.2700361336
0.2700319948
0.2700284944
0.2700259762
0.270000429
0.2700121469
0.270020119
0.2700246746
0.2700266979
0.2700270215
0.2700262628
0.270024906
0.2700233019
0.2700215615
0.2700198113
0.2700181801
0.2700167626
0.2700156646
0.269974831
0.2699804378
0.2699857511
0.2699903348
0.2699940823
0.2699970451
0.2699992564
0.2700009295
0.2700021628
0.2700030539
0.2700037449
0.2700041744
0.2700044862
0.2700046324
0.2699682543
0.2699710416
0.2699742327
0.2699775191
0.2699808327
0.2699839737
0.2699868223
0.2699893827
0.2699916273
0.2699935649
0.269995252
0.2699967084
0.2699979007
0.2699987695
0.2699653299
0.2699666446
0.2699684646
0.2699706801
0.2699731916
0.2699758785
0.2699785227
0.2699811222
0.2699836202
0.2699859258
0.2699880334
0.2699899441
0.2699916552
0.2699931578
0.269994253
0.2699660817
0.2699689097
0.2699723547
0.269976072
0.2699797051
0.2699830938
0.269986111
0.2699887502
0.269991014
0.2699929512
0.2699945292
0.269995918
0.2699970064
0.2699979179
0.2699985887
0.2699729319
0.2699798029
0.2699869255
0.269993273
0.2699984117
0.270002279
0.2700050052
0.27000681
0.2700079265
0.2700085602
0.2700087742
0.2700088209
0.2700087161
0.2700085161
0.2700083623
0.2699856933
0.2700002671
0.2700119753
0.2700199231
0.2700244752
0.2700265003
0.2700268077
0.2700260169
0.2700246799
0.2700230165
0.2700212481
0.2700195352
0.2700178969
0.2700164224
0.2700153453
0.2700073876
0.2700281019
0.2700395412
0.2700442494
0.270044863
0.2700431715
0.2700404044
0.2700372111
0.2700338684
0.2700307629
0.2700278464
0.2700251261
0.270022748
0.2700206955
0.2700190842
0.2699861653
0.2700007537
0.2700124775
0.2700203902
0.2700249583
0.270027004
0.2700273386
0.2700265974
0.2700252805
0.2700236695
0.270021911
0.2700201936
0.2700185592
0.2700171293
0.270016031
0.269972604
0.2699794527
0.2699865484
0.2699928904
0.2699980201
0.2700018403
0.270004569
0.2700063925
0.2700075132
0.2700081274
0.2700084001
0.2700083943
0.2700083383
0.2700081572
0.2700080205
0.2699690142
0.2699724603
0.2699761574
0.2699798204
0.2699832099
0.269986257
0.2699888794
0.2699911477
0.2699930577
0.2699946557
0.2699960158
0.2699970777
0.2699979857
0.2699986349
0.2699663018
0.2699681151
0.2699704034
0.2699728946
0.2699755468
0.2699782278
0.2699808602
0.2699833431
0.2699856195
0.2699877386
0.269989682
0.2699913843
0.2699928755
0.2699940145
0.2699642624
0.2699649477
0.2699660014
0.2699674014
0.2699690753
0.2699710381
0.2699731431
0.2699753147
0.2699775368
0.2699797254
0.2699818344
0.2699838486
0.2699857525
0.269987496
0.2699888345
0.2699651788
0.2699665187
0.2699683458
0.2699705092
0.2699729245
0.2699754785
0.2699779948
0.2699804669
0.2699827968
0.2699849708
0.2699869916
0.2699888314
0.2699904956
0.2699919465
0.2699930532
0.2699660746
0.2699688944
0.2699723435
0.2699760368
0.2699796806
0.2699830979
0.2699861672
0.2699887955
0.2699910535
0.2699929134
0.2699945249
0.2699958123
0.2699969289
0.269997832
0.2699985162
0.2699696014
0.2699748239
0.2699804498
0.2699857373
0.2699903013
0.2699940138
0.2699969575
0.2699991857
0.2700008751
0.2700021162
0.2700029798
0.2700035974
0.2700040059
0.270004317
0.2700045008
0.269973327
0.2699805049
0.2699872263
0.2699928438
0.2699972931
0.2700006259
0.2700030715
0.2700047885
0.2700059146
0.270006631
0.270007098
0.2700073315
0.2700074419
0.2700074471
0.2700074184
0.2699702059
0.2699754455
0.2699810724
0.2699863577
0.2699909312
0.2699946921
0.2699976247
0.2699998628
0.2700015503
0.2700027902
0.2700036784
0.2700043158
0.2700047412
0.2700050183
0.2700051763
0.2699674631
0.2699702582
0.2699736724
0.269977409
0.2699810437
0.2699844624
0.269987513
0.2699901377
0.2699924045
0.2699943056
0.2699959401
0.2699972917
0.2699984509
0.2699994142
0.2700000888
0.2699650134
0.2699663758
0.2699681564
0.2699703365
0.2699726969
0.26997525
0.2699777493
0.2699802205
0.2699825335
0.2699847284
0.2699867511
0.2699885875
0.2699902672
0.2699917487
0.269992868
0.2699645387
0.2699655803
0.2699669908
0.2699686978
0.2699706087
0.2699726897
0.2699748818
0.2699771025
0.2699793065
0.2699814429
0.2699835072
0.2699854209
0.2699871485
0.2699884547
0.269963967
0.2699644132
0.2699651003
0.2699660536
0.2699672614
0.2699687524
0.2699704181
0.2699722564
0.2699742486
0.2699762777
0.2699783474
0.2699803649
0.2699823701
0.269984175
0.2699856076
0.2699638772
0.269964607
0.2699656541
0.2699670187
0.2699686823
0.2699706067
0.269972681
0.2699748549
0.2699770914
0.2699792725
0.2699814026
0.2699834182
0.2699853146
0.2699870484
0.2699883782
0.2699644785
0.2699658475
0.2699676511
0.2699698877
0.2699724224
0.2699750848
0.2699777659
0.2699804014
0.2699828718
0.2699852127
0.2699873159
0.2699892158
0.2699909326
0.2699924098
0.2699935123
0.2699651588
0.2699673182
0.2699701514
0.2699733393
0.2699766872
0.269979975
0.2699830814
0.2699858946
0.2699884726
0.2699907437
0.2699927321
0.2699944212
0.2699958742
0.2699970829
0.2699979346
0.269966897
0.269969651
0.2699729347
0.2699765323
0.269980197
0.269983646
0.269986822
0.2699896466
0.2699921676
0.2699943407
0.269996152
0.2699977045
0.2699989786
0.270000002
0.2700007548
0.2699662755
0.2699684383
0.269971234
0.2699744317
0.269977756
0.2699810337
0.2699841693
0.2699870018
0.2699895721
0.2699918227
0.2699937465
0.269995425
0.2699968685
0.2699980466
0.2699988772
0.2699656798
0.2699670022
0.2699688043
0.2699710323
0.2699735786
0.269976247
0.2699789067
0.2699815355
0.2699839802
0.2699862623
0.2699883882
0.2699903065
0.2699920027
0.2699934678
0.2699945626
0.2699639153
0.2699646498
0.2699657085
0.2699670794
0.2699687666
0.269970702
0.2699728379
0.269975002
0.2699772238
0.2699794265
0.26998149
0.269983504
0.2699853825
0.2699871045
0.2699883923
0.2699636815
0.269964089
0.269964754
0.2699656899
0.2699668859
0.2699683457
0.2699700435
0.2699719069
0.2699738656
0.2699759327
0.2699779909
0.2699800278
0.2699819977
0.2699838511
0.2699852558
)
;

boundaryField
{
    top
    {
        type            calculated;
        value           nonuniform List<scalar> 
127
(
0.2699636815
0.2699637358
0.2699646968
0.2699667521
0.2699679557
0.269969492
0.2699682543
0.2699663018
0.2699645387
0.269964089
0.269964385
0.2699657634
0.2699685571
0.2699707689
0.2699727999
0.2699710416
0.2699681151
0.2699655803
0.269964754
0.269965348
0.2699671654
0.2699707899
0.2699739316
0.2699763638
0.2699742327
0.2699704034
0.2699669908
0.2699656899
0.2699665514
0.2699688987
0.2699733151
0.2699772799
0.2699799648
0.2699775191
0.2699728946
0.2699686978
0.2699668859
0.2699679993
0.2699708449
0.269976023
0.2699805234
0.2699834469
0.2699808327
0.2699755468
0.2699706087
0.2699683457
0.2699697139
0.26997292
0.2699786863
0.2699836462
0.2699865889
0.2699839737
0.2699782278
0.2699726897
0.2699700435
0.2699715863
0.2699750829
0.2699813035
0.2699864913
0.2699894732
0.2699868223
0.2699808602
0.2699748818
0.2699719069
0.2699735317
0.269977286
0.2699837843
0.2699890557
0.2699919557
0.2699893827
0.2699833431
0.2699771025
0.2699738656
0.2699755715
0.2699794696
0.2699860799
0.2699913328
0.2699941257
0.2699916273
0.2699856195
0.2699793065
0.2699759327
0.2699776589
0.2699816025
0.2699881944
0.2699932994
0.2699959692
0.2699935649
0.2699877386
0.2699814429
0.2699779909
0.2699796986
0.2699836477
0.2699900987
0.2699950115
0.2699975586
0.269995252
0.269989682
0.2699835072
0.2699800278
0.2699816794
0.2699855603
0.2699918109
0.2699964425
0.2699988663
0.2699967084
0.2699913843
0.2699854209
0.2699819977
0.269983524
0.2699873014
0.2699932987
0.269997599
0.2699999365
0.2699979007
0.2699928755
0.2699871485
0.2699838511
0.2699849821
0.2699886184
0.2699943986
0.2699984421
0.2700006798
0.2699987695
0.2699940145
0.2699884547
0.2699852558
)
;
    }
    bottom
    {
        type            calculated;
        value           nonuniform List<scalar> 
134
(
0.2699636239
0.2699646345
0.2699662609
0.2699661386
0.2699654248
0.2699653299
0.2699642624
0.269963967
0.2699636633
0.2699642966
0.269966018
0.2699684173
0.2699688797
0.2699675992
0.2699666446
0.2699649477
0.2699644132
0.2699643515
0.2699653415
0.2699678292
0.2699712147
0.2699721991
0.2699703989
0.2699684646
0.2699660014
0.2699651003
0.2699652454
0.2699667408
0.2699700514
0.2699744674
0.2699758112
0.2699735566
0.2699706801
0.2699674014
0.2699660536
0.2699664339
0.2699684811
0.2699725725
0.2699777923
0.2699793907
0.2699769258
0.2699731916
0.2699690753
0.2699672614
0.2699679432
0.2699704134
0.2699752307
0.2699810808
0.2699828086
0.2699802597
0.2699758785
0.2699710381
0.2699687524
0.2699696301
0.2699724843
0.2699779024
0.2699841674
0.2699860569
0.2699833992
0.2699785227
0.2699731431
0.2699704181
0.2699714896
0.2699746801
0.2699805394
0.2699870094
0.2699888895
0.2699862372
0.2699811222
0.2699753147
0.2699722564
0.2699734872
0.2699769078
0.2699830353
0.2699895875
0.2699914079
0.269988781
0.2699836202
0.2699775368
0.2699742486
0.2699755572
0.2699791114
0.2699853584
0.2699918075
0.2699935791
0.269991066
0.2699859258
0.2699797254
0.2699762777
0.2699775861
0.269981232
0.2699874433
0.2699937573
0.2699954215
0.2699930295
0.2699880334
0.2699818344
0.2699783474
0.2699796316
0.2699832706
0.2699893421
0.2699954403
0.2699969698
0.2699947229
0.2699899441
0.2699838486
0.2699803649
0.2699816084
0.2699851662
0.2699910621
0.2699968549
0.2699982811
0.2699961828
0.2699916552
0.2699857525
0.2699823701
0.2699834132
0.2699868923
0.2699925781
0.2699980559
0.2699993471
0.2699973157
0.2699931578
0.269987496
0.269984175
0.2699848013
0.2699882221
0.2699937033
0.2699989422
0.2700000567
0.2699981743
0.269994253
0.2699888345
0.2699856076
)
;
    }
    side-walls
    {
        type            calculated;
        value           nonuniform List<scalar> 
261
(
0.2699636633
0.2699647566
0.2699663665
0.2699680003
0.2699696599
0.2699680208
0.2699663511
0.2699647264
0.2699637358
0.2699643515
0.269965848
0.2699681991
0.2699708074
0.269972965
0.2699708558
0.2699681795
0.2699657951
0.269964385
0.2699652454
0.2699672089
0.2699704362
0.269973974
0.2699765421
0.2699740204
0.2699704347
0.2699671759
0.269965348
0.2699664339
0.2699688836
0.2699729621
0.2699773156
0.26998013
0.2699773787
0.2699729004
0.2699688608
0.2699665514
0.2699679432
0.2699707552
0.2699755954
0.2699806274
0.2699835391
0.2699806479
0.2699755576
0.2699707667
0.2699679993
0.2699696301
0.2699728686
0.269978285
0.2699837651
0.2699867163
0.2699837352
0.2699782545
0.2699728706
0.2699697139
0.2699714896
0.2699750216
0.2699809174
0.2699865875
0.2699895512
0.2699865714
0.2699808655
0.2699750929
0.2699715863
0.2699734872
0.2699772071
0.2699833959
0.2699891297
0.2699920633
0.2699891204
0.2699833519
0.2699772992
0.2699735317
0.2699755572
0.269979381
0.2699857441
0.2699913726
0.2699941752
0.2699913687
0.2699856591
0.2699794833
0.2699755715
0.2699775861
0.2699815159
0.2699878956
0.2699933377
0.2699959912
0.2699933415
0.2699877857
0.2699816273
0.2699776589
0.2699796316
0.2699835688
0.2699898148
0.2699949935
0.2699975641
0.269995008
0.2699897096
0.26998363
0.2699796986
0.2699816084
0.2699854617
0.2699915504
0.2699963999
0.269998845
0.269996435
0.269991443
0.2699855108
0.2699816794
0.2699834132
0.2699872048
0.2699930064
0.2699976074
0.2699999141
0.269997605
0.2699929135
0.2699872465
0.269983524
0.2699848013
0.2699885236
0.2699941268
0.2699984408
0.2700006701
0.2699984593
0.2699940552
0.2699885727
0.2699849821
0.269963967
0.2699638772
0.2699644785
0.2699651588
0.269966897
0.2699662755
0.2699656798
0.2699639153
0.2699636815
0.2699644132
0.269964607
0.2699658475
0.2699673182
0.269969651
0.2699684383
0.2699670022
0.2699646498
0.269964089
0.2699651003
0.2699656541
0.2699676511
0.2699701514
0.2699729347
0.269971234
0.2699688043
0.2699657085
0.269964754
0.2699660536
0.2699670187
0.2699698877
0.2699733393
0.2699765323
0.2699744317
0.2699710323
0.2699670794
0.2699656899
0.2699672614
0.2699686823
0.2699724224
0.2699766872
0.269980197
0.269977756
0.2699735786
0.2699687666
0.2699668859
0.2699687524
0.2699706067
0.2699750848
0.269979975
0.269983646
0.2699810337
0.269976247
0.269970702
0.2699683457
0.2699704181
0.269972681
0.2699777659
0.2699830814
0.269986822
0.2699841693
0.2699789067
0.2699728379
0.2699700435
0.2699722564
0.2699748549
0.2699804014
0.2699858946
0.2699896466
0.2699870018
0.2699815355
0.269975002
0.2699719069
0.2699742486
0.2699770914
0.2699828718
0.2699884726
0.2699921676
0.2699895721
0.2699839802
0.2699772238
0.2699738656
0.2699762777
0.2699792725
0.2699852127
0.2699907437
0.2699943407
0.2699918227
0.2699862623
0.2699794265
0.2699759327
0.2699783474
0.2699814026
0.2699873159
0.2699927321
0.269996152
0.2699937465
0.2699883882
0.26998149
0.2699779909
0.2699803649
0.2699834182
0.2699892158
0.2699944212
0.2699977045
0.269995425
0.2699903065
0.269983504
0.2699800278
0.2699823701
0.2699853146
0.2699909326
0.2699958742
0.2699989786
0.2699968685
0.2699920027
0.2699853825
0.2699819977
0.269984175
0.2699870484
0.2699924098
0.2699970829
0.270000002
0.2699980466
0.2699934678
0.2699871045
0.2699838511
0.2699856076
0.2699883782
0.2699935123
0.2699979346
0.2700007548
0.2699988772
0.2699945626
0.2699883923
0.2699852558
)
;
    }
    inlet
    {
        type            calculated;
        value           nonuniform 0();
    }
    outlet
    {
        type            calculated;
        value           nonuniform List<scalar> 
81
(
0.2699848013
0.2699885236
0.2699941268
0.2699984408
0.2700006701
0.2699984593
0.2699940552
0.2699885727
0.2699849821
0.2699882221
0.269992764
0.2699982817
0.2700051317
0.2700068498
0.2700050969
0.2699989145
0.2699926168
0.2699886184
0.2699937033
0.26999884
0.2700074654
0.2700162151
0.2700188667
0.2700157791
0.270008824
0.2699987043
0.2699943986
0.2699989422
0.270004599
0.2700159763
0.2700256361
0.2700353542
0.2700265363
0.2700153448
0.2700051286
0.2699984421
0.2700000567
0.2700074842
0.2700192914
0.2700348362
0.2728655912
0.2700348335
0.2700195944
0.2700077753
0.2700006798
0.2699981743
0.2700058955
0.2700158236
0.2700263136
0.2700353012
0.2700259762
0.2700156646
0.2700046324
0.2699987695
0.269994253
0.2699985887
0.2700083623
0.2700153453
0.2700190842
0.270016031
0.2700080205
0.2699986349
0.2699940145
0.2699888345
0.2699930532
0.2699985162
0.2700045008
0.2700074184
0.2700051763
0.2700000888
0.269992868
0.2699884547
0.2699856076
0.2699883782
0.2699935123
0.2699979346
0.2700007548
0.2699988772
0.2699945626
0.2699883923
0.2699852558
)
;
    }
    procBoundary1to0
    {
        type            processor;
        value           nonuniform List<scalar> 
97
(
0.2699632209
0.2699632209
0.2699640415
0.2699650129
0.2699658055
0.2699669212
0.269965853
0.2699650423
0.2699639906
0.2699632878
0.2699632004
0.2699648355
0.2699648355
0.2699648355
0.2699658921
0.2699701392
0.2699728172
0.2699700315
0.2699666538
0.2699646764
0.2699639501
0.2699638075
0.2699644981
0.2699721321
0.2699721321
0.2699721321
0.2699864449
0.2700072586
0.2699860484
0.2699736337
0.269966388
0.2699653754
0.2699647795
0.2699656345
0.2699725085
0.2700398692
0.2700398692
0.2700398692
0.2701947424
0.2700406974
0.2699855783
0.2699702166
0.2699658122
0.269964262
0.2699674042
0.2699794172
0.2700253681
0.2729429606
0.2729429606
0.2729429606
0.2701942659
0.2701942659
0.2700079446
0.2699738134
0.2699667292
0.2699640239
0.2699671007
0.2699724726
0.2699907555
0.2700258095
0.2699904394
0.2699858723
0.2699858723
0.2699858723
0.2699696331
0.2699660398
0.2699645077
0.2699641371
0.2699677418
0.2699720801
0.2699791955
0.2699725011
0.2699674078
0.269966167
0.269966167
0.269966167
0.2699649308
0.2699638168
0.2699643996
0.2699641621
0.2699656962
0.2699672198
0.2699663109
0.269965567
0.2699641504
0.2699637819
0.2699637819
0.2699637819
0.2699637413
0.2699634514
0.2699636208
0.2699637181
0.2699650068
0.2699647996
0.2699648336
0.2699635165
0.2699634232
)
;
    }
}


// ************************************************************************* //
