/*--------------------------------*- C++ -*----------------------------------*\
| =========                 |                                                 |
| \\      /  F ield         | OpenFOAM: The Open Source CFD Toolbox           |
|  \\    /   O peration     | Version:  4.x                                   |
|   \\  /    A nd           | Web:      www.OpenFOAM.org                      |
|    \\/     M anipulation  |                                                 |
\*---------------------------------------------------------------------------*/
FoamFile
{
    version     2.0;
    format      ascii;
    class       volScalarField;
    location    "2000";
    object      T;
}
// * * * * * * * * * * * * * * * * * * * * * * * * * * * * * * * * * * * * * //

dimensions      [0 0 0 1 0 0 0];

internalField   nonuniform List<scalar> 
1174
(
1223.152798
1223.153416
1223.154589
1223.155953
1223.157292
1223.159058
1223.161008
1223.163008
1223.165069
1223.167438
1223.169612
1223.171726
1223.173794
1223.175494
1223.151276
1223.152213
1223.153801
1223.155636
1223.1579
1223.159991
1223.162426
1223.164884
1223.167272
1223.169487
1223.171545
1223.173631
1223.175361
1223.176766
1223.151478
1223.153383
1223.155752
1223.158378
1223.161318
1223.164131
1223.166815
1223.169449
1223.171709
1223.173785
1223.1758
1223.177514
1223.179217
1223.180318
1223.154903
1223.157822
1223.161254
1223.16472
1223.168081
1223.171244
1223.174401
1223.17718
1223.179618
1223.181675
1223.183611
1223.185277
1223.18647
1223.187489
1223.15499
1223.158577
1223.162442
1223.166354
1223.17017
1223.173513
1223.176564
1223.179132
1223.181608
1223.183645
1223.185174
1223.186584
1223.187596
1223.188313
1223.15481
1223.157602
1223.161043
1223.164433
1223.167987
1223.171379
1223.174475
1223.177222
1223.179635
1223.181658
1223.183545
1223.185118
1223.186481
1223.187406
1223.151548
1223.153471
1223.155758
1223.158657
1223.161489
1223.164269
1223.16705
1223.169648
1223.172094
1223.174282
1223.176276
1223.178001
1223.179638
1223.180643
1223.151413
1223.152452
1223.153951
1223.155738
1223.157848
1223.159982
1223.162103
1223.164466
1223.166808
1223.168982
1223.171268
1223.173408
1223.175172
1223.176543
1223.152468
1223.153265
1223.154125
1223.15542
1223.157038
1223.158678
1223.16057
1223.162806
1223.165004
1223.167107
1223.169309
1223.171404
1223.173293
1223.174675
1223.152393
1223.15336
1223.154508
1223.155922
1223.157459
1223.159449
1223.161732
1223.163973
1223.16624
1223.168493
1223.170773
1223.172896
1223.174969
1223.176776
1223.178131
1223.152638
1223.154439
1223.156589
1223.15924
1223.161905
1223.164615
1223.167263
1223.169683
1223.171767
1223.173895
1223.175717
1223.177367
1223.179039
1223.180144
1223.159962
1223.163494
1223.167362
1223.171366
1223.174988
1223.178092
1223.181053
1223.183418
1223.185507
1223.187262
1223.188699
1223.189739
1223.190639
1223.191444
1223.16275
1223.168676
1223.174225
1223.178923
1223.182969
1223.186245
1223.188716
1223.190462
1223.191654
1223.192644
1223.193194
1223.193595
1223.194115
1223.194218
1223.172699
1223.179821
1223.185894
1223.190629
1223.19412
1223.196615
1223.198214
1223.199436
1223.199928
1223.200261
1223.200404
1223.200375
1223.200253
1223.200357
1223.163206
1223.168926
1223.174567
1223.179427
1223.183595
1223.186788
1223.188933
1223.190696
1223.192071
1223.193043
1223.193721
1223.19399
1223.194303
1223.194377
1223.15641
1223.160233
1223.164267
1223.168187
1223.171863
1223.174997
1223.177922
1223.180459
1223.182474
1223.184093
1223.185513
1223.186726
1223.187904
1223.188578
1223.153203
1223.155196
1223.157328
1223.159869
1223.162417
1223.165147
1223.167626
1223.170068
1223.172356
1223.174527
1223.176387
1223.178141
1223.17953
1223.180812
1223.151547
1223.152596
1223.153998
1223.155567
1223.157494
1223.159757
1223.162148
1223.164526
1223.16687
1223.169094
1223.171188
1223.173184
1223.174923
1223.176337
1223.151905
1223.153058
1223.155059
1223.157495
1223.160143
1223.16297
1223.165865
1223.168527
1223.171083
1223.173456
1223.175834
1223.177941
1223.179726
1223.181157
1223.182236
1223.154593
1223.157594
1223.161391
1223.16529
1223.169205
1223.172715
1223.175891
1223.178674
1223.181145
1223.183142
1223.184838
1223.186177
1223.187288
1223.188235
1223.188915
1223.168201
1223.175879
1223.182753
1223.188087
1223.192079
1223.194899
1223.196794
1223.197935
1223.198591
1223.199012
1223.199149
1223.198788
1223.198681
1223.198368
1223.188624
1223.200998
1223.209319
1223.214033
1223.216166
1223.216368
1223.215649
1223.214292
1223.212418
1223.210576
1223.208803
1223.207145
1223.205601
1223.204421
1223.221112
1223.233381
1223.238227
1223.238835
1223.237229
1223.234378
1223.230857
1223.227125
1223.223686
1223.220744
1223.21773
1223.215035
1223.212795
1223.211396
1223.190335
1223.202807
1223.211299
1223.216087
1223.218074
1223.218455
1223.217681
1223.216286
1223.214515
1223.212602
1223.210647
1223.209056
1223.20743
1223.206396
1223.161269
1223.168879
1223.175582
1223.181093
1223.185089
1223.187762
1223.189744
1223.19094
1223.191681
1223.191955
1223.192083
1223.192069
1223.192069
1223.192214
1223.157846
1223.161534
1223.165616
1223.169505
1223.173122
1223.176337
1223.179199
1223.181521
1223.183489
1223.185298
1223.186715
1223.18795
1223.188956
1223.18953
1223.149731
1223.151761
1223.154149
1223.156778
1223.15938
1223.162313
1223.165065
1223.16769
1223.170187
1223.172431
1223.174514
1223.176335
1223.177894
1223.179087
1223.150591
1223.153014
1223.155977
1223.159018
1223.16256
1223.166026
1223.169422
1223.17249
1223.175106
1223.177648
1223.179774
1223.181587
1223.183216
1223.184438
1223.185218
1223.16006
1223.165551
1223.171444
1223.176893
1223.181832
1223.185799
1223.188967
1223.191286
1223.193203
1223.194506
1223.19531
1223.196096
1223.196424
1223.196555
1223.196632
1223.174626
1223.189907
1223.202083
1223.210407
1223.21525
1223.217388
1223.217724
1223.21694
1223.215679
1223.213798
1223.211817
1223.209939
1223.208222
1223.206487
1223.205502
1223.269252
1223.284186
1223.286137
1223.280942
1223.273001
1223.264158
1223.255654
1223.247769
1223.241012
1223.235063
1223.229929
1223.225478
1223.221877
1223.219115
1223.393826
1223.372953
1223.342071
1223.312838
1223.288269
1223.268153
1223.252217
1223.239208
1223.228851
1223.22047
1223.213453
1223.207652
1223.202864
1223.199142
1223.26576
1223.280706
1223.282378
1223.277115
1223.269125
1223.260255
1223.251813
1223.243972
1223.237207
1223.231075
1223.225972
1223.221411
1223.217615
1223.215038
1223.192899
1223.20515
1223.213711
1223.21844
1223.220605
1223.220876
1223.219976
1223.21846
1223.216841
1223.214906
1223.213012
1223.211315
1223.209654
1223.208364
1223.162381
1223.168344
1223.173876
1223.178702
1223.182701
1223.185695
1223.188208
1223.190041
1223.191409
1223.192434
1223.193085
1223.193725
1223.19393
1223.194234
1223.155105
1223.157996
1223.161445
1223.164881
1223.168551
1223.171782
1223.174838
1223.177516
1223.179799
1223.181849
1223.18353
1223.185085
1223.186509
1223.187485
1223.155613
1223.158525
1223.162047
1223.165754
1223.169703
1223.17348
1223.1765
1223.179562
1223.182101
1223.184308
1223.186225
1223.187866
1223.189139
1223.190164
1223.191092
1223.162062
1223.169576
1223.176806
1223.182645
1223.187242
1223.190755
1223.193096
1223.194624
1223.195991
1223.196736
1223.197158
1223.197394
1223.197445
1223.19757
1223.197482
1223.19737
1223.219345
1223.231314
1223.236118
1223.236775
1223.235182
1223.232293
1223.228924
1223.225306
1223.221876
1223.218658
1223.215795
1223.213304
1223.21105
1223.209472
1223.371877
1223.396592
1223.375492
1223.344616
1223.315564
1223.290865
1223.270755
1223.254592
1223.241739
1223.231278
1223.222689
1223.215472
1223.209805
1223.205008
1223.201488
1211.54957
1211.211814
1211.018661
1210.900084
1210.821307
1210.764424
1210.720481
1210.684665
1210.654148
1210.626859
1210.602011
1210.57904
1210.557883
1210.538004
1223.396283
1223.375086
1223.344202
1223.314984
1223.290351
1223.270519
1223.254454
1223.241624
1223.231168
1223.222731
1223.215707
1223.209768
1223.204968
1223.201501
1223.217771
1223.230057
1223.234869
1223.235487
1223.23372
1223.23095
1223.227595
1223.224041
1223.220431
1223.217405
1223.214334
1223.211796
1223.209542
1223.208101
1223.167959
1223.175017
1223.181172
1223.185915
1223.189252
1223.191908
1223.193706
1223.19488
1223.195619
1223.196198
1223.196551
1223.19652
1223.196342
1223.196166
1223.15575
1223.159325
1223.16325
1223.167102
1223.170588
1223.174091
1223.176918
1223.17962
1223.181833
1223.183746
1223.1852
1223.186489
1223.187496
1223.188271
1223.154379
1223.15672
1223.159673
1223.163145
1223.166486
1223.169746
1223.172902
1223.175988
1223.17876
1223.181007
1223.183071
1223.184837
1223.186261
1223.187791
1223.188697
1223.153239
1223.158946
1223.164899
1223.170503
1223.175456
1223.179431
1223.182626
1223.185128
1223.186939
1223.188255
1223.189162
1223.189854
1223.190383
1223.190567
1223.190759
1223.174629
1223.189983
1223.202493
1223.210983
1223.215803
1223.217941
1223.218275
1223.217621
1223.216321
1223.214585
1223.212617
1223.210651
1223.208913
1223.207364
1223.206194
1223.231679
1223.266546
1223.281631
1223.283553
1223.278605
1223.270636
1223.261681
1223.253146
1223.245221
1223.23824
1223.23217
1223.227021
1223.222586
1223.218723
1223.216046
1223.369852
1223.394412
1223.373362
1223.342507
1223.313336
1223.288785
1223.268643
1223.252578
1223.239774
1223.229241
1223.220571
1223.213328
1223.207571
1223.202803
1223.199383
1223.233183
1223.26801
1223.282889
1223.2847
1223.279696
1223.271575
1223.262737
1223.254115
1223.246438
1223.239541
1223.2336
1223.228513
1223.223945
1223.220311
1223.217576
1223.191237
1223.203738
1223.211982
1223.216816
1223.218962
1223.219241
1223.218482
1223.21707
1223.215137
1223.213269
1223.211564
1223.209858
1223.208128
1223.206917
1223.165191
1223.171262
1223.176788
1223.181612
1223.185551
1223.188567
1223.191103
1223.192901
1223.194188
1223.195103
1223.195477
1223.195958
1223.196172
1223.196483
1223.153752
1223.156761
1223.160081
1223.163798
1223.167151
1223.170299
1223.173339
1223.176035
1223.178465
1223.180647
1223.182442
1223.183882
1223.185143
1223.186003
1223.148754
1223.150218
1223.15218
1223.154646
1223.157338
1223.160035
1223.163054
1223.165887
1223.168433
1223.170885
1223.17316
1223.175214
1223.177039
1223.178531
1223.179747
1223.156055
1223.158964
1223.162605
1223.166468
1223.170426
1223.174046
1223.177308
1223.180055
1223.182346
1223.184166
1223.185921
1223.187096
1223.188414
1223.189415
1223.190053
1223.157318
1223.16453
1223.171949
1223.178664
1223.184089
1223.188129
1223.190978
1223.192863
1223.193977
1223.194478
1223.194946
1223.194895
1223.19474
1223.194611
1223.194305
1223.176628
1223.191969
1223.204514
1223.212868
1223.217718
1223.219856
1223.220208
1223.219595
1223.218094
1223.216428
1223.214688
1223.212814
1223.21114
1223.209667
1223.208362
1223.198481
1223.220513
1223.232501
1223.237386
1223.237915
1223.236274
1223.233277
1223.229707
1223.226396
1223.222705
1223.219404
1223.216699
1223.214039
1223.211728
1223.210412
1223.174489
1223.189764
1223.20224
1223.210753
1223.215531
1223.217575
1223.217804
1223.216966
1223.215374
1223.213471
1223.211686
1223.209832
1223.208141
1223.206466
1223.205257
1223.158804
1223.166117
1223.173659
1223.180398
1223.185864
1223.190117
1223.192955
1223.194756
1223.195851
1223.196441
1223.196642
1223.196829
1223.196453
1223.196239
1223.195856
1223.158491
1223.162127
1223.166082
1223.169904
1223.173521
1223.176648
1223.179471
1223.181742
1223.183685
1223.185349
1223.186655
1223.188093
1223.189109
1223.189846
1223.151771
1223.153763
1223.1559
1223.158684
1223.161538
1223.164391
1223.167074
1223.169689
1223.172274
1223.174497
1223.176403
1223.178269
1223.179812
1223.180829
1223.1495
1223.15041
1223.151517
1223.152929
1223.154766
1223.156618
1223.158747
1223.161097
1223.16339
1223.165711
1223.168043
1223.170277
1223.172313
1223.174041
1223.175357
1223.149523
1223.150901
1223.152735
1223.155146
1223.157763
1223.160362
1223.163142
1223.165691
1223.168173
1223.170487
1223.17255
1223.174467
1223.176196
1223.177746
1223.178835
1223.156087
1223.159034
1223.162655
1223.166628
1223.170537
1223.174028
1223.177054
1223.17985
1223.182168
1223.184338
1223.185941
1223.187576
1223.188766
1223.189804
1223.190382
1223.159588
1223.165223
1223.171207
1223.17685
1223.181763
1223.18586
1223.188963
1223.191423
1223.193147
1223.194398
1223.195438
1223.196144
1223.19672
1223.196938
1223.197078
1223.162689
1223.17013
1223.177156
1223.183132
1223.187661
1223.191122
1223.193525
1223.195227
1223.196555
1223.197464
1223.197838
1223.198077
1223.19804
1223.197945
1223.197782
1223.156849
1223.162407
1223.168387
1223.17404
1223.178909
1223.182788
1223.185941
1223.188356
1223.190089
1223.191345
1223.192274
1223.19289
1223.19339
1223.193761
1223.194018
1223.149796
1223.152855
1223.156635
1223.160412
1223.164362
1223.167847
1223.170957
1223.17377
1223.176048
1223.178032
1223.17953
1223.180874
1223.181872
1223.182637
1223.183259
1223.150273
1223.151548
1223.153594
1223.155929
1223.158794
1223.161398
1223.164254
1223.166809
1223.169367
1223.171586
1223.17364
1223.175573
1223.177232
1223.178643
1223.179675
1223.152263
1223.153425
1223.15479
1223.156477
1223.158564
1223.160802
1223.163059
1223.165358
1223.167611
1223.169818
1223.171825
1223.173817
1223.175617
1223.17708
1223.14899
1223.149399
1223.150024
1223.150927
1223.152203
1223.153626
1223.155487
1223.157534
1223.159558
1223.161804
1223.163988
1223.16629
1223.168275
1223.170343
1223.171841
1223.151246
1223.151954
1223.153091
1223.154663
1223.156547
1223.158573
1223.16084
1223.163181
1223.165408
1223.167764
1223.17
1223.172227
1223.174297
1223.176069
1223.177425
1223.152612
1223.15383
1223.155865
1223.158236
1223.160823
1223.163631
1223.166483
1223.169153
1223.171823
1223.174116
1223.176411
1223.178514
1223.180313
1223.181921
1223.183103
1223.155584
1223.157994
1223.160794
1223.164129
1223.167566
1223.171036
1223.174342
1223.177541
1223.180157
1223.182468
1223.18442
1223.186205
1223.18766
1223.188847
1223.189784
1223.152177
1223.15503
1223.158714
1223.162487
1223.16605
1223.169686
1223.173034
1223.176132
1223.17866
1223.180858
1223.182917
1223.184539
1223.18598
1223.187199
1223.187931
1223.150524
1223.152919
1223.155889
1223.15918
1223.162724
1223.16624
1223.169413
1223.172525
1223.175176
1223.17758
1223.179824
1223.181657
1223.183156
1223.184482
1223.185514
1223.147169
1223.148598
1223.15064
1223.153051
1223.155585
1223.158365
1223.161314
1223.164015
1223.166802
1223.169362
1223.171554
1223.173573
1223.175466
1223.177129
1223.178346
1223.151073
1223.15176
1223.152845
1223.154388
1223.156166
1223.158141
1223.16013
1223.162515
1223.164809
1223.167067
1223.169605
1223.17184
1223.173991
1223.175817
1223.177362
1223.150284
1223.150868
1223.151593
1223.152575
1223.153905
1223.155469
1223.157185
1223.159117
1223.161294
1223.163368
1223.165604
1223.167818
1223.169963
1223.171812
1223.173437
)
;

boundaryField
{
    top
    {
        type            zeroGradient;
    }
    bottom
    {
        type            zeroGradient;
    }
    side-walls
    {
        type            zeroGradient;
    }
    inlet
    {
        type            zeroGradient;
    }
    outlet
    {
        type            zeroGradient;
    }
    procBoundary1to0
    {
        type            processor;
        value           nonuniform List<scalar> 
97
(
1223.152371
1223.152371
1223.150501
1223.150191
1223.152654
1223.152067
1223.152439
1223.150058
1223.150732
1223.152068
1223.151909
1223.151079
1223.151079
1223.151079
1223.156915
1223.157152
1223.164999
1223.157639
1223.153463
1223.151799
1223.150915
1223.151035
1223.152663
1223.160942
1223.160942
1223.160942
1223.173225
1223.199069
1223.17502
1223.154138
1223.154667
1223.148548
1223.149341
1223.155786
1223.160168
1223.234513
1223.234513
1223.234513
1223.369508
1223.230756
1223.17715
1223.156801
1223.152624
1223.153589
1223.155433
1223.167525
1223.217677
1212.175194
1212.175194
1212.175194
1223.371666
1223.371666
1223.195962
1223.160485
1223.152937
1223.152764
1223.149142
1223.16033
1223.178972
1223.215675
1223.180405
1223.175818
1223.175818
1223.175818
1223.159445
1223.151593
1223.147862
1223.154299
1223.151708
1223.162108
1223.168529
1223.160201
1223.153222
1223.155669
1223.155669
1223.155669
1223.150563
1223.149116
1223.14838
1223.154186
1223.155506
1223.156268
1223.152721
1223.14782
1223.149509
1223.151678
1223.151678
1223.151678
1223.1486
1223.150772
1223.151881
1223.15415
1223.150214
1223.14925
1223.146386
1223.150477
1223.150041
)
;
    }
}


// ************************************************************************* //
