/*--------------------------------*- C++ -*----------------------------------*\
| =========                 |                                                 |
| \\      /  F ield         | OpenFOAM: The Open Source CFD Toolbox           |
|  \\    /   O peration     | Version:  4.x                                   |
|   \\  /    A nd           | Web:      www.OpenFOAM.org                      |
|    \\/     M anipulation  |                                                 |
\*---------------------------------------------------------------------------*/
FoamFile
{
    version     2.0;
    format      ascii;
    class       volScalarField;
    location    "2000";
    object      X_CO2;
}
// * * * * * * * * * * * * * * * * * * * * * * * * * * * * * * * * * * * * * //

dimensions      [0 0 0 0 0 0 0];

internalField   nonuniform List<scalar> 
1174
(
0.04001124242
0.04001410162
0.04001809809
0.04002326222
0.04002952179
0.04003672485
0.04004466982
0.04005313448
0.04006189893
0.04007076002
0.04007953317
0.04008802338
0.04009588437
0.04010201526
0.04001386659
0.04001836538
0.04002429813
0.04003150734
0.04003973058
0.04004866121
0.04005799575
0.04006746354
0.04007684094
0.04008595324
0.04009466499
0.04010284508
0.04011023487
0.04011590153
0.04001959737
0.04002740364
0.04003696858
0.04004773379
0.04005911388
0.04007059631
0.04008178508
0.04009240629
0.04010229275
0.04011136006
0.04011957871
0.0401269329
0.04013330949
0.04013805793
0.04002787272
0.04003982996
0.04005342781
0.04006766216
0.04008171728
0.04009502291
0.04010723588
0.0401181919
0.04012785339
0.04013626421
0.04014351237
0.04014969169
0.04015481921
0.0401585125
0.0400336849
0.04004787783
0.04006322949
0.04007865858
0.04009340058
0.04010698192
0.04011915846
0.04012985087
0.0401390892
0.04014696949
0.04015362036
0.04015917046
0.04016368076
0.04016687527
0.04002787257
0.04003982974
0.04005342753
0.04006766183
0.04008171691
0.04009502251
0.04010723545
0.04011819144
0.04012785292
0.04013626373
0.04014351188
0.0401496912
0.0401548187
0.04015851199
0.04001959715
0.04002740332
0.04003696819
0.04004773332
0.04005911334
0.04007059571
0.04008178443
0.04009240559
0.040102292
0.04011135928
0.0401195779
0.04012693206
0.04013330863
0.04013805705
0.04001386639
0.04001836512
0.0400242978
0.04003150695
0.04003973012
0.04004866067
0.04005799513
0.04006746285
0.04007684017
0.0400859524
0.0400946641
0.04010284412
0.04011023386
0.04011590048
0.04001124225
0.04001410142
0.04001809784
0.04002326191
0.04002952141
0.04003672439
0.04004466928
0.04005313385
0.04006189821
0.04007075922
0.04007953228
0.0400880224
0.04009588332
0.04010201415
0.04001079595
0.04001386658
0.04001836536
0.04002429811
0.04003150732
0.04003973056
0.04004866118
0.04005799572
0.04006746351
0.0400768409
0.0400859532
0.04009466495
0.04010284504
0.04011023482
0.04011590149
0.04001968289
0.04002741659
0.04003675806
0.040047132
0.04005797732
0.04006883283
0.04007936352
0.04008935223
0.0400986761
0.04010727969
0.04011514749
0.04012226441
0.04012850582
0.04013319694
0.04003412557
0.04004884336
0.04006467917
0.0400802994
0.04009482061
0.0401077852
0.04011905047
0.04012867022
0.04013680118
0.04014363964
0.04014938168
0.0401541927
0.04015814726
0.04016098575
0.04005938419
0.04008344637
0.0401060828
0.04012566235
0.04014167523
0.04015426998
0.04016389875
0.0401711007
0.04017639058
0.04018021221
0.04018292696
0.04018481823
0.04018609642
0.04018686777
0.04008279667
0.04011144963
0.04013548657
0.04015437981
0.04016859598
0.04017893418
0.04018621678
0.04019116798
0.04019438075
0.04019632163
0.04019734973
0.04019774111
0.04019772125
0.04019752531
0.04005938371
0.04008344575
0.04010608213
0.04012566166
0.04014167452
0.04015426928
0.04016389806
0.04017110002
0.04017638992
0.04018021155
0.04018292632
0.0401848176
0.04018609581
0.04018686717
0.0400341249
0.04004884258
0.04006467831
0.04008029848
0.04009481964
0.04010778419
0.04011904943
0.04012866917
0.04013680013
0.04014363858
0.04014938062
0.04015419164
0.0401581462
0.04016098469
0.04001968242
0.0400274161
0.04003675751
0.04004713137
0.04005797661
0.04006883203
0.04007936265
0.04008935128
0.04009867509
0.04010727863
0.04011514637
0.04012226325
0.04012850462
0.0401331957
0.04001386639
0.0400183651
0.04002429777
0.04003150689
0.04003973003
0.04004866056
0.04005799499
0.04006746268
0.04007683998
0.04008595219
0.04009466386
0.04010284387
0.04011023358
0.04011590018
0.04001392311
0.04001959734
0.04002740355
0.04003696847
0.04004773366
0.04005911374
0.04007059616
0.04008178492
0.04009240613
0.04010229258
0.04011135989
0.04011957854
0.04012693273
0.04013330932
0.04013805776
0.04002210637
0.04003412552
0.04004884326
0.04006467905
0.04008029926
0.04009482047
0.04010778506
0.04011905032
0.04012867007
0.04013680103
0.04014363949
0.04014938154
0.04015419256
0.04015814713
0.04016098562
0.04007609391
0.04010643594
0.0401335634
0.04015552746
0.04017203616
0.04018368688
0.04019141282
0.04019616771
0.04019878176
0.0401999177
0.04020007738
0.04019963224
0.04019887507
0.04019813591
0.04016789467
0.04021803843
0.04025197256
0.04027148059
0.04028017061
0.04028155041
0.04027838857
0.04027265538
0.04026566479
0.04025825147
0.04025092641
0.04024401125
0.04023781363
0.04023311264
0.0402860318
0.04033483302
0.04035491668
0.04035750024
0.04035044553
0.04033862739
0.04032489275
0.04031083513
0.04029730525
0.04028472467
0.04027327723
0.0402630461
0.04025420618
0.04024764716
0.04016789252
0.0402180363
0.04025197064
0.04027147887
0.04028016907
0.04028154903
0.04027838733
0.04027265426
0.04026566377
0.04025825053
0.04025092553
0.04024401043
0.04023781285
0.04023311189
0.04007609178
0.04010643406
0.04013356162
0.04015552574
0.04017203448
0.04018368525
0.04019141125
0.0401961662
0.04019878031
0.04019991632
0.04020007604
0.04019963095
0.04019887381
0.04019813467
0.04003412489
0.04004884251
0.04006467818
0.04008029827
0.04009481937
0.04010778386
0.04011904905
0.04012866874
0.04013679967
0.04014363809
0.04014938012
0.04015419111
0.04015814567
0.04016098415
0.04001959713
0.04002740325
0.04003696806
0.04004773311
0.04005911305
0.04007059533
0.04008178397
0.04009240505
0.0401022914
0.04011135862
0.04011957719
0.04012693131
0.04013330784
0.04013805623
0.04001855062
0.04002787263
0.04003982976
0.04005342755
0.04006766187
0.04008171696
0.04009502257
0.04010723553
0.04011819154
0.04012785303
0.04013626385
0.04014351202
0.04014969135
0.04015481887
0.04015851217
0.04003699101
0.04005938416
0.0400834461
0.04010608248
0.04012566201
0.04014167487
0.04015426963
0.04016389839
0.04017110034
0.04017639024
0.04018021187
0.04018292663
0.04018481791
0.04018609612
0.04018686749
0.04010571222
0.04016789467
0.04021803805
0.04025197214
0.04027148018
0.04028017021
0.04028155003
0.04027838822
0.04027265505
0.04026566449
0.0402582512
0.04025092616
0.04024401102
0.04023781341
0.04023311244
0.04047804035
0.04053840101
0.04054608125
0.04052588743
0.04049371154
0.04045833873
0.0404241137
0.04039290098
0.04036528313
0.04034123149
0.04032046732
0.04030268094
0.04028781482
0.04027702915
0.04107659257
0.04099236562
0.0408684089
0.04075120754
0.0406524452
0.04057234998
0.0405080304
0.04045626466
0.04041430024
0.04037998004
0.0403516772
0.04032823396
0.04030910588
0.04029543716
0.04047803161
0.04053839508
0.04054607688
0.04052588404
0.04049370887
0.04045833658
0.04042411192
0.04039289947
0.04036528183
0.04034123034
0.04032046629
0.04030268
0.04028781395
0.04027702832
0.04016789248
0.0402180357
0.04025196972
0.04027147778
0.04028016789
0.04028154784
0.04027838616
0.04027265313
0.04026566268
0.04025824949
0.04025092455
0.04024400949
0.04023781195
0.04023311102
0.04005938361
0.04008344537
0.04010608152
0.04012566083
0.04014167353
0.04015426817
0.04016389685
0.04017109876
0.04017638863
0.04018021025
0.040182925
0.04018481628
0.0401860945
0.04018686585
0.04002787253
0.04003982956
0.0400534272
0.04006766134
0.04008171624
0.04009502168
0.04010723448
0.04011819035
0.04012785172
0.04013626245
0.04014351053
0.04014968979
0.04015481725
0.0401585105
0.04002196456
0.04003368474
0.0400478775
0.04006322908
0.04007865812
0.04009340008
0.0401069814
0.04011915793
0.04012985034
0.04013908867
0.04014696897
0.04015361984
0.04015916995
0.04016368027
0.04016687479
0.04005225453
0.04008279634
0.04011144887
0.04013548573
0.04015437895
0.04016859515
0.04017893339
0.04018621604
0.04019116728
0.04019438009
0.04019632102
0.04019734916
0.04019774057
0.04019772074
0.04019752482
0.040197476
0.04028603191
0.04033483169
0.04035491532
0.04035749902
0.04035044447
0.04033862646
0.04032489193
0.04031083441
0.04029730461
0.0402847241
0.04027327672
0.04026304564
0.04025420576
0.04024764675
0.04097644278
0.04107658945
0.04099236292
0.0408684068
0.04075120589
0.04065244391
0.04057234894
0.04050802955
0.04045626396
0.04041429965
0.04037997953
0.04035167678
0.04032823359
0.04030910555
0.04029543686
0.04363386641
0.04231497173
0.0415900919
0.04116792632
0.04090735521
0.04073728052
0.04062043952
0.04053648624
0.04047383761
0.04042561912
0.04038759361
0.04035711752
0.04033282968
0.04031571775
0.04107659215
0.04099235741
0.0408684018
0.04075120213
0.04065244103
0.04057234666
0.04050802767
0.04045626237
0.04041429827
0.04037997832
0.04035167569
0.04032823259
0.04030910463
0.04029543599
0.04028603135
0.04033483005
0.04035491316
0.04035749672
0.04035044219
0.04033862428
0.04032488987
0.04031083247
0.0402973028
0.04028472239
0.0402732751
0.0402630441
0.04025420428
0.04024764533
0.04008279638
0.04011144861
0.0401354851
0.04015437803
0.04016859399
0.04017893206
0.04018621459
0.04019116576
0.04019437853
0.04019631942
0.04019734754
0.04019773894
0.04019771911
0.04019752319
0.04003368481
0.04004787749
0.0400632289
0.04007865772
0.04009339947
0.04010698059
0.04011915694
0.04012984919
0.04013908738
0.04014696757
0.04015361836
0.0401591684
0.04016367864
0.04016687311
0.04001855049
0.04002787238
0.0400398294
0.04005342709
0.04006766132
0.04008171635
0.04009502191
0.04010723483
0.04011819081
0.04012785228
0.04013626309
0.04014351125
0.04014969058
0.0401548181
0.04015851139
0.04003699043
0.04005938319
0.04008344492
0.0401060812
0.0401256607
0.04014167358
0.04015426837
0.04016389718
0.04017109918
0.04017638912
0.0401802108
0.0401829256
0.04018481692
0.04018609517
0.04018686655
0.04010570917
0.04016789146
0.0402180346
0.04025196894
0.04027147731
0.04028016768
0.04028154778
0.04027838621
0.04027265325
0.04026566286
0.0402582497
0.04025092478
0.04024400974
0.04023781221
0.04023311129
0.04033740726
0.04047802873
0.04053839156
0.04054607393
0.04052588167
0.04049370695
0.040458335
0.04042411061
0.04039289837
0.04036528088
0.04034122952
0.04032046557
0.04030267937
0.04028781338
0.04027702779
0.04097644033
0.04107658588
0.0409923531
0.04086839894
0.04075120016
0.04065243963
0.04057234563
0.04050802687
0.04045626174
0.04041429776
0.04037997789
0.04035167532
0.04032823227
0.04030910434
0.04029543572
0.04033740859
0.0404780272
0.04053838942
0.04054607185
0.0405258798
0.04049370529
0.04045833353
0.04042410929
0.04039289716
0.04036527978
0.04034122851
0.04032046463
0.04030267849
0.04028781255
0.040277027
0.0401678947
0.04021803573
0.04025196884
0.04027147653
0.04028016651
0.04028154643
0.04027838479
0.0402726518
0.04026566142
0.04025824829
0.0402509234
0.04024400839
0.0402378109
0.04023311
0.04005938426
0.0400834457
0.04010608156
0.04012566065
0.04014167318
0.0401542677
0.04016389629
0.04017109814
0.04017638796
0.04018020955
0.04018292429
0.04018481556
0.04018609376
0.04018686511
0.04002787272
0.04003982971
0.04005342728
0.04006766133
0.04008171614
0.0400950215
0.04010723422
0.04011819002
0.04012785133
0.040136262
0.04014351005
0.04014968927
0.0401548167
0.04015850993
0.04001392294
0.04001959701
0.04002740308
0.04003696786
0.04004773292
0.04005911288
0.0400705952
0.04008178388
0.04009240501
0.0401022914
0.04011135866
0.04011957728
0.04012693143
0.040133308
0.04013805643
0.04002210575
0.04003412462
0.04004884212
0.04006467775
0.04008029786
0.04009481898
0.0401077835
0.04011904873
0.04012866846
0.04013679941
0.04014363788
0.04014937993
0.04015419096
0.04015814554
0.04016098404
0.04004678588
0.04007609111
0.04010643305
0.04013356051
0.04015552461
0.04017203338
0.04018368419
0.04019141024
0.04019616524
0.04019877941
0.04019991546
0.04020007524
0.04019963019
0.0401988731
0.04019813399
0.04010570904
0.04016789084
0.04021803357
0.04025196765
0.0402714759
0.04028016624
0.04028154638
0.04027838487
0.04027265198
0.04026566166
0.04025824857
0.0402509237
0.04024400872
0.04023781124
0.04023311036
0.04019747503
0.0402860284
0.04033482711
0.04035491064
0.04035749463
0.04035044047
0.04033862285
0.04032488867
0.04031083144
0.04029730191
0.04028472161
0.04027327441
0.04026304348
0.04025420372
0.04024764481
0.04010570874
0.0401678903
0.04021803294
0.04025196696
0.04027147517
0.0402801655
0.04028154565
0.04027838416
0.04027265129
0.04026566099
0.04025824792
0.04025092307
0.0402440081
0.04023781064
0.04023310976
0.04004678682
0.04007609195
0.04010643355
0.04013356064
0.04015552442
0.04017203293
0.04018368356
0.04019140949
0.04019616441
0.04019877851
0.04019991452
0.04020007427
0.0401996292
0.0401988721
0.04019813298
0.04003412552
0.04004884277
0.04006467815
0.040080298
0.04009481889
0.04010778321
0.04011904825
0.04012866783
0.04013679866
0.04014363701
0.04014937898
0.04015418993
0.04015814445
0.0401609829
0.04001959738
0.04002740345
0.04003696816
0.04004773311
0.04005911292
0.04007059507
0.04008178359
0.04009240456
0.04010229079
0.04011135792
0.04011957641
0.04012693045
0.04013330691
0.04013805525
0.04001079578
0.04001386631
0.04001836496
0.04002429758
0.04003150667
0.04003972977
0.04004866027
0.04005799468
0.04006746235
0.04007683964
0.04008595184
0.04009466351
0.04010284352
0.04011023324
0.04011589986
0.04001398701
0.04001968226
0.04002741584
0.04003675717
0.04004713097
0.04005797615
0.04006883152
0.0400793621
0.0400893507
0.04009867448
0.04010727801
0.04011514574
0.04012226262
0.04012850399
0.04013319507
0.04002210575
0.04003412459
0.04004884203
0.0400646776
0.04008029764
0.04009481868
0.04010778315
0.04011904833
0.04012866802
0.04013679894
0.04014363738
0.04014937942
0.04015419044
0.040158145
0.0401609835
0.04003699041
0.04005938298
0.04008344446
0.04010608051
0.0401256598
0.04014167251
0.04015426717
0.0401638959
0.04017109785
0.04017638776
0.04018020942
0.04018292422
0.04018481554
0.04018609379
0.04018686518
0.0400522542
0.04008279534
0.04011144732
0.04013548378
0.04015437675
0.0401685928
0.04017893096
0.04018621358
0.04019116483
0.04019437767
0.04019631863
0.04019734681
0.04019773826
0.04019771848
0.04019752259
0.04003699029
0.04005938278
0.04008344421
0.0401060802
0.04012565945
0.04014167212
0.04015426676
0.04016389546
0.04017109739
0.04017638729
0.04018020894
0.04018292374
0.04018481506
0.0401860933
0.04018686468
0.04002210583
0.04003412467
0.04004884205
0.04006467751
0.04008029742
0.04009481836
0.04010778272
0.04011904781
0.04012866742
0.04013679829
0.04014363667
0.04014937867
0.04015418965
0.04015814419
0.04016098266
0.04001398722
0.04001968251
0.04002741607
0.04003675733
0.04004713103
0.04005797609
0.04006883134
0.0400793618
0.04008935029
0.04009867396
0.04010727738
0.04011514503
0.04012226182
0.04012850312
0.04013319414
0.04001386658
0.04001836521
0.0400242978
0.04003150683
0.04003972986
0.04004866025
0.04005799455
0.04006746211
0.04007683927
0.04008595135
0.0400946629
0.0401028428
0.04011023242
0.04011589895
0.04000938271
0.0400112422
0.04001410132
0.04001809769
0.0400232617
0.04002952114
0.04003672406
0.04004466889
0.04005313342
0.04006189773
0.0400707587
0.04007953172
0.04008802183
0.04009588273
0.04010201354
0.04001079579
0.04001386631
0.04001836496
0.04002429757
0.04003150664
0.04003972973
0.0400486602
0.04005799458
0.04006746224
0.0400768395
0.04008595167
0.04009466332
0.04010284331
0.04011023301
0.04011589961
0.04001392295
0.040019597
0.04002740303
0.04003696776
0.04004773275
0.04005911263
0.04007059486
0.04008178346
0.04009240452
0.04010229084
0.04011135804
0.04011957661
0.04012693072
0.04013330725
0.04013805564
0.04001855047
0.04002787226
0.04003982915
0.04005342668
0.04006766074
0.04008171559
0.040095021
0.04010723378
0.04011818964
0.04012785101
0.04013626174
0.04014350984
0.04014968912
0.0401548166
0.04015850986
0.04002196442
0.04003368436
0.04004787685
0.04006322814
0.04007865689
0.04009339861
0.04010697972
0.04011915608
0.04012984835
0.04013908658
0.0401469668
0.04015361763
0.0401591677
0.04016367798
0.04016687248
0.0400185504
0.04002787215
0.04003982899
0.04005342647
0.04006766049
0.04008171529
0.04009502066
0.04010723342
0.04011818925
0.0401278506
0.04013626132
0.0401435094
0.04014968867
0.04015481614
0.0401585094
0.04001392292
0.04001959695
0.04002740294
0.04003696762
0.04004773254
0.04005911235
0.0400705945
0.04008178303
0.04009240402
0.04010229029
0.04011135744
0.04011957595
0.04012693003
0.04013330652
0.04013805488
0.04001079583
0.04001386637
0.04001836502
0.04002429761
0.04003150664
0.04003972966
0.04004866006
0.04005799435
0.04006746192
0.04007683909
0.04008595117
0.04009466274
0.04010284264
0.04011023227
0.04011589881
0.04000938278
0.04001124229
0.04001410143
0.0400180978
0.0400232618
0.0400295212
0.04003672406
0.04004466881
0.04005313325
0.04006189747
0.04007075833
0.04007953125
0.04008802125
0.04009588205
0.04010201278
)
;

boundaryField
{
    top
    {
        type            calculated;
        value           nonuniform List<scalar> 
127
(
0.04000938278
0.04001124225
0.04001386639
0.04001959713
0.04002787253
0.04003368481
0.04002787272
0.04001959738
0.04001386658
0.04001124229
0.04001410142
0.0400183651
0.04002740325
0.04003982956
0.04004787749
0.04003982971
0.04002740345
0.04001836521
0.04001410143
0.04001809784
0.04002429777
0.04003696806
0.0400534272
0.0400632289
0.04005342728
0.04003696816
0.0400242978
0.0400180978
0.04002326191
0.04003150689
0.04004773311
0.04006766134
0.04007865772
0.04006766133
0.04004773311
0.04003150683
0.0400232618
0.04002952141
0.04003973003
0.04005911305
0.04008171624
0.04009339947
0.04008171614
0.04005911292
0.04003972986
0.0400295212
0.04003672439
0.04004866056
0.04007059533
0.04009502168
0.04010698059
0.0400950215
0.04007059507
0.04004866025
0.04003672406
0.04004466928
0.04005799499
0.04008178397
0.04010723448
0.04011915694
0.04010723422
0.04008178359
0.04005799455
0.04004466881
0.04005313385
0.04006746268
0.04009240505
0.04011819035
0.04012984919
0.04011819002
0.04009240456
0.04006746211
0.04005313325
0.04006189821
0.04007683998
0.0401022914
0.04012785172
0.04013908738
0.04012785133
0.04010229079
0.04007683927
0.04006189747
0.04007075922
0.04008595219
0.04011135862
0.04013626245
0.04014696757
0.040136262
0.04011135792
0.04008595135
0.04007075833
0.04007953228
0.04009466386
0.04011957719
0.04014351053
0.04015361836
0.04014351005
0.04011957641
0.0400946629
0.04007953125
0.0400880224
0.04010284387
0.04012693131
0.04014968979
0.0401591684
0.04014968927
0.04012693045
0.0401028428
0.04008802125
0.04009588332
0.04011023358
0.04013330784
0.04015481725
0.04016367864
0.0401548167
0.04013330691
0.04011023242
0.04009588205
0.04010201415
0.04011590018
0.04013805623
0.0401585105
0.04016687311
0.04015850993
0.04013805525
0.04011589895
0.04010201278
)
;
    }
    bottom
    {
        type            calculated;
        value           nonuniform List<scalar> 
134
(
0.04001079595
0.04001392311
0.04001855062
0.04002196456
0.04001855049
0.04001392294
0.04001079578
0.04000938271
0.04001124242
0.04001386658
0.04001959734
0.04002787263
0.04003368474
0.04002787238
0.04001959701
0.04001386631
0.0400112422
0.04001410162
0.04001836536
0.04002740355
0.04003982976
0.0400478775
0.0400398294
0.04002740308
0.04001836496
0.04001410132
0.04001809809
0.04002429811
0.04003696847
0.04005342755
0.04006322908
0.04005342709
0.04003696786
0.04002429758
0.04001809769
0.04002326222
0.04003150732
0.04004773366
0.04006766187
0.04007865812
0.04006766132
0.04004773292
0.04003150667
0.0400232617
0.04002952179
0.04003973056
0.04005911374
0.04008171696
0.04009340008
0.04008171635
0.04005911288
0.04003972977
0.04002952114
0.04003672485
0.04004866118
0.04007059616
0.04009502257
0.0401069814
0.04009502191
0.0400705952
0.04004866027
0.04003672406
0.04004466982
0.04005799572
0.04008178492
0.04010723553
0.04011915793
0.04010723483
0.04008178388
0.04005799468
0.04004466889
0.04005313448
0.04006746351
0.04009240613
0.04011819154
0.04012985034
0.04011819081
0.04009240501
0.04006746235
0.04005313342
0.04006189893
0.0400768409
0.04010229258
0.04012785303
0.04013908867
0.04012785228
0.0401022914
0.04007683964
0.04006189773
0.04007076002
0.0400859532
0.04011135989
0.04013626385
0.04014696897
0.04013626309
0.04011135866
0.04008595184
0.0400707587
0.04007953317
0.04009466495
0.04011957854
0.04014351202
0.04015361984
0.04014351125
0.04011957728
0.04009466351
0.04007953172
0.04008802338
0.04010284504
0.04012693273
0.04014969135
0.04015916995
0.04014969058
0.04012693143
0.04010284352
0.04008802183
0.04009588437
0.04011023482
0.04013330932
0.04015481887
0.04016368027
0.0401548181
0.040133308
0.04011023324
0.04009588273
0.04010201526
0.04011590149
0.04013805776
0.04015851217
0.04016687479
0.04015851139
0.04013805643
0.04011589986
0.04010201354
)
;
    }
    side-walls
    {
        type            calculated;
        value           nonuniform List<scalar> 
261
(
0.04001124242
0.04001386659
0.04001959737
0.04002787272
0.0400336849
0.04002787257
0.04001959715
0.04001386639
0.04001124225
0.04001410162
0.04001836538
0.04002740364
0.04003982996
0.04004787783
0.04003982974
0.04002740332
0.04001836512
0.04001410142
0.04001809809
0.04002429813
0.04003696858
0.04005342781
0.04006322949
0.04005342753
0.04003696819
0.0400242978
0.04001809784
0.04002326222
0.04003150734
0.04004773379
0.04006766216
0.04007865858
0.04006766183
0.04004773332
0.04003150695
0.04002326191
0.04002952179
0.04003973058
0.04005911388
0.04008171728
0.04009340058
0.04008171691
0.04005911334
0.04003973012
0.04002952141
0.04003672485
0.04004866121
0.04007059631
0.04009502291
0.04010698192
0.04009502251
0.04007059571
0.04004866067
0.04003672439
0.04004466982
0.04005799575
0.04008178508
0.04010723588
0.04011915846
0.04010723545
0.04008178443
0.04005799513
0.04004466928
0.04005313448
0.04006746354
0.04009240629
0.0401181919
0.04012985087
0.04011819144
0.04009240559
0.04006746285
0.04005313385
0.04006189893
0.04007684094
0.04010229275
0.04012785339
0.0401390892
0.04012785292
0.040102292
0.04007684017
0.04006189821
0.04007076002
0.04008595324
0.04011136006
0.04013626421
0.04014696949
0.04013626373
0.04011135928
0.0400859524
0.04007075922
0.04007953317
0.04009466499
0.04011957871
0.04014351237
0.04015362036
0.04014351188
0.0401195779
0.0400946641
0.04007953228
0.04008802338
0.04010284508
0.0401269329
0.04014969169
0.04015917046
0.0401496912
0.04012693206
0.04010284412
0.0400880224
0.04009588437
0.04011023487
0.04013330949
0.04015481921
0.04016368076
0.0401548187
0.04013330863
0.04011023386
0.04009588332
0.04010201526
0.04011590153
0.04013805793
0.0401585125
0.04016687527
0.04015851199
0.04013805705
0.04011590048
0.04010201415
0.04000938271
0.04001079579
0.04001392295
0.04001855047
0.04002196442
0.0400185504
0.04001392292
0.04001079583
0.04000938278
0.0400112422
0.04001386631
0.040019597
0.04002787226
0.04003368436
0.04002787215
0.04001959695
0.04001386637
0.04001124229
0.04001410132
0.04001836496
0.04002740303
0.04003982915
0.04004787685
0.04003982899
0.04002740294
0.04001836502
0.04001410143
0.04001809769
0.04002429757
0.04003696776
0.04005342668
0.04006322814
0.04005342647
0.04003696762
0.04002429761
0.0400180978
0.0400232617
0.04003150664
0.04004773275
0.04006766074
0.04007865689
0.04006766049
0.04004773254
0.04003150664
0.0400232618
0.04002952114
0.04003972973
0.04005911263
0.04008171559
0.04009339861
0.04008171529
0.04005911235
0.04003972966
0.0400295212
0.04003672406
0.0400486602
0.04007059486
0.040095021
0.04010697972
0.04009502066
0.0400705945
0.04004866006
0.04003672406
0.04004466889
0.04005799458
0.04008178346
0.04010723378
0.04011915608
0.04010723342
0.04008178303
0.04005799435
0.04004466881
0.04005313342
0.04006746224
0.04009240452
0.04011818964
0.04012984835
0.04011818925
0.04009240402
0.04006746192
0.04005313325
0.04006189773
0.0400768395
0.04010229084
0.04012785101
0.04013908658
0.0401278506
0.04010229029
0.04007683909
0.04006189747
0.0400707587
0.04008595167
0.04011135804
0.04013626174
0.0401469668
0.04013626132
0.04011135744
0.04008595117
0.04007075833
0.04007953172
0.04009466332
0.04011957661
0.04014350984
0.04015361763
0.0401435094
0.04011957595
0.04009466274
0.04007953125
0.04008802183
0.04010284331
0.04012693072
0.04014968912
0.0401591677
0.04014968867
0.04012693003
0.04010284264
0.04008802125
0.04009588273
0.04011023301
0.04013330725
0.0401548166
0.04016367798
0.04015481614
0.04013330652
0.04011023227
0.04009588205
0.04010201354
0.04011589961
0.04013805564
0.04015850986
0.04016687248
0.0401585094
0.04013805488
0.04011589881
0.04010201278
)
;
    }
    inlet
    {
        type            calculated;
        value           nonuniform 0();
    }
    outlet
    {
        type            calculated;
        value           nonuniform List<scalar> 
81
(
0.04010201526
0.04011590153
0.04013805793
0.0401585125
0.04016687527
0.04015851199
0.04013805705
0.04011590048
0.04010201415
0.04011590149
0.04013319694
0.04016098575
0.04018686777
0.04019752531
0.04018686717
0.04016098469
0.0401331957
0.04011590018
0.04013805776
0.04016098562
0.04019813591
0.04023311264
0.04024764716
0.04023311189
0.04019813467
0.04016098415
0.04013805623
0.04015851217
0.04018686749
0.04023311244
0.04027702915
0.04029543716
0.04027702832
0.04023311102
0.04018686585
0.0401585105
0.04016687479
0.04019752482
0.04024764675
0.04029543686
0.04031571775
0.04029543599
0.04024764533
0.04019752319
0.04016687311
0.04015851139
0.04018686655
0.04023311129
0.04027702779
0.04029543572
0.040277027
0.04023311
0.04018686511
0.04015850993
0.04013805643
0.04016098404
0.04019813399
0.04023311036
0.04024764481
0.04023310976
0.04019813298
0.0401609829
0.04013805525
0.04011589986
0.04013319507
0.0401609835
0.04018686518
0.04019752259
0.04018686468
0.04016098266
0.04013319414
0.04011589895
0.04010201354
0.04011589961
0.04013805564
0.04015850986
0.04016687248
0.0401585094
0.04013805488
0.04011589881
0.04010201278
)
;
    }
    procBoundary1to0
    {
        type            processor;
        value           nonuniform List<scalar> 
97
(
0.0400093828
0.0400093828
0.04001079585
0.04001392296
0.04001855038
0.04002196427
0.04001855028
0.04001392282
0.04001079573
0.04000938268
0.04000895818
0.04001398728
0.04001398728
0.04001398728
0.04002210595
0.0400369903
0.04005225376
0.04003698993
0.04002210547
0.0400139869
0.04001079573
0.04001039259
0.04001402839
0.0400467872
0.0400467872
0.0400467872
0.04010570946
0.04019747313
0.04010570736
0.04004678515
0.04002210549
0.04001392283
0.04001246371
0.04002034874
0.04004749182
0.04033741671
0.04033741671
0.04033741671
0.0409764338
0.04033740345
0.04010570751
0.04003698996
0.0400185503
0.04001391807
0.040026205
0.0400770208
0.04027433878
0.04617725859
0.04617725859
0.04617725859
0.0409764362
0.0409764362
0.04019747353
0.0400522538
0.0400219643
0.04001246368
0.04002034859
0.04004749138
0.04012500708
0.04027433824
0.04012500685
0.0401057111
0.0401057111
0.0401057111
0.04003699062
0.04001855046
0.04001039254
0.04001402828
0.04002452906
0.04004749141
0.04007702065
0.04004749129
0.0400245292
0.04002210621
0.04002210621
0.04002210621
0.04001392304
0.04000895814
0.04001041384
0.04001402829
0.04002034863
0.04002620496
0.04002034856
0.04001402828
0.04001041388
0.04001079591
0.04001079591
0.04001079591
0.04000830128
0.04000895815
0.04001039256
0.04001246369
0.04001391805
0.04001246365
0.04001039254
0.04000895815
0.0400083013
)
;
    }
}


// ************************************************************************* //
