/*--------------------------------*- C++ -*----------------------------------*\
| =========                 |                                                 |
| \\      /  F ield         | OpenFOAM: The Open Source CFD Toolbox           |
|  \\    /   O peration     | Version:  4.x                                   |
|   \\  /    A nd           | Web:      www.OpenFOAM.org                      |
|    \\/     M anipulation  |                                                 |
\*---------------------------------------------------------------------------*/
FoamFile
{
    version     2.0;
    format      ascii;
    class       volScalarField;
    location    "2000";
    object      X_CO;
}
// * * * * * * * * * * * * * * * * * * * * * * * * * * * * * * * * * * * * * //

dimensions      [0 0 0 0 0 0 0];

internalField   nonuniform List<scalar> 
1174
(
0.3000540048
0.3000511451
0.300047148
0.3000419829
0.3000357222
0.3000285178
0.3000205712
0.3000121047
0.3000033381
0.2999944748
0.2999856992
0.2999772065
0.299969343
0.2999632101
0.3000513802
0.3000468807
0.3000409471
0.3000337367
0.300025512
0.3000165797
0.3000072432
0.2999977733
0.2999883936
0.2999792789
0.2999705646
0.2999623819
0.2999549896
0.299949321
0.3000456487
0.3000378414
0.3000282751
0.3000175083
0.3000061263
0.2999946418
0.2999834507
0.2999728271
0.2999629381
0.2999538681
0.2999456468
0.29993829
0.2999319109
0.2999271604
0.3000373725
0.3000254138
0.3000118143
0.2999975779
0.2999835205
0.2999702124
0.2999579969
0.2999470382
0.299937374
0.2999289604
0.2999217096
0.2999155276
0.2999103976
0.2999067024
0.3000315599
0.3000173654
0.3000020119
0.2999865806
0.2999718362
0.2999582523
0.2999460731
0.299935378
0.2999261369
0.2999182539
0.2999116003
0.2999060476
0.2999015348
0.2998983384
0.3000373726
0.3000254141
0.3000118146
0.2999975784
0.2999835211
0.2999702131
0.2999579976
0.299947039
0.2999373749
0.2999289614
0.2999217106
0.2999155287
0.2999103987
0.2999067036
0.3000456489
0.3000378418
0.3000282756
0.3000175089
0.3000061271
0.2999946427
0.2999834518
0.2999728283
0.2999629395
0.2999538697
0.2999456485
0.2999382918
0.2999319128
0.2999271625
0.3000513805
0.3000468811
0.3000409475
0.3000337372
0.3000255127
0.3000165805
0.3000072442
0.2999977745
0.299988395
0.2999792805
0.2999705664
0.299962384
0.2999549919
0.2999493234
0.300054005
0.3000511453
0.3000471483
0.3000419833
0.3000357227
0.3000285184
0.300020572
0.3000121057
0.3000033394
0.2999944763
0.299985701
0.2999772086
0.2999693453
0.2999632127
0.3000544514
0.3000513803
0.3000468808
0.3000409472
0.3000337368
0.3000255121
0.3000165798
0.3000072433
0.2999977734
0.2999883937
0.299979279
0.2999705647
0.299962382
0.2999549897
0.2999493211
0.3000455631
0.3000378284
0.3000284857
0.3000181102
0.300007263
0.2999964055
0.2999858726
0.2999758815
0.2999665552
0.299957949
0.2999500786
0.2999429591
0.2999367152
0.2999320222
0.3000311188
0.3000163995
0.3000005618
0.2999849394
0.2999704158
0.2999574487
0.2999461808
0.2999365585
0.2999284249
0.2999215838
0.2999158392
0.2999110256
0.2999070687
0.2999042284
0.3000058582
0.2999817939
0.2999591549
0.2999395726
0.2999235569
0.2999109594
0.2999013278
0.2998941232
0.2998888306
0.2998850064
0.2998822892
0.2998803955
0.2998791151
0.2998783421
0.2999824449
0.2999537894
0.2999297497
0.2999108535
0.2998966344
0.2998862933
0.299879008
0.2998740541
0.2998708387
0.2998688953
0.2998678648
0.2998674711
0.2998674888
0.2998676832
0.3000058589
0.2999817947
0.2999591559
0.2999395737
0.2999235581
0.2999109606
0.2999013291
0.2998941245
0.299888832
0.2998850079
0.2998822907
0.299880397
0.2998791166
0.2998783437
0.3000311197
0.3000164005
0.3000005629
0.2999849406
0.2999704172
0.2999574503
0.2999461826
0.2999365604
0.299928427
0.299921586
0.2999158415
0.299911028
0.2999070712
0.299904231
0.3000455637
0.300037829
0.3000284864
0.300018111
0.3000072641
0.2999964068
0.2999858741
0.2999758833
0.2999665572
0.2999579512
0.2999500811
0.2999429617
0.299936718
0.2999320251
0.3000513804
0.3000468811
0.3000409475
0.3000337373
0.3000255128
0.3000165807
0.3000072445
0.2999977749
0.2999883955
0.2999792811
0.2999705671
0.2999623847
0.2999549926
0.2999493242
0.3000513238
0.3000456489
0.3000378416
0.3000282754
0.3000175086
0.3000061266
0.2999946421
0.2999834511
0.2999728274
0.2999629384
0.2999538685
0.2999456472
0.2999382903
0.2999319112
0.2999271608
0.3000431394
0.3000311191
0.3000163998
0.3000005621
0.2999849397
0.2999704161
0.299957449
0.2999461811
0.2999365587
0.2999284251
0.2999215841
0.2999158394
0.2999110259
0.2999070689
0.2999042286
0.2999891467
0.2999588023
0.2999316721
0.2999097051
0.2998931934
0.2998815397
0.299873811
0.2998690535
0.2998664369
0.2998652985
0.2998651365
0.2998655794
0.2998663345
0.2998670721
0.2998973409
0.2998471938
0.299813256
0.2997937444
0.2997850511
0.2997836684
0.2997868276
0.2997925583
0.2997995467
0.299806958
0.2998142811
0.2998211944
0.2998273903
0.2998320901
0.2997792021
0.2997303966
0.2997103087
0.2997077214
0.2997147729
0.2997265883
0.2997403204
0.2997543759
0.2997679037
0.2997804825
0.2997919281
0.2998021576
0.299810996
0.299817554
0.2998973439
0.2998471967
0.2998132588
0.2997937472
0.2997850538
0.299783671
0.2997868301
0.2997925608
0.2997995491
0.2998069602
0.2998142833
0.2998211965
0.2998273924
0.2998320922
0.2999891494
0.2999588047
0.2999316745
0.2999097077
0.2998931962
0.2998815427
0.2998738141
0.2998690566
0.2998664401
0.2998653018
0.2998651398
0.2998655827
0.2998663378
0.2998670755
0.3000311197
0.3000164006
0.3000005631
0.2999849411
0.2999704178
0.2999574511
0.2999461836
0.2999365615
0.2999284281
0.2999215873
0.2999158428
0.2999110294
0.2999070726
0.2999042324
0.3000456489
0.3000378419
0.3000282758
0.3000175093
0.3000061277
0.2999946435
0.2999834528
0.2999728296
0.2999629409
0.2999538713
0.2999456503
0.2999382938
0.2999319149
0.2999271648
0.3000466958
0.3000373728
0.3000254143
0.3000118148
0.2999975785
0.2999835212
0.2999702131
0.2999579975
0.2999470389
0.2999373747
0.2999289611
0.2999217102
0.2999155282
0.2999103982
0.299906703
0.3000282537
0.3000058588
0.2999817946
0.2999591557
0.2999395734
0.2999235577
0.2999109601
0.2999013285
0.2998941238
0.2998888313
0.2998850071
0.2998822898
0.2998803961
0.2998791157
0.2998783427
0.2999595272
0.2998973419
0.2998471948
0.2998132569
0.2997937453
0.2997850519
0.2997836691
0.2997868282
0.2997925589
0.2997995472
0.2998069584
0.2998142815
0.2998211948
0.2998273907
0.2998320905
0.2995871836
0.2995268196
0.2995191353
0.2995393255
0.2995714985
0.2996068689
0.299641092
0.299672303
0.2996999194
0.2997239697
0.2997447325
0.2997625177
0.2997773827
0.2997881677
0.2989886316
0.2990728515
0.2991968027
0.2993140003
0.29941276
0.2994928533
0.2995571714
0.2996089359
0.2996508992
0.2996852183
0.2997135202
0.2997369624
0.2997560896
0.2997697578
0.2995871955
0.2995268279
0.299519142
0.2995393314
0.2995715037
0.2996068735
0.2996410961
0.2996723068
0.2996999229
0.2997239729
0.2997447355
0.2997625205
0.2997773853
0.2997881702
0.2998973439
0.2998471976
0.2998132605
0.2997937494
0.2997850564
0.2997836738
0.2997868329
0.2997925636
0.2997995519
0.299806963
0.2998142859
0.2998211991
0.2998273949
0.2998320946
0.3000058589
0.2999817953
0.299959157
0.2999395753
0.2999235602
0.2999109631
0.299901332
0.2998941276
0.2998888353
0.2998850113
0.2998822941
0.2998804006
0.2998791202
0.2998783473
0.3000373726
0.3000254143
0.3000118152
0.2999975793
0.2999835225
0.2999702149
0.2999579999
0.2999470417
0.2999373779
0.2999289647
0.2999217142
0.2999155325
0.2999104027
0.2999067078
0.3000432816
0.3000315604
0.3000173661
0.3000020127
0.2999865815
0.2999718371
0.2999582533
0.2999460741
0.299935379
0.2999261379
0.2999182548
0.2999116013
0.2999060485
0.2999015357
0.2998983393
0.3000129897
0.2999824459
0.2999537908
0.2999297512
0.299910855
0.2998966358
0.2998862947
0.2998790092
0.2998740553
0.2998708399
0.2998688964
0.2998678658
0.2998674721
0.2998674898
0.2998676841
0.2998677631
0.2997792037
0.2997303993
0.2997103112
0.2997077236
0.2997147748
0.2997265899
0.2997403219
0.2997543772
0.2997679049
0.2997804835
0.2997919291
0.2998021584
0.2998109968
0.2998175547
0.2990887895
0.2989886389
0.2990728568
0.2991968065
0.2993140032
0.2994127622
0.299492855
0.2995571728
0.299608937
0.2996509001
0.2996852191
0.2997135209
0.299736963
0.2997560902
0.2997697583
0.2964313726
0.2977502485
0.2984751184
0.2988972785
0.2991578465
0.2993279193
0.299444759
0.2995287113
0.2995913591
0.2996395768
0.2996776015
0.2997080769
0.299732364
0.2997494756
0.2989886318
0.2990728631
0.2991968147
0.2993140108
0.2994127689
0.2994928609
0.299557178
0.2996089416
0.2996509043
0.2996852229
0.2997135243
0.2997369662
0.2997560931
0.2997697612
0.2997792022
0.299730401
0.299710315
0.2997077286
0.2997147803
0.2997265956
0.2997403276
0.2997543827
0.2997679102
0.2997804886
0.299791934
0.2998021632
0.2998110014
0.2998175593
0.299982445
0.2999537908
0.2999297522
0.299910857
0.2998966387
0.2998862982
0.2998790132
0.2998740596
0.2998708444
0.2998689011
0.2998678707
0.299867477
0.2998674947
0.2998676892
0.3000315599
0.3000173659
0.3000020129
0.2999865823
0.2999718386
0.2999582553
0.2999460767
0.2999353821
0.2999261415
0.2999182589
0.2999116057
0.2999060532
0.2999015407
0.2998983446
0.300046696
0.3000373731
0.3000254148
0.3000118155
0.2999975793
0.2999835221
0.2999702142
0.2999579987
0.2999470402
0.299937376
0.2999289626
0.2999217117
0.2999155298
0.2999103998
0.2999067046
0.3000282544
0.30000586
0.2999817962
0.2999591575
0.2999395753
0.2999235597
0.2999109622
0.2999013307
0.299894126
0.2998888334
0.2998850092
0.2998822919
0.2998803982
0.2998791178
0.2998783448
0.2999595318
0.2998973466
0.2998471998
0.2998132618
0.2997937499
0.2997850563
0.2997836732
0.2997868321
0.2997925626
0.2997995507
0.2998069617
0.2998142846
0.2998211977
0.2998273935
0.2998320933
0.2997278279
0.2995872022
0.2995268343
0.2995191473
0.2995393356
0.299571507
0.2996068763
0.2996410984
0.2996723087
0.2996999245
0.2997239743
0.2997447367
0.2997625216
0.2997773863
0.2997881711
0.2990887929
0.2989886437
0.2990728708
0.2991968198
0.2993140143
0.2994127715
0.2994928628
0.2995571794
0.2996089428
0.2996509052
0.2996852237
0.299713525
0.2997369668
0.2997560937
0.2997697617
0.2997278253
0.2995872037
0.2995268379
0.2995191518
0.2995393404
0.2995715118
0.2996068808
0.2996411026
0.2996723127
0.2996999281
0.2997239777
0.2997447399
0.2997625246
0.2997773891
0.2997881738
0.2998973408
0.2998471982
0.2998132629
0.2997937527
0.2997850601
0.2997836776
0.2997868367
0.2997925673
0.2997995554
0.2998069664
0.2998142892
0.2998212023
0.2998273979
0.2998320976
0.300005858
0.299981795
0.2999591573
0.2999395762
0.2999235615
0.2999109648
0.2999013338
0.2998941296
0.2998888374
0.2998850135
0.2998822964
0.2998804028
0.2998791225
0.2998783496
0.3000373723
0.3000254142
0.3000118153
0.2999975796
0.299983523
0.2999702157
0.2999580009
0.2999470429
0.2999373793
0.2999289663
0.2999217158
0.2999155342
0.2999104046
0.2999067097
0.300051324
0.3000456493
0.3000378423
0.3000282762
0.3000175097
0.300006128
0.2999946437
0.2999834528
0.2999728294
0.2999629406
0.2999538708
0.2999456496
0.2999382929
0.2999319139
0.2999271636
0.3000431403
0.3000311203
0.3000164014
0.300000564
0.2999849418
0.2999704185
0.2999574516
0.299946184
0.2999365617
0.2999284283
0.2999215873
0.2999158427
0.2999110293
0.2999070724
0.2999042321
0.3000184581
0.299989151
0.2999588067
0.2999316766
0.2999097098
0.2998931982
0.2998815447
0.299873816
0.2998690584
0.2998664418
0.2998653033
0.2998651412
0.299865584
0.2998663391
0.2998670767
0.2999595319
0.2998973475
0.2998472016
0.2998132643
0.2997937528
0.2997850594
0.2997836764
0.2997868353
0.2997925657
0.2997995537
0.2998069646
0.2998142874
0.2998212005
0.2998273961
0.2998320958
0.299867764
0.2997792083
0.2997304065
0.2997103196
0.2997077323
0.2997147834
0.2997265981
0.2997403297
0.2997543845
0.2997679118
0.29978049
0.2997919352
0.2998021643
0.2998110024
0.2998175602
0.2999595323
0.2998973483
0.299847203
0.2998132662
0.2997937551
0.2997850619
0.299783679
0.2997868379
0.2997925683
0.2997995562
0.2998069671
0.2998142898
0.2998212028
0.2998273984
0.2998320981
0.3000184566
0.2999891497
0.2999588063
0.2999316771
0.2999097111
0.2998932003
0.2998815473
0.2998738189
0.2998690616
0.2998664451
0.2998653068
0.2998651448
0.2998655876
0.2998663427
0.2998670804
0.3000311188
0.3000164004
0.3000005637
0.2999849422
0.2999704195
0.2999574532
0.2999461861
0.2999365643
0.2999284312
0.2999215906
0.2999158463
0.299911033
0.2999070763
0.2999042363
0.3000456486
0.3000378417
0.3000282759
0.3000175097
0.3000061284
0.2999946446
0.2999834543
0.2999728314
0.299962943
0.2999538737
0.299945653
0.2999382966
0.299931918
0.299927168
0.3000544516
0.3000513807
0.3000468814
0.3000409479
0.3000337377
0.3000255133
0.3000165812
0.3000072451
0.2999977754
0.299988396
0.2999792816
0.2999705675
0.2999623851
0.299954993
0.2999493245
0.3000512599
0.300045564
0.3000378295
0.300028487
0.3000181118
0.300007265
0.2999964077
0.2999858751
0.2999758844
0.2999665583
0.2999579524
0.2999500822
0.2999429629
0.2999367192
0.2999320263
0.3000431403
0.3000311204
0.3000164016
0.3000005643
0.2999849423
0.2999704192
0.2999574525
0.299946185
0.2999365629
0.2999284295
0.2999215886
0.2999158441
0.2999110307
0.2999070739
0.2999042337
0.3000282544
0.3000058604
0.2999817971
0.2999591589
0.2999395773
0.2999235622
0.299910965
0.2999013338
0.2998941293
0.2998888369
0.2998850128
0.2998822956
0.299880402
0.2998791215
0.2998783486
0.30001299
0.2999824473
0.2999537934
0.2999297548
0.2999108595
0.2998966409
0.2998863002
0.2998790151
0.2998740613
0.299870846
0.2998689026
0.299867872
0.2998674783
0.2998674959
0.2998676903
0.3000282546
0.3000058608
0.2999817977
0.2999591597
0.2999395784
0.2999235634
0.2999109664
0.2999013353
0.2998941309
0.2998888386
0.2998850145
0.2998822974
0.2998804037
0.2998791233
0.2998783504
0.3000431402
0.3000311203
0.3000164017
0.3000005647
0.2999849432
0.2999704204
0.299957454
0.2999461868
0.299936565
0.2999284318
0.2999215911
0.2999158468
0.2999110335
0.2999070767
0.2999042367
0.3000512596
0.3000455637
0.3000378293
0.300028487
0.3000181121
0.3000072656
0.2999964087
0.2999858765
0.2999758861
0.2999665604
0.2999579548
0.2999500849
0.2999429658
0.2999367224
0.2999320297
0.3000513802
0.300046881
0.3000409477
0.3000337377
0.3000255135
0.3000165818
0.300007246
0.2999977768
0.2999883978
0.2999792837
0.29997057
0.299962388
0.2999549962
0.2999493281
0.3000558649
0.3000540051
0.3000511456
0.3000471486
0.3000419837
0.3000357232
0.300028519
0.3000205727
0.3000121065
0.3000033403
0.2999944773
0.299985702
0.2999772096
0.2999693464
0.2999632138
0.3000544516
0.3000513806
0.3000468814
0.3000409479
0.3000337378
0.3000255134
0.3000165815
0.3000072454
0.2999977758
0.2999883965
0.2999792821
0.2999705681
0.2999623858
0.2999549937
0.2999493254
0.300051324
0.3000456493
0.3000378424
0.3000282765
0.3000175101
0.3000061286
0.2999946445
0.2999834539
0.2999728307
0.2999629421
0.2999538725
0.2999456515
0.299938295
0.2999319161
0.299927166
0.300046696
0.3000373733
0.3000254153
0.3000118163
0.2999975806
0.2999835238
0.2999702163
0.2999580013
0.2999470431
0.2999373793
0.2999289661
0.2999217156
0.2999155338
0.299910404
0.299906709
0.3000432817
0.3000315609
0.3000173672
0.3000020144
0.2999865839
0.2999718402
0.299958257
0.2999460783
0.2999353837
0.299926143
0.2999182604
0.299911607
0.2999060545
0.2999015419
0.2998983458
0.3000466961
0.3000373735
0.3000254156
0.3000118167
0.2999975812
0.2999835246
0.2999702172
0.2999580023
0.2999470443
0.2999373806
0.2999289675
0.299921717
0.2999155353
0.2999104056
0.2999067106
0.300051324
0.3000456494
0.3000378426
0.3000282768
0.3000175107
0.3000061294
0.2999946456
0.2999834552
0.2999728322
0.2999629439
0.2999538745
0.2999456537
0.2999382973
0.2999319186
0.2999271686
0.3000544515
0.3000513806
0.3000468813
0.300040948
0.300033738
0.3000255139
0.3000165821
0.3000072463
0.2999977771
0.2999883981
0.299979284
0.2999705703
0.2999623882
0.2999549965
0.2999493283
0.3000558648
0.300054005
0.3000511454
0.3000471485
0.3000419837
0.3000357234
0.3000285195
0.3000205734
0.3000121075
0.3000033417
0.299994479
0.2999857041
0.2999772121
0.2999693493
0.299963217
)
;

boundaryField
{
    top
    {
        type            calculated;
        value           nonuniform List<scalar> 
127
(
0.3000558648
0.300054005
0.3000513804
0.3000456489
0.3000373726
0.3000315599
0.3000373723
0.3000456486
0.3000513802
0.300054005
0.3000511453
0.3000468811
0.3000378419
0.3000254143
0.3000173659
0.3000254142
0.3000378417
0.300046881
0.3000511454
0.3000471483
0.3000409475
0.3000282758
0.3000118152
0.3000020129
0.3000118153
0.3000282759
0.3000409477
0.3000471485
0.3000419833
0.3000337373
0.3000175093
0.2999975793
0.2999865823
0.2999975796
0.3000175097
0.3000337377
0.3000419837
0.3000357227
0.3000255128
0.3000061277
0.2999835225
0.2999718386
0.299983523
0.3000061284
0.3000255135
0.3000357234
0.3000285184
0.3000165807
0.2999946435
0.2999702149
0.2999582553
0.2999702157
0.2999946446
0.3000165818
0.3000285195
0.300020572
0.3000072445
0.2999834528
0.2999579999
0.2999460767
0.2999580009
0.2999834543
0.300007246
0.3000205734
0.3000121057
0.2999977749
0.2999728296
0.2999470417
0.2999353821
0.2999470429
0.2999728314
0.2999977768
0.3000121075
0.3000033394
0.2999883955
0.2999629409
0.2999373779
0.2999261415
0.2999373793
0.299962943
0.2999883978
0.3000033417
0.2999944763
0.2999792811
0.2999538713
0.2999289647
0.2999182589
0.2999289663
0.2999538737
0.2999792837
0.299994479
0.299985701
0.2999705671
0.2999456503
0.2999217142
0.2999116057
0.2999217158
0.299945653
0.29997057
0.2999857041
0.2999772086
0.2999623847
0.2999382938
0.2999155325
0.2999060532
0.2999155342
0.2999382966
0.299962388
0.2999772121
0.2999693453
0.2999549926
0.2999319149
0.2999104027
0.2999015407
0.2999104046
0.299931918
0.2999549962
0.2999693493
0.2999632127
0.2999493242
0.2999271648
0.2999067078
0.2998983446
0.2999067097
0.299927168
0.2999493281
0.299963217
)
;
    }
    bottom
    {
        type            calculated;
        value           nonuniform List<scalar> 
134
(
0.3000544514
0.3000513238
0.3000466958
0.3000432816
0.300046696
0.300051324
0.3000544516
0.3000558649
0.3000540048
0.3000513803
0.3000456489
0.3000373728
0.3000315604
0.3000373731
0.3000456493
0.3000513807
0.3000540051
0.3000511451
0.3000468808
0.3000378416
0.3000254143
0.3000173661
0.3000254148
0.3000378423
0.3000468814
0.3000511456
0.300047148
0.3000409472
0.3000282754
0.3000118148
0.3000020127
0.3000118155
0.3000282762
0.3000409479
0.3000471486
0.3000419829
0.3000337368
0.3000175086
0.2999975785
0.2999865815
0.2999975793
0.3000175097
0.3000337377
0.3000419837
0.3000357222
0.3000255121
0.3000061266
0.2999835212
0.2999718371
0.2999835221
0.300006128
0.3000255133
0.3000357232
0.3000285178
0.3000165798
0.2999946421
0.2999702131
0.2999582533
0.2999702142
0.2999946437
0.3000165812
0.300028519
0.3000205712
0.3000072433
0.2999834511
0.2999579975
0.2999460741
0.2999579987
0.2999834528
0.3000072451
0.3000205727
0.3000121047
0.2999977734
0.2999728274
0.2999470389
0.299935379
0.2999470402
0.2999728294
0.2999977754
0.3000121065
0.3000033381
0.2999883937
0.2999629384
0.2999373747
0.2999261379
0.299937376
0.2999629406
0.299988396
0.3000033403
0.2999944748
0.299979279
0.2999538685
0.2999289611
0.2999182548
0.2999289626
0.2999538708
0.2999792816
0.2999944773
0.2999856992
0.2999705647
0.2999456472
0.2999217102
0.2999116013
0.2999217117
0.2999456496
0.2999705675
0.299985702
0.2999772065
0.299962382
0.2999382903
0.2999155282
0.2999060485
0.2999155298
0.2999382929
0.2999623851
0.2999772096
0.299969343
0.2999549897
0.2999319112
0.2999103982
0.2999015357
0.2999103998
0.2999319139
0.299954993
0.2999693464
0.2999632101
0.2999493211
0.2999271608
0.299906703
0.2998983393
0.2999067046
0.2999271636
0.2999493245
0.2999632138
)
;
    }
    side-walls
    {
        type            calculated;
        value           nonuniform List<scalar> 
261
(
0.3000540048
0.3000513802
0.3000456487
0.3000373725
0.3000315599
0.3000373726
0.3000456489
0.3000513805
0.300054005
0.3000511451
0.3000468807
0.3000378414
0.3000254138
0.3000173654
0.3000254141
0.3000378418
0.3000468811
0.3000511453
0.300047148
0.3000409471
0.3000282751
0.3000118143
0.3000020119
0.3000118146
0.3000282756
0.3000409475
0.3000471483
0.3000419829
0.3000337367
0.3000175083
0.2999975779
0.2999865806
0.2999975784
0.3000175089
0.3000337372
0.3000419833
0.3000357222
0.300025512
0.3000061263
0.2999835205
0.2999718362
0.2999835211
0.3000061271
0.3000255127
0.3000357227
0.3000285178
0.3000165797
0.2999946418
0.2999702124
0.2999582523
0.2999702131
0.2999946427
0.3000165805
0.3000285184
0.3000205712
0.3000072432
0.2999834507
0.2999579969
0.2999460731
0.2999579976
0.2999834518
0.3000072442
0.300020572
0.3000121047
0.2999977733
0.2999728271
0.2999470382
0.299935378
0.299947039
0.2999728283
0.2999977745
0.3000121057
0.3000033381
0.2999883936
0.2999629381
0.299937374
0.2999261369
0.2999373749
0.2999629395
0.299988395
0.3000033394
0.2999944748
0.2999792789
0.2999538681
0.2999289604
0.2999182539
0.2999289614
0.2999538697
0.2999792805
0.2999944763
0.2999856992
0.2999705646
0.2999456468
0.2999217096
0.2999116003
0.2999217106
0.2999456485
0.2999705664
0.299985701
0.2999772065
0.2999623819
0.29993829
0.2999155276
0.2999060476
0.2999155287
0.2999382918
0.299962384
0.2999772086
0.299969343
0.2999549896
0.2999319109
0.2999103976
0.2999015348
0.2999103987
0.2999319128
0.2999549919
0.2999693453
0.2999632101
0.299949321
0.2999271604
0.2999067024
0.2998983384
0.2999067036
0.2999271625
0.2999493234
0.2999632127
0.3000558649
0.3000544516
0.300051324
0.300046696
0.3000432817
0.3000466961
0.300051324
0.3000544515
0.3000558648
0.3000540051
0.3000513806
0.3000456493
0.3000373733
0.3000315609
0.3000373735
0.3000456494
0.3000513806
0.300054005
0.3000511456
0.3000468814
0.3000378424
0.3000254153
0.3000173672
0.3000254156
0.3000378426
0.3000468813
0.3000511454
0.3000471486
0.3000409479
0.3000282765
0.3000118163
0.3000020144
0.3000118167
0.3000282768
0.300040948
0.3000471485
0.3000419837
0.3000337378
0.3000175101
0.2999975806
0.2999865839
0.2999975812
0.3000175107
0.300033738
0.3000419837
0.3000357232
0.3000255134
0.3000061286
0.2999835238
0.2999718402
0.2999835246
0.3000061294
0.3000255139
0.3000357234
0.300028519
0.3000165815
0.2999946445
0.2999702163
0.299958257
0.2999702172
0.2999946456
0.3000165821
0.3000285195
0.3000205727
0.3000072454
0.2999834539
0.2999580013
0.2999460783
0.2999580023
0.2999834552
0.3000072463
0.3000205734
0.3000121065
0.2999977758
0.2999728307
0.2999470431
0.2999353837
0.2999470443
0.2999728322
0.2999977771
0.3000121075
0.3000033403
0.2999883965
0.2999629421
0.2999373793
0.299926143
0.2999373806
0.2999629439
0.2999883981
0.3000033417
0.2999944773
0.2999792821
0.2999538725
0.2999289661
0.2999182604
0.2999289675
0.2999538745
0.299979284
0.299994479
0.299985702
0.2999705681
0.2999456515
0.2999217156
0.299911607
0.299921717
0.2999456537
0.2999705703
0.2999857041
0.2999772096
0.2999623858
0.299938295
0.2999155338
0.2999060545
0.2999155353
0.2999382973
0.2999623882
0.2999772121
0.2999693464
0.2999549937
0.2999319161
0.299910404
0.2999015419
0.2999104056
0.2999319186
0.2999549965
0.2999693493
0.2999632138
0.2999493254
0.299927166
0.299906709
0.2998983458
0.2999067106
0.2999271686
0.2999493283
0.299963217
)
;
    }
    inlet
    {
        type            calculated;
        value           nonuniform 0();
    }
    outlet
    {
        type            calculated;
        value           nonuniform List<scalar> 
81
(
0.2999632101
0.299949321
0.2999271604
0.2999067024
0.2998983384
0.2999067036
0.2999271625
0.2999493234
0.2999632127
0.2999493211
0.2999320222
0.2999042284
0.2998783421
0.2998676832
0.2998783437
0.299904231
0.2999320251
0.2999493242
0.2999271608
0.2999042286
0.2998670721
0.2998320901
0.299817554
0.2998320922
0.2998670755
0.2999042324
0.2999271648
0.299906703
0.2998783427
0.2998320905
0.2997881677
0.2997697578
0.2997881702
0.2998320946
0.2998783473
0.2999067078
0.2998983393
0.2998676841
0.2998175547
0.2997697583
0.2997494756
0.2997697612
0.2998175593
0.2998676892
0.2998983446
0.2999067046
0.2998783448
0.2998320933
0.2997881711
0.2997697617
0.2997881738
0.2998320976
0.2998783496
0.2999067097
0.2999271636
0.2999042321
0.2998670767
0.2998320958
0.2998175602
0.2998320981
0.2998670804
0.2999042363
0.299927168
0.2999493245
0.2999320263
0.2999042337
0.2998783486
0.2998676903
0.2998783504
0.2999042367
0.2999320297
0.2999493281
0.2999632138
0.2999493254
0.299927166
0.299906709
0.2998983458
0.2999067106
0.2999271686
0.2999493283
0.299963217
)
;
    }
    procBoundary1to0
    {
        type            processor;
        value           nonuniform List<scalar> 
97
(
0.3000558648
0.3000558648
0.3000544515
0.3000513241
0.3000466962
0.3000432822
0.3000466964
0.3000513243
0.3000544517
0.300055865
0.3000562896
0.3000512596
0.3000512596
0.3000512596
0.3000431402
0.300028255
0.3000129915
0.3000282556
0.3000431409
0.3000512602
0.3000544517
0.300054855
0.3000512188
0.3000184563
0.3000184563
0.3000184563
0.2999595327
0.299867772
0.2999595361
0.3000184597
0.3000431409
0.3000513242
0.3000527836
0.3000448978
0.3000177532
0.2997278186
0.2997278186
0.2997278186
0.2990888403
0.2997278411
0.2999595358
0.3000282555
0.3000466963
0.3000513291
0.3000390412
0.2999882231
0.2997909049
0.2938883536
0.2938883536
0.2938883536
0.299088836
0.299088836
0.2998677711
0.3000129914
0.3000432821
0.3000527836
0.3000448979
0.3000177532
0.2999402345
0.2997909035
0.299940236
0.2999595289
0.2999595289
0.2999595289
0.3000282543
0.3000466961
0.300054855
0.3000512188
0.300040717
0.3000177531
0.299988223
0.3000177535
0.300040717
0.3000431396
0.3000431396
0.3000431396
0.3000513239
0.3000562896
0.3000548337
0.3000512188
0.3000448978
0.3000390412
0.300044898
0.3000512188
0.3000548337
0.3000544514
0.3000544514
0.3000544514
0.3000569466
0.3000562896
0.300054855
0.3000527836
0.3000513291
0.3000527836
0.300054855
0.3000562896
0.3000569466
)
;
    }
}


// ************************************************************************* //
