/*--------------------------------*- C++ -*----------------------------------*\
| =========                 |                                                 |
| \\      /  F ield         | OpenFOAM: The Open Source CFD Toolbox           |
|  \\    /   O peration     | Version:  4.x                                   |
|   \\  /    A nd           | Web:      www.OpenFOAM.org                      |
|    \\/     M anipulation  |                                                 |
\*---------------------------------------------------------------------------*/
FoamFile
{
    version     2.0;
    format      ascii;
    class       volScalarField;
    location    "2000";
    object      X_H2O;
}
// * * * * * * * * * * * * * * * * * * * * * * * * * * * * * * * * * * * * * //

dimensions      [0 0 0 0 0 0 0];

internalField   nonuniform List<scalar> 
1174
(
1.822484862e-05
2.054415046e-05
2.378512694e-05
2.797171507e-05
3.304455431e-05
3.887963268e-05
4.531280918e-05
5.216335164e-05
5.925260002e-05
6.641567623e-05
7.350303098e-05
8.035711083e-05
8.66990095e-05
9.164255714e-05
2.035646287e-05
2.400707411e-05
2.881980549e-05
3.46658681e-05
4.133137137e-05
4.856678215e-05
5.612532435e-05
6.378716882e-05
7.137080293e-05
7.873465077e-05
8.576920758e-05
9.236886845e-05
9.832600959e-05
0.0001028909901
2.501244822e-05
3.134905501e-05
3.911046276e-05
4.784201569e-05
5.706758656e-05
6.637063317e-05
7.54296453e-05
8.402248953e-05
9.201390618e-05
9.933591898e-05
0.0001059652741
0.0001118901942
0.0001170212386
0.0001208382769
3.173750802e-05
4.144574282e-05
5.248137868e-05
6.402765748e-05
7.542158472e-05
8.620020483e-05
9.608534298e-05
0.0001049443439
0.0001127475626
0.0001195314241
0.0001253682788
0.0001303354252
0.0001344492318
0.0001374073973
3.646221566e-05
4.798659423e-05
6.044586866e-05
7.296073741e-05
8.491015599e-05
9.590998393e-05
0.0001057627533
0.0001144049951
0.000121862064
0.0001282128893
0.0001335628344
0.0001380174825
0.0001416289055
0.0001441812088
3.173729118e-05
4.144542456e-05
5.248093327e-05
6.402705592e-05
7.542079347e-05
8.619920881e-05
9.608414239e-05
0.0001049429412
0.0001127459494
0.0001195296223
0.0001253663082
0.0001303333051
0.0001344469601
0.0001374050028
2.501210904e-05
3.134860651e-05
3.910987197e-05
4.784122194e-05
5.706654953e-05
6.636929395e-05
7.54279712e-05
8.402046003e-05
9.201150591e-05
9.933317223e-05
0.0001059621869
0.0001118867688
0.0001170175176
0.0001208342716
2.035615845e-05
2.400671481e-05
2.881935607e-05
3.466526216e-05
4.133053906e-05
4.856564213e-05
5.612382778e-05
6.378525219e-05
7.13684342e-05
7.873181581e-05
8.576588873e-05
9.236508315e-05
9.832175025e-05
0.0001028863283
1.822462694e-05
2.054392421e-05
2.378485263e-05
2.797132858e-05
3.304397861e-05
3.887878901e-05
4.531161458e-05
5.216172086e-05
5.925047875e-05
6.641303179e-05
7.349981129e-05
8.035330039e-05
8.669460723e-05
9.163753766e-05
1.786390286e-05
2.03562412e-05
2.400686342e-05
2.881960149e-05
3.466567217e-05
4.133118058e-05
4.85665835e-05
5.612513272e-05
6.378698342e-05
7.137062154e-05
7.873446018e-05
8.576901297e-05
9.236868097e-05
9.832581862e-05
0.0001028908143
2.508266903e-05
3.136057974e-05
3.894084401e-05
4.735511829e-05
5.61470302e-05
6.494176579e-05
7.346735139e-05
8.154771528e-05
8.908353896e-05
9.603032649e-05
0.0001023761026
0.0001081096029
0.0001131319958
0.0001169032116
3.682117714e-05
4.877243479e-05
6.162570717e-05
7.429665993e-05
8.606764827e-05
9.656761258e-05
0.0001056815183
0.0001134541027
0.000120013594
0.0001255202639
0.0001301341372
0.0001339905922
0.0001371525103
0.0001394170301
5.735604586e-05
7.689907405e-05
9.527322257e-05
0.0001111533861
0.0001241269576
0.0001343166598
0.0001420916647
0.0001478916183
0.0001521358972
0.0001551859107
0.000157336018
0.0001588172753
0.0001598027968
0.0001603867322
7.639561844e-05
9.966763576e-05
0.0001191751362
0.000134491548
0.0001459989804
0.0001543494293
0.0001602132746
0.0001641804967
0.0001667340311
0.0001682536239
0.0001690316584
0.0001692931428
0.0001692233338
0.00016902096
5.735519142e-05
7.689804435e-05
9.527198784e-05
0.0001111518978
0.0001241252059
0.0001343146555
0.0001420894622
0.0001478891972
0.0001521332903
0.0001551831672
0.0001573331446
0.0001588143096
0.0001597997507
0.0001603835836
3.682012373e-05
4.877128306e-05
6.162435113e-05
7.429498402e-05
8.606557207e-05
9.656508924e-05
0.0001056785595
0.0001134507222
0.0001200098333
0.0001255161555
0.0001301297215
0.0001339858889
0.0001371475576
0.000139411848
2.508201623e-05
3.135995405e-05
3.894008172e-05
4.735407263e-05
5.614559706e-05
6.493985675e-05
7.346492482e-05
8.154474381e-05
8.908001525e-05
9.602626443e-05
0.0001023715177
0.0001081045371
0.0001131264748
0.0001168972782
2.035618121e-05
2.400671076e-05
2.881930301e-05
3.466512749e-05
4.133029613e-05
4.856525173e-05
5.612326316e-05
6.378450748e-05
7.136750528e-05
7.873069026e-05
8.576458228e-05
9.236358925e-05
9.832008104e-05
0.0001028844101
2.040465279e-05
2.501190572e-05
3.134848028e-05
3.910986572e-05
4.784140087e-05
5.706696838e-05
6.637001312e-05
7.542903088e-05
8.402189022e-05
9.201330337e-05
9.933531717e-05
0.0001059646878
0.0001118896113
0.0001170206931
0.0001208377321
2.705712134e-05
3.682044086e-05
4.877178309e-05
6.162510808e-05
7.429609715e-05
8.60671231e-05
9.65670898e-05
0.0001056810262
0.0001134536295
0.0001200131469
0.0001255198158
0.0001301337155
0.0001339901813
0.0001371521103
0.0001394166522
7.094243061e-05
9.558722016e-05
0.0001176074723
0.0001354205236
0.0001487916779
0.0001582090881
0.0001644334402
0.0001682414616
0.0001703089612
0.0001711752064
0.0001712484965
0.0001708313331
0.0001701634597
0.0001695206034
0.0001455993957
0.00018633043
0.0002138645036
0.0002296589659
0.0002366535183
0.0002377043258
0.0002350646156
0.0002303373929
0.0002245911448
0.0002185042431
0.0002124918686
0.0002068154812
0.0002017264067
0.0001978644496
0.0002417001535
0.0002813212108
0.0002975723866
0.0002995875948
0.0002937669796
0.000284077857
0.0002728361888
0.000261337556
0.0002502730337
0.000239984602
0.0002306210924
0.0002222496772
0.0002150135641
0.0002096420421
0.0001455954864
0.0001863266926
0.0002138606616
0.0002296548823
0.0002366492036
0.0002376998159
0.0002350600369
0.0002303327745
0.0002245865263
0.0002184996893
0.0002124874122
0.000206811069
0.0002017220739
0.0001978601355
7.093925033e-05
9.558445605e-05
0.0001176044163
0.0001354168411
0.0001487873074
0.00015820409
0.0001644279034
0.0001682354977
0.0001703026808
0.0001711687209
0.0001712418494
0.0001708245272
0.0001701565889
0.000169513574
3.682017011e-05
4.877115066e-05
6.162393457e-05
7.429422635e-05
8.60644542e-05
9.65636157e-05
0.0001056767637
0.0001134486416
0.0001200074915
0.0001255135909
0.0001301269801
0.000133983005
0.000137144561
0.0001394087289
2.501216383e-05
3.134853555e-05
3.910956796e-05
4.784058859e-05
5.70654991e-05
6.636777604e-05
7.542596654e-05
8.401796592e-05
9.200853435e-05
9.932974569e-05
0.000105958349
0.0001118825674
0.0001170129592
0.0001208293065
2.416552943e-05
3.173660301e-05
4.144472539e-05
5.24802828e-05
6.402650181e-05
7.54203987e-05
8.6199003e-05
9.608414379e-05
0.0001049431714
0.0001127463884
0.000119530278
0.0001253671598
0.000130334346
0.000134448205
0.0001374064303
3.915892454e-05
5.73544518e-05
7.689751186e-05
9.52717262e-05
0.0001111519358
0.0001241255915
0.0001343153488
0.0001420904456
0.000147890444
0.0001521347623
0.0001551848466
0.0001573349914
0.000158816305
0.0001598018915
0.0001603858569
9.505373037e-05
0.0001455963859
0.0001863281698
0.0002138626665
0.0002296574166
0.0002366521688
0.0002377031265
0.0002350635718
0.0002303364178
0.0002245902644
0.0002185034694
0.0002124911807
0.0002068148424
0.000201725817
0.0001978638948
0.0003978938397
0.0004468797778
0.0004530076446
0.0004364695197
0.0004101980724
0.0003813400535
0.000353427747
0.0003279755206
0.0003054548662
0.0002858405663
0.0002689044098
0.0002543935592
0.000242261615
0.0002334568998
0.0008849189769
0.0008161880239
0.000715169739
0.0006196858233
0.000539234568
0.0004739929621
0.0004216016938
0.00037943462
0.0003452487689
0.0003172868136
0.0002942235167
0.0002751160239
0.000259521655
0.0002483750828
0.0003978792133
0.0004468692389
0.0004529980621
0.0004364601708
0.000410189026
0.0003813313903
0.000353419571
0.0003279678069
0.0003054475912
0.0002858337419
0.000268897962
0.0002543874921
0.0002422558695
0.0002334512505
0.0001455957906
0.0001863253734
0.0002138577417
0.0002296507413
0.000236644237
0.0002376943584
0.000235054324
0.0002303269682
0.0002245807169
0.0002184939805
0.0002124818281
0.0002068056346
0.0002017167617
0.0001978549052
5.73553496e-05
7.689734716e-05
9.527017753e-05
0.0001111489316
0.000124121195
0.0001343097394
0.0001420837823
0.0001478829351
0.0001521265904
0.0001551761391
0.0001573258775
0.0001588068499
0.0001597921548
0.0001603758163
3.17374207e-05
4.144517677e-05
5.248005575e-05
6.402535991e-05
7.541817711e-05
8.619563111e-05
9.607962007e-05
0.0001049375386
0.0001127397576
0.0001195227096
0.0001253587786
0.0001303252358
0.0001344384025
0.000137395901
2.694104806e-05
3.646112836e-05
4.798530823e-05
6.044443303e-05
7.295917815e-05
8.490852067e-05
9.590831936e-05
0.000105761068
0.000114403308
0.0001218604229
0.0001282112906
0.0001335612552
0.0001380159581
0.0001416274053
0.000144179744
5.157305667e-05
7.639336589e-05
9.966519971e-05
0.0001191726574
0.0001344890995
0.0001459966249
0.0001543472001
0.0001602111714
0.000164178513
0.0001667321536
0.0001682518746
0.0001690300001
0.0001692915749
0.000169221813
0.0001690195172
0.0001697094338
0.0002416952717
0.0002813164756
0.0002975681176
0.0002995838813
0.0002937637888
0.0002840751013
0.0002728337742
0.0002613354182
0.0002502711435
0.0002399829401
0.0002306195522
0.0002222482764
0.0002150122878
0.0002096408696
0.0008036138853
0.0008849043503
0.0008161787606
0.0007151634114
0.0006196812156
0.0005392311474
0.0004739902822
0.0004215995705
0.000379432806
0.0003452472736
0.0003172855604
0.0002942224875
0.0002751150934
0.000259520843
0.0002483743209
0.002966147144
0.00189236511
0.001302250252
0.0009585913365
0.0007464838354
0.0006080426081
0.0005129320471
0.000444589478
0.0003935862008
0.0003543265771
0.0003233616277
0.0002985397914
0.0002787538941
0.0002648106213
0.0008849193079
0.0008161732064
0.0007151510725
0.0006196675883
0.0005392179078
0.0004739780709
0.0004215884575
0.0003794228019
0.0003452381623
0.0003172771789
0.0002942147227
0.0002751079189
0.0002595141101
0.0002483678389
0.0002417010612
0.0002813153437
0.0002975619659
0.0002995746318
0.0002937528597
0.0002840633458
0.0002728217616
0.0002613234727
0.0002502594449
0.0002399715458
0.0002306085368
0.0002222376018
0.0002150019175
0.0002096306201
7.639597539e-05
9.966580767e-05
0.0001191709387
0.0001344852244
0.00014599091
0.0001543400251
0.0001602028453
0.0001641693514
0.0001667223384
0.0001682415767
0.0001690193708
0.0001692807129
0.0001692108165
0.0001690082989
3.646245305e-05
4.79860762e-05
6.044421255e-05
7.29577147e-05
8.490569926e-05
9.590407996e-05
0.000105755508
0.0001143965165
0.0001218525131
0.0001282023992
0.0001335515417
0.0001380055193
0.0001416163235
0.0001441679782
2.416543967e-05
3.173630901e-05
4.144419203e-05
5.247948665e-05
6.402544124e-05
7.541905632e-05
8.619738801e-05
9.60822623e-05
0.0001049410286
0.0001127440431
0.0001195277275
0.0001253644338
0.0001303314672
0.0001344451542
0.0001374032478
3.915813863e-05
5.735306658e-05
7.68956161e-05
9.52693901e-05
0.0001111492369
0.0001241225881
0.0001343120972
0.0001420869609
0.0001478868039
0.0001521310163
0.000155181012
0.0001573310931
0.0001588123413
0.0001597978652
0.0001603817789
9.504713357e-05
0.0001455901689
0.0001863214023
0.000213855669
0.000229650331
0.0002366451267
0.0002376961896
0.0002350567882
0.0002303298159
0.0002245838699
0.0002184972817
0.0002124852159
0.0002068090606
0.0002017201986
0.0001978583893
0.0002835487462
0.0003978659637
0.000446858496
0.0004529894777
0.000436453314
0.0004101835488
0.000381326944
0.0003534159025
0.0003279646927
0.0003054449857
0.0002858314991
0.0002688960045
0.0002543857308
0.0002422542595
0.000233449798
0.0008036094157
0.0008848985924
0.000816160268
0.0007151426364
0.0006196617749
0.0005392136909
0.0004739749992
0.0004215860585
0.0003794208479
0.0003452365631
0.0003172758637
0.0002942136208
0.0002751069501
0.0002595132284
0.0002483670254
0.0002835531906
0.0003978652557
0.0004468530261
0.0004529810299
0.0004364434949
0.0004101733979
0.000381316997
0.000353406417
0.0003279557998
0.0003054366894
0.0002858237036
0.0002688886819
0.0002543788601
0.000242247765
0.0002334435168
0.0001455995065
0.0001863235245
0.00021385273
0.0002296439533
0.0002366365587
0.0002376863252
0.0002350462508
0.0002303190408
0.0002245730599
0.0002184865897
0.0002124746862
0.0002067987749
0.0002017101636
0.0001978484238
5.735674531e-05
7.689744721e-05
9.526899893e-05
0.0001111466777
0.0001241181062
0.0001343060135
0.000142079586
0.0001478784272
0.0001521218605
0.0001551712852
0.0001573209439
0.000158801872
0.000159787156
0.0001603707813
3.173785759e-05
4.144530989e-05
5.247971701e-05
6.402447231e-05
7.541674224e-05
8.619367658e-05
9.607719638e-05
0.0001049346991
0.0001127365445
0.0001195192024
0.000125355019
0.0001303212724
0.0001344342872
0.000137391651
2.040445952e-05
2.50114496e-05
3.134772698e-05
3.91087757e-05
4.78399326e-05
5.706509488e-05
6.636770001e-05
7.542626192e-05
8.401868617e-05
9.200966912e-05
9.933128733e-05
0.0001059602746
0.0001118848607
0.000117015628
0.0001208323808
2.705591244e-05
3.681883341e-05
4.8769683e-05
6.162250986e-05
7.429296092e-05
8.606343525e-05
9.656288415e-05
0.0001056763491
0.0001134485071
0.0001200076428
0.0001255139878
0.0001301276056
0.0001339838245
0.0001371455518
0.0001394098804
4.712280458e-05
7.093621659e-05
9.558105612e-05
0.0001176008594
0.0001354133063
0.0001487838673
0.0001582007898
0.0001644247966
0.0001682325764
0.0001702999449
0.0001711661351
0.0001712394207
0.0001708222682
0.0001701544348
0.0001695115355
9.504718486e-05
0.0001455889792
0.0001863186216
0.0002138515196
0.0002296451541
0.0002366392971
0.0002376899998
0.0002350504642
0.0002303235728
0.0002245777003
0.0002184912589
0.0002124793505
0.0002068033841
0.000201714698
0.0001978529565
0.0001697089419
0.0002416897647
0.0002813058299
0.000297554203
0.0002995683395
0.0002937477018
0.0002840591405
0.0002728182603
0.0002613204613
0.0002502568798
0.0002399693118
0.0002306065298
0.000222235826
0.0002150003077
0.0002096291077
9.504681067e-05
0.0001455876217
0.0001863158449
0.0002138474147
0.0002296400875
0.0002366336114
0.0002376840181
0.0002350443949
0.0002303175119
0.000224571741
0.000218485427
0.000212473677
0.0002067978925
0.0002017093347
0.0001978476578
4.712510604e-05
7.093796774e-05
9.558114636e-05
0.0001175990133
0.0001354096401
0.0001487787173
0.0001581945163
0.0001644176937
0.0001682249227
0.0001702919288
0.0001711579007
0.0001712310542
0.0001708138527
0.0001701459898
0.0001695030145
3.682116874e-05
4.877090045e-05
6.162242554e-05
7.429149446e-05
8.606059344e-05
9.655878193e-05
0.0001056710999
0.0001134423016
0.0001200005906
0.0001255062446
0.0001301192882
0.0001339750224
0.0001371363534
0.0001394003019
2.501264756e-05
3.134865313e-05
3.910912543e-05
4.783944967e-05
5.706359093e-05
6.636508893e-05
7.542251929e-05
8.401380119e-05
9.200370188e-05
9.932432016e-05
0.0001059523975
0.0001118761401
0.0001170061376
0.0001208221435
1.786360988e-05
2.035576448e-05
2.400615646e-05
2.881862054e-05
3.4664343e-05
4.132944872e-05
4.856438865e-05
5.61224268e-05
6.378373363e-05
7.136681211e-05
7.87300974e-05
8.576409501e-05
9.236323716e-05
9.831988409e-05
0.0001028844368
2.045685919e-05
2.508131705e-05
3.135901965e-05
3.893891339e-05
4.735269821e-05
5.614404714e-05
6.493816454e-05
7.346312499e-05
8.154286301e-05
8.907807573e-05
9.602429261e-05
0.0001023695258
0.000108102527
0.0001131244713
0.0001168953119
2.705593662e-05
3.681874087e-05
4.876935744e-05
6.162185964e-05
7.429195644e-05
8.606205507e-05
9.656117007e-05
0.0001056743075
0.000113446199
0.0001200050857
0.0001255112449
0.0001301246826
0.00013398077
0.0001371423916
0.0001394066319
3.915822408e-05
5.73525542e-05
7.689411868e-05
9.526674379e-05
0.0001111454541
0.0001241177765
0.000134306429
0.000142080632
0.0001478799696
0.0001521237904
0.0001551734969
0.0001573233742
0.0001588044858
0.0001597899416
0.0001603737265
5.157295117e-05
7.639158898e-05
9.966119837e-05
0.0001191664538
0.000134481019
0.0001459870279
0.000154336478
0.0001601996284
0.0001641664022
0.0001667196341
0.0001682391237
0.0001690170989
0.0001692786149
0.000169208859
0.0001690064443
3.915792305e-05
5.735190757e-05
7.68929709e-05
9.526501287e-05
0.0001111431671
0.0001241150061
0.0001343032746
0.0001420771622
0.0001478762557
0.0001521199146
0.0001551694989
0.0001573193048
0.0001588003721
0.0001597857638
0.0001603694707
2.705608486e-05
3.681877762e-05
4.876892096e-05
6.162071854e-05
7.428997313e-05
8.605924078e-05
9.655755557e-05
0.0001056699852
0.0001134412749
0.0001199996639
0.0001255053946
0.0001301185001
0.0001339743059
0.0001371356947
0.0001393996847
2.04573547e-05
2.508185479e-05
3.135929961e-05
3.893869778e-05
4.735180054e-05
5.614236333e-05
6.493564586e-05
7.345975472e-05
8.153867012e-05
8.907311302e-05
9.601860213e-05
0.0001023631754
0.0001080955967
0.0001131170096
0.0001168873503
2.035647516e-05
2.400668029e-05
2.881881941e-05
3.466406219e-05
4.132852897e-05
4.856270422e-05
5.611989525e-05
6.378029425e-05
7.136245455e-05
7.872482889e-05
8.575795568e-05
9.235624298e-05
9.831206753e-05
0.000102875827
1.671571805e-05
1.82243644e-05
2.054353811e-05
2.378431889e-05
2.797063432e-05
3.304311705e-05
3.887775919e-05
4.531042358e-05
5.216039285e-05
5.924901809e-05
6.641145167e-05
7.349813012e-05
8.03515461e-05
8.669278591e-05
9.163567694e-05
1.7863627e-05
2.035577351e-05
2.400613141e-05
2.881853185e-05
3.466416258e-05
4.132914669e-05
4.856393214e-05
5.612179986e-05
6.378292346e-05
7.136582241e-05
7.872892344e-05
8.576273543e-05
9.236170006e-05
9.831816193e-05
0.0001028824738
2.040449934e-05
2.501141781e-05
3.134752535e-05
3.910829862e-05
4.783908701e-05
5.706380104e-05
6.636592944e-05
7.542400864e-05
8.401593165e-05
9.200645488e-05
9.932764208e-05
0.0001059562343
0.0001118804472
0.0001170108577
0.0001208272349
2.416548471e-05
3.17360958e-05
4.144347434e-05
5.247803096e-05
6.40230973e-05
7.541575909e-05
8.619311805e-05
9.60770701e-05
0.0001049350017
0.0001127372527
0.0001195202828
0.0001253564044
0.000130322942
0.0001344362027
0.0001373937663
2.694101591e-05
3.646051703e-05
4.798370635e-05
6.044156393e-05
7.295492239e-05
8.490283322e-05
9.590124136e-05
0.0001057527212
0.000114393835
0.0001218499535
0.0001281999648
0.0001335492231
0.0001380033206
0.0001416142271
0.0001441659845
2.41653325e-05
3.173578897e-05
4.144292406e-05
5.247718354e-05
6.402189778e-05
7.54141931e-05
8.619120675e-05
9.607482913e-05
0.0001049324612
0.0001127344451
0.0001195172282
0.0001253531649
0.0001303195498
0.0001344326585
0.0001373900927
2.040443015e-05
2.501125696e-05
3.134714172e-05
3.910756023e-05
4.783788128e-05
5.70620504e-05
6.636358927e-05
7.542107367e-05
8.401242701e-05
9.200240979e-05
9.932310335e-05
0.0001059512579
0.000111875071
0.0001170051142
0.0001208211698
1.786368587e-05
2.035584436e-05
2.400610094e-05
2.881825894e-05
3.466351179e-05
4.132798892e-05
4.856218607e-05
5.611938979e-05
6.37798154e-05
7.136199904e-05
7.872439754e-05
8.575753634e-05
9.23558455e-05
9.831168918e-05
0.000102875474
1.671586604e-05
1.822456663e-05
2.05437035e-05
2.378433134e-05
2.79703611e-05
3.304241851e-05
3.887650429e-05
4.530850139e-05
5.215771174e-05
5.924551747e-05
6.640709399e-05
7.349290585e-05
8.034545775e-05
8.668585895e-05
9.162792768e-05
)
;

boundaryField
{
    top
    {
        type            calculated;
        value           nonuniform List<scalar> 
127
(
1.671586604e-05
1.822462694e-05
2.035618121e-05
2.501216383e-05
3.17374207e-05
3.646245305e-05
3.173785759e-05
2.501264756e-05
2.035647516e-05
1.822456663e-05
2.054392421e-05
2.400671076e-05
3.134853555e-05
4.144517677e-05
4.79860762e-05
4.144530989e-05
3.134865313e-05
2.400668029e-05
2.05437035e-05
2.378485263e-05
2.881930301e-05
3.910956796e-05
5.248005575e-05
6.044421255e-05
5.247971701e-05
3.910912543e-05
2.881881941e-05
2.378433134e-05
2.797132858e-05
3.466512749e-05
4.784058859e-05
6.402535991e-05
7.29577147e-05
6.402447231e-05
4.783944967e-05
3.466406219e-05
2.79703611e-05
3.304397861e-05
4.133029613e-05
5.70654991e-05
7.541817711e-05
8.490569926e-05
7.541674224e-05
5.706359093e-05
4.132852897e-05
3.304241851e-05
3.887878901e-05
4.856525173e-05
6.636777604e-05
8.619563111e-05
9.590407996e-05
8.619367658e-05
6.636508893e-05
4.856270422e-05
3.887650429e-05
4.531161458e-05
5.612326316e-05
7.542596654e-05
9.607962007e-05
0.000105755508
9.607719638e-05
7.542251929e-05
5.611989525e-05
4.530850139e-05
5.216172086e-05
6.378450748e-05
8.401796592e-05
0.0001049375386
0.0001143965165
0.0001049346991
8.401380119e-05
6.378029425e-05
5.215771174e-05
5.925047875e-05
7.136750528e-05
9.200853435e-05
0.0001127397576
0.0001218525131
0.0001127365445
9.200370188e-05
7.136245455e-05
5.924551747e-05
6.641303179e-05
7.873069026e-05
9.932974569e-05
0.0001195227096
0.0001282023992
0.0001195192024
9.932432016e-05
7.872482889e-05
6.640709399e-05
7.349981129e-05
8.576458228e-05
0.000105958349
0.0001253587786
0.0001335515417
0.000125355019
0.0001059523975
8.575795568e-05
7.349290585e-05
8.035330039e-05
9.236358925e-05
0.0001118825674
0.0001303252358
0.0001380055193
0.0001303212724
0.0001118761401
9.235624298e-05
8.034545775e-05
8.669460723e-05
9.832008104e-05
0.0001170129592
0.0001344384025
0.0001416163235
0.0001344342872
0.0001170061376
9.831206753e-05
8.668585895e-05
9.163753766e-05
0.0001028844101
0.0001208293065
0.000137395901
0.0001441679782
0.000137391651
0.0001208221435
0.000102875827
9.162792768e-05
)
;
    }
    bottom
    {
        type            calculated;
        value           nonuniform List<scalar> 
134
(
1.786390286e-05
2.040465279e-05
2.416552943e-05
2.694104806e-05
2.416543967e-05
2.040445952e-05
1.786360988e-05
1.671571805e-05
1.822484862e-05
2.03562412e-05
2.501190572e-05
3.173660301e-05
3.646112836e-05
3.173630901e-05
2.50114496e-05
2.035576448e-05
1.82243644e-05
2.054415046e-05
2.400686342e-05
3.134848028e-05
4.144472539e-05
4.798530823e-05
4.144419203e-05
3.134772698e-05
2.400615646e-05
2.054353811e-05
2.378512694e-05
2.881960149e-05
3.910986572e-05
5.24802828e-05
6.044443303e-05
5.247948665e-05
3.91087757e-05
2.881862054e-05
2.378431889e-05
2.797171507e-05
3.466567217e-05
4.784140087e-05
6.402650181e-05
7.295917815e-05
6.402544124e-05
4.78399326e-05
3.4664343e-05
2.797063432e-05
3.304455431e-05
4.133118058e-05
5.706696838e-05
7.54203987e-05
8.490852067e-05
7.541905632e-05
5.706509488e-05
4.132944872e-05
3.304311705e-05
3.887963268e-05
4.85665835e-05
6.637001312e-05
8.6199003e-05
9.590831936e-05
8.619738801e-05
6.636770001e-05
4.856438865e-05
3.887775919e-05
4.531280918e-05
5.612513272e-05
7.542903088e-05
9.608414379e-05
0.000105761068
9.60822623e-05
7.542626192e-05
5.61224268e-05
4.531042358e-05
5.216335164e-05
6.378698342e-05
8.402189022e-05
0.0001049431714
0.000114403308
0.0001049410286
8.401868617e-05
6.378373363e-05
5.216039285e-05
5.925260002e-05
7.137062154e-05
9.201330337e-05
0.0001127463884
0.0001218604229
0.0001127440431
9.200966912e-05
7.136681211e-05
5.924901809e-05
6.641567623e-05
7.873446018e-05
9.933531717e-05
0.000119530278
0.0001282112906
0.0001195277275
9.933128733e-05
7.87300974e-05
6.641145167e-05
7.350303098e-05
8.576901297e-05
0.0001059646878
0.0001253671598
0.0001335612552
0.0001253644338
0.0001059602746
8.576409501e-05
7.349813012e-05
8.035711083e-05
9.236868097e-05
0.0001118896113
0.000130334346
0.0001380159581
0.0001303314672
0.0001118848607
9.236323716e-05
8.03515461e-05
8.66990095e-05
9.832581862e-05
0.0001170206931
0.000134448205
0.0001416274053
0.0001344451542
0.000117015628
9.831988409e-05
8.669278591e-05
9.164255714e-05
0.0001028908143
0.0001208377321
0.0001374064303
0.000144179744
0.0001374032478
0.0001208323808
0.0001028844368
9.163567694e-05
)
;
    }
    side-walls
    {
        type            calculated;
        value           nonuniform List<scalar> 
261
(
1.822484862e-05
2.035646287e-05
2.501244822e-05
3.173750802e-05
3.646221566e-05
3.173729118e-05
2.501210904e-05
2.035615845e-05
1.822462694e-05
2.054415046e-05
2.400707411e-05
3.134905501e-05
4.144574282e-05
4.798659423e-05
4.144542456e-05
3.134860651e-05
2.400671481e-05
2.054392421e-05
2.378512694e-05
2.881980549e-05
3.911046276e-05
5.248137868e-05
6.044586866e-05
5.248093327e-05
3.910987197e-05
2.881935607e-05
2.378485263e-05
2.797171507e-05
3.46658681e-05
4.784201569e-05
6.402765748e-05
7.296073741e-05
6.402705592e-05
4.784122194e-05
3.466526216e-05
2.797132858e-05
3.304455431e-05
4.133137137e-05
5.706758656e-05
7.542158472e-05
8.491015599e-05
7.542079347e-05
5.706654953e-05
4.133053906e-05
3.304397861e-05
3.887963268e-05
4.856678215e-05
6.637063317e-05
8.620020483e-05
9.590998393e-05
8.619920881e-05
6.636929395e-05
4.856564213e-05
3.887878901e-05
4.531280918e-05
5.612532435e-05
7.54296453e-05
9.608534298e-05
0.0001057627533
9.608414239e-05
7.54279712e-05
5.612382778e-05
4.531161458e-05
5.216335164e-05
6.378716882e-05
8.402248953e-05
0.0001049443439
0.0001144049951
0.0001049429412
8.402046003e-05
6.378525219e-05
5.216172086e-05
5.925260002e-05
7.137080293e-05
9.201390618e-05
0.0001127475626
0.000121862064
0.0001127459494
9.201150591e-05
7.13684342e-05
5.925047875e-05
6.641567623e-05
7.873465077e-05
9.933591898e-05
0.0001195314241
0.0001282128893
0.0001195296223
9.933317223e-05
7.873181581e-05
6.641303179e-05
7.350303098e-05
8.576920758e-05
0.0001059652741
0.0001253682788
0.0001335628344
0.0001253663082
0.0001059621869
8.576588873e-05
7.349981129e-05
8.035711083e-05
9.236886845e-05
0.0001118901942
0.0001303354252
0.0001380174825
0.0001303333051
0.0001118867688
9.236508315e-05
8.035330039e-05
8.66990095e-05
9.832600959e-05
0.0001170212386
0.0001344492318
0.0001416289055
0.0001344469601
0.0001170175176
9.832175025e-05
8.669460723e-05
9.164255714e-05
0.0001028909901
0.0001208382769
0.0001374073973
0.0001441812088
0.0001374050028
0.0001208342716
0.0001028863283
9.163753766e-05
1.671571805e-05
1.7863627e-05
2.040449934e-05
2.416548471e-05
2.694101591e-05
2.41653325e-05
2.040443015e-05
1.786368587e-05
1.671586604e-05
1.82243644e-05
2.035577351e-05
2.501141781e-05
3.17360958e-05
3.646051703e-05
3.173578897e-05
2.501125696e-05
2.035584436e-05
1.822456663e-05
2.054353811e-05
2.400613141e-05
3.134752535e-05
4.144347434e-05
4.798370635e-05
4.144292406e-05
3.134714172e-05
2.400610094e-05
2.05437035e-05
2.378431889e-05
2.881853185e-05
3.910829862e-05
5.247803096e-05
6.044156393e-05
5.247718354e-05
3.910756023e-05
2.881825894e-05
2.378433134e-05
2.797063432e-05
3.466416258e-05
4.783908701e-05
6.40230973e-05
7.295492239e-05
6.402189778e-05
4.783788128e-05
3.466351179e-05
2.79703611e-05
3.304311705e-05
4.132914669e-05
5.706380104e-05
7.541575909e-05
8.490283322e-05
7.54141931e-05
5.70620504e-05
4.132798892e-05
3.304241851e-05
3.887775919e-05
4.856393214e-05
6.636592944e-05
8.619311805e-05
9.590124136e-05
8.619120675e-05
6.636358927e-05
4.856218607e-05
3.887650429e-05
4.531042358e-05
5.612179986e-05
7.542400864e-05
9.60770701e-05
0.0001057527212
9.607482913e-05
7.542107367e-05
5.611938979e-05
4.530850139e-05
5.216039285e-05
6.378292346e-05
8.401593165e-05
0.0001049350017
0.000114393835
0.0001049324612
8.401242701e-05
6.37798154e-05
5.215771174e-05
5.924901809e-05
7.136582241e-05
9.200645488e-05
0.0001127372527
0.0001218499535
0.0001127344451
9.200240979e-05
7.136199904e-05
5.924551747e-05
6.641145167e-05
7.872892344e-05
9.932764208e-05
0.0001195202828
0.0001281999648
0.0001195172282
9.932310335e-05
7.872439754e-05
6.640709399e-05
7.349813012e-05
8.576273543e-05
0.0001059562343
0.0001253564044
0.0001335492231
0.0001253531649
0.0001059512579
8.575753634e-05
7.349290585e-05
8.03515461e-05
9.236170006e-05
0.0001118804472
0.000130322942
0.0001380033206
0.0001303195498
0.000111875071
9.23558455e-05
8.034545775e-05
8.669278591e-05
9.831816193e-05
0.0001170108577
0.0001344362027
0.0001416142271
0.0001344326585
0.0001170051142
9.831168918e-05
8.668585895e-05
9.163567694e-05
0.0001028824738
0.0001208272349
0.0001373937663
0.0001441659845
0.0001373900927
0.0001208211698
0.000102875474
9.162792768e-05
)
;
    }
    inlet
    {
        type            calculated;
        value           nonuniform 0();
    }
    outlet
    {
        type            calculated;
        value           nonuniform List<scalar> 
81
(
9.164255714e-05
0.0001028909901
0.0001208382769
0.0001374073973
0.0001441812088
0.0001374050028
0.0001208342716
0.0001028863283
9.163753766e-05
0.0001028908143
0.0001169032116
0.0001394170301
0.0001603867322
0.00016902096
0.0001603835836
0.000139411848
0.0001168972782
0.0001028844101
0.0001208377321
0.0001394166522
0.0001695206034
0.0001978644496
0.0002096420421
0.0001978601355
0.000169513574
0.0001394087289
0.0001208293065
0.0001374064303
0.0001603858569
0.0001978638948
0.0002334568998
0.0002483750828
0.0002334512505
0.0001978549052
0.0001603758163
0.000137395901
0.000144179744
0.0001690195172
0.0002096408696
0.0002483743209
0.0002648106213
0.0002483678389
0.0002096306201
0.0001690082989
0.0001441679782
0.0001374032478
0.0001603817789
0.0001978583893
0.000233449798
0.0002483670254
0.0002334435168
0.0001978484238
0.0001603707813
0.000137391651
0.0001208323808
0.0001394098804
0.0001695115355
0.0001978529565
0.0002096291077
0.0001978476578
0.0001695030145
0.0001394003019
0.0001208221435
0.0001028844368
0.0001168953119
0.0001394066319
0.0001603737265
0.0001690064443
0.0001603694707
0.0001393996847
0.0001168873503
0.000102875827
9.163567694e-05
0.0001028824738
0.0001208272349
0.0001373937663
0.0001441659845
0.0001373900927
0.0001208211698
0.000102875474
9.162792768e-05
)
;
    }
    procBoundary1to0
    {
        type            processor;
        value           nonuniform List<scalar> 
97
(
1.671586529e-05
1.671586529e-05
1.786365069e-05
2.040427516e-05
2.416481951e-05
2.693998131e-05
2.416463796e-05
2.040399723e-05
1.786337613e-05
1.67155856e-05
1.637163275e-05
2.045737336e-05
2.045737336e-05