/*--------------------------------*- C++ -*----------------------------------*\
| =========                 |                                                 |
| \\      /  F ield         | OpenFOAM: The Open Source CFD Toolbox           |
|  \\    /   O peration     | Version:  4.x                                   |
|   \\  /    A nd           | Web:      www.OpenFOAM.org                      |
|    \\/     M anipulation  |                                                 |
\*---------------------------------------------------------------------------*/
FoamFile
{
    version     2.0;
    format      ascii;
    class       volScalarField;
    location    "2000";
    object      X_H2;
}
// * * * * * * * * * * * * * * * * * * * * * * * * * * * * * * * * * * * * * //

dimensions      [0 0 0 0 0 0 0];

internalField   nonuniform List<scalar> 
1174
(
0.05987350822
0.05987119022
0.05986795109
0.05986376697
0.05985869728
0.05985286603
0.05984643737
0.05983959199
0.05983250848
0.05982535165
0.05981827096
0.05981142381
0.05980508875
0.05980015079
0.05987137776
0.05986772901
0.0598629188
0.05985707598
0.05985041443
0.05984318369
0.05983563043
0.05982797444
0.05982039713
0.05981304001
0.05980601247
0.05979941998
0.05979346981
0.05978891035
0.05986672387
0.05986039006
0.0598526323
0.0598439052
0.05983468482
0.0598253876
0.05981633493
0.05980774883
0.05979976446
0.05979244969
0.05978582769
0.05977991012
0.05977478606
0.05977097449
0.05986000116
0.05985029671
0.05983926584
0.05982772517
0.05981633752
0.0598055657
0.0597956877
0.05978683606
0.05977904034
0.05977226401
0.05976643465
0.05976147484
0.05975736793
0.05975441506
0.05985527757
0.0598437574
0.05983130334
0.05981879451
0.05980685174
0.059795859
0.05978601359
0.05977737885
0.05976992933
0.05976358604
0.05975824356
0.05975379618
0.05975019157
0.05974764445
0.05986000126
0.05985029686
0.05983926603
0.0598277254
0.05981633779
0.059805566
0.05979568803
0.05978683642
0.05977904073
0.05977226442
0.05976643507
0.05976147528
0.05975736839
0.05975441553
0.05986672402
0.05986039027
0.05985263257
0.05984390553
0.05983468521
0.05982538804
0.05981633543
0.05980774938
0.05979976507
0.05979245034
0.05978582838
0.05977991085
0.05977478683
0.05977097529
0.05987137789
0.05986772918
0.05986291902
0.05985707625
0.05985041476
0.05984318408
0.0598356309
0.05982797498
0.05982039775
0.0598130407
0.05980601324
0.05979942081
0.0597934707
0.0597889113
0.05987350832
0.05987119035
0.05986795125
0.05986376718
0.05985869754
0.05985286636
0.05984643777
0.05983959247
0.05983250906
0.05982535231
0.05981827171
0.05981142465
0.05980508968
0.0598001518
0.05987386881
0.05987137778
0.05986772903
0.05986291882
0.059857076
0.05985041446
0.05984318371
0.05983563046
0.05982797447
0.05982039716
0.05981304004
0.05980601251
0.05979942001
0.05979346984
0.05978891038
0.05986665381
0.05986037855
0.05985280179
0.05984439184
0.05983560495
0.05982681584
0.05981829638
0.05981022254
0.05980269355
0.05979575381
0.05978941524
0.05978368895
0.05977867344
0.05977490752
0.05985491974
0.05984297273
0.05983012469
0.05981745974
0.05980569531
0.05979520228
0.05978609549
0.05977833014
0.05977177791
0.05976627849
0.05976167178
0.05975782236
0.059754667
0.05975240743
0.0598343902
0.05981485321
0.05979648608
0.05978061346
0.05976764766
0.05975746576
0.05974969842
0.05974390597
0.059739669
0.05973662608
0.05973448287
0.05973300825
0.05973202885
0.05973144943
0.05981535305
0.05979208794
0.05977258823
0.05975727993
0.0597457806
0.05973743807
0.05973158191
0.0597276221
0.05972507573
0.05972356304
0.05972279168
0.0597225366
0.0597226123
0.05972281895
0.05983439052
0.05981485362
0.05979648654
0.05978061396
0.05976764818
0.05975746629
0.05974969896
0.05974390653
0.05973966957
0.05973662665
0.05973448344
0.05973300882
0.05973202942
0.05973145001
0.0598549202
0.05984297326
0.05983012529
0.0598174604
0.05980569602
0.05979520305
0.05978609631
0.059778331
0.0597717788
0.05976627941
0.05976167272
0.05975782332
0.05975466798
0.05975240842
0.05986665411
0.05986037886
0.05985280216
0.05984439227
0.05983560546
0.05982681644
0.05981829706
0.0598102233
0.05980269439
0.05979575473
0.05978941622
0.05978368999
0.05977867454
0.05977490867
0.05987137789
0.05986772919
0.05986291904
0.05985707629
0.05985041483
0.05984318417
0.05983563102
0.05982797513
0.05982039793
0.05981304091
0.05980601347
0.05979942107
0.05979347098
0.05978891161
0.05987132917
0.05986672393
0.05986039015
0.0598526324
0.05984390532
0.05983468495
0.05982538773
0.05981633506
0.05980774896
0.0597997646
0.05979244983
0.05978582782
0.05977991026
0.05977478619
0.05977097462
0.05986467989
0.05985491983
0.05984297284
0.05983012481
0.05981745987
0.05980569543
0.0597952024
0.05978609562
0.05977833027
0.05977177803
0.05976627861
0.05976167189
0.05975782247
0.05975466711
0.05975240753
0.05982080893
0.05979617054
0.05977415794
0.05975635308
0.05974299021
0.05973358086
0.05972736425
0.0597235636
0.05972150313
0.05972064361
0.05972057678
0.05972100016
0.0597216737
0.0597223207
0.05974616583
0.05970544416
0.05967792016
0.05966213549
0.05965514995
0.0596541073
0.05965675433
0.05966148822
0.05966724062
0.05967333322
0.05967935098
0.05968503248
0.05969012621
0.05969399139
0.05965006963
0.05961046037
0.05959422097
0.05959221612
0.05959804562
0.05960774245
0.05961899091
0.05963049561
0.05964156566
0.05965185923
0.05966122765
0.05966960368
0.05967684399
0.05968221835
0.05974616731
0.05970544561
0.0596779215
0.05966213674
0.05965515112
0.0596541084
0.05965675536
0.05966148919
0.05966724153
0.05967333409
0.0596793518
0.05968503327
0.05969012697
0.05969399213
0.05982081035
0.0597961718
0.05977415917
0.05975635433
0.05974299149
0.05973358216
0.05972736555
0.05972356489
0.05972150441
0.05972064487
0.05972057803
0.05972100139
0.05972167492
0.05972232192
0.0598549202
0.05984297331
0.05983012539
0.05981746057
0.05980569626
0.05979520334
0.05978609666
0.05977833139
0.05977177923
0.05976627987
0.05976167321
0.05975782383
0.0597546685
0.05975240896
0.05986672402
0.05986039032
0.05985263267
0.0598439057
0.05983468546
0.05982538838
0.05981633585
0.05980774987
0.05979976563
0.05979245097
0.05978582907
0.0597799116
0.05977478762
0.05977097612
0.05986756965
0.05986000128
0.0598502969
0.05983926607
0.05982772542
0.05981633779
0.05980556598
0.05979568798
0.05978683635
0.05977904063
0.0597722643
0.05976643493
0.05976147512
0.0597573682
0.05975441532
0.059852581
0.05983439033
0.05981485347
0.05979648636
0.05978061375
0.05976764795
0.05975746604
0.0597496987
0.05974390626
0.05973966928
0.05973662634
0.05973448313
0.05973300849
0.05973202908
0.05973144966
0.05979670094
0.05974616607
0.05970544454
0.05967792052
0.05966213582
0.05965515027
0.0596541076
0.0596567546
0.05966148848
0.05966724085
0.05967333343
0.05967935118
0.05968503266
0.05969012637
0.05969399155
0.05949390359
0.05944492667
0.05943881009
0.05945535818
0.05948163772
0.05951050236
0.05953842009
0.05956387699
0.05958640175
0.05960601981
0.05962295954
0.05963747377
0.05964960879
0.05965841549
0.05900687783
0.05907562811
0.05917666164
0.05927215597
0.05935261453
0.05941786149
0.05947025693
0.05951242751
0.05954661642
0.05957458124
0.05959764729
0.05961675747
0.05963235431
0.05964350236
0.05949390948
0.05944493073
0.05943881321
0.05945536074
0.05948163987
0.05951050418
0.05953842168
0.05956387839
0.059586403
0.05960602095
0.05962296058
0.05963747474
0.05964960969
0.05965841638
0.05974616729
0.05970544601
0.0596779222
0.05966213764
0.05965515214
0.05965410947
0.05965675644
0.05966149026
0.05966724258
0.0596733351
0.05967935278
0.05968503421
0.05969012787
0.05969399302
0.05983439056
0.05981485388
0.05979648702
0.05978061464
0.05976764904
0.05975746729
0.05974970007
0.05974390771
0.0597396708
0.05973662791
0.05973448473
0.05973301012
0.05973203073
0.05973145133
0.05986000128
0.05985029698
0.05983926628
0.05982772581
0.05981633836
0.05980556673
0.05979568892
0.05978683744
0.05977904187
0.05977226566
0.0597664364
0.05976147668
0.05975736985
0.05975441705
0.05986479484
0.05985527774
0.05984375767
0.05983130368
0.05981879488
0.05980685213
0.05979585941
0.05978601401
0.05977737928
0.05976992975
0.05976358645
0.05975824397
0.05975379658
0.05975019196
0.05974764483
0.05984016834
0.05981535343
0.05979208856
0.0597725889
0.05975728061
0.05974578126
0.05973743869
0.0597315825
0.05972762264
0.05972507625
0.05972356352
0.05972279213
0.05972253702
0.0597226127
0.05972281933
0.059722046
0.05965006996
0.05961046145
0.05959422203
0.05959221706
0.05959804644
0.05960774317
0.05961899154
0.05963049617
0.05964156616
0.05965185967
0.05966122805
0.05966960404
0.05967684432
0.05968221866
0.05908816049
0.0590068807
0.05907563032
0.05917666331
0.05927215728
0.05935261555
0.05941786231
0.05947025759
0.05951242806
0.05954661689
0.05957458163
0.05959764762
0.05961675776
0.05963235456
0.05964350259
0.05692560846
0.05799944242
0.05858958496
0.05893325887
0.05914537491
0.05928382146
0.05937893566
0.05944728094
0.05949828649
0.05953754829
0.05956851533
0.05959333924
0.05961312704
0.05962707131
0.05900687793
0.05907563361
0.05917666691
0.05927216033
0.05935261811
0.05941786447
0.05947025947
0.0595124297
0.05954661834
0.05957458294
0.05959764881
0.05961675885
0.05963235558
0.05964350356
0.05965006979
0.05961046241
0.05959422367
0.05959221902
0.05959804852
0.05960774527
0.05961899359
0.05963049815
0.05964156805
0.05965186148
0.05966122978
0.05966960571
0.05967684593
0.05968222023
0.05981535321
0.05979208866
0.05977258938
0.05975728141
0.05974578234
0.05973743998
0.05973158393
0.05972762419
0.05972507787
0.05972356519
0.05972279384
0.05972253876
0.05972261445
0.05972282109
0.0598552776
0.05984375763
0.05983130381
0.05981879522
0.0598068527
0.05979586019
0.05978601499
0.05977738044
0.05976993108
0.05976358791
0.05975824554
0.05975379825
0.05975019372
0.05974764667
0.05986756972
0.05986000145
0.05985029714
0.05983926638
0.0598277258
0.05981633823
0.05980556647
0.05979568852
0.05978683692
0.05977904123
0.05977226491
0.05976643556
0.05976147576
0.05975736886
0.05975441599
0.05985258139
0.05983439099
0.05981485428
0.05979648726
0.0597806147
0.05976764891
0.059757467
0.05974969965
0.05974390719
0.05973967019
0.05973662723
0.059734484
0.05973300935
0.05973202992
0.05973145049
0.0597967031
0.05974616829
0.05970544693
0.05967792279
0.05966213793
0.05965515219
0.05965410936
0.05965675622
0.05966148997
0.05966724224
0.05967333473
0.05967935239
0.0596850338
0.05969012746
0.05969399259
0.05960821766
0.05949391208
0.05944493347
0.05943881548
0.05945536257
0.05948164135
0.0595105054
0.05953842269
0.05956387925
0.05958640373
0.05960602158
0.05962296113
0.05963747523
0.05964961014
0.05965841678
0.05908816235
0.05900688317
0.05907563707
0.05917666917
0.05927216187
0.05935261921
0.05941786527
0.05947026008
0.05951243019
0.05954661873
0.05957458327
0.05959764909
0.0596167591
0.0596323558
0.05964350377
0.05960821653
0.0594939129
0.059444935
0.05943881723
0.05945536433
0.05948164304
0.05951050698
0.05953842415
0.0595638806
0.05958640498
0.05960602275
0.05962296222
0.05963747625
0.0596496111
0.05965841771
0.05974616581
0.05970544614
0.05967792307
0.05966213885
0.05965515349
0.05965411086
0.05965675782
0.0596614916
0.05966724386
0.05967333633
0.05967935396
0.05968503535
0.05969012897
0.05969399408
0.0598343901
0.05981485369
0.05979648707
0.0597806149
0.05976764945
0.05975746782
0.05974970069
0.0597439084
0.05973967153
0.05973662866
0.0597344855
0.0597330109
0.05973203152
0.05973145212
0.05986000114
0.05985029688
0.05983926626
0.05982772587
0.05981633852
0.05980556698
0.05979568925
0.05978683784
0.05977904233
0.05977226617
0.05976643696
0.05976147727
0.05975737047
0.0597544177
0.05987132928
0.05986672414
0.05986039048
0.05985263283
0.05984390585
0.05983468557
0.05982538844
0.05981633586
0.05980774983
0.05979976554
0.05979245082
0.05978582887
0.05977991134
0.05977478731
0.05977097577
0.05986468032
0.05985492044
0.05984297363
0.05983012572
0.05981746088
0.05980569654
0.05979520358
0.05978609686
0.05977833155
0.05977177935
0.05976627995
0.05976167325
0.05975782384
0.05975466849
0.05975240892
0.0598446191
0.05982081093
0.05979617259
0.05977416003
0.0597563552
0.05974299233
0.05973358297
0.05972736633
0.05972356563
0.05972150511
0.05972064553
0.05972057866
0.05972100198
0.05972167547
0.05972232245
0.05979670316
0.0597461687
0.05970544769
0.0596779238
0.05966213909
0.05965515342
0.0596541106
0.05965675744
0.05966149115
0.05966724337
0.05967333582
0.05967935343
0.05968503481
0.05969012842
0.05969399353
0.05972204659
0.0596500723
0.05961046477
0.05959422566
0.05959222067
0.05959804987
0.05960774638
0.05961899452
0.05963049895
0.05964156874
0.05965186208
0.05966123031
0.05966960619
0.05967684636
0.05968222063
0.05979670336
0.05974616911
0.05970544825
0.0596779245
0.05966213989
0.05965515427
0.05965411147
0.0596567583
0.059661492
0.0596672442
0.05967333662
0.05967935422
0.05968503557
0.05969012917
0.05969399427
0.05984461842
0.05982081034
0.0597961723
0.0597741601
0.05975635559
0.05974299297
0.0597335838
0.05972736729
0.05972356669
0.05972150622
0.05972064669
0.05972057984
0.05972100318
0.05972167668
0.05972232367
0.05985491977
0.05984297318
0.05983012551
0.05981746091
0.0598056968
0.05979520406
0.05978609752
0.05977833238
0.05977178031
0.05976628102
0.05976167442
0.05975782509
0.0597546698
0.05975241029
0.05986672385
0.0598603902
0.05985263264
0.05984390578
0.05983468566
0.05982538871
0.05981633631
0.05980775046
0.05979976633
0.05979245177
0.05978582996
0.05977991256
0.05977478865
0.05977097721
0.05987386893
0.05987137797
0.05986772931
0.05986291919
0.05985707647
0.05985041503
0.05984318439
0.05983563125
0.05982797536
0.05982039816
0.05981304114
0.05980601369
0.05979942127
0.05979347118
0.05978891178
0.05987127688
0.05986665425
0.05986037907
0.05985280242
0.05984439259
0.05983560582
0.05982681684
0.05981829749
0.05981022376
0.05980269486
0.05979575521
0.05978941671
0.05978369048
0.05977867502
0.05977490916
0.05986468031
0.05985492046
0.05984297369
0.05983012584
0.05981746106
0.05980569679
0.05979520389
0.05978609722
0.05977833195
0.05977177979
0.05976628042
0.05976167375
0.05975782435
0.05975466901
0.05975240946
0.05985258137
0.05983439111
0.05981485461
0.05979648781
0.05978061545
0.05976764983
0.05975746806
0.05974970081
0.05974390842
0.05973967148
0.05973662855
0.05973448534
0.0597330107
0.05973203127
0.05973145185
0.05984016853
0.0598153541
0.05979208971
0.05977259043
0.05975728242
0.05974578327
0.05973744084
0.05973158472
0.05972762491
0.05972507854
0.05972356581
0.05972279441
0.05972253928
0.05972261494
0.05972282156
0.05985258147
0.05983439128
0.05981485485
0.05979648813
0.05978061584
0.05976765028
0.05975746856
0.05974970134
0.05974390898
0.05973967205
0.05973662914
0.05973448593
0.0597330113
0.05973203188
0.05973145246
0.05986468027
0.05985492043
0.05984297374
0.05983012601
0.05981746136
0.05980569722
0.05979520444
0.05978609787
0.0597783327
0.0597717806
0.05976628129
0.05976167467
0.05975782531
0.05975467001
0.05975241048
0.05987127674
0.05986665408
0.05986037894
0.05985280237
0.05984439264
0.059835606
0.05982681714
0.05981829793
0.05981022432
0.05980269555
0.05979575601
0.05978941761
0.05978369147
0.0597786761
0.0597749103
0.05987137777
0.05986772913
0.05986291906
0.0598570764
0.05985041506
0.05984318454
0.05983563152
0.05982797577
0.05982039871
0.05981304182
0.05980601451
0.05979942222
0.05979347224
0.05978891295
0.05987501619
0.05987350838
0.05987119043
0.05986795138
0.05986376734
0.05985869775
0.05985286662
0.05984643808
0.05983959281
0.05983250943
0.05982535271
0.05981827214
0.0598114251
0.05980509015
0.05980015227
0.05987386892
0.05987137796
0.05986772931
0.0598629192
0.05985707649
0.05985041507
0.05984318445
0.05983563133
0.05982797548
0.0598203983
0.0598130413
0.05980601389
0.0597994215
0.05979347142
0.05978891206
0.05987132926
0.05986672414
0.0598603905
0.05985263291
0.05984390599
0.05983468578
0.05982538874
0.05981633624
0.05980775029
0.05979976606
0.05979245141
0.05978582952
0.05977991205
0.05977478807
0.05977097658
0.05986756972
0.05986000151
0.05985029732
0.0598392667
0.05982772628
0.05981633887
0.05980556727
0.05979568947
0.059786838
0.05977904242
0.0597722662
0.05976643694
0.0597614772
0.05975737035
0.05975441755
0.05986479492
0.059855278
0.05984375816
0.05983130442
0.05981879588
0.05980685338
0.05979586088
0.05978601567
0.0597773811
0.0597699317
0.05976358851
0.05975824611
0.05975379879
0.05975019423
0.05974764716
0.05986756978
0.05986000162
0.05985029747
0.05983926691
0.05982772654
0.05981633919
0.05980556764
0.05979568988
0.05978683845
0.0597790429
0.05977226671
0.05976643746
0.05976147774
0.0597573709
0.05975441811
0.05987132929
0.0598667242
0.0598603906
0.05985263307
0.05984390623
0.05983468612
0.05982538916
0.05981633675
0.05980775088
0.05979976673
0.05979245215
0.05978583031
0.05977991289
0.05977478896
0.0597709775
0.0598738689
0.05987137793
0.05986772929
0.05986291921
0.05985707656
0.05985041521
0.05984318469
0.05983563167
0.05982797592
0.05982039885
0.05981304196
0.05980601464
0.05979942234
0.05979347236
0.05978891306
0.05987501614
0.05987350831
0.05987119036
0.05986795132
0.05986376732
0.05985869778
0.05985286672
0.05984643828
0.05983959312
0.05983250986
0.05982535326
0.05981827281
0.0598114259
0.05980509107
0.0598001533
)
;

boundaryField
{
    top
    {
        type            calculated;
        value           nonuniform List<scalar> 
127
(
0.05987501614
0.05987350832
0.05987137789
0.05986672402
0.05986000128
0.0598552776
0.05986000114
0.05986672385
0.05987137777
0.05987350831
0.05987119035
0.05986772919
0.05986039032
0.05985029698
0.05984375763
0.05985029688
0.0598603902
0.05986772913
0.05987119036
0.05986795125
0.05986291904
0.05985263267
0.05983926628
0.05983130381
0.05983926626
0.05985263264
0.05986291906
0.05986795132
0.05986376718
0.05985707629
0.0598439057
0.05982772581
0.05981879522
0.05982772587
0.05984390578
0.0598570764
0.05986376732
0.05985869754
0.05985041483
0.05983468546
0.05981633836
0.0598068527
0.05981633852
0.05983468566
0.05985041506
0.05985869778
0.05985286636
0.05984318417
0.05982538838
0.05980556673
0.05979586019
0.05980556698
0.05982538871
0.05984318454
0.05985286672
0.05984643777
0.05983563102
0.05981633585
0.05979568892
0.05978601499
0.05979568925
0.05981633631
0.05983563152
0.05984643828
0.05983959247
0.05982797513
0.05980774987
0.05978683744
0.05977738044
0.05978683784
0.05980775046
0.05982797577
0.05983959312
0.05983250906
0.05982039793
0.05979976563
0.05977904187
0.05976993108
0.05977904233
0.05979976633
0.05982039871
0.05983250986
0.05982535231
0.05981304091
0.05979245097
0.05977226566
0.05976358791
0.05977226617
0.05979245177
0.05981304182
0.05982535326
0.05981827171
0.05980601347
0.05978582907
0.0597664364
0.05975824554
0.05976643696
0.05978582996
0.05980601451
0.05981827281
0.05981142465
0.05979942107
0.0597799116
0.05976147668
0.05975379825
0.05976147727
0.05977991256
0.05979942222
0.0598114259
0.05980508968
0.05979347098
0.05977478762
0.05975736985
0.05975019372
0.05975737047
0.05977478865
0.05979347224
0.05980509107
0.0598001518
0.05978891161
0.05977097612
0.05975441705
0.05974764667
0.0597544177
0.05977097721
0.05978891295
0.0598001533
)
;
    }
    bottom
    {
        type            calculated;
        value           nonuniform List<scalar> 
134
(
0.05987386881
0.05987132917
0.05986756965
0.05986479484
0.05986756972
0.05987132928
0.05987386893
0.05987501619
0.05987350822
0.05987137778
0.05986672393
0.05986000128
0.05985527774
0.05986000145
0.05986672414
0.05987137797
0.05987350838
0.05987119022
0.05986772903
0.05986039015
0.0598502969
0.05984375767
0.05985029714
0.05986039048
0.05986772931
0.05987119043
0.05986795109
0.05986291882
0.0598526324
0.05983926607
0.05983130368
0.05983926638
0.05985263283
0.05986291919
0.05986795138
0.05986376697
0.059857076
0.05984390532
0.05982772542
0.05981879488
0.0598277258
0.05984390585
0.05985707647
0.05986376734
0.05985869728
0.05985041446
0.05983468495
0.05981633779
0.05980685213
0.05981633823
0.05983468557
0.05985041503
0.05985869775
0.05985286603
0.05984318371
0.05982538773
0.05980556598
0.05979585941
0.05980556647
0.05982538844
0.05984318439
0.05985286662
0.05984643737
0.05983563046
0.05981633506
0.05979568798
0.05978601401
0.05979568852
0.05981633586
0.05983563125
0.05984643808
0.05983959199
0.05982797447
0.05980774896
0.05978683635
0.05977737928
0.05978683692
0.05980774983
0.05982797536
0.05983959281
0.05983250848
0.05982039716
0.0597997646
0.05977904063
0.05976992975
0.05977904123
0.05979976554
0.05982039816
0.05983250943
0.05982535165
0.05981304004
0.05979244983
0.0597722643
0.05976358645
0.05977226491
0.05979245082
0.05981304114
0.05982535271
0.05981827096
0.05980601251
0.05978582782
0.05976643493
0.05975824397
0.05976643556
0.05978582887
0.05980601369
0.05981827214
0.05981142381
0.05979942001
0.05977991026
0.05976147512
0.05975379658
0.05976147576
0.05977991134
0.05979942127
0.0598114251
0.05980508875
0.05979346984
0.05977478619
0.0597573682
0.05975019196
0.05975736886
0.05977478731
0.05979347118
0.05980509015
0.05980015079
0.05978891038
0.05977097462
0.05975441532
0.05974764483
0.05975441599
0.05977097577
0.05978891178
0.05980015227
)
;
    }
    side-walls
    {
        type            calculated;
        value           nonuniform List<scalar> 
261
(
0.05987350822
0.05987137776
0.05986672387
0.05986000116
0.05985527757
0.05986000126
0.05986672402
0.05987137789
0.05987350832
0.05987119022
0.05986772901
0.05986039006
0.05985029671
0.0598437574
0.05985029686
0.05986039027
0.05986772918
0.05987119035
0.05986795109
0.0598629188
0.0598526323
0.05983926584
0.05983130334
0.05983926603
0.05985263257
0.05986291902
0.05986795125
0.05986376697
0.05985707598
0.0598439052
0.05982772517
0.05981879451
0.0598277254
0.05984390553
0.05985707625
0.05986376718
0.05985869728
0.05985041443
0.05983468482
0.05981633752
0.05980685174
0.05981633779
0.05983468521
0.05985041476
0.05985869754
0.05985286603
0.05984318369
0.0598253876
0.0598055657
0.059795859
0.059805566
0.05982538804
0.05984318408
0.05985286636
0.05984643737
0.05983563043
0.05981633493
0.0597956877
0.05978601359
0.05979568803
0.05981633543
0.0598356309
0.05984643777
0.05983959199
0.05982797444
0.05980774883
0.05978683606
0.05977737885
0.05978683642
0.05980774938
0.05982797498
0.05983959247
0.05983250848
0.05982039713
0.05979976446
0.05977904034
0.05976992933
0.05977904073
0.05979976507
0.05982039775
0.05983250906
0.05982535165
0.05981304001
0.05979244969
0.05977226401
0.05976358604
0.05977226442
0.05979245034
0.0598130407
0.05982535231
0.05981827096
0.05980601247
0.05978582769
0.05976643465
0.05975824356
0.05976643507
0.05978582838
0.05980601324
0.05981827171
0.05981142381
0.05979941998
0.05977991012
0.05976147484
0.05975379618
0.05976147528
0.05977991085
0.05979942081
0.05981142465
0.05980508875
0.05979346981
0.05977478606
0.05975736793
0.05975019157
0.05975736839
0.05977478683
0.0597934707
0.05980508968
0.05980015079
0.05978891035
0.05977097449
0.05975441506
0.05974764445
0.05975441553
0.05977097529
0.0597889113
0.0598001518
0.05987501619
0.05987386892
0.05987132926
0.05986756972
0.05986479492
0.05986756978
0.05987132929
0.0598738689
0.05987501614
0.05987350838
0.05987137796
0.05986672414
0.05986000151
0.059855278
0.05986000162
0.0598667242
0.05987137793
0.05987350831
0.05987119043
0.05986772931
0.0598603905
0.05985029732
0.05984375816
0.05985029747
0.0598603906
0.05986772929
0.05987119036
0.05986795138
0.0598629192
0.05985263291
0.0598392667
0.05983130442
0.05983926691
0.05985263307
0.05986291921
0.05986795132
0.05986376734
0.05985707649
0.05984390599
0.05982772628
0.05981879588
0.05982772654
0.05984390623
0.05985707656
0.05986376732
0.05985869775
0.05985041507
0.05983468578
0.05981633887
0.05980685338
0.05981633919
0.05983468612
0.05985041521
0.05985869778
0.05985286662
0.05984318445
0.05982538874
0.05980556727
0.05979586088
0.05980556764
0.05982538916
0.05984318469
0.05985286672
0.05984643808
0.05983563133
0.05981633624
0.05979568947
0.05978601567
0.05979568988
0.05981633675
0.05983563167
0.05984643828
0.05983959281
0.05982797548
0.05980775029
0.059786838
0.0597773811
0.05978683845
0.05980775088
0.05982797592
0.05983959312
0.05983250943
0.0598203983
0.05979976606
0.05977904242
0.0597699317
0.0597790429
0.05979976673
0.05982039885
0.05983250986
0.05982535271
0.0598130413
0.05979245141
0.0597722662
0.05976358851
0.05977226671
0.05979245215
0.05981304196
0.05982535326
0.05981827214
0.05980601389
0.05978582952
0.05976643694
0.05975824611
0.05976643746
0.05978583031
0.05980601464
0.05981827281
0.0598114251
0.0597994215
0.05977991205
0.0597614772
0.05975379879
0.05976147774
0.05977991289
0.05979942234
0.0598114259
0.05980509015
0.05979347142
0.05977478807
0.05975737035
0.05975019423
0.0597573709
0.05977478896
0.05979347236
0.05980509107
0.05980015227
0.05978891206
0.05977097658
0.05975441755
0.05974764716
0.05975441811
0.0597709775
0.05978891306
0.0598001533
)
;
    }
    inlet
    {
        type            calculated;
        value           nonuniform 0();
    }
    outlet
    {
        type            calculated;
        value           nonuniform List<scalar> 
81
(
0.05980015079
0.05978891035
0.05977097449
0.05975441506
0.05974764445
0.05975441553
0.05977097529
0.0597889113
0.0598001518
0.05978891038
0.05977490752
0.05975240743
0.05973144943
0.05972281895
0.05973145001
0.05975240842
0.05977490867
0.05978891161
0.05977097462
0.05975240753
0.0597223207
0.05969399139
0.05968221835
0.05969399213
0.05972232192
0.05975240896
0.05977097612
0.05975441532
0.05973144966
0.05969399155
0.05965841549
0.05964350236
0.05965841638
0.05969399302
0.05973145133
0.05975441705
0.05974764483
0.05972281933
0.05968221866
0.05964350259
0.05962707131
0.05964350356
0.05968222023
0.05972282109
0.05974764667
0.05975441599
0.05973145049
0.05969399259
0.05965841678
0.05964350377
0.05965841771
0.05969399408
0.05973145212
0.0597544177
0.05977097577
0.05975240892
0.05972232245
0.05969399353
0.05968222063
0.05969399427
0.05972232367
0.05975241029
0.05977097721
0.05978891178
0.05977490916
0.05975240946
0.05973145185
0.05972282156
0.05973145246
0.05975241048
0.0597749103
0.05978891295
0.05980015227
0.05978891206
0.05977097658
0.05975441755
0.05974764716
0.05975441811
0.0597709775
0.05978891306
0.0598001533
)
;
    }
    procBoundary1to0
    {
        type            processor;
        value           nonuniform List<scalar> 
97
(
0.05987501613
0.05987501613
0.05987386889
0.05987132928
0.05986756983
0.05986479508
0.0598675699
0.05987132938
0.05987386898
0.05987501622
0.05987535989
0.0598712767
0.0598712767
0.0598712767
0.05986468021
0.05985258156
0.05984016904
0.05985258182
0.05986468056
0.05987127698
0.05987386897
0.05987419503
0.05987124096
0.0598446182
0.0598446182
0.0598446182
0.05979670322
0.05972204915
0.05979670475
0.05984461975
0.05986468055
0.05987132937
0.05987251249
0.05986610395
0.05984403546
0.05960821216
0.05960821216
0.05960821216
0.05908817606
0.0596082222
0.05979670463
0.0598525818
0.05986756988
0.05987133052
0.05986134211
0.0598200158
0.05965948223
0.05485467497
0.05485467497
0.05485467497
0.05908817401
0.05908817401
0.05972204881
0.05984016901
0.05986479505
0.05987251251
0.05986610404
0.0598440356
0.05978098695
0.05965948217
0.05978098737
0.05979670174
0.05979670174
0.05979670174
0.05985258128
0.05986756976
0.05987419505
0.05987124101
0.05986270619
0.05984403557
0.05982001584
0.0598440357
0.05986270615
0.05986467998
0.05986467998
0.05986467998
0.05987132922
0.05987535991
0.05987417759
0.059871241
0.059866104
0.05986134213
0.05986610406
0.05987124102
0.05987417758
0.05987386884
0.05987386884
0.05987386884
0.05987589319
0.05987535991
0.05987419504
0.0598725125
0.05987133054
0.05987251253
0.05987419506
0.05987535991
0.05987589318
)
;
    }
}


// ************************************************************************* //
