/*--------------------------------*- C++ -*----------------------------------*\
| =========                 |                                                 |
| \\      /  F ield         | OpenFOAM: The Open Source CFD Toolbox           |
|  \\    /   O peration     | Version:  4.x                                   |
|   \\  /    A nd           | Web:      www.OpenFOAM.org                      |
|    \\/     M anipulation  |                                                 |
\*---------------------------------------------------------------------------*/
FoamFile
{
    version     2.0;
    format      ascii;
    class       volScalarField;
    location    "2000";
    object      X_N2;
}
// * * * * * * * * * * * * * * * * * * * * * * * * * * * * * * * * * * * * * //

dimensions      [0 0 0 0 0 0 0];

internalField   nonuniform List<scalar> 
1174
(
0.6000430197
0.6000430189
0.6000430177
0.6000430161
0.6000430141
0.6000430117
0.6000430088
0.6000430055
0.6000430019
0.6000429979
0.6000429936
0.6000429892
0.6000429848
0.6000429813
0.600043019
0.6000430178
0.6000430162
0.6000430141
0.6000430116
0.6000430086
0.6000430053
0.6000430015
0.6000429975
0.6000429932
0.6000429887
0.6000429841
0.6000429797
0.6000429762
0.6000430177
0.6000430159
0.6000430135
0.6000430107
0.6000430074
0.6000430037
0.6000429996
0.6000429953
0.6000429908
0.6000429862
0.6000429815
0.6000429768
0.6000429724
0.6000429689
0.6000430162
0.6000430137
0.6000430107
0.6000430071
0.6000430031
0.6000429988
0.6000429942
0.6000429895
0.6000429847
0.6000429799
0.6000429751
0.6000429705
0.6000429661
0.6000429627
0.6000430154
0.6000430128
0.6000430094
0.6000430056
0.6000430013
0.6000429968
0.6000429921
0.6000429873
0.6000429825
0.6000429777
0.6000429729
0.6000429683
0.6000429639
0.6000429606
0.6000430162
0.6000430139
0.6000430109
0.6000430074
0.6000430034
0.6000429992
0.6000429948
0.6000429902
0.6000429855
0.6000429808
0.6000429761
0.6000429715
0.6000429672
0.6000429639
0.6000430178
0.600043016
0.6000430138
0.600043011
0.6000430078
0.6000430042
0.6000430004
0.6000429963
0.600042992
0.6000429875
0.600042983
0.6000429785
0.6000429742
0.6000429709
0.6000430191
0.6000430179
0.6000430163
0.6000430143
0.6000430119
0.6000430091
0.6000430059
0.6000430024
0.6000429986
0.6000429946
0.6000429903
0.600042986
0.6000429818
0.6000429785
0.6000430198
0.600043019
0.6000430178
0.6000430163
0.6000430143
0.600043012
0.6000430093
0.6000430062
0.6000430028
0.6000429991
0.6000429952
0.6000429911
0.600042987
0.6000429838
0.60004302
0.6000430191
0.6000430179
0.6000430163
0.6000430142
0.6000430117
0.6000430087
0.6000430054
0.6000430016
0.6000429976
0.6000429933
0.6000429888
0.6000429842
0.6000429798
0.6000429762
0.6000430176
0.6000430159
0.6000430136
0.6000430109
0.6000430077
0.6000430041
0.6000430002
0.600042996
0.6000429916
0.6000429871
0.6000429825
0.6000429779
0.6000429735
0.6000429702
0.6000430147
0.600043012
0.6000430087
0.6000430048
0.6000430007
0.6000429962
0.6000429917
0.6000429871
0.6000429824
0.6000429778
0.6000429732
0.6000429687
0.6000429646
0.6000429614
0.6000430113
0.6000430075
0.600043003
0.6000429982
0.6000429932
0.6000429882
0.6000429833
0.6000429785
0.6000429739
0.6000429694
0.600042965
0.6000429607
0.6000429568
0.6000429539
0.6000430098
0.6000430054
0.6000430004
0.6000429952
0.60004299
0.600042985
0.6000429801
0.6000429754
0.6000429708
0.6000429664
0.6000429621
0.600042958
0.6000429543
0.6000429515
0.6000430117
0.6000430079
0.6000430035
0.6000429988
0.600042994
0.6000429892
0.6000429844
0.6000429797
0.6000429752
0.6000429707
0.6000429664
0.6000429622
0.6000429584
0.6000429556
0.6000430151
0.6000430124
0.6000430092
0.6000430055
0.6000430015
0.6000429974
0.6000429931
0.6000429887
0.6000429843
0.6000429798
0.6000429755
0.6000429711
0.6000429671
0.6000429641
0.6000430178
0.6000430161
0.6000430139
0.6000430113
0.6000430083
0.6000430049
0.6000430013
0.6000429974
0.6000429933
0.6000429891
0.6000429848
0.6000429805
0.6000429764
0.6000429732
0.6000430191
0.6000430179
0.6000430164
0.6000430144
0.600043012
0.6000430093
0.6000430062
0.6000430028
0.6000429991
0.6000429951
0.600042991
0.6000429868
0.6000429827
0.6000429796
0.6000430193
0.600043018
0.6000430162
0.6000430139
0.600043011
0.6000430077
0.600043004
0.6000429999
0.6000429956
0.6000429911
0.6000429865
0.6000429818
0.6000429771
0.6000429726
0.6000429691
0.6000430172
0.6000430151
0.6000430124
0.600043009
0.6000430051
0.6000430009
0.6000429965
0.6000429919
0.6000429873
0.6000429826
0.600042978
0.6000429734
0.6000429689
0.6000429647
0.6000429616
0.6000430081
0.600043004
0.6000429991
0.6000429939
0.6000429886
0.6000429834
0.6000429785
0.6000429738
0.6000429693
0.600042965
0.6000429609
0.6000429569
0.6000429533
0.6000429507
0.6000429992
0.6000429932
0.6000429868
0.6000429806
0.6000429748
0.6000429696
0.6000429649
0.6000429607
0.6000429567
0.6000429531
0.6000429497
0.6000429464
0.6000429434
0.6000429414
0.6000429963
0.6000429888
0.6000429813
0.6000429746
0.600042969
0.6000429641
0.6000429597
0.6000429558
0.6000429523
0.600042949
0.6000429459
0.600042943
0.6000429403
0.6000429385
0.6000430008
0.6000429947
0.6000429884
0.6000429824
0.6000429768
0.6000429718
0.6000429672
0.600042963
0.6000429591
0.6000429555
0.600042952
0.6000429487
0.6000429457
0.6000429436
0.6000430092
0.6000430049
0.6000430003
0.6000429954
0.6000429905
0.6000429858
0.6000429812
0.6000429768
0.6000429725
0.6000429683
0.6000429643
0.6000429605
0.6000429569
0.6000429544
0.6000430151
0.6000430125
0.6000430094
0.6000430059
0.6000430021
0.6000429981
0.600042994
0.6000429898
0.6000429855
0.6000429812
0.6000429769
0.6000429727
0.6000429687
0.6000429657
0.6000430177
0.600043016
0.6000430139
0.6000430113
0.6000430083
0.600043005
0.6000430014
0.6000429975
0.6000429935
0.6000429893
0.600042985
0.6000429807
0.6000429766
0.6000429735
0.6000430184
0.6000430167
0.6000430143
0.6000430113
0.6000430077
0.6000430037
0.6000429994
0.6000429948
0.6000429901
0.6000429853
0.6000429805
0.6000429757
0.600042971
0.6000429665
0.6000429631
0.6000430154
0.6000430123
0.6000430083
0.6000430038
0.6000429989
0.6000429939
0.6000429889
0.6000429839
0.6000429791
0.6000429744
0.6000429699
0.6000429654
0.6000429612
0.6000429572
0.6000429543
0.6000430059
0.600043001
0.6000429944
0.6000429877
0.6000429813
0.6000429755
0.6000429702
0.6000429654
0.6000429611
0.6000429572
0.6000429535
0.60004295
0.6000429467
0.6000429437
0.6000429416
0.6000429787
0.6000429729
0.6000429657
0.6000429593
0.6000429542
0.6000429499
0.6000429465
0.6000429435
0.6000429409
0.6000429385
0.6000429362
0.600042934
0.6000429321
0.6000429308
0.600042979
0.6000429667
0.600042957
0.6000429503
0.6000429457
0.6000429423
0.6000429396
0.6000429374
0.6000429354
0.6000429336
0.6000429318
0.6000429301
0.6000429285
0.6000429276
0.6000429842
0.600042977
0.6000429698
0.6000429637
0.6000429586
0.6000429543
0.6000429507
0.6000429475
0.6000429447
0.6000429421
0.6000429396
0.6000429373
0.6000429352
0.6000429338
0.6000430006
0.6000429953
0.6000429898
0.6000429844
0.6000429793
0.6000429746
0.6000429701
0.600042966
0.6000429621
0.6000429585
0.6000429549
0.6000429516
0.6000429485
0.6000429464
0.6000430115
0.6000430081
0.6000430043
0.6000430003
0.600042996
0.6000429917
0.6000429873
0.600042983
0.6000429787
0.6000429744
0.6000429702
0.6000429662
0.6000429624
0.6000429597
0.6000430161
0.6000430139
0.6000430113
0.6000430082
0.6000430048
0.600043001
0.6000429971
0.600042993
0.6000429887
0.6000429844
0.6000429801
0.6000429758
0.6000429717
0.6000429687
0.6000430179
0.600043016
0.6000430134
0.6000430101
0.6000430063
0.6000430021
0.6000429976
0.6000429929
0.6000429881
0.6000429833
0.6000429785
0.6000429737
0.600042969
0.6000429647
0.6000429613
0.6000430144
0.600043011
0.6000430065
0.6000430016
0.6000429963
0.6000429911
0.600042986
0.6000429811
0.6000429763
0.6000429716
0.6000429672
0.6000429629
0.6000429588
0.600042955
0.6000429522
0.6000430055
0.6000429992
0.6000429911
0.6000429833
0.6000429764
0.6000429705
0.6000429653
0.6000429609
0.6000429568
0.6000429532
0.6000429498
0.6000429466
0.6000429436
0.6000429409
0.600042939
0.6000429934
0.6000429866
0.6000429712
0.60004296
0.6000429524
0.6000429472
0.6000429434
0.6000429405
0.6000429382
0.6000429361
0.6000429341
0.6000429323
0.6000429305
0.6000429289
0.6000429279
0.6000430053
0.6000429722
0.6000429545
0.600042945
0.6000429395
0.6000429361
0.6000429338
0.6000429321
0.6000429306
0.6000429292
0.6000429279
0.6000429266
0.6000429254
0.6000429247
0.6000429788
0.6000429727
0.6000429655
0.6000429592
0.600042954
0.6000429499
0.6000429464
0.6000429435
0.600042941
0.6000429386
0.6000429365
0.6000429344
0.6000429325
0.6000429314
0.6000429956
0.6000429912
0.6000429862
0.6000429811
0.6000429761
0.6000429715
0.6000429672
0.6000429632
0.6000429595
0.6000429559
0.6000429526
0.6000429494
0.6000429465
0.6000429446
0.6000430094
0.6000430061
0.6000430023
0.6000429983
0.6000429941
0.6000429898
0.6000429855
0.6000429811
0.6000429769
0.6000429727
0.6000429686
0.6000429646
0.6000429609
0.6000429583
0.6000430153
0.6000430129
0.6000430102
0.6000430071
0.6000430036
0.6000429998
0.6000429958
0.6000429917
0.6000429875
0.6000429832
0.6000429789
0.6000429746
0.6000429706
0.6000429677
0.6000430184
0.6000430167
0.6000430145
0.6000430116
0.6000430081
0.6000430043
0.6000430001
0.6000429957
0.6000429911
0.6000429864
0.6000429817
0.600042977
0.6000429724
0.6000429681
0.6000429647
0.6000430156
0.6000430127
0.600043009
0.6000430047
0.600043
0.6000429952
0.6000429904
0.6000429856
0.6000429808
0.6000429762
0.6000429718
0.6000429674
0.6000429632
0.6000429593
0.6000429564
0.6000430088
0.6000430035
0.6000429972
0.6000429908
0.6000429845
0.6000429787
0.6000429735
0.6000429687
0.6000429644
0.6000429603
0.6000429566
0.600042953
0.6000429497
0.6000429466
0.6000429445
0.6000429985
0.600042991
0.6000429821
0.6000429738
0.6000429669
0.6000429611
0.6000429564
0.6000429524
0.600042949
0.6000429459
0.6000429431
0.6000429405
0.6000429381
0.6000429359
0.6000429345
0.600042995
0.6000429887
0.6000429787
0.6000429695
0.6000429619
0.600042956
0.6000429513
0.6000429476
0.6000429444
0.6000429417
0.6000429393
0.600042937
0.6000429349
0.600042933
0.6000429318
0.6000429963
0.600042991
0.6000429847
0.6000429781
0.600042972
0.6000429665
0.6000429617
0.6000429575
0.6000429538
0.6000429504
0.6000429474
0.6000429445
0.6000429418
0.6000429394
0.6000429379
0.6000429991
0.6000429964
0.6000429925
0.600042988
0.6000429834
0.6000429788
0.6000429744
0.6000429702
0.6000429662
0.6000429624
0.6000429587
0.6000429552
0.600042952
0.6000429499
0.6000430109
0.6000430082
0.600043005
0.6000430015
0.6000429977
0.6000429937
0.6000429896
0.6000429854
0.6000429812
0.600042977
0.6000429729
0.6000429689
0.6000429651
0.6000429624
0.6000430159
0.6000430139
0.6000430115
0.6000430087
0.6000430056
0.6000430021
0.6000429984
0.6000429945
0.6000429905
0.6000429863
0.6000429821
0.6000429779
0.600042974
0.600042971
0.6000430193
0.6000430181
0.6000430165
0.6000430143
0.6000430116
0.6000430085
0.600043005
0.6000430012
0.6000429971
0.6000429928
0.6000429884
0.6000429839
0.6000429794
0.6000429751
0.6000429718
0.6000430177
0.6000430158
0.6000430132
0.6000430101
0.6000430065
0.6000430026
0.6000429984
0.6000429941
0.6000429897
0.6000429853
0.6000429809
0.6000429765
0.6000429721
0.6000429681
0.600042965
0.6000430141
0.6000430107
0.6000430066
0.600043002
0.6000429971
0.6000429922
0.6000429874
0.6000429827
0.6000429782
0.6000429738
0.6000429696
0.6000429655
0.6000429615
0.6000429579
0.6000429553
0.6000430087
0.600043004
0.6000429985
0.6000429928
0.6000429871
0.6000429817
0.6000429766
0.600042972
0.6000429676
0.6000429636
0.6000429597
0.6000429561
0.6000429526
0.6000429495
0.6000429473
0.6000430054
0.6000430012
0.6000429958
0.6000429899
0.600042984
0.6000429786
0.6000429735
0.6000429689
0.6000429646
0.6000429607
0.600042957
0.6000429535
0.6000429502
0.6000429472
0.6000429453
0.6000430088
0.6000430046
0.6000429999
0.6000429949
0.6000429898
0.6000429847
0.6000429799
0.6000429753
0.6000429709
0.6000429668
0.6000429629
0.6000429592
0.6000429557
0.6000429524
0.6000429503
0.6000430131
0.60004301
0.6000430067
0.6000430031
0.6000429992
0.6000429951
0.6000429909
0.6000429866
0.6000429824
0.6000429782
0.6000429741
0.6000429701
0.6000429661
0.6000429625
0.60004296
0.6000430147
0.6000430127
0.6000430102
0.6000430074
0.6000430042
0.6000430007
0.600042997
0.6000429932
0.6000429892
0.6000429851
0.600042981
0.6000429769
0.6000429731
0.6000429702
0.6000430175
0.600043016
0.6000430142
0.600043012
0.6000430094
0.6000430065
0.6000430033
0.6000429998
0.6000429961
0.6000429923
0.6000429883
0.6000429842
0.6000429803
0.6000429774
0.6000430201
0.6000430193
0.6000430182
0.6000430167
0.6000430148
0.6000430124
0.6000430097
0.6000430066
0.6000430031
0.6000429994
0.6000429954
0.6000429912
0.6000429869
0.6000429827
0.6000429794
0.6000430193
0.6000430181
0.6000430165
0.6000430145
0.6000430119
0.600043009
0.6000430057
0.6000430021
0.6000429983
0.6000429943
0.6000429901
0.6000429858
0.6000429815
0.6000429773
0.6000429742
0.6000430177
0.6000430158
0.6000430134
0.6000430104
0.600043007
0.6000430033
0.6000429993
0.6000429952
0.600042991
0.6000429867
0.6000429823
0.600042978
0.6000429737
0.6000429697
0.6000429667
0.6000430156
0.600043013
0.6000430097
0.600043006
0.600043002
0.6000429977
0.6000429933
0.6000429889
0.6000429844
0.60004298
0.6000429757
0.6000429715
0.6000429673
0.6000429635
0.6000429607
0.6000430144
0.6000430117
0.6000430083
0.6000430045
0.6000430003
0.600042996
0.6000429915
0.600042987
0.6000429826
0.6000429782
0.6000429739
0.6000429697
0.6000429656
0.6000429618
0.6000429591
0.6000430157
0.6000430133
0.6000430103
0.6000430069
0.6000430032
0.6000429992
0.600042995
0.6000429907
0.6000429864
0.6000429821
0.6000429779
0.6000429737
0.6000429696
0.6000429658
0.600042963
0.6000430176
0.6000430158
0.6000430136
0.600043011
0.6000430081
0.6000430048
0.6000430013
0.6000429975
0.6000429936
0.6000429896
0.6000429855
0.6000429814
0.6000429773
0.6000429734
0.6000429705
0.6000430191
0.6000430179
0.6000430164
0.6000430146
0.6000430125
0.60004301
0.6000430071
0.600043004
0.6000430006
0.600042997
0.6000429932
0.6000429893
0.6000429853
0.6000429814
0.6000429785
0.600043019
0.600043018
0.6000430167
0.600043015
0.600043013
0.6000430107
0.600043008
0.6000430051
0.6000430018
0.6000429983
0.6000429946
0.6000429908
0.600042987
0.6000429842
0.6000430205
0.6000430199
0.6000430192
0.6000430181
0.6000430166
0.6000430148
0.6000430125
0.6000430099
0.6000430069
0.6000430035
0.6000429999
0.600042996
0.6000429919
0.6000429879
0.6000429847
0.6000430201
0.6000430193
0.6000430182
0.6000430168
0.6000430149
0.6000430126
0.60004301
0.6000430069
0.6000430036
0.6000429999
0.600042996
0.6000429919
0.6000429877
0.6000429837
0.6000429805
0.6000430193
0.6000430181
0.6000430166
0.6000430145
0.6000430121
0.6000430092
0.6000430059
0.6000430024
0.6000429986
0.6000429946
0.6000429904
0.6000429861
0.6000429818
0.6000429777
0.6000429746
0.6000430184
0.6000430168
0.6000430148
0.6000430123
0.6000430093
0.600043006
0.6000430023
0.6000429984
0.6000429942
0.60004299
0.6000429856
0.6000429813
0.6000429769
0.6000429728
0.6000429698
0.6000430179
0.6000430163
0.6000430141
0.6000430115
0.6000430084
0.600043005
0.6000430012
0.6000429972
0.600042993
0.6000429887
0.6000429844
0.60004298
0.6000429757
0.6000429716
0.6000429686
0.6000430184
0.600043017
0.6000430151
0.6000430127
0.6000430099
0.6000430068
0.6000430033
0.6000429995
0.6000429956
0.6000429915
0.6000429873
0.600042983
0.6000429787
0.6000429747
0.6000429718
0.6000430193
0.6000430182
0.6000430167
0.6000430149
0.6000430127
0.6000430101
0.6000430072
0.6000430039
0.6000430004
0.6000429967
0.6000429928
0.6000429888
0.6000429847
0.6000429808
0.6000429779
0.60004302
0.6000430193
0.6000430183
0.6000430169
0.6000430153
0.6000430133
0.6000430109
0.6000430082
0.6000430053
0.600043002
0.6000429985
0.6000429948
0.6000429909
0.6000429872
0.6000429843
0.6000430204
0.6000430199
0.6000430191
0.6000430181
0.6000430168
0.6000430152
0.6000430132
0.600043011
0.6000430084
0.6000430055
0.6000430023
0.6000429989
0.6000429953
0.6000429917
0.600042989
)
;

boundaryField
{
    top
    {
        type            calculated;
        value           nonuniform List<scalar> 
127
(
0.6000430204
0.6000430198
0.6000430191
0.6000430177
0.6000430161
0.6000430153
0.6000430159
0.6000430175
0.600043019
0.6000430199
0.600043019
0.6000430179
0.600043016
0.6000430139
0.6000430129
0.6000430139
0.600043016
0.600043018
0.6000430191
0.6000430178
0.6000430164
0.6000430139
0.6000430113
0.6000430102
0.6000430115
0.6000430142
0.6000430167
0.6000430181
0.6000430163
0.6000430144
0.6000430113
0.6000430082
0.6000430071
0.6000430087
0.600043012
0.600043015
0.6000430168
0.6000430143
0.600043012
0.6000430083
0.6000430048
0.6000430036
0.6000430056
0.6000430094
0.600043013
0.6000430152
0.600043012
0.6000430093
0.600043005
0.600043001
0.6000429998
0.6000430021
0.6000430065
0.6000430107
0.6000430132
0.6000430093
0.6000430062
0.6000430014
0.6000429971
0.6000429958
0.6000429984
0.6000430033
0.600043008
0.600043011
0.6000430062
0.6000430028
0.6000429975
0.600042993
0.6000429917
0.6000429945
0.6000429998
0.6000430051
0.6000430084
0.6000430028
0.6000429991
0.6000429935
0.6000429887
0.6000429875
0.6000429905
0.6000429961
0.6000430018
0.6000430055
0.6000429991
0.6000429951
0.6000429893
0.6000429844
0.6000429832
0.6000429863
0.6000429923
0.6000429983
0.6000430023
0.6000429952
0.600042991
0.600042985
0.6000429801
0.6000429789
0.6000429821
0.6000429883
0.6000429946
0.6000429989
0.6000429911
0.6000429868
0.6000429807
0.6000429758
0.6000429746
0.6000429779
0.6000429842
0.6000429908
0.6000429953
0.600042987
0.6000429827
0.6000429766
0.6000429717
0.6000429706
0.600042974
0.6000429803
0.600042987
0.6000429917
0.6000429838
0.6000429796
0.6000429735
0.6000429687
0.6000429677
0.600042971
0.6000429774
0.6000429842
0.600042989
)
;
    }
    bottom
    {
        type            calculated;
        value           nonuniform List<scalar> 
134
(
0.60004302
0.6000430193
0.6000430184
0.6000430179
0.6000430184
0.6000430193
0.6000430201
0.6000430205
0.6000430197
0.6000430191
0.600043018
0.6000430167
0.600043016
0.6000430167
0.6000430181
0.6000430193
0.6000430199
0.6000430189
0.6000430179
0.6000430162
0.6000430143
0.6000430134
0.6000430145
0.6000430165
0.6000430182
0.6000430192
0.6000430177
0.6000430163
0.6000430139
0.6000430113
0.6000430101
0.6000430116
0.6000430143
0.6000430167
0.6000430181
0.6000430161
0.6000430142
0.600043011
0.6000430077
0.6000430063
0.6000430081
0.6000430116
0.6000430148
0.6000430166
0.6000430141
0.6000430117
0.6000430077
0.6000430037
0.6000430021
0.6000430043
0.6000430085
0.6000430124
0.6000430148
0.6000430117
0.6000430087
0.600043004
0.6000429994
0.6000429976
0.6000430001
0.600043005
0.6000430097
0.6000430125
0.6000430088
0.6000430054
0.6000429999
0.6000429948
0.6000429929
0.6000429957
0.6000430012
0.6000430066
0.6000430099
0.6000430055
0.6000430016
0.6000429956
0.6000429901
0.6000429881
0.6000429911
0.6000429971
0.6000430031
0.6000430069
0.6000430019
0.6000429976
0.6000429911
0.6000429853
0.6000429833
0.6000429864
0.6000429928
0.6000429994
0.6000430035
0.6000429979
0.6000429933
0.6000429865
0.6000429805
0.6000429785
0.6000429817
0.6000429884
0.6000429954
0.6000429999
0.6000429936
0.6000429888
0.6000429818
0.6000429757
0.6000429737
0.600042977
0.6000429839
0.6000429912
0.600042996
0.6000429892
0.6000429842
0.6000429771
0.600042971
0.600042969
0.6000429724
0.6000429794
0.6000429869
0.6000429919
0.6000429848
0.6000429798
0.6000429726
0.6000429665
0.6000429647
0.6000429681
0.6000429751
0.6000429827
0.6000429879
0.6000429813
0.6000429762
0.6000429691
0.6000429631
0.6000429613
0.6000429647
0.6000429718
0.6000429794
0.6000429847
)
;
    }
    side-walls
    {
        type            calculated;
        value           nonuniform List<scalar> 
261
(
0.6000430197
0.600043019
0.6000430177
0.6000430162
0.6000430154
0.6000430162
0.6000430178
0.6000430191
0.6000430198
0.6000430189
0.6000430178
0.6000430159
0.6000430137
0.6000430128
0.6000430139
0.600043016
0.6000430179
0.600043019
0.6000430177
0.6000430162
0.6000430135
0.6000430107
0.6000430094
0.6000430109
0.6000430138
0.6000430163
0.6000430178
0.6000430161
0.6000430141
0.6000430107
0.6000430071
0.6000430056
0.6000430074
0.600043011
0.6000430143
0.6000430163
0.6000430141
0.6000430116
0.6000430074
0.6000430031
0.6000430013
0.6000430034
0.6000430078
0.6000430119
0.6000430143
0.6000430117
0.6000430086
0.6000430037
0.6000429988
0.6000429968
0.6000429992
0.6000430042
0.6000430091
0.600043012
0.6000430088
0.6000430053
0.6000429996
0.6000429942
0.6000429921
0.6000429948
0.6000430004
0.6000430059
0.6000430093
0.6000430055
0.6000430015
0.6000429953
0.6000429895
0.6000429873
0.6000429902
0.6000429963
0.6000430024
0.6000430062
0.6000430019
0.6000429975
0.6000429908
0.6000429847
0.6000429825
0.6000429855
0.600042992
0.6000429986
0.6000430028
0.6000429979
0.6000429932
0.6000429862
0.6000429799
0.6000429777
0.6000429808
0.6000429875
0.6000429946
0.6000429991
0.6000429936
0.6000429887
0.6000429815
0.6000429751
0.6000429729
0.6000429761
0.600042983
0.6000429903
0.6000429952
0.6000429892
0.6000429841
0.6000429768
0.6000429705
0.6000429683
0.6000429715
0.6000429785
0.600042986
0.6000429911
0.6000429848
0.6000429797
0.6000429724
0.6000429661
0.6000429639
0.6000429672
0.6000429742
0.6000429818
0.600042987
0.6000429813
0.6000429762
0.6000429689
0.6000429627
0.6000429606
0.6000429639
0.6000429709
0.6000429785
0.6000429838
0.6000430205
0.6000430201
0.6000430193
0.6000430184
0.6000430179
0.6000430184
0.6000430193
0.60004302
0.6000430204
0.6000430199
0.6000430193
0.6000430181
0.6000430168
0.6000430163
0.600043017
0.6000430182
0.6000430193
0.6000430199
0.6000430192
0.6000430182
0.6000430166
0.6000430148
0.6000430141
0.6000430151
0.6000430167
0.6000430183
0.6000430191
0.6000430181
0.6000430168
0.6000430145
0.6000430123
0.6000430115
0.6000430127
0.6000430149
0.6000430169
0.6000430181
0.6000430166
0.6000430149
0.6000430121
0.6000430093
0.6000430084
0.6000430099
0.6000430127
0.6000430153
0.6000430168
0.6000430148
0.6000430126
0.6000430092
0.600043006
0.600043005
0.6000430068
0.6000430101
0.6000430133
0.6000430152
0.6000430125
0.60004301
0.6000430059
0.6000430023
0.6000430012
0.6000430033
0.6000430072
0.6000430109
0.6000430132
0.6000430099
0.6000430069
0.6000430024
0.6000429984
0.6000429972
0.6000429995
0.6000430039
0.6000430082
0.600043011
0.6000430069
0.6000430036
0.6000429986
0.6000429942
0.600042993
0.6000429956
0.6000430004
0.6000430053
0.6000430084
0.6000430035
0.6000429999
0.6000429946
0.60004299
0.6000429887
0.6000429915
0.6000429967
0.600043002
0.6000430055
0.6000429999
0.600042996
0.6000429904
0.6000429856
0.6000429844
0.6000429873
0.6000429928
0.6000429985
0.6000430023
0.600042996
0.6000429919
0.6000429861
0.6000429813
0.60004298
0.600042983
0.6000429888
0.6000429948
0.6000429989
0.6000429919
0.6000429877
0.6000429818
0.6000429769
0.6000429757
0.6000429787
0.6000429847
0.6000429909
0.6000429953
0.6000429879
0.6000429837
0.6000429777
0.6000429728
0.6000429716
0.6000429747
0.6000429808
0.6000429872
0.6000429917
0.6000429847
0.6000429805
0.6000429746
0.6000429698
0.6000429686
0.6000429718
0.6000429779
0.6000429843
0.600042989
)
;
    }
    inlet
    {
        type            calculated;
        value           nonuniform 0();
    }
    outlet
    {
        type            calculated;
        value           nonuniform List<scalar> 
81
(
0.6000429813
0.6000429762
0.6000429689
0.6000429627
0.6000429606
0.6000429639
0.6000429709
0.6000429785
0.6000429838
0.6000429762
0.6000429702
0.6000429614
0.6000429539
0.6000429515
0.6000429556
0.6000429641
0.6000429732
0.6000429796
0.6000429691
0.6000429616
0.6000429507
0.6000429414
0.6000429385
0.6000429436
0.6000429544
0.6000429657
0.6000429735
0.6000429631
0.6000429543
0.6000429416
0.6000429308
0.6000429276
0.6000429338
0.6000429464
0.6000429597
0.6000429687
0.6000429613
0.6000429522
0.600042939
0.6000429279
0.6000429247
0.6000429314
0.6000429446
0.6000429583
0.6000429677
0.6000429647
0.6000429564
0.6000429445
0.6000429345
0.6000429318
0.6000429379
0.6000429499
0.6000429624
0.600042971
0.6000429718
0.600042965
0.6000429553
0.6000429473
0.6000429453
0.6000429503
0.60004296
0.6000429702
0.6000429774
0.6000429794
0.6000429742
0.6000429667
0.6000429607
0.6000429591
0.600042963
0.6000429705
0.6000429785
0.6000429842
0.6000429847
0.6000429805
0.6000429746
0.6000429698
0.6000429686
0.6000429718
0.6000429779
0.6000429843
0.600042989
)
;
    }
    procBoundary1to0
    {
        type            processor;
        value           nonuniform List<scalar> 
97
(
0.6000430204
0.6000430204
0.6000430201
0.6000430194
0.6000430187
0.6000430185
0.6000430188
0.6000430195
0.6000430202
0.6000430205
0.6000430207
0.6000430191
0.6000430191
0.6000430191
0.6000430178
0.6000430164
0.6000430164
0.6000430168
0.6000430183
0.6000430195
0.6000430202
0.6000430203
0.6000430197
0.6000430132
0.6000430132
0.6000430132
0.6000430109
0.6000430161
0.6000430131
0.6000430157
0.6000430182
0.6000430195
0.6000430199
0.6000430186
0.6000430159
0.6000429987
0.6000429987
0.6000429987
0.6000430672
0.6000430152
0.600043013
0.6000430167
0.6000430187
0.6000430196
0.6000430179
0.6000430139
0.6000430135
0.6000436637
0.6000436637
0.6000436637
0.6000430639
0.6000430639
0.6000430152
0.6000430161
0.6000430184
0.6000430199
0.6000430185
0.6000430151
0.6000430098
0.6000430102
0.600043012
0.600043007
0.600043007
0.600043007
0.6000430158
0.6000430186
0.6000430203
0.6000430195
0.6000430177
0.600043015
0.6000430134
0.6000430154
0.600043018
0.6000430172
0.6000430172
0.6000430172
0.6000430193
0.6000430207
0.6000430203
0.6000430195
0.6000430184
0.6000430178
0.6000430186
0.6000430196
0.6000430203
0.6000430199
0.6000430199
0.6000430199
0.6000430209
0.6000430207
0.6000430203
0.6000430198
0.6000430196
0.6000430199
0.6000430203
0.6000430207
0.6000430209
)
;
    }
}


// ************************************************************************* //
