/*--------------------------------*- C++ -*----------------------------------*\
| =========                 |                                                 |
| \\      /  F ield         | OpenFOAM: The Open Source CFD Toolbox           |
|  \\    /   O peration     | Version:  4.x                                   |
|   \\  /    A nd           | Web:      www.OpenFOAM.org                      |
|    \\/     M anipulation  |                                                 |
\*---------------------------------------------------------------------------*/
FoamFile
{
    version     2.0;
    format      ascii;
    class       volScalarField;
    location    "4000";
    object      CO2;
}
// * * * * * * * * * * * * * * * * * * * * * * * * * * * * * * * * * * * * * //

dimensions      [0 0 0 0 0 0 0];

internalField   nonuniform List<scalar> 
1174
(
6.038530397e-06
1.05460299e-05
1.691249787e-05
2.521836618e-05
3.537587886e-05
4.716127751e-05
6.026095831e-05
7.431814915e-05
8.897128912e-05
0.0001038796119
0.00011872821
0.0001331819155
0.0001466478172
0.00015723108
1.027343393e-05
1.750201563e-05
2.712978497e-05
3.893436836e-05
5.250943122e-05
6.736211875e-05
8.299216101e-05
9.894400771e-05
0.0001148335353
0.0001303546335
0.0001452656716
0.0001593328502
0.0001721066096
0.0001819690282
1.963079944e-05
3.241413653e-05
4.823330713e-05
6.619706583e-05
8.534063376e-05
0.0001047976614
0.000123882019
0.0001421052021
0.0001591566447
0.0001748676678
0.0001891664033
0.0002020093497
0.0002131905594
0.0002215657045
3.334695099e-05
5.321327058e-05
7.602291974e-05
0.0001001079094
0.0001240781073
0.0001469348734
0.0001680539842
0.0001871140698
0.0002040136858
0.0002187968868
0.0002315906408
0.0002425389207
0.0002516586093
0.0002582632248
4.3145398e-05
6.690222378e-05
9.282033552e-05
0.0001190742521
0.0001443432385
0.0001677837211
0.0001889366112
0.0002076248614
0.0002238633566
0.0002377866723
0.0002495925872
0.0002594857467
0.0002675589378
0.0002733088342
3.334650763e-05
5.321262686e-05
7.602201988e-05
0.0001001067142
0.0001240765721
0.0001469329941
0.0001680517493
0.000187111462
0.0002040107092
0.0002187935559
0.000231586989
0.0002425349793
0.0002516543881
0.0002582587157
1.963025847e-05
3.241342026e-05
4.823235515e-05
6.619576854e-05
8.533889546e-05
0.0001047953819
0.0001238791282
0.000142101637
0.0001591524098
0.0001748627342
0.0001891608327
0.0002020031399
0.0002131837865
0.0002215584062
1.027290335e-05
1.750137655e-05
2.712896983e-05
3.893326914e-05
5.250791572e-05
6.73600544e-05
8.298942996e-05
9.894050432e-05
0.0001148292166
0.0001303494455
0.0001452596009
0.0001593258831
0.0001720987972
0.0001819604413
6.038160317e-06
1.054564694e-05
1.691202475e-05
2.521769624e-05
3.53748814e-05
4.715980055e-05
6.02588613e-05
7.43152837e-05
8.896754444e-05
0.0001038748948
0.0001187224508
0.0001331750489
0.0001466398336
0.0001572219382
5.393632703e-06
1.027303373e-05
1.75016185e-05
2.712938046e-05
3.893394892e-05
5.250900273e-05
6.736166852e-05
8.299169677e-05
9.894352768e-05
0.0001148330543
0.000130354157
0.0001452652008
0.0001593323586
0.0001721061511
0.0001819685984
1.982515068e-05
3.252426583e-05
4.801143426e-05
6.535640523e-05
8.362486031e-05
0.0001020297581
0.0001199851775
0.0001370997841
0.0001531422824
0.0001679988273
0.0001816275342
0.0001939922198
0.0002048737545
0.0002130975534
4.386534918e-05
6.855094974e-05
9.538492649e-05
0.0001220967479
0.0001471308692
0.0001696392431
0.0001893138699
0.0002061955698
0.0002205167239
0.0002325914468
0.0002427446113
0.0002512566897
0.0002582581533
0.0002632979447
8.660788437e-05
0.0001276696427
0.000166718649
0.0002008340657
0.0002289961733
0.0002513393888
0.0002685580599
0.0002815310422
0.000291121216
0.000298086572
0.0003030531872
0.000306518499
0.0003088575056
0.0003102654416
0.0001269554096
0.0001763716475
0.0002182449655
0.000251474405
0.0002767156843
0.0002952494705
0.0003084389924
0.0003175075094
0.0003234705121
0.000327136077
0.0003291327873
0.0003299486307
0.0003299862323
0.0003296693286
8.660603139e-05
0.0001276674087
0.0001667159727
0.0002008309469
0.0002289925621
0.0002513353766
0.000268553655
0.0002815262992
0.0002911162351
0.000298081268
0.0003030476726
0.0003065128531
0.000308851701
0.0003102594991
4.386358045e-05
6.854903476e-05
9.538265128e-05
0.0001220938895
0.0001471272846
0.0001696348375
0.0001893086365
0.0002061894956
0.0002205099237
0.0002325839752
0.0002427365193
0.000251248068
0.0002582491019
0.0002632884909
1.982406216e-05
3.252324684e-05
4.801018074e-05
6.535467705e-05
8.362243077e-05
0.0001020264717
0.0001199809113
0.0001370944899
0.0001531359828
0.0001679915104
0.000181619245
0.0001939830685
0.0002048637214
0.0002130867352
1.027295142e-05
1.750139265e-05
2.712890353e-05
3.893306143e-05
5.250751357e-05
6.735940155e-05
8.298848186e-05
9.893923169e-05
0.0001148275864
0.0001303474731
0.0001452572835
0.0001593232388
0.0001720957988
0.0001819570022
1.044042258e-05
1.96298811e-05
3.241316352e-05
4.823230086e-05
6.619602958e-05
8.533959014e-05
0.0001047966039
0.0001238809603
0.0001421041279
0.0001591555889
0.0001748665979
0.0001891653427
0.000202008332
0.0002131895811
0.0002215647483
2.393413653e-05
4.386415783e-05
6.85499449e-05
9.538403867e-05
0.0001220959225
0.0001471300979
0.0001696384894
0.0001893131252
0.0002061947948
0.0002205159856
0.0002325907389
0.0002427439053
0.0002512560109
0.0002582574987
0.0002632972997
0.0001149091454
0.0001670083136
0.0002141906918
0.0002528854293
0.0002823554144
0.0003034483547
0.0003176605532
0.0003265826667
0.0003316331048
0.000333965419
0.0003344672554
0.0003338057735
0.0003325145994
0.0003312017757
0.0002729851789
0.0003610148889
0.0004217543754
0.0004576449677
0.0004745474568
0.0004783754787
0.0004739030078
0.0004645904851
0.0004527861211
0.0004400084555
0.0004272061297
0.000414987832
0.0004039313736
0.0003954616682
0.0004801212681
0.0005677609465
0.0006054513223
0.0006121622997
0.0006014594746
0.0005818913159
0.0005585278022
0.000534255891
0.0005106513935
0.0004885218613
0.0004682428347
0.00044999975
0.000434131888
0.0004222638522
0.0002729767521
0.0003610066998
0.0004217461218
0.0004576364451
0.0004745386843
0.0004783665675
0.0004738940264
0.0004645815816
0.0004527772563
0.0004399997215
0.000427197582
0.0004149794102
0.0004039230831
0.0003954534432
0.0001149034784
0.0001670033302
0.000214185078
0.0002528786716
0.0002823473294
0.0003034390165
0.0003176501438
0.0003265714165
0.0003316212694
0.0003339531008
0.0003344546499
0.0003337929469
0.0003325016098
0.0003311885638
4.386364458e-05
6.85487682e-05
9.538187675e-05
0.0001220924835
0.0001471252319
0.0001696321224
0.0001893052657
0.0002061856048
0.0002205055464
0.0002325791896
0.0002427314407
0.0002512427259
0.0002582434616
0.0002632826072
1.963032709e-05
3.241326528e-05
4.823177827e-05
6.619459302e-05
8.533696579e-05
0.0001047925952
0.0001238754521
0.0001420970625
0.0001591469549
0.0001748564501
0.0001891537765
0.0002019953933
0.00021317535
0.0002215492108
1.802352822e-05
3.33452857e-05
5.321136516e-05
7.602082909e-05
0.0001001056888
0.0001240758196
0.0001469325682
0.0001680516899
0.0001871118066
0.0002040114531
0.0002187947102
0.0002315885421
0.0002425369154
0.000251656673
0.000258261287
4.883986576e-05
8.660470364e-05
0.0001276664164
0.0001667154845
0.0002008310351
0.0002289932428
0.0002513366297
0.0002685554467
0.0002815286006
0.0002911189847
0.000298084399
0.0003030511605
0.000306516595
0.0003088557189
0.0003102637332
0.0001655932734
0.0002729789494
0.0003610098776
0.0004217503805
0.0004576415772
0.0004745446203
0.0004783730412
0.0004739009003
0.0004645887181
0.0004527845218
0.0004400070738
0.0004272048867
0.0004149866674
0.0004039303173
0.000395460637
0.0008150893066
0.0009261401101
0.0009447512881
0.0009132095115
0.0008592334926
0.0007984871189
0.0007389227149
0.0006840942928
0.0006352319121
0.0005924262473
0.000555279207
0.0005233034287
0.0004964373972
0.0004768111942
0.001879301721
0.001741256674
0.001528344977
0.001323925287
0.001150082022
0.001008188453
0.0008936876925
0.0008011755226
0.0007259302585
0.0006642061755
0.0006131556246
0.0005707397675
0.0005359994107
0.0005110292573
0.0008150611966
0.0009261196782
0.0009447328619
0.0009131917063
0.0008592163625
0.000798470781
0.0007389071996
0.0006840797377
0.0006352181346
0.000592413371
0.0005552670479
0.0005232918879
0.0004964263753
0.0004768005068
0.0002729773533
0.0003610042923
0.0004217407292
0.0004576286841
0.0004745293831
0.0004783562122
0.0004738831723
0.0004645705464
0.0004527662558
0.0004399888326
0.0004271869222
0.0004149690157
0.0004039129538
0.0003954434121
8.660638612e-05
0.0001276662145
0.0001667127438
0.000200825569
0.0002289851822
0.0002513262876
0.0002685431261
0.0002815146018
0.0002911036852
0.0002980681096
0.0003030340406
0.0003064988426
0.0003088374148
0.0003102449424
3.33467239e-05
5.321216519e-05
7.602043105e-05
0.0001001036366
0.0001240718156
0.0001469264588
0.0001680434881
0.0001871015295
0.0002039992512
0.0002187807754
0.0002315730475
0.0002425199954
0.0002516385123
0.0002582418493
2.371633457e-05
4.314334837e-05
6.689976647e-05
9.281754972e-05
0.0001190712378
0.0001443400974
0.0001677805
0.0001889333987
0.0002076216682
0.0002238602246
0.000237783618
0.0002495895791
0.0002594828474
0.0002675561356
0.0002733060649
7.485224817e-05
0.0001269510576
0.0001763668907
0.0002182401231
0.0002514696232
0.0002767111214
0.000295245189
0.0003084349576
0.0003175037125
0.0003234669106
0.0003271327344
0.0003291296811
0.000329945683
0.0003299834496
0.0003296666374
0.000324637819
0.0004801119935
0.0005677519418
0.0006054433229
0.0006121552758
0.0006014535887
0.0005818861604
0.0005585233262
0.0005342520184
0.0005106479081
0.000488518778
0.0004682400639
0.0004499972374
0.0004341295453
0.0004222616361
0.001689520901
0.001879273202
0.001741238853
0.001528332823
0.001323916597
0.001150075508
0.001008183552
0.0008936838454
0.0008011721759
0.0007259275741
0.000664203987
0.0006131536413
0.0005707379744
0.000535997826
0.0005110278322
0.006465804352
0.004137448057
0.002846138548
0.002089287727
0.001620125167
0.001313062159
0.001101755508
0.0009497620465
0.0008362421499
0.0007487904254
0.0006797458686
0.0006243203209
0.000580037334
0.0005486949155
0.001879301317
0.001741228174
0.001528309575
0.00132389048
0.001150050288
0.001008160196
0.0008936626117
0.0008011530195
0.0007259101117
0.0006641879328
0.0006131387851
0.0005707242061
0.0005359849694
0.0005110154902
0.0004801228308
0.0005677499243
0.0006054317826
0.0006121378317
0.0006014326176
0.0005818637567
0.0005585003166
0.0005342291251
0.0005106254589
0.0004884969119
0.00046821887
0.0004499767247
0.0004341096426
0.0004222420724
0.0001269556498
0.0001763677991
0.0002182367312
0.0002514622454
0.0002767003316
0.0002952316525
0.0003084192923
0.0003174863881
0.0003234483745
0.0003271133099
0.000329109577
0.0003299251772
0.000329962562
0.0003296453852
4.314565911e-05
6.690109844e-05
9.281711933e-05
0.0001190685417
0.0001443348756
0.0001677727416
0.0001889231378
0.0002076091089
0.0002238455695
0.0002377671211
0.0002495714971
0.0002594633747
0.0002675354535
0.0002732841404
1.802343634e-05
3.334487536e-05
5.321057205e-05
7.601959785e-05
0.0001001039826
0.0001240736083
0.00014692986
0.0001680485056
0.0001871081369
0.0002040073304
0.0002187902181
0.000231583653
0.0002425317136
0.0002516511658
0.0002582555383
4.883863505e-05
8.660247636e-05
0.0001276633164
0.0001667115999
0.0002008264496
0.0002289880542
0.0002513309221
0.0002685493118
0.0002815220787
0.0002911121393
0.0002980773871
0.000303043969
0.0003065093129
0.000308848319
0.0003102562495
0.0001655813858
0.0002729676029
0.000360997469
0.0004217373773
0.0004576283037
0.0004745313151
0.0004783598571
0.000473888001
0.0004645761046
0.0004527723487
0.0004399952328
0.0004271933887
0.0004149756253
0.0004039195575
0.0003954500786
0.0005662597046
0.0008150367417
0.0009260997224
0.0009447169704
0.0009131789731
0.0008592061083
0.0007984623738
0.0007389003916
0.000684073881
0.0006352132049
0.000592409047
0.0005552632133
0.000523288484
0.0004964233428
0.0004767977031
0.001689515935
0.001879265072
0.001741204854
0.001528293756
0.001323879121
0.001150041727
0.00100815367
0.000893657388
0.0008011488655
0.0007259066452
0.0006641849748
0.0006131363352
0.0005707220781
0.0005359830765
0.0005110137823
0.000566267516
0.0008150351648
0.0009260893493
0.0009447008351
0.0009131603201
0.0008591865798
0.0007984433329
0.0007388821143
0.0006840567468
0.0006351971865
0.0005923940825
0.0005552492332
0.0005232753216
0.0004964108935
0.0004767856723
0.0002729844515
0.0003610011661
0.0004217316431
0.0004576162157
0.0004745150236
0.000478341201
0.0004738679906
0.0004645555658
0.0004527517138
0.000439974835
0.0004271733923
0.000414956041
0.0004039003659
0.0003954310442
8.660881181e-05
0.0001276662933
0.0001667104808
0.0002008213387
0.0002289793764
0.0002513192622
0.00026853524
0.0002815061779
0.0002910948004
0.0002980589408
0.0003030246989
0.00030648938
0.0003088279263
0.0003102353048
3.334745293e-05
5.321235985e-05
7.601978963e-05
0.0001001020154
0.0001240691694
0.0001469228554
0.0001680389566
0.0001870962429
0.0002039932949
0.0002187742506
0.000231566014
0.0002425126012
0.0002516308048
0.0002582338307
1.044011189e-05
1.962913323e-05
3.241190841e-05
4.823045598e-05
6.619352237e-05
8.533635018e-05
0.0001047925744
0.0001238761273
0.0001420984779
0.0001591491487
0.0001748593731
0.0001891574317
0.0002019997537
0.0002131803946
0.0002215549989
2.393201509e-05
4.386130605e-05
6.854618316e-05
9.537936252e-05
0.0001220902707
0.000147123451
0.0001696308693
0.0001893046222
0.0002061854888
0.0002205059176
0.0002325800541
0.0002427326976
0.0002512443445
0.0002582454338
0.0002632848089
6.523954013e-05
0.0001148982051
0.0001669973866
0.0002141788384
0.000252872394
0.0002823412096
0.0003034331939
0.0003176446323
0.0003265661912
0.0003316163569
0.0003339484678
0.0003344502863
0.0003337888274
0.0003324976727
0.0003311848016
0.0001655814205
0.0002729653462
0.0003609923342
0.0004217296197
0.0004576186662
0.0004745204228
0.0004783482966
0.0004738761432
0.0004645643389
0.0004527606656
0.0004399838396
0.0004271823524
0.0004149648383
0.0004039091024
0.000395439834
0.0003246377403
0.0004801028428
0.000567732973
0.0006054178824
0.0006121264775
0.0006014233633
0.0005818560379
0.0005584939285
0.0005342236355
0.0005106207477
0.0004884927677
0.0004682151897
0.0004499734265
0.0004341066643
0.0004222392821
0.0001655806829
0.0002729627929
0.0003609871542
0.0004217220034
0.0004576091775
0.0004745097207
0.0004783369588
0.0004738644989
0.0004645526235
0.0004527492004
0.0004399725966
0.0004271714862
0.0004149543113
0.0004038988239
0.0003954296298
6.524336406e-05
0.0001149009529
0.000166997096
0.0002141749861
0.0002528652177
0.0002823312338
0.0003034211232
0.0003176309921
0.0003265515466
0.0003316010041
0.0003339326947
0.0003344342921
0.000333772728
0.0003324815214
0.0003311685068
4.386532008e-05
6.854820123e-05
9.537903605e-05
0.0001220873993
0.000147118046
0.0001696231295
0.0001892947499
0.0002061738028
0.0002204926868
0.0002325654799
0.0002427170197
0.0002512277379
0.000258228063
0.0002632667456
1.963110828e-05
3.24133898e-05
4.823089083e-05
6.619244245e-05
8.533343411e-05
0.0001047876318
0.0001238690773
0.0001420893481
0.0001591380048
0.0001748463808
0.0001891427016
0.0002019834835
0.000213162688
0.0002215358841
5.393169007e-06
1.027227138e-05
1.750047635e-05
2.712777806e-05
3.893177621e-05
5.250613616e-05
6.73579824e-05
8.298710891e-05
9.89379575e-05
0.0001148264688
0.0001303465409
0.0001452565705
0.0001593227569
0.0001720956192
0.0001819572085
1.057271196e-05
1.982288517e-05
3.252165135e-05
4.800818096e-05
6.535230325e-05
8.361974156e-05
0.0001020235281
0.0001199777725
0.000137091178
0.0001531325818
0.0001679880302
0.0001816157249
0.0001939794796
0.00020486015
0.0002130831604
2.393204464e-05
4.386112441e-05
6.854557331e-05
9.537818527e-05
0.0001220884191
0.0001471209157
0.0001696276726
0.0001893007869
0.0002061811224
0.0002205011213
0.0002325748804
0.0002427272165
0.0002512385836
0.0002582394509
0.0002632786582
4.883865844e-05
8.660136782e-05
0.00012766038
0.0001667065204
0.0002008192363
0.0002289789352
0.0002513202132
0.0002685373529
0.0002815091529
0.0002910984517
0.0002980632122
0.0003030294271
0.0003064944869
0.0003088333181
0.0003102410131
7.485214816e-05
0.000126947976
0.0001763596936
0.000218228805
0.0002514547309
0.0002766933299
0.0002952252451
0.0003084134085
0.0003174810519
0.0003234434654
0.0003271088076
0.0003291053947
0.0003299212684
0.0003299589367
0.0003296419416
4.883817786e-05
8.660029501e-05
0.0001276583824
0.0001667034517
0.0002008151147
0.0002289738685
0.0002513143966
0.0002685309155
0.0002815022436
0.0002910912346
0.000298055725
0.0003030217308
0.0003064866777
0.0003088254261
0.0003102329917
2.393226687e-05
4.386112899e-05
6.854472559e-05
9.537601091e-05
0.0001220847091
0.0001471156236
0.0001696209366
0.0001892927501
0.000206171939
0.0002204909921
0.0002325639418
0.0002427156048
0.0002512264655
0.000258226854
0.0002632656274
1.057349021e-05
1.982369552e-05
3.252197027e-05
4.800756971e-05
6.535043165e-05
8.361642265e-05
0.0001020186708
0.0001199713648
0.0001370832742
0.0001531232177
0.0001679773594
0.0001816038101
0.0001939664503
0.0002048461313
0.000213068285
1.027340238e-05
1.750126474e-05
2.712797067e-05
3.893108322e-05
5.250428168e-05
6.735474854e-05
8.298232601e-05
9.893152788e-05
0.0001148183442
0.0001303367323
0.000145245127
0.0001593097332
0.0001720810913
0.0001819412256
3.139673861e-06
6.037749446e-06
1.054503867e-05
1.691117936e-05
2.521658703e-05
3.53734936e-05
4.715812701e-05
6.025691761e-05
7.431308173e-05
8.89651186e-05
0.0001038722578
0.0001187196409
0.000133172105
0.0001466367935
0.0001572188184
5.393194082e-06
1.027227781e-05
1.750042553e-05
2.712761914e-05
3.893144788e-05
5.250558309e-05
6.735717307e-05
8.298599708e-05
9.89365111e-05
0.0001148246901
0.0001303444209
0.000145254114
0.0001593199652
0.0001720924448
0.0001819535947
1.044015002e-05
1.962902779e-05
3.24114853e-05
4.822953381e-05
6.619191962e-05
8.533393703e-05
0.0001047892782
0.0001238719111
0.0001420933576
0.0001591431508
0.0001748525958
0.0001891498936
0.0002019915429
0.0002131715347
0.0002215454136
1.802344531e-05
3.334438573e-05
5.320912659e-05
7.601680265e-05
0.000100099558
0.0001240674199
0.000146921862
0.0001680387926
0.0001870968401
0.0002039946269
0.0002187762657
0.0002315686455
0.0002425157089
0.0002516343517
0.0002582377887
2.371629912e-05
4.314230194e-05
6.689696664e-05
9.281246902e-05
0.0001190635584
0.0001443297607
0.0001677676018
0.0001889181095
0.0002076042333
0.0002238408837
0.0002377626859
0.0002495672519
0.0002594593321
0.0002675316151
0.0002732804441
1.802322692e-05
3.334392171e-05
5.320826754e-05
7.601540689e-05
0.0001000975337
0.0001240647407
0.0001469185427
0.0001680348515
0.00018709232
0.0002039895825
0.0002187707343
0.0002315627402
0.0002425095264
0.0002516278811
0.000258231022
1.044005791e-05
1.962878128e-05
3.241086076e-05
4.822827456e-05
6.618982066e-05
8.53308548e-05
0.0001047851223
0.0001238666658
0.0001420870483
0.0001591358473
0.0001748443581
0.0001891407951
0.0002019816696
0.0002131609987
0.0002215342729
5.393271401e-06
1.027236103e-05
1.750031397e-05
2.712706297e-05
3.893020075e-05
5.250342021e-05
6.735392223e-05
8.298152623e-05
9.893077131e-05
0.0001148176421
0.0001303360722
0.0001452444898
0.0001593091269
0.0001720805057
0.0001819406738
3.139898216e-06
6.038057093e-06
1.054526783e-05
1.691113056e-05
2.521602077e-05
3.537216584e-05
4.715580053e-05
6.025338688e-05
7.430818575e-05
8.895872293e-05
0.0001038643018
0.0001187100905
0.0001331609594
0.0001466240776
0.0001572045975
)
;

boundaryField
{
    top
    {
        type            zeroGradient;
    }
    bottom
    {
        type            zeroGradient;
    }
    side-walls
    {
        type            zeroGradient;
    }
    inlet
    {
        type            zeroGradient;
    }
    outlet
    {
        type            zeroGradient;
    }
    procBoundary1to0
    {
        type            processor;
        value           nonuniform List<scalar> 
97
(
3.139902043e-06
3.139902043e-06
5.393227541e-06
1.043976337e-05
1.80223432e-05
2.371454047e-05
1.802199283e-05
1.043931308e-05
5.392755234e-06
3.13944042e-06
2.509214368e-06
1.057354622e-05
1.057354622e-05
1.057354622e-05
2.393191533e-05
4.883608212e-05
7.484565843e-05
4.883442063e-05
2.393007917e-05
1.057188774e-05
5.392780773e-06
4.794033044e-06
1.071040792e-05
6.524355725e-05
6.524355725e-05
6.524355725e-05
0.0001655756352
0.0003246013541
0.0001655655777
6.523384221e-05
2.393013553e-05
1.043935914e-05
8.142968417e-06
2.114514227e-05
6.663469677e-05
0.0005662693346
0.0005662693346
0.0005662693346
0.001689274511
0.0005662021628
0.0001655662006
4.883471943e-05
1.802214983e-05
1.053526459e-05
3.099419632e-05
0.0001171790404
0.000458365776
0.010897839
0.010897839
0.010897839
0.001689286566
0.001689286566
0.0003246043593
7.484613294e-05
2.371477789e-05
8.143066226e-06
2.114545809e-05
6.663694218e-05
0.0001989071511
0.0004583769787
0.0001989000281
0.0001655886818
0.0001655886818
0.0001655886818
4.883812854e-05
1.802286353e-05
4.794093403e-06
1.071069581e-05
2.805359534e-05
6.663710775e-05
0.0001171806411
6.663559738e-05
2.80527943e-05
2.393384109e-05
2.393384109e-05
2.393384109e-05
1.044023037e-05
2.509276206e-06
4.841367513e-06
1.071072055e-05
2.114551756e-05
3.099439669e-05
2.114513257e-05
1.071048025e-05
4.841260242e-06
5.393614597e-06
5.393614597e-06
5.393614597e-06
1.475219111e-06
2.509288992e-06
4.794118639e-06
8.1430904e-06
1.053530562e-05
8.142954514e-06
4.794008919e-06
2.509241743e-06
1.475207361e-06
)
;
    }
}


// ************************************************************************* //
