/*--------------------------------*- C++ -*----------------------------------*\
| =========                 |                                                 |
| \\      /  F ield         | OpenFOAM: The Open Source CFD Toolbox           |
|  \\    /   O peration     | Version:  4.x                                   |
|   \\  /    A nd           | Web:      www.OpenFOAM.org                      |
|    \\/     M anipulation  |                                                 |
\*---------------------------------------------------------------------------*/
FoamFile
{
    version     2.0;
    format      ascii;
    class       volScalarField;
    location    "4000";
    object      N2;
}
// * * * * * * * * * * * * * * * * * * * * * * * * * * * * * * * * * * * * * //

dimensions      [0 0 0 0 0 0 0];

internalField   nonuniform List<scalar> 
1174
(
0.5999986803
0.5999976958
0.5999963052
0.599994491
0.5999922722
0.5999896977
0.5999868358
0.5999837646
0.5999805629
0.5999773051
0.5999740601
0.599970901
0.5999679575
0.5999656439
0.5999977553
0.5999961766
0.5999940738
0.5999914956
0.5999885304
0.5999852859
0.5999818713
0.5999783861
0.5999749141
0.5999715222
0.5999682633
0.5999651883
0.5999623957
0.5999602395
0.5999957118
0.5999929203
0.5999894656
0.5999855423
0.5999813611
0.5999771109
0.5999729417
0.5999689601
0.599965234
0.5999618003
0.5999586746
0.5999558667
0.5999534216
0.5999515899
0.599992717
0.599988379
0.599983398
0.5999781381
0.5999729027
0.5999679099
0.5999632961
0.5999591314
0.599955438
0.5999522065
0.5999494092
0.5999470146
0.5999450195
0.5999435743
0.5999905779
0.5999853906
0.599979731
0.5999739974
0.5999684783
0.599963358
0.5999587366
0.5999546529
0.5999511038
0.5999480599
0.5999454781
0.5999433139
0.5999415472
0.5999402886
0.5999927172
0.5999883793
0.5999833984
0.5999781386
0.5999729034
0.5999679109
0.5999632972
0.5999591327
0.5999554396
0.5999522083
0.5999494111
0.5999470168
0.5999450218
0.5999435767
0.5999957121
0.5999929206
0.599989466
0.5999855429
0.5999813619
0.5999771121
0.5999729432
0.599968962
0.5999652363
0.5999618029
0.5999586776
0.59995587
0.5999534253
0.5999515939
0.5999977556
0.5999961769
0.5999940742
0.599991496
0.5999885311
0.5999852869
0.5999818727
0.5999783878
0.5999749163
0.5999715249
0.5999682665
0.599965192
0.5999623999
0.5999602441
0.5999986804
0.5999976959
0.5999963054
0.5999944912
0.5999922726
0.5999896984
0.5999868369
0.5999837661
0.5999805648
0.5999773076
0.5999740631
0.5999709046
0.5999679618
0.5999656489
0.5999988212
0.5999977555
0.5999961768
0.5999940741
0.5999914958
0.5999885306
0.5999852861
0.5999818715
0.5999783863
0.5999749143
0.5999715225
0.5999682635
0.5999651885
0.599962396
0.5999602397
0.5999956693
0.5999928962
0.5999895141
0.599985726
0.5999817358
0.5999777154
0.5999737927
0.5999700532
0.5999665474
0.5999633003
0.599960321
0.5999576175
0.5999552379
0.5999534394
0.59999042
0.59998503
0.5999791704
0.599973337
0.5999678692
0.5999629523
0.5999586537
0.5999549644
0.5999518339
0.5999491936
0.5999469728
0.5999451101
0.5999435775
0.599942474
0.5999810887
0.5999721237
0.5999635972
0.5999561469
0.5999499955
0.599945114
0.5999413509
0.5999385144
0.5999364162
0.599934891
0.5999338022
0.5999330411
0.5999325262
0.5999322157
0.5999722821
0.5999614933
0.5999523499
0.5999450925
0.5999395783
0.599935528
0.5999326441
0.5999306597
0.5999293532
0.5999285482
0.5999281076
0.5999279249
0.5999279124
0.5999279784
0.5999810895
0.5999721246
0.5999635983
0.5999561483
0.5999499973
0.599945116
0.5999413531
0.5999385168
0.5999364189
0.5999348939
0.5999338051
0.5999330442
0.5999325294
0.5999322189
0.5999904208
0.5999850308
0.5999791715
0.5999733383
0.599967871
0.5999629546
0.5999586564
0.5999549676
0.5999518375
0.5999491977
0.5999469772
0.5999451148
0.5999435824
0.5999424792
0.5999956698
0.5999928967
0.5999895146
0.5999857268
0.599981737
0.599977717
0.5999737949
0.599970056
0.5999665508
0.5999633042
0.5999603255
0.5999576225
0.5999552434
0.5999534453
0.5999977555
0.5999961769
0.5999940742
0.5999914961
0.5999885313
0.5999852872
0.5999818732
0.5999783886
0.5999749172
0.599971526
0.5999682678
0.5999651935
0.5999624016
0.5999602461
0.5999977191
0.5999957124
0.5999929208
0.5999894662
0.5999855429
0.5999813616
0.5999771115
0.5999729423
0.5999689607
0.5999652346
0.5999618009
0.5999586752
0.5999558672
0.5999534221
0.5999515904
0.5999947722
0.5999904207
0.5999850306
0.599979171
0.5999733375
0.5999678697
0.5999629528
0.5999586541
0.5999549649
0.5999518343
0.5999491941
0.5999469732
0.5999451105
0.5999435778
0.5999424744
0.5999749089
0.599963535
0.5999532331
0.599944783
0.5999383459
0.599933737
0.5999306298
0.5999286774
0.5999275701
0.5999270562
0.5999269419
0.5999270818
0.5999273594
0.5999276429
0.5999404027
0.5999211856
0.5999079233
0.5999000839
0.5998963887
0.5998955473
0.5998965179
0.5998985452
0.5999011166
0.5999039008
0.5999066907
0.5999093533
0.5999117627
0.5999136086
0.5998951972
0.5998760634
0.5998678298
0.5998663576
0.5998686866
0.5998729511
0.5998780446
0.5998833368
0.5998884838
0.5998933092
0.599897731
0.5999017087
0.5999051684
0.5999077562
0.5999404064
0.5999211891
0.5999079271
0.5999000879
0.599896393
0.5998955519
0.5998965226
0.5998985499
0.5999011214
0.5999039056
0.5999066954
0.5999093579
0.5999117673
0.5999136131
0.5999749114
0.5999635372
0.5999532357
0.5999447863
0.5999383499
0.5999337418
0.5999306353
0.5999286834
0.5999275765
0.5999270629
0.5999269488
0.5999270888
0.5999273666
0.5999276502
0.5999904208
0.599985031
0.5999791719
0.5999733391
0.5999678721
0.599962956
0.5999586582
0.5999549697
0.5999518399
0.5999492003
0.59994698
0.5999451178
0.5999435855
0.5999424825
0.599995712
0.5999929206
0.5999894663
0.5999855435
0.5999813629
0.5999771135
0.5999729452
0.5999689645
0.5999652392
0.5999618064
0.5999586815
0.5999558743
0.59995343
0.599951599
0.5999960634
0.5999927179
0.59998838
0.5999833991
0.5999781392
0.5999729039
0.5999679111
0.5999632973
0.5999591326
0.5999554392
0.5999522077
0.5999494103
0.5999470157
0.5999450205
0.5999435753
0.5999893351
0.5999810904
0.5999721254
0.5999635988
0.5999561484
0.599949997
0.5999451154
0.5999413522
0.5999385156
0.5999364174
0.5999348921
0.5999338032
0.5999330421
0.5999325271
0.5999322165
0.5999638459
0.5999404061
0.5999211882
0.5999079254
0.5999000856
0.5998963902
0.5998955486
0.599896519
0.5998985461
0.5999011175
0.5999039016
0.5999066913
0.5999093539
0.5999117632
0.5999136091
0.5998220782
0.5997978376
0.5997937679
0.5998006438
0.5998124166
0.599825668
0.5998386623
0.5998506237
0.5998612836
0.5998706221
0.5998787259
0.5998857013
0.5998915619
0.5998958434
0.5995898419
0.5996199525
0.5996664037
0.5997110052
0.5997489366
0.5997798972
0.5998048808
0.5998250665
0.5998414846
0.5998549522
0.5998660906
0.5998753448
0.5998829243
0.5998883723
0.5998220909
0.5997978469
0.5997937769
0.5998006529
0.5998124256
0.5998256768
0.5998386708
0.5998506318
0.5998612913
0.5998706293
0.5998787327
0.5998857078
0.5998915681
0.5998958495
0.599940406
0.5999211903
0.5999079299
0.5999000921
0.5998963981
0.5998955575
0.5998965285
0.599898556
0.5999011275
0.5999039116
0.5999067013
0.5999093637
0.5999117729
0.5999136187
0.5999810893
0.5999721252
0.5999636
0.5999561512
0.5999500013
0.599945121
0.5999413589
0.5999385233
0.5999364258
0.5999349011
0.5999338127
0.5999330519
0.5999325373
0.599932227
0.599992717
0.5999883795
0.5999833992
0.5999781403
0.599972906
0.5999679144
0.5999633017
0.5999591382
0.5999554459
0.5999522154
0.5999494188
0.5999470251
0.5999450306
0.5999435861
0.5999948205
0.599990579
0.5999853919
0.5999797324
0.599973999
0.5999684799
0.5999633596
0.5999587382
0.5999546545
0.5999511054
0.5999480615
0.5999454797
0.5999433154
0.5999415486
0.59994029
0.5999836575
0.5999722844
0.5999614957
0.5999523523
0.5999450949
0.5999395806
0.5999355302
0.5999326462
0.5999306616
0.599929355
0.5999285499
0.5999281092
0.5999279264
0.5999279138
0.5999279798
0.5999291381
0.5998952027
0.5998760682
0.599867834
0.5998663613
0.5998686897
0.5998729539
0.599878047
0.5998833389
0.5998884857
0.5998933109
0.5998977325
0.5999017101
0.5999051697
0.5999077574
0.599631274
0.5995898577
0.5996199622
0.5996664102
0.5997110098
0.59974894
0.5997798997
0.5998048828
0.5998250683
0.599841486
0.5998549533
0.5998660917
0.5998753458
0.5998829251
0.5998883731
0.5985889889
0.5990970548
0.5993788288
0.59954398
0.5996463557
0.5997133598
0.5997594691
0.5997926355
0.5998174064
0.5998364889
0.5998515545
0.5998636482
0.5998733104
0.5998801494
0.5995898417
0.599619966
0.5996664218
0.5997110237
0.5997489537
0.5997799126
0.5998048946
0.599825079
0.5998414958
0.5998549624
0.5998661
0.5998753535
0.5998829323
0.59988838
0.5998951961
0.5998760687
0.5998678399
0.5998663706
0.5998687011
0.5998729662
0.5998780597
0.5998833516
0.5998884981
0.5998933231
0.5998977443
0.5999017216
0.5999051808
0.5999077684
0.5999722817
0.599961495
0.599952354
0.5999450988
0.5999395865
0.5999355376
0.5999326548
0.5999306712
0.5999293653
0.5999285607
0.5999281204
0.5999279379
0.5999279255
0.5999279917
0.5999905777
0.5999853911
0.5999797326
0.5999740004
0.5999684828
0.5999633638
0.5999587439
0.5999546615
0.5999511135
0.5999480706
0.5999454897
0.5999433263
0.5999415602
0.5999403023
0.5999960634
0.5999927181
0.5999883804
0.5999833997
0.5999781401
0.5999729051
0.5999679126
0.599963299
0.5999591345
0.5999554414
0.5999522101
0.5999494129
0.5999470185
0.5999450235
0.5999435784
0.5999893357
0.5999810915
0.5999721268
0.5999636007
0.5999561507
0.5999499997
0.5999451184
0.5999413554
0.5999385191
0.599936421
0.5999348959
0.5999338071
0.599933046
0.5999325312
0.5999322206
0.5999638518
0.5999404116
0.5999211942
0.5999079318
0.5999000923
0.599896397
0.5998955555
0.5998965258
0.5998985528
0.599901124
0.599903908
0.5999066976
0.5999093599
0.5999117691
0.5999136149
0.5998764023
0.5998221045
0.5997978576
0.5997937853
0.5998006596
0.599812431
0.5998256813
0.5998386744
0.5998506349
0.5998612939
0.5998706316
0.5998787347
0.5998857096
0.5998915697
0.5998958509
0.5996312771
0.5995898618
0.5996199786
0.5996664302
0.5997110296
0.5997489581
0.5997799159
0.5998048972
0.5998250811
0.5998414975
0.5998549638
0.5998661012
0.5998753546
0.5998829333
0.5998883809
0.599876398
0.5998221047
0.5997978627
0.5997937939
0.5998006698
0.5998124419
0.5998256919
0.5998386846
0.5998506445
0.5998613029
0.59987064
0.5998787426
0.599885717
0.5998915767
0.5998958577
0.5999404028
0.5999211923
0.599907935
0.5999000991
0.5998964061
0.5998955659
0.599896537
0.5998985644
0.5999011356
0.5999039194
0.5999067088
0.5999093709
0.5999117799
0.5999136257
0.599981088
0.5999721253
0.5999636013
0.5999561536
0.5999500045
0.5999451249
0.5999413633
0.599938528
0.5999364307
0.5999349063
0.5999338179
0.5999330572
0.5999325426
0.5999322324
0.5999927166
0.5999883794
0.5999833996
0.5999781412
0.5999729075
0.5999679164
0.5999633043
0.5999591411
0.5999554493
0.599952219
0.5999494228
0.5999470292
0.5999450349
0.5999435906
0.5999977193
0.5999957127
0.5999929214
0.599989467
0.5999855441
0.5999813633
0.5999771136
0.5999729448
0.5999689637
0.599965238
0.5999618047
0.5999586794
0.5999558718
0.5999534271
0.5999515957
0.5999947732
0.5999904221
0.5999850324
0.5999791732
0.5999733403
0.599967873
0.5999629567
0.5999586585
0.5999549698
0.5999518397
0.5999491998
0.5999469792
0.5999451168
0.5999435844
0.5999424812
0.5999857549
0.5999749144
0.5999635405
0.5999532391
0.5999447897
0.5999383533
0.599933745
0.5999306383
0.5999286862
0.5999275791
0.5999270654
0.5999269512
0.599927091
0.5999273687
0.5999276522
0.5999638517
0.5999404127
0.5999211968
0.5999079359
0.5999000975
0.5998964029
0.5998955617
0.5998965323
0.5998985593
0.5999011305
0.5999039143
0.5999067037
0.5999093659
0.5999117749
0.5999136206
0.599929138
0.599895207
0.5998760779
0.5998678474
0.5998663767
0.5998687061
0.5998729703
0.5998780631
0.5998833545
0.5998885007
0.5998933253
0.5998977463
0.5999017233
0.5999051824
0.5999077699
0.599963852
0.599940414
0.5999211996
0.59990794
0.5999001028
0.5998964089
0.5998955681
0.5998965388
0.5998985659
0.599901137
0.5999039206
0.5999067098
0.5999093719
0.5999117807
0.5999136264
0.5999857529
0.599974913
0.5999635407
0.5999532412
0.5999447937
0.5999383588
0.5999337517
0.5999306459
0.5999286944
0.5999275878
0.5999270743
0.5999269602
0.5999271001
0.5999273778
0.5999276614
0.59999042
0.5999850314
0.5999791735
0.5999733419
0.5999678761
0.5999629611
0.5999586641
0.5999549763
0.5999518471
0.599949208
0.599946988
0.5999451262
0.5999435942
0.5999424914
0.5999957116
0.5999929206
0.5999894668
0.5999855448
0.5999813649
0.5999771163
0.5999729488
0.5999689688
0.5999652443
0.599961812
0.5999586877
0.599955881
0.599953437
0.5999516065
0.5999988215
0.5999977559
0.5999961774
0.5999940748
0.5999914969
0.599988532
0.599985288
0.5999818739
0.5999783892
0.5999749178
0.5999715265
0.5999682681
0.5999651937
0.5999624017
0.5999602459
0.5999976903
0.5999956704
0.5999928975
0.5999895157
0.599985728
0.5999817384
0.5999777186
0.5999737966
0.5999700578
0.5999665526
0.5999633061
0.5999603274
0.5999576244
0.5999552453
0.5999534473
0.5999947732
0.5999904221
0.5999850327
0.5999791739
0.5999733413
0.5999678744
0.5999629584
0.5999586606
0.5999549722
0.5999518423
0.5999492026
0.5999469822
0.59994512
0.5999435877
0.5999424846
0.5999893356
0.599981092
0.5999721283
0.5999636033
0.5999561546
0.5999500046
0.5999451242
0.599941362
0.5999385262
0.5999364286
0.5999349037
0.5999338151
0.5999330543
0.5999325395
0.5999322291
0.5999836575
0.5999722859
0.5999614994
0.5999523582
0.5999451028
0.5999395902
0.599935541
0.5999326579
0.5999306741
0.5999293679
0.5999285632
0.5999281227
0.59992794
0.5999279274
0.5999279935
0.5999893358
0.5999810926
0.5999721294
0.5999636051
0.5999561569
0.5999500074
0.5999451275
0.5999413656
0.5999385301
0.5999364326
0.599934908
0.5999338195
0.5999330587
0.5999325439
0.5999322336
0.5999947731
0.5999904221
0.5999850332
0.5999791751
0.5999733433
0.5999678773
0.5999629622
0.5999586651
0.5999549773
0.599951848
0.5999492088
0.5999469888
0.5999451268
0.5999435948
0.5999424919
0.5999976899
0.59999567
0.5999928974
0.5999895161
0.5999857291
0.5999817402
0.5999777213
0.5999738001
0.5999700622
0.5999665578
0.5999633121
0.599960334
0.5999576317
0.5999552532
0.5999534556
0.5999977553
0.5999961769
0.5999940748
0.5999914972
0.5999885331
0.5999852898
0.5999818766
0.5999783928
0.5999749224
0.599971532
0.5999682745
0.599965201
0.5999624098
0.5999602549
0.5999993137
0.5999986807
0.5999976962
0.5999963058
0.5999944918
0.5999922734
0.5999896993
0.5999868379
0.5999837673
0.5999805662
0.599977309
0.5999740647
0.5999709062
0.5999679634
0.5999656506
0.5999988214
0.5999977559
0.5999961774
0.5999940749
0.599991497
0.5999885324
0.5999852885
0.5999818746
0.5999783901
0.5999749188
0.5999715277
0.5999682695
0.5999651953
0.5999624035
0.5999602479
0.5999977192
0.5999957128
0.5999929216
0.5999894675
0.599985545
0.5999813646
0.5999771154
0.5999729471
0.5999689665
0.5999652413
0.5999618085
0.5999586836
0.5999558764
0.599953432
0.5999516011
0.5999960634
0.5999927183
0.5999883811
0.5999834012
0.5999781425
0.5999729084
0.5999679169
0.5999633042
0.5999591407
0.5999554484
0.5999522178
0.5999494212
0.5999470274
0.5999450328
0.5999435883
0.5999948205
0.5999905795
0.5999853933
0.599979735
0.599974003
0.5999684855
0.5999633666
0.5999587465
0.5999546641
0.599951116
0.599948073
0.599945492
0.5999433284
0.5999415622
0.5999403043
0.5999960635
0.5999927185
0.5999883816
0.5999834019
0.5999781436
0.5999729099
0.5999679187
0.5999633065
0.5999591432
0.5999554512
0.5999522209
0.5999494245
0.5999470309
0.5999450365
0.5999435921
0.5999977193
0.5999957129
0.599992922
0.5999894682
0.5999855462
0.5999813663
0.5999771177
0.59997295
0.59996897
0.5999652454
0.5999618131
0.5999586887
0.599955882
0.599953438
0.5999516074
0.5999988214
0.5999977559
0.5999961775
0.5999940752
0.5999914977
0.5999885336
0.5999852903
0.599981877
0.5999783933
0.5999749228
0.5999715324
0.5999682749
0.5999652014
0.5999624102
0.5999602552
0.5999993135
0.5999986805
0.5999976961
0.5999963059
0.5999944922
0.5999922741
0.5999897006
0.5999868399
0.59998377
0.5999805698
0.5999773135
0.59997407
0.5999709125
0.5999679706
0.5999656586
)
;

boundaryField
{
    top
    {
        type            zeroGradient;
    }
    bottom
    {
        type            zeroGradient;
    }
    side-walls
    {
        type            zeroGradient;
    }
    inlet
    {
        type            zeroGradient;
    }
    outlet
    {
        type            zeroGradient;
    }
    procBoundary1to0
    {
        type            processor;
        value           nonuniform List<scalar> 
97
(
0.5999993135
0.5999993135
0.5999988214
0.5999977195
0.599996064
0.5999948215
0.5999960642
0.5999977197
0.5999988217
0.5999993138
0.5999994515
0.5999976899
0.5999976899
0.5999976899
0.5999947733
0.5999893371
0.5999836612
0.5999893379
0.5999947743
0.5999976907
0.5999988217
0.5999989525
0.5999976606
0.5999857529
0.5999857529
0.5999857529
0.5999638555
0.5999291586
0.5999638603
0.5999857579
0.5999947742
0.5999977197
0.5999982212
0.5999953823
0.5999854524
0.5998764005
0.5998764005
0.5998764005
0.5996314165
0.5998764347
0.59996386
0.5999893378
0.5999960641
0.5999976988
0.5999932323
0.5999744201
0.5998999644
0.5976226017
0.5976226017
0.5976226017
0.5996314098
0.5996314098
0.599929157
0.5999836608
0.5999948214
0.5999982211
0.5999953821
0.5999854509
0.5999565803
0.5998999581
0.5999565844
0.5999638481
0.5999638481
0.5999638481
0.599989336
0.5999960637
0.5999989524
0.5999976604
0.5999938738
0.5999854508
0.5999744192
0.5999854517
0.5999938742
0.5999947723
0.5999947723
0.5999947723
0.5999977192
0.5999994514
0.5999989421
0.5999976604
0.5999953821
0.5999932321
0.5999953823
0.5999976605
0.5999989422
0.5999988212
0.5999988212
0.5999988212
0.5999996773
0.5999994514
0.5999989524
0.5999982211
0.5999976988
0.5999982212
0.5999989525
0.5999994515
0.5999996773
)
;
    }
}


// ************************************************************************* //
