/*--------------------------------*- C++ -*----------------------------------*\
| =========                 |                                                 |
| \\      /  F ield         | OpenFOAM: The Open Source CFD Toolbox           |
|  \\    /   O peration     | Version:  4.x                                   |
|   \\  /    A nd           | Web:      www.OpenFOAM.org                      |
|    \\/     M anipulation  |                                                 |
\*---------------------------------------------------------------------------*/
FoamFile
{
    version     2.0;
    format      ascii;
    class       volScalarField;
    location    "4000";
    object      T;
}
// * * * * * * * * * * * * * * * * * * * * * * * * * * * * * * * * * * * * * //

dimensions      [0 0 0 1 0 0 0];

internalField   nonuniform List<scalar> 
1174
(
1223.149385
1223.149278
1223.149377
1223.149305
1223.149468
1223.149393
1223.14969
1223.14969
1223.149802
1223.149899
1223.149983
1223.149928
1223.150011
1223.149842
1223.15614
1223.155935
1223.156022
1223.156101
1223.156119
1223.156089
1223.156159
1223.15592
1223.155856
1223.155911
1223.155915
1223.155812
1223.155899
1223.155897
1223.150067
1223.150205
1223.1502
1223.150101
1223.150321
1223.150259
1223.150302
1223.150178
1223.150302
1223.150107
1223.150219
1223.150461
1223.150602
1223.150583
1223.150437
1223.150478
1223.150376
1223.150268
1223.15025
1223.150243
1223.150375
1223.150336
1223.150229
1223.150223
1223.150222
1223.150152
1223.150155
1223.149981
1223.148221
1223.148238
1223.148375
1223.148382
1223.148487
1223.148553
1223.148511
1223.148492
1223.14834
1223.148321
1223.148124
1223.148315
1223.148361
1223.148317
1223.150166
1223.150064
1223.150123
1223.150035
1223.150162
1223.150012
1223.150035
1223.150063
1223.150065
1223.150184
1223.150206
1223.150168
1223.15027
1223.150307
1223.152318
1223.152394
1223.152454
1223.15257
1223.152669
1223.152656
1223.152772
1223.152868
1223.152982
1223.152994
1223.15285
1223.153183
1223.153159
1223.153016
1223.146592
1223.146611
1223.14654
1223.146499
1223.14658
1223.146534
1223.146575
1223.146468
1223.146276
1223.146376
1223.146356
1223.14638
1223.146415
1223.14639
1223.149306
1223.149451
1223.14951
1223.149381
1223.149477
1223.149446
1223.149492
1223.149435
1223.149471
1223.149547
1223.149517
1223.149592
1223.149704
1223.149657
1223.149631
1223.149623
1223.14969
1223.149678
1223.149826
1223.149784
1223.149876
1223.149915
1223.149801
1223.149732
1223.149764
1223.149729
1223.149828
1223.149747
1223.149671
1223.144997
1223.145101
1223.145047
1223.145192
1223.145274
1223.145287
1223.145162
1223.144945
1223.145143
1223.145158
1223.145198
1223.145308
1223.145246
1223.145151
1223.147085
1223.147086
1223.147214
1223.147175
1223.147262
1223.14727
1223.147176
1223.146983
1223.146968
1223.147099
1223.147078
1223.147191
1223.14737
1223.147439
1223.148145
1223.14833
1223.148357
1223.148545
1223.148444
1223.148676
1223.148642
1223.148609
1223.148735
1223.148554
1223.148566
1223.148574
1223.148549
1223.148685
1223.159228
1223.159029
1223.159192
1223.159068
1223.159218
1223.159336
1223.159378
1223.159219
1223.159057
1223.159206
1223.159398
1223.159365
1223.159416
1223.159448
1223.148859
1223.148687
1223.14875
1223.148847
1223.148911
1223.149024
1223.148973
1223.148915
1223.148788
1223.149049
1223.149104
1223.148971
1223.149038
1223.149032
1223.150598
1223.150559
1223.150724
1223.150739
1223.150726
1223.150637
1223.150466
1223.150512
1223.150403
1223.150419
1223.150565
1223.150726
1223.150581
1223.150249
1223.150611
1223.150689
1223.150723
1223.150455
1223.15052
1223.150499
1223.150644
1223.150645
1223.150681
1223.150786
1223.150819
1223.150509
1223.150561
1223.150661
1223.150659
1223.150618
1223.150717
1223.150753
1223.150728
1223.150594
1223.150635
1223.150662
1223.150779
1223.150736
1223.150779
1223.150723
1223.150744
1223.150663
1223.151361
1223.151428
1223.15125
1223.151082
1223.151088
1223.151149
1223.151136
1223.151279
1223.151281
1223.151248
1223.151099
1223.151098
1223.151149
1223.151116
1223.151035
1223.156678
1223.156656
1223.156823
1223.156855
1223.1568
1223.156797
1223.156947
1223.157027
1223.15728
1223.157187
1223.157171
1223.15721
1223.157263
1223.157284
1223.157362
1223.14854
1223.148718
1223.148635
1223.148877
1223.148949
1223.149132
1223.149082
1223.149054
1223.149136
1223.149066
1223.149165
1223.149224
1223.149275
1223.149336
1223.154887
1223.154942
1223.155191
1223.155236
1223.155267
1223.155162
1223.155022
1223.155002
1223.154911
1223.154928
1223.15491
1223.154919
1223.154861
1223.154786
1223.153966
1223.154109
1223.154125
1223.154022
1223.154186
1223.154149
1223.154073
1223.154193
1223.154003
1223.153972
1223.153947
1223.153954
1223.153759
1223.153849
1223.146987
1223.147084
1223.147184
1223.147217
1223.147284
1223.147129
1223.147088
1223.147162
1223.14725
1223.147287
1223.147223
1223.147466
1223.147518
1223.147449
1223.15468
1223.154836
1223.15483
1223.154587
1223.154556
1223.154859
1223.154865
1223.154854
1223.154732
1223.154758
1223.154813
1223.15484
1223.154757
1223.154783
1223.149194
1223.149218
1223.149522
1223.149613
1223.149394
1223.149489
1223.149635
1223.149606
1223.149649
1223.149688
1223.149485
1223.149497
1223.149693
1223.149713
1223.149538
1223.149613
1223.149702
1223.149754
1223.149906
1223.149869
1223.149808
1223.149664
1223.149691
1223.149648
1223.149634
1223.149882
1223.149973
1223.150018
1223.149819
1223.149756
1223.149828
1223.149834
1223.149862
1223.149866
1223.149706
1223.149712
1223.149559
1223.149512
1223.149478
1223.149427
1223.14923
1223.149192
1223.149263
1223.149062
1223.149184
1223.14927
1223.149173
1223.149101
1223.149213
1223.14931
1223.149307
1223.149076
1223.148884
1223.14915
1223.149089
1223.149103
1223.149066
1223.149252
1223.148961
1223.148928
1223.149233
1223.148942
1223.149146
1223.149082
1223.149106
1223.149057
1223.148989
1223.149045
1223.148953
1223.149039
1223.14923
1223.149192
1223.149361
1223.15556
1223.155696
1223.155845
1223.155797
1223.155751
1223.155821
1223.155742
1223.155708
1223.155641
1223.155642
1223.155558
1223.155515
1223.155486
1223.155595
1223.141249
1223.141251
1223.141057
1223.140839
1223.140717
1223.140703
1223.140622
1223.140547
1223.140624
1223.14072
1223.140534
1223.140454
1223.140523
1223.140521
1223.14996
1223.149952
1223.1498
1223.149856
1223.149751
1223.149769
1223.149785
1223.149675
1223.149849
1223.14968
1223.149565
1223.149534
1223.149455
1223.149353
1223.149551
1223.149516
1223.14962
1223.149694
1223.1496
1223.149778
1223.149674
1223.149641
1223.149674
1223.149863
1223.149853
1223.15008
1223.150091
1223.150044
1223.153691
1223.153716
1223.153805
1223.15391
1223.153926
1223.15377
1223.153887
1223.154035
1223.1539
1223.1539
1223.153909
1223.15392
1223.153978
1223.153952
1223.150305
1223.150469
1223.150487
1223.150432
1223.150327
1223.150277
1223.150066
1223.150105
1223.150182
1223.150137
1223.149932
1223.149981
1223.149926
1223.14994
1223.149352
1223.149548
1223.149474
1223.149573
1223.149565
1223.149522
1223.149678
1223.149479
1223.14953
1223.149361
1223.149381
1223.149406
1223.149443
1223.149471
1223.149662
1223.150436
1223.150412
1223.150311
1223.150254
1223.150279
1223.150303
1223.150373
1223.150585
1223.15067
1223.150805
1223.150797
1223.150638
1223.150659
1223.15057
1223.150593
1223.151416
1223.151627
1223.151596
1223.151498
1223.151721
1223.151563
1223.151779
1223.151823
1223.151799
1223.151875
1223.151841
1223.151778
1223.151816
1223.151742
1223.151875
1223.142466
1223.142868
1223.142545
1223.142493
1223.142449
1223.142566
1223.1424
1223.142158
1223.142343
1223.14221
1223.142068
1223.14207
1223.142087
1223.14207
1223.141992
1215.710782
1215.702677
1215.69517
1215.687995
1215.681126
1215.674325
1215.667836
1215.661191
1215.654654
1215.648028
1215.641486
1215.634766
1215.628135
1215.621455
1223.140837
1223.140676
1223.140489
1223.140496
1223.14051
1223.140557
1223.140446
1223.140492
1223.140382
1223.140318
1223.140428
1223.140365
1223.140175
1223.140045
1223.153986
1223.154082
1223.153967
1223.153955
1223.154183
1223.153953
1223.154129
1223.154042
1223.153956
1223.153995
1223.153955
1223.153932
1223.153975
1223.153996
1223.146847
1223.146721
1223.146762
1223.146606
1223.146611
1223.146587
1223.146647
1223.146862
1223.146952
1223.146955
1223.147076
1223.147013
1223.14712
1223.147112
1223.150186
1223.150289
1223.15051
1223.150455
1223.150465
1223.150381
1223.150372
1223.15049
1223.150429
1223.15046
1223.150467
1223.150518
1223.150418
1223.150369
1223.153966
1223.15391
1223.153875
1223.153852
1223.15385
1223.15389
1223.153824
1223.153862
1223.153924
1223.154063
1223.153927
1223.154103
1223.153986
1223.154213
1223.154145
1223.150458
1223.150407
1223.15028
1223.150184
1223.150117
1223.150157
1223.150269
1223.150205
1223.150169
1223.150126
1223.150091
1223.150062
1223.149954
1223.149927
1223.149887
1223.153416
1223.153465
1223.153648
1223.153592
1223.153751
1223.153654
1223.153701
1223.153473
1223.153467
1223.153182
1223.15322
1223.153424
1223.153356
1223.153391
1223.153344
1223.148508
1223.148659
1223.148828
1223.148737
1223.14884
1223.148726
1223.148811
1223.148588
1223.148737
1223.148754
1223.148744
1223.14878
1223.148734
1223.148599
1223.148637
1223.145647
1223.145837
1223.145931
1223.145712
1223.145696
1223.145667
1223.145485
1223.145397
1223.145251
1223.145221
1223.145307
1223.145275
1223.145211
1223.145113
1223.145049
1223.149339
1223.149501
1223.149451
1223.149554
1223.149532
1223.149681
1223.149467
1223.149516
1223.149492
1223.149424
1223.149375
1223.149335
1223.149441
1223.14936
1223.149223
1223.150858
1223.150876
1223.150793
1223.1507
1223.150865
1223.150789
1223.150751
1223.150727
1223.150652
1223.150529
1223.150571
1223.15055
1223.150638
1223.150749
1223.151693
1223.151629
1223.151686
1223.151481
1223.151427
1223.15149
1223.151591
1223.151415
1223.151486
1223.151624
1223.151662
1223.15179
1223.151728
1223.151852
1223.150284
1223.150202
1223.150157
1223.150137
1223.150277
1223.150125
1223.150332
1223.150359
1223.15045
1223.150465
1223.150655
1223.150663
1223.150523
1223.150551
1223.150382
1223.150252
1223.150307
1223.150595
1223.15063
1223.150549
1223.150464
1223.150458
1223.1505
1223.150463
1223.150639
1223.150522
1223.150596
1223.150599
1223.150514
1223.1468
1223.146822
1223.14693
1223.146958
1223.147039
1223.147162
1223.147344
1223.147142
1223.147077
1223.147202
1223.147094
1223.147026
1223.147029
1223.146998
1223.147219
1223.154959
1223.154983
1223.155047
1223.155075
1223.154964
1223.15476
1223.154741
1223.15474
1223.154907
1223.154885
1223.155034
1223.154984
1223.155026
1223.155085
1223.155019
1223.151156
1223.151225
1223.151299
1223.151296
1223.151233
1223.151218
1223.151266
1223.151312
1223.151015
1223.150974
1223.150945
1223.151042
1223.151219
1223.151198
1223.151008
1223.152134
1223.152194
1223.152365
1223.152264
1223.152322
1223.152472
1223.152437
1223.152366
1223.152485
1223.152473
1223.152547
1223.152465
1223.152412
1223.152318
1223.152401
1223.150428
1223.150504
1223.150414
1223.150366
1223.150363
1223.150354
1223.150332
1223.15047
1223.150584
1223.150457
1223.150574
1223.150478
1223.150577
1223.150661
1223.15073
1223.149691
1223.149665
1223.149829
1223.149827
1223.149772
1223.149884
1223.149877
1223.150049
1223.149978
1223.149952
1223.150091
1223.149987
1223.150067
1223.150203
1223.150213
1223.151799
1223.151729
1223.151736
1223.151827
1223.151935
1223.151834
1223.151748
1223.151615
1223.151635
1223.151793
1223.151807
1223.151949
1223.151884
1223.151931
1223.148441
1223.148325
1223.148369
1223.148535
1223.148546
1223.148589
1223.148684
1223.148711
1223.148803
1223.148759
1223.148716
1223.148597
1223.148666
1223.148699
1223.149793
1223.150037
1223.149954
1223.149906
1223.14993
1223.149734
1223.14989
1223.149844
1223.149796
1223.149798
1223.149802
1223.149807
1223.149812
1223.149623
1223.149699
1223.151787
1223.151729
1223.151668
1223.151704
1223.151644
1223.151673
1223.151573
1223.151588
1223.151775
1223.151508
1223.151646
1223.151721
1223.151832
1223.151787
1223.151829
1223.149195
1223.148992
1223.14923
1223.148905
1223.148981
1223.149023
1223.149134
1223.149241
1223.149275
1223.149222
1223.149067
1223.148899
1223.149013
1223.149018
1223.149106
1223.150434
1223.150497
1223.150598
1223.150618
1223.15069
1223.150775
1223.150788
1223.150673
1223.150801
1223.151095
1223.150977
1223.150904
1223.150905
1223.15078
1223.150724
1223.148962
1223.148884
1223.148968
1223.148958
1223.148979
1223.149111
1223.149054
1223.149176
1223.149133
1223.149188
1223.149032
1223.149233
1223.14923
1223.149281
1223.149315
1223.151051
1223.151129
1223.151374
1223.151288
1223.151278
1223.151391
1223.151315
1223.151207
1223.151187
1223.151227
1223.15122
1223.151375
1223.15136
1223.151263
1223.151245
1223.145448
1223.145485
1223.145444
1223.145399
1223.145451
1223.145634
1223.145554
1223.145581
1223.14574
1223.145753
1223.145749
1223.145753
1223.145732
1223.145817
1223.145786
1223.142607
1223.142725
1223.1426
1223.142514
1223.142505
1223.142403
1223.142321
1223.14241
1223.142481
1223.14251
1223.142402
1223.142616
1223.142766
1223.142688
1223.142643
1223.149494
1223.149531
1223.149582
1223.14959
1223.14959
1223.14967
1223.149719
1223.149788
1223.149929
1223.149961
1223.149855
1223.149949
1223.149842
1223.149961
1223.147783
1223.147748
1223.147738
1223.147867
1223.147726
1223.147854
1223.147916
1223.147873
1223.147846
1223.147719
1223.147835
1223.147763
1223.147708
1223.147636
1223.147594
1223.153119
1223.153241
1223.153158
1223.153023
1223.153085
1223.153051
1223.153133
1223.153183
1223.153359
1223.153323
1223.153399
1223.153381
1223.153395
1223.153521
1223.153504
1223.152488
1223.152699
1223.152737
1223.15273
1223.152789
1223.152777
1223.152771
1223.152783
1223.152779
1223.152929
1223.152919
1223.15292
1223.152982
1223.153022
1223.153067
1223.151354
1223.151446
1223.151504
1223.151441
1223.151428
1223.151432
1223.151528
1223.151456
1223.151454
1223.15145
1223.151288
1223.15117
1223.151286
1223.151325
1223.15133
1223.148111
1223.148261
1223.148303
1223.148186
1223.148424
1223.148419
1223.148569
1223.148475
1223.148582
1223.148571
1223.148407
1223.148576
1223.148741
1223.148691
1223.148767
1223.150447
1223.150485
1223.150465
1223.150527
1223.150613
1223.150605
1223.150562
1223.150433
1223.150484
1223.150572
1223.150613
1223.150451
1223.150338
1223.150259
1223.150398
1223.151752
1223.151776
1223.151731
1223.151741
1223.151749
1223.151731
1223.151882
1223.152038
1223.152145
1223.152095
1223.152081
1223.152174
1223.152283
1223.152288
1223.15239
1223.151065
1223.151036
1223.151029
1223.151078
1223.151142
1223.151157
1223.151193
1223.151386
1223.151369
1223.151332
1223.151395
1223.151539
1223.151673
1223.151623
1223.151607
1223.150292
1223.150198
1223.150321
1223.150197
1223.150138
1223.15013
1223.150173
1223.150121
1223.150051
1223.150082
1223.150141
1223.150018
1223.149977
1223.150003
1223.149985
)
;

boundaryField
{
    top
    {
        type            zeroGradient;
    }
    bottom
    {
        type            zeroGradient;
    }
    side-walls
    {
        type            zeroGradient;
    }
    inlet
    {
        type            zeroGradient;
    }
    outlet
    {
        type            zeroGradient;
    }
    procBoundary1to0
    {
        type            processor;
        value           nonuniform List<scalar> 
97
(
1223.149463
1223.149463
1223.15599
1223.150056
1223.150368
1223.148345
1223.150049
1223.152483
1223.1466
1223.149271
1223.149373
1223.144901
1223.144901
1223.144901
1223.146985
1223.148256
1223.159156
1223.148685
1223.150469
1223.150708
1223.15066
1223.151232
1223.156752
1223.148674
1223.148674
1223.148674
1223.154893
1223.153871
1223.146907
1223.154681
1223.149175
1223.149562
1223.149889
1223.14906
1223.148777
1223.155541
1223.155541
1223.155541
1223.141527
1223.149997
1223.149463
1223.153759
1223.150193
1223.14936
1223.150451
1223.151422
1223.148852
1215.713232
1215.713232
1215.713232
1223.140862
1223.140862
1223.154013
1223.146681
1223.150251
1223.154026
1223.15036
1223.153311
1223.148328
1223.152264
1223.149011
1223.150877
1223.150877
1223.150877
1223.151829
1223.150146
1223.150427
1223.146679
1223.155051
1223.151056
1223.151938
1223.150447
1223.149702
1223.151679
1223.151679
1223.151679
1223.148518
1223.149919
1223.151963
1223.149343
1223.150612
1223.149107
1223.151313
1223.145385
1223.142669
1223.149456
1223.149456
1223.149456
1223.147655
1223.153278
1223.152414
1223.15126
1223.148037
1223.150298
1223.152031
1223.151135
1223.150363
)
;
    }
}


// ************************************************************************* //
