/*--------------------------------*- C++ -*----------------------------------*\
| =========                 |                                                 |
| \\      /  F ield         | OpenFOAM: The Open Source CFD Toolbox           |
|  \\    /   O peration     | Version:  4.x                                   |
|   \\  /    A nd           | Web:      www.OpenFOAM.org                      |
|    \\/     M anipulation  |                                                 |
\*---------------------------------------------------------------------------*/
FoamFile
{
    version     2.0;
    format      ascii;
    class       volScalarField;
    location    "4000";
    object      X_CO2;
}
// * * * * * * * * * * * * * * * * * * * * * * * * * * * * * * * * * * * * * //

dimensions      [0 0 0 0 0 0 0];

internalField   nonuniform List<scalar> 
1174
(
3.844204338e-06
6.713746779e-06
1.076675259e-05
1.605444288e-05
2.252097521e-05
3.002391892e-05
3.836365459e-05
4.731306272e-05
5.664198209e-05
6.61334675e-05
7.55870257e-05
8.478927074e-05
9.336270957e-05
0.0001001008828
6.540206505e-06
1.114204984e-05
1.72712939e-05
2.478640571e-05
3.342873187e-05
4.288453728e-05
5.283534947e-05
6.299115351e-05
7.310739853e-05
8.298919827e-05
9.248269954e-05
0.000101439026
0.0001095719499
0.0001158512958
1.249727179e-05
2.063543981e-05
3.070639435e-05
4.214280184e-05
5.433048603e-05
6.671791119e-05
7.88682565e-05
9.047046642e-05
0.0001013268123
0.0001113298443
0.0001204337994
0.0001286109497
0.0001357301273
0.0001410626981
2.122929095e-05
3.387680868e-05
4.839836899e-05
6.373212466e-05
7.899307265e-05
9.354538324e-05
0.0001069915978
0.0001191270421
0.0001298870809
0.0001392997027
0.0001474456942
0.0001544167229
0.0001602234844
0.0001644288464
2.746726317e-05
4.259172711e-05
5.909243913e-05
7.580726731e-05
9.189532918e-05
0.0001068195139
0.0001202874412
0.0001321863314
0.0001425255684
0.0001513908195
0.000158907942
0.0001652072231
0.0001703477224
0.0001740089086
2.122900844e-05
3.387639739e-05
4.839779857e-05
6.373136622e-05
7.899209266e-05
9.354419226e-05
0.0001069901746
0.0001191253755
0.0001298851793
0.0001392975765
0.0001474433695
0.0001544142094
0.0001602208029
0.0001644259647
1.249692714e-05
2.063498284e-05
3.070578753e-05
4.214197529e-05
5.432938319e-05
6.671646126e-05
7.886640384e-05
9.046819035e-05
0.0001013241189
0.0001113267139
0.0001204302608
0.0001286070031
0.0001357258207
0.0001410580557
6.539867924e-06
1.114164124e-05
1.727077538e-05
2.478570651e-05
3.342776905e-05
4.288322353e-05
5.283360782e-05
6.298892456e-05
7.310465264e-05
8.298590088e-05
9.247884277e-05
0.0001014345958
0.0001095669696
0.0001158458328
3.843968641e-06
6.713502129e-06
1.076645077e-05
1.605401559e-05
2.252034007e-05
3.002297945e-05
3.836232075e-05
4.731124126e-05
5.663959868e-05
6.613045732e-05
7.558335533e-05
8.478490286e-05
9.33576273e-05
0.0001000950733
3.433652926e-06
6.539951788e-06
1.114179682e-05
1.727103701e-05
2.478613968e-05
3.342846243e-05
4.28842493e-05
5.283505069e-05
6.299084708e-05
7.3107095e-05
8.298889187e-05
9.248240095e-05
0.0001014387266
0.0001095716585
0.0001158510157
1.262100054e-05
2.07055515e-05
3.056514259e-05
4.160760596e-05
5.323814091e-05
6.495570374e-05
7.638725823e-05
8.728362991e-05
9.749756361e-05
0.0001069565197
0.000115633829
0.0001235064257
0.0001304347502
0.000135670932
2.792560532e-05
4.364137275e-05
6.072519775e-05
7.773159665e-05
9.367016434e-05
0.0001080008999
0.0001205276378
0.0001312762783
0.0001403947204
0.0001480829287
0.0001545476717
0.0001599675445
0.0001644256041
0.0001676346184
5.513725727e-05
8.127966336e-05
0.0001061413499
0.0001278625171
0.0001457936305
0.0001600200745
0.0001709837822
0.0001792441963
0.0001853507055
0.0001897858954
0.0001929483978
0.0001951549954
0.000196644386
0.0001975409075
8.082492221e-05
0.0001122873024
0.0001389481396
0.0001601060045
0.0001761779932
0.000187979305
0.0001963777616
0.0002021522321
0.0002059492376
0.0002082833488
0.0002095547968
0.0002100743288
0.0002100982909
0.0002098965255
5.513607727e-05
8.127822611e-05
0.0001061396462
0.0001278605287
0.0001457913343
0.0001600175227
0.0001709809828
0.0001792411809
0.0001853475315
0.0001897825243
0.0001929449144
0.0001951513915
0.0001966406818
0.0001975371241
2.792447704e-05
4.364015388e-05
6.07237548e-05
7.77297741e-05
9.366787567e-05
0.0001079981039
0.0001205242996
0.0001312724219
0.0001403903896
0.0001480781555
0.0001545425113
0.0001599620698
0.0001644198398
0.000167628573
1.262030725e-05
2.070490359e-05
3.056434616e-05
4.160650432e-05
5.323659442e-05
6.495360717e-05
7.638454253e-05
8.728026192e-05
9.749354492e-05
0.0001069518575
0.0001156285521
0.0001235005886
0.0001304283694
0.0001356640257
6.539899062e-06
1.114165143e-05
1.727073101e-05
2.478557379e-05
3.342751233e-05
4.288280476e-05
5.283300471e-05
6.29881089e-05
7.310360861e-05
8.298464789e-05
9.247736167e-05
0.0001014329181
0.0001095650677
0.0001158436369
6.646513152e-06
1.249668767e-05
2.06348212e-05
3.070575654e-05
4.214214645e-05
5.43298265e-05
6.671724395e-05
7.886757197e-05
9.046977463e-05
0.0001013261286
0.0001113291665
0.0001204331259
0.0001286102954
0.0001357295043
0.0001410620788
1.523686489e-05
2.792484792e-05
4.364073158e-05
6.072463203e-05
7.773106587e-05
9.366966945e-05
0.0001080004272
0.0001205271606
0.0001312757851
0.0001403942496
0.0001480824563
0.0001545472189
0.0001599671197
0.0001644251936
0.0001676341933
7.315546288e-05
0.0001063257723
0.0001363667565
0.0001610044466
0.0001797690285
0.0001931999294
0.0002022496226
0.0002079308984
0.0002111468787
0.0002126320426
0.0002129516223
0.0002125304326
0.0002117082782
0.0002108723597
0.0001738025478
0.0002298561489
0.0002685346125
0.0002913902825
0.0003021543005
0.0003045921391
0.000301743964
0.0002958135424
0.0002882962493
0.0002801592451
0.0002720066201
0.0002642259395
0.0002571851896
0.0002517917627
0.0003057036871
0.0003615173758
0.0003855217763
0.0003897959654
0.0003829794802
0.0003705168709
0.0003556373031
0.000340179412
0.0003251468627
0.0003110538862
0.0002981395505
0.000286521935
0.0002764170461
0.0002688593931
0.0001737971861
0.000229850943
0.0002685293559
0.0002913848425
0.0003021487079
0.0003045864647
0.0003017382329
0.0002958078277
0.000288290606
0.0002801536792
0.0002720011661
0.0002642205912
0.0002571799307
0.0002517864924
7.315184751e-05
0.0001063225833
0.000136363179
0.0001610001563
0.0001797638769
0.0001931939667
0.0002022430116
0.0002079237459
0.0002111393253
0.0002126242001
0.0002129435619
0.0002125222615
0.0002116999955
0.0002108639148
2.792451748e-05
4.363998523e-05
6.072325919e-05
7.772888536e-05
9.366656955e-05
0.0001079963588
0.0001205221669
0.0001312699322
0.0001403875933
0.0001480751128
0.0001545392749
0.0001599586544
0.0001644162543
0.000167624839
1.249697056e-05
2.063488488e-05
3.07054208e-05
4.214122804e-05
5.432815511e-05
6.671468814e-05
7.886406962e-05
9.046528137e-05
0.0001013206302
0.0001113227088
0.0001204257609
0.0001286020633
0.0001357204591
0.0001410522075
1.147405048e-05
2.12282302e-05
3.387559003e-05
4.839703873e-05
6.373071277e-05
7.899161533e-05
9.354391932e-05
0.0001069901418
0.0001191255974
0.0001298856596
0.0001392983191
0.0001474443437
0.000154415449
0.0001602222504
0.0001644276186
3.109253781e-05
5.513523262e-05
8.127760029e-05
0.0001061393379
0.0001278605835
0.0001457917692
0.0001600183258
0.0001709821116
0.0001792426351
0.0001853492598
0.0001897845061
0.0001929471143
0.0001951537714
0.0001966432489
0.0001975398318
0.0001054247959
0.0001737985743
0.0002298529774
0.0002685320755
0.0002913881183
0.0003021525131
0.0003045905959
0.0003017426305
0.0002958123916
0.0002882952605
0.0002801583479
0.000272005797
0.0002642252121
0.0002571845383
0.0002517910969
0.0005190483756
0.0005897893508
0.0006016455898
0.0005815523142
0.0005471685165
0.0005084734387
0.000470532922
0.0004356105499
0.0004044893074
0.000377226634
0.0003535685405
0.0003332044387
0.0003160949099
0.0003035962596
0.001197201378
0.001109204919
0.0009735020082
0.0008432313275
0.0007324612434
0.0006420594014
0.0005691165695
0.0005101860049
0.0004622575298
0.0004229434349
0.0003904290193
0.0003634149556
0.0003412900076
0.0003253877027
0.0005190304828
0.0005897763494
0.0006016338711
0.0005815409085
0.000547157536
0.0005084629702
0.0004705230522
0.000435601241
0.0004044805303
0.0003772183978
0.0003535608027
0.0003331970698
0.0003160878947
0.0003035894324
0.0001737975687
0.0002298493992
0.0002685259143
0.0002913799191
0.000302142752
0.0003045798422
0.0003017313157
0.0002958008023
0.0002882835972
0.0002801467542
0.000271994381
0.0002642139588
0.0002571734682
0.0002517801007
5.513630387e-05
8.127747542e-05
0.0001061375936
0.0001278571133
0.0001457866567
0.0001600117469
0.0001709742588
0.0001792337404
0.0001853395335
0.00018977415
0.0001929362221
0.0001951424563
0.0001966315834
0.0001975278412
2.122914677e-05
3.387610487e-05
4.839678197e-05
6.372940554e-05
7.898905859e-05
9.354002272e-05
0.0001069849175
0.0001191190613
0.0001298778815
0.0001392894409
0.0001474345044
0.0001544046691
0.0001602106743
0.0001644152259
1.509820751e-05
2.746595923e-05
4.259016404e-05
5.909066972e-05
7.580535548e-05
9.189333484e-05
0.0001068174687
0.0001202853936
0.0001321842933
0.0001425235658
0.0001513888631
0.0001589060329
0.0001652053914
0.000170345933
0.0001740071487
4.765304808e-05
8.082214623e-05
0.0001122842642
0.000138945062
0.0001601029548
0.000176175105
0.0001879765629
0.0001963751847
0.0002021497997
0.0002059469293
0.000208281204
0.00020955282
0.0002100724588
0.00021009653
0.0002098948354
0.0002066923233
0.0003056977857
0.0003615116215
0.0003855166532
0.0003897915119
0.0003829757352
0.0003705135858
0.0003556344555
0.0003401769487
0.0003251446499
0.0003110519031
0.0002981377699
0.0002865203193
0.0002764155551
0.0002688579728
0.001076227843
0.001197183436
0.001109193676
0.0009734942765
0.0008432257439
0.0007324570851
0.0006420562739
0.0005691141297
0.0005101839661
0.0004622558045
0.0004229420273
0.0003904277563
0.0003634138313
0.0003412890025
0.0003253867538
0.004125900381
0.002637913065
0.001813760514
0.001331075192
0.001031998087
0.0008363096842
0.0007016712523
0.0006048382999
0.0005325233191
0.0004768184827
0.0004328411302
0.0003975398771
0.0003693365217
0.0003493753625
0.001197201335
0.001109186866
0.000973479453
0.0008432091377
0.0007324410224
0.0006420414092
0.0005691005721
0.0005101716932
0.0004622446283
0.000422931797
0.0003904182997
0.000363405093
0.0003412808329
0.0003253789387
0.0003057047153
0.0003615103487
0.0003855093406
0.0003897804036
0.0003829623987
0.0003704993143
0.0003556198046
0.0003401623867
0.000325130357
0.0003110379699
0.00029812429
0.000286507296
0.0002764028875
0.000268845523
8.082506129e-05
0.0001122848485
0.0001389429142
0.0001600982694
0.0001761682205
0.0001879679345
0.0001963652029
0.0002021387744
0.0002059351554
0.0002082688432
0.0002095400235
0.000210059393
0.0002100832347
0.0002098812829
2.746742809e-05
4.259100832e-05
5.909039252e-05
7.580363462e-05
9.189001701e-05
0.0001068125289
0.0001202788657
0.0001321762814
0.0001425142353
0.000151378369
0.0001588945077
0.0001651929821
0.0001703327757
0.0001739931839
1.1473992e-05
2.122796932e-05
3.387508749e-05
4.83962533e-05
6.372962458e-05
7.899021303e-05
9.354219818e-05
0.0001069881122
0.0001191232637
0.0001298830368
0.0001392954479
0.0001474412484
0.000154412121
0.0001602187289
0.0001644239575
3.109175638e-05
5.513381175e-05
8.12756346e-05
0.0001061368624
0.0001278576599
0.0001457884634
0.0001600146864
0.0001709782067
0.0001792384837
0.0001853449306
0.0001897800538
0.0001929425522
0.0001951491362
0.0001966385364
0.000197535057
0.0001054172299
0.0001737913508
0.0002298450808
0.0002685237861
0.0002913796768
0.0003021440132
0.0003045822031
0.0003017344042
0.0002958043487
0.0002882874839
0.0002801508129
0.0002719985
0.000264218137
0.0002571776643
0.0002517843717
0.0003605611407
0.0005190148746
0.0005897635948
0.0006016236862
0.0005815327965
0.0005471510258
0.000508457643
0.0004705186473
0.0004355975058
0.0004044773771
0.00037721562
0.0003535583438
0.0003331949207
0.0003160859655
0.0003035876533
0.001076224794
0.001197178149
0.001109171974
0.0009734693038
0.0008432018457
0.0007324356409
0.0006420372263
0.0005690972568
0.000510169057
0.00046224243
0.000422929901
0.0003904167236
0.0003634037284
0.000341279614
0.0003253778049
0.0003605661389
0.0005190138922
0.0005897570312
0.0006016134483
0.0005815208997
0.000547138602
0.0005084455602
0.0004705070075
0.0004355865901
0.0004044671756
0.0003772061153
0.0003535494387
0.0003331865457
0.0003160780166
0.000303579997
0.0001738020919
0.0002298474144
0.0002685201271
0.0002913719693
0.000302133641
0.0003045702849
0.0003017216547
0.0002957912783
0.0002882743223
0.0002801378197
0.0002719857542
0.0002642056773
0.0002571654492
0.0002517722213
5.513784403e-05
8.127752952e-05
0.0001061361552
0.0001278544043
0.0001457829489
0.0001600072611
0.000170969247
0.0001792283672
0.0001853338727
0.0001897682869
0.0001929302711
0.000195136457
0.0001966255507
0.0001975217264
2.122961096e-05
3.387622962e-05
4.839637381e-05
6.372837155e-05
7.898737906e-05
9.353773556e-05
0.0001069820399
0.0001191156912
0.0001298741061
0.0001392852985
0.0001474300239
0.0001543999583
0.0001602057713
0.0001644101297
6.646315575e-06
1.249621223e-05
2.063402259e-05
3.070458113e-05
4.214054701e-05
5.432776387e-05
6.671467505e-05
7.886449145e-05
9.046618776e-05
0.0001013220265
0.0001113245675
0.0001204280886
0.0001286048464
0.0001357236506
0.0001410558877
1.523551303e-05
2.792303033e-05
4.363834001e-05
6.072165941e-05
7.772747297e-05
9.366543714e-05
0.0001079955729
0.0001205217439
0.0001312698591
0.000140387846
0.0001480756573
0.0001545400728
0.0001599596874
0.0001644175049
0.0001676262425
4.153318039e-05
7.314849386e-05
0.0001063187977
0.0001363592087
0.0001609961522
0.000179759995
0.00019319027
0.0002022394821
0.0002079204136
0.000211136186
0.0002126212578
0.0002129408084
0.0002125196354
0.0002116975116
0.0002108615096
0.0001054172496
0.0001737899322
0.0002298417862
0.000268518827
0.0002913735373
0.0003021370767
0.0003045748262
0.0003017268209
0.0002957968447
0.0002882800497
0.000280143568
0.0002719914513
0.0002642113031
0.000257171009
0.0002517778182
0.0002066922553
0.0003056919605
0.000361499542
0.0003855004667
0.0003897731624
0.0003829565153
0.000370494416
0.0003556157074
0.0003401588752
0.0003251273175
0.0003110353397
0.0002981219451
0.0002865051869
0.0002764010026
0.0002688437714
0.0001054167732
0.0001737882861
0.000229838512
0.0002685139842
0.0002913675124
0.0003021302573
0.0003045675965
0.0003017194479
0.0002957894028
0.0002882727374
0.0002801364071
0.0002719845093
0.0002642045658
0.0002571644692
0.0002517713391
4.153561613e-05
7.315025048e-05
0.0001063186264
0.0001363567558
0.0001609915829
0.0001797536502
0.0001931825765
0.0002022308244
0.0002079111089
0.000211126423
0.0002126111961
0.0002129306226
0.0002125093669
0.0002116872019
0.0002108511471
2.792558651e-05
4.363962324e-05
6.072144274e-05
7.772563956e-05
9.36619938e-05
0.0001079906419
0.0001205154661
0.0001312624229
0.0001403794127
0.000148066374
0.0001545300862
0.0001599491035
0.0001644064459
0.0001676147594
1.249746918e-05
2.063496587e-05
3.070485889e-05
4.213985866e-05
5.432590445e-05
6.671152933e-05
7.886000929e-05
9.046036616e-05
0.0001013149328
0.0001113162939
0.0001204187138
0.000128594476
0.0001357123837
0.0001410437172
3.433357374e-06
6.539466201e-06
1.114106877e-05
1.727001604e-05
2.478475436e-05
3.342663274e-05
4.28819043e-05
5.283213039e-05
6.298730121e-05
7.310290225e-05
8.298405148e-05
9.247691054e-05
0.0001014326095
0.0001095649471
0.0001158437645
6.730729804e-06
1.261955733e-05
2.070388414e-05
3.056307246e-05
4.160499098e-05
5.323487801e-05
6.495173474e-05
7.638254099e-05
8.727815212e-05
9.749138233e-05
0.0001069496508
0.0001156263141
0.000123498312
0.000130426098
0.0001356617664
1.523553278e-05
2.79229118e-05
4.363795137e-05
6.072091098e-05
7.772629667e-05
9.366381788e-05
0.000107993533
0.0001205193044
0.0001312670738
0.0001403847813
0.0001480723588
0.0001545365879
0.0001599560144
0.0001644136943
0.0001676223375
3.109176757e-05
5.513310498e-05
8.127376049e-05
0.0001061336185
0.0001278530611
0.0001457826578
0.0001600078837
0.0001709705913
0.0001792302396
0.0001853362127
0.0001897710337
0.0001929332992
0.0001951396879
0.0001966289768
0.0001975253552
4.76529775e-05
8.082017836e-05
0.0001122796948
0.0001389378664
0.0001600934712
0.0001761637725
0.0001879638429
0.0001963614599
0.0002021353415
0.0002059320074
0.0002082659659
0.000209537352
0.0002100569007
0.000210080919
0.0002098790871
3.109146479e-05
5.513241951e-05
8.127248892e-05
0.0001061316721
0.0001278504517
0.0001457794424
0.0001600041777
0.0001709664892
0.0001792258504
0.000185331615
0.0001897662526
0.0001929283983
0.0001951347363
0.0001966239406
0.0001975202373
1.523567323e-05
2.792291813e-05
4.363741154e-05
6.071951686e-05
7.772392516e-05
9.366044981e-05
0.0001079892478
0.0001205141865
0.0001312612415
0.000140378328
0.0001480653974
0.0001545291901
0.0001599482851
0.0001644056664
0.0001676140331
6.731225642e-06
1.262007281e-05
2.070408949e-05
3.05626846e-05
4.160379979e-05
5.323276862e-05
6.494863926e-05
7.637845272e-05
8.727311821e-05
9.748542228e-05
0.0001069428397
0.0001156187281
0.000123490023
0.0001304171711
0.0001356522891
6.540186181e-06
1.11415704e-05
1.727014007e-05
2.478431493e-05
3.342545214e-05
4.287984375e-05
5.282908992e-05
6.298320756e-05
7.309772571e-05
8.297781332e-05
9.246962299e-05
0.0001014243147
0.0001095556924
0.0001158335901
1.998753502e-06
3.843707061e-06
6.713115138e-06
1.076591286e-05
1.605331032e-05
2.251945445e-05
3.002191416e-05
3.836108135e-05
4.730983637e-05
5.663805008e-05
6.612878333e-05
7.558157095e-05
8.478303121e-05
9.33556855e-05
0.0001000930745
3.433373516e-06
6.539470251e-06
1.114103575e-05
1.726991406e-05
2.478454688e-05
3.342628185e-05
4.288138581e-05
5.283141872e-05
6.298637189e-05
7.310176412e-05
8.298269544e-05
9.247534597e-05
0.0001014308284
0.0001095629254
0.0001158414603
6.646339199e-06
1.249614388e-05
2.063375266e-05
3.070399245e-05
4.213952525e-05
5.432622349e-05
6.671257257e-05
7.886180767e-05
9.046292548e-05
0.0001013182112
0.0001113202541
0.0001204232968
0.0001285996118
0.0001357180089
0.0001410497845
1.14739974e-05
2.122765712e-05
3.387416991e-05
4.839447308e-05
6.372680859e-05
7.898626479e-05
9.353710591e-05
0.0001069819338
0.0001191160776
0.0001298749409
0.000139286561
0.000147431695
0.0001544019512
0.0001602080279
0.0001644126566
1.509818409e-05
2.746528938e-05
4.258837723e-05
5.908743207e-05
7.580046152e-05
9.188675395e-05
0.000106809252
0.0001202756552
0.00013217319
0.0001425112619
0.0001513755531
0.0001588918139
0.0001651904187
0.0001703303245
0.000173990824
1.147385841e-05
2.12273632e-05
3.38736218e-05
4.839358595e-05
6.372551816e-05
7.898455857e-05
9.353498202e-05
0.0001069794183
0.0001191131959
0.0001298717257
0.0001392830444
0.0001474279274
0.0001543979964
0.0001602039167
0.0001644083617
6.646279985e-06
1.249598765e-05
2.0633354e-05
3.070319287e-05
4.21381902e-05
5.432426016e-05
6.670993057e-05
7.88584745e-05
9.045890559e-05
0.0001013135641
0.0001113150067
0.0001204174972
0.0001285933322
0.0001357113019
0.0001410426859
3.433422828e-06
6.539523895e-06
1.114096532e-05
1.726956076e-05
2.478375256e-05
3.342490662e-05
4.287931996e-05
5.282857976e-05
6.298272845e-05
7.309728146e-05
8.297738272e-05
9.24692125e-05
0.0001014239297
0.0001095553171
0.0001158332453
1.998896457e-06
3.843902669e-06
6.713261077e-06
1.076588161e-05
1.605294982e-05
2.251861006e-05
3.002043241e-05
3.835883419e-05
4.730671876e-05
5.663397743e-05
6.612371483e-05
7.557548948e-05
8.47759318e-05
9.334759575e-05
0.0001000840275
)
;

boundaryField
{
    top
    {
        type            calculated;
        value           nonuniform List<scalar> 
127
(
1.998896457e-06
3.843968641e-06
6.539899062e-06
1.249697056e-05
2.122914677e-05
2.746742809e-05
2.122961096e-05
1.249746918e-05
6.540186181e-06
3.843902669e-06
6.713502129e-06
1.114165143e-05
2.063488488e-05
3.387610487e-05
4.259100832e-05
3.387622962e-05
2.063496587e-05
1.11415704e-05
6.713261077e-06
1.076645077e-05
1.727073101e-05
3.07054208e-05
4.839678197e-05
5.909039252e-05
4.839637381e-05
3.070485889e-05
1.727014007e-05
1.076588161e-05
1.605401559e-05
2.478557379e-05
4.214122804e-05
6.372940554e-05
7.580363462e-05
6.372837155e-05
4.213985866e-05
2.478431493e-05
1.605294982e-05
2.252034007e-05
3.342751233e-05
5.432815511e-05
7.898905859e-05
9.189001701e-05
7.898737906e-05
5.432590445e-05
3.342545214e-05
2.251861006e-05
3.002297945e-05
4.288280476e-05
6.671468814e-05
9.354002272e-05
0.0001068125289
9.353773556e-05
6.671152933e-05
4.287984375e-05
3.002043241e-05
3.836232075e-05
5.283300471e-05
7.886406962e-05
0.0001069849175
0.0001202788657
0.0001069820399
7.886000929e-05
5.282908992e-05
3.835883419e-05
4.731124126e-05
6.29881089e-05
9.046528137e-05
0.0001191190613
0.0001321762814
0.0001191156912
9.046036616e-05
6.298320756e-05
4.730671876e-05
5.663959868e-05
7.310360861e-05
0.0001013206302
0.0001298778815
0.0001425142353
0.0001298741061
0.0001013149328
7.309772571e-05
5.663397743e-05
6.613045732e-05
8.298464789e-05
0.0001113227088
0.0001392894409
0.000151378369
0.0001392852985
0.0001113162939
8.297781332e-05
6.612371483e-05
7.558335533e-05
9.247736167e-05
0.0001204257609
0.0001474345044
0.0001588945077
0.0001474300239
0.0001204187138
9.246962299e-05
7.557548948e-05
8.478490286e-05
0.0001014329181
0.0001286020633
0.0001544046691
0.0001651929821
0.0001543999583
0.000128594476
0.0001014243147
8.47759318e-05
9.33576273e-05
0.0001095650677
0.0001357204591
0.0001602106743
0.0001703327757
0.0001602057713
0.0001357123837
0.0001095556924
9.334759575e-05
0.0001000950733
0.0001158436369
0.0001410522075
0.0001644152259
0.0001739931839
0.0001644101297
0.0001410437172
0.0001158335901
0.0001000840275
)
;
    }
    bottom
    {
        type            calculated;
        value           nonuniform List<scalar> 
134
(
3.433652926e-06
6.646513152e-06
1.147405048e-05
1.509820751e-05
1.1473992e-05
6.646315575e-06
3.433357374e-06
1.998753502e-06
3.844204338e-06
6.539951788e-06
1.249668767e-05
2.12282302e-05
2.746595923e-05
2.122796932e-05
1.249621223e-05
6.539466201e-06
3.843707061e-06
6.713746779e-06
1.114179682e-05
2.06348212e-05
3.387559003e-05
4.259016404e-05
3.387508749e-05
2.063402259e-05
1.114106877e-05
6.713115138e-06
1.076675259e-05
1.727103701e-05
3.070575654e-05
4.839703873e-05
5.909066972e-05
4.83962533e-05
3.070458113e-05
1.727001604e-05
1.076591286e-05
1.605444288e-05
2.478613968e-05
4.214214645e-05
6.373071277e-05
7.580535548e-05
6.372962458e-05
4.214054701e-05
2.478475436e-05
1.605331032e-05
2.252097521e-05
3.342846243e-05
5.43298265e-05
7.899161533e-05
9.189333484e-05
7.899021303e-05
5.432776387e-05
3.342663274e-05
2.251945445e-05
3.002391892e-05
4.28842493e-05
6.671724395e-05
9.354391932e-05
0.0001068174687
9.354219818e-05
6.671467505e-05
4.28819043e-05
3.002191416e-05
3.836365459e-05
5.283505069e-05
7.886757197e-05
0.0001069901418
0.0001202853936
0.0001069881122
7.886449145e-05
5.283213039e-05
3.836108135e-05
4.731306272e-05
6.299084708e-05
9.046977463e-05
0.0001191255974
0.0001321842933
0.0001191232637
9.046618776e-05
6.298730121e-05
4.730983637e-05
5.664198209e-05
7.3107095e-05
0.0001013261286
0.0001298856596
0.0001425235658
0.0001298830368
0.0001013220265
7.310290225e-05
5.663805008e-05
6.61334675e-05
8.298889187e-05
0.0001113291665
0.0001392983191
0.0001513888631
0.0001392954479
0.0001113245675
8.298405148e-05
6.612878333e-05
7.55870257e-05
9.248240095e-05
0.0001204331259
0.0001474443437
0.0001589060329
0.0001474412484
0.0001204280886
9.247691054e-05
7.558157095e-05
8.478927074e-05
0.0001014387266
0.0001286102954
0.000154415449
0.0001652053914
0.000154412121
0.0001286048464
0.0001014326095
8.478303121e-05
9.336270957e-05
0.0001095716585
0.0001357295043
0.0001602222504
0.000170345933
0.0001602187289
0.0001357236506
0.0001095649471
9.33556855e-05
0.0001001008828
0.0001158510157
0.0001410620788
0.0001644276186
0.0001740071487
0.0001644239575
0.0001410558877
0.0001158437645
0.0001000930745
)
;
    }
    side-walls
    {
        type            calculated;
        value           nonuniform List<scalar> 
261
(
3.844204338e-06
6.540206505e-06
1.249727179e-05
2.122929095e-05
2.746726317e-05
2.122900844e-05
1.249692714e-05
6.539867924e-06
3.843968641e-06
6.713746779e-06
1.114204984e-05
2.063543981e-05
3.387680868e-05
4.259172711e-05
3.387639739e-05
2.063498284e-05
1.114164124e-05
6.713502129e-06
1.076675259e-05
1.72712939e-05
3.070639435e-05
4.839836899e-05
5.909243913e-05
4.839779857e-05
3.070578753e-05
1.727077538e-05
1.076645077e-05
1.605444288e-05
2.478640571e-05
4.214280184e-05
6.373212466e-05
7.580726731e-05
6.373136622e-05
4.214197529e-05
2.478570651e-05
1.605401559e-05
2.252097521e-05
3.342873187e-05
5.433048603e-05
7.899307265e-05
9.189532918e-05
7.899209266e-05
5.432938319e-05
3.342776905e-05
2.252034007e-05
3.002391892e-05
4.288453728e-05
6.671791119e-05
9.354538324e-05
0.0001068195139
9.354419226e-05
6.671646126e-05
4.288322353e-05
3.002297945e-05
3.836365459e-05
5.283534947e-05
7.88682565e-05
0.0001069915978
0.0001202874412
0.0001069901746
7.886640384e-05
5.283360782e-05
3.836232075e-05
4.731306272e-05
6.299115351e-05
9.047046642e-05
0.0001191270421
0.0001321863314
0.0001191253755
9.046819035e-05
6.298892456e-05
4.731124126e-05
5.664198209e-05
7.310739853e-05
0.0001013268123
0.0001298870809
0.0001425255684
0.0001298851793
0.0001013241189
7.310465264e-05
5.663959868e-05
6.61334675e-05
8.298919827e-05
0.0001113298443
0.0001392997027
0.0001513908195
0.0001392975765
0.0001113267139
8.298590088e-05
6.613045732e-05
7.55870257e-05
9.248269954e-05
0.0001204337994
0.0001474456942
0.000158907942
0.0001474433695
0.0001204302608
9.247884277e-05
7.558335533e-05
8.478927074e-05
0.000101439026
0.0001286109497
0.0001544167229
0.0001652072231
0.0001544142094
0.0001286070031
0.0001014345958
8.478490286e-05
9.336270957e-05
0.0001095719499
0.0001357301273
0.0001602234844
0.0001703477224
0.0001602208029
0.0001357258207
0.0001095669696
9.33576273e-05
0.0001001008828
0.0001158512958
0.0001410626981
0.0001644288464
0.0001740089086
0.0001644259647
0.0001410580557
0.0001158458328
0.0001000950733
1.998753502e-06
3.433373516e-06
6.646339199e-06
1.14739974e-05
1.509818409e-05
1.147385841e-05
6.646279985e-06
3.433422828e-06
1.998896457e-06
3.843707061e-06
6.539470251e-06
1.249614388e-05
2.122765712e-05
2.746528938e-05
2.12273632e-05
1.249598765e-05
6.539523895e-06
3.843902669e-06
6.713115138e-06
1.114103575e-05
2.063375266e-05
3.387416991e-05
4.258837723e-05
3.38736218e-05
2.0633354e-05
1.114096532e-05
6.713261077e-06
1.076591286e-05
1.726991406e-05
3.070399245e-05
4.839447308e-05
5.908743207e-05
4.839358595e-05
3.070319287e-05
1.726956076e-05
1.076588161e-05
1.605331032e-05
2.478454688e-05
4.213952525e-05
6.372680859e-05
7.580046152e-05
6.372551816e-05
4.21381902e-05
2.478375256e-05
1.605294982e-05
2.251945445e-05
3.342628185e-05
5.432622349e-05
7.898626479e-05
9.188675395e-05
7.898455857e-05
5.432426016e-05
3.342490662e-05
2.251861006e-05
3.002191416e-05
4.288138581e-05
6.671257257e-05
9.353710591e-05
0.000106809252
9.353498202e-05
6.670993057e-05
4.287931996e-05
3.002043241e-05
3.836108135e-05
5.283141872e-05
7.886180767e-05
0.0001069819338
0.0001202756552
0.0001069794183
7.88584745e-05
5.282857976e-05
3.835883419e-05
4.730983637e-05
6.298637189e-05
9.046292548e-05
0.0001191160776
0.00013217319
0.0001191131959
9.045890559e-05
6.298272845e-05
4.730671876e-05
5.663805008e-05
7.310176412e-05
0.0001013182112
0.0001298749409
0.0001425112619
0.0001298717257
0.0001013135641
7.309728146e-05
5.663397743e-05
6.612878333e-05
8.298269544e-05
0.0001113202541
0.000139286561
0.0001513755531
0.0001392830444
0.0001113150067
8.297738272e-05
6.612371483e-05
7.558157095e-05
9.247534597e-05
0.0001204232968
0.000147431695
0.0001588918139
0.0001474279274
0.0001204174972
9.24692125e-05
7.557548948e-05
8.478303121e-05
0.0001014308284
0.0001285996118
0.0001544019512
0.0001651904187
0.0001543979964
0.0001285933322
0.0001014239297
8.47759318e-05
9.33556855e-05
0.0001095629254
0.0001357180089
0.0001602080279
0.0001703303245
0.0001602039167
0.0001357113019
0.0001095553171
9.334759575e-05
0.0001000930745
0.0001158414603
0.0001410497845
0.0001644126566
0.000173990824
0.0001644083617
0.0001410426859
0.0001158332453
0.0001000840275
)
;
    }
    inlet
    {
        type            calculated;
        value           nonuniform 0();
    }
    outlet
    {
        type            calculated;
        value           nonuniform List<scalar> 
81
(
0.0001001008828
0.0001158512958
0.0001410626981
0.0001644288464
0.0001740089086
0.0001644259647
0.0001410580557
0.0001158458328
0.0001000950733
0.0001158510157
0.000135670932
0.0001676346184
0.0001975409075
0.0002098965255
0.0001975371241
0.000167628573
0.0001356640257
0.0001158436369
0.0001410620788
0.0001676341933
0.0002108723597
0.0002517917627
0.0002688593931
0.0002517864924
0.0002108639148
0.000167624839
0.0001410522075
0.0001644276186
0.0001975398318
0.0002517910969
0.0003035962596
0.0003253877027
0.0003035894324
0.0002517801007
0.0001975278412
0.0001644152259
0.0001740071487
0.0002098948354
0.0002688579728
0.0003253867538
0.0003493753625
0.0003253789387
0.000268845523
0.0002098812829
0.0001739931839
0.0001644239575
0.000197535057
0.0002517843717
0.0003035876533
0.0003253778049
0.000303579997
0.0002517722213
0.0001975217264
0.0001644101297
0.0001410558877
0.0001676262425
0.0002108615096
0.0002517778182
0.0002688437714
0.0002517713391
0.0002108511471
0.0001676147594
0.0001410437172
0.0001158437645
0.0001356617664
0.0001676223375
0.0001975253552
0.0002098790871
0.0001975202373
0.0001676140331
0.0001356522891
0.0001158335901
0.0001000930745
0.0001158414603
0.0001410497845
0.0001644126566
0.000173990824
0.0001644083617
0.0001410426859
0.0001158332453
0.0001000840275
)
;
    }
    procBoundary1to0
    {
        type            processor;
        value           nonuniform List<scalar> 
97
(
1.998898883e-06
1.998898883e-06
3.433394796e-06
6.646093453e-06
1.14732954e-05
1.509706479e-05
1.147307257e-05
6.645806168e-06
3.433094211e-06
1.998604877e-06
1.59739478e-06
6.731261475e-06