/*--------------------------------*- C++ -*----------------------------------*\
| =========                 |                                                 |
| \\      /  F ield         | OpenFOAM: The Open Source CFD Toolbox           |
|  \\    /   O peration     | Version:  4.x                                   |
|   \\  /    A nd           | Web:      www.OpenFOAM.org                      |
|    \\/     M anipulation  |                                                 |
\*---------------------------------------------------------------------------*/
FoamFile
{
    version     2.0;
    format      ascii;
    class       volScalarField;
    location    "4000";
    object      X_CO;
}
// * * * * * * * * * * * * * * * * * * * * * * * * * * * * * * * * * * * * * //

dimensions      [0 0 0 0 0 0 0];

internalField   nonuniform List<scalar> 
1174
(
0.4000252894
0.4000224211
0.4000183699
0.4000130847
0.4000066213
0.3999991221
0.3999907867
0.3999818422
0.3999725187
0.399963033
0.3999535855
0.3999443895
0.3999358223
0.3999290891
0.4000225945
0.4000179946
0.400011868
0.4000043562
0.3999957179
0.3999862668
0.3999763211
0.3999661709
0.3999560607
0.3999461851
0.399936698
0.3999277481
0.3999196214
0.399913347
0.4000166398
0.4000085048
0.3999984378
0.3999870062
0.399974824
0.3999624425
0.3999502984
0.3999387027
0.399927853
0.3999178567
0.3999087593
0.3999005887
0.3998934756
0.3998881478
0.4000079107
0.3999952677
0.3999807516
0.3999654241
0.3999501698
0.3999356245
0.3999221854
0.399910057
0.399899304
0.3998898982
0.3998817588
0.3998747941
0.3998689933
0.3998647924
0.4000016745
0.3999865551
0.3999700605
0.3999533524
0.3999372715
0.3999223546
0.3999088939
0.3998970022
0.3998866699
0.3998778114
0.3998703008
0.3998640078
0.399858873
0.3998552161
0.4000079109
0.399995268
0.399980752
0.3999654245
0.3999501704
0.3999356252
0.3999221862
0.3999100579
0.399899305
0.3998898993
0.39988176
0.3998747954
0.3998689946
0.3998647938
0.40001664
0.4000085051
0.3999984382
0.3999870067
0.3999748246
0.3999624433
0.3999502994
0.3999387039
0.3999278544
0.3999178582
0.3999087611
0.3999005906
0.3998934777
0.3998881501
0.4000225948
0.4000179949
0.4000118684
0.4000043567
0.3999957185
0.3999862675
0.3999763221
0.3999661722
0.3999560621
0.3999461868
0.3999367
0.3999277503
0.3999196239
0.3999133497
0.4000252895
0.4000224213
0.4000183702
0.400013085
0.4000066217
0.3999991226
0.3999907875
0.3999818432
0.3999725199
0.3999630345
0.3999535874
0.3999443917
0.3999358248
0.3999290919
0.4000256996
0.4000225947
0.4000179948
0.4000118682
0.4000043564
0.3999957181
0.3999862669
0.3999763213
0.3999661711
0.3999560608
0.3999461853
0.3999366982
0.3999277483
0.3999196215
0.3999133471
0.4000165162
0.4000084347
0.399998579
0.3999875411
0.3999759159
0.399964204
0.3999527785
0.3999418884
0.3999316808
0.3999222283
0.3999135574
0.3999056912
0.3998987688
0.3998935373
0.400001217
0.3999855065
0.3999684289
0.3999514293
0.3999354977
0.3999211741
0.3999086543
0.3998979125
0.3998888006
0.3998811188
0.3998746602
0.3998692462
0.3998647936
0.3998615887
0.3999740131
0.3999478788
0.3999230258
0.3999013133
0.3998833904
0.3998691717
0.3998582152
0.3998499615
0.3998438612
0.3998394319
0.3998362748
0.3998340734
0.3998325887
0.3998316956
0.3999483309
0.3999168781
0.3998902268
0.3998690779
0.3998530141
0.3998412203
0.3998328287
0.3998270605
0.3998232693
0.3998209406
0.3998196742
0.3998191594
0.3998191398
0.3998193447
0.3999740139
0.3999478798
0.3999230269
0.3999013145
0.3998833918
0.3998691732
0.3998582168
0.3998499631
0.3998438628
0.3998394336
0.3998362766
0.3998340752
0.3998325905
0.3998316975
0.4000012177
0.3999855073
0.3999684298
0.3999514303
0.399935499
0.3999211756
0.3999086561
0.3998979145
0.3998888028
0.3998811212
0.3998746627
0.3998692489
0.3998647964
0.3998615916
0.4000165167
0.4000084351
0.3999985795
0.3999875418
0.3999759167
0.3999642051
0.3999527799
0.3999418901
0.3999316828
0.3999222306
0.39991356
0.399905694
0.3998987719
0.3998935406
0.4000225948
0.4000179949
0.4000118684
0.4000043568
0.3999957187
0.3999862677
0.3999763224
0.3999661725
0.3999560626
0.3999461874
0.3999367006
0.3999277511
0.3999196247
0.3999133507
0.400022488
0.4000166401
0.400008505
0.3999984381
0.3999870065
0.3999748243
0.3999624428
0.3999502987
0.3999387031
0.3999278533
0.399917857
0.3999087597
0.399900589
0.3998934759
0.3998881481
0.4000139012
0.4000012173
0.3999855068
0.3999684291
0.3999514295
0.3999354979
0.3999211742
0.3999086545
0.3998979127
0.3998888008
0.399881119
0.3998746604
0.3998692464
0.3998647938
0.3998615889
0.3999560013
0.3999228404
0.3998928093
0.3998681812
0.3998494254
0.3998360023
0.3998269596
0.3998212846
0.3998180742
0.3998165942
0.3998162794
0.3998167051
0.3998175313
0.3998183701
0.399855379
0.3997993404
0.3997606749
0.3997378297
0.399727074
0.3997246425
0.3997274957
0.3997334302
0.3997409509
0.399749091
0.3997572464
0.3997650297
0.3997720728
0.3997774678
0.3997235003
0.3996677033
0.3996437111
0.3996394452
0.3996462673
0.3996587339
0.3996736163
0.3996890765
0.3997041109
0.3997182057
0.3997311217
0.399742741
0.3997528475
0.3997604061
0.3998553825
0.3997993438
0.3997606782
0.399737833
0.3997270771
0.3997246456
0.3997274987
0.3997334331
0.3997409537
0.3997490937
0.399757249
0.3997650322
0.3997720753
0.3997774703
0.3999560036
0.3999228424
0.3998928115
0.3998681836
0.3998494282
0.3998360055
0.399826963
0.3998212882
0.399818078
0.3998165981
0.3998162833
0.399816709
0.3998175352
0.3998183741
0.4000012177
0.3999855074
0.39996843
0.3999514308
0.3999354997
0.3999211764
0.3999086571
0.3998979157
0.3998888041
0.3998811226
0.3998746643
0.3998692505
0.3998647981
0.3998615933
0.40001664
0.4000085051
0.3999984384
0.3999870071
0.3999748252
0.3999624442
0.3999503006
0.3999387053
0.3999278561
0.3999178602
0.3999087632
0.399900593
0.3998934802
0.3998881528
0.4000176621
0.4000079112
0.3999952683
0.3999807523
0.3999654248
0.3999501706
0.3999356253
0.3999221861
0.3999100578
0.3998993047
0.3998898989
0.3998817595
0.3998747948
0.3998689939
0.3998647931
0.3999980499
0.3999740141
0.3999478799
0.3999230269
0.3999013143
0.3998833915
0.3998691727
0.3998582162
0.3998499624
0.399843862
0.3998394326
0.3998362755
0.3998340741
0.3998325893
0.3998316962
0.3999237391
0.3998553808
0.399799342
0.3997606763
0.399737831
0.399727075
0.3997246433
0.3997274964
0.3997334308
0.3997409514
0.3997490914
0.3997572468
0.39976503
0.3997720731
0.3997774682
0.3995102073
0.3994394832
0.3994276369
0.3994477346
0.3994821195
0.3995208139
0.399558753
0.3995936738
0.3996247936
0.3996520551
0.3996757124
0.399696076
0.3997131853
0.3997256836
0.3988321516
0.3989201495
0.3990558442
0.3991861039
0.3992968634
0.3993872562
0.3994601917
0.3995191164
0.3995670402
0.3996063507
0.3996388625
0.3996658746
0.3996879981
0.3997038991
0.3995102186
0.3994394913
0.3994276437
0.3994477408
0.3994821252
0.3995208191
0.3995587578
0.3995936782
0.3996247977
0.3996520589
0.3996757159
0.3996960794
0.3997131885
0.3997256867
0.3998553823
0.3997993446
0.39976068
0.3997378355
0.3997270801
0.3997246488
0.3997275021
0.3997334365
0.3997409571
0.399749097
0.3997572522
0.3997650353
0.3997720783
0.3997774733
0.3999740138
0.3999478803
0.399923028
0.3999013162
0.3998833941
0.399869176
0.39985822
0.3998499667
0.3998438667
0.3998394375
0.3998362807
0.3998340794
0.3998325948
0.3998317018
0.4000079109
0.3999952682
0.3999807525
0.3999654255
0.3999501719
0.3999356272
0.3999221887
0.399910061
0.3998993085
0.3998899031
0.3998817642
0.3998747999
0.3998689993
0.3998647988
0.400014039
0.4000016751
0.399986556
0.3999700615
0.3999533535
0.3999372726
0.3999223557
0.399908895
0.3998970033
0.399886671
0.3998778125
0.3998703018
0.3998640087
0.3998588739
0.3998552171
0.3999814928
0.3999483323
0.3999168798
0.3998902285
0.3998690796
0.3998530158
0.3998412219
0.3998328301
0.3998270618
0.3998232706
0.3998209417
0.3998196752
0.3998191604
0.3998191407
0.3998193456
0.3998224867
0.3997235027
0.3996677062
0.3996437137
0.3996394475
0.3996462692
0.3996587355
0.3996736177
0.3996890777
0.399704112
0.3997182067
0.3997311226
0.3997427418
0.3997528482
0.3997604068
0.3989530902
0.3988321601
0.3989201551
0.3990558481
0.3991861067
0.3992968656
0.3993872579
0.399460193
0.3995191174
0.3995670411
0.3996063515
0.3996388632
0.3996658752
0.3996879986
0.3997038996
0.395903843
0.3973916529
0.3982157075
0.398698335
0.398997376
0.3991930406
0.3993276624
0.3994244836
0.39949679
0.3995524885
0.399596461
0.3996317587
0.3996599594
0.3996799183
0.3988321521
0.3989201604
0.3990558563
0.3991861152
0.3992968734
0.3993872649
0.3994601993
0.3995191231
0.3995670463
0.3996063562
0.3996388675
0.3996658791
0.3996880023
0.3997039032
0.3997235
0.3996677075
0.3996437177
0.3996394531
0.3996462757
0.3996587424
0.3996736247
0.3996890845
0.3997041187
0.3997182131
0.3997311288
0.3997427478
0.3997528541
0.3997604126
0.3999483312
0.3999168797
0.3998902297
0.399869082
0.3998530191
0.399841226
0.3998328349
0.3998270671
0.3998232761
0.3998209475
0.3998196812
0.3998191665
0.3998191469
0.3998193518
0.4000016745
0.3999865556
0.3999700617
0.3999533544
0.3999372742
0.399922358
0.3999088981
0.3998970071
0.3998866754
0.3998778174
0.3998703072
0.3998640145
0.39985888
0.3998552235
0.4000176622
0.4000079114
0.3999952686
0.3999807527
0.3999654254
0.3999501713
0.3999356262
0.3999221872
0.399910059
0.399899306
0.3998899003
0.399881761
0.3998747964
0.3998689956
0.3998647948
0.3999980504
0.399974015
0.3999478811
0.3999230283
0.399901316
0.3998833932
0.3998691746
0.3998582182
0.3998499645
0.3998438642
0.3998394348
0.3998362778
0.3998340763
0.3998325916
0.3998316985
0.3999237434
0.399855385
0.3997993466
0.399760681
0.3997378356
0.3997270795
0.3997246477
0.3997275007
0.3997334349
0.3997409553
0.3997490952
0.3997572504
0.3997650335
0.3997720764
0.3997774714
0.3996686481
0.3995102259
0.3994394977
0.3994276489
0.399447745
0.3994821285
0.3995208218
0.3995587601
0.3995936802
0.3996247994
0.3996520604
0.3996757172
0.3996960805
0.3997131895
0.3997256876
0.3989530914
0.398832163
0.3989201677
0.3990558616
0.399186119
0.3992968763
0.3993872672
0.3994602012
0.3995191246
0.3995670475
0.3996063572
0.3996388684
0.3996658799
0.399688003
0.3997039038
0.3996686457
0.3995102271
0.3994395014
0.3994276541
0.3994477507
0.3994821344
0.3995208275
0.3995587654
0.3995936852
0.399624804
0.3996520647
0.3996757213
0.3996960843
0.3997131931
0.3997256911
0.3998553795
0.3997993454
0.3997606827
0.3997378392
0.3997270843
0.3997246533
0.3997275066
0.3997334409
0.3997409614
0.3997491011
0.3997572562
0.3997650392
0.399772082
0.399777477
0.399974013
0.3999478801
0.3999230286
0.3999013175
0.3998833958
0.3998691781
0.3998582223
0.3998499692
0.3998438693
0.3998394403
0.3998362834
0.3998340822
0.3998325976
0.3998317046
0.4000079106
0.3999952681
0.3999807527
0.399965426
0.3999501727
0.3999356283
0.39992219
0.3999100625
0.3998993102
0.399889905
0.3998817662
0.3998748021
0.3998690016
0.3998648012
0.4000224881
0.4000166404
0.4000085055
0.3999984388
0.3999870074
0.3999748254
0.3999624442
0.3999503004
0.3999387049
0.3999278555
0.3999178593
0.3999087622
0.3999005917
0.3998934788
0.3998881512
0.400013902
0.4000012184
0.3999855082
0.3999684308
0.3999514315
0.3999355002
0.3999211768
0.3999086573
0.3998979157
0.3998888041
0.3998811224
0.399874664
0.3998692501
0.3998647975
0.3998615927
0.3999876122
0.3999560051
0.3999228443
0.3998928134
0.3998681856
0.3998494301
0.3998360073
0.3998269647
0.3998212898
0.3998180795
0.3998165995
0.3998162847
0.3998167103
0.3998175365
0.3998183753
0.3999237435
0.3998553859
0.3997993484
0.3997606836
0.3997378387
0.3997270829
0.3997246513
0.3997275043
0.3997334385
0.3997409589
0.3997490986
0.3997572537
0.3997650367
0.3997720796
0.3997774745
0.3998224868
0.3997235061
0.3996677128
0.3996437221
0.3996394567
0.3996462787
0.3996587448
0.3996736268
0.3996890863
0.3997041203
0.3997182145
0.39973113
0.3997427489
0.399752855
0.3997604135
0.3999237438
0.3998553868
0.3997993501
0.3997606859
0.3997378415
0.3997270861
0.3997246546
0.3997275077
0.3997334419
0.3997409622
0.3997491018
0.3997572569
0.3997650397
0.3997720825
0.3997774774
0.3999876109
0.3999560042
0.3999228443
0.3998928146
0.3998681877
0.399849433
0.3998360109
0.3998269688
0.3998212941
0.399818084
0.3998166041
0.3998162894
0.399816715
0.3998175412
0.39981838
0.400001217
0.3999855075
0.3999684308
0.3999514323
0.3999355018
0.3999211791
0.3999086602
0.3998979191
0.399888808
0.3998811267
0.3998746685
0.3998692549
0.3998648026
0.399861598
0.4000166397
0.4000085051
0.3999984386
0.3999870077
0.3999748263
0.3999624456
0.3999503024
0.3999387076
0.3999278587
0.3999178631
0.3999087665
0.3999005965
0.399893484
0.3998881567
0.4000256998
0.400022595
0.4000179952
0.4000118687
0.4000043572
0.3999957191
0.3999862682
0.3999763228
0.3999661729
0.399956063
0.3999461877
0.3999367009
0.3999277513
0.3999196248
0.3999133507
0.4000224038
0.400016517
0.4000084356
0.3999985801
0.3999875426
0.3999759176
0.3999642061
0.3999527809
0.3999418911
0.3999316839
0.3999222317
0.3999135611
0.3999056951
0.399898773
0.3998935417
0.4000139019
0.4000012185
0.3999855084
0.3999684312
0.3999514321
0.399935501
0.3999211778
0.3999086585
0.3998979171
0.3998888055
0.399881124
0.3998746656
0.3998692518
0.3998647993
0.3998615946
0.3999980504
0.3999740154
0.3999478821
0.39992303
0.3999013183
0.3998833961
0.3998691779
0.3998582219
0.3998499684
0.3998438683
0.3998394391
0.3998362822
0.3998340808
0.3998325961
0.3998317031
0.3999814929
0.3999483335
0.3999168822
0.3998902322
0.3998690844
0.3998530213
0.3998412281
0.3998328368
0.3998270688
0.3998232777
0.399820949
0.3998196826
0.3998191678
0.399819148
0.3998193529
0.3999980506
0.3999740157
0.3999478827
0.3999230309
0.3999013195
0.3998833976
0.3998691796
0.3998582237
0.3998499704
0.3998438704
0.3998394413
0.3998362844
0.3998340831
0.3998325984
0.3998317054
0.4000139019
0.4000012185
0.3999855087
0.3999684319
0.3999514332
0.3999355026
0.3999211798
0.3999086609
0.3998979198
0.3998888085
0.3998811272
0.399874669
0.3998692554
0.399864803
0.3998615984
0.4000224035
0.4000165168
0.4000084355
0.3999985803
0.3999875431
0.3999759186
0.3999642075
0.3999527828
0.3999418935
0.3999316867
0.3999222349
0.3999135647
0.399905699
0.3998987772
0.3998935461
0.4000225946
0.4000179949
0.4000118687
0.4000043574
0.3999957196
0.3999862691
0.3999763242
0.3999661748
0.3999560654
0.3999461906
0.3999367043
0.3999277551
0.3999196291
0.3999133553
0.4000271338
0.4000252896
0.4000224215
0.4000183704
0.4000130853
0.4000066221
0.3999991232
0.3999907881
0.3999818439
0.3999725207
0.3999630353
0.3999535882
0.3999443926
0.3999358257
0.3999290929
0.4000256998
0.4000225949
0.4000179952
0.4000118688
0.4000043573
0.3999957192
0.3999862684
0.3999763231
0.3999661734
0.3999560635
0.3999461883
0.3999367016
0.3999277521
0.3999196258
0.3999133517
0.4000224881
0.4000166404
0.4000085057
0.3999984391
0.3999870079
0.3999748262
0.3999624452
0.3999503017
0.3999387065
0.3999278573
0.3999178614
0.3999087644
0.3999005942
0.3998934814
0.399888154
0.4000176622
0.4000079116
0.3999952691
0.3999807537
0.3999654268
0.3999501733
0.3999356287
0.3999221902
0.3999100624
0.3998993099
0.3998899046
0.3998817656
0.3998748012
0.3998690007
0.3998648001
0.400014039
0.4000016755
0.3999865569
0.3999700632
0.399953356
0.3999372758
0.3999223597
0.3999088997
0.3998970086
0.3998866769
0.3998778188
0.3998703086
0.3998640158
0.3998588813
0.3998552247
0.4000176623
0.4000079118
0.3999952694
0.3999807541
0.3999654274
0.3999501741
0.3999356297
0.3999221914
0.3999100638
0.3998993114
0.3998899062
0.3998817673
0.3998748031
0.3998690025
0.3998648021
0.4000224882
0.4000166405
0.4000085059
0.3999984395
0.3999870086
0.3999748271
0.3999624464
0.3999503032
0.3999387084
0.3999278594
0.3999178638
0.3999087671
0.3999005971
0.3998934845
0.3998881572
0.4000256998
0.4000225949
0.4000179952
0.400011869
0.4000043576
0.3999957199
0.3999862694
0.3999763245
0.3999661751
0.3999560656
0.3999461908
0.3999367045
0.3999277553
0.3999196293
0.3999133555
0.4000271337
0.4000252895
0.4000224214
0.4000183704
0.4000130855
0.4000066225
0.3999991238
0.3999907891
0.3999818453
0.3999725225
0.3999630377
0.399953591
0.3999443959
0.3999358294
0.399929097
)
;

boundaryField
{
    top
    {
        type            calculated;
        value           nonuniform List<scalar> 
127
(
0.4000271337
0.4000252895
0.4000225948
0.40001664
0.4000079109
0.4000016745
0.4000079106
0.4000166397
0.4000225946
0.4000252895
0.4000224213
0.4000179949
0.4000085051
0.3999952682
0.3999865556
0.3999952681
0.4000085051
0.4000179949
0.4000224214
0.4000183702
0.4000118684
0.3999984384
0.3999807525
0.3999700617
0.3999807527
0.3999984386
0.4000118687
0.4000183704
0.400013085
0.4000043568
0.3999870071
0.3999654255
0.3999533544
0.399965426
0.3999870077
0.4000043574
0.4000130855
0.4000066217
0.3999957187
0.3999748252
0.3999501719
0.3999372742
0.3999501727
0.3999748263
0.3999957196
0.4000066225
0.3999991226
0.3999862677
0.3999624442
0.3999356272
0.399922358
0.3999356283
0.3999624456
0.3999862691
0.3999991238
0.3999907875
0.3999763224
0.3999503006
0.3999221887
0.3999088981
0.39992219
0.3999503024
0.3999763242
0.3999907891
0.3999818432
0.3999661725
0.3999387053
0.399910061
0.3998970071
0.3999100625
0.3999387076
0.3999661748
0.3999818453
0.3999725199
0.3999560626
0.3999278561
0.3998993085
0.3998866754
0.3998993102
0.3999278587
0.3999560654
0.3999725225
0.3999630345
0.3999461874
0.3999178602
0.3998899031
0.3998778174
0.399889905
0.3999178631
0.3999461906
0.3999630377
0.3999535874
0.3999367006
0.3999087632
0.3998817642
0.3998703072
0.3998817662
0.3999087665
0.3999367043
0.399953591
0.3999443917
0.3999277511
0.399900593
0.3998747999
0.3998640145
0.3998748021
0.3999005965
0.3999277551
0.3999443959
0.3999358248
0.3999196247
0.3998934802
0.3998689993
0.39985888
0.3998690016
0.399893484
0.3999196291
0.3999358294
0.3999290919
0.3999133507
0.3998881528
0.3998647988
0.3998552235
0.3998648012
0.3998881567
0.3999133553
0.399929097
)
;
    }
    bottom
    {
        type            calculated;
        value           nonuniform List<scalar> 
134
(
0.4000256996
0.400022488
0.4000176621
0.400014039
0.4000176622
0.4000224881
0.4000256998
0.4000271338
0.4000252894
0.4000225947
0.4000166401
0.4000079112
0.4000016751
0.4000079114
0.4000166404
0.400022595
0.4000252896
0.4000224211
0.4000179948
0.400008505
0.3999952683
0.399986556
0.3999952686
0.4000085055
0.4000179952
0.4000224215
0.4000183699
0.4000118682
0.3999984381
0.3999807523
0.3999700615
0.3999807527
0.3999984388
0.4000118687
0.4000183704
0.4000130847
0.4000043564
0.3999870065
0.3999654248
0.3999533535
0.3999654254
0.3999870074
0.4000043572
0.4000130853
0.4000066213
0.3999957181
0.3999748243
0.3999501706
0.3999372726
0.3999501713
0.3999748254
0.3999957191
0.4000066221
0.3999991221
0.3999862669
0.3999624428
0.3999356253
0.3999223557
0.3999356262
0.3999624442
0.3999862682
0.3999991232
0.3999907867
0.3999763213
0.3999502987
0.3999221861
0.399908895
0.3999221872
0.3999503004
0.3999763228
0.3999907881
0.3999818422
0.3999661711
0.3999387031
0.3999100578
0.3998970033
0.399910059
0.3999387049
0.3999661729
0.3999818439
0.3999725187
0.3999560608
0.3999278533
0.3998993047
0.399886671
0.399899306
0.3999278555
0.399956063
0.3999725207
0.399963033
0.3999461853
0.399917857
0.3998898989
0.3998778125
0.3998899003
0.3999178593
0.3999461877
0.3999630353
0.3999535855
0.3999366982
0.3999087597
0.3998817595
0.3998703018
0.399881761
0.3999087622
0.3999367009
0.3999535882
0.3999443895
0.3999277483
0.399900589
0.3998747948
0.3998640087
0.3998747964
0.3999005917
0.3999277513
0.3999443926
0.3999358223
0.3999196215
0.3998934759
0.3998689939
0.3998588739
0.3998689956
0.3998934788
0.3999196248
0.3999358257
0.3999290891
0.3999133471
0.3998881481
0.3998647931
0.3998552171
0.3998647948
0.3998881512
0.3999133507
0.3999290929
)
;
    }
    side-walls
    {
        type            calculated;
        value           nonuniform List<scalar> 
261
(
0.4000252894
0.4000225945
0.4000166398
0.4000079107
0.4000016745
0.4000079109
0.40001664
0.4000225948
0.4000252895
0.4000224211
0.4000179946
0.4000085048
0.3999952677
0.3999865551
0.399995268
0.4000085051
0.4000179949
0.4000224213
0.4000183699
0.400011868
0.3999984378
0.3999807516
0.3999700605
0.399980752
0.3999984382
0.4000118684
0.4000183702
0.4000130847
0.4000043562
0.3999870062
0.3999654241
0.3999533524
0.3999654245
0.3999870067
0.4000043567
0.400013085
0.4000066213
0.3999957179
0.399974824
0.3999501698
0.3999372715
0.3999501704
0.3999748246
0.3999957185
0.4000066217
0.3999991221
0.3999862668
0.3999624425
0.3999356245
0.3999223546
0.3999356252
0.3999624433
0.3999862675
0.3999991226
0.3999907867
0.3999763211
0.3999502984
0.3999221854
0.3999088939
0.3999221862
0.3999502994
0.3999763221
0.3999907875
0.3999818422
0.3999661709
0.3999387027
0.399910057
0.3998970022
0.3999100579
0.3999387039
0.3999661722
0.3999818432
0.3999725187
0.3999560607
0.399927853
0.399899304
0.3998866699
0.399899305
0.3999278544
0.3999560621
0.3999725199
0.399963033
0.3999461851
0.3999178567
0.3998898982
0.3998778114
0.3998898993
0.3999178582
0.3999461868
0.3999630345
0.3999535855
0.399936698
0.3999087593
0.3998817588
0.3998703008
0.39988176
0.3999087611
0.3999367
0.3999535874
0.3999443895
0.3999277481
0.3999005887
0.3998747941
0.3998640078
0.3998747954
0.3999005906
0.3999277503
0.3999443917
0.3999358223
0.3999196214
0.3998934756
0.3998689933
0.399858873
0.3998689946
0.3998934777
0.3999196239
0.3999358248
0.3999290891
0.399913347
0.3998881478
0.3998647924
0.3998552161
0.3998647938
0.3998881501
0.3999133497
0.3999290919
0.4000271338
0.4000256998
0.4000224881
0.4000176622
0.400014039
0.4000176623
0.4000224882
0.4000256998
0.4000271337
0.4000252896
0.4000225949
0.4000166404
0.4000079116
0.4000016755
0.4000079118
0.4000166405
0.4000225949
0.4000252895
0.4000224215
0.4000179952
0.4000085057
0.3999952691
0.3999865569
0.3999952694
0.4000085059
0.4000179952
0.4000224214
0.4000183704
0.4000118688
0.3999984391
0.3999807537
0.3999700632
0.3999807541
0.3999984395
0.400011869
0.4000183704
0.4000130853
0.4000043573
0.3999870079
0.3999654268
0.399953356
0.3999654274
0.3999870086
0.4000043576
0.4000130855
0.4000066221
0.3999957192
0.3999748262
0.3999501733
0.3999372758
0.3999501741
0.3999748271
0.3999957199
0.4000066225
0.3999991232
0.3999862684
0.3999624452
0.3999356287
0.3999223597
0.3999356297
0.3999624464
0.3999862694
0.3999991238
0.3999907881
0.3999763231
0.3999503017
0.3999221902
0.3999088997
0.3999221914
0.3999503032
0.3999763245
0.3999907891
0.3999818439
0.3999661734
0.3999387065
0.3999100624
0.3998970086
0.3999100638
0.3999387084
0.3999661751
0.3999818453
0.3999725207
0.3999560635
0.3999278573
0.3998993099
0.3998866769
0.3998993114
0.3999278594
0.3999560656
0.3999725225
0.3999630353
0.3999461883
0.3999178614
0.3998899046
0.3998778188
0.3998899062
0.3999178638
0.3999461908
0.3999630377
0.3999535882
0.3999367016
0.3999087644
0.3998817656
0.3998703086
0.3998817673
0.3999087671
0.3999367045
0.399953591
0.3999443926
0.3999277521
0.3999005942
0.3998748012
0.3998640158
0.3998748031
0.3999005971
0.3999277553
0.3999443959
0.3999358257
0.3999196258
0.3998934814
0.3998690007
0.3998588813
0.3998690025
0.3998934845
0.3999196293
0.3999358294
0.3999290929
0.3999133517
0.399888154
0.3998648001
0.3998552247
0.3998648021
0.3998881572
0.3999133555
0.399929097
)
;
    }
    inlet
    {
        type            calculated;
        value           nonuniform 0();
    }
    outlet
    {
        type            calculated;
        value           nonuniform List<scalar> 
81
(
0.3999290891
0.399913347
0.3998881478
0.3998647924
0.3998552161
0.3998647938
0.3998881501
0.3999133497
0.3999290919
0.3999133471
0.3998935373
0.3998615887
0.3998316956
0.3998193447
0.3998316975
0.3998615916
0.3998935406
0.3999133507
0.3998881481
0.3998615889
0.3998183701
0.3997774678
0.3997604061
0.3997774703
0.3998183741
0.3998615933
0.3998881528
0.3998647931
0.3998316962
0.3997774682
0.3997256836
0.3997038991
0.3997256867
0.3997774733
0.3998317018
0.3998647988
0.3998552171
0.3998193456
0.3997604068
0.3997038996
0.3996799183
0.3997039032
0.3997604126
0.3998193518
0.3998552235
0.3998647948
0.3998316985
0.3997774714
0.3997256876
0.3997039038
0.3997256911
0.399777477
0.3998317046
0.3998648012
0.3998881512
0.3998615927
0.3998183753
0.3997774745
0.3997604135
0.3997774774
0.39981838
0.399861598
0.3998881567
0.3999133507
0.3998935417
0.3998615946
0.3998317031
0.3998193529
0.3998317054
0.3998615984
0.3998935461
0.3999133553
0.3999290929
0.3999133517
0.399888154
0.3998648001
0.3998552247
0.3998648021
0.3998881572
0.3999133555
0.399929097
)
;
    }
    procBoundary1to0
    {
        type            processor;
        value           nonuniform List<scalar> 
97
(
0.4000271337
0.4000271337
0.4000256998
0.4000224882
0.4000176625
0.4000140395
0.4000176626
0.4000224884
0.4000256999
0.4000271338
0.4000275348
0.4000224034
0.4000224034
0.4000224034
0.4000139019
0.3999980511
0.3999814947
0.3999980517
0.4000139026
0.400022404
0.4000256999
0.4000260809
0.4000223157
0.3999876107
0.3999876107
0.3999876107
0.3999237446
0.3998224973
0.3999237484
0.399987614
0.4000139025
0.4000224884
0.4000239497
0.4000156749
0.3999867221
0.3996686417
0.3996686417
0.3996686417
0.3989531585
0.3996686649
0.3999237482
0.3999980516
0.4000176626
0.4000224273
0.4000094065
0.3999545499
0.3997373332
0.3930640825
0.3930640825
0.3930640825
0.3989531549
0.3989531549
0.3998224964
0.3999814947
0.4000140395
0.4000239497
0.4000156749
0.3999867216
0.3999025271
0.39973733
0.3999025291
0.3999237408
0.3999237408
0.3999237408
0.3999980505
0.4000176624
0.4000260809
0.4000223157
0.4000112785
0.3999867216
0.3999545494
0.399986722
0.4000112787
0.4000139013
0.4000139013
0.4000139013
0.4000224881
0.4000275348
0.4000260508
0.4000223157
0.4000156749
0.4000094064
0.400015675
0.4000223158
0.4000260508
0.4000256997
0.4000256997
0.4000256997
0.4000281928
0.4000275348
0.4000260809
0.4000239497
0.4000224272
0.4000239497
0.4000260809
0.4000275348
0.4000281928
)
;
    }
}


// ************************************************************************* //
