/*--------------------------------*- C++ -*----------------------------------*\
| =========                 |                                                 |
| \\      /  F ield         | OpenFOAM: The Open Source CFD Toolbox           |
|  \\    /   O peration     | Version:  4.x                                   |
|   \\  /    A nd           | Web:      www.OpenFOAM.org                      |
|    \\/     M anipulation  |                                                 |
\*---------------------------------------------------------------------------*/
FoamFile
{
    version     2.0;
    format      ascii;
    class       volScalarField;
    location    "4000";
    object      X_N2;
}
// * * * * * * * * * * * * * * * * * * * * * * * * * * * * * * * * * * * * * //

dimensions      [0 0 0 0 0 0 0];

internalField   nonuniform List<scalar> 
1174
(
0.5999708664
0.5999708651
0.5999708633
0.5999708609
0.5999708578
0.599970854
0.5999708497
0.5999708448
0.5999708394
0.5999708336
0.5999708275
0.5999708212
0.599970815
0.59997081
0.5999708652
0.5999708633
0.5999708607
0.5999708574
0.5999708533
0.5999708487
0.5999708435
0.5999708379
0.5999708319
0.5999708257
0.5999708193
0.5999708129
0.5999708067
0.5999708018
0.5999708629
0.5999708598
0.5999708558
0.599970851
0.5999708456
0.5999708396
0.5999708333
0.5999708268
0.5999708202
0.5999708135
0.5999708069
0.5999708004
0.5999707943
0.5999707895
0.59997086
0.5999708555
0.59997085
0.5999708438
0.5999708371
0.5999708301
0.599970823
0.5999708159
0.5999708089
0.5999708021
0.5999707955
0.5999707891
0.5999707833
0.5999707787
0.5999708583
0.5999708531
0.599970847
0.5999708403
0.5999708332
0.5999708259
0.5999708187
0.5999708115
0.5999708045
0.5999707978
0.5999707912
0.599970785
0.5999707793
0.599970775
0.5999708601
0.5999708556
0.5999708502
0.5999708441
0.5999708375
0.5999708306
0.5999708237
0.5999708167
0.5999708099
0.5999708032
0.5999707967
0.5999707904
0.5999707846
0.5999707802
0.599970863
0.59997086
0.599970856
0.5999708513
0.599970846
0.5999708403
0.5999708342
0.5999708279
0.5999708215
0.5999708151
0.5999708086
0.5999708024
0.5999707965
0.5999707919
0.5999708654
0.5999708634
0.5999708609
0.5999708576
0.5999708537
0.5999708492
0.5999708443
0.5999708389
0.5999708332
0.5999708273
0.5999708212
0.5999708151
0.5999708092
0.5999708045
0.5999708665
0.5999708652
0.5999708634
0.599970861
0.599970858
0.5999708544
0.5999708502
0.5999708456
0.5999708405
0.599970835
0.5999708293
0.5999708234
0.5999708176
0.599970813
0.5999708667
0.5999708654
0.5999708634
0.5999708608
0.5999708575
0.5999708535
0.5999708488
0.5999708437
0.599970838
0.5999708321
0.5999708258
0.5999708194
0.599970813
0.5999708068
0.5999708019
0.5999708628
0.5999708598
0.5999708559
0.5999708512
0.599970846
0.5999708403
0.5999708343
0.599970828
0.5999708216
0.5999708152
0.5999708087
0.5999708024
0.5999707964
0.5999707918
0.5999708574
0.5999708521
0.5999708459
0.5999708391
0.5999708321
0.599970825
0.5999708181
0.5999708112
0.5999708046
0.5999707983
0.5999707921
0.5999707862
0.5999707808
0.5999707767
0.5999708496
0.5999708415
0.5999708328
0.5999708242
0.5999708159
0.5999708082
0.599970801
0.5999707943
0.5999707881
0.5999707823
0.5999707768
0.5999707716
0.5999707669
0.5999707635
0.5999708441
0.5999708346
0.5999708251
0.5999708161
0.5999708079
0.5999708004
0.5999707935
0.5999707872
0.5999707814
0.5999707761
0.599970771
0.5999707662
0.5999707619
0.5999707588
0.59997085
0.599970842
0.5999708334
0.599970825
0.5999708169
0.5999708093
0.5999708023
0.5999707957
0.5999707896
0.5999707839
0.5999707785
0.5999707734
0.5999707688
0.5999707654
0.5999708578
0.5999708526
0.5999708465
0.5999708399
0.5999708331
0.5999708263
0.5999708196
0.5999708131
0.5999708068
0.5999708007
0.5999707948
0.5999707891
0.5999707838
0.5999707799
0.599970863
0.59997086
0.5999708562
0.5999708517
0.5999708467
0.5999708413
0.5999708356
0.5999708297
0.5999708236
0.5999708175
0.5999708114
0.5999708054
0.5999707997
0.5999707954
0.5999708653
0.5999708634
0.5999708609
0.5999708577
0.5999708538
0.5999708495
0.5999708446
0.5999708393
0.5999708338
0.599970828
0.599970822
0.599970816
0.5999708102
0.5999708057
0.5999708655
0.5999708633
0.5999708601
0.5999708561
0.5999708513
0.5999708459
0.59997084
0.5999708337
0.5999708272
0.5999708205
0.5999708138
0.5999708072
0.5999708007
0.5999707946
0.5999707898
0.599970862
0.5999708579
0.5999708525
0.5999708463
0.5999708395
0.5999708324
0.5999708253
0.5999708183
0.5999708115
0.5999708049
0.5999707985
0.5999707924
0.5999707865
0.599970781
0.5999707769
0.5999708433
0.5999708338
0.5999708239
0.5999708144
0.5999708056
0.5999707978
0.5999707908
0.5999707845
0.5999707789
0.5999707737
0.5999707689
0.5999707645
0.5999707605
0.5999707575
0.5999708185
0.5999708035
0.5999707905
0.59997078
0.5999707717
0.5999707654
0.5999707603
0.5999707562
0.5999707528
0.5999707498
0.599970747
0.5999707444
0.599970742
0.5999707404
0.5999707961
0.5999707793
0.5999707671
0.5999707588
0.5999707532
0.5999707493
0.5999707464
0.5999707441
0.5999707422
0.5999707404
0.5999707388
0.5999707371
0.5999707355
0.5999707345
0.5999708204
0.5999708053
0.5999707924
0.5999707821
0.5999707741
0.5999707679
0.599970763
0.5999707591
0.5999707557
0.5999707526
0.5999707498
0.5999707472
0.5999707448
0.5999707432
0.5999708446
0.599970835
0.5999708253
0.5999708162
0.5999708079
0.5999708006
0.599970794
0.5999707881
0.5999707827
0.5999707777
0.5999707731
0.5999707687
0.5999707648
0.599970762
0.5999708578
0.5999708526
0.5999708467
0.5999708403
0.5999708338
0.5999708272
0.5999708207
0.5999708144
0.5999708083
0.5999708023
0.5999707965
0.5999707909
0.5999707857
0.5999707818
0.599970863
0.59997086
0.5999708562
0.5999708517
0.5999708466
0.5999708411
0.5999708354
0.5999708294
0.5999708233
0.5999708171
0.599970811
0.599970805
0.5999707993
0.599970795
0.5999708638
0.5999708605
0.5999708561
0.5999708507
0.5999708445
0.5999708378
0.5999708308
0.5999708237
0.5999708166
0.5999708096
0.5999708028
0.5999707961
0.5999707897
0.5999707838
0.5999707793
0.5999708576
0.5999708507
0.5999708425
0.5999708337
0.5999708251
0.5999708168
0.599970809
0.5999708017
0.599970795
0.5999707887
0.5999707829
0.5999707774
0.5999707722
0.5999707674
0.599970764
0.5999708361
0.5999708206
0.599970805
0.5999707916
0.5999707809
0.5999707725
0.5999707661
0.5999707609
0.5999707568
0.5999707533
0.5999707502
0.5999707474
0.5999707448
0.5999707423
0.5999707407
0.5999707443
0.5999707274
0.5999707175
0.5999707131
0.599970712
0.5999707127
0.5999707141
0.5999707156
0.5999707171
0.5999707182
0.5999707191
0.5999707195
0.5999707198
0.5999707202
0.599970647
0.5999706455
0.5999706538
0.5999706648
0.5999706754
0.5999706844
0.5999706917
0.5999706976
0.5999707022
0.5999707058
0.5999707085
0.5999707105
0.5999707119
0.5999707132
0.5999707509
0.5999707324
0.5999707224
0.5999707183
0.5999707173
0.5999707179
0.5999707192
0.5999707205
0.5999707218
0.5999707227
0.5999707233
0.5999707236
0.5999707236
0.5999707239
0.5999708201
0.599970806
0.5999707941
0.5999707846
0.5999707772
0.5999707713
0.5999707666
0.5999707627
0.5999707593
0.5999707563
0.5999707534
0.5999707507
0.5999707482
0.5999707466
0.5999708498
0.5999708423
0.5999708344
0.5999708267
0.5999708193
0.5999708123
0.5999708057
0.5999707996
0.5999707938
0.5999707883
0.5999707831
0.5999707781
0.5999707736
0.5999707703
0.59997086
0.5999708557
0.5999708507
0.599970845
0.599970839
0.5999708328
0.5999708264
0.59997082
0.5999708137
0.5999708074
0.5999708013
0.5999707954
0.59997079
0.5999707859
0.5999708628
0.5999708589
0.5999708539
0.5999708478
0.5999708412
0.5999708341
0.5999708269
0.5999708196
0.5999708125
0.5999708055
0.5999707987
0.5999707921
0.5999707859
0.5999707802
0.5999707758
0.5999708541
0.5999708455
0.5999708359
0.5999708264
0.5999708174
0.5999708091
0.5999708016
0.5999707947
0.5999707884
0.5999707825
0.5999707771
0.5999707719
0.5999707671
0.5999707628
0.5999707596
0.599970821
0.5999707996
0.5999707822
0.5999707696
0.599970761
0.5999707551
0.5999707509
0.5999707478
0.5999707454
0.5999707433
0.5999707414
0.5999707397
0.5999707379
0.5999707362
0.5999707352
0.5999706819
0.5999706565
0.5999706512
0.5999706576
0.5999706675
0.5999706774
0.5999706859
0.5999706929
0.5999706986
0.5999707031
0.5999707065
0.5999707091
0.599970711
0.5999707124
0.5999707136
0.5999702566
0.599970434
0.599970532
0.5999705898
0.5999706259
0.5999706498
0.5999706663
0.5999706781
0.5999706867
0.5999706931
0.5999706978
0.5999707014
0.5999707041
0.5999707063
0.5999706466
0.5999706528
0.5999706642
0.5999706757
0.5999706856
0.5999706937
0.5999707001
0.5999707052
0.5999707091
0.599970712
0.5999707142
0.5999707158
0.5999707168
0.5999707179
0.5999707952
0.5999707822
0.599970773
0.5999707665
0.5999707619
0.5999707583
0.5999707555
0.5999707531
0.5999707509
0.5999707489
0.5999707469
0.5999707449
0.599970743
0.5999707419
0.5999708438
0.5999708354
0.5999708274
0.5999708198
0.5999708126
0.599970806
0.5999707999
0.5999707942
0.5999707887
0.5999707836
0.5999707788
0.5999707741
0.5999707699
0.5999707669
0.5999708581
0.5999708533
0.5999708479
0.599970842
0.5999708358
0.5999708294
0.599970823
0.5999708167
0.5999708104
0.5999708042
0.5999707983
0.5999707925
0.5999707872
0.5999707833
0.5999708638
0.5999708606
0.5999708563
0.599970851
0.599970845
0.5999708385
0.5999708316
0.5999708247
0.5999708178
0.5999708109
0.5999708042
0.5999707977
0.5999707914
0.5999707857
0.5999707812
0.5999708579
0.5999708512
0.5999708433
0.5999708348
0.5999708264
0.5999708183
0.5999708107
0.5999708036
0.5999707971
0.5999707909
0.5999707851
0.5999707797
0.5999707745
0.5999707699
0.5999707664
0.5999708394
0.5999708236
0.5999708083
0.5999707952
0.5999707847
0.5999707765
0.5999707701
0.5999707649
0.5999707608
0.5999707572
0.599970754
0.5999707511
0.5999707484
0.5999707459
0.5999707442
0.5999707907
0.5999707592
0.5999707387
0.5999707274
0.5999707222
0.5999707205
0.5999707205
0.5999707213
0.5999707223
0.5999707233
0.599970724
0.5999707244
0.5999707246
0.5999707245
0.5999707247
0.5999706838
0.5999706588
0.5999706603
0.5999706691
0.5999706791
0.5999706881
0.5999706955
0.5999707016
0.5999707063
0.59997071
0.5999707129
0.5999707149
0.5999707163
0.5999707173
0.5999707184
0.5999707881
0.599970759
0.5999707416
0.5999707325
0.5999707284
0.599970727
0.599970727
0.5999707276
0.5999707282
0.5999707288
0.5999707292
0.5999707293
0.5999707291
0.5999707289
0.5999707289
0.5999708184
0.5999708072
0.5999707972
0.5999707888
0.599970782
0.5999707764
0.5999707718
0.5999707678
0.5999707643
0.5999707611
0.599970758
0.5999707551
0.5999707525
0.5999707508
0.5999708492
0.5999708423
0.5999708352
0.5999708281
0.5999708212
0.5999708147
0.5999708084
0.5999708025
0.5999707968
0.5999707915
0.5999707863
0.5999707814
0.5999707769
0.5999707736
0.5999708598
0.5999708557
0.5999708509
0.5999708456
0.5999708399
0.599970834
0.5999708279
0.5999708218
0.5999708157
0.5999708097
0.5999708037
0.599970798
0.5999707926
0.5999707887
0.5999708655
0.5999708634
0.5999708604
0.5999708566
0.599970852
0.5999708468
0.5999708411
0.5999708351
0.5999708289
0.5999708225
0.5999708161
0.5999708097
0.5999708034
0.5999707975
0.599970793
0.5999708625
0.5999708586
0.5999708535
0.5999708475
0.599970841
0.5999708343
0.5999708276
0.5999708209
0.5999708144
0.5999708081
0.5999708019
0.599970796
0.5999707902
0.599970785
0.599970781
0.5999708547
0.5999708464
0.5999708369
0.5999708273
0.5999708183
0.5999708099
0.5999708025
0.5999707958
0.5999707898
0.5999707843
0.5999707792
0.5999707745
0.5999707701
0.599970766
0.5999707632
0.5999708393
0.5999708242
0.5999708098
0.5999707976
0.5999707878
0.59997078
0.5999707738
0.5999707689
0.5999707647
0.5999707611
0.5999707578
0.5999707548
0.599970752
0.5999707494
0.5999707477
0.5999708209
0.5999708019
0.5999707877
0.5999707775
0.5999707702
0.5999707648
0.5999707608
0.5999707575
0.5999707548
0.5999707524
0.5999707502
0.599970748
0.5999707459
0.599970744
0.5999707428
0.5999708394
0.5999708249
0.5999708114
0.5999708001
0.599970791
0.5999707837
0.5999707778
0.5999707729
0.5999707687
0.5999707651
0.5999707618
0.5999707586
0.5999707557
0.599970753
0.5999707513
0.5999708535
0.5999708455
0.5999708371
0.5999708286
0.5999708207
0.5999708133
0.5999708066
0.5999708004
0.5999707948
0.5999707896
0.5999707847
0.59997078
0.5999707756
0.5999707716
0.5999707688
0.5999708574
0.5999708529
0.5999708477
0.5999708421
0.5999708362
0.5999708303
0.5999708243
0.5999708184
0.5999708126
0.5999708069
0.5999708014
0.599970796
0.5999707909
0.5999707872
0.5999708628
0.59997086
0.5999708565
0.5999708524
0.5999708478
0.5999708428
0.5999708375
0.599970832
0.5999708263
0.5999708206
0.5999708148
0.599970809
0.5999708036
0.5999707996
0.5999708668
0.5999708656
0.5999708637
0.5999708612
0.5999708581
0.5999708543
0.5999708499
0.599970845
0.5999708398
0.5999708341
0.5999708282
0.5999708222
0.5999708161
0.5999708102
0.5999708056
0.5999708655
0.5999708634
0.5999708605
0.5999708568
0.5999708524
0.5999708475
0.5999708422
0.5999708366
0.5999708307
0.5999708247
0.5999708187
0.5999708126
0.5999708065
0.5999708009
0.5999707965
0.5999708625
0.5999708586
0.5999708537
0.5999708479
0.5999708416
0.5999708352
0.5999708286
0.5999708222
0.5999708158
0.5999708097
0.5999708036
0.5999707978
0.5999707922
0.599970787
0.5999707831
0.5999708578
0.5999708515
0.5999708441
0.5999708364
0.5999708287
0.5999708212
0.5999708142
0.5999708076
0.5999708013
0.5999707955
0.5999707899
0.5999707845
0.5999707795
0.5999707749
0.5999707716
0.5999708541
0.5999708463
0.5999708381
0.5999708299
0.5999708222
0.5999708149
0.5999708081
0.5999708018
0.5999707959
0.5999707903
0.5999707851
0.5999707801
0.5999707753
0.599970771
0.599970768
0.599970858
0.5999708518
0.5999708448
0.5999708374
0.5999708301
0.599970823
0.5999708162
0.5999708098
0.5999708037
0.599970798
0.5999707925
0.5999707872
0.5999707822
0.5999707776
0.5999707744
0.5999708624
0.5999708586
0.5999708539
0.5999708486
0.5999708429
0.5999708369
0.5999708309
0.5999708249
0.599970819
0.5999708131
0.5999708074
0.5999708018
0.5999707964
0.5999707913
0.5999707876
0.5999708653
0.5999708632
0.5999708604
0.599970857
0.5999708531
0.5999708486
0.5999708438
0.5999708387
0.5999708334
0.5999708279
0.5999708223
0.5999708166
0.599970811
0.5999708056
0.5999708016
0.5999708652
0.5999708635
0.5999708612
0.5999708583
0.5999708549
0.599970851
0.5999708467
0.5999708419
0.5999708369
0.5999708316
0.5999708261
0.5999708206
0.5999708152
0.5999708111
0.5999708675
0.5999708667
0.5999708654
0.5999708637
0.5999708614
0.5999708584
0.5999708549
0.5999708509
0.5999708463
0.5999708413
0.5999708359
0.5999708302
0.5999708243
0.5999708186
0.599970814
0.5999708668
0.5999708656
0.5999708638
0.5999708613
0.5999708582
0.5999708545
0.5999708502
0.5999708454
0.5999708403
0.5999708347
0.599970829
0.599970823
0.5999708171
0.5999708113
0.5999708068
0.5999708655
0.5999708634
0.5999708606
0.5999708569
0.5999708525
0.5999708476
0.5999708422
0.5999708365
0.5999708306
0.5999708245
0.5999708184
0.5999708123
0.5999708062
0.5999708005
0.5999707962
0.5999708638
0.5999708607
0.5999708567
0.5999708518
0.5999708463
0.5999708404
0.5999708342
0.5999708279
0.5999708215
0.5999708151
0.5999708089
0.5999708027
0.5999707968
0.5999707913
0.5999707872
0.5999708628
0.5999708592
0.5999708547
0.5999708494
0.5999708436
0.5999708374
0.5999708311
0.5999708246
0.5999708182
0.5999708119
0.5999708056
0.5999707996
0.5999707938
0.5999707884
0.5999707845
0.5999708639
0.5999708609
0.599970857
0.5999708523
0.599970847
0.5999708413
0.5999708354
0.5999708292
0.599970823
0.5999708169
0.5999708108
0.5999708048
0.599970799
0.5999707936
0.5999707896
0.5999708655
0.5999708635
0.5999708608
0.5999708573
0.5999708532
0.5999708486
0.5999708436
0.5999708383
0.5999708327
0.599970827
0.5999708212
0.5999708154
0.5999708096
0.5999708042
0.5999708001
0.5999708668
0.5999708656
0.5999708638
0.5999708615
0.5999708586
0.5999708552
0.5999708513
0.5999708469
0.5999708422
0.5999708371
0.5999708318
0.5999708263
0.5999708208
0.5999708154
0.5999708113
0.5999708674
0.5999708666
0.5999708654
0.5999708637
0.5999708616
0.5999708589
0.5999708557
0.5999708521
0.599970848
0.5999708435
0.5999708386
0.5999708335
0.5999708282
0.599970823
0.5999708189
)
;

boundaryField
{
    top
    {
        type            calculated;
        value           nonuniform List<scalar> 
127
(
0.5999708674
0.5999708665
0.5999708653
0.599970863
0.59997086
0.5999708581
0.5999708598
0.5999708628
0.5999708652
0.5999708666
0.5999708652
0.5999708634
0.59997086
0.5999708557
0.5999708533
0.5999708557
0.59997086
0.5999708635
0.5999708654
0.5999708634
0.5999708609
0.5999708562
0.5999708507
0.5999708479
0.5999708509
0.5999708565
0.5999708612
0.5999708637
0.599970861
0.5999708577
0.5999708517
0.599970845
0.599970842
0.5999708456
0.5999708524
0.5999708583
0.5999708616
0.599970858
0.5999708538
0.5999708466
0.599970839
0.5999708358
0.5999708399
0.5999708478
0.5999708549
0.5999708589
0.5999708544
0.5999708495
0.5999708411
0.5999708328
0.5999708294
0.599970834
0.5999708428
0.599970851
0.5999708557
0.5999708502
0.5999708446
0.5999708354
0.5999708264
0.599970823
0.5999708279
0.5999708375
0.5999708467
0.5999708521
0.5999708456
0.5999708393
0.5999708294
0.59997082
0.5999708167
0.5999708218
0.599970832
0.5999708419
0.599970848
0.5999708405
0.5999708338
0.5999708233
0.5999708137
0.5999708104
0.5999708157
0.5999708263
0.5999708369
0.5999708435
0.599970835
0.599970828
0.5999708171
0.5999708074
0.5999708042
0.5999708097
0.5999708206
0.5999708316
0.5999708386
0.5999708293
0.599970822
0.599970811
0.5999708013
0.5999707983
0.5999708037
0.5999708148
0.5999708261
0.5999708335
0.5999708234
0.599970816
0.599970805
0.5999707954
0.5999707925
0.599970798
0.599970809
0.5999708206
0.5999708282
0.5999708176
0.5999708102
0.5999707993
0.59997079
0.5999707872
0.5999707926
0.5999708036
0.5999708152
0.599970823
0.599970813
0.5999708057
0.599970795
0.5999707859
0.5999707833
0.5999707887
0.5999707996
0.5999708111
0.5999708189
)
;
    }
    bottom
    {
        type            calculated;
        value           nonuniform List<scalar> 
134
(
0.5999708667
0.5999708655
0.5999708638
0.5999708628
0.5999708638
0.5999708655
0.5999708668
0.5999708675
0.5999708664
0.5999708654
0.5999708633
0.5999708605
0.5999708589
0.5999708606
0.5999708634
0.5999708656
0.5999708667
0.5999708651
0.5999708634
0.5999708601
0.5999708561
0.5999708539
0.5999708563
0.5999708604
0.5999708637
0.5999708654
0.5999708633
0.5999708608
0.5999708561
0.5999708507
0.5999708478
0.599970851
0.5999708566
0.5999708612
0.5999708637
0.5999708609
0.5999708575
0.5999708513
0.5999708445
0.5999708412
0.599970845
0.599970852
0.5999708581
0.5999708614
0.5999708578
0.5999708535
0.5999708459
0.5999708378
0.5999708341
0.5999708385
0.5999708468
0.5999708543
0.5999708584
0.599970854
0.5999708488
0.59997084
0.5999708308
0.5999708269
0.5999708316
0.5999708411
0.5999708499
0.5999708549
0.5999708497
0.5999708437
0.5999708337
0.5999708237
0.5999708196
0.5999708247
0.5999708351
0.599970845
0.5999708509
0.5999708448
0.599970838
0.5999708272
0.5999708166
0.5999708125
0.5999708178
0.5999708289
0.5999708398
0.5999708463
0.5999708394
0.5999708321
0.5999708205
0.5999708096
0.5999708055
0.5999708109
0.5999708225
0.5999708341
0.5999708413
0.5999708336
0.5999708258
0.5999708138
0.5999708028
0.5999707987
0.5999708042
0.5999708161
0.5999708282
0.5999708359
0.5999708275
0.5999708194
0.5999708072
0.5999707961
0.5999707921
0.5999707977
0.5999708097
0.5999708222
0.5999708302
0.5999708212
0.599970813
0.5999708007
0.5999707897
0.5999707859
0.5999707914
0.5999708034
0.5999708161
0.5999708243
0.599970815
0.5999708068
0.5999707946
0.5999707838
0.5999707802
0.5999707857
0.5999707975
0.5999708102
0.5999708186
0.59997081
0.5999708019
0.5999707898
0.5999707793
0.5999707758
0.5999707812
0.599970793
0.5999708056
0.599970814
)
;
    }
    side-walls
    {
        type            calculated;
        value           nonuniform List<scalar> 
261
(
0.5999708664
0.5999708652
0.5999708629
0.59997086
0.5999708583
0.5999708601
0.599970863
0.5999708654
0.5999708665
0.5999708651
0.5999708633
0.5999708598
0.5999708555
0.5999708531
0.5999708556
0.59997086
0.5999708634
0.5999708652
0.5999708633
0.5999708607
0.5999708558
0.59997085
0.599970847
0.5999708502
0.599970856
0.5999708609
0.5999708634
0.5999708609
0.5999708574
0.599970851
0.5999708438
0.5999708403
0.5999708441
0.5999708513
0.5999708576
0.599970861
0.5999708578
0.5999708533
0.5999708456
0.5999708371
0.5999708332
0.5999708375
0.599970846
0.5999708537
0.599970858
0.599970854
0.5999708487
0.5999708396
0.5999708301
0.5999708259
0.5999708306
0.5999708403
0.5999708492
0.5999708544
0.5999708497
0.5999708435
0.5999708333
0.599970823
0.5999708187
0.5999708237
0.5999708342
0.5999708443
0.5999708502
0.5999708448
0.5999708379
0.5999708268
0.5999708159
0.5999708115
0.5999708167
0.5999708279
0.5999708389
0.5999708456
0.5999708394
0.5999708319
0.5999708202
0.5999708089
0.5999708045
0.5999708099
0.5999708215
0.5999708332
0.5999708405
0.5999708336
0.5999708257
0.5999708135
0.5999708021
0.5999707978
0.5999708032
0.5999708151
0.5999708273
0.599970835
0.5999708275
0.5999708193
0.5999708069
0.5999707955
0.5999707912
0.5999707967
0.5999708086
0.5999708212
0.5999708293
0.5999708212
0.5999708129
0.5999708004
0.5999707891
0.599970785
0.5999707904
0.5999708024
0.5999708151
0.5999708234
0.599970815
0.5999708067
0.5999707943
0.5999707833
0.5999707793
0.5999707846
0.5999707965
0.5999708092
0.5999708176
0.59997081
0.5999708018
0.5999707895
0.5999707787
0.599970775
0.5999707802
0.5999707919
0.5999708045
0.599970813
0.5999708675
0.5999708668
0.5999708655
0.5999708638
0.5999708628
0.5999708639
0.5999708655
0.5999708668
0.5999708674
0.5999708667
0.5999708656
0.5999708634
0.5999708607
0.5999708592
0.5999708609
0.5999708635
0.5999708656
0.5999708666
0.5999708654
0.5999708638
0.5999708606
0.5999708567
0.5999708547
0.599970857
0.5999708608
0.5999708638
0.5999708654
0.5999708637
0.5999708613
0.5999708569
0.5999708518
0.5999708494
0.5999708523
0.5999708573
0.5999708615
0.5999708637
0.5999708614
0.5999708582
0.5999708525
0.5999708463
0.5999708436
0.599970847
0.5999708532
0.5999708586
0.5999708616
0.5999708584
0.5999708545
0.5999708476
0.5999708404
0.5999708374
0.5999708413
0.5999708486
0.5999708552
0.5999708589
0.5999708549
0.5999708502
0.5999708422
0.5999708342
0.5999708311
0.5999708354
0.5999708436
0.5999708513
0.5999708557
0.5999708509
0.5999708454
0.5999708365
0.5999708279
0.5999708246
0.5999708292
0.5999708383
0.5999708469
0.5999708521
0.5999708463
0.5999708403
0.5999708306
0.5999708215
0.5999708182
0.599970823
0.5999708327
0.5999708422
0.599970848
0.5999708413
0.5999708347
0.5999708245
0.5999708151
0.5999708119
0.5999708169
0.599970827
0.5999708371
0.5999708435
0.5999708359
0.599970829
0.5999708184
0.5999708089
0.5999708056
0.5999708108
0.5999708212
0.5999708318
0.5999708386
0.5999708302
0.599970823
0.5999708123
0.5999708027
0.5999707996
0.5999708048
0.5999708154
0.5999708263
0.5999708335
0.5999708243
0.5999708171
0.5999708062
0.5999707968
0.5999707938
0.599970799
0.5999708096
0.5999708208
0.5999708282
0.5999708186
0.5999708113
0.5999708005
0.5999707913
0.5999707884
0.5999707936
0.5999708042
0.5999708154
0.599970823
0.599970814
0.5999708068
0.5999707962
0.5999707872
0.5999707845
0.5999707896
0.5999708001
0.5999708113
0.5999708189
)
;
    }
    inlet
    {
        type            calculated;
        value           nonuniform 0();
    }
    outlet
    {
        type            calculated;
        value           nonuniform List<scalar> 
81
(
0.59997081
0.5999708018
0.5999707895
0.5999707787
0.599970775
0.5999707802
0.5999707919
0.5999708045
0.599970813
0.5999708019
0.5999707918
0.5999707767
0.5999707635
0.5999707588
0.5999707654
0.5999707799
0.5999707954
0.5999708057
0.5999707898
0.5999707769
0.5999707575
0.5999707404
0.5999707345
0.5999707432
0.599970762
0.5999707818
0.599970795
0.5999707793
0.599970764
0.5999707407
0.5999707202
0.5999707132
0.5999707239
0.5999707466
0.5999707703
0.5999707859
0.5999707758
0.5999707596
0.5999707352
0.5999707136
0.5999707063
0.5999707179
0.5999707419
0.5999707669
0.5999707833
0.5999707812
0.5999707664
0.5999707442
0.5999707247
0.5999707184
0.5999707289
0.5999707508
0.5999707736
0.5999707887
0.599970793
0.599970781
0.5999707632
0.5999707477
0.5999707428
0.5999707513
0.5999707688
0.5999707872
0.5999707996
0.5999708056
0.5999707965
0.5999707831
0.5999707716
0.599970768
0.5999707744
0.5999707876
0.5999708016
0.5999708111
0.599970814
0.5999708068
0.5999707962
0.5999707872
0.5999707845
0.5999707896
0.5999708001
0.5999708113
0.5999708189
)
;
    }
    procBoundary1to0
    {
        type            processor;
        value           nonuniform List<scalar> 
97
(
0.5999708674
0.5999708674
0.5999708668
0.5999708657
0.5999708642
0.5999708634
0.5999708643
0.5999708658
0.599970867
0.5999708675
0.5999708678
0.5999708653
0.5999708653
0.5999708653
0.5999708626
0.5999708588
0.5999708564
0.5999708592
0.5999708632
0.5999708658
0.599970867
0.5999708672
0.5999708659
0.5999708536
0.5999708536
0.5999708536
0.5999708418
0.5999708336
0.5999708444
0.5999708565
0.5999708631
0.5999708658
0.5999708664
0.5999708637
0.5999708565
0.599970791
0.599970791
0.599970791
0.5999707703
0.5999708106
0.5999708443
0.5999708591
0.5999708642
0.5999708659
0.5999708621
0.5999708495
0.5999708178
0.5999706399
0.5999706399
0.5999706399
0.5999707664
0.5999707664
0.5999708326
0.5999708561
0.5999708633
0.5999708663
0.5999708636
0.5999708556
0.5999708374
0.5999708138
0.5999708399
0.5999708373
0.5999708373
0.5999708373
0.5999708581
0.599970864
0.5999708671
0.5999708657
0.5999708621
0.5999708555
0.599970849
0.599970856
0.5999708624
0.599970862
0.599970862
0.599970862
0.5999708655
0.5999708677
0.5999708671
0.5999708657
0.5999708636
0.599970862
0.5999708637
0.5999708658
0.5999708672
0.5999708667
0.5999708667
0.5999708667
0.5999708681
0.5999708677
0.5999708671
0.5999708663
0.5999708658
0.5999708664
0.5999708672
0.5999708678
0.5999708681
)
;
    }
}


// ************************************************************************* //
