/*--------------------------------*- C++ -*----------------------------------*\
| =========                 |                                                 |
| \\      /  F ield         | OpenFOAM: The Open Source CFD Toolbox           |
|  \\    /   O peration     | Version:  4.x                                   |
|   \\  /    A nd           | Web:      www.OpenFOAM.org                      |
|    \\/     M anipulation  |                                                 |
\*---------------------------------------------------------------------------*/
FoamFile
{
    version     2.0;
    format      ascii;
    class       volScalarField;
    location    "5000";
    object      CO;
}
// * * * * * * * * * * * * * * * * * * * * * * * * * * * * * * * * * * * * * //

dimensions      [0 0 0 0 0 0 0];

internalField   nonuniform List<scalar> 
1174
(
0.3719602134
0.371957468
0.3719535877
0.3719485225
0.3719423249
0.3719351309
0.371927132
0.3719185452
0.3719095922
0.3719004809
0.3718914045
0.3718825678
0.3718743336
0.3718678593
0.3719576284
0.3719532194
0.3719473429
0.3719401341
0.3719318407
0.3719227634
0.3719132087
0.371903455
0.371893738
0.3718842449
0.3718751245
0.37186652
0.3718587059
0.3718526708
0.3719519119
0.3719441024
0.371934433
0.3719234474
0.3719117358
0.371899829
0.3718881475
0.3718769919
0.3718665528
0.3718569347
0.3718481818
0.3718403211
0.3718334784
0.3718283527
0.371943522
0.371931372
0.3719174144
0.3719026706
0.3718879919
0.3718739917
0.3718610541
0.3718493771
0.3718390238
0.3718299683
0.3718221329
0.3718154302
0.371809849
0.3718058076
0.3719375207
0.3719229824
0.3719071155
0.3718910372
0.3718755586
0.3718611974
0.3718482361
0.3718367849
0.3718268354
0.3718183054
0.3718110752
0.3718050187
0.3718000789
0.3717965617
0.371943522
0.3719313719
0.3719174145
0.3719026708
0.3718879923
0.3718739924
0.371861055
0.3718493779
0.3718390244
0.3718299686
0.3718221339
0.3718154312
0.3718098499
0.3718058085
0.3719519121
0.371944103
0.3719344332
0.3719234479
0.3719117364
0.3718998294
0.3718881487
0.371876993
0.3718665542
0.371856936
0.3718481832
0.3718403228
0.37183348
0.3718283541
0.3719576287
0.3719532195
0.3719473434
0.3719401344
0.3719318413
0.3719227643
0.3719132096
0.3719034562
0.371893739
0.3718842463
0.3718751262
0.3718665217
0.3718587077
0.3718526729
0.3719602134
0.371957468
0.3719535879
0.3719485227
0.3719423254
0.3719351318
0.3719271327
0.3719185463
0.3719095932
0.3719004823
0.371891406
0.3718825697
0.3718743351
0.3718678613
0.3719606031
0.3719576285
0.3719532193
0.3719473429
0.3719401342
0.3719318408
0.3719227636
0.3719132089
0.3719034552
0.3718937381
0.3718842451
0.3718751247
0.3718665202
0.3718587055
0.3718526706
0.3719517909
0.3719440311
0.3719345626
0.3719239539
0.3719127768
0.3719015133
0.3718905235
0.3718800479
0.3718702287
0.3718611362
0.3718527964
0.3718452315
0.3718385746
0.3718335432
0.3719370811
0.3719219724
0.3719055396
0.371889175
0.3718738338
0.371860038
0.3718479791
0.3718376333
0.371828859
0.3718214643
0.3718152504
0.3718100446
0.3718057662
0.3718026878
0.3719108931
0.371885728
0.3718617847
0.3718408584
0.37182358
0.3718098704
0.371799307
0.3717913517
0.3717854757
0.3717812136
0.3717781813
0.3717760731
0.371774657
0.3717738091
0.3718861365
0.3718558283
0.371830137
0.3718097453
0.3717942544
0.3717828813
0.3717747914
0.3717692338
0.3717655859
0.3717633511
0.3717621439
0.3717616636
0.371761662
0.3717618746
0.3719108939
0.3718857288
0.3718617857
0.3718408593
0.3718235813
0.3718098722
0.3717993084
0.3717913532
0.371785477
0.3717812152
0.3717781828
0.3717760742
0.3717746582
0.3717738107
0.3719370821
0.3719219733
0.3719055408
0.3718891761
0.371873835
0.3718600395
0.3718479808
0.3718376351
0.371828861
0.3718214666
0.3718152528
0.3718100471
0.3718057687
0.3718026902
0.3719517913
0.3719440315
0.3719345631
0.3719239545
0.3719127775
0.3719015146
0.3718905251
0.3718800498
0.3718702307
0.3718611382
0.3718527988
0.3718452341
0.3718385777
0.3718335461
0.3719576289
0.3719532196
0.3719473431
0.3719401346
0.3719318414
0.3719227648
0.3719132098
0.3719034564
0.3718937395
0.371884247
0.371875127
0.3718665226
0.3718587086
0.3718526738
0.3719575222
0.3719519121
0.3719441029
0.3719344333
0.3719234476
0.3719117361
0.3718998292
0.371888148
0.3718769922
0.3718665534
0.371856935
0.371848182
0.3718403214
0.3718334783
0.3718283522
0.3719492714
0.3719370816
0.3719219725
0.3719055401
0.3718891753
0.3718738342
0.3718600386
0.3718479796
0.3718376333
0.3718288594
0.3718214651
0.3718152507
0.3718100448
0.3718057662
0.3718026879
0.3718935527
0.3718616078
0.3718326595
0.3718089067
0.3717908096
0.3717778539
0.3717691258
0.3717636497
0.3717605559
0.3717591365
0.3717588458
0.3717592729
0.3717600882
0.371760914
0.3717965618
0.3717425002
0.3717051676
0.3716830876
0.3716726746
0.3716703026
0.3716730414
0.3716787638
0.3716860265
0.3716938943
0.3717017826
0.3717093162
0.3717161382
0.3717213676
0.3716692834
0.3716153894
0.3715921818
0.371588021
0.3715945753
0.3716065919
0.3716209526
0.371635881
0.3716504062
0.3716640301
0.3716765206
0.3716877629
0.3716975466
0.3717048681
0.3717965643
0.3717425031
0.3717051708
0.3716830908
0.3716726778
0.3716703059
0.3716730442
0.3716787666
0.3716860291
0.3716938966
0.3717017851
0.3717093186
0.3717161403
0.3717213697
0.3718935547
0.3718616096
0.3718326615
0.3718089087
0.3717908121
0.3717778569
0.3717691285
0.371763653
0.3717605596
0.3717591402
0.3717588489
0.3717592761
0.3717600918
0.3717609175
0.371937082
0.3719219729
0.3719055404
0.3718891765
0.3718738353
0.37186004
0.3718479815
0.371837636
0.3718288622
0.3718214676
0.371815254
0.3718100486
0.3718057702
0.371802692
0.371951912
0.3719441028
0.3719344335
0.371923448
0.3719117368
0.3718998305
0.3718881495
0.3718769942
0.3718665559
0.3718569382
0.3718481855
0.3718403251
0.3718334825
0.3718283569
0.3719528875
0.3719435223
0.371931372
0.3719174146
0.3719026707
0.3718879926
0.3718739925
0.3718610549
0.3718493777
0.3718390242
0.3718299688
0.3718221334
0.3718154308
0.3718098495
0.3718058079
0.3719340232
0.3719108935
0.3718857286
0.3718617851
0.3718408588
0.3718235806
0.3718098713
0.3717993075
0.371791352
0.3717854761
0.371781214
0.3717781816
0.3717760733
0.3717746572
0.3717738096
0.3718624572
0.3717965628
0.3717425013
0.3717051686
0.3716830887
0.3716726755
0.3716703033
0.3716730417
0.3716787645
0.3716860269
0.3716938947
0.3717017831
0.3717093169
0.3717161385
0.3717213676
0.3714635259
0.3713951367
0.371383566
0.3714028588
0.3714359828
0.3714733023
0.3715099194
0.3715436411
0.3715737058
0.3716000531
0.3716229255
0.371642621
0.371659176
0.3716712756
0.3708087842
0.3708934198
0.3710242385
0.3711499193
0.3712568396
0.3713441323
0.3714145875
0.3714715232
0.3715178411
0.3715558431
0.3715872806
0.3716134072
0.371634812
0.3716502036
0.3714635357
0.3713951439
0.3713835719
0.3714028645
0.3714359881
0.3714733075
0.3715099242
0.3715436455
0.3715737095
0.3716000563
0.3716229284
0.3716426241
0.3716591789
0.3716712784
0.3717965641
0.3717425037
0.371705172
0.3716830927
0.3716726799
0.3716703087
0.3716730472
0.3716787698
0.3716860323
0.3716939
0.3717017881
0.3717093213
0.3717161432
0.3717213726
0.3719108938
0.3718857295
0.3718617863
0.3718408609
0.3718235828
0.3718098742
0.3717993112
0.3717913563
0.3717854803
0.3717812187
0.3717781865
0.3717760783
0.3717746624
0.3717738148
0.371943522
0.3719313724
0.3719174151
0.3719026716
0.3718879936
0.3718739939
0.3718610569
0.3718493805
0.3718390276
0.3718299726
0.3718221378
0.3718154354
0.3718098546
0.3718058131
0.3719494033
0.3719375213
0.3719229832
0.3719071161
0.3718910382
0.3718755594
0.3718611982
0.3718482373
0.3718367858
0.371826836
0.3718183066
0.371811076
0.3718050198
0.37180008
0.3717965624
0.3719180752
0.3718861372
0.3718558292
0.3718301383
0.371809746
0.3717942555
0.3717828826
0.3717747924
0.3717692347
0.3717655868
0.371763352
0.3717621448
0.3717616642
0.3717616629
0.3717618754
0.3717648109
0.3716692847
0.3716153916
0.3715921841
0.3715880227
0.371594577
0.3716065936
0.3716209542
0.3716358818
0.371650407
0.3716640314
0.3716765217
0.3716877638
0.3716975472
0.3717048687
0.3709259181
0.370808792
0.3708934251
0.3710242425
0.3711499221
0.371256842
0.3713441341
0.3714145887
0.3714715245
0.3715178417
0.3715558437
0.3715872809
0.3716134073
0.3716348126
0.3716502043
0.3679852616
0.3694181845
0.3702129211
0.3706787335
0.3709674882
0.3711564774
0.371286534
0.3713800881
0.3714499662
0.3715038032
0.3715463143
0.3715804461
0.371607722
0.3716270321
0.3708087843
0.3708934294
0.3710242497
0.3711499298
0.3712568491
0.3713441407
0.3714145952
0.37147153
0.3715178467
0.3715558483
0.3715872849
0.3716134111
0.3716348159
0.3716502072
0.3716692823
0.3716153924
0.3715921871
0.3715880276
0.371594583
0.3716066001
0.3716209607
0.3716358885
0.3716504133
0.3716640371
0.3716765276
0.3716877693
0.3716975529
0.3717048743
0.3718861358
0.3718558289
0.3718301388
0.3718097483
0.3717942583
0.3717828862
0.3717747964
0.3717692395
0.3717655916
0.3717633573
0.3717621499
0.3717616697
0.3717616684
0.3717618815
0.3719375206
0.3719229828
0.3719071159
0.3718910385
0.3718755605
0.3718612002
0.3718482395
0.3718367889
0.3718268397
0.3718183107
0.3718110808
0.3718050247
0.3718000852
0.3717965683
0.3719528873
0.3719435225
0.3719313726
0.3719174151
0.3719026716
0.3718879932
0.3718739932
0.3718610557
0.3718493787
0.3718390254
0.3718299698
0.3718221348
0.3718154323
0.3718098511
0.3718058098
0.3719340238
0.3719108945
0.37188573
0.3718617866
0.3718408605
0.3718235821
0.371809873
0.3717993095
0.3717913542
0.3717854782
0.3717812159
0.3717781836
0.3717760752
0.3717746594
0.3717738117
0.3718624612
0.3717965667
0.3717425056
0.371705173
0.3716830929
0.3716726795
0.3716703074
0.3716730459
0.371678768
0.3716860303
0.371693898
0.3717017863
0.3717093197
0.3717161413
0.3717213707
0.3716164753
0.3714635428
0.3713951497
0.3713835765
0.3714028684
0.3714359917
0.3714733099
0.371509926
0.3715436473
0.3715737112
0.3716000579
0.3716229299
0.3716426254
0.3716591799
0.3716712796
0.3709259201
0.3708087954
0.3708934366
0.3710242548
0.3711499331
0.3712568515
0.3713441425
0.3714145962
0.3714715308
0.3715178478
0.3715558488
0.3715872857
0.3716134119
0.3716348166
0.3716502081
0.3716164725
0.3714635431
0.3713951525
0.3713835812
0.3714028734
0.371435997
0.3714733153
0.3715099313
0.371543652
0.3715737155
0.3716000621
0.3716229337
0.371642629
0.3716591833
0.3716712823
0.371796562
0.3717425045
0.3717051747
0.3716830966
0.3716726844
0.3716703126
0.3716730512
0.3716787737
0.371686036
0.3716939037
0.3717017918
0.3717093249
0.3717161464
0.3717213757
0.3719108927
0.3718857288
0.3718617865
0.3718408617
0.3718235842
0.3718098761
0.3717993132
0.3717913587
0.3717854829
0.371781221
0.3717781891
0.3717760808
0.3717746647
0.3717738173
0.3719435219
0.3719313721
0.3719174154
0.3719026719
0.371887994
0.3718739949
0.3718610582
0.3718493817
0.3718390291
0.3718299742
0.3718221398
0.3718154373
0.3718098562
0.3718058152
0.371957522
0.3719519125
0.3719441029
0.3719344335
0.3719234484
0.3719117373
0.3718998302
0.3718881491
0.3718769937
0.3718665551
0.371856937
0.3718481842
0.3718403238
0.3718334811
0.3718283552
0.371949272
0.3719370825
0.3719219737
0.3719055414
0.3718891772
0.3718738362
0.3718600405
0.371847982
0.371837636
0.3718288618
0.3718214676
0.3718152539
0.3718100484
0.3718057699
0.3718026915
0.371923982
0.3718935561
0.3718616111
0.3718326632
0.3718089103
0.3717908137
0.3717778582
0.3717691301
0.3717636543
0.3717605604
0.3717591414
0.3717588505
0.3717592776
0.371760093
0.3717609186
0.3718624612
0.3717965676
0.3717425066
0.371705175
0.3716830955
0.3716726827
0.3716703105
0.3716730491
0.3716787713
0.3716860339
0.3716939011
0.3717017894
0.3717093227
0.3717161444
0.3717213733
0.3717648118
0.3716692884
0.3716153977
0.3715921915
0.3715880314
0.3715945857
0.371606602
0.3716209624
0.37163589
0.3716504147
0.3716640383
0.3716765284
0.3716877702
0.3716975535
0.3717048749
0.3718624615
0.3717965683
0.3717425085
0.3717051775
0.3716830983
0.3716726854
0.3716703137
0.371673052
0.3716787743
0.3716860369
0.3716939043
0.3717017925
0.3717093256
0.3717161469
0.3717213763
0.3719239805
0.3718935552
0.3718616109
0.3718326637
0.3718089123
0.3717908162
0.3717778616
0.3717691337
0.371763658
0.3717605647
0.3717591456
0.3717588549
0.3717592822
0.3717600973
0.371760923
0.3719370812
0.3719219731
0.3719055412
0.3718891773
0.3718738375
0.3718600424
0.3718479843
0.3718376391
0.3718288658
0.3718214715
0.371815258
0.3718100528
0.3718057745
0.3718026962
0.3719519118
0.3719441026
0.3719344334
0.3719234485
0.3719117376
0.3718998316
0.371888151
0.371876996
0.3718665579
0.3718569405
0.3718481884
0.3718403281
0.3718334858
0.3718283602
0.3719606028
0.3719576287
0.3719532198
0.3719473435
0.371940135
0.3719318419
0.3719227649
0.3719132103
0.371903457
0.3718937399
0.3718842469
0.3718751269
0.3718665226
0.3718587085
0.3718526741
0.3719574398
0.3719517912
0.3719440315
0.3719345635
0.3719239548
0.371912778
0.3719015151
0.3718905255
0.37188005
0.3718702313
0.3718611391
0.3718527997
0.3718452349
0.3718385785
0.3718335473
0.371949272
0.3719370823
0.371921974
0.3719055419
0.3718891776
0.3718738369
0.3718600417
0.3718479829
0.3718376374
0.3718288636
0.3718214691
0.3718152553
0.3718100496
0.3718057713
0.3718026932
0.3719340235
0.3719108948
0.3718857307
0.3718617878
0.3718408626
0.3718235849
0.3718098762
0.371799313
0.371791358
0.3717854818
0.3717812203
0.371778188
0.3717760794
0.3717746632
0.3717738159
0.3719180753
0.3718861384
0.3718558316
0.3718301415
0.3718097506
0.3717942607
0.3717828883
0.3717747984
0.3717692411
0.3717655932
0.3717633583
0.3717621511
0.371761671
0.3717616695
0.3717618823
0.3719340238
0.3719108955
0.3718857315
0.3718617889
0.3718408635
0.371823586
0.3718098775
0.3717993149
0.3717913596
0.3717854839
0.3717812221
0.37177819
0.3717760815
0.3717746657
0.3717738181
0.3719492721
0.3719370824
0.3719219742
0.3719055424
0.3718891784
0.3718738382
0.3718600435
0.3718479852
0.3718376397
0.3718288664
0.3718214722
0.3718152585
0.3718100529
0.3718057746
0.3718026965
0.37195744
0.3719517911
0.3719440318
0.3719345638
0.3719239554
0.3719127789
0.3719015163
0.3718905274
0.3718800524
0.371870234
0.3718611418
0.3718528028
0.3718452383
0.3718385824
0.3718335513
0.3719576284
0.3719532195
0.3719473432
0.3719401348
0.371931842
0.3719227655
0.3719132115
0.3719034584
0.371893742
0.37188425
0.37187513
0.371866526
0.3718587124
0.3718526781
0.3719619771
0.3719602132
0.3719574679
0.371953588
0.371948523
0.3719423258
0.3719351319
0.3719271331
0.3719185469
0.3719095939
0.371900483
0.3718914067
0.3718825703
0.3718743362
0.3718678625
0.3719606028
0.371957629
0.3719532195
0.3719473433
0.3719401349
0.3719318416
0.3719227649
0.3719132103
0.3719034571
0.3718937404
0.3718842479
0.3718751279
0.3718665234
0.3718587095
0.371852675
0.3719575219
0.3719519124
0.3719441033
0.3719344341
0.3719234491
0.3719117381
0.3718998315
0.3718881505
0.3718769953
0.3718665567
0.3718569389
0.3718481863
0.3718403262
0.3718334838
0.3718283579
0.3719528872
0.3719435226
0.371931373
0.3719174163
0.3719026728
0.3718879949
0.3718739953
0.3718610583
0.3718493822
0.3718390289
0.3718299738
0.3718221391
0.3718154367
0.3718098555
0.3718058144
0.3719494031
0.3719375215
0.3719229843
0.3719071178
0.3718910406
0.3718755626
0.3718612019
0.3718482415
0.3718367908
0.3718268412
0.3718183119
0.3718110819
0.3718050258
0.3718000865
0.3717965694
0.3719528875
0.3719435227
0.3719313733
0.3719174165
0.3719026733
0.3718879957
0.3718739965
0.3718610596
0.371849383
0.3718390304
0.3718299754
0.3718221404
0.3718154383
0.3718098573
0.371805816
0.3719575221
0.3719519123
0.3719441034
0.3719344345
0.3719234492
0.3719117386
0.3718998327
0.3718881522
0.3718769972
0.3718665588
0.3718569412
0.3718481889
0.3718403288
0.3718334864
0.3718283605
0.3719606031
0.3719576288
0.3719532197
0.3719473435
0.3719401354
0.3719318425
0.3719227661
0.3719132119
0.3719034589
0.3718937425
0.3718842501
0.3718751303
0.3718665261
0.3718587127
0.371852678
0.3719619772
0.3719602132
0.3719574681
0.371953588
0.3719485229
0.3719423258
0.3719351325
0.3719271338
0.3719185479
0.3719095955
0.3719004853
0.3718914094
0.3718825734
0.3718743395
0.371867866
)
;

boundaryField
{
    top
    {
        type            zeroGradient;
    }
    bottom
    {
        type            zeroGradient;
    }
    side-walls
    {
        type            zeroGradient;
    }
    inlet
    {
        type            zeroGradient;
    }
    outlet
    {
        type            zeroGradient;
    }
    procBoundary1to0
    {
        type            processor;
        value           nonuniform List<scalar> 
97
(
0.3719619775
0.3719619775
0.3719606031
0.3719575224
0.3719528876
0.3719494039
0.3719528879
0.3719575224
0.3719606033
0.3719619772
0.3719623593
0.3719574395
0.3719574395
0.3719574395
0.3719492721
0.3719340246
0.3719180775
0.371934025
0.3719492727
0.3719574401
0.3719606032
0.371960966
0.3719573511
0.3719239805
0.3719239805
0.3719239805
0.3718624625
0.3717648218
0.3718624659
0.3719239837
0.3719492727
0.3719575225
0.3719589213
0.3719509683
0.3719231078
0.37161647
0.37161647
0.37161647
0.3709259821
0.3716164907
0.3718624654
0.3719340249
0.371952888
0.3719574582
0.3719449349
0.371892097
0.3716825614
0.3652572006
0.3652572006
0.3652572006
0.3709259795
0.3709259795
0.3717648204
0.3719180768
0.3719494036
0.3719589208
0.3719509685
0.3719231074
0.3718419741
0.3716825589
0.3718419759
0.371862459
0.371862459
0.371862459
0.371934024
0.3719528875
0.3719609658
0.371957351
0.3719467425
0.3719231073
0.3718920971
0.3719231078
0.3719467428
0.3719492714
0.3719492714
0.3719492714
0.3719575218
0.3719623592
0.3719609364
0.371957351
0.3719509684
0.3719449348
0.3719509685
0.3719573513
0.3719609364
0.3719606029
0.3719606029
0.3719606029
0.3719629894
0.371962359
0.3719609655
0.3719589206
0.3719574577
0.3719589209
0.3719609657
0.3719623591
0.3719629892
)
;
    }
}


// ************************************************************************* //
