/*--------------------------------*- C++ -*----------------------------------*\
| =========                 |                                                 |
| \\      /  F ield         | OpenFOAM: The Open Source CFD Toolbox           |
|  \\    /   O peration     | Version:  4.x                                   |
|   \\  /    A nd           | Web:      www.OpenFOAM.org                      |
|    \\/     M anipulation  |                                                 |
\*---------------------------------------------------------------------------*/
FoamFile
{
    version     2.0;
    format      ascii;
    class       volScalarField;
    location    "5000";
    object      CO2;
}
// * * * * * * * * * * * * * * * * * * * * * * * * * * * * * * * * * * * * * //

dimensions      [0 0 0 0 0 0 0];

internalField   nonuniform List<scalar> 
1174
(
0.006511466723
0.006515017161
0.006520035304
0.006526586007
0.006534601306
0.006543905253
0.006554250074
0.006565355699
0.006576934709
0.006588719204
0.006600458464
0.006611888276
0.006622538643
0.006630913243
0.006514810012
0.006520511307
0.006528110934
0.006537433776
0.006548159125
0.006559898936
0.00657225571
0.006584870459
0.006597437745
0.006609716209
0.006621512849
0.006632642373
0.006642749751
0.006650556644
0.00652220235
0.006532301528
0.006544805646
0.006559012178
0.00657415789
0.006589556673
0.006604664499
0.006619092144
0.006632593896
0.006645034154
0.006656355985
0.006666524223
0.006675375637
0.006682006047
0.006533051816
0.006548763322
0.006566812658
0.006585878981
0.006604862029
0.006622968108
0.006639700338
0.00665480252
0.006668193746
0.006679906731
0.006690042534
0.006698713363
0.006705934072
0.006711162393
0.00654081155
0.006559611785
0.00658012972
0.006600922515
0.006620939592
0.00663951226
0.006656275414
0.006671085972
0.006683954654
0.006694988844
0.006704341635
0.006712177249
0.006718568641
0.006723119224
0.006533051825
0.006548763534
0.006566812585
0.006585878627
0.006604861113
0.006622966504
0.006639698093
0.006654800671
0.006668192176
0.006679906087
0.006690040238
0.006698710994
0.006705931794
0.006711160386
0.006522201842
0.006532299991
0.00654480517
0.006559011157
0.006574156764
0.006589555696
0.006604661559
0.006619089587
0.00663259055
0.006645031221
0.006656352589
0.006666520099
0.006675372011
0.006682002786
0.006514809489
0.006520511315
0.006528109809
0.006537433295
0.006548157928
0.006559896846
0.006572253819
0.006584867698
0.006597435648
0.006609712975
0.006621508966
0.006632638371
0.006642745564
0.006650551515
0.006511466764
0.006515017135
0.006520034951
0.006526585408
0.006534599993
0.006543903135
0.006554248329
0.006565353096
0.006576932344
0.006588715734
0.006600454884
0.006611883827
0.006622535009
0.006630908538
0.006510962593
0.006514809827
0.006520511461
0.006528110955
0.006537433621
0.006548158886
0.006559898476
0.006572255402
0.006584869956
0.006597437494
0.006609715921
0.00662151227
0.006632641948
0.006642750752
0.006650557044
0.006522358516
0.006532393379
0.00654463772
0.00655835706
0.00657281142
0.006587378569
0.006601591734
0.006615140246
0.006627840406
0.006639600847
0.006650388484
0.006660173893
0.006668785577
0.006675294434
0.006541381011
0.006560918007
0.006582168387
0.006603330729
0.0066231704
0.00664101235
0.006656608467
0.006669989525
0.006681338849
0.006690904503
0.006698943417
0.006705678971
0.00671121466
0.006715198017
0.006575243937
0.00660778505
0.006638746794
0.00666580838
0.006688153558
0.006705884795
0.006719547681
0.006729838132
0.006737439916
0.006742955224
0.006746880442
0.006749610006
0.006751445083
0.006752544646
0.006607254353
0.006646445679
0.006679668672
0.006706038957
0.006726073541
0.006740783571
0.006751248039
0.006758438612
0.006763159791
0.006766054048
0.006767618766
0.006768244036
0.006768250018
0.006767978027
0.00657524239
0.006607783617
0.006638744747
0.006665806594
0.00668815063
0.006705880629
0.006719544711
0.006729834877
0.006737437023
0.006742951675
0.006746876952
0.006749607548
0.006751442251
0.006752540865
0.006541378759
0.00656091622
0.006582165664
0.006603328469
0.006623167815
0.006641009158
0.006656604449
0.006669985342
0.006681334188
0.006690899176
0.006698937633
0.006705672809
0.006711208633
0.006715192201
0.00652235769
0.006532392548
0.006544637003
0.006558355847
0.006572810112
0.006587375632
0.006601588034
0.006615135895
0.006627835717
0.006639596187
0.00665038269
0.006660167838
0.006668778256
0.006675287399
0.006514808924
0.006520510784
0.006528110536
0.006537432561
0.006548157575
0.006559895456
0.006572253283
0.006584867246
0.006597434446
0.006609711433
0.00662150693
0.006632636012
0.006642743352
0.006650549345
0.006514946957
0.006522201873
0.006532300273
0.006544804776
0.006559011612
0.006574157393
0.006589556056
0.006604663288
0.006619091533
0.006632592561
0.006645033488
0.006656355403
0.006666523508
0.006675376038
0.006682007448
0.006525616898
0.006541379688
0.006560918054
0.006582167293
0.006603330173
0.006623169419
0.006641010921
0.006656607005
0.006669989642
0.006681337859
0.0066909026
0.006698942592
0.006705678347
0.006711214674
0.006715197818
0.006597667356
0.006638974577
0.006676408265
0.006707124888
0.006730528806
0.00674728537
0.006758574867
0.006765660055
0.006769665141
0.006771504881
0.006771884642
0.006771336244
0.006770285914
0.006769220992
0.006723080727
0.006792986045
0.006841261985
0.006869816943
0.00688328637
0.006886358659
0.006882821938
0.006875427764
0.006866041098
0.006855872131
0.006845676703
0.006835939224
0.00682712155
0.006820361998
0.006887648432
0.006957338349
0.006987352513
0.006992738822
0.0069842707
0.006968738919
0.00695017568
0.006930877878
0.006912101014
0.006894489487
0.006878343338
0.006863810203
0.006851163091
0.006841698666
0.006723076184
0.006792980553
0.006841255411
0.006869810194
0.006883279307
0.006886351236
0.00688281558
0.006875421312
0.006866035125
0.006855866784
0.006845670768
0.006835933451
0.006827116583
0.006820357023
0.006597663752
0.006638971224
0.006676404654
0.006707121017
0.00673052352
0.006747278682
0.006758568932
0.006765652655
0.006769656694
0.006771496077
0.006771877342
0.00677132878
0.006770277467
0.006769212814
0.006541379068
0.006560917144
0.006582166896
0.006603327521
0.006623167085
0.006641007902
0.006656602742
0.006669983189
0.006681331318
0.00669089685
0.006698934801
0.006705669147
0.006711204924
0.006715187744
0.006522202273
0.006532300712
0.006544804581
0.00655901079
0.006574155675
0.00658955321
0.006604659765
0.006619086738
0.006632586529
0.006645025808
0.006656347087
0.006666514623
0.006675366007
0.006681995836
0.006520940166
0.006533050983
0.00654876316
0.00656681225
0.006585878782
0.006604860301
0.006622966103
0.006639698271
0.006654801093
0.006668192828
0.006679905535
0.006690041268
0.006698712063
0.006705932878
0.006711161863
0.006545333853
0.006575242816
0.006607783554
0.006638745947
0.006665807507
0.006688152119
0.006705882662
0.006719546664
0.006729837574
0.006737439137
0.006742954485
0.006746879689
0.006749609863
0.006751444603
0.006752543489
0.006637874948
0.006723078374
0.006792983583
0.006841259868
0.006869814566
0.006883284273
0.006886356993
0.006882821198
0.006875426013
0.006866040185
0.006855871267
0.006845675431
0.00683593765
0.006827120778
0.006820362349
0.00715370142
0.007242130944
0.007257098332
0.007232160879
0.007189338735
0.007141090977
0.007093750143
0.007050152712
0.007011282965
0.006977219717
0.00694764915
0.006922185902
0.006900783076
0.006885140205
0.008000248882
0.007890831932
0.007721700505
0.007559208056
0.007420970667
0.007308109041
0.007217016716
0.007143404106
0.007083518911
0.007034386169
0.006993740535
0.006959961813
0.006932288375
0.006912388849
0.007153682947
0.007242117197
0.007257086661
0.007232148699
0.007189327034
0.007141078752
0.00709373894
0.007050142219
0.007011273967
0.006977211856
0.006947642193
0.00692217849
0.006900776001
0.006885133332
0.006723076417
0.006792978939
0.006841252667
0.006869805661
0.00688327437
0.00688634461
0.006882808438
0.006875413664
0.006866027531
0.00685585865
0.006845663659
0.006835927125
0.006827109592
0.006820350234
0.006575242314
0.006607781776
0.006638743227
0.006665802744
0.006688147202
0.006705876063
0.006719537725
0.006729827305
0.006737429058
0.006742943293
0.006746868079
0.0067495976
0.006751432194
0.006752530948
0.006533051773
0.006548762292
0.006566811251
0.006585876648
0.006604858203
0.006622962939
0.006639693561
0.006654794551
0.006668184696
0.006679896316
0.006690030837
0.006698700839
0.006705920414
0.006711149091
0.006525445507
0.006540810242
0.006559609961
0.006580128667
0.006600920309
0.006620938033
0.006639510553
0.006656272778
0.006671083881
0.006683953459
0.006694986071
0.006704340122
0.00671217496
0.00671856602
0.006723117785
0.006565955089
0.006607252701
0.006646443628
0.006679665614
0.006706037507
0.006726071034
0.006740780515
0.006751245982
0.006758436801
0.006763157787
0.006766052031
0.006767616799
0.006768242704
0.006768247941
0.006767976151
0.006764127361
0.006887644349
0.006957333117
0.00698734726
0.006992735078
0.006984267054
0.006968735081
0.006950172154
0.006930876381
0.006912099368
0.006894486562
0.006878340711
0.006863808282
0.006851161864
0.006841697439
0.007848785496
0.008000231023
0.007890820307
0.007721691672
0.007559202276
0.007420965295
0.007308105172
0.007217014346
0.007143401355
0.007083517849
0.007034384972
0.006993740221
0.00695996181
0.006932287086
0.006912387294
0.01165089405
0.009798229064
0.008770692965
0.008168431815
0.007795092508
0.007550743137
0.007382589041
0.007261630035
0.007171282905
0.007101675681
0.007046712213
0.007002582672
0.006967317687
0.006942351101
0.008000249759
0.00789081363
0.00772167674
0.007559184976
0.007420949038
0.007308089574
0.007216998752
0.007143388261
0.007083505757
0.007034373855
0.00699373058
0.006959952697
0.006932279201
0.006912380224
0.006887650755
0.006957332059
0.006987340686
0.006992724002
0.006984252901
0.006968719717
0.006950156818
0.006930860242
0.006912084495
0.006894472889
0.006878326496
0.006863795057
0.006851148001
0.006841683838
0.006607255823
0.006646444245
0.006679664407
0.006706031976
0.006726064164
0.006740771878
0.006751236196
0.00675842514
0.006763146115
0.006766038922
0.006767604401
0.006768229324
0.006768234507
0.006767961226
0.006540811665
0.006559610917
0.006580128989
0.006600919413
0.006620935079
0.006639505728
0.006656267323
0.006671076312
0.006683944477
0.006694975987
0.006704328128
0.006712162894
0.006718553482
0.00672310318
0.006520940822
0.006533050745
0.006548762056
0.006566811308
0.00658587695
0.00660485928
0.006622964803
0.006639696649
0.006654799021
0.006668190226
0.006679903411
0.006690038178
0.006698708631
0.006705929153
0.006711157355
0.006545332854
0.006575240932
0.00660778088
0.006638742828
0.006665804031
0.006688149272
0.006705879103
0.006719542223
0.006729832814
0.006737434427
0.006742950327
0.006746875333
0.006749605403
0.006751439736
0.006752538664
0.006637866831
0.006723070543
0.006792974988
0.006841250652
0.006869805701
0.00688327587
0.006886348082
0.006882811766
0.006875418314
0.006866032587
0.006855863849
0.006845668068
0.006835931284
0.006827114538
0.006820355095
0.006955924839
0.007153666372
0.007242104613
0.007257076767
0.007232140161
0.007189319058
0.007141073743
0.007093735168
0.007050138356
0.007011270379
0.006977208316
0.006947638914
0.006922175562
0.006900773869
0.006885130652
0.007848781096
0.008000224173
0.007890797145
0.007721665222
0.007559177632
0.00742094371
0.007308085608
0.007216996648
0.007143386535
0.007083503484
0.007034372753
0.006993728698
0.006959950826
0.006932277525
0.006912378058
0.006955930256
0.007153665627
0.007242097981
0.007257065418
0.007232128097
0.007189306325
0.007141060646
0.007093722358
0.007050127075
0.007011259984
0.006977198289
0.00694762968
0.006922166995
0.006900765709
0.006885124085
0.006723080604
0.006792976915
0.006841246479
0.006869796709
0.006883263829
0.006886335227
0.00688279887
0.006875404374
0.006866018675
0.006855849795
0.006845654532
0.006835918492
0.006827102007
0.006820342725
0.006575244935
0.006607783327
0.006638742813
0.006665800819
0.006688143847
0.006705871403
0.006719533153
0.006729821563
0.006737422785
0.006742937701
0.006746861774
0.00674959167
0.006751426593
0.006752524829
0.006533051818
0.00654876289
0.006566810106
0.006585875842
0.006604857151
0.006622960518
0.006639690293
0.006654791637
0.006668180825
0.006679892502
0.006690025883
0.006698696249
0.006705916562
0.006711144045
0.006514947558
0.006522201093
0.006532300458
0.006544804737
0.006559009914
0.006574154565
0.006589554078
0.006604660838
0.006619088172
0.006632588726
0.006645029005
0.00665635056
0.006666517954
0.00667536949
0.006682000368
0.006525615679
0.006541377912
0.006560915564
0.006582164663
0.006603325862
0.006623165206
0.006641006818
0.006656601896
0.006669983471
0.00668133266
0.006690897063
0.006698935368
0.006705670096
0.006711206008
0.006715189441
0.006558317889
0.006597660393
0.006638967702
0.006676400538
0.006707117103
0.006730519796
0.00674727588
0.006758565188
0.006765649841
0.00676965496
0.006771493511
0.006771873667
0.006771325224
0.006770274795
0.006769210277
0.006637866681
0.006723068482
0.006792972703
0.006841246228
0.006869799698
0.006883268285
0.006886340991
0.006882804553
0.006875410462
0.006866024226
0.006855856417
0.006845660943
0.006835924274
0.006827107076
0.006820348779
0.006764125513
0.006887637076
0.006957320566
0.006987331069
0.006992715596
0.006984247204
0.006968715897
0.006950153227
0.006930857113
0.006912081217
0.006894470218
0.006878324969
0.006863792989
0.006851146759
0.006841682638
0.006637866043
0.006723066823
0.006792968095
0.006841239964
0.006869792822
0.00688326161
0.00688633286
0.006882797175
0.006875403048
0.006866016619
0.006855848662
0.006845653083
0.006835917007
0.00682710085
0.006820341549
0.006558321133
0.006597662223
0.006638967945
0.0066763992
0.006707112082
0.006730513582
0.006747267441
0.006758556398
0.006765640765
0.00676964435
0.006771483184
0.00677186301
0.006771313907
0.006770264298
0.006769199593
0.006541380794
0.006560916655
0.006582164751
0.006603325764
0.006623161721
0.006641002043
0.006656596054
0.006669975738
0.006681322631
0.006690887577
0.006698925193
0.006705659308
0.006711194659
0.006715177866
0.006522202693
0.006532301066
0.006544804751
0.006559009633
0.006574153668
0.006589550415
0.006604656231
0.006619082491
0.006632581705
0.006645020102
0.006656340111
0.006666507371
0.006675357859
0.00668198796
0.00651096342
0.006514809508
0.006520510552
0.006528109686
0.00653743179
0.006548156475
0.006559895577
0.006572252353
0.006584866199
0.006597433601
0.006609712028
0.006621507643
0.006632636653
0.006642744041
0.006650549039
0.006515053647
0.006522358261
0.006532392783
0.006544636047
0.006558355338
0.006572809247
0.006587374694
0.006601587541
0.00661513575
0.006627834504
0.006639594387
0.006650380933
0.006660166145
0.00666877662
0.006675284967
0.006525615632
0.006541378349
0.006560914664
0.00658216335
0.006603325093
0.006623163552
0.006641003908
0.006656599725
0.006669980204
0.006681328269
0.006690893451
0.006698931995
0.006705667356
0.006711202846
0.006715185201
0.006545333691
0.006575240292
0.006607779421
0.006638740136
0.006665799126
0.006688142602
0.006705871667
0.006719533945
0.006729823683
0.006737425949
0.006742939738
0.006746864802
0.006749595595
0.006751430831
0.006752528589
0.006565954766
0.006607249945
0.006646438352
0.006679658328
0.006706027035
0.006726058976
0.00674076748
0.006751231797
0.006758421586
0.006763142838
0.006766037175
0.006767602009
0.006768226729
0.006768232312
0.006767959858
0.006545332861
0.006575238607
0.006607777435
0.00663873739
0.006665797042
0.006688139875
0.00670586842
0.006719529346
0.006729819745
0.006737420905
0.006742935385
0.006746859742
0.006749590437
0.006751424537
0.006752523225
0.006525615325
0.006541378143
0.006560914183
0.006582162238
0.006603323331
0.006623160255
0.006640999553
0.006656594077
0.006669974488
0.006681321366
0.006690885796
0.006698924266
0.00670565913
0.006711194705
0.006715177281
0.00651505302
0.006522358321
0.00653239193
0.006544635168
0.006558353735
0.006572806933
0.006587371611
0.006601582905
0.006615129845
0.006627827968
0.006639587711
0.006650373192
0.006660157965
0.006668767148
0.006675274954
0.006514810055
0.006520511193
0.006528110338
0.006537432216
0.006548156354
0.00655989407
0.006572249118
0.006584862629
0.00659742839
0.006609704097
0.006621499829
0.006632628051
0.006642734204
0.006650539207
0.006509186164
0.00651146724
0.006515017468
0.006520034883
0.006526584851
0.006534599181
0.00654390305
0.006554247575
0.006565351758
0.006576930937
0.006588714347
0.006600453758
0.006611882675
0.006622532701
0.006630906004
0.006510963365
0.006514808781
0.006520511334
0.00652811032
0.006537432038
0.006548157508
0.006559895579
0.006572252449
0.006584865789
0.006597432418
0.006609709416
0.006621505051
0.006632634648
0.00664274145
0.006650546895
0.006514947678
0.006522201407
0.006532299448
0.006544803333
0.006559008465
0.006574152796
0.006589551073
0.006604657535
0.006619084456
0.006632585209
0.006645024458
0.006656345628
0.006666512305
0.006675363225
0.006681993982
0.006520940977
0.006533050502
0.0065487613
0.006566808663
0.006585874257
0.006604855528
0.006622960216
0.006639690974
0.006654791024
0.00666818219
0.006679893949
0.006690028314
0.006698698368
0.006705918784
0.006711146578
0.006525446118
0.006540809863
0.006559607684
0.006580124728
0.006600914773
0.006620930525
0.006639502339
0.006656263336
0.006671072449
0.006683941584
0.00669497377
0.006704326209
0.006712160908
0.006718550835
0.006723101191
0.006520940173
0.006533050381
0.006548760392
0.006566808202
0.006585873054
0.006604853553
0.006622957137
0.006639687717
0.00665478902
0.006668178202
0.006679889931
0.006690024888
0.006698694284
0.006705914479
0.006711142625
0.006514947233
0.006522201626
0.006532299178
0.006544802302
0.006559008238
0.006574151497
0.006589548092
0.00660465352
0.006619079773
0.006632579841
0.006645018943
0.006656339272
0.006666505886
0.006675356691
0.006681987532
0.006510962562
0.006514809211
0.00652051077
0.006528109704
0.006537430722
0.006548155172
0.006559892754
0.006572248248
0.006584861484
0.00659742728
0.006609703968
0.00662149915
0.00663262795
0.006642733782
0.006650539454
0.006509185835
0.00651146712
0.006515016905
0.006520034589
0.006526585231
0.006534599149
0.006543901664
0.006554245888
0.006565349435
0.006576927089
0.006588708651
0.006600447014
0.006611875145
0.006622524713
0.006630897203
)
;

boundaryField
{
    top
    {
        type            zeroGradient;
    }
    bottom
    {
        type            zeroGradient;
    }
    side-walls
    {
        type            zeroGradient;
    }
    inlet
    {
        type            zeroGradient;
    }
    outlet
    {
        type            zeroGradient;
    }
    procBoundary1to0
    {
        type            processor;
        value           nonuniform List<scalar> 
97
(
0.006509185097
0.006509185097
0.006510962723
0.006514946435
0.006520939933
0.006525444184
0.006520939187
0.006514946445
0.006510962229
0.006509185989
0.006508691617
0.006515054229
0.006515054229
0.006515054229
0.006525615482
0.006545330917
0.006565949568
0.006545330003
0.006525614134
0.006515052996
0.006510962312
0.006510493166
0.00651516804
0.006558321121
0.006558321121
0.006558321121
0.006637863021
0.006764101162
0.006637855901
0.00655831403
0.006525614133
0.006514946245
0.006513136874
0.006523421823
0.006559446821
0.00695593108
0.00695593108
0.00695593108
0.007848623743
0.00695588723
0.006637856771
0.006545330076
0.006520938995
0.006515029228
0.006531223422
0.006599544355
0.006870463451
0.01517743472
0.01517743472
0.01517743472
0.007848630372
0.007848630372
0.006764103969
0.006565951056
0.006525444852
0.006513138389
0.006523421679
0.006559448177
0.006664354817
0.006870470108
0.006664349926
0.006637871229
0.006637871229
0.006637871229
0.006545332099
0.006520940027
0.006510493652
0.006515168532
0.006528886522
0.00655944828
0.006599544173
0.006559446905
0.00652888565
0.006525617063
0.006525617063
0.006525617063
0.006514948004
0.006508691667
0.006510531636
0.006515168333
0.006523421892
0.00653122369
0.006523421482
0.006515167549
0.006510531685
0.006510962995
0.006510962995
0.006510962995
0.006507876636
0.006508692437
0.00651049437
0.00651313874
0.006515030559
0.006513137986
0.006510493878
0.006508692074
0.006507877008
)
;
    }
}


// ************************************************************************* //
