/*--------------------------------*- C++ -*----------------------------------*\
| =========                 |                                                 |
| \\      /  F ield         | OpenFOAM: The Open Source CFD Toolbox           |
|  \\    /   O peration     | Version:  4.x                                   |
|   \\  /    A nd           | Web:      www.OpenFOAM.org                      |
|    \\/     M anipulation  |                                                 |
\*---------------------------------------------------------------------------*/
FoamFile
{
    version     2.0;
    format      ascii;
    class       volScalarField;
    location    "5000";
    object      molarConc;
}
// * * * * * * * * * * * * * * * * * * * * * * * * * * * * * * * * * * * * * //

dimensions      [0 -3 0 0 1 0 0];

internalField   nonuniform List<scalar> 
1174
(
9.963278168
9.963277707
9.963278354
9.963278185
9.963279197
9.963279117
9.963278646
9.963277179
9.963276618
9.963276834
9.963276876
9.963275784
9.963275046
9.963275174
9.963268833
9.963268072
9.963268492
9.963268847
9.963269831
9.963270308
9.96326998
9.963269829
9.963270178
9.963269873
9.963270787
9.963270934
9.963270202
9.963270449
9.963293621
9.963294387
9.963294614
9.963294309
9.963293474
9.963293558
9.963294309
9.963294486
9.963294745
9.96329538
9.963295988
9.963294796
9.963293596
9.963293116
9.963295776
9.963294853
9.963295123
9.963295307
9.963294673
9.963295814
9.96329602
9.963295364
9.963296421
9.963295291
9.963297858
9.963298078
9.963298841
9.963297672
9.963249645
9.963248653
9.963248596
9.963248698
9.963249689
9.963248587
9.963249535
9.963249756
9.963248096
9.963249257
9.963248642
9.963249078
9.963248567
9.96324721
9.963244537
9.963243977
9.963243635
9.963241488
9.963241739
9.963242916
9.963242941
9.963243547
9.963243549
9.963244699
9.963244553
9.963244278
9.963243693
9.96324528
9.963275504
9.963274966
9.963275182
9.963275788
9.963275203
9.963275199
9.963274322
9.963273871
9.963274461
9.963275981
9.963275557
9.963276089
9.963275665
9.963276221
9.963272555
9.963272328
9.963272393
9.963272612
9.963272085
9.963271425
9.963272341
9.963270851
9.963271904
9.963271905
9.963271292
9.96327114
9.963271192
9.963271718
9.963251081
9.963250826
9.963250044
9.963250681
9.963250401
9.96324931
9.963249364
9.963248874
9.963249264
9.963248822
9.963248164
9.963248675
9.963248622
9.963249003
9.963285251
9.963286066
9.963285458
9.963283884
9.963282785
9.963282657
9.963283408
9.963283868
9.963283156
9.963283617
9.963283278
9.963281545
9.963281897
9.963283109
9.96328396
9.963262802
9.963262565
9.963260493
9.963260834
9.963260132
9.963261022
9.96326292
9.963263964
9.9632635
9.963263202
9.96326423
9.963263315
9.963263589
9.963262206
9.96324849
9.963248508
9.963249218
9.963251321
9.963250679
9.963251667
9.963251435
9.963250895
9.963250942
9.963250026
9.963250129
9.963248921
9.963248347
9.963247795
9.963305483
9.96330553
9.963305346
9.963304755
9.963306405
9.963305671
9.963306002
9.963306444
9.963305387
9.96330582
9.963307425
9.963306175
9.963306671
9.963307053
9.963281089
9.963281605
9.963282703
9.963282062
9.963280777
9.963281582
9.963280824
9.963280658
9.963281687
9.963281874
9.963281384
9.963281171
9.963280978
9.963282293
9.96330482
9.963304697
9.963303602
9.963304204
9.963303882
9.963303669
9.963305445
9.96330501
9.963305146
9.96330526
9.963304808
9.963304751
9.963305204
9.963303995
9.963237045
9.963236577
9.963236435
9.963237072
9.963236369
9.963235428
9.963235766
9.963236429
9.963235499
9.963234726
9.963234219
9.963233874
9.963233032
9.963231328
9.963308172
9.963307868
9.963308049
9.963308083
9.963307986
9.963309072
9.96330942
9.963309774
9.963309042
9.963308664
9.963308269
9.963309158
9.963309085
9.963309146
9.963245035
9.963244762
9.963245404
9.96324471
9.963244994
9.963244334
9.963246724
9.963247331
9.963247528
9.963246026
9.963245011
9.963245897
9.963245751
9.963245206
9.963281464
9.963282566
9.963281698
9.963281164
9.963280841
9.963281135
9.963280218
9.963279095
9.963279787
9.963280576
9.963279972
9.963279961
9.963280087
9.963280664
9.963280467
9.963290153
9.96328824
9.963287238
9.963288371
9.9632885
9.963288675
9.963289201
9.963289659
9.963290189
9.963288082
9.96328655
9.963286516
9.963287659
9.963288607
9.963287314
9.96329708
9.963296681
9.963296324
9.963295971
9.963296833
9.963296999
9.963297005
9.963295522
9.963297115
9.963298667
9.96329832
9.96329981
9.963299535
9.963301089
9.9632633
9.963262559
9.963263737
9.963264264
9.963263602
9.963262923
9.963262073
9.963261935
9.963261454
9.963262034
9.963263496
9.963263953
9.963265114
9.963264963
9.963326677
9.963326096
9.963326862
9.963327053
9.963327672
9.963327802
9.963326777
9.963326567
9.963325672
9.963324289
9.963324403
9.963324061
9.963323197
9.96332302
9.963282347
9.963282232
9.963280991
9.963282105
9.963282093
9.963282099
9.963282509
9.963284494
9.963284684
9.963283145
9.963282668
9.963283202
9.963283744
9.963283083
9.963318471
9.963318631
9.963318424
9.963319241
9.963318141
9.963318847
9.963318695
9.963318681
9.963319
9.963318932
9.963319532
9.963320522
9.963319215
9.963319393
9.963209875
9.96320985
9.96321082
9.963210372
9.963211444
9.963210764
9.963209925
9.963210501
9.963210864
9.96321184
9.963210279
9.963210247
9.963210565
9.963211518
9.963301297
9.963301413
9.963300957
9.963300343
9.963300192
9.963300729
9.963299953
9.963298989
9.963298983
9.96329832
9.963297186
9.963296208
9.963296282
9.963295397
9.96327861
9.963279645
9.963280518
9.963279041
9.96327853
9.963277901
9.963278478
9.963278091
9.963277814
9.963279051
9.963278927
9.963279671
9.963278721
9.96327848
9.963277467
9.963254809
9.963256306
9.963255526
9.963255873
9.963255045
9.963253739
9.963254309
9.963255372
9.963255461
9.963255852
9.963256182
9.963256799
9.963256326
9.963257043
9.963257659
9.963293015
9.963292418
9.963291712
9.963291298
9.963291445
9.963290853
9.963290785
9.963291113
9.963290068
9.963288294
9.96328925
9.96328821
9.963286909
9.963287034
9.963287688
9.963253835
9.963253112
9.963252645
9.963252853
9.963252673
9.963253034
9.963253221
9.963252786
9.963252098
9.963251456
9.963252596
9.96325227
9.963251664
9.963251789
9.96329438
9.963294698
9.963297599
9.963298328
9.963299177
9.963299474
9.963299044
9.963299926
9.963299833
9.963298649
9.963299135
9.963299606
9.963299881
9.963299131
9.963301301
9.963299876
9.963298837
9.963300305
9.963299661
9.963298252
9.963297573
9.963298498
9.963297748
9.963296971
9.963297606
9.963297167
9.9632973
9.963297381
9.963255066
9.963255302
9.963255267
9.963256709
9.963256617
9.963255759
9.963255304
9.963255123
9.963254481
9.963255363
9.963255757
9.963256487
9.963254953
9.963257489
9.963286835
9.963285049
9.963285299
9.963284975
9.963286403
9.963286864
9.96328579
9.963286811
9.963286959
9.963286082
9.963287566
9.96328751
9.963286659
9.963286035
9.963282972
9.963282248
9.963283076
9.963284582
9.963283865
9.963284422
9.963284268
9.963283679
9.963282974
9.963281897
9.963282282
9.963281502
9.963282227
9.963282356
9.963283405
9.963282915
9.963283583
9.96328344
9.963282782
9.963282688
9.963282596
9.963282721
9.96328268
9.963282412
9.963282336
9.963281835
9.963280918
9.963280211
9.963280678
9.963304341
9.963303216
9.963302752
9.963302348
9.963303373
9.963302676
9.963302614
9.963301848
9.963301651
9.963301024
9.963301838
9.963302023
9.963303113
9.963303022
9.963303005
9.963287498
9.963286388
9.963283852
9.963285381
9.963285817
9.963286194
9.963286523
9.963286053
9.963288302
9.963288068
9.963287075
9.963286368
9.963286555
9.963287069
9.963288738
9.963291393
9.96329191
9.963292025
9.963292293
9.963293861
9.963293821
9.96329496
9.963295002
9.963295187
9.963295142
9.963295454
9.963296598
9.963295062
9.963294524
9.963294609
10.01179238
10.01183553
10.0118754
10.01191257
10.0119508
10.01198929
10.0120262
10.01206075
10.01209643
10.01213256
10.01216757
10.01220322
10.01223767
10.0122745
9.963307427
9.963307242
9.963307589
9.963307921
9.963308179
9.963307621
9.963306059
9.963307098
9.963306137
9.96330779
9.963309012
9.963307992
9.963309267
9.963309537
9.963254928
9.963255671
9.963256069
9.963255226
9.963253956
9.963253752
9.963253135
9.963254209
9.963254749
9.963254746
9.963254618
9.963255326
9.963255139
9.963254647
9.963280751
9.963280227
9.963280984
9.963280683
9.963281116
9.963281016
9.963282097
9.963282166
9.963282368
9.963281572
9.963282093
9.963282051
9.963282094
9.963280688
9.963248049
9.963248946
9.963250422
9.963251351
9.963251137
9.963250495
9.963251685
9.963251405
9.963252021
9.963251065
9.963250498
9.96324996
9.963249988
9.963249896
9.963264221
9.963265436
9.963264635
9.963263174
9.963263679
9.963262547
9.96326183
9.963261371
9.963261957
9.963261934
9.963261973
9.963260678
9.963261056
9.963261533
9.963260237
9.963319223
9.963319146
9.96331907
9.963319659
9.963320508
9.963321359
9.963321051
9.963320371
9.963320702
9.963320227
9.963320019
9.963319514
9.963317523
9.963316549
9.963316621
9.963274678
9.9632741
9.963273707
9.963273629
9.9632734
9.963273376
9.96327265
9.963273052
9.963272993
9.963273022
9.963272718
9.963273902
9.963274118
9.963275792
9.963273652
9.963300409
9.963299876
9.963300228
9.963301297
9.963299443
9.963299265
9.9633001
9.963300645
9.963299904
9.96330091
9.963301054
9.963300939
9.963301394
9.963302563
9.963302394
9.963291333
9.963291028
9.963292182
9.963294035
9.963294991
9.963295268
9.963295504
9.963296578
9.963296119
9.963296411
9.963296124
9.963297496
9.963297001
9.963296013
9.963297313
9.963247494
9.963246237
9.963246928
9.963246284
9.963245883
9.963246842
9.963246031
9.963244638
9.963244412
9.963244407
9.963244573
9.963244165
9.963243066
9.963243957
9.963243982
9.963324564
9.963324692
9.963325936
9.96332585
9.963324419
9.963324056
9.963323469
9.963323595
9.963323247
9.963321923
9.963321789
9.963323807
9.963324043
9.963323581
9.963266643
9.963266549
9.963265372
9.963264553
9.963264943
9.963265029
9.96326492
9.96326328
9.963263963
9.96326438
9.963261811
9.963260375
9.963261883
9.963261883
9.963252823
9.963253177
9.963252563
9.963254151
9.963255216
9.963253976
9.963253159
9.963254347
9.963254881
9.963254293
9.963254366
9.963254735
9.963255554
9.963256272
9.963264633
9.963264509
9.963263524
9.963265262
9.963263743
9.96326432
9.963265468
9.963265181
9.963265503
9.96326559
9.963265466
9.963264682
9.963264336
9.963264142
9.963264896
9.963242369
9.963242329
9.963242383
9.963242695
9.963242162
9.96324257
9.963243037
9.963242522
9.96324396
9.963244596
9.963244688
9.96324396
9.963243667
9.963245042
9.963245331
9.96326297
9.963262136
9.96326231
9.963262785
9.963263906
9.963262317
9.963262371
9.963261852
9.963262017
9.963263255
9.963264044
9.963263518
9.96326365
9.963265143
9.963266967
9.963239786
9.963239375
9.963241394
9.963242085
9.963242114
9.963241926
9.963244236
9.963243373
9.963244557
9.963244073
9.963243294
9.963242268
9.963241782
9.963241768
9.96324251
9.963298069
9.963297991
9.963297837
9.963297574
9.96329719
9.963298227
9.963296737
9.963296347
9.963296348
9.963296851
9.963298683
9.963298976
9.963299867
9.963298869
9.963299271
9.963278285
9.963277073
9.963275347
9.963275207
9.963274591
9.963274128
9.963274106
9.963274297
9.963273727
9.963272027
9.963271434
9.963271048
9.96327115
9.963271639
9.963270845
9.963254352
9.963253685
9.963252683
9.963253413
9.963252242
9.963252443
9.963250198
9.963248892
9.963249051
9.963249199
9.963249417
9.963248682
9.963245682
9.963247172
9.963245638
9.963290374
9.963289919
9.963289757
9.963290778
9.96328903
9.963288708
9.963288546
9.963289203
9.963290054
9.963290137
9.963288604
9.96328951
9.963288515
9.963288697
9.963275854
9.963275329
9.963276464
9.963275408
9.96327557
9.963276079
9.963275526
9.963275167
9.963274436
9.963274042
9.963274692
9.963275132
9.963274483
9.963274407
9.96331073
9.96331018
9.96331061
9.963309938
9.963308378
9.963308803
9.963308867
9.963309618
9.963310187
9.963310421
9.963311362
9.963311022
9.963311855
9.963310545
9.963308739
9.963303952
9.963303023
9.963303822
9.963303721
9.963304131
9.963305213
9.963307283
9.963308503
9.963308027
9.963307537
9.963306007
9.963305197
9.96330416
9.963303275
9.963302158
9.963264878
9.96326578
9.963265802
9.963265699
9.963264118
9.963264977
9.963265312
9.963266872
9.963266594
9.963265511
9.963265259
9.963265076
9.963265433
9.963266184
9.963264948
9.963289619
9.963290767
9.963289618
9.963289757
9.96328972
9.963290316
9.963289346
9.963290262
9.963292076
9.963292233
9.963291207
9.963292272
9.963292078
9.963291847
9.963290588
9.963274207
9.963272538
9.963272533
9.963273195
9.963274376
9.963274584
9.963275
9.963274208
9.963274841
9.963275098
9.963276093
9.9632749
9.963275262
9.963275384
9.963274465
9.963303304
9.963303157
9.963302462
9.963303248
9.963303353
9.963302101
9.963302668
9.963301423
9.963302369
9.963302168
9.963301339
9.963299994
9.963299847
9.9633002
9.963300377
9.96329192
9.963292707
9.96329176
9.963293863
9.963292936
9.963292603
9.963292142
9.963292723
9.96329198
9.963291536
9.963292319
9.963292618
9.963293739
9.963293462
9.96329434
9.963289047
9.963288566
9.963288766
9.963288759
9.963288397
9.963288917
9.963289505
9.963289661
9.963289044
9.963288801
9.963289524
9.963288688
9.963288737
9.963288491
9.963288723
9.96326396
9.963263742
9.963264664
9.963266296
9.963266695
9.963266232
9.963265742
9.963267348
9.963266742
9.963266444
9.963266997
9.963267881
9.963268455
9.96326776
9.963263805
9.963263914
9.96326325
9.963262084
9.963262402
9.963261169
9.963261574
9.963261158
9.963260679
9.963260149
9.963259832
9.963261633
9.963261534
9.963261824
9.963262547
9.963273435
9.963271968
9.963272449
9.96327263
9.963273069
9.963274138
9.96327313
9.963272452
9.96327202
9.963270934
9.96327066
9.96326941
9.963268985
9.963268574
9.963268139
9.963261576
9.963261593
9.963260827
9.963261328
9.963260431
9.96325943
9.963259689
9.963260567
9.963260857
9.963261067
9.963261825
9.96326168
9.963260768
9.963260339
9.963260386
9.963320374
9.9633195
9.963319202
9.963317757
9.963318229
9.96331838
9.963318533
9.963318257
9.963317222
9.963317245
9.963317024
9.963317559
9.963318655
9.963319344
9.963320005
9.963320258
9.963319763
9.963318356
9.96331799
9.963318399
9.963317477
9.96331782
9.963318209
9.963317767
9.963318203
9.96331757
9.963317246
9.963317645
9.963316354
9.963315794
9.963297311
9.96329752
9.963296874
9.963296145
9.963295991
9.963296488
9.963296821
9.963297165
9.963297375
9.963295895
9.963296693
9.963297262
9.963297106
9.96329634
9.963295891
9.963276435
9.963276585
9.963276817
9.963276166
9.963277255
9.96327745
9.963277689
9.963276896
9.963276581
9.963276315
9.963276798
9.963276059
9.963276017
9.963276602
9.963275993
9.963293149
9.963292061
9.963292351
9.963292596
9.963291749
9.963292588
9.963293228
9.963291423
9.963292115
9.96329225
9.963291637
9.963292857
9.963292839
9.963292606
9.963294443
9.963280722
9.963281172
9.963280865
9.963280391
9.963280778
9.963280101
9.963280317
9.963280609
9.963280419
9.96327982
9.963279457
9.96327973
9.963280892
9.963280512
9.963281126
)
;

boundaryField
{
    top
    {
        type            calculated;
        value           nonuniform List<scalar> 
127
(
9.963280722
9.963251081
9.963245035
9.963301297
9.963282972
9.963248049
9.963252823
9.963275854
9.96326396
9.963281172
9.963250826
9.963244762
9.963301413
9.963282248
9.963248946
9.963253177
9.963275329
9.963263742
9.963280865
9.963250044
9.963245404
9.963300957
9.963283076
9.963250422
9.963252563
9.963276464
9.963264664
9.963280391
9.963250681
9.96324471
9.963300343
9.963284582
9.963251351
9.963254151
9.963275408
9.963266296
9.963280778
9.963250401
9.963244994
9.963300192
9.963283865
9.963251137
9.963255216
9.96327557
9.963266695
9.963280101
9.96324931
9.963244334
9.963300729
9.963284422
9.963250495
9.963253976
9.963276079
9.963266232
9.963280317
9.963249364
9.963246724
9.963299953
9.963284268
9.963251685
9.963253159
9.963275526
9.963265742
9.963280609
9.963248874
9.963247331
9.963298989
9.963283679
9.963251405
9.963254347
9.963275167
9.963267348
9.963280419
9.963249264
9.963247528
9.963298983
9.963282974
9.963252021
9.963254881
9.963274436
9.963266742
9.96327982
9.963248822
9.963246026
9.96329832
9.963281897
9.963251065
9.963254293
9.963274042
9.963266444
9.963279457
9.963248164
9.963245011
9.963297186
9.963282282
9.963250498
9.963254366
9.963274692
9.963266997
9.96327973
9.963248675
9.963245897
9.963296208
9.963281502
9.96324996
9.963254735
9.963275132
9.963267881
9.963280892
9.963248622
9.963245751
9.963296282
9.963282227
9.963249988
9.963255554
9.963274483
9.963268455
9.963280512
9.963249003
9.963245206
9.963295397
9.963282356
9.963249896
9.963256272
9.963274407
9.96326776
9.963281126
)
;
    }
    bottom
    {
        type            calculated;
        value           nonuniform List<scalar> 
134
(
9.963285251
9.963281464
9.96327861
9.963283405
9.963264221
9.963264633
9.96331073
9.963263805
9.963278168
9.963286066
9.963282566
9.963279645
9.963282915
9.963265436
9.963264509
9.96331018
9.963263914
9.963277707
9.963285458
9.963281698
9.963280518
9.963283583
9.963264635
9.963263524
9.96331061
9.96326325
9.963278354
9.963283884
9.963281164
9.963279041
9.96328344
9.963263174
9.963265262
9.963309938
9.963262084
9.963278185
9.963282785
9.963280841
9.96327853
9.963282782
9.963263679
9.963263743
9.963308378
9.963262402
9.963279197
9.963282657
9.963281135
9.963277901
9.963282688
9.963262547
9.96326432
9.963308803
9.963261169
9.963279117
9.963283408
9.963280218
9.963278478
9.963282596
9.96326183
9.963265468
9.963308867
9.963261574
9.963278646
9.963283868
9.963279095
9.963278091
9.963282721
9.963261371
9.963265181
9.963309618
9.963261158
9.963277179
9.963283156
9.963279787
9.963277814
9.96328268
9.963261957
9.963265503
9.963310187
9.963260679
9.963276618
9.963283617
9.963280576
9.963279051
9.963282412
9.963261934
9.96326559
9.963310421
9.963260149
9.963276834
9.963283278
9.963279972
9.963278927
9.963282336
9.963261973
9.963265466
9.963311362
9.963259832
9.963276876
9.963281545
9.963279961
9.963279671
9.963281835
9.963260678
9.963264682
9.963311022
9.963261633
9.963275784
9.963281897
9.963280087
9.963278721
9.963280918
9.963261056
9.963264336
9.963311855
9.963261534
9.963275046
9.963283109
9.963280664
9.96327848
9.963280211
9.963261533
9.963264142
9.963310545
9.963261824
9.963275174
9.96328396
9.963280467
9.963277467
9.963280678
9.963260237
9.963264896
9.963308739
9.963262547
)
;
    }
    side-walls
    {
        type            calculated;
        value           nonuniform List<scalar> 
261
(
9.963278168
9.963268833
9.963293621
9.963295776
9.963249645
9.963244537
9.963275504
9.963272555
9.963251081
9.963277707
9.963268072
9.963294387
9.963294853
9.963248653
9.963243977
9.963274966
9.963272328
9.963250826
9.963278354
9.963268492
9.963294614
9.963295123
9.963248596
9.963243635
9.963275182
9.963272393
9.963250044
9.963278185
9.963268847
9.963294309
9.963295307
9.963248698
9.963241488
9.963275788
9.963272612
9.963250681
9.963279197
9.963269831
9.963293474
9.963294673
9.963249689
9.963241739
9.963275203
9.963272085
9.963250401
9.963279117
9.963270308
9.963293558
9.963295814
9.963248587
9.963242916
9.963275199
9.963271425
9.96324931
9.963278646
9.96326998
9.963294309
9.96329602
9.963249535
9.963242941
9.963274322
9.963272341
9.963249364
9.963277179
9.963269829
9.963294486
9.963295364
9.963249756
9.963243547
9.963273871
9.963270851
9.963248874
9.963276618
9.963270178
9.963294745
9.963296421
9.963248096
9.963243549
9.963274461
9.963271904
9.963249264
9.963276834
9.963269873
9.96329538
9.963295291
9.963249257
9.963244699
9.963275981
9.963271905
9.963248822
9.963276876
9.963270787
9.963295988
9.963297858
9.963248642
9.963244553
9.963275557
9.963271292
9.963248164
9.963275784
9.963270934
9.963294796
9.963298078
9.963249078
9.963244278
9.963276089
9.96327114
9.963248675
9.963275046
9.963270202
9.963293596
9.963298841
9.963248567
9.963243693
9.963275665
9.963271192
9.963248622
9.963275174
9.963270449
9.963293116
9.963297672
9.96324721
9.96324528
9.963276221
9.963271718
9.963249003
9.963263805
9.963273435
9.963261576
9.963320374
9.963320258
9.963297311
9.963276435
9.963293149
9.963280722
9.963263914
9.963271968
9.963261593
9.9633195
9.963319763
9.96329752
9.963276585
9.963292061
9.963281172
9.96326325
9.963272449
9.963260827
9.963319202
9.963318356
9.963296874
9.963276817
9.963292351
9.963280865
9.963262084
9.96327263
9.963261328
9.963317757
9.96331799
9.963296145
9.963276166
9.963292596
9.963280391
9.963262402
9.963273069
9.963260431
9.963318229
9.963318399
9.963295991
9.963277255
9.963291749
9.963280778
9.963261169
9.963274138
9.96325943
9.96331838
9.963317477
9.963296488
9.96327745
9.963292588
9.963280101
9.963261574
9.96327313
9.963259689
9.963318533
9.96331782
9.963296821
9.963277689
9.963293228
9.963280317
9.963261158
9.963272452
9.963260567
9.963318257
9.963318209
9.963297165
9.963276896
9.963291423
9.963280609
9.963260679
9.96327202
9.963260857
9.963317222
9.963317767
9.963297375
9.963276581
9.963292115
9.963280419
9.963260149
9.963270934
9.963261067
9.963317245
9.963318203
9.963295895
9.963276315
9.96329225
9.96327982
9.963259832
9.96327066
9.963261825
9.963317024
9.96331757
9.963296693
9.963276798
9.963291637
9.963279457
9.963261633
9.96326941
9.96326168
9.963317559
9.963317246
9.963297262
9.963276059
9.963292857
9.96327973
9.963261534
9.963268985
9.963260768
9.963318655
9.963317645
9.963297106
9.963276017
9.963292839
9.963280892
9.963261824
9.963268574
9.963260339
9.963319344
9.963316354
9.96329634
9.963276602
9.963292606
9.963280512
9.963262547
9.963268139
9.963260386
9.963320005
9.963315794
9.963295891
9.963275993
9.963294443
9.963281126
)
;
    }
    inlet
    {
        type            calculated;
        value           nonuniform 0();
    }
    outlet
    {
        type            calculated;
        value           nonuniform List<scalar> 
81
(
9.963275174
9.963270449
9.963293116
9.963297672
9.96324721
9.96324528
9.963276221
9.963271718
9.963249003
9.96328396
9.963262206
9.963247795
9.963307053
9.963282293
9.963303995
9.963231328
9.963309146
9.963245206
9.963280467
9.963287314
9.963301089
9.963264963
9.96332302
9.963283083
9.963319393
9.963211518
9.963295397
9.963277467
9.963257659
9.963287688
9.963251789
9.963299131
9.963297381
9.963257489
9.963286035
9.963282356
9.963280678
9.963303005
9.963288738
9.963294609
10.0122745
9.963309537
9.963254647
9.963280688
9.963249896
9.963260237
9.963316621
9.963273652
9.963302394
9.963297313
9.963243982
9.963323581
9.963261883
9.963256272
9.963264896
9.963245331
9.963266967
9.96324251
9.963299271
9.963270845
9.963245638
9.963288697
9.963274407
9.963308739
9.963302158
9.963264948
9.963290588
9.963274465
9.963300377
9.96329434
9.963288723
9.96326776
9.963262547
9.963268139
9.963260386
9.963320005
9.963315794
9.963295891
9.963275993
9.963294443
9.963281126
)
;
    }
    procBoundary1to0
    {
        type            processor;
        value           nonuniform List<scalar> 
97
(
9.963276905
9.963276905
9.963267753
9.963293043
9.963295104
9.963248685
9.963245502
9.963276302
9.963273517
9.963251136
9.963285403
9.963262572
9.963262572
9.963262572
9.963249534
9.96330822
9.963282902
9.963304847
9.963236656
9.963308569
9.963244538
9.963280307
9.963291566
9.963297968
9.963297968
9.963297968
9.963262796
9.963326349
9.963282298
9.963319549
9.96321125
9.963301007
9.963276803
9.963255719
9.963291954
9.963254815
9.963254815
9.963254815
9.963294394
9.963302043
9.96325737
9.963286837
9.963281878
9.963283323
9.963303426
9.963289325
9.963258722
10.01179365
10.01179365
10.01179365
9.96330712
9.96330712
9.96325541
9.963280301
9.963246502
9.963264364
9.963320207
9.963273045
9.963302778
9.963258806
9.963248507
9.963323806
9.963323806
9.963323806
9.963267316
9.963253233
9.96326434
9.963243718
9.963263629
9.963240669
9.963298808
9.96327799
9.96325448
9.963291696
9.963291696
9.963291696
9.963275765
9.963310727
9.963304171
9.963263379
9.963291821
9.963274471
9.963303543
9.96329292
9.963288522
9.96326502
9.96326502
9.96326502
9.963263334
9.963273504
9.963262561
9.963319301
9.963320719
9.963296463
9.963276744
9.963291831
9.96328224
)
;
    }
}


// ************************************************************************* //
