/*--------------------------------*- C++ -*----------------------------------*\
| =========                 |                                                 |
| \\      /  F ield         | OpenFOAM: The Open Source CFD Toolbox           |
|  \\    /   O peration     | Version:  4.x                                   |
|   \\  /    A nd           | Web:      www.OpenFOAM.org                      |
|    \\/     M anipulation  |                                                 |
\*---------------------------------------------------------------------------*/
FoamFile
{
    version     2.0;
    format      ascii;
    class       volScalarField;
    location    "5000";
    object      N2;
}
// * * * * * * * * * * * * * * * * * * * * * * * * * * * * * * * * * * * * * //

dimensions      [0 0 0 0 0 0 0];

internalField   nonuniform List<scalar> 
1174
(
0.6215283199
0.6215275149
0.621526377
0.6215248915
0.6215230738
0.6215209638
0.621518618
0.6215160991
0.6215134731
0.6215107999
0.621508137
0.6215055439
0.6215031278
0.6215012275
0.6215275616
0.6215262693
0.6215245462
0.6215224321
0.6215200001
0.6215173377
0.6215145355
0.6215116745
0.6215088242
0.6215060388
0.6215033626
0.6215008377
0.6214985444
0.6214967726
0.6215258857
0.6215235961
0.6215207614
0.6215175404
0.6215141063
0.6215106144
0.621507188
0.6215039159
0.6215008533
0.6214980311
0.6214954622
0.6214931547
0.6214911459
0.6214896413
0.6215234262
0.6215198647
0.6215157729
0.6215114504
0.6215071461
0.6215030401
0.6214992456
0.6214958204
0.6214927825
0.621490125
0.6214878246
0.6214858564
0.621484217
0.62148303
0.6215216677
0.6215174058
0.6215127548
0.6215080403
0.6215035018
0.6214992903
0.6214954884
0.6214921292
0.6214892099
0.6214867058
0.6214845831
0.621482804
0.6214813525
0.6214803191
0.6215234262
0.6215198646
0.6215157729
0.6215114506
0.6215071466
0.6215030411
0.6214992469
0.6214958214
0.6214927834
0.6214901253
0.6214878259
0.6214858578
0.6214842183
0.6214830311
0.621525886
0.621523597
0.6215207616
0.621517541
0.6215141069
0.6215106149
0.6215071897
0.6215039174
0.6215008552
0.6214980328
0.6214954642
0.6214931571
0.621491148
0.6214896431
0.6215275618
0.6215262692
0.6215245468
0.6215224324
0.6215200008
0.6215173388
0.6215145366
0.6215116761
0.6215088254
0.6215060407
0.6215033649
0.6215008399
0.6214985467
0.6214967756
0.6215283199
0.6215275149
0.6215263772
0.6215248919
0.6215230746
0.6215209651
0.621518619
0.6215161006
0.6215134744
0.6215108019
0.6215081391
0.6215055465
0.6215031299
0.6215012302
0.6215284343
0.6215275617
0.6215262692
0.6215245461
0.6215224322
0.6215200003
0.6215173379
0.6215145357
0.6215116748
0.6215088244
0.621506039
0.621503363
0.6215008379
0.6214985437
0.6214967723
0.6215258506
0.6215235756
0.6215207996
0.6215176891
0.6215144118
0.6215111081
0.6215078847
0.6215048118
0.6215019309
0.6214992629
0.6214968152
0.6214945946
0.6214926398
0.6214911624
0.6215215379
0.6215171095
0.621512292
0.6215074942
0.6215029958
0.6214989496
0.6214954125
0.6214923772
0.6214898021
0.6214876311
0.6214858062
0.6214842765
0.6214830192
0.6214821142
0.6215138629
0.6215064869
0.6214994685
0.6214933332
0.6214882665
0.6214842448
0.6214811453
0.6214788101
0.6214770844
0.6214758311
0.6214749383
0.6214743169
0.6214738979
0.6214736463
0.6215066091
0.621497726
0.6214901944
0.6214842157
0.6214796721
0.6214763351
0.6214739605
0.6214723276
0.6214712543
0.6214705949
0.6214702373
0.6214700924
0.621470088
0.6214701474
0.6215138637
0.6215064876
0.6214994695
0.6214933341
0.621488268
0.6214842471
0.6214811469
0.6214788119
0.6214770859
0.6214758331
0.6214749403
0.6214743182
0.6214738995
0.6214736485
0.6215215391
0.6215171105
0.6215122935
0.6215074954
0.6215029972
0.6214989514
0.6214954147
0.6214923796
0.6214898048
0.6214876342
0.6214858095
0.6214842801
0.6214830227
0.6214821176
0.621525851
0.6215235759
0.6215207999
0.6215176897
0.6215144124
0.6215111098
0.6215078868
0.6215048143
0.6215019336
0.6214992656
0.6214968185
0.6214945981
0.6214926441
0.6214911665
0.6215275622
0.6215262696
0.6215245463
0.6215224328
0.621520001
0.6215173397
0.6215145369
0.6215116763
0.6215088261
0.6215060416
0.6215033661
0.6215008414
0.6214985481
0.6214967768
0.6215275309
0.621525886
0.6215235968
0.6215207619
0.6215175408
0.6215141065
0.6215106147
0.6215071887
0.6215039163
0.6215008541
0.6214980315
0.6214954626
0.6214931551
0.6214911456
0.6214896404
0.6215251117
0.6215215387
0.6215171095
0.6215122926
0.6215074945
0.6215029964
0.6214989505
0.6214954133
0.6214923771
0.6214898027
0.6214876323
0.6214858067
0.6214842768
0.6214830191
0.6214821143
0.6215087799
0.6214994176
0.6214909322
0.6214839685
0.6214786616
0.6214748608
0.6214722994
0.6214706902
0.6214697789
0.6214693586
0.6214692696
0.6214693909
0.6214696258
0.621469865
0.6214803574
0.6214645138
0.6214535704
0.6214470954
0.621444039
0.6214433388
0.6214441367
0.6214458085
0.6214479324
0.6214502336
0.6214525407
0.6214547445
0.6214567403
0.6214582704
0.6214430682
0.6214272722
0.6214204657
0.6214192402
0.621421154
0.6214246692
0.6214288717
0.6214332411
0.6214374928
0.6214414804
0.6214451361
0.6214484269
0.6214512904
0.6214534332
0.6214803595
0.6214645164
0.6214535737
0.621447099
0.6214440429
0.6214433429
0.6214441402
0.6214458121
0.6214479358
0.6214502366
0.6214525442
0.6214547479
0.6214567431
0.6214582732
0.6215087815
0.6214994192
0.6214909339
0.6214839703
0.6214786644
0.6214748644
0.6214723026
0.6214706944
0.6214697837
0.6214693637
0.6214692737
0.6214693951
0.6214696307
0.6214698697
0.621521539
0.6215171099
0.6215122927
0.621507496
0.6215029976
0.6214989521
0.6214954157
0.6214923808
0.6214898065
0.6214876355
0.6214858112
0.6214842822
0.6214830248
0.6214821202
0.6215258858
0.6215235965
0.621520762
0.6215175412
0.6215141075
0.6215106163
0.6215071907
0.621503919
0.6215008576
0.621498036
0.6214954674
0.6214931603
0.6214911515
0.6214896472
0.6215261724
0.6215234267
0.6215198648
0.6215157731
0.6215114505
0.6215071471
0.6215030414
0.6214992468
0.6214958212
0.621492783
0.6214901257
0.6214878253
0.6214858571
0.6214842176
0.6214830303
0.6215206429
0.6215138637
0.6215064878
0.621499469
0.6214933337
0.6214882673
0.6214842461
0.6214811459
0.6214788104
0.6214770848
0.6214758315
0.6214749387
0.6214743169
0.6214738982
0.6214736469
0.6214996678
0.6214803588
0.6214645151
0.6214535715
0.6214470967
0.6214440402
0.6214433397
0.6214441371
0.6214458095
0.6214479329
0.621450234
0.6214525415
0.6214547455
0.6214567407
0.6214582701
0.6213827727
0.6213627324
0.6213593356
0.6213649803
0.6213746784
0.6213856068
0.6213963304
0.6214062061
0.6214150113
0.6214227272
0.6214294254
0.6214351931
0.621440041
0.6214435842
0.621190967
0.6212157482
0.621254061
0.6212908726
0.6213221897
0.6213477587
0.6213683958
0.6213850727
0.62139864
0.6214097708
0.6214189789
0.621426631
0.6214328996
0.6214374076
0.6213827813
0.6213627389
0.6213593414
0.6213649868
0.6213746849
0.6213856137
0.6213963369
0.6214062122
0.6214150165
0.6214227318
0.6214294294
0.6214351974
0.6214400451
0.6214435883
0.6214803595
0.6214645174
0.6214535753
0.6214471016
0.6214440457
0.6214433467
0.6214441444
0.6214458166
0.6214479402
0.6214502414
0.6214525483
0.6214547515
0.6214567472
0.6214582772
0.6215138639
0.6215064887
0.6214994705
0.6214933364
0.62148827
0.6214842498
0.621481151
0.6214788164
0.6214770906
0.621475838
0.6214749455
0.6214743241
0.6214739054
0.6214736543
0.6215234262
0.6215198653
0.6215157737
0.6215114517
0.6215071482
0.6215030431
0.6214992495
0.621495825
0.6214927877
0.6214901311
0.6214878314
0.6214858637
0.621484225
0.6214830378
0.6215251512
0.6215216685
0.6215174068
0.6215127553
0.6215080415
0.6215035026
0.6214992912
0.6214954899
0.6214921303
0.6214892105
0.6214867073
0.6214845839
0.6214828053
0.621481354
0.6214803198
0.6215159697
0.6215066101
0.6214977271
0.6214901961
0.6214842165
0.6214796735
0.6214763368
0.6214739617
0.6214723285
0.6214712554
0.621470596
0.6214702384
0.6214700931
0.6214700892
0.6214701484
0.6214710617
0.621443071
0.6214272753
0.6214204687
0.6214192422
0.621421156
0.6214246713
0.6214288736
0.6214332418
0.6214374936
0.621441482
0.6214451376
0.6214484279
0.621451291
0.6214534338
0.6212252964
0.621190977
0.6212157546
0.6212540658
0.6212908757
0.6213221927
0.6213477608
0.621368397
0.6213850741
0.6213986404
0.6214097713
0.6214189789
0.6214266309
0.6214329003
0.6214374084
0.6203638444
0.6207835864
0.6210163859
0.6211528347
0.6212374193
0.6212927795
0.621330877
0.6213582818
0.6213787509
0.6213945211
0.6214069735
0.6214169712
0.6214249603
0.6214306168
0.6211909659
0.621215757
0.6212540736
0.6212908853
0.6213222019
0.6213477698
0.6213684061
0.6213850818
0.6213986475
0.6214097779
0.6214189846
0.6214266363
0.6214329049
0.6214374125
0.621443067
0.6214272755
0.6214204722
0.6214192484
0.6214211641
0.6214246802
0.6214288825
0.6214332513
0.6214375022
0.62144149
0.6214451459
0.6214484357
0.6214512991
0.6214534418
0.6215066083
0.6214977268
0.6214901968
0.6214842197
0.6214796775
0.6214763419
0.6214739674
0.6214723354
0.6214712623
0.6214706037
0.6214702457
0.6214701009
0.6214700971
0.6214701572
0.6215216677
0.6215174063
0.6215127551
0.6215080421
0.6215035044
0.6214992941
0.6214954931
0.6214921348
0.6214892158
0.6214867133
0.621484591
0.6214828124
0.6214813614
0.6214803285
0.6215261719
0.6215234268
0.6215198654
0.6215157736
0.6215114515
0.6215071475
0.621503042
0.6214992476
0.6214958223
0.6214927844
0.6214901268
0.621487827
0.6214858591
0.6214842197
0.6214830328
0.6215206434
0.6215138645
0.6215064891
0.6214994705
0.6214933355
0.6214882687
0.6214842479
0.6214811483
0.621478813
0.6214770874
0.6214758338
0.6214749411
0.6214743194
0.6214739009
0.6214736497
0.621499672
0.6214803628
0.6214645195
0.6214535763
0.6214471014
0.6214440447
0.6214433445
0.6214441423
0.6214458137
0.6214479371
0.6214502382
0.6214525456
0.621454749
0.6214567442
0.6214582742
0.6214275999
0.6213827908
0.6213627457
0.6213593467
0.6213649914
0.6213746893
0.6213856164
0.6213963388
0.6214062143
0.6214150184
0.6214227337
0.6214294312
0.621435199
0.6214400463
0.6214435898
0.6212252988
0.6211909804
0.6212157662
0.62125408
0.6212908893
0.6213222048
0.6213477719
0.6213684071
0.6213850826
0.6213986487
0.6214097784
0.6214189856
0.6214266373
0.6214329058
0.6214374138
0.6214275973
0.6213827912
0.6213627496
0.6213593534
0.6213649985
0.6213746967
0.621385624
0.6213963463
0.6214062209
0.6214150245
0.6214227396
0.6214294366
0.621435204
0.621440051
0.6214435936
0.6214803574
0.6214645186
0.6214535789
0.6214471067
0.6214440518
0.6214433521
0.6214441499
0.621445822
0.6214479453
0.6214502465
0.6214525536
0.6214547566
0.6214567516
0.6214582816
0.6215138624
0.6215064878
0.6214994707
0.6214933375
0.621488272
0.6214842525
0.6214811537
0.6214788197
0.6214770943
0.6214758413
0.6214749492
0.6214743275
0.6214739087
0.6214736579
0.6215234262
0.621519865
0.6215157745
0.6215114523
0.6215071489
0.6215030446
0.6214992515
0.6214958267
0.6214927901
0.6214901333
0.6214878344
0.6214858664
0.6214842272
0.6214830407
0.6215275305
0.6215258865
0.6215235966
0.6215207618
0.6215175417
0.6215141081
0.6215106158
0.62150719
0.6215039181
0.6215008562
0.621498034
0.6214954653
0.6214931583
0.6214911494
0.6214896444
0.6215251123
0.6215215396
0.6215171108
0.621512294
0.6215074969
0.6215029986
0.6214989527
0.6214954161
0.6214923805
0.6214898055
0.6214876353
0.6214858108
0.6214842815
0.6214830241
0.6214821191
0.6215177001
0.6215087835
0.6214994212
0.6214909363
0.6214839726
0.6214786665
0.6214748659
0.6214723047
0.6214706959
0.6214697846
0.6214693651
0.6214692758
0.6214693971
0.6214696322
0.6214698711
0.6214996721
0.621480364
0.6214645206
0.6214535788
0.6214471048
0.621444049
0.6214433485
0.6214441464
0.6214458182
0.6214479419
0.6214502425
0.6214525497
0.6214547531
0.6214567485
0.6214582779
0.6214710626
0.6214430745
0.6214272818
0.6214204774
0.621419253
0.6214211671
0.6214246821
0.6214288844
0.6214332529
0.621437504
0.6214414914
0.6214451466
0.6214484368
0.6214512997
0.6214534424
0.6214996724
0.6214803649
0.6214645234
0.6214535825
0.6214471089
0.6214440529
0.6214433534
0.6214441508
0.6214458226
0.6214479465
0.6214502471
0.6214525544
0.6214547574
0.6214567522
0.6214582822
0.6215176983
0.6215087826
0.6214994212
0.6214909371
0.6214839756
0.6214786702
0.621474871
0.6214723099
0.6214707013
0.6214697909
0.6214693712
0.6214692821
0.6214694039
0.6214696384
0.6214698774
0.621521538
0.6215171102
0.621512294
0.621507497
0.6215030007
0.6214989555
0.6214954196
0.6214923851
0.6214898115
0.621487641
0.6214858168
0.6214842879
0.6214830308
0.621482126
0.6215258856
0.6215235964
0.6215207619
0.6215175419
0.6215141087
0.621510618
0.6215071928
0.6215039215
0.6215008604
0.6214980394
0.6214954715
0.6214931646
0.6214911563
0.6214896518
0.6215284338
0.6215275618
0.6215262697
0.6215245468
0.6215224332
0.6215200016
0.6215173395
0.6215145373
0.6215116768
0.6215088265
0.6215060411
0.6215033655
0.6215008408
0.6214985475
0.6214967769
0.6215275066
0.6215258506
0.6215235757
0.6215208004
0.6215176899
0.6215144128
0.6215111102
0.6215078869
0.6215048142
0.6215019342
0.6214992665
0.6214968194
0.6214945989
0.6214926449
0.6214911678
0.6215251123
0.6215215393
0.6215171113
0.6215122947
0.6215074973
0.6215029996
0.6214989543
0.6214954174
0.6214923824
0.6214898081
0.6214876374
0.6214858127
0.6214842831
0.6214830259
0.6214821216
0.6215206429
0.6215138649
0.6215064899
0.621499472
0.6214933383
0.6214882725
0.6214842522
0.6214811531
0.6214788183
0.6214770922
0.62147584
0.6214749472
0.621474325
0.621473906
0.6214736555
0.6215159699
0.6215066116
0.62149773
0.6214902001
0.6214842224
0.6214796803
0.6214763443
0.6214739698
0.6214723373
0.621471264
0.6214706045
0.6214702469
0.6214701023
0.6214700982
0.6214701579
0.6215206433
0.6215138659
0.6215064911
0.6214994737
0.6214933395
0.6214882741
0.6214842541
0.6214811558
0.6214788206
0.6214770952
0.6214758425
0.6214749502
0.6214743281
0.6214739098
0.6214736587
0.6215251125
0.6215215395
0.6215171116
0.6215122954
0.6215074983
0.6215030015
0.6214989569
0.6214954207
0.6214923858
0.6214898122
0.621487642
0.6214858173
0.6214842879
0.6214830307
0.6214821262
0.621527507
0.6215258506
0.6215235763
0.621520801
0.6215176909
0.6215144142
0.6215111121
0.6215078897
0.6215048178
0.6215019381
0.6214992705
0.621496824
0.6214946038
0.6214926505
0.6214911737
0.6215275615
0.6215262693
0.6215245464
0.621522433
0.6215200017
0.6215173405
0.6215145393
0.621511679
0.6215088296
0.6215060459
0.6215033702
0.6215008459
0.6214985534
0.6214967827
0.6215288368
0.6215283195
0.6215275146
0.6215263772
0.6215248921
0.621523075
0.621520965
0.6215186193
0.6215161013
0.6215134751
0.6215108026
0.6215081396
0.621505547
0.6215031311
0.6215012315
0.6215284338
0.6215275623
0.6215262692
0.6215245464
0.621522433
0.6215200009
0.6215173395
0.6215145373
0.6215116771
0.6215088271
0.6215060426
0.621503367
0.621500842
0.621498549
0.6214967781
0.6215275304
0.6215258862
0.6215235972
0.6215207626
0.6215175425
0.6215141091
0.6215106175
0.6215071919
0.6215039202
0.6215008581
0.6214980366
0.6214954681
0.6214931615
0.621491153
0.6214896481
0.6215261718
0.6215234269
0.6215198657
0.6215157751
0.6215114529
0.6215071496
0.6215030445
0.6214992508
0.6214958268
0.6214927889
0.6214901322
0.6214878326
0.6214858649
0.6214842257
0.621483039
0.6215251508
0.6215216686
0.621517408
0.6215127574
0.6215080446
0.6215035068
0.6214992958
0.6214954952
0.6214921368
0.6214892172
0.6214867143
0.6214845919
0.6214828133
0.6214813627
0.6214803294
0.6215261723
0.6215234269
0.6215198663
0.6215157753
0.6215114536
0.6215071508
0.6215030463
0.6214992527
0.621495828
0.6214927914
0.6214901346
0.6214878347
0.6214858674
0.6214842283
0.6214830414
0.6215275307
0.6215258861
0.6215235974
0.6215207632
0.6215175426
0.6215141099
0.6215106192
0.6215071943
0.621503923
0.6215008613
0.6214980399
0.6214954719
0.6214931653
0.6214911569
0.6214896519
0.6215284343
0.621527562
0.6215262695
0.6215245468
0.6215224339
0.6215200024
0.6215173412
0.6215145398
0.6215116796
0.6215088302
0.6215060459
0.6215033705
0.6215008459
0.6214985535
0.6214967825
0.621528837
0.6215283196
0.621527515
0.6215263774
0.6215248919
0.621523075
0.6215209659
0.6215186203
0.6215161027
0.6215134774
0.621510806
0.6215081436
0.6215055515
0.6215031358
0.6215012368
)
;

boundaryField
{
    top
    {
        type            zeroGradient;
    }
    bottom
    {
        type            zeroGradient;
    }
    side-walls
    {
        type            zeroGradient;
    }
    inlet
    {
        type            zeroGradient;
    }
    outlet
    {
        type            zeroGradient;
    }
    procBoundary1to0
    {
        type            processor;
        value           nonuniform List<scalar> 
97
(
0.6215288374
0.6215288374
0.6215284342
0.6215275312
0.6215261724
0.6215251519
0.6215261729
0.6215275311
0.6215284345
0.6215288369
0.6215289491
0.6215275063
0.6215275063
0.6215275063
0.6215251125
0.6215206445
0.6215159729
0.621520645
0.6215251132
0.6215275069
0.6215284344
0.6215285408
0.6215274808
0.6215176984
0.6215176984
0.6215176984
0.6214996745
0.621471077
0.6214996782
0.6215177022
0.6215251132
0.6215275312
0.6215279418
0.6215256098
0.6215174454
0.6214275989
0.6214275989
0.6214275989
0.6212253941
0.6214276221
0.6214996778
0.621520645
0.621526173
0.6215275125
0.6215238417
0.6215083587
0.6214469752
0.6195653647
0.6195653647
0.6195653647
0.6212253902
0.6212253902
0.6214710757
0.6215159721
0.6215251516
0.6215279408
0.6215256099
0.6215174445
0.6214936711
0.621446971
0.6214936742
0.6214996698
0.6214996698
0.6214996698
0.6215206439
0.6215261724
0.6215285405
0.6215274805
0.621524371
0.6215174444
0.6215083587
0.6215174453
0.6215243715
0.6215251115
0.6215251115
0.6215251115
0.6215275302
0.6215289491
0.621528532
0.6215274806
0.6215256098
0.6215238415
0.62152561
0.6215274811
0.621528532
0.6215284341
0.6215284341
0.6215284341
0.621529134
0.6215289486
0.6215285401
0.6215279406
0.6215275117
0.6215279411
0.6215285404
0.6215289488
0.6215291338
)
;
    }
}


// ************************************************************************* //
