/*--------------------------------*- C++ -*----------------------------------*\
| =========                 |                                                 |
| \\      /  F ield         | OpenFOAM: The Open Source CFD Toolbox           |
|  \\    /   O peration     | Version:  4.x                                   |
|   \\  /    A nd           | Web:      www.OpenFOAM.org                      |
|    \\/     M anipulation  |                                                 |
\*---------------------------------------------------------------------------*/
FoamFile
{
    version     2.0;
    format      ascii;
    class       volScalarField;
    location    "5000";
    object      rho;
}
// * * * * * * * * * * * * * * * * * * * * * * * * * * * * * * * * * * * * * //

dimensions      [1 -3 0 0 0 0 0];

internalField   nonuniform List<scalar> 
1174
(
0.2797547629
0.2797551261
0.2797556471
0.2797563181
0.2797571481
0.2797581073
0.2797591287
0.2797602624
0.2797614151
0.2797626229
0.2797638121
0.2797649693
0.2797660002
0.2797668535
0.2797548527
0.279755392
0.2797561858
0.2797571687
0.2797582767
0.279759512
0.2797607461
0.2797620317
0.2797633007
0.2797645781
0.2797657895
0.279766915
0.2797679347
0.2797687496
0.2797562998
0.2797573628
0.2797586292
0.2797600647
0.2797615911
0.279763161
0.279764742
0.2797662118
0.2797675969
0.2797688567
0.279770015
0.2797710496
0.2797719178
0.2797725513
0.2797574913
0.2797590624
0.2797608937
0.2797628219
0.2797647692
0.2797666415
0.2797683426
0.2797698714
0.2797712656
0.2797724482
0.27977353
0.2797744271
0.2797751797
0.279775689
0.2797569515
0.2797589011
0.2797609534
0.2797631051
0.2797651384
0.2797670116
0.2797687458
0.2797702424
0.2797715118
0.2797726731
0.2797736034
0.2797744235
0.2797750753
0.2797755113
0.279756062
0.2797576304
0.2797594499
0.2797613527
0.2797633013
0.2797651627
0.2797668476
0.2797684022
0.2797697994
0.2797710377
0.2797720399
0.2797729117
0.2797736529
0.2797741861
0.2797558102
0.2797568022
0.2797581085
0.279759533
0.279761081
0.2797626783
0.2797641625
0.27976564
0.2797670103
0.2797683144
0.2797694786
0.2797705229
0.2797714372
0.279772114
0.2797549702
0.279755543
0.2797562753
0.2797572724
0.2797583357
0.2797595277
0.2797608032
0.2797620645
0.2797633856
0.2797646314
0.2797658124
0.2797669353
0.2797679553
0.2797687514
0.2797540069
0.2797543689
0.2797548705
0.2797555407
0.2797563523
0.2797572819
0.2797583343
0.2797594605
0.279760638
0.2797618152
0.2797630192
0.2797641901
0.279765308
0.2797661618
0.2797549053
0.2797553463
0.2797558922
0.2797566411
0.279757589
0.2797586625
0.2797598845
0.2797611358
0.2797624153
0.2797636789
0.2797649385
0.2797661092
0.279767226
0.2797683079
0.2797691104
0.2797554196
0.279756453
0.2797576855
0.279759067
0.2797605156
0.2797620477
0.279763541
0.2797649479
0.2797662395
0.2797674187
0.2797685322
0.279769507
0.2797703914
0.2797710495
0.2797570365
0.2797589955
0.279761192
0.2797633655
0.2797654047
0.279767252
0.2797688263
0.2797701694
0.27977132
0.2797722896
0.2797730964
0.279773782
0.2797743063
0.2797746958
0.2797620788
0.2797653952
0.2797685038
0.2797712649
0.2797735494
0.2797753911
0.2797767927
0.2797778301
0.2797785728
0.2797791592
0.279779587
0.2797798299
0.2797800339
0.2797801701
0.2797646346
0.2797686221
0.279772066
0.2797747248
0.2797767727
0.279778275
0.2797792945
0.2797800311
0.2797805227
0.2797808358
0.2797809655
0.2797810469
0.2797810523
0.2797810452
0.279762029
0.2797653638
0.2797684624
0.2797712538
0.2797734981
0.2797752955
0.2797767672
0.2797777964
0.2797785746
0.2797791175
0.2797795322
0.2797798206
0.2797800153
0.2797801113
0.2797566663
0.2797586491
0.2797608014
0.2797629826
0.2797650039
0.279766834
0.2797683955
0.279769758
0.279770904
0.2797718578
0.2797726596
0.2797733352
0.2797738842
0.2797742772
0.2797567245
0.2797577512
0.2797590093
0.2797604123
0.2797618935
0.2797633739
0.2797648351
0.2797662093
0.279767499
0.279768711
0.2797697857
0.2797707982
0.2797716648
0.2797723711
0.2797541731
0.279754751
0.279755546
0.2797564862
0.2797575845
0.2797587547
0.2797600896
0.2797613866
0.2797626795
0.2797639074
0.2797650807
0.2797662066
0.2797672425
0.2797680377
0.2797552231
0.2797559919
0.2797569916
0.2797582621
0.2797597146
0.279761256
0.2797628123
0.2797643223
0.2797657929
0.2797671577
0.2797684515
0.2797696106
0.2797706435
0.2797715712
0.2797722556
0.2797565549
0.2797581202
0.2797601253
0.2797622642
0.2797644459
0.2797664618
0.2797682884
0.2797698665
0.2797712854
0.2797723695
0.2797732757
0.2797741319
0.2797748512
0.2797754367
0.2797758209
0.279764075
0.2797682706
0.279772095
0.2797752302
0.2797776229
0.2797793509
0.2797804667
0.2797811796
0.2797816426
0.279781874
0.2797818896
0.2797818396
0.279781762
0.2797816836
0.2797759063
0.2797830578
0.2797879971
0.2797909317
0.2797922792
0.279792583
0.2797921767
0.2797914488
0.2797904791
0.2797894437
0.2797884534
0.279787466
0.2797865771
0.2797858822
0.2797944828
0.2798015733
0.2798046521
0.2798051906
0.2798043658
0.2798027936
0.2798009003
0.2797988994
0.2797969463
0.2797951419
0.2797935015
0.2797919816
0.279790672
0.2797897172
0.2797764776
0.2797835911
0.279788486
0.279791424
0.2797927893
0.279793102
0.2797927548
0.2797920408
0.2797910899
0.2797900676
0.2797889941
0.2797880033
0.2797871246
0.2797864033
0.2797647229
0.2797689075
0.2797727407
0.2797758956
0.2797782447
0.2797799523
0.2797811295
0.27978182
0.2797822443
0.2797824373
0.2797825341
0.2797824642
0.2797823066
0.2797821991
0.2797559208
0.2797579393
0.2797601272
0.279762231
0.2797642975
0.2797661232
0.2797676852
0.2797690534
0.2797701974
0.2797712149
0.2797719993
0.2797726607
0.2797732419
0.2797736462
0.2797565463
0.2797575708
0.2797588147
0.2797602599
0.2797617905
0.2797633542
0.2797648869
0.2797663474
0.2797676856
0.2797689287
0.2797700856
0.2797711128
0.2797720142
0.2797726518
0.279755739
0.2797570215
0.2797586484
0.2797604719
0.2797623977
0.2797642813
0.279766138
0.2797678334
0.2797693795
0.2797707854
0.2797719563
0.2797730076
0.279773886
0.279774614
0.2797751337
0.2797575713
0.2797606701
0.2797639703
0.2797671278
0.27976987
0.2797721241
0.2797739387
0.2797753834
0.2797764477
0.2797771881
0.2797777699
0.279778177
0.2797784423
0.2797786495
0.2797787608
0.279768067
0.2797767655
0.2797838616
0.2797887885
0.279791695
0.2797930594
0.2797933795
0.2797930107
0.2797922079
0.2797912395
0.279790193
0.2797891314
0.2797880857
0.2797871925
0.2797865418
0.279819599
0.2798285849
0.2798300624
0.2798275473
0.2798231913
0.2798182819
0.279813445
0.279809005
0.2798050094
0.2798015272
0.2797985257
0.2797959314
0.2797937345
0.2797921446
0.2799070757
0.2798959341
0.2798787612
0.2798621784
0.2798481111
0.2798366008
0.2798273191
0.2798198437
0.2798137136
0.279808698
0.2798045414
0.2798010967
0.2797983127
0.2797962903
0.2798209085
0.2798298788
0.2798313999
0.2798288621
0.2798245087
0.2798195278
0.2798146936
0.2798102429
0.2798062749
0.2798028077
0.2797998254
0.2797971836
0.279795001
0.2797934181
0.2797757252
0.2797828205
0.2797877494
0.2797906891
0.2797920898
0.2797923564
0.2797919884
0.2797912307
0.279790265
0.2797892294
0.2797882058
0.2797872484
0.2797863299
0.2797856628
0.279761514
0.2797647939
0.2797679595
0.2797706965
0.2797730216
0.279774835
0.2797762168
0.279777269
0.2797780623
0.2797786102
0.2797790291
0.2797792908
0.2797794765
0.2797795912
0.2797571274
0.2797586908
0.2797605565
0.2797625053
0.2797644544
0.2797663304
0.2797680225
0.2797695375
0.2797709069
0.2797720668
0.2797731125
0.2797739891
0.2797747013
0.2797752443
0.2797563387
0.2797578895
0.2797598259
0.2797619159
0.2797640234
0.2797660839
0.2797679651
0.2797696556
0.2797711659
0.2797724835
0.27977357
0.279774545
0.2797753068
0.2797759297
0.2797764159
0.2797610561
0.2797652457
0.2797692158
0.2797725804
0.2797753186
0.2797773322
0.2797788239
0.2797798878
0.2797806184
0.2797810823
0.2797814052
0.2797815405
0.2797816547
0.2797816328
0.2797816198
0.279780823
0.2797933724
0.2798004146
0.2798034723
0.2798040545
0.279803215
0.2798016093
0.2797997133
0.2797978336
0.2797959148
0.2797940541
0.2797924184
0.2797909362
0.2797896789
0.2797887337
0.2798915409
0.2799070173
0.2798958445
0.2798786053
0.2798620561
0.2798479481
0.2798364559
0.2798272093
0.2798196846
0.2798135912
0.2798085714
0.2798044507
0.2798010003
0.2797981505
0.2797961054
0.2816443041
0.2814551234
0.2813507758
0.2812900784
0.2812528322
0.281228865
0.2812126566
0.2812012558
0.2811930016
0.2811868831
0.281182228
0.2811786941
0.2811760762
0.2811745053
0.279907468
0.2798963007
0.279879054
0.2798624594
0.2798483614
0.2798368257
0.2798275029
0.2798200218
0.2798139255
0.2798089239
0.2798048273
0.2798013763
0.2797985592
0.2797965394
0.2797924945
0.279799596
0.2798026786
0.2798032213
0.2798023112
0.2798006902
0.279798807
0.2797968651
0.2797949831
0.2797931828
0.2797915209
0.2797900647
0.2797887547
0.2797877957
0.2797646353
0.2797685965
0.2797720073
0.2797746715
0.2797767376
0.2797782375
0.2797793342
0.2797800645
0.2797805614
0.279780814
0.2797809957
0.2797810723
0.2797810617
0.2797810024
0.2797569038
0.2797588643
0.2797609957
0.2797631359
0.2797651818
0.2797670577
0.2797687947
0.2797702841
0.2797716121
0.2797727142
0.2797736561
0.279774458
0.2797751095
0.2797755478
0.279755351
0.279756617
0.2797582136
0.2797600464
0.2797619491
0.279763863
0.279765698
0.2797673918
0.2797689182
0.2797703037
0.2797715012
0.2797725233
0.2797733954
0.2797741355
0.2797746292
0.2797593872
0.2797624635
0.2797657611
0.2797689156
0.279771693
0.2797740082
0.2797758063
0.279777204
0.2797782561
0.2797789862
0.2797795617
0.2797799448
0.2797801846
0.2797803284
0.2797804221
0.2797675413
0.2797762365
0.279783336
0.279788262
0.2797911757
0.2797925619
0.2797928564
0.279792471
0.2797917484
0.2797907927
0.2797897613
0.2797887305
0.2797877593
0.2797868817
0.2797861606
0.2798007419
0.2798208836
0.2798299075
0.2798314617
0.2798288738
0.2798244758
0.2798195899
0.2798147744
0.2798102967
0.27980635
0.2798028885
0.2797999028
0.2797972828
0.2797951356
0.2797935235
0.2798915425
0.2799069936
0.2798958475
0.2798786178
0.2798620886
0.2798480112
0.2798364958
0.2798272425
0.2798197543
0.2798136092
0.2798086215
0.2798044782
0.2798010195
0.2797981889
0.2797961458
0.2797992308
0.2798193504
0.2798283787
0.2798298979
0.2798273836
0.2798229859
0.2798180679
0.2798132034
0.2798087521
0.2798047983
0.2798013121
0.2797983028
0.2797956711
0.2797934972
0.2797919434
0.2797776444
0.2797847805
0.2797897057
0.2797926125
0.2797939789
0.2797943076
0.2797939342
0.2797931616
0.2797921818
0.2797911039
0.2797900727
0.2797891207
0.2797882435
0.2797875405
0.279760973
0.2797642784
0.2797674221
0.2797701499
0.2797724527
0.2797742184
0.2797756347
0.279776621
0.2797773885
0.2797779774
0.279778335
0.2797785834
0.2797787792
0.2797788681
0.2797562681
0.279757874
0.2797596815
0.2797616652
0.2797636424
0.2797654763
0.2797671478
0.2797687215
0.2797700901
0.2797712808
0.2797722943
0.2797732138
0.2797739715
0.279774511
0.2797547653
0.2797554664
0.2797565255
0.2797578169
0.2797592241
0.2797607526
0.2797623858
0.2797639265
0.2797653913
0.2797667507
0.2797680252
0.2797691859
0.2797701987
0.2797711055
0.2797717937
0.2797552219
0.2797568108
0.279758822
0.2797609808
0.2797631033
0.2797651436
0.2797670001
0.279768572
0.2797699814
0.2797711746
0.2797721264
0.2797729313
0.2797736221
0.2797741998
0.279774635
0.2797591244
0.2797631295
0.2797673284
0.2797711419
0.2797743204
0.2797766698
0.279778396
0.2797795075
0.2797802264
0.2797807067
0.2797808873
0.27978093
0.2797808648
0.2797807938
0.2797807358
0.2797665749
0.2797752644
0.2797824572
0.2797873652
0.2797903092
0.2797916793
0.2797920425
0.2797916598
0.279790939
0.2797899555
0.2797889301
0.2797878654
0.2797868663
0.2797859367
0.2797852791
0.2797810811
0.2797936872
0.2798007931
0.2798038587
0.2798043721
0.2798035375
0.27980194
0.279800026
0.2797980785
0.2797961737
0.2797943851
0.2797927788
0.2797912958
0.2797900148
0.2797890625
0.2797676387
0.2797763036
0.2797834066
0.2797882759
0.2797911981
0.2797925939
0.2797928808
0.2797925299
0.2797917665
0.2797907465
0.2797897117
0.279788642
0.2797876737
0.2797867861
0.2797860641
0.2797588966
0.2797628638
0.2797670546
0.279770905
0.2797739796
0.2797763668
0.2797780421
0.2797791633
0.2797798899
0.2797803074
0.2797804849
0.2797804997
0.2797803621
0.2797802842
0.279780173
0.2797581813
0.2797601639
0.2797623286
0.2797645256
0.2797664598
0.2797683126
0.2797698874
0.2797712817
0.2797724025
0.2797734011
0.2797742
0.2797748744
0.2797754282
0.2797758559
0.2797557961
0.2797568334
0.2797581258
0.2797595485
0.2797610983
0.2797626694
0.2797642256
0.2797656863
0.2797670274
0.2797682741
0.279769423
0.2797704884
0.2797713901
0.2797720616
0.2797556457
0.2797560442
0.2797565865
0.2797573534
0.2797582846
0.2797593657
0.2797605792
0.2797618469
0.279763132
0.2797644341
0.2797657405
0.2797669243
0.2797680555
0.2797690844
0.2797698281
0.2797558671
0.2797566093
0.2797576502
0.2797588776
0.2797603231
0.279761821
0.2797633248
0.2797648142
0.279766205
0.2797674636
0.2797686424
0.2797697089
0.2797706895
0.2797715445
0.2797721909
0.2797558295
0.2797574754
0.2797594548
0.2797616136
0.2797637723
0.2797657895
0.2797676121
0.2797692361
0.2797706019
0.2797717222
0.2797726998
0.2797735316
0.2797742514
0.2797748085
0.279775173
0.2797585769
0.2797616335
0.2797649431
0.279768112
0.2797708373
0.2797731093
0.279774919
0.2797763417
0.2797774029
0.2797782084
0.2797787218
0.2797791322
0.2797794254
0.2797796356
0.2797797073
0.2797602123
0.2797643819
0.2797683637
0.279771781
0.2797744902
0.2797765264
0.2797780503
0.2797791167
0.2797798546
0.2797803458
0.2797806976
0.2797808334
0.2797808865
0.279780879
0.2797808473
0.2797589528
0.2797619651
0.2797652909
0.2797684525
0.2797712323
0.2797734893
0.2797752934
0.2797766522
0.279777726
0.2797784758
0.2797790189
0.279779379
0.2797796672
0.2797798377
0.2797799603
0.2797565998
0.2797582442
0.2797602104
0.2797623879
0.2797645736
0.2797665656
0.2797683723
0.2797699625
0.2797713468
0.2797724662
0.2797734528
0.2797742997
0.2797750202
0.2797755957
0.2797759915
0.2797554099
0.2797561853
0.279757192
0.279758434
0.2797598506
0.2797613252
0.2797628221
0.2797642888
0.2797656638
0.279766938
0.2797681775
0.2797692435
0.2797702503
0.279771088
0.2797717479
0.2797547403
0.2797552896
0.2797560881
0.2797570706
0.2797581836
0.279759389
0.2797606285
0.2797619501
0.2797632261
0.279764449
0.2797656947
0.2797668385
0.2797678816
0.2797686828
0.2797541532
0.2797543896
0.2797547446
0.2797552226
0.2797558715
0.2797566582
0.2797576228
0.2797586647
0.2797597682
0.2797609526
0.2797621452
0.2797633851
0.2797645513
0.2797656351
0.2797664906
0.2797546004
0.27975495
0.2797555566
0.2797563308
0.2797572775
0.279758415
0.2797595843
0.2797608437
0.2797620911
0.2797633404
0.2797645675
0.279765745
0.2797668823
0.2797678908
0.279768676
0.2797546777
0.279755398
0.2797564117
0.2797576931
0.2797591125
0.2797606204
0.2797622221
0.2797637807
0.2797652662
0.2797666617
0.2797679355
0.2797691031
0.2797701013
0.2797709803
0.2797716626
0.2797569129
0.2797581566
0.279759746
0.2797615403
0.2797634988
0.2797654489
0.279767318
0.2797690081
0.2797704683
0.2797718781
0.2797730548
0.2797741077
0.2797749989
0.279775765
0.2797762933
0.2797573887
0.2797589403
0.2797608261
0.2797629098
0.2797650187
0.279767052
0.2797689556
0.2797706575
0.2797721447
0.2797734953
0.279774608
0.2797755528
0.2797763622
0.2797769649
0.2797774126
0.2797562544
0.2797575295
0.2797591046
0.2797609452
0.2797628801
0.2797648167
0.2797666681
0.2797683774
0.2797699307
0.2797712757
0.2797724611
0.2797735366
0.2797743876
0.2797751183
0.2797756413
0.2797550973
0.2797558431
0.2797568517
0.2797581104
0.2797596113
0.2797611388
0.2797627029
0.2797642309
0.2797656937
0.2797670742
0.2797683575
0.2797695035
0.2797705222
0.2797714361
0.2797721411
0.2797551197
0.2797555308
0.2797561083
0.2797568881
0.2797578025
0.2797589169
0.2797601124
0.2797613615
0.279762657
0.2797639232
0.2797651694
0.2797663845
0.2797675496
0.279768568
0.2797694071
0.2797546157
0.2797548604
0.2797552037
0.2797557108
0.279756405
0.2797572094
0.2797581503
0.2797592212
0.2797603459
0.2797615232
0.2797626872
0.2797639032
0.279765078
0.2797661659
0.2797670144
)
;

boundaryField
{
    top
    {
        type            calculated;
        value           nonuniform List<scalar> 
127
(
0.2797546157
0.2797540069
0.2797541731
0.2797565463
0.2797571274
0.2797569038
0.2797562681
0.2797557961
0.2797547403
0.2797548604
0.2797543689
0.279754751
0.2797575708
0.2797586908
0.2797588643
0.279757874
0.2797568334
0.2797552896
0.2797552037
0.2797548705
0.279755546
0.2797588147
0.2797605565
0.2797609957
0.2797596815
0.2797581258
0.2797560881
0.2797557108
0.2797555407
0.2797564862
0.2797602599
0.2797625053
0.2797631359
0.2797616652
0.2797595485
0.2797570706
0.279756405
0.2797563523
0.2797575845
0.2797617905
0.2797644544
0.2797651818
0.2797636424
0.2797610983
0.2797581836
0.2797572094
0.2797572819
0.2797587547
0.2797633542
0.2797663304
0.2797670577
0.2797654763
0.2797626694
0.279759389
0.2797581503
0.2797583343
0.2797600896
0.2797648869
0.2797680225
0.2797687947
0.2797671478
0.2797642256
0.2797606285
0.2797592212
0.2797594605
0.2797613866
0.2797663474
0.2797695375
0.2797702841
0.2797687215
0.2797656863
0.2797619501
0.2797603459
0.279760638
0.2797626795
0.2797676856
0.2797709069
0.2797716121
0.2797700901
0.2797670274
0.2797632261
0.2797615232
0.2797618152
0.2797639074
0.2797689287
0.2797720668
0.2797727142
0.2797712808
0.2797682741
0.279764449
0.2797626872
0.2797630192
0.2797650807
0.2797700856
0.2797731125
0.2797736561
0.2797722943
0.279769423
0.2797656947
0.2797639032
0.2797641901
0.2797662066
0.2797711128
0.2797739891
0.279774458
0.2797732138
0.2797704884
0.2797668385
0.279765078
0.279765308
0.2797672425
0.2797720142
0.2797747013
0.2797751095
0.2797739715
0.2797713901
0.2797678816
0.2797661659
0.2797661618
0.2797680377
0.2797726518
0.2797752443
0.2797755478
0.279774511
0.2797720616
0.2797686828
0.2797670144
)
;
    }
    bottom
    {
        type            calculated;
        value           nonuniform List<scalar> 
134
(
0.2797549053
0.2797552231
0.279755739
0.2797563387
0.279755351
0.2797547653
0.2797556457
0.2797541532
0.2797547629
0.2797553463
0.2797559919
0.2797570215
0.2797578895
0.279756617
0.2797554664
0.2797560442
0.2797543896
0.2797551261
0.2797558922
0.2797569916
0.2797586484
0.2797598259
0.2797582136
0.2797565255
0.2797565865
0.2797547446
0.2797556471
0.2797566411
0.2797582621
0.2797604719
0.2797619159
0.2797600464
0.2797578169
0.2797573534
0.2797552226
0.2797563181
0.279757589
0.2797597146
0.2797623977
0.2797640234
0.2797619491
0.2797592241
0.2797582846
0.2797558715
0.2797571481
0.2797586625
0.279761256
0.2797642813
0.2797660839
0.279763863
0.2797607526
0.2797593657
0.2797566582
0.2797581073
0.2797598845
0.2797628123
0.279766138
0.2797679651
0.279765698
0.2797623858
0.2797605792
0.2797576228
0.2797591287
0.2797611358
0.2797643223
0.2797678334
0.2797696556
0.2797673918
0.2797639265
0.2797618469
0.2797586647
0.2797602624
0.2797624153
0.2797657929
0.2797693795
0.2797711659
0.2797689182
0.2797653913
0.279763132
0.2797597682
0.2797614151
0.2797636789
0.2797671577
0.2797707854
0.2797724835
0.2797703037
0.2797667507
0.2797644341
0.2797609526
0.2797626229
0.2797649385
0.2797684515
0.2797719563
0.27977357
0.2797715012
0.2797680252
0.2797657405
0.2797621452
0.2797638121
0.2797661092
0.2797696106
0.2797730076
0.279774545
0.2797725233
0.2797691859
0.2797669243
0.2797633851
0.2797649693
0.279767226
0.2797706435
0.279773886
0.2797753068
0.2797733954
0.2797701987
0.2797680555
0.2797645513
0.2797660002
0.2797683079
0.2797715712
0.279774614
0.2797759297
0.2797741355
0.2797711055
0.2797690844
0.2797656351
0.2797668535
0.2797691104
0.2797722556
0.2797751337
0.2797764159
0.2797746292
0.2797717937
0.2797698281
0.2797664906
)
;
    }
    side-walls
    {
        type            calculated;
        value           nonuniform List<scalar> 
261
(
0.2797547629
0.2797548527
0.2797562998
0.2797574913
0.2797569515
0.279756062
0.2797558102
0.2797549702
0.2797540069
0.2797551261
0.279755392
0.2797573628
0.2797590624
0.2797589011
0.2797576304
0.2797568022
0.279755543
0.2797543689
0.2797556471
0.2797561858
0.2797586292
0.2797608937
0.2797609534
0.2797594499
0.2797581085
0.2797562753
0.2797548705
0.2797563181
0.2797571687
0.2797600647
0.2797628219
0.2797631051
0.2797613527
0.279759533
0.2797572724
0.2797555407
0.2797571481
0.2797582767
0.2797615911
0.2797647692
0.2797651384
0.2797633013
0.279761081
0.2797583357
0.2797563523
0.2797581073
0.279759512
0.279763161
0.2797666415
0.2797670116
0.2797651627
0.2797626783
0.2797595277
0.2797572819
0.2797591287
0.2797607461
0.279764742
0.2797683426
0.2797687458
0.2797668476
0.2797641625
0.2797608032
0.2797583343
0.2797602624
0.2797620317
0.2797662118
0.2797698714
0.2797702424
0.2797684022
0.27976564
0.2797620645
0.2797594605
0.2797614151
0.2797633007
0.2797675969
0.2797712656
0.2797715118
0.2797697994
0.2797670103
0.2797633856
0.279760638
0.2797626229
0.2797645781
0.2797688567
0.2797724482
0.2797726731
0.2797710377
0.2797683144
0.2797646314
0.2797618152
0.2797638121
0.2797657895
0.279770015
0.27977353
0.2797736034
0.2797720399
0.2797694786
0.2797658124
0.2797630192
0.2797649693
0.279766915
0.2797710496
0.2797744271
0.2797744235
0.2797729117
0.2797705229
0.2797669353
0.2797641901
0.2797660002
0.2797679347
0.2797719178
0.2797751797
0.2797750753
0.2797736529
0.2797714372
0.2797679553
0.279765308
0.2797668535
0.2797687496
0.2797725513
0.279775689
0.2797755113
0.2797741861
0.279772114
0.2797687514
0.2797661618
0.2797541532
0.2797546004
0.2797546777
0.2797569129
0.2797573887
0.2797562544
0.2797550973
0.2797551197
0.2797546157
0.2797543896
0.27975495
0.279755398
0.2797581566
0.2797589403
0.2797575295
0.2797558431
0.2797555308
0.2797548604
0.2797547446
0.2797555566
0.2797564117
0.279759746
0.2797608261
0.2797591046
0.2797568517
0.2797561083
0.2797552037
0.2797552226
0.2797563308
0.2797576931
0.2797615403
0.2797629098
0.2797609452
0.2797581104
0.2797568881
0.2797557108
0.2797558715
0.2797572775
0.2797591125
0.2797634988
0.2797650187
0.2797628801
0.2797596113
0.2797578025
0.279756405
0.2797566582
0.279758415
0.2797606204
0.2797654489
0.279767052
0.2797648167
0.2797611388
0.2797589169
0.2797572094
0.2797576228
0.2797595843
0.2797622221
0.279767318
0.2797689556
0.2797666681
0.2797627029
0.2797601124
0.2797581503
0.2797586647
0.2797608437
0.2797637807
0.2797690081
0.2797706575
0.2797683774
0.2797642309
0.2797613615
0.2797592212
0.2797597682
0.2797620911
0.2797652662
0.2797704683
0.2797721447
0.2797699307
0.2797656937
0.279762657
0.2797603459
0.2797609526
0.2797633404
0.2797666617
0.2797718781
0.2797734953
0.2797712757
0.2797670742
0.2797639232
0.2797615232
0.2797621452
0.2797645675
0.2797679355
0.2797730548
0.279774608
0.2797724611
0.2797683575
0.2797651694
0.2797626872
0.2797633851
0.279765745
0.2797691031
0.2797741077
0.2797755528
0.2797735366
0.2797695035
0.2797663845
0.2797639032
0.2797645513
0.2797668823
0.2797701013
0.2797749989
0.2797763622
0.2797743876
0.2797705222
0.2797675496
0.279765078
0.2797656351
0.2797678908
0.2797709803
0.279775765
0.2797769649
0.2797751183
0.2797714361
0.279768568
0.2797661659
0.2797664906
0.279768676
0.2797716626
0.2797762933
0.2797774126
0.2797756413
0.2797721411
0.2797694071
0.2797670144
)
;
    }
    inlet
    {
        type            calculated;
        value           nonuniform 0();
    }
    outlet
    {
        type            calculated;
        value           nonuniform List<scalar> 
81
(
0.2797668535
0.2797687496
0.2797725513
0.279775689
0.2797755113
0.2797741861
0.279772114
0.2797687514
0.2797661618
0.2797691104
0.2797710495
0.2797746958
0.2797801701
0.2797810452
0.2797801113
0.2797742772
0.2797723711
0.2797680377
0.2797722556
0.2797758209
0.2797816836
0.2797858822
0.2797897172
0.2797864033
0.2797821991
0.2797736462
0.2797726518
0.2797751337
0.2797787608
0.2797865418
0.2797921446
0.2797962903
0.2797934181
0.2797856628
0.2797795912
0.2797752443
0.2797764159
0.2797816198
0.2797887337
0.2797961054
0.2811745053
0.2797965394
0.2797877957
0.2797810024
0.2797755478
0.2797746292
0.2797804221
0.2797861606
0.2797935235
0.2797961458
0.2797919434
0.2797875405
0.2797788681
0.279774511
0.2797717937
0.279774635
0.2797807358
0.2797852791
0.2797890625
0.2797860641
0.279780173
0.2797758559
0.2797720616
0.2797698281
0.2797721909
0.279775173
0.2797797073
0.2797808473
0.2797799603
0.2797759915
0.2797717479
0.2797686828
0.2797664906
0.279768676
0.2797716626
0.2797762933
0.2797774126
0.2797756413
0.2797721411
0.2797694071
0.2797670144
)
;
    }
    procBoundary1to0
    {
        type            processor;
        value           nonuniform List<scalar> 
97
(
0.2797545038
0.2797545038
0.279754447
0.2797555456
0.2797562349
0.2797553628
0.2797548161
0.2797550857
0.2797545577
0.2797538053
0.2797547069
0.2797547241
0.2797547241
0.2797547241
0.27975542
0.2797590429
0.2797604532
0.2797589767
0.2797550736
0.2797560074
0.2797537878
0.2797547565
0.2797555165
0.2797601137
0.2797601137
0.2797601137
0.2797672624
0.2797818834
0.2797677812
0.2797607112
0.2797543334
0.2797557991
0.2797548877
0.2797553789
0.2797600609
0.2797994255
0.2797994255
0.2797994255
0.2798916283
0.2798007713
0.279767071
0.2797584913
0.2797558453
0.2797552834
0.2797575257
0.279764084
0.2797908423
0.282007366
0.282007366
0.282007366
0.2798919439
0.2798919439
0.2797798768
0.2797604141
0.2797553349
0.2797545607
0.2797571723
0.2797595366
0.279771059
0.2797908379
0.2797695509
0.2797689466
0.2797689466
0.2797689466
0.2797579023
0.2797550244
0.2797542843
0.2797541846
0.2797561647
0.2797586011
0.2797643208
0.2797596688
0.279755894
0.2797566303
0.2797566303
0.2797566303
0.2797550833
0.2797554052
0.2797554003
0.2797547419
0.2797563674
0.2797567072
0.2797567369
0.2797555554
0.2797549789
0.279754328
0.279754328
0.279754328
0.2797540095
0.2797543712
0.2797542362
0.2797561184
0.2797563547
0.2797554657
0.279754635
0.2797549134
0.2797545113
)
;
    }
}


// ************************************************************************* //
