/*--------------------------------*- C++ -*----------------------------------*\
| =========                 |                                                 |
| \\      /  F ield         | OpenFOAM: The Open Source CFD Toolbox           |
|  \\    /   O peration     | Version:  4.x                                   |
|   \\  /    A nd           | Web:      www.OpenFOAM.org                      |
|    \\/     M anipulation  |                                                 |
\*---------------------------------------------------------------------------*/
FoamFile
{
    version     2.0;
    format      ascii;
    class       volVectorField;
    location    "5000";
    object      U;
}
// * * * * * * * * * * * * * * * * * * * * * * * * * * * * * * * * * * * * * //

dimensions      [0 1 -1 0 0 0 0];

internalField   nonuniform List<vector> 
1174
(
(0.01100018718 -8.037745053e-09 -7.51435626e-09)
(0.01100020636 -8.091582565e-09 -6.443044777e-09)
(0.0110002304 -7.981044126e-09 -6.326592376e-09)
(0.01100022843 -6.035043541e-09 -3.994573906e-09)
(0.01100021253 -2.355597206e-09 -1.319878164e-09)
(0.0110001865 -2.341036514e-09 1.570519293e-10)
(0.01100015145 -6.714750859e-10 3.70827583e-10)
(0.01100010747 -1.165763465e-09 1.083967842e-09)
(0.01100005767 -2.052059648e-11 5.931322644e-10)
(0.01100000709 -1.42037524e-09 4.684406808e-09)
(0.01099995751 6.632504462e-10 3.871176361e-09)
(0.01099990252 4.811796123e-10 2.248655094e-09)
(0.01099985793 2.495174364e-09 4.218275205e-09)
(0.01099980862 4.259792982e-09 3.902926459e-09)
(0.01100019583 -4.32984739e-08 -9.216411585e-09)
(0.01100019846 -3.934254198e-08 -1.061239465e-08)
(0.01100021399 -2.830182014e-08 -6.171143653e-09)
(0.01100019625 -1.978541016e-08 -5.530211586e-09)
(0.0110001695 -1.326892753e-08 -2.789345922e-09)
(0.01100012415 -7.102728207e-09 -1.459309986e-09)
(0.0110000752 -2.199433753e-09 -5.35073235e-10)
(0.01100002262 -1.181145778e-09 4.844504677e-12)
(0.01099996752 3.99782529e-10 1.770397296e-09)
(0.01099991299 2.477957946e-09 8.805114607e-10)
(0.01099986112 2.628776651e-09 3.375547924e-09)
(0.0109998104 4.701906466e-09 3.072673436e-09)
(0.01099976846 7.954839649e-09 3.849981212e-09)
(0.010999722 7.111817474e-09 2.798575568e-09)
(0.01100022042 -3.338128904e-08 -1.76392541e-08)
(0.01100018822 -3.673737674e-08 -2.054326613e-08)
(0.01100018173 -2.475476821e-08 -1.328121357e-08)
(0.011000134 -1.681677038e-08 -8.143134739e-09)
(0.01100007533 -9.513855082e-09 -3.752331364e-10)
(0.01100000913 -5.628008735e-09 5.077726657e-10)
(0.01099993972 -1.69444915e-09 2.191978796e-10)
(0.01099987402 2.781309085e-09 1.346314825e-09)
(0.01099981375 4.801319915e-09 1.979177698e-09)
(0.01099975633 4.431027933e-09 1.641986057e-10)
(0.01099970696 6.52577855e-09 2.156847416e-09)
(0.01099966298 6.677353485e-09 1.809892901e-09)
(0.01099962395 9.404619609e-09 2.025159221e-09)
(0.0109995869 7.784869527e-09 1.152869322e-09)
(0.01100023024 -5.498220221e-08 -3.720037023e-09)
(0.01100013697 -3.654018846e-08 -2.158255965e-08)
(0.01100010609 -1.897194185e-08 -1.2087925e-08)
(0.01100003029 -9.600330203e-09 -2.101910997e-09)
(0.01099994962 -4.756620301e-09 -1.616038734e-09)
(0.01099986563 1.815041784e-10 5.627816689e-09)
(0.01099978847 1.684663557e-09 4.97256762e-09)
(0.01099971835 2.092484208e-09 3.757617541e-09)
(0.0109996587 2.934961304e-09 3.276473428e-09)
(0.01099960704 3.414274006e-09 3.091955208e-09)
(0.01099955882 3.974879071e-09 3.532866521e-09)
(0.0109995208 3.724360564e-09 2.304281836e-09)
(0.01099949189 4.471353247e-09 3.050851328e-09)
(0.010999466 5.325131943e-09 4.124319576e-09)
(0.01100031053 4.110718594e-10 -1.567102215e-08)
(0.01100013934 -7.689070747e-10 -2.292093418e-08)
(0.01100008146 -2.183888349e-10 -7.645465047e-09)
(0.01099997754 2.58423912e-09 -6.617738668e-10)
(0.010999884 1.147100962e-09 2.473457573e-09)
(0.01099979595 8.192288063e-10 4.205783991e-09)
(0.01099971544 -1.254371613e-09 4.323057934e-09)
(0.01099964943 -9.930942488e-10 1.70508636e-09)
(0.01099958811 -5.150412423e-10 2.852145593e-09)
(0.01099953904 9.045601194e-10 1.818043609e-09)
(0.01099949975 1.287630717e-09 2.909284804e-10)
(0.01099946395 2.017810647e-09 1.051924753e-09)
(0.010999437 2.317871546e-09 2.841902921e-09)
(0.01099941788 4.679670028e-10 2.790787857e-09)
(0.01100023013 5.563971824e-08 -4.011145764e-09)
(0.01100013587 3.815430676e-08 -2.176923907e-08)
(0.01100010628 2.069487797e-08 -1.199172872e-08)
(0.01100002972 8.98924948e-09 -3.158358749e-09)
(0.01099994803 4.818914737e-09 9.863516957e-10)
(0.01099986569 3.859997672e-10 3.217425432e-09)
(0.0109997875 -2.479757723e-09 4.565488638e-09)
(0.01099972027 -2.531209785e-09 5.561159116e-09)
(0.01099965811 -4.462128939e-09 5.772515401e-09)
(0.01099960293 -4.143269318e-09 3.038590139e-09)
(0.01099956132 -3.716711883e-09 3.523264764e-09)
(0.01099952131 -5.156046002e-09 2.634885709e-09)
(0.01099949072 -5.88494265e-09 4.296819808e-09)
(0.01099946544 -4.502901061e-09 5.840244509e-09)
(0.01100021743 3.42280567e-08 -1.805858697e-08)
(0.01100019012 3.708057255e-08 -1.947814017e-08)
(0.0110001794 2.474336889e-08 -1.325219729e-08)
(0.01100013291 1.310025928e-08 -5.951189864e-09)
(0.01100007445 6.80632787e-09 -3.068511864e-09)
(0.011000005 2.752439977e-09 2.100804845e-09)
(0.01099994082 -3.474505577e-10 3.97482232e-09)
(0.01099987606 -3.338958756e-09 3.621139277e-09)
(0.01099981367 -5.191909868e-09 4.686301475e-09)
(0.01099976013 -5.865961798e-09 3.793798555e-09)
(0.01099970836 -6.231361977e-09 5.617767278e-09)
(0.01099966174 -6.310208845e-09 3.15732044e-09)
(0.01099962193 -8.094308645e-09 4.539918878e-09)
(0.01099958643 -8.340059873e-09 5.809200907e-09)
(0.01100019553 4.355869256e-08 -7.83318926e-09)
(0.0110001963 3.893577831e-08 -1.211782648e-08)
(0.01100021209 2.900379927e-08 -8.058352613e-09)
(0.01100019432 1.908046005e-08 -4.612088288e-09)
(0.01100016716 1.230652293e-08 -4.303712061e-09)
(0.0110001248 5.973325697e-09 -9.241261032e-10)
(0.01100007308 2.461011211e-09 1.510020501e-09)
(0.01100002695 5.966060201e-10 1.547818573e-09)
(0.01099996722 -5.948355458e-10 2.301953585e-09)
(0.01099991522 -2.949043485e-09 3.574123807e-09)
(0.01099986289 -3.893775432e-09 4.093051096e-09)
(0.01099980856 -6.411511815e-09 2.998438627e-09)
(0.01099976658 -7.910560894e-09 3.891272125e-09)
(0.0109997204 -7.788894828e-09 5.110806495e-09)
(0.01100018714 7.679852542e-09 -8.619737133e-09)
(0.01100020355 7.356363259e-09 -9.95473172e-09)
(0.01100022695 5.955660948e-09 -7.743916771e-09)
(0.01100022599 5.237675029e-09 -4.049271894e-09)
(0.01100021415 2.382861121e-09 -5.239350051e-09)
(0.01100018675 2.006481227e-09 -2.668819783e-09)
(0.01100015027 7.546826263e-10 -9.910712596e-10)
(0.01100010806 -4.843834488e-10 5.553308345e-10)
(0.01100005942 -1.385854265e-09 2.632467046e-09)
(0.01100001188 -2.345064248e-09 3.123707219e-09)
(0.01099995606 -1.545268201e-09 2.914758783e-09)
(0.01099990506 -3.234983454e-09 2.759578716e-09)
(0.01099985541 -4.970429314e-09 3.678899388e-09)
(0.01099980657 -3.060905982e-09 3.217622505e-09)
(0.01100011027 -2.768992364e-08 -7.253736367e-08)
(0.01100019657 -8.285895091e-09 -4.1152321e-08)
(0.01100019774 -1.114377787e-08 -3.912466487e-08)
(0.01100021589 -8.473127067e-09 -2.518459092e-08)
(0.01100019563 -5.719731416e-09 -1.794671842e-08)
(0.01100016783 -3.858984649e-09 -1.135045729e-08)
(0.01100012632 -2.156301412e-09 -6.320416686e-09)
(0.01100007596 1.888801678e-10 -2.394045135e-09)
(0.01100002282 1.429590762e-10 2.436204979e-10)
(0.01099996713 2.363938953e-09 2.415697991e-09)
(0.01099991464 1.105596481e-09 3.164803442e-09)
(0.01099986011 1.962685841e-09 5.10231654e-09)
(0.01099981079 2.580783398e-09 6.709060155e-09)
(0.01099976624 2.81145771e-09 8.349284911e-09)
(0.01099971758 3.934265546e-09 7.97726723e-09)
(0.0110002092 -5.049175867e-08 -5.091635804e-08)
(0.01100017195 -5.095839459e-08 -5.109502192e-08)
(0.01100016723 -3.488869436e-08 -3.335452878e-08)
(0.01100012241 -2.161710456e-08 -1.895451543e-08)
(0.01100007237 -1.062826333e-08 -1.209485322e-08)
(0.0110000098 -3.712053335e-09 -3.087703021e-09)
(0.01099994615 -1.642944932e-10 1.753277418e-10)
(0.01099988862 3.637172821e-09 3.991020662e-09)
(0.01099983276 5.154598737e-09 6.231608687e-09)
(0.01099977944 7.575336543e-09 5.036513839e-09)
(0.01099973102 6.6708578e-09 8.599053958e-09)
(0.01099969023 6.816449111e-09 7.80904967e-09)
(0.01099965073 8.521635254e-09 1.136103088e-08)
(0.01099961487 7.868826559e-09 8.523698419e-09)
(0.01100023067 -2.743782699e-08 -9.754527588e-08)
(0.01100010369 -4.68361334e-08 -8.508545583e-08)
(0.01100005266 -2.888216031e-08 -4.461018581e-08)
(0.01099995502 -1.453400777e-08 -2.006920596e-08)
(0.01099986601 -4.153915946e-09 -5.854369357e-09)
(0.01099978039 2.672210205e-09 3.832087254e-09)
(0.01099970556 5.595025692e-09 8.253167599e-09)
(0.01099964646 6.139136962e-09 9.96640638e-09)
(0.01099959614 7.955519932e-09 1.187052633e-08)
(0.01099955467 6.798665245e-09 1.081731976e-08)
(0.01099952047 8.032137428e-09 1.072974199e-08)
(0.01099949287 8.585776654e-09 1.116280045e-08)
(0.01099946892 1.05726706e-08 1.000959733e-08)
(0.0109994525 1.032458936e-08 9.182432104e-09)
(0.0110001878 -5.451255506e-08 -7.527417313e-08)
(0.01099990264 -4.050053004e-08 -9.544620734e-08)
(0.01099981804 -1.628445761e-08 -4.017873084e-08)
(0.01099968658 -1.859981665e-09 -8.684708187e-09)
(0.01099958001 3.647409245e-09 7.586589359e-09)
(0.0109994931 5.427749292e-09 1.536469841e-08)
(0.0109994286 7.463250764e-09 1.777342737e-08)
(0.01099938488 5.454685676e-09 1.724419179e-08)
(0.01099935333 5.490535026e-09 1.604032375e-08)
(0.01099933235 5.773442079e-09 1.353366325e-08)
(0.01099931707 5.389429377e-09 1.112523e-08)
(0.01099930944 6.211821443e-09 1.078858171e-08)
(0.01099930651 6.765933907e-09 1.41152517e-08)
(0.01099930183 6.83895121e-09 1.0744974e-08)
(0.01100031204 -1.301057774e-09 -1.031589483e-07)
(0.0109997902 -5.604754699e-10 -8.560651643e-08)
(0.01099966495 5.018894233e-10 -1.682126267e-08)
(0.01099951997 1.41708256e-09 1.22569723e-08)
(0.01099941191 -1.073483193e-09 1.871668475e-08)
(0.01099934143 -1.346912445e-09 2.120353876e-08)
(0.01099929467 -1.900699615e-09 1.92132077e-08)
(0.01099926513 9.396403437e-10 1.774242972e-08)
(0.01099924252 1.195020504e-09 1.238726548e-08)
(0.01099923612 -3.987663272e-10 1.327189257e-08)
(0.01099923404 5.090246752e-10 1.293100685e-08)
(0.01099923318 1.348543566e-09 1.062619451e-08)
(0.01099923551 2.210407727e-09 1.236643208e-08)
(0.01099923755 5.953019208e-10 1.206369216e-08)
(0.01100018564 5.153017704e-08 -7.573962144e-08)
(0.01099990312 4.046456924e-08 -9.590461974e-08)
(0.01099981903 1.403461715e-08 -4.038912496e-08)
(0.01099968497 1.210008377e-09 -9.013344683e-09)
(0.01099957864 -4.123890593e-09 6.339746303e-09)
(0.01099949486 -6.636791936e-09 1.467309191e-08)
(0.01099942934 -5.297352273e-09 1.715782703e-08)
(0.01099938543 -6.1949866e-09 1.691307173e-08)
(0.0109993535 -6.670736112e-09 1.446814697e-08)
(0.01099933207 -5.337276611e-09 1.274675685e-08)
(0.01099931849 -3.005992617e-09 1.373893191e-08)
(0.01099930864 -5.595614811e-09 1.124537649e-08)
(0.01099930414 -6.981805208e-09 1.297131182e-08)
(0.01099929909 -4.316641795e-09 1.139264643e-08)
(0.01100022789 2.959293279e-08 -9.729172064e-08)
(0.01100010332 4.842332591e-08 -8.582892595e-08)
(0.01100005293 3.092440655e-08 -4.50531117e-08)
(0.01099995503 1.103192406e-08 -2.066886548e-08)
(0.01099986578 4.105177272e-09 -5.998767409e-09)
(0.01099977986 -2.183700628e-09 5.247267667e-09)
(0.01099970705 -7.239257348e-09 1.102116657e-08)
(0.01099964798 -8.292724623e-09 1.204126239e-08)
(0.01099959561 -9.228828244e-09 1.291822782e-08)
(0.01099955593 -6.926545965e-09 1.171773482e-08)
(0.01099952206 -8.451855122e-09 1.204465296e-08)
(0.01099949296 -9.600931057e-09 1.065330043e-08)
(0.01099947146 -1.122752814e-08 1.283216811e-08)
(0.01099944771 -1.022015337e-08 1.00265201e-08)
(0.01100020633 5.339271484e-08 -5.197053113e-08)
(0.01100017113 5.239831411e-08 -5.109649674e-08)
(0.01100016363 3.535318867e-08 -3.595398069e-08)
(0.01100012172 2.189515365e-08 -2.228199936e-08)
(0.01100007076 1.246238301e-08 -1.048577864e-08)
(0.01100000973 3.822307302e-09 -3.390130509e-09)
(0.01099994785 -1.400642681e-09 2.573827231e-09)
(0.01099989162 -3.359762495e-09 5.770397606e-09)
(0.01099983473 -5.279840547e-09 5.562457874e-09)
(0.01099978102 -5.496098259e-09 6.89617282e-09)
(0.01099973063 -6.938100138e-09 7.127786972e-09)
(0.0109996876 -8.12891625e-09 8.461415227e-09)
(0.01099965321 -9.650120354e-09 8.961279216e-09)
(0.01099961511 -9.839841763e-09 7.493206489e-09)
(0.01100019796 9.08301982e-09 -4.166620643e-08)
(0.01100019831 1.083157047e-08 -3.825521998e-08)
(0.01100021296 8.223434808e-09 -2.842607936e-08)
(0.01100019529 6.859072016e-09 -1.991264214e-08)
(0.01100016739 1.824079726e-09 -1.267121854e-08)
(0.01100012751 1.174302059e-09 -7.196337736e-09)
(0.01100007475 1.123171331e-09 -1.166145446e-09)
(0.01100002205 -3.078912484e-11 1.450281019e-09)
(0.01099996958 -1.627712407e-09 2.701892065e-09)
(0.01099991491 -2.245045921e-09 4.155818877e-09)
(0.01099986138 -2.984398227e-09 4.980315586e-09)
(0.01099981016 -2.472566537e-09 7.409566285e-09)
(0.01099976877 -3.306285123e-09 6.694747721e-09)
(0.01099972071 -3.511023222e-09 6.867616521e-09)
(0.01100009362 -5.995357783e-08 -9.05051461e-08)
(0.01100021847 -1.357366771e-08 -3.291262285e-08)
(0.0110001883 -1.861518418e-08 -3.642525191e-08)
(0.01100018242 -9.532856864e-09 -2.444891173e-08)
(0.01100013207 -2.548497636e-09 -1.402822305e-08)
(0.01100007682 -3.254347714e-09 -8.172550922e-09)
(0.01100000825 2.015802456e-09 -1.944499638e-09)
(0.01099993947 4.269069253e-09 6.959794145e-10)
(0.01099987552 5.248677681e-09 7.227398912e-10)
(0.0109998135 6.455521521e-09 5.028543714e-09)
(0.01099975789 4.14643226e-09 4.863285364e-09)
(0.01099970773 5.825545402e-09 6.642287392e-09)
(0.01099966052 5.493909127e-09 6.77225079e-09)
(0.01099962051 7.495637801e-09 1.096364696e-08)
(0.01099958087 6.399678731e-09 1.022386565e-08)
(0.01100008135 -2.643694363e-07 -1.50964555e-07)
(0.01100022861 -9.709831782e-08 -2.936321959e-08)
(0.01100010119 -8.422360842e-08 -4.808732401e-08)
(0.01100005234 -4.485326664e-08 -2.825427832e-08)
(0.0109999536 -1.986077641e-08 -1.23056641e-08)
(0.01099986625 -5.532460597e-09 -1.760629662e-09)
(0.01099977885 2.078415877e-09 3.650025371e-09)
(0.01099970847 8.134100735e-09 8.044803917e-09)
(0.01099964576 9.926100687e-09 9.606813577e-09)
(0.01099959579 1.003834424e-08 9.819693212e-09)
(0.01099955649 1.08240211e-08 9.449952265e-09)
(0.01099952344 8.998959284e-09 9.485215061e-09)
(0.01099949239 8.893202351e-09 9.275193733e-09)
(0.01099946821 1.054483029e-08 9.326523765e-09)
(0.01099944986 9.888493342e-09 9.856325325e-09)
(0.01100021924 -5.935656304e-08 -6.076781872e-08)
(0.01099985622 -8.465811951e-08 -8.438284382e-08)
(0.01099970071 -3.241600848e-08 -3.318453394e-08)
(0.01099952132 -2.541897925e-09 -1.859771187e-09)
(0.0109993955 9.645384872e-09 1.091673149e-08)
(0.01099930783 1.554157291e-08 1.525512681e-08)
(0.01099925574 1.680083229e-08 1.748476654e-08)
(0.01099922907 1.449615781e-08 1.368840042e-08)
(0.01099921203 1.322434589e-08 1.420159832e-08)
(0.01099920716 1.352310667e-08 1.219701394e-08)
(0.01099921267 1.021190135e-08 1.165746277e-08)
(0.01099922115 9.285127375e-09 8.794322876e-09)
(0.01099922794 1.270313503e-08 1.146876029e-08)
(0.01099923908 1.243895899e-08 9.868544116e-09)
(0.01099989452 -6.757635421e-08 7.794735588e-08)
(0.01099913543 -3.766781966e-08 -1.056481199e-07)
(0.01099896467 8.553823443e-09 -1.687223489e-08)
(0.01099878689 2.429200359e-08 2.16326974e-08)
(0.01099871048 2.25505265e-08 2.934761912e-08)
(0.01099869666 1.906365639e-08 2.881950576e-08)
(0.01099871909 1.566068072e-08 2.617425607e-08)
(0.01099875978 1.1739864e-08 2.062787106e-08)
(0.01099880874 9.363955361e-09 1.707171615e-08)
(0.01099886172 7.783012152e-09 1.252074969e-08)
(0.01099890973 5.690928712e-09 1.093650836e-08)
(0.01099896088 6.136035947e-09 1.062907241e-08)
(0.01099900416 6.826361305e-09 1.371127984e-08)
(0.01099904341 8.430915018e-09 1.235097521e-08)
(0.01099991695 1.236201147e-09 4.268250962e-07)
(0.01099845542 -3.805717915e-10 -2.162195166e-08)
(0.01099833853 -8.187735793e-10 3.882259403e-08)
(0.01099825664 -2.26537023e-10 6.054048843e-08)
(0.01099827714 -5.442848959e-10 4.550721846e-08)
(0.01099835495 -6.334158102e-10 3.423162811e-08)
(0.01099844106 1.174853885e-10 2.597749422e-08)
(0.01099853464 -4.058027555e-10 1.880696548e-08)
(0.01099862679 -9.582157028e-10 1.468032181e-08)
(0.01099871143 -8.684452134e-10 1.05589533e-08)
(0.01099878264 1.700008899e-09 9.086258831e-09)
(0.0109988528 1.034007072e-09 6.822223961e-09)
(0.0109989126 1.597900609e-09 1.147367621e-08)
(0.01099896287 1.142138195e-09 1.29481109e-08)
(0.01099989152 6.846271635e-08 7.983051531e-08)
(0.01099913551 4.004459515e-08 -1.056789919e-07)
(0.01099896624 -7.775663663e-09 -1.504394403e-08)
(0.0109987888 -2.479105524e-08 2.147539188e-08)
(0.01099871107 -2.250536371e-08 3.004045857e-08)
(0.01099869999 -1.844992042e-08 3.050728662e-08)
(0.01099871951 -1.567050219e-08 2.671602389e-08)
(0.01099875898 -9.970197867e-09 1.978357978e-08)
(0.01099880988 -8.296016433e-09 1.628740657e-08)
(0.01099886097 -7.23702873e-09 1.451049351e-08)
(0.01099891277 -4.21061397e-09 1.099671668e-08)
(0.01099895964 -4.428843729e-09 9.817857163e-09)
(0.01099900273 -7.657520965e-09 1.415843175e-08)
(0.01099904301 -8.231984751e-09 1.266793701e-08)
(0.01100021697 6.091455376e-08 -5.805480628e-08)
(0.01099985318 8.538748209e-08 -8.550743359e-08)
(0.0109996991 3.287628713e-08 -3.138650007e-08)
(0.01099951802 2.010459148e-09 -1.947528556e-09)
(0.01099939642 -1.073770769e-08 9.145260006e-09)
(0.01099931155 -1.59024847e-08 1.540764253e-08)
(0.01099925605 -1.604374423e-08 1.751791226e-08)
(0.01099922622 -1.533054137e-08 1.592039312e-08)
(0.01099921235 -1.446365215e-08 1.291480754e-08)
(0.0109992119 -1.06691613e-08 1.217686081e-08)
(0.01099921112 -1.008151176e-08 1.002483269e-08)
(0.01099921828 -1.016551379e-08 1.048555002e-08)
(0.01099922656 -1.22084296e-08 1.272223744e-08)
(0.0109992356 -1.274973291e-08 8.642157827e-09)
(0.01100023022 9.762725119e-08 -3.029863458e-08)
(0.01100010242 8.408368187e-08 -5.052675089e-08)
(0.01100004984 4.42985847e-08 -3.037348257e-08)
(0.01099995546 2.008741396e-08 -1.334453596e-08)
(0.01099986446 6.129692542e-09 -6.520097913e-09)
(0.01099977969 -4.512966009e-09 3.125411801e-09)
(0.01099970662 -7.595528358e-09 7.228765664e-09)
(0.01099964586 -9.570779418e-09 8.346259406e-09)
(0.01099959607 -9.993701395e-09 1.016994591e-08)
(0.01099955427 -1.140691515e-08 8.976568298e-09)
(0.01099952083 -1.236929256e-08 8.46120368e-09)
(0.01099949165 -9.473277283e-09 9.314123181e-09)
(0.01099947022 -1.199016861e-08 1.098717929e-08)
(0.01099944935 -1.001500875e-08 9.5516385e-09)
(0.01100021734 1.743529598e-08 -3.455891534e-08)
(0.01100018634 1.870386264e-08 -3.895404786e-08)
(0.01100018251 1.043050233e-08 -2.709904688e-08)
(0.01100013241 5.561506134e-09 -1.629852331e-08)
(0.01100007465 2.384671827e-09 -1.055785462e-08)
(0.01100000921 -5.992372605e-10 -3.436974811e-09)
(0.01099993942 -3.839433316e-09 1.069934448e-09)
(0.01099987421 -4.445613233e-09 4.007971475e-09)
(0.01099981461 -4.486666853e-09 5.306912714e-09)
(0.01099976081 -5.684533021e-09 3.796404447e-09)
(0.01099970801 -4.402040826e-09 6.29415112e-09)
(0.01099966279 -4.289052442e-09 7.991363509e-09)
(0.01099962181 -4.97753665e-09 9.282650677e-09)
(0.01099958532 -4.696335281e-09 6.889011279e-09)
(0.01100009654 -8.412996601e-08 -1.548864533e-07)
(0.01100022784 -2.646628717e-09 -5.388497567e-08)
(0.01100013692 -2.094774581e-08 -3.871549312e-08)
(0.01100010745 -1.093135435e-08 -1.932506039e-08)
(0.01100002879 -3.084549074e-09 -8.894159755e-09)
(0.01099994992 4.207843273e-09 -3.227209232e-09)
(0.01099986514 4.090436675e-09 -1.146792353e-09)
(0.01099978864 6.949080412e-09 4.765736664e-10)
(0.01099972085 8.28292949e-09 3.667711089e-09)
(0.01099965465 6.511721537e-09 2.797556648e-09)
(0.01099960551 5.26092015e-09 2.332785178e-09)
(0.01099955973 4.845373453e-09 2.341224884e-09)
(0.01099952104 4.579942125e-09 3.939936172e-09)
(0.01099949209 4.913136848e-09 4.51214987e-09)
(0.01099946187 3.617710651e-09 5.080248653e-09)
(0.01100007314 -4.106832586e-07 -3.258336847e-07)
(0.01100018468 -7.456812322e-08 -5.338019376e-08)
(0.01099990255 -9.355168349e-08 -3.959886815e-08)
(0.01099981745 -4.060366074e-08 -1.654644076e-08)
(0.01099968534 -8.927724038e-09 -1.727353373e-09)
(0.01099957809 7.259722165e-09 3.71057305e-09)
(0.01099949325 1.508167317e-08 4.158478584e-09)
(0.01099942849 1.87260873e-08 7.386496874e-09)
(0.01099938384 1.648842549e-08 4.942747548e-09)
(0.01099935157 1.39413598e-08 5.377122454e-09)
(0.01099933176 1.406340033e-08 4.986511142e-09)
(0.01099931535 1.274301845e-08 5.00419101e-09)
(0.01099930755 1.08537046e-08 4.560018463e-09)
(0.01099930357 1.263564096e-08 6.921815143e-09)
(0.01099930183 1.216115069e-08 6.05703572e-09)
(0.01099985206 -5.655146147e-07 -9.637589807e-07)
(0.0109998908 8.015415805e-08 -6.751969538e-08)
(0.01099913342 -1.048792469e-07 -3.871901344e-08)
(0.01099896336 -1.639678888e-08 1.027238879e-08)
(0.01099878943 2.033895677e-08 2.419631528e-08)
(0.01099871025 2.826781393e-08 2.281643423e-08)
(0.01099869565 2.913097261e-08 1.906184438e-08)
(0.01099871586 2.543213033e-08 1.468071741e-08)
(0.0109987606 1.912599344e-08 1.079856981e-08)
(0.01099880909 1.656097774e-08 9.50733393e-09)
(0.01099886027 1.282474029e-08 6.566956248e-09)
(0.01099891155 9.807195207e-09 5.661119102e-09)
(0.01099896107 9.68419643e-09 4.770108191e-09)
(0.0109990032 1.407720777e-08 7.9042876e-09)
(0.0109990423 1.317457429e-08 9.049153532e-09)
(0.0109980881 4.29986862e-07 4.319141387e-07)
(0.01099684349 2.194411203e-08 2.201021955e-08)
(0.01099710012 5.662126587e-08 5.842024454e-08)
(0.01099718784 6.668314475e-08 6.639192226e-08)
(0.01099738878 4.30422527e-08 4.403148703e-08)
(0.0109976263 2.841395002e-08 2.782731987e-08)
(0.01099784901 1.74897986e-08 1.814656058e-08)
(0.01099805222 1.26767007e-08 1.206890143e-08)
(0.0109982285 8.481022135e-09 8.244997809e-09)
(0.01099838429 6.702501105e-09 6.540550503e-09)
(0.01099851206 4.931691418e-09 5.74728107e-09)
(0.01099862956 4.005851607e-09 6.683413197e-09)
(0.01099872178 7.874765184e-09 7.369302894e-09)
(0.0109988072 8.561913188e-09 8.435808613e-09)
(0.01099590913 1.54484792e-10 2.735534899e-06)
(0.01099365561 -1.319242711e-09 6.381434094e-07)
(0.01099513779 9.66597354e-10 2.453468229e-07)
(0.01099586644 -4.602410076e-10 1.45848769e-07)
(0.01099647633 4.731170476e-11 6.442610479e-08)
(0.01099698957 -3.469929272e-10 2.741290359e-08)
(0.01099738926 -7.199647097e-10 1.250398137e-08)
(0.01099770834 -4.256146265e-10 5.582737292e-09)
(0.01099796521 -1.88209775e-10 4.838524138e-09)
(0.01099817273 7.070071267e-10 2.95732092e-09)
(0.01099834478 8.755783035e-10 2.799094499e-09)
(0.01099849229 1.818322129e-11 2.893774233e-09)
(0.01099860745 1.532952987e-09 8.339058316e-09)
(0.01099871191 1.264522965e-10 4.46270399e-09)
(0.01099808809 -4.299766724e-07 4.308930354e-07)
(0.01099684251 -2.264430666e-08 2.241443974e-08)
(0.01099710036 -5.826031591e-08 5.762085012e-08)
(0.01099718792 -6.561074406e-08 6.664190472e-08)
(0.01099738621 -4.448895986e-08 4.416300813e-08)
(0.01099762848 -2.793570765e-08 2.829792666e-08)
(0.01099785007 -1.949654156e-08 1.982446815e-08)
(0.01099805457 -1.344533191e-08 1.325917446e-08)
(0.01099823023 -8.512754835e-09 1.058384429e-08)
(0.01099838267 -7.672765025e-09 6.072392124e-09)
(0.01099851038 -4.107796729e-09 5.19249723e-09)
(0.01099862888 -3.59300389e-09 6.707442637e-09)
(0.01099871994 -9.45065813e-09 8.394140565e-09)
(0.01099880774 -9.43264831e-09 7.216623289e-09)
(0.01099989143 -8.038438764e-08 -6.816325899e-08)
(0.01099913374 1.042237697e-07 -3.89916258e-08)
(0.01099896471 1.605307166e-08 9.261273691e-09)
(0.01099878888 -2.47795109e-08 2.563437597e-08)
(0.01099871067 -3.135599585e-08 2.569230823e-08)
(0.01099870033 -3.064322969e-08 1.922558616e-08)
(0.01099871947 -2.413170024e-08 1.480728868e-08)
(0.01099875927 -1.949882032e-08 1.24632088e-08)
(0.01099880997 -1.632401423e-08 1.136110268e-08)
(0.01099886372 -1.12557773e-08 7.838608456e-09)
(0.01099890975 -1.16022023e-08 6.135909694e-09)
(0.01099896003 -1.025164596e-08 5.434574401e-09)
(0.01099900201 -1.228202231e-08 7.811772891e-09)
(0.01099904407 -1.209141284e-08 8.044932713e-09)
(0.01100018587 7.563600969e-08 -5.327607848e-08)
(0.01099990361 9.535256249e-08 -4.079406038e-08)
(0.01099981838 3.824624375e-08 -1.565190362e-08)
(0.01099968729 7.517406068e-09 -1.997948928e-09)
(0.01099957884 -6.914322764e-09 3.742154267e-09)
(0.01099949269 -1.418324647e-08 5.906130507e-09)
(0.01099943001 -1.761532978e-08 6.470772762e-09)
(0.01099938549 -1.630562934e-08 5.934472564e-09)
(0.01099935204 -1.452443616e-08 6.663554985e-09)
(0.01099933317 -1.291570103e-08 6.63244435e-09)
(0.01099931607 -1.163026042e-08 5.079445433e-09)
(0.01099930799 -1.130954105e-08 5.048765543e-09)
(0.01099930377 -1.421291579e-08 7.026661613e-09)
(0.01099930035 -1.238911742e-08 6.558343637e-09)
(0.01100022937 3.716877675e-09 -5.628834244e-08)
(0.0110001363 2.210471444e-08 -3.907806672e-08)
(0.01100010583 1.0093561e-08 -2.070928093e-08)
(0.01100002975 2.69926418e-09 -1.011537552e-08)
(0.01099995191 -1.968838498e-09 -3.124712083e-09)
(0.01099986527 -3.881702275e-09 1.053310177e-09)
(0.01099978769 -5.751478659e-09 3.192815784e-09)
(0.01099972009 -5.995555176e-09 2.435245457e-09)
(0.010999656 -5.59880579e-09 4.308843506e-09)
(0.01099960521 -5.057135232e-09 5.124770936e-09)
(0.01099955888 -3.932803843e-09 4.910397355e-09)
(0.01099952139 -2.666098624e-09 5.4008176e-09)
(0.01099949056 -4.908821308e-09 5.915644815e-09)
(0.01099946363 -5.121213918e-09 5.5162841e-09)
(0.011000077 -2.243994946e-07 3.283283969e-10)
(0.01100030752 -1.084611415e-08 1.844230015e-09)
(0.01100014032 -1.953035329e-08 1.808193029e-09)
(0.01100008027 -5.108545358e-09 -7.952955153e-11)
(0.01099997976 3.691735989e-09 -9.512078542e-10)
(0.01099988366 7.215257098e-09 -1.079739203e-09)
(0.0109997956 8.119391385e-09 -1.016663188e-09)
(0.01099971627 9.029166043e-09 1.393422795e-09)
(0.01099964753 7.938509015e-09 -1.618087111e-09)
(0.01099958547 6.953187489e-09 -9.091311244e-11)
(0.01099953931 7.031902381e-09 1.064256001e-09)
(0.01099949997 5.334806935e-09 2.012763279e-09)
(0.01099946412 5.49982411e-09 9.390639832e-10)
(0.01099943853 6.304269e-09 -4.272905594e-10)
(0.01099941462 6.254200812e-09 -6.143275452e-10)
(0.01100002619 -1.056569416e-06 3.769545551e-10)
(0.01100030902 -1.021051379e-07 1.449459902e-09)
(0.0109997894 -8.040910825e-08 2.420593636e-10)
(0.01099966599 -1.438173695e-08 -1.346542141e-09)
(0.01099951891 1.129541067e-08 -2.256505518e-09)
(0.01099941155 1.796368759e-08 -9.555440891e-10)
(0.01099934238 2.149930029e-08 -3.269151553e-10)
(0.01099929201 2.021907652e-08 -4.174695318e-11)
(0.01099926193 1.862873189e-08 -1.438838595e-09)
(0.01099924469 1.560305008e-08 -2.374349094e-09)
(0.01099923484 1.31997609e-08 1.16167616e-09)
(0.01099923128 1.24309266e-08 2.459190211e-10)
(0.01099923099 1.036461489e-08 1.008448777e-09)
(0.0109992359 1.325198897e-08 -1.384989627e-12)
(0.01099924022 1.258242498e-08 1.051962209e-09)
(0.01099942136 -2.088816664e-06 3.839169878e-10)
(0.01099991433 4.279225485e-07 7.04722214e-10)
(0.01099845471 -2.144678725e-08 2.056679716e-10)
(0.01099833704 3.837679415e-08 -9.621210695e-10)
(0.0109982548 6.301164464e-08 -6.250988434e-10)
(0.01099827397 4.639904366e-08 -1.505522444e-09)
(0.0109983517 3.310165923e-08 6.389158694e-10)
(0.01099844376 2.491505069e-08 -1.510698969e-09)
(0.01099853564 1.764439276e-08 1.632453293e-09)
(0.0109986251 1.469572761e-08 -2.646162881e-10)
(0.0109987108 9.693405985e-09 1.462890266e-09)
(0.01099878522 7.918778352e-09 1.299335646e-09)
(0.01099885246 8.612029192e-09 1.975947926e-09)
(0.01099890976 1.436311385e-08 4.230365721e-10)
(0.01099896213 1.310789878e-08 7.571748188e-10)
(0.01099491112 -9.990680102e-06 1.613593566e-09)
(0.01099590428 2.734019757e-06 3.721377973e-10)
(0.01099365211 6.352514357e-07 1.997544972e-10)
(0.01099513898 2.447899128e-07 -4.051866918e-10)
(0.01099586474 1.443151856e-07 2.464839988e-09)
(0.01099647623 6.416820117e-08 1.903716603e-09)
(0.01099698906 2.804323173e-08 7.269219155e-10)
(0.01099738861 1.28106486e-08 -2.834925744e-10)
(0.01099770811 5.33037615e-09 -4.184759952e-10)
(0.01099796279 3.646539078e-09 7.057262892e-10)
(0.01099817345 2.554138667e-09 -1.844603516e-10)
(0.01099834343 3.374008593e-09 8.359402211e-10)
(0.01099849009 4.904663824e-09 -2.656399446e-10)
(0.01099860685 7.851646719e-09 -5.525548896e-10)
(0.01099871391 5.569197597e-09 -1.83859082e-09)
(0.01098987011 -3.158955971e-10 -6.230566412e-11)
(0.01098393727 7.515116301e-11 2.857794203e-10)
(0.01099076082 -8.540839483e-10 -9.612596188e-10)
(0.010993566 -3.142745103e-12 2.014520784e-10)
(0.01099510988 -2.144324147e-09 2.394259112e-09)
(0.01099613255 -4.032612938e-11 3.935000272e-10)
(0.01099681615 -1.264714725e-09 -7.265172342e-10)
(0.0109972994 -9.974811469e-12 -6.638175618e-10)
(0.0109976593 1.57900435e-10 -6.373097899e-10)
(0.01099793676 7.399044115e-10 1.350881152e-09)
(0.01099815573 1.960644414e-09 1.953754633e-09)
(0.01099834259 2.412241173e-10 1.289938965e-09)
(0.01099847922 1.611510013e-09 -6.348960023e-10)
(0.0109986154 9.606945893e-10 -1.835813398e-09)
(0.01099590823 -2.736091814e-06 -1.176240185e-09)
(0.01099365249 -6.385274492e-07 1.024955445e-10)
(0.01099513568 -2.445226012e-07 1.531981e-10)
(0.01099586473 -1.446098058e-07 1.646102769e-09)
(0.01099647286 -6.429369138e-08 -1.100015375e-09)
(0.01099699001 -2.891206451e-08 8.877741372e-10)
(0.01099739168 -1.293494273e-08 1.200251279e-09)
(0.01099770932 -4.912605783e-09 1.944698174e-10)
(0.010997966 -2.857308796e-09 -8.775215751e-10)
(0.01099817335 -2.768502526e-09 8.07882272e-10)
(0.01099834251 -4.256053085e-09 7.262991139e-10)
(0.01099849032 -3.774530377e-09 -8.739878268e-10)
(0.01099860532 -7.569943435e-09 5.54886091e-11)
(0.01099870954 -5.965770521e-09 -2.665209016e-10)
(0.01099991294 -4.257067581e-07 -1.810585754e-09)
(0.01099845386 2.071529619e-08 1.248154934e-09)
(0.01099833582 -4.134190702e-08 -2.185548497e-12)