/*--------------------------------*- C++ -*----------------------------------*\
| =========                 |                                                 |
| \\      /  F ield         | OpenFOAM: The Open Source CFD Toolbox           |
|  \\    /   O peration     | Version:  4.x                                   |
|   \\  /    A nd           | Web:      www.OpenFOAM.org                      |
|    \\/     M anipulation  |                                                 |
\*---------------------------------------------------------------------------*/
FoamFile
{
    version     2.0;
    format      ascii;
    class       volScalarField;
    location    "5000";
    object      X_CO;
}
// * * * * * * * * * * * * * * * * * * * * * * * * * * * * * * * * * * * * * //

dimensions      [0 0 0 0 0 0 0];

internalField   nonuniform List<scalar> 
1174
(
0.3728710261
0.3728687561
0.3728655476
0.3728613595
0.372856235
0.3728502865
0.3728436725
0.3728365724
0.3728291694
0.3728216354
0.3728141303
0.3728068234
0.3728000145
0.372794661
0.3728688889
0.3728652432
0.3728603841
0.3728544234
0.3728475657
0.3728400601
0.3728321596
0.3728240944
0.3728160594
0.3728082098
0.3728006682
0.3727935532
0.3727870917
0.3727821014
0.3728641619
0.3728577047
0.3728497091
0.3728406253
0.3728309412
0.3728210956
0.3728114362
0.3728022116
0.3727935796
0.3727856262
0.3727783884
0.3727718884
0.3727662302
0.3727619916
0.3728572246
0.372847178
0.3728356367
0.3728234448
0.3728113072
0.3727997302
0.3727890319
0.3727793759
0.3727708146
0.3727633264
0.3727568472
0.3727513047
0.3727466895
0.3727433477
0.3728522622
0.3728402408
0.3728271203
0.3728138252
0.3728010256
0.37278915
0.372778432
0.3727689626
0.372760735
0.3727536815
0.3727477028
0.3727426946
0.37273861
0.3727357016
0.3728572247
0.372847178
0.3728356367
0.3728234451
0.3728113074
0.3727997306
0.3727890324
0.3727793764
0.372770815
0.3727633267
0.3727568478
0.3727513054
0.3727466903
0.3727433483
0.3728641622
0.3728577051
0.3728497094
0.3728406256
0.3728309416
0.372821096
0.372811437
0.3728022125
0.3727935805
0.3727856272
0.3727783896
0.3727718895
0.3727662314
0.3727619927
0.3728688891
0.3728652432
0.3728603844
0.3728544236
0.3728475662
0.3728400607
0.37283216
0.3728240953
0.3728160602
0.3728082108
0.3728006694
0.3727935543
0.372787093
0.3727821028
0.3728710262
0.3728687562
0.3728655478
0.3728613597
0.3728562352
0.3728502871
0.3728436731
0.3728365731
0.37282917
0.3728216363
0.3728141313
0.3728068246
0.3728000158
0.3727946626
0.3728713484
0.3728688888
0.372865243
0.3728603841
0.3728544235
0.372847566
0.3728400603
0.3728321596
0.3728240945
0.3728160596
0.3728082099
0.3728006684
0.3727935533
0.3727870916
0.3727821012
0.3728640619
0.3728576456
0.3728498163
0.3728410442
0.3728318021
0.3728224885
0.372813401
0.3728047387
0.3727966194
0.3727891007
0.3727822043
0.372775949
0.3727704445
0.3727662841
0.3728518989
0.3728394056
0.3728258173
0.3728122851
0.3727995994
0.3727881915
0.3727782195
0.3727696643
0.3727624087
0.372756294
0.3727511556
0.372746851
0.3727433132
0.3727407679
0.372830244
0.3728094345
0.3727896348
0.3727723299
0.3727580416
0.3727467046
0.372737969
0.3727313905
0.3727265315
0.3727230072
0.3727204998
0.372718757
0.3727175863
0.3727168857
0.3728097719
0.3727847088
0.3727634632
0.3727466
0.3727337897
0.3727243845
0.3727176944
0.3727130988
0.3727100823
0.3727082346
0.3727072369
0.3727068402
0.3727068395
0.3727070157
0.3728302445
0.3728094352
0.3727896356
0.3727723308
0.3727580425
0.3727467056
0.3727379701
0.3727313916
0.3727265324
0.3727230081
0.372720501
0.3727187579
0.3727175872
0.3727168867
0.3728518995
0.3728394062
0.3728258181
0.372812286
0.3727996003
0.3727881924
0.3727782207
0.3727696656
0.3727624101
0.3727562955
0.3727511572
0.3727468528
0.372743315
0.3727407696
0.3728640622
0.3728576458
0.3728498167
0.3728410447
0.3728318026
0.3728224894
0.3728134021
0.3728047399
0.3727966206
0.3727891021
0.3727822061
0.3727759507
0.3727704467
0.3727662862
0.3728688891
0.3728652431
0.3728603842
0.3728544237
0.3728475663
0.372840061
0.3728321603
0.3728240953
0.3728160605
0.3728082112
0.3728006699
0.3727935549
0.3727870935
0.3727821035
0.372868801
0.3728641621
0.3728577049
0.3728497094
0.3728406256
0.3728309415
0.3728210959
0.3728114366
0.3728022119
0.3727935799
0.3727856265
0.3727783888
0.3727718887
0.3727662302
0.3727619915
0.3728619787
0.3728518993
0.3728394058
0.3728258176
0.3728122855
0.3727995996
0.3727881916
0.3727782198
0.3727696644
0.372762409
0.3727562944
0.3727511559
0.3727468514
0.3727433134
0.372740768
0.372815905
0.3727894884
0.3727655496
0.3727459066
0.3727309406
0.3727202269
0.3727130087
0.3727084807
0.3727059226
0.3727047491
0.3727045094
0.372704863
0.372705538
0.3727062212
0.3727356965
0.3726909862
0.3726601104
0.3726418489
0.372633237
0.3726312758
0.3726335416
0.3726382753
0.3726442829
0.3726507908
0.3726573156
0.3726635472
0.3726691898
0.3726735152
0.372630429
0.3725858523
0.3725666566
0.3725632158
0.3725686383
0.3725785787
0.3725904581
0.3726028064
0.3726148213
0.3726260905
0.372636422
0.3726457209
0.3726538133
0.3726598693
0.3727356985
0.3726909884
0.3726601128
0.3726418514
0.3726332394
0.3726312781
0.3726335437
0.3726382772
0.3726442848
0.3726507926
0.3726573175
0.3726635487
0.3726691912
0.3726735168
0.3728159065
0.3727894898
0.372765551
0.3727459082
0.3727309427
0.3727202289
0.3727130109
0.3727084829
0.3727059251
0.3727047517
0.3727045116
0.3727048653
0.3727055404
0.3727062237
0.3728518994
0.372839406
0.3728258179
0.3728122863
0.3727996004
0.3727881928
0.3727782213
0.3727696663
0.3727624109
0.3727562963
0.3727511581
0.3727468539
0.372743316
0.3727407707
0.3728641622
0.3728577049
0.3728497096
0.3728406259
0.372830942
0.3728210965
0.3728114375
0.3728022133
0.3727935815
0.3727856286
0.3727783909
0.3727718911
0.372766233
0.3727619946
0.3728649686
0.3728572248
0.372847178
0.3728356369
0.3728234451
0.3728113075
0.3727997308
0.3727890323
0.3727793764
0.3727708149
0.3727633267
0.3727568476
0.3727513052
0.3727466899
0.3727433479
0.3728493702
0.3728302441
0.372809435
0.3727896352
0.3727723303
0.372758042
0.372746705
0.3727379695
0.3727313908
0.3727265317
0.3727230074
0.3727205003
0.3727187572
0.3727175865
0.3727168859
0.3727901907
0.3727356972
0.3726909872
0.3726601111
0.3726418497
0.3726332377
0.3726312763
0.372633542
0.3726382757
0.3726442832
0.3726507912
0.3726573161
0.3726635476
0.37266919
0.3726735152
0.3724602295
0.3724036515
0.3723940795
0.3724100421
0.3724374468
0.3724683212
0.3724986135
0.3725265094
0.3725513792
0.3725731735
0.372592093
0.3726083845
0.3726220778
0.3726320858
0.3719184087
0.3719884681
0.3720967444
0.372200755
0.3722892303
0.3723614569
0.3724197481
0.3724668511
0.3725051679
0.3725366043
0.3725626092
0.3725842205
0.3726019261
0.3726146572
0.3724602368
0.3724036568
0.372394084
0.3724100461
0.3724374504
0.3724683249
0.3724986166
0.3725265122
0.3725513817
0.3725731759
0.372592095
0.3726083865
0.3726220798
0.3726320876
0.3727356983
0.3726909887
0.3726601135
0.3726418525
0.3726332409
0.3726312799
0.3726335457
0.3726382794
0.3726442867
0.3726507946
0.3726573194
0.3726635506
0.3726691932
0.3726735183
0.3728302443
0.3728094354
0.372789636
0.3727723316
0.3727580435
0.372746707
0.372737972
0.3727313936
0.3727265346
0.3727230106
0.3727205034
0.3727187604
0.3727175899
0.3727168894
0.3728572247
0.3728471781
0.372835637
0.3728234456
0.3728113083
0.3727997318
0.3727890338
0.3727793782
0.3727708171
0.3727633294
0.3727568505
0.3727513083
0.3727466933
0.3727433515
0.3728620877
0.3728522627
0.3728402411
0.3728271207
0.3728138257
0.3728010262
0.3727891507
0.3727784327
0.3727689633
0.3727607356
0.3727536823
0.3727477033
0.3727426953
0.3727386106
0.3727357019
0.3728361825
0.3728097723
0.3727847095
0.3727634641
0.3727466005
0.3727337904
0.3727243853
0.3727176951
0.3727130994
0.372710083
0.3727082354
0.3727072374
0.3727068406
0.3727068399
0.3727070161
0.3727094369
0.37263043
0.3725858538
0.3725666583
0.3725632171
0.3725686395
0.3725785799
0.3725904591
0.3726028071
0.3726148219
0.3726260912
0.3726364228
0.3726457215
0.3726538138
0.3726598697
0.3720153636
0.3719184141
0.3719884718
0.3720967472
0.372200757
0.3722892318
0.3723614583
0.372419749
0.372466852
0.3725051685
0.3725366046
0.3725626094
0.3725842208
0.3726019264
0.3726146576
0.3695780086
0.3707665304
0.3714250237
0.3718107517
0.3720497773
0.3722061836
0.3723138014
0.3723912067
0.3724490182
0.372493556
0.3725287227
0.3725569567
0.372579519
0.3725954914
0.3719184091
0.3719884752
0.3720967525
0.3722007625
0.3722892368
0.3723614628
0.3724197533
0.3724668556
0.3725051718
0.3725366077
0.3725626123
0.3725842233
0.3726019288
0.3726146596
0.3726304283
0.3725858543
0.3725666605
0.3725632205
0.3725686437
0.3725785844
0.3725904635
0.3726028116
0.3726148261
0.3726260953
0.3726364267
0.3726457253
0.3726538175
0.3726598735
0.3728097714
0.3727847092
0.3727634645
0.372746602
0.3727337922
0.3727243876
0.3727176979
0.3727131025
0.3727100862
0.372708239
0.3727072409
0.3727068443
0.3727068436
0.3727070203
0.3728522621
0.3728402408
0.3728271206
0.3728138259
0.3728010269
0.3727891518
0.3727784344
0.3727689654
0.3727607381
0.3727536852
0.3727477066
0.3727426988
0.3727386142
0.3727357059
0.3728649685
0.372857225
0.3728471784
0.3728356373
0.3728234456
0.372811308
0.3727997313
0.3727890329
0.3727793771
0.3727708156
0.3727633274
0.3727568486
0.3727513062
0.372746691
0.3727433492
0.3728493705
0.372830245
0.3728094359
0.3727896363
0.3727723315
0.3727580431
0.3727467063
0.3727379709
0.3727313922
0.3727265331
0.3727230088
0.3727205016
0.3727187585
0.372717588
0.3727168874
0.3727901936
0.3727357002
0.3726909902
0.3726601142
0.3726418527
0.3726332405
0.3726312792
0.3726335448
0.3726382782
0.3726442856
0.3726507935
0.3726573183
0.3726635495
0.3726691919
0.3726735173
0.3725867493
0.3724602417
0.3724036609
0.3723940872
0.372410049
0.3724374529
0.3724683264
0.3724986179
0.3725265135
0.3725513828
0.3725731769
0.3725920961
0.3726083874
0.3726220804
0.3726320884
0.3720153651
0.3719184167
0.3719884801
0.3720967558
0.3722007648
0.3722892386
0.3723614642
0.3724197541
0.3724668564
0.3725051726
0.3725366081
0.3725626128
0.3725842238
0.3726019292
0.3726146601
0.3725867472
0.3724602419
0.3724036629
0.3723940904
0.3724100523
0.3724374564
0.3724683299
0.3724986216
0.3725265168
0.3725513859
0.3725731796
0.3725920988
0.3726083897
0.3726220827
0.3726320904
0.3727356966
0.3726909893
0.3726601153
0.3726418551
0.3726332438
0.3726312827
0.3726335484
0.372638282
0.3726442894
0.3726507972
0.3726573218
0.372663553
0.3726691952
0.3726735208
0.3728302437
0.3728094351
0.3727896362
0.3727723323
0.3727580446
0.3727467083
0.3727379733
0.3727313952
0.3727265363
0.3727230122
0.3727205053
0.3727187621
0.3727175916
0.3727168911
0.3728572246
0.3728471781
0.3728356373
0.3728234457
0.3728113085
0.3727997325
0.3727890347
0.372779379
0.3727708181
0.3727633304
0.3727568519
0.3727513095
0.3727466947
0.3727433527
0.3728688009
0.3728641624
0.3728577051
0.3728497096
0.3728406261
0.3728309421
0.3728210965
0.3728114375
0.372802213
0.372793581
0.3727856278
0.3727783901
0.3727718903
0.3727662321
0.3727619934
0.3728619792
0.3728518998
0.3728394066
0.3728258186
0.3728122869
0.3727996009
0.3727881932
0.3727782216
0.3727696663
0.3727624107
0.3727562964
0.3727511582
0.3727468536
0.372743316
0.3727407703
0.372841067
0.3728159073
0.372789491
0.3727655521
0.3727459093
0.3727309437
0.3727202297
0.372713012
0.3727084838
0.3727059258
0.3727047527
0.3727045126
0.3727048664
0.3727055411
0.3727062244
0.3727901936
0.3727357006
0.372690991
0.3726601156
0.3726418545
0.3726332427
0.3726312813
0.372633547
0.3726382804
0.3726442879
0.3726507956
0.3726573204
0.3726635515
0.372669194
0.3726735191
0.3727094375
0.3726304327
0.3725858581
0.3725666637
0.3725632231
0.3725686456
0.3725785857
0.3725904647
0.3726028127
0.3726148273
0.372626096
0.3726364274
0.372645726
0.3726538182
0.3726598739
0.3727901939
0.3727357012
0.3726909923
0.3726601173
0.3726418563
0.3726332446
0.3726312835
0.372633549
0.3726382826
0.37264429
0.3726507976
0.3726573224
0.3726635536
0.3726691959
0.3726735212
0.372841066
0.3728159066
0.3727894907
0.3727655523
0.3727459105
0.3727309454
0.3727202321
0.3727130144
0.3727084863
0.3727059287
0.3727047554
0.3727045155
0.3727048693
0.372705544
0.3727062275
0.372851899
0.372839406
0.3728258185
0.372812287
0.3727996018
0.3727881945
0.3727782232
0.3727696684
0.3727624134
0.3727562989
0.3727511611
0.3727468566
0.372743319
0.3727407735
0.3728641619
0.3728577047
0.3728497094
0.3728406261
0.3728309425
0.3728210973
0.3728114386
0.3728022144
0.372793583
0.3727856302
0.3727783929
0.3727718932
0.3727662353
0.3727619969
0.3728713482
0.3728688891
0.3728652434
0.3728603846
0.3728544242
0.3728475667
0.3728400611
0.3728321606
0.3728240957
0.3728160608
0.3728082113
0.3728006699
0.372793555
0.3727870937
0.3727821037
0.3728687326
0.3728640622
0.372857646
0.372849817
0.372841045
0.372831803
0.3728224897
0.3728134024
0.3728047404
0.3727966211
0.3727891027
0.3727822068
0.3727759516
0.3727704474
0.372766287
0.372861979
0.3728518997
0.3728394068
0.3728258189
0.3728122871
0.3727996016
0.3727881939
0.3727782222
0.3727696672
0.3727624119
0.3727562974
0.3727511591
0.3727468546
0.3727433168
0.3727407716
0.3728493706
0.3728302451
0.3728094364
0.3727896371
0.3727723329
0.372758045
0.3727467084
0.3727379732
0.3727313947
0.3727265357
0.3727230117
0.3727205045
0.3727187614
0.3727175906
0.3727168901
0.3728361827
0.3728097732
0.3727847111
0.3727634665
0.3727466038
0.3727337939
0.3727243891
0.3727176993
0.3727131037
0.3727100874
0.3727082396
0.3727072418
0.3727068452
0.3727068445
0.3727070209
0.3728493706
0.3728302454
0.3728094369
0.3727896378
0.3727723336
0.3727580458
0.3727467094
0.3727379745
0.372731396
0.3727265372
0.3727230129
0.3727205059
0.3727187627
0.3727175921
0.3727168917
0.3728619792
0.3728518997
0.3728394069
0.3728258192
0.3728122877
0.3727996024
0.3727881951
0.3727782237
0.3727696689
0.3727624138
0.3727562993
0.3727511612
0.3727468568
0.3727433192
0.3727407738
0.3728687327
0.3728640622
0.372857646
0.372849817
0.3728410454
0.3728318034
0.3728224905
0.3728134037
0.3728047419
0.372796623
0.3727891046
0.3727822089
0.3727759537
0.3727704498
0.3727662895
0.372868889
0.3728652432
0.3728603843
0.3728544239
0.3728475667
0.3728400616
0.3728321615
0.3728240967
0.3728160622
0.3728082132
0.3728006719
0.3727935572
0.3727870961
0.3727821064
0.3728724847
0.3728710262
0.3728687561
0.3728655479
0.3728613598
0.3728562356
0.3728502873
0.3728436732
0.3728365736
0.3728291706
0.3728216369
0.3728141318
0.3728068252
0.3728000164
0.3727946633
0.3728713482
0.3728688892
0.3728652433
0.3728603845
0.3728544239
0.3728475664
0.3728400612
0.3728321607
0.372824096
0.3728160612
0.3728082119
0.3728006705
0.3727935556
0.3727870944
0.3727821042
0.3728688007
0.3728641623
0.3728577052
0.37284971
0.3728406265
0.3728309428
0.3728210973
0.3728114384
0.372802214
0.3727935823
0.3727856291
0.3727783915
0.372771892
0.3727662339
0.3727619953
0.3728649685
0.3728572251
0.3728471787
0.3728356379
0.3728234466
0.3728113093
0.3727997329
0.3727890349
0.3727793794
0.3727708182
0.3727633304
0.3727568514
0.3727513091
0.3727466941
0.3727433523
0.3728620875
0.3728522628
0.372840242
0.3728271219
0.3728138274
0.3728010284
0.3727891532
0.3727784357
0.3727689667
0.3727607392
0.3727536861
0.3727477075
0.3727426996
0.3727386151
0.3727357068
0.3728649686
0.3728572253
0.372847179
0.3728356381
0.3728234469
0.3728113098
0.3727997335
0.3727890357
0.37277938
0.3727708191
0.3727633312
0.3727568524
0.3727513102
0.3727466952
0.3727433535
0.3728688009
0.3728641624
0.3728577053
0.3728497102
0.3728406267
0.3728309431
0.372821098
0.3728114394
0.3728022153
0.3727935837
0.3727856307
0.3727783933
0.3727718937
0.3727662357
0.3727619971
0.3728713484
0.3728688892
0.3728652433
0.3728603846
0.3728544244
0.372847567
0.3728400619
0.3728321617
0.372824097
0.3728160626
0.3728082134
0.3728006722
0.3727935574
0.3727870964
0.3727821063
0.3728724846
0.3728710261
0.3728687562
0.3728655479
0.3728613598
0.3728562356
0.3728502876
0.3728436737
0.3728365742
0.3728291717
0.3728216384
0.3728141336
0.3728068272
0.3728000186
0.3727946656
)
;

boundaryField
{
    top
    {
        type            calculated;
        value           nonuniform List<scalar> 
127
(
0.3728724846
0.3728710262
0.3728688891
0.3728641622
0.3728572247
0.3728522621
0.3728572246
0.3728641619
0.372868889
0.3728710261
0.3728687562
0.3728652431
0.3728577049
0.3728471781
0.3728402408
0.3728471781
0.3728577047
0.3728652432
0.3728687562
0.3728655478
0.3728603842
0.3728497096
0.372835637
0.3728271206
0.3728356373
0.3728497094
0.3728603843
0.3728655479
0.3728613597
0.3728544237
0.3728406259
0.3728234456
0.3728138259
0.3728234457
0.3728406261
0.3728544239
0.3728613598
0.3728562352
0.3728475663
0.372830942
0.3728113083
0.3728010269
0.3728113085
0.3728309425
0.3728475667
0.3728562356
0.3728502871
0.372840061
0.3728210965
0.3727997318
0.3727891518
0.3727997325
0.3728210973
0.3728400616
0.3728502876
0.3728436731
0.3728321603
0.3728114375
0.3727890338
0.3727784344
0.3727890347
0.3728114386
0.3728321615
0.3728436737
0.3728365731
0.3728240953
0.3728022133
0.3727793782
0.3727689654
0.372779379
0.3728022144
0.3728240967
0.3728365742
0.37282917
0.3728160605
0.3727935815
0.3727708171
0.3727607381
0.3727708181
0.372793583
0.3728160622
0.3728291717
0.3728216363
0.3728082112
0.3727856286
0.3727633294
0.3727536852
0.3727633304
0.3727856302
0.3728082132
0.3728216384
0.3728141313
0.3728006699
0.3727783909
0.3727568505
0.3727477066
0.3727568519
0.3727783929
0.3728006719
0.3728141336
0.3728068246
0.3727935549
0.3727718911
0.3727513083
0.3727426988
0.3727513095
0.3727718932
0.3727935572
0.3728068272
0.3728000158
0.3727870935
0.372766233
0.3727466933
0.3727386142
0.3727466947
0.3727662353
0.3727870961
0.3728000186
0.3727946626
0.3727821035
0.3727619946
0.3727433515
0.3727357059
0.3727433527
0.3727619969
0.3727821064
0.3727946656
)
;
    }
    bottom
    {
        type            calculated;
        value           nonuniform List<scalar> 
134
(
0.3728713484
0.372868801
0.3728649686
0.3728620877
0.3728649685
0.3728688009
0.3728713482
0.3728724847
0.3728710261
0.3728688888
0.3728641621
0.3728572248
0.3728522627
0.372857225
0.3728641624
0.3728688891
0.3728710262
0.3728687561
0.372865243
0.3728577049
0.372847178
0.3728402411
0.3728471784
0.3728577051
0.3728652434
0.3728687561
0.3728655476
0.3728603841
0.3728497094
0.3728356369
0.3728271207
0.3728356373
0.3728497096
0.3728603846
0.3728655479
0.3728613595
0.3728544235
0.3728406256
0.3728234451
0.3728138257
0.3728234456
0.3728406261
0.3728544242
0.3728613598
0.372856235
0.372847566
0.3728309415
0.3728113075
0.3728010262
0.372811308
0.3728309421
0.3728475667
0.3728562356
0.3728502865
0.3728400603
0.3728210959
0.3727997308
0.3727891507
0.3727997313
0.3728210965
0.3728400611
0.3728502873
0.3728436725
0.3728321596
0.3728114366
0.3727890323
0.3727784327
0.3727890329
0.3728114375
0.3728321606
0.3728436732
0.3728365724
0.3728240945
0.3728022119
0.3727793764
0.3727689633
0.3727793771
0.372802213
0.3728240957
0.3728365736
0.3728291694
0.3728160596
0.3727935799
0.3727708149
0.3727607356
0.3727708156
0.372793581
0.3728160608
0.3728291706
0.3728216354
0.3728082099
0.3727856265
0.3727633267
0.3727536823
0.3727633274
0.3727856278
0.3728082113
0.3728216369
0.3728141303
0.3728006684
0.3727783888
0.3727568476
0.3727477033
0.3727568486
0.3727783901
0.3728006699
0.3728141318
0.3728068234
0.3727935533
0.3727718887
0.3727513052
0.3727426953
0.3727513062
0.3727718903
0.372793555
0.3728068252
0.3728000145
0.3727870916
0.3727662302
0.3727466899
0.3727386106
0.372746691
0.3727662321
0.3727870937
0.3728000164
0.372794661
0.3727821012
0.3727619915
0.3727433479
0.3727357019
0.3727433492
0.3727619934
0.3727821037
0.3727946633
)
;
    }
    side-walls
    {
        type            calculated;
        value           nonuniform List<scalar> 
261
(
0.3728710261
0.3728688889
0.3728641619
0.3728572246
0.3728522622
0.3728572247
0.3728641622
0.3728688891
0.3728710262
0.3728687561
0.3728652432
0.3728577047
0.372847178
0.3728402408
0.372847178
0.3728577051
0.3728652432
0.3728687562
0.3728655476
0.3728603841
0.3728497091
0.3728356367
0.3728271203
0.3728356367
0.3728497094
0.3728603844
0.3728655478
0.3728613595
0.3728544234
0.3728406253
0.3728234448
0.3728138252
0.3728234451
0.3728406256
0.3728544236
0.3728613597
0.372856235
0.3728475657
0.3728309412
0.3728113072
0.3728010256
0.3728113074
0.3728309416
0.3728475662
0.3728562352
0.3728502865
0.3728400601
0.3728210956
0.3727997302
0.37278915
0.3727997306
0.372821096
0.3728400607
0.3728502871
0.3728436725
0.3728321596
0.3728114362
0.3727890319
0.372778432
0.3727890324
0.372811437
0.37283216
0.3728436731
0.3728365724
0.3728240944
0.3728022116
0.3727793759
0.3727689626
0.3727793764
0.3728022125
0.3728240953
0.3728365731
0.3728291694
0.3728160594
0.3727935796
0.3727708146
0.372760735
0.372770815
0.3727935805
0.3728160602
0.37282917
0.3728216354
0.3728082098
0.3727856262
0.3727633264
0.3727536815
0.3727633267
0.3727856272
0.3728082108
0.3728216363
0.3728141303
0.3728006682
0.3727783884
0.3727568472
0.3727477028
0.3727568478
0.3727783896
0.3728006694
0.3728141313
0.3728068234
0.3727935532
0.3727718884
0.3727513047
0.3727426946
0.3727513054
0.3727718895
0.3727935543
0.3728068246
0.3728000145
0.3727870917
0.3727662302
0.3727466895
0.37273861
0.3727466903
0.3727662314
0.372787093
0.3728000158
0.372794661
0.3727821014
0.3727619916
0.3727433477
0.3727357016
0.3727433483
0.3727619927
0.3727821028
0.3727946626
0.3728724847
0.3728713482
0.3728688007
0.3728649685
0.3728620875
0.3728649686
0.3728688009
0.3728713484
0.3728724846
0.3728710262
0.3728688892
0.3728641623
0.3728572251
0.3728522628
0.3728572253
0.3728641624
0.3728688892
0.3728710261
0.3728687561
0.3728652433
0.3728577052
0.3728471787
0.372840242
0.372847179
0.3728577053
0.3728652433
0.3728687562
0.3728655479
0.3728603845
0.37284971
0.3728356379
0.3728271219
0.3728356381
0.3728497102
0.3728603846
0.3728655479
0.3728613598
0.3728544239
0.3728406265
0.3728234466
0.3728138274
0.3728234469
0.3728406267
0.3728544244
0.3728613598
0.3728562356
0.3728475664
0.3728309428
0.3728113093
0.3728010284
0.3728113098
0.3728309431
0.372847567
0.3728562356
0.3728502873
0.3728400612
0.3728210973
0.3727997329
0.3727891532
0.3727997335
0.372821098
0.3728400619
0.3728502876
0.3728436732
0.3728321607
0.3728114384
0.3727890349
0.3727784357
0.3727890357
0.3728114394
0.3728321617
0.3728436737
0.3728365736
0.372824096
0.372802214
0.3727793794
0.3727689667
0.37277938
0.3728022153
0.372824097
0.3728365742
0.3728291706
0.3728160612
0.3727935823
0.3727708182
0.3727607392
0.3727708191
0.3727935837
0.3728160626
0.3728291717
0.3728216369
0.3728082119
0.3727856291
0.3727633304
0.3727536861
0.3727633312
0.3727856307
0.3728082134
0.3728216384
0.3728141318
0.3728006705
0.3727783915
0.3727568514
0.3727477075
0.3727568524
0.3727783933
0.3728006722
0.3728141336
0.3728068252
0.3727935556
0.372771892
0.3727513091
0.3727426996
0.3727513102
0.3727718937
0.3727935574
0.3728068272
0.3728000164
0.3727870944
0.3727662339
0.3727466941
0.3727386151
0.3727466952
0.3727662357
0.3727870964
0.3728000186
0.3727946633
0.3727821042
0.3727619953
0.3727433523
0.3727357068
0.3727433535
0.3727619971
0.3727821063
0.3727946656
)
;
    }
    inlet
    {
        type            calculated;
        value           nonuniform 0();
    }
    outlet
    {
        type            calculated;
        value           nonuniform List<scalar> 
81
(
0.372794661
0.3727821014
0.3727619916
0.3727433477
0.3727357016
0.3727433483
0.3727619927
0.3727821028
0.3727946626
0.3727821012
0.3727662841
0.3727407679
0.3727168857
0.3727070157
0.3727168867
0.3727407696
0.3727662862
0.3727821035
0.3727619915
0.372740768
0.3727062212
0.3726735152
0.3726598693
0.3726735168
0.3727062237
0.3727407707
0.3727619946
0.3727433479
0.3727168859
0.3726735152
0.3726320858
0.3726146572
0.3726320876
0.3726735183
0.3727168894
0.3727433515
0.3727357019
0.3727070161
0.3726598697
0.3726146576
0.3725954914
0.3726146596
0.3726598735
0.3727070203
0.3727357059
0.3727433492
0.3727168874
0.3726735173
0.3726320884
0.3726146601
0.3726320904
0.3726735208
0.3727168911
0.3727433527
0.3727619934
0.3727407703
0.3727062244
0.3726735191
0.3726598739
0.3726735212
0.3727062275
0.3727407735
0.3727619969
0.3727821037
0.372766287
0.3727407716
0.3727168901
0.3727070209
0.3727168917
0.3727407738
0.3727662895
0.3727821064
0.3727946633
0.3727821042
0.3727619953
0.3727433523
0.3727357068
0.3727433535
0.3727619971
0.3727821063
0.3727946656
)
;
    }
    procBoundary1to0
    {
        type            processor;
        value           nonuniform List<scalar> 
97
(
0.3728724848
0.3728724848
0.3728713483
0.372868801
0.3728649688
0.372862088
0.3728649689
0.3728688011
0.3728713484
0.3728724847
0.3728728006
0.3728687327
0.3728687327
0.3728687327
0.3728619791
0.372849371
0.3728361841
0.3728493714
0.3728619796
0.372868733
0.3728713485
0.3728716485
0.3728686594
0.3728410659
0.3728410659
0.3728410659
0.3727901945
0.3727094443
0.3727901969
0.3728410683
0.3728619796
0.3728688013
0.3728699577
0.3728633817
0.372840344
0.3725867448
0.3725867448
0.3725867448
0.372015406
0.3725867597
0.3727901965
0.3728493714
0.3728649689
0.372868748
0.3728583928
0.3728147005
0.3726414092
0.3673107121
0.3673107121
0.3673107121
0.372015404
0.372015404
0.3727094432
0.3728361838
0.3728620879
0.3728699573
0.3728633819
0.3728403438
0.3727732513
0.3726414076
0.3727732523
0.3727901921
0.3727901921
0.3727901921
0.3728493706
0.3728649687
0.3728716483
0.3728686593
0.3728598877
0.3728403436
0.3728147006
0.372840344
0.3728598877
0.3728619787
0.3728619787
0.3728619787
0.3728688007
0.3728728005
0.372871624
0.3728686594
0.3728633817
0.3728583926
0.3728633819
0.3728686595
0.372871624
0.3728713483
0.3728713483
0.3728713483
0.3728733214
0.3728728004
0.3728716482
0.3728699573
0.3728687478
0.3728699576
0.3728716484
0.3728728005
0.3728733213
)
;
    }
}


// ************************************************************************* //
