/*--------------------------------*- C++ -*----------------------------------*\
| =========                 |                                                 |
| \\      /  F ield         | OpenFOAM: The Open Source CFD Toolbox           |
|  \\    /   O peration     | Version:  4.x                                   |
|   \\  /    A nd           | Web:      www.OpenFOAM.org                      |
|    \\/     M anipulation  |                                                 |
\*---------------------------------------------------------------------------*/
FoamFile
{
    version     2.0;
    format      ascii;
    class       volScalarField;
    location    "5000";
    object      X_CO2;
}
// * * * * * * * * * * * * * * * * * * * * * * * * * * * * * * * * * * * * * //

dimensions      [0 0 0 0 0 0 0];

internalField   nonuniform List<scalar> 
1174
(
0.004154347199
0.00415661802
0.004159827876
0.004164017565
0.004169144418
0.004175095673
0.004181712444
0.004188816004
0.004196222334
0.004203760375
0.004211269746
0.004218580751
0.004225393747
0.004230750884
0.004156485299
0.004160131992
0.004164993084
0.004170956032
0.004177816763
0.004185325791
0.004193229487
0.004201298529
0.004209337549
0.004217191396
0.004224737524
0.004231856616
0.004238322246
0.004243315903
0.004161213967
0.00416767319
0.004175671495
0.004184758651
0.004194446477
0.004204295978
0.004213960219
0.004223189143
0.004231825521
0.00423978345
0.004247025981
0.004253530327
0.004259192445
0.004263434175
0.004168153358
0.004178202658
0.004189747851
0.004201944002
0.004214086153
0.004225668272
0.004236371313
0.004246031964
0.004254598117
0.004262090853
0.004268574982
0.004274121694
0.00427874095
0.004282085421
0.004173116658
0.004185141565
0.004198266097
0.004211566056
0.004224370557
0.004236251198
0.004246974386
0.004256448543
0.004264680812
0.004271739093
0.00427772209
0.004282734765
0.004286823
0.004289734205
0.004168153174
0.004178202785
0.004189747893
0.004201943372
0.004214085686
0.004225667337
0.004236370137
0.004246031029
0.004254597212
0.004262090387
0.004268573596
0.00427412013
0.004278739107
0.004282084313
0.00416121332
0.004167672328
0.004175670984
0.004184757989
0.004194445688
0.004204295383
0.004213958162
0.004223187149
0.004231823633
0.004239781401
0.004247023196
0.004253527919
0.004259189942
0.004263431648
0.004156484974
0.004160132082
0.004164992459
0.004170955879
0.004177815757
0.004185324414
0.004193228635
0.004201296628
0.00420933606
0.004217189237
0.004224734761
0.004231854083
0.004238319501
0.004243312794
0.004154347041
0.004156617708
0.004159827331
0.004164017197
0.004169143898
0.004175094251
0.004181711026
0.004188814401
0.004196221155
0.004203758363
0.004211267279
0.004218578098
0.004225390921
0.004230747155
0.004154024525
0.004156485632
0.004160132539
0.004164992872
0.004170955897
0.004177816049
0.0041853253
0.004193229543
0.004201298404
0.004209337144
0.004217191253
0.004224736858
0.004231856372
0.004238322676
0.004243316661
0.004161313693
0.004167731974
0.00417556403
0.004184339309
0.004193584804
0.004202902566
0.004211994539
0.004220661062
0.004228784513
0.00423630763
0.004243208774
0.004249468298
0.004254977062
0.004259140605
0.004173480735
0.004185977479
0.004199570128
0.004213107234
0.004225797435
0.004237210334
0.004247187229
0.004255747078
0.004263007155
0.004269126265
0.004274268887
0.004278577688
0.004282119155
0.004284666977
0.004195140656
0.004215955948
0.004235761558
0.004253072419
0.004267366244
0.004278708819
0.004287449622
0.004294032398
0.004298895533
0.004302423925
0.004304935268
0.004306681156
0.004307855132
0.004308557882
0.004215616594
0.004240686268
0.004261938675
0.004278807741
0.004291623676
0.004301034178
0.004307728997
0.004312328776
0.004315349346
0.004317200958
0.004318201812
0.004318601685
0.004318605365
0.004318431449
0.004195140053
0.004215954878
0.00423576008
0.004253070951
0.004267364532
0.004278706781
0.004287447375
0.004294030172
0.004298893672
0.00430242199
0.004304932662
0.004306679167
0.004307853283
0.00430855562
0.004173479582
0.004185976281
0.004199568638
0.004213105608
0.004225795882
0.004237208543
0.004247184842
0.004255744406
0.004263004146
0.004269122958
0.004274265327
0.004278573544
0.004282114933
0.004284662949
0.004161313187
0.004167731764
0.004175563475
0.00418433853
0.004193583842
0.004202900816
0.004211992192
0.00422065847
0.004228781934
0.004236304729
0.004243204868
0.004249464387
0.004254971968
0.004259135658
0.004156484897
0.004160132158
0.004164992891
0.004170955604
0.004177815496
0.004185323548
0.00419322807
0.004201296588
0.004209335204
0.004217188344
0.004224733532
0.004231852688
0.004238318153
0.004243311248
0.004156572905
0.004161213641
0.004167672772
0.004175670778
0.004184757971
0.004194445695
0.004204295437
0.004213959035
0.004223188287
0.004231824926
0.004239782857
0.004247024924
0.004253529619
0.004259192664
0.00426343461
0.004163397603
0.004173479781
0.004185977087
0.004199569503
0.004213106473
0.004225797126
0.004237210129
0.004247186718
0.004255746865
0.004263006406
0.004269125313
0.004274268139
0.004278576731
0.004282118775
0.004284666797
0.004209484256
0.004235907123
0.004259852813
0.004279502464
0.004294474684
0.004305193636
0.004312416542
0.004316948675
0.004319510951
0.004320688211
0.004320930844
0.004320580275
0.004319908118
0.004319226915
0.004289709812
0.004334430675
0.004365315417
0.004383584494
0.004392201787
0.004394167552
0.004391904883
0.004387174171
0.004381168594
0.004374662886
0.004368140266
0.004361910019
0.004356269048
0.004351944562
0.004394992826
0.004439581026
0.004458785335
0.004462231791
0.004456813301
0.004446875666
0.00443499782
0.004422651121
0.00441063737
0.004399369556
0.004389039271
0.004379741529
0.004371650094
0.004365594747
0.00428970659
0.004334426918
0.004365311069
0.004383579626
0.004392197103
0.004394162794
0.004391900499
0.004387170136
0.004381164555
0.004374658805
0.004368135835
0.004361906691
0.004356265701
0.004351940891
0.004209481749
0.004235905088
0.004259850672
0.004279499837
0.004294470761
0.004305189705
0.004312412235
0.004316944082
0.00431950568
0.004320682515
0.00432092596
0.004320575147
0.004319902749
0.004319221414
0.004173479783
0.004185976761
0.004199569024
0.004213104795
0.004225795679
0.004237207611
0.004247183353
0.004255742649
0.00426300222
0.004269121272
0.004274263243
0.004278571018
0.004282112706
0.004284660509
0.004161213504
0.004167672814
0.00417567055
0.004184757451
0.004194444682
0.004204294274
0.004213957145
0.004223185261
0.004231821228
0.004239778186
0.004247020104
0.004253524249
0.004259186207
0.004263427357
0.004160406471
0.004168152891
0.004178202803
0.004189747432
0.004201943376
0.004214085316
0.00422566696
0.004236370311
0.004246031006
0.004254597567
0.00426209023
0.004268573937
0.00427412057
0.004278740051
0.004282085136
0.00417600921
0.004195140547
0.004215954856
0.004235760758
0.004253071719
0.004267365487
0.004278707777
0.004287448503
0.004294032008
0.004298895037
0.004302423535
0.004304934255
0.004306680736
0.004307854888
0.004308557676
0.004235203757
0.004289708134
0.004334428491
0.004365313988
0.004383582761
0.004392200401
0.004394166363
0.004391904136
0.004387173205
0.004381168113
0.004374662027
0.004368138929
0.004361909025
0.004356268548
0.00435194465
0.004565228076
0.004621817777
0.004631396518
0.004615437236
0.004588033399
0.004557158494
0.004526864868
0.004498967994
0.004474096951
0.004452301816
0.004433381758
0.004417089824
0.004403396234
0.004393388143
0.005107116096
0.005037057695
0.004928775976
0.004824757563
0.004736275096
0.004664042422
0.004605745991
0.004558638954
0.004520318601
0.0044888793
0.004462872859
0.004441260102
0.004423553475
0.004410821459
0.004565216284
0.004621808876
0.004631388603
0.004615429668
0.004588025954
0.004557150366
0.004526858046
0.00449896164
0.004474091377
0.004452296453
0.004433377375
0.004417085116
0.004403391713
0.004393383788
0.004289706696
0.004334426097
0.004365309355
0.004383577227
0.004392193799
0.004394158668
0.004391896114
0.004387165108
0.00438116017
0.004374654281
0.004368131512
0.004361902437
0.004356261295
0.004351937501
0.004195140264
0.004215954147
0.004235759171
0.004253068876
0.004267362321
0.00427870355
0.004287442964
0.00429402567
0.004298888736
0.004302416223
0.004304927236
0.004306673481
0.004307847092
0.00430854957
0.004168153106
0.004178202541
0.004189747237
0.00420194249
0.004214083845
0.004225664766
0.004236367016
0.004246026806
0.004254592389
0.004262084054
0.004268567354
0.00427411343
0.004278732125
0.004282076942
0.004163288048
0.004173115581
0.004185141094
0.004198265633
0.004211565179
0.004224369457
0.004236249804
0.00424697293
0.00425644724
0.004264679773
0.004271737441
0.004277721128
0.004282733223
0.004286821767
0.004289733646
0.004189199495
0.004215615501
0.004240684812
0.004261936822
0.004278806928
0.004291622074
0.004301032625
0.004307727556
0.004312327573
0.004315347939
0.004317199243
0.004318200697
0.004318601184
0.004318604679
0.004318430639
0.004315967982
0.004394989612
0.00443957763
0.004458781727
0.004462229142
0.0044568108
0.004446873018
0.004434995977
0.0044226501
0.004410636322
0.004399368001
0.004389037602
0.00437974037
0.004371649193
0.004365594037
0.005010137303
0.005107104793
0.005037050216
0.004928770395
0.004824753837
0.004736272162
0.004664039701
0.004605744224
0.004558637122
0.004520317504
0.004488878933
0.00446287266
0.004441259724
0.004423552956
0.004410820847
0.007447786526
0.006259142008
0.005600580672
0.005214812586
0.004975761879
0.004819339385
0.004711710191
0.004634296521
0.004576479022
0.004531936728
0.004496766621
0.004468530093
0.004445965759
0.004429991918
0.005107116342
0.005037045853
0.004928760431
0.004824742501
0.004736261329
0.004664029728
0.00460573454
0.004558628831
0.004520310018
0.004488871931
0.004462865915
0.004441253821
0.004423547527
0.004410816122
0.004394993947
0.004439577226
0.004458777453
0.00446222173
0.004456801646
0.004446863148
0.004434985977
0.004422639905
0.004410627029
0.004399358725
0.004389028773
0.004379731634
0.004371640682
0.004365585208
0.004215617701
0.004240685362
0.004261935808
0.004278803477
0.004291618039
0.004301027337
0.004307721106
0.004312320606
0.004315340656
0.004317190987
0.004318192715
0.004318592471
0.004318596039
0.004318420907
0.004173116827
0.00418514163
0.004198265743
0.004211564573
0.004224367702
0.004236247076
0.00424696898
0.004256442165
0.00426467391
0.004271730677
0.004277713487
0.004282725035
0.004286813393
0.004289724254
0.004160406899
0.004168152544
0.004178202175
0.004189746768
0.004201942604
0.004214084549
0.004225666143
0.004236369393
0.00424602967
0.004254596279
0.004262088999
0.004268572123
0.004274118478
0.00427873773
0.004282082269
0.004176008705
0.004195138876
0.004215953306
0.00423575872
0.004253069464
0.004267363597
0.004278705547
0.004287445916
0.004294029135
0.004298892423
0.004302420629
0.004304931667
0.004306677941
0.00430785152
0.004308554304
0.004235198606
0.004289702711
0.004334423285
0.00436530839
0.004383577116
0.004392194928
0.004394160711
0.004391898451
0.004387168231
0.004381162996
0.004374657125
0.004368134448
0.00436190508
0.00435626441
0.004351940136
0.004438676135
0.004565205591
0.00462180074
0.004631382417
0.004615423775
0.004588021037
0.004557147691
0.004526855746
0.004498959088
0.004474089039
0.004452294425
0.004433375077
0.00441708333
0.004403390436
0.004393382229
0.005010134074
0.005107100112
0.005037035824
0.004928753767
0.004824737871
0.004736257809
0.004664027038
0.004605733133
0.00455862745
0.004520308376
0.004488871233
0.004462865056
0.004441252831
0.004423546594
0.004410815199
0.004438679932
0.0045652053
0.004621796466
0.004631375112
0.004615416263
0.004588013032
0.00455713966
0.004526847188
0.004498951647
0.004474082188
0.004452288172
0.004433368882
0.004417077983
0.004403385372
0.004393377643
0.0042897097
0.004334424748
0.004365305624
0.004383571444
0.004392187175
0.004394152569
0.004391889896
0.004387159237
0.004381154165
0.004374648502
0.004368126085
0.004361896864
0.004356256792
0.00435193191
0.004195141446
0.004215954769
0.004235758642
0.004253067369
0.004267359974
0.004278700632
0.004287440209
0.004294021881
0.00429888486
0.004302412705
0.004304922837
0.004306669568
0.004307843045
0.004308545741
0.004168153187
0.004178202431
0.004189746295
0.004201942032
0.004214083335
0.004225663052
0.004236364777
0.004246024963
0.004254590063
0.004262081656
0.004268564099
0.004274110788
0.004278729033
0.004282074051
0.004156573103
0.004161212856
0.004167672354
0.004175670769
0.004184756925
0.004194444566
0.004204294381
0.004213957405
0.004223186142
0.004231822632
0.004239780151
0.0042470223
0.004253526195
0.004259188382
0.004263430317
0.004163396869
0.004173478985
0.004185975607
0.004199567571
0.004213103536
0.004225794562
0.004237206872
0.004247182896
0.004255743069
0.00426300309
0.004269121036
0.004274263333
0.004278571977
0.004282112999
0.004284661621
0.004184314528
0.004209479859
0.004235902413
0.004259848094
0.004279497476
0.004294468432
0.004305187971
0.004312409915
0.004316942167
0.004319504244
0.004320680534
0.004320923863
0.004320572952
0.004319901448
0.004319220076
0.004235198379
0.004289701864
0.004334421663
0.004365305393
0.004383573299
0.004392190315
0.004394156192
0.004391893534
0.004387163461
0.004381157945
0.004374652425
0.004368129746
0.004361900553
0.004356259744
0.004351936154
0.004315967007
0.004394985186
0.004439569713
0.00445877103
0.004462216664
0.004456797991
0.004446860638
0.004434983697
0.004422637716
0.004410624522
0.004399357454
0.004389027579
0.004379730268
0.004371639304
0.004365584745
0.004235197949
0.004289700583
0.00433441882
0.004365301363
0.004383569001
0.004392185911
0.004394150763
0.004391888754
0.004387158202
0.00438115298
0.004374647814
0.004368124837
0.004361895684
0.004356255398
0.004351931055
0.004184316494
0.004209481314
0.004235902877
0.004259847636
0.004279494499
0.004294464583
0.004305182307
0.004312404249
0.004316936366
0.004319497477
0.00432067431
0.004320917112
0.004320566013
0.004319894444
0.004319212849
0.004173480488
0.004185976627
0.004199567697
0.004213103395
0.004225792401
0.004237203819
0.004247179178
0.004255738008
0.004262996771
0.004269115205
0.004274256551
0.004278564857
0.004282105895
0.004284654147
0.004161214065
0.004167673258
0.004175670869
0.004184756995
0.004194443676
0.004204292197
0.004213954583
0.00422318271
0.0042318177
0.004239774444
0.004247015553
0.004253519487
0.004259180989
0.00426342215
0.00415402516
0.00415648492
0.004160131613
0.004164992098
0.004170954519
0.004177814828
0.004185323737
0.004193227611
0.004201295955
0.004209334924
0.00421718856
0.0042247339
0.004231853049
0.004238318161
0.004243311197
0.004156641795
0.004161313492
0.004167731679
0.004175562893
0.004184337926
0.004193583241
0.004202900364
0.004211991775
0.004220657758
0.004228781131
0.004236303781
0.004243203488
0.00424946262
0.004254970902
0.004259134375
0.00416339722
0.004173479199
0.004185975243
0.004199567068
0.004213103221
0.00422579307
0.004237205444
0.00424718161
0.004255741123
0.004263000416
0.004269118933
0.004274261442
0.00427856994
0.004282111206
0.004284658784
0.004176008396
0.004195138666
0.004215952323
0.004235757022
0.004253066353
0.004267359234
0.004278700771
0.004287440645
0.004294023526
0.00429888658
0.004302414151
0.004304925083
0.004306671596
0.004307845769
0.004308548415
0.004189199141
0.004215613854
0.004240681593
0.004261931785
0.004278799912
0.004291614692
0.004301024366
0.00430771831
0.004312318197
0.004315338416
0.004317190186
0.004318191171
0.004318590899
0.004318594404
0.004318419854
0.004176008649
0.004195137952
0.004215951254
0.004235755474
0.004253064801
0.004267357434
0.004278698551
0.004287437689
0.004294020509
0.004298882982
0.004302411317
0.004304921772
0.004306668386
0.00430784217
0.004308544643
0.004163396836
0.004173479208
0.004185974924
0.00419956634
0.004213101795
0.00422579116
0.004237202665
0.004247178114
0.004255736957
0.004262995773
0.004269114609
0.004274256544
0.004278564609
0.004282105631
0.004284653615
0.00415664136
0.004161313163
0.004167731403
0.004175562796
0.004184336962
0.004193582156
0.004202898416
0.004211988686
0.004220654127
0.004228776623
0.004236299166
0.004243198571
0.004249457752
0.00425496527
0.004259128512
0.004156485015
0.004160132023
0.004164992724
0.004170955192
0.004177814733
0.004185322312
0.004193225345
0.004201293552
0.004209331421
0.004217183879
0.004224729026
0.004231847659
0.004238312357
0.004243304706
0.004152887883
0.0041543471
0.004156618087
0.004159827374
0.004164017079
0.004169143243
0.004175093946
0.004181710913
0.004188813389
0.004196219971
0.004203757352
0.004211266541
0.004218577028
0.004225389787
0.004230745969
0.00415402502
0.004156484592
0.004160131942
0.004164992266
0.004170955132
0.004177815562
0.004185323462
0.004193227319
0.004201295302
0.004209333807
0.004217187067
0.004224732449
0.004231851422
0.004238316456
0.004243309868
0.004156573698
0.004161213393
0.004167672145
0.004175669761
0.004184756133
0.004194443092
0.004204292619
0.004213955547
0.004223184091
0.004231819815
0.004239777368
0.004247019261
0.004253522634
0.004259184372
0.00426342602
0.004160406895
0.00416815243
0.004178201628
0.004189745466
0.004201940515
0.004214081941
0.004225662864
0.00423636517
0.004246024705
0.004254590641
0.004262082408
0.004268565868
0.004274112091
0.00427873083
0.004282075459
0.004163288538
0.004173115579
0.004185139303
0.004198263009
0.004211561641
0.004224364888
0.004236244579
0.00424696644
0.004256439874
0.004264671976
0.004271729203
0.004277711876
0.004282723886
0.004286811759
0.004289722914
0.004160406463
0.004168152121
0.004178200895
0.004189744914
0.004201939674
0.004214080755
0.004225661189
0.004236363274
0.004246023413
0.004254588336
0.004262080326
0.004268563582
0.00427410967
0.004278728213
0.004282072659
0.004156573229
0.004161213139
0.004167671924
0.004175669285
0.004184755878
0.004194442557
0.004204290892
0.004213952981
0.004223180986
0.004231816547
0.00423977358
0.004247015117
0.004253518557
0.004259180257
0.00426342185
0.004154024517
0.004156484605
0.004160131821
0.004164992101
0.004170954006
0.004177814023
0.004185321829
0.004193224925
0.004201293029
0.004209330679
0.004217183542
0.004224728678
0.00423184734
0.004238311797
0.004243305102
0.004152888056
0.004154347137
0.004156617801
0.004159827269
0.004164016932
0.004169142992
0.00417509327
0.004181709715
0.004188811894
0.004196217381
0.004203753688
0.004211262206
0.004218572382
0.004225384534
0.004230740396
)
;

boundaryField
{
    top
    {
        type            calculated;
        value           nonuniform List<scalar> 
127
(
0.004152888056
0.004154347041
0.004156484897
0.004161213504
0.004168153106
0.004173116827
0.004168153187
0.004161214065
0.004156485015
0.004154347137
0.004156617708
0.004160132158
0.004167672814
0.004178202541
0.00418514163
0.004178202431
0.004167673258
0.004160132023
0.004156617801
0.004159827331
0.004164992891
0.00417567055
0.004189747237
0.004198265743
0.004189746295
0.004175670869
0.004164992724
0.004159827269
0.004164017197
0.004170955604
0.004184757451
0.00420194249
0.004211564573
0.004201942032
0.004184756995
0.004170955192
0.004164016932
0.004169143898
0.004177815496
0.004194444682
0.004214083845
0.004224367702
0.004214083335
0.004194443676
0.004177814733
0.004169142992
0.004175094251
0.004185323548
0.004204294274
0.004225664766
0.004236247076
0.004225663052
0.004204292197
0.004185322312
0.00417509327
0.004181711026
0.00419322807
0.004213957145
0.004236367016
0.00424696898
0.004236364777
0.004213954583
0.004193225345
0.004181709715
0.004188814401
0.004201296588
0.004223185261
0.004246026806
0.004256442165
0.004246024963
0.00422318271
0.004201293552
0.004188811894
0.004196221155
0.004209335204
0.004231821228
0.004254592389
0.00426467391
0.004254590063
0.0042318177
0.004209331421
0.004196217381
0.004203758363
0.004217188344
0.004239778186
0.004262084054
0.004271730677
0.004262081656
0.004239774444
0.004217183879
0.004203753688
0.004211267279
0.004224733532
0.004247020104
0.004268567354
0.004277713487
0.004268564099
0.004247015553
0.004224729026
0.004211262206
0.004218578098
0.004231852688
0.004253524249
0.00427411343
0.004282725035
0.004274110788
0.004253519487
0.004231847659
0.004218572382
0.004225390921
0.004238318153
0.004259186207
0.004278732125
0.004286813393
0.004278729033
0.004259180989
0.004238312357
0.004225384534
0.004230747155
0.004243311248
0.004263427357
0.004282076942
0.004289724254
0.004282074051
0.00426342215
0.004243304706
0.004230740396
)
;
    }
    bottom
    {
        type            calculated;
        value           nonuniform List<scalar> 
134
(
0.004154024525
0.004156572905
0.004160406471
0.004163288048
0.004160406899
0.004156573103
0.00415402516
0.004152887883
0.004154347199
0.004156485632
0.004161213641
0.004168152891
0.004173115581
0.004168152544
0.004161212856
0.00415648492
0.0041543471
0.00415661802
0.004160132539
0.004167672772
0.004178202803
0.004185141094
0.004178202175
0.004167672354
0.004160131613
0.004156618087
0.004159827876
0.004164992872
0.004175670778
0.004189747432
0.004198265633
0.004189746768
0.004175670769
0.004164992098
0.004159827374
0.004164017565
0.004170955897
0.004184757971
0.004201943376
0.004211565179
0.004201942604
0.004184756925
0.004170954519
0.004164017079
0.004169144418
0.004177816049
0.004194445695
0.004214085316
0.004224369457
0.004214084549
0.004194444566
0.004177814828
0.004169143243
0.004175095673
0.0041853253
0.004204295437
0.00422566696
0.004236249804
0.004225666143
0.004204294381
0.004185323737
0.004175093946
0.004181712444
0.004193229543
0.004213959035
0.004236370311
0.00424697293
0.004236369393
0.004213957405
0.004193227611
0.004181710913
0.004188816004
0.004201298404
0.004223188287
0.004246031006
0.00425644724
0.00424602967
0.004223186142
0.004201295955
0.004188813389
0.004196222334
0.004209337144
0.004231824926
0.004254597567
0.004264679773
0.004254596279
0.004231822632
0.004209334924
0.004196219971
0.004203760375
0.004217191253
0.004239782857
0.00426209023
0.004271737441
0.004262088999
0.004239780151
0.00421718856
0.004203757352
0.004211269746
0.004224736858
0.004247024924
0.004268573937
0.004277721128
0.004268572123
0.0042470223
0.0042247339
0.004211266541
0.004218580751
0.004231856372
0.004253529619
0.00427412057
0.004282733223
0.004274118478
0.004253526195
0.004231853049
0.004218577028
0.004225393747
0.004238322676
0.004259192664
0.004278740051
0.004286821767
0.00427873773
0.004259188382
0.004238318161
0.004225389787
0.004230750884
0.004243316661
0.00426343461
0.004282085136
0.004289733646
0.004282082269
0.004263430317
0.004243311197
0.004230745969
)
;
    }
    side-walls
    {
        type            calculated;
        value           nonuniform List<scalar> 
261
(
0.004154347199
0.004156485299
0.004161213967
0.004168153358
0.004173116658
0.004168153174
0.00416121332
0.004156484974
0.004154347041
0.00415661802
0.004160131992
0.00416767319
0.004178202658
0.004185141565
0.004178202785
0.004167672328
0.004160132082
0.004156617708
0.004159827876
0.004164993084
0.004175671495
0.004189747851
0.004198266097
0.004189747893
0.004175670984
0.004164992459
0.004159827331
0.004164017565
0.004170956032
0.004184758651
0.004201944002
0.004211566056
0.004201943372
0.004184757989
0.004170955879
0.004164017197
0.004169144418
0.004177816763
0.004194446477
0.004214086153
0.004224370557
0.004214085686
0.004194445688
0.004177815757
0.004169143898
0.004175095673
0.004185325791
0.004204295978
0.004225668272
0.004236251198
0.004225667337
0.004204295383
0.004185324414
0.004175094251
0.004181712444
0.004193229487
0.004213960219
0.004236371313
0.004246974386
0.004236370137
0.004213958162
0.004193228635
0.004181711026
0.004188816004
0.004201298529
0.004223189143
0.004246031964
0.004256448543
0.004246031029
0.004223187149
0.004201296628
0.004188814401
0.004196222334
0.004209337549
0.004231825521
0.004254598117
0.004264680812
0.004254597212
0.004231823633
0.00420933606
0.004196221155
0.004203760375
0.004217191396
0.00423978345
0.004262090853
0.004271739093
0.004262090387
0.004239781401
0.004217189237
0.004203758363
0.004211269746
0.004224737524
0.004247025981
0.004268574982
0.00427772209
0.004268573596
0.004247023196
0.004224734761
0.004211267279
0.004218580751
0.004231856616
0.004253530327
0.004274121694
0.004282734765
0.00427412013
0.004253527919
0.004231854083
0.004218578098
0.004225393747
0.004238322246
0.004259192445
0.00427874095
0.004286823
0.004278739107
0.004259189942
0.004238319501
0.004225390921
0.004230750884
0.004243315903
0.004263434175
0.004282085421
0.004289734205
0.004282084313
0.004263431648
0.004243312794
0.004230747155
0.004152887883
0.00415402502
0.004156573698
0.004160406895
0.004163288538
0.004160406463
0.004156573229
0.004154024517
0.004152888056
0.0041543471
0.004156484592
0.004161213393
0.00416815243
0.004173115579
0.004168152121
0.004161213139
0.004156484605
0.004154347137
0.004156618087
0.004160131942
0.004167672145
0.004178201628
0.004185139303
0.004178200895
0.004167671924
0.004160131821
0.004156617801
0.004159827374
0.004164992266
0.004175669761
0.004189745466
0.004198263009
0.004189744914
0.004175669285
0.004164992101
0.004159827269
0.004164017079
0.004170955132
0.004184756133
0.004201940515
0.004211561641
0.004201939674
0.004184755878
0.004170954006
0.004164016932
0.004169143243
0.004177815562
0.004194443092
0.004214081941
0.004224364888
0.004214080755
0.004194442557
0.004177814023
0.004169142992
0.004175093946
0.004185323462
0.004204292619
0.004225662864
0.004236244579
0.004225661189
0.004204290892
0.004185321829
0.00417509327
0.004181710913
0.004193227319
0.004213955547
0.00423636517
0.00424696644
0.004236363274
0.004213952981
0.004193224925
0.004181709715
0.004188813389
0.004201295302
0.004223184091
0.004246024705
0.004256439874
0.004246023413
0.004223180986
0.004201293029
0.004188811894
0.004196219971
0.004209333807
0.004231819815
0.004254590641
0.004264671976
0.004254588336
0.004231816547
0.004209330679
0.004196217381
0.004203757352
0.004217187067
0.004239777368
0.004262082408
0.004271729203
0.004262080326
0.00423977358
0.004217183542
0.004203753688
0.004211266541
0.004224732449
0.004247019261
0.004268565868
0.004277711876
0.004268563582
0.004247015117
0.004224728678
0.004211262206
0.004218577028
0.004231851422
0.004253522634
0.004274112091
0.004282723886
0.00427410967
0.004253518557
0.00423184734
0.004218572382
0.004225389787
0.004238316456
0.004259184372
0.00427873083
0.004286811759
0.004278728213
0.004259180257
0.004238311797
0.004225384534
0.004230745969
0.004243309868
0.00426342602
0.004282075459
0.004289722914
0.004282072659
0.00426342185
0.004243305102
0.004230740396
)
;
    }
    inlet
    {
        type            calculated;
        value           nonuniform 0();
    }
    outlet
    {
        type            calculated;
        value           nonuniform List<scalar> 
81
(
0.004230750884
0.004243315903
0.004263434175
0.004282085421
0.004289734205
0.004282084313
0.004263431648
0.004243312794
0.004230747155
0.004243316661
0.004259140605
0.004284666977
0.004308557882
0.004318431449
0.00430855562
0.004284662949
0.004259135658
0.004243311248
0.00426343461
0.004284666797
0.004319226915
0.004351944562
0.004365594747
0.004351940891
0.004319221414
0.004284660509
0.004263427357
0.004282085136
0.004308557676
0.00435194465
0.004393388143
0.004410821459
0.004393383788
0.004351937501
0.00430854957
0.004282076942
0.004289733646
0.004318430639
0.004365594037
0.004410820847
0.004429991918
0.004410816122
0.004365585208
0.004318420907
0.004289724254
0.004282082269
0.004308554304
0.004351940136
0.004393382229
0.004410815199
0.004393377643
0.00435193191
0.004308545741
0.004282074051
0.004263430317
0.004284661621
0.004319220076
0.004351936154
0.004365584745
0.004351931055
0.004319212849
0.004284654147
0.00426342215
0.004243311197
0.004259134375
0.004284658784
0.004308548415
0.004318419854
0.004308544643
0.004284653615
0.004259128512
0.004243304706
0.004230745969
0.004243309868
0.00426342602
0.004282075459
0.004289722914
0.004282072659
0.00426342185
0.004243305102
0.004230740396
)
;
    }
    procBoundary1to0
    {
        type            processor;
        value           nonuniform List<scalar> 
97
(
0.004152887639
0.004152887639
0.004154024902
0.004156572822
0.004160406096
0.00416328735
0.004160405905
0.004156572633
0.004154024523
0.00415288796
0.004152571713
0.004156641459
0.004156641459
0.004156641459
0.004163397043
0.004176007506
0.004189196153
0.004176006769
0.004163395978
0.004156640784
0.004154024266
0.004153724193
0.004156714523
0.004184316483
0.004184316483
0.004184316483
0.004235195736
0.004315951252
0.004235191561
0.004184311828
0.004163396028
0.004156572098
0.00415541536
0.004161993815
0.004185036323
0.004438680348
0.004438680348
0.004438680348
0.005010033218
0.004438652296
0.004235191972
0.004176006706
0.004160405827
0.004156625728
0.004166983583
0.004210684736
0.004383997698
0.009714817894
0.009714817894
0.009714817894
0.005010038283
0.005010038283
0.004315953113
0.004189196439
0.004163287522
0.004155416296
0.004161993415
0.004185037095
0.004252142168
0.004384002083
0.004252139309
0.004235201221
0.004235201221
0.004235201221
0.004176008381
0.004160406283
0.004153724793
0.004156714786
0.004165488661
0.004185037529
0.004210684548
0.004185036589
0.004165488492
0.004163397708
0.004163397708
0.004163397708
0.004156573514
0.004152571989
0.00415374885
0.004156714598
0.004161993888
0.004166984161
0.004161993437
0.004156714415
0.004153748816
0.004154024905
0.004154024905
0.004154024905
0.00415205084
0.004152572382
0.004153724817
0.004155416481
0.004156626299
0.004155415741
0.004153724496
0.004152571977
0.004152051063
)
;
    }
}


// ************************************************************************* //
