/*--------------------------------*- C++ -*----------------------------------*\
| =========                 |                                                 |
| \\      /  F ield         | OpenFOAM: The Open Source CFD Toolbox           |
|  \\    /   O peration     | Version:  4.x                                   |
|   \\  /    A nd           | Web:      www.OpenFOAM.org                      |
|    \\/     M anipulation  |                                                 |
\*---------------------------------------------------------------------------*/
FoamFile
{
    version     2.0;
    format      ascii;
    class       volScalarField;
    location    "5000";
    object      CO;
}
// * * * * * * * * * * * * * * * * * * * * * * * * * * * * * * * * * * * * * //

dimensions      [0 0 0 0 0 0 0];

internalField   nonuniform List<scalar> 
1175
(
0.3719638842
0.3719638842
0.3719638841
0.3719638841
0.3719638842
0.3719638841
0.3719638836
0.3719638821
0.3719638779
0.3719638655
0.3719638298
0.3719637351
0.3719635031
0.3719629894
0.3719619775
0.3719638844
0.3719638845
0.3719638843
0.3719638842
0.3719638841
0.3719638839
0.3719638833
0.3719638816
0.3719638755
0.3719638565
0.3719638002
0.3719636446
0.3719632504
0.3719623593
0.3719606031
0.3719638845
0.3719638845
0.3719638846
0.3719638842
0.371963884
0.3719638838
0.3719638828
0.37196388
0.3719638705
0.3719638392
0.3719637414
0.3719634578
0.371962709
0.3719609663
0.3719575224
0.3719638843
0.3719638843
0.3719638843
0.3719638842
0.3719638839
0.3719638836
0.3719638828
0.3719638789
0.3719638655
0.371963819
0.3719636683
0.3719632113
0.3719619528
0.3719589213
0.3719528876
0.3719638843
0.3719638842
0.3719638845
0.3719638842
0.3719638841
0.3719638839
0.3719638826
0.3719638784
0.3719638629
0.3719638086
0.3719636273
0.3719630623
0.3719614545
0.3719574587
0.3719494039
0.3719638843
0.3719638843
0.3719638841
0.3719638841
0.3719638841
0.3719638837
0.3719638827
0.371963879
0.3719638654
0.3719638189
0.3719636682
0.3719632113
0.3719619528
0.3719589216
0.3719528879
0.3719638842
0.3719638844
0.3719638842
0.3719638842
0.3719638842
0.3719638838
0.3719638832
0.3719638803
0.3719638707
0.3719638394
0.3719637416
0.3719634576
0.3719627092
0.3719609663
0.3719575224
0.3719638842
0.3719638843
0.3719638845
0.3719638843
0.3719638843
0.3719638841
0.3719638834
0.3719638815
0.3719638758
0.3719638568
0.3719638007
0.3719636447
0.3719632507
0.3719623595
0.3719606033
0.3719638845
0.3719638845
0.3719638844
0.3719638845
0.3719638845
0.3719638844
0.371963884
0.3719638827
0.3719638783
0.3719638657
0.3719638301
0.3719637352
0.371963503
0.3719629894
0.3719619772
0.3719638843
0.3719638841
0.3719638841
0.3719638842
0.3719638839
0.371963884
0.3719638836
0.3719638812
0.3719638754
0.3719638566
0.3719638003
0.3719636447
0.3719632505
0.3719623593
0.3719638845
0.3719638844
0.3719638842
0.3719638844
0.3719638839
0.3719638837
0.3719638831
0.3719638804
0.3719638712
0.3719638403
0.3719637434
0.3719634597
0.3719627046
0.3719609365
0.3719574395
0.3719638844
0.3719638844
0.3719638843
0.3719638841
0.371963884
0.3719638838
0.3719638826
0.3719638782
0.3719638624
0.3719638067
0.3719636205
0.3719630394
0.3719613944
0.3719573518
0.3719492721
0.3719638842
0.3719638841
0.3719638842
0.3719638842
0.3719638837
0.3719638833
0.3719638821
0.3719638753
0.3719638516
0.3719637636
0.3719634501
0.3719624062
0.3719592422
0.3719509699
0.3719340246
0.3719638843
0.3719638841
0.3719638842
0.3719638842
0.371963884
0.3719638839
0.3719638819
0.3719638748
0.3719638464
0.3719637382
0.3719633402
0.3719619481
0.3719574667
0.3719449373
0.3719180775
0.3719638841
0.371963884
0.371963884
0.3719638841
0.3719638841
0.3719638837
0.3719638818
0.3719638759
0.371963852
0.3719637637
0.3719634503
0.3719624062
0.371959242
0.3719509701
0.371934025
0.371963884
0.3719638842
0.3719638841
0.3719638841
0.3719638841
0.3719638837
0.3719638825
0.3719638782
0.3719638623
0.3719638066
0.3719636205
0.3719630393
0.3719613944
0.3719573519
0.3719492727
0.3719638844
0.3719638844
0.3719638842
0.3719638843
0.371963884
0.3719638841
0.3719638834
0.3719638806
0.3719638712
0.3719638402
0.3719637432
0.3719634594
0.3719627045
0.3719609368
0.3719574401
0.3719638844
0.3719638844
0.3719638844
0.3719638843
0.3719638845
0.3719638843
0.3719638836
0.3719638818
0.3719638756
0.3719638566
0.3719638002
0.3719636448
0.3719632506
0.3719623596
0.3719606032
0.3719638841
0.3719638842
0.3719638843
0.3719638843
0.3719638841
0.3719638839
0.3719638828
0.3719638801
0.3719638705
0.3719638392
0.3719637412
0.3719634575
0.371962709
0.371960966
0.3719638843
0.3719638843
0.3719638843
0.3719638842
0.3719638842
0.3719638836
0.3719638825
0.3719638783
0.3719638622
0.3719638067
0.3719636203
0.3719630395
0.3719613945
0.3719573511
0.3719638842
0.371963884
0.3719638842
0.3719638842
0.371963884
0.3719638837
0.3719638815
0.3719638742
0.3719638451
0.3719637355
0.3719633374
0.3719619845
0.3719578092
0.3719467436
0.3719239805
0.3719638842
0.3719638843
0.3719638844
0.3719638841
0.3719638839
0.3719638832
0.3719638807
0.3719638693
0.3719638226
0.3719636341
0.371962894
0.37196014
0.3719507376
0.3719231106
0.3718624625
0.3719638839
0.3719638839
0.371963884
0.371963884
0.3719638838
0.3719638833
0.3719638802
0.3719638667
0.3719638095
0.3719635668
0.3719625589
0.3719585063
0.3719431947
0.3718921046
0.3717648218
0.371963884
0.371963884
0.3719638841
0.3719638842
0.3719638841
0.3719638835
0.3719638809
0.3719638694
0.3719638227
0.3719636339
0.3719628936
0.37196014
0.3719507379
0.3719231118
0.3718624659
0.3719638841
0.3719638841
0.3719638841
0.3719638841
0.3719638843
0.3719638839
0.3719638817
0.3719638741
0.3719638453
0.3719637355
0.3719633373
0.3719619844
0.3719578097
0.3719467446
0.3719239837
0.3719638842
0.3719638842
0.3719638843
0.3719638843
0.3719638842
0.3719638838
0.3719638828
0.3719638784
0.3719638627
0.3719638069
0.3719636205
0.3719630396
0.3719613949
0.3719573519
0.3719492727
0.3719638845
0.3719638844
0.3719638843
0.3719638844
0.3719638843
0.371963884
0.3719638831
0.3719638804
0.3719638709
0.3719638395
0.3719637416
0.3719634577
0.371962709
0.3719609664
0.3719575225
0.3719638841
0.3719638843
0.3719638844
0.3719638845
0.3719638844
0.3719638839
0.3719638828
0.3719638787
0.3719638654
0.3719638189
0.371963668
0.3719632113
0.3719619528
0.3719589213
0.3719638846
0.3719638842
0.3719638843
0.3719638845
0.3719638843
0.3719638837
0.3719638822
0.3719638758
0.371963852
0.3719637635
0.37196345
0.3719624061
0.3719592415
0.3719509683
0.3719638841
0.3719638843
0.3719638845
0.3719638844
0.3719638843
0.3719638834
0.3719638808
0.3719638696
0.3719638229
0.3719636339
0.3719628939
0.3719601399
0.3719507371
0.3719231078
0.3719638843
0.3719638842
0.3719638845
0.3719638844
0.3719638841
0.3719638831
0.3719638789
0.3719638609
0.3719637817
0.3719634306
0.3719619063
0.3719554894
0.3719301222
0.3718419809
0.37161647
0.3719638842
0.3719638841
0.3719638841
0.3719638842
0.3719638839
0.3719638831
0.3719638782
0.3719638561
0.3719637545
0.3719632772
0.3719610169
0.3719503016
0.3719003801
0.3716825843
0.3709259821
0.3719638841
0.3719638843
0.371963884
0.3719638843
0.3719638841
0.3719638831
0.3719638788
0.3719638609
0.3719637815
0.3719634304
0.3719619064
0.3719554898
0.3719301232
0.3718419859
0.3716164907
0.3719638842
0.3719638843
0.3719638841
0.3719638843
0.3719638841
0.3719638837
0.3719638807
0.3719638695
0.3719638229
0.3719636336
0.3719628938
0.3719601403
0.3719507379
0.3719231114
0.3718624654
0.3719638843
0.3719638845
0.3719638845
0.3719638843
0.3719638843
0.371963884
0.3719638823
0.3719638757
0.371963852
0.3719637635
0.3719634499
0.3719624063
0.3719592421
0.3719509699
0.3719340249
0.3719638843
0.3719638844
0.3719638843
0.3719638842
0.3719638841
0.3719638837
0.3719638829
0.3719638789
0.3719638654
0.3719638191
0.3719636682
0.3719632115
0.3719619529
0.3719589216
0.371952888
0.3719638844
0.3719638841
0.3719638843
0.3719638843
0.3719638844
0.3719638839
0.3719638825
0.3719638782
0.3719638628
0.3719638081
0.3719636269
0.371963062
0.3719614545
0.3719574582
0.3719638842
0.3719638843
0.3719638843
0.3719638843
0.3719638842
0.3719638835
0.3719638816
0.3719638744
0.3719638463
0.3719637384
0.3719633403
0.3719619482
0.371957466
0.3719449349
0.3719638838
0.3719638838
0.3719638842
0.3719638842
0.3719638837
0.3719638834
0.3719638803
0.3719638671
0.3719638096
0.3719635669
0.3719625589
0.3719585061
0.371943193
0.371892097
0.3719638842
0.3719638843
0.3719638844
0.3719638842
0.3719638837
0.3719638826
0.371963878
0.371963856
0.3719637544
0.3719632768
0.3719610164
0.3719503007
0.3719003766
0.3716825614
0.371963884
0.3719638841
0.3719638842
0.3719638843
0.3719638842
0.3719638827
0.371963877
0.3719638498
0.3719637155
0.3719630304
0.3719593689
0.3719386462
0.3718132972
0.3709975969
0.3652572006
0.3719638843
0.3719638841
0.3719638842
0.3719638842
0.3719638837
0.3719638829
0.3719638781
0.3719638562
0.3719637547
0.3719632771
0.3719610166
0.3719503013
0.3719003792
0.3716825811
0.3709259795
0.3719638845
0.3719638844
0.3719638842
0.3719638845
0.3719638842
0.3719638835
0.3719638804
0.3719638668
0.3719638096
0.371963567
0.371962559
0.3719585062
0.3719431942
0.3718921031
0.3717648204
0.371963884
0.3719638842
0.3719638842
0.3719638842
0.3719638841
0.3719638837
0.371963882
0.3719638747
0.3719638462
0.3719637382
0.3719633403
0.3719619481
0.3719574664
0.3719449367
0.3719180768
0.3719638844
0.3719638841
0.3719638841
0.3719638842
0.3719638842
0.371963884
0.3719638829
0.3719638783
0.3719638629
0.3719638085
0.3719636273
0.3719630622
0.3719614544
0.3719574587
0.3719494036
0.3719638841
0.3719638843
0.3719638844
0.3719638844
0.3719638841
0.371963884
0.371963883
0.371963879
0.3719638656
0.3719638189
0.3719636681
0.3719632112
0.3719619526
0.3719589208
0.3719638842
0.3719638843
0.3719638842
0.371963884
0.3719638841
0.3719638838
0.3719638818
0.3719638755
0.371963852
0.3719637636
0.3719634501
0.3719624059
0.3719592415
0.3719509685
0.3719638844
0.3719638845
0.3719638845
0.3719638844
0.3719638841
0.3719638833
0.3719638806
0.3719638691
0.3719638228
0.3719636341
0.3719628939
0.37196014
0.3719507369
0.3719231074
0.3719638839
0.3719638844
0.3719638844
0.3719638842
0.3719638837
0.371963883
0.371963879
0.3719638609
0.3719637811
0.3719634301
0.371961906
0.3719554889
0.3719301205
0.3718419741
0.3719638843
0.3719638843
0.3719638842
0.3719638844
0.3719638839
0.3719638831
0.3719638781
0.3719638564
0.3719637544
0.371963277
0.3719610165
0.3719503008
0.3719003759
0.3716825589
0.3719638844
0.3719638843
0.3719638842
0.3719638843
0.3719638841
0.371963883
0.3719638791
0.3719638612
0.3719637815
0.3719634307
0.3719619061
0.3719554892
0.3719301212
0.3718419759
0.3719638842
0.3719638843
0.3719638842
0.3719638843
0.3719638842
0.3719638835
0.3719638808
0.3719638693
0.3719638226
0.3719636338
0.3719628937
0.3719601398
0.3719507372
0.3719231095
0.371862459
0.3719638843
0.3719638841
0.3719638842
0.3719638841
0.3719638842
0.3719638836
0.371963882
0.3719638758
0.3719638521
0.3719637636
0.3719634501
0.3719624062
0.3719592417
0.3719509695
0.371934024
0.3719638844
0.3719638842
0.3719638842
0.3719638842
0.371963884
0.3719638837
0.371963883
0.3719638792
0.3719638657
0.371963819
0.3719636682
0.3719632112
0.3719619525
0.3719589212
0.3719528875
0.3719638841
0.3719638841
0.3719638841
0.371963884
0.3719638837
0.3719638838
0.3719638832
0.3719638803
0.3719638707
0.3719638394
0.3719637415
0.3719634576
0.3719627088
0.3719609658
0.3719638842
0.3719638842
0.3719638843
0.3719638842
0.371963884
0.3719638836
0.3719638824
0.3719638781
0.3719638626
0.3719638066
0.3719636204
0.3719630393
0.3719613941
0.371957351
0.3719638842
0.3719638841
0.3719638842
0.3719638842
0.3719638839
0.3719638833
0.3719638814
0.3719638741
0.371963845
0.3719637352
0.3719633372
0.3719619845
0.3719578087
0.3719467425
0.371963884
0.3719638843
0.3719638843
0.3719638842
0.3719638841
0.3719638833
0.3719638804
0.3719638693
0.3719638226
0.3719636337
0.3719628936
0.3719601396
0.3719507366
0.3719231073
0.371963884
0.3719638839
0.3719638841
0.3719638842
0.371963884
0.3719638831
0.3719638801
0.3719638668
0.3719638093
0.3719635669
0.3719625589
0.3719585061
0.3719431928
0.3718920971
0.3719638841
0.3719638843
0.3719638843
0.3719638841
0.3719638842
0.3719638834
0.371963881
0.3719638695
0.3719638226
0.3719636339
0.3719628935
0.3719601394
0.3719507368
0.3719231078
0.3719638843
0.3719638843
0.3719638845
0.3719638844
0.3719638842
0.3719638835
0.3719638817
0.3719638743
0.3719638451
0.3719637353
0.3719633372
0.3719619843
0.371957809
0.3719467428
0.3719638842
0.3719638844
0.3719638843
0.3719638841
0.3719638842
0.3719638836
0.3719638827
0.3719638783
0.3719638623
0.3719638067
0.3719636206
0.3719630394
0.3719613943
0.3719573513
0.3719492714
0.3719638843
0.3719638843
0.3719638842
0.3719638842
0.3719638842
0.3719638842
0.3719638833
0.3719638805
0.3719638708
0.3719638394
0.3719637415
0.3719634577
0.371962709
0.371960966
0.3719575218
0.3719638841
0.3719638841
0.371963884
0.371963884
0.3719638838
0.3719638837
0.3719638832
0.3719638815
0.3719638754
0.3719638567
0.3719638006
0.3719636447
0.3719632503
0.3719623592
0.371963884
0.371963884
0.3719638841
0.3719638842
0.3719638843
0.3719638839
0.371963883
0.3719638804
0.3719638711
0.3719638403
0.3719637433
0.3719634596
0.3719627043
0.3719609364
0.3719638838
0.371963884
0.3719638843
0.371963884
0.3719638839
0.3719638835
0.3719638825
0.3719638783
0.3719638624
0.3719638067
0.3719636204
0.3719630394
0.3719613942
0.371957351
0.3719638842
0.3719638841
0.3719638843
0.3719638842
0.3719638839
0.3719638834
0.3719638817
0.3719638758
0.371963852
0.3719637636
0.3719634501
0.371962406
0.3719592417
0.3719509684
0.3719638842
0.371963884
0.3719638839
0.371963884
0.3719638839
0.3719638834
0.3719638815
0.3719638746
0.3719638463
0.3719637383
0.3719633401
0.3719619478
0.371957466
0.3719449348
0.3719638841
0.3719638842
0.371963884
0.3719638839
0.3719638838
0.3719638835
0.3719638821
0.3719638759
0.3719638518
0.3719637634
0.3719634499
0.3719624061
0.3719592417
0.3719509685
0.371963884
0.3719638841
0.3719638842
0.3719638839
0.371963884
0.3719638835
0.3719638824
0.371963878
0.3719638625
0.3719638067
0.3719636205
0.3719630393
0.3719613941
0.3719573513
0.3719638841
0.3719638842
0.3719638839
0.3719638842
0.371963884
0.3719638839
0.3719638833
0.3719638804
0.3719638711
0.3719638402
0.3719637433
0.3719634596
0.3719627046
0.3719609364
0.3719638842
0.3719638843
0.3719638843
0.3719638843
0.3719638844
0.3719638841
0.3719638837
0.3719638817
0.3719638756
0.3719638567
0.3719638006
0.3719636449
0.3719632505
0.3719623596
0.3719606029
0.371963884
0.371963884
0.371963884
0.3719638838
0.371963884
0.3719638838
0.3719638836
0.3719638822
0.3719638782
0.3719638657
0.3719638298
0.3719637349
0.3719635029
0.3719629894
0.3719638841
0.371963884
0.371963884
0.371963884
0.371963884
0.3719638841
0.3719638832
0.3719638817
0.3719638756
0.3719638567
0.3719638004
0.3719636447
0.3719632505
0.371962359
0.3719638841
0.371963884
0.3719638842
0.3719638842
0.371963884
0.3719638837
0.3719638831
0.3719638803
0.3719638706
0.3719638391
0.3719637415
0.3719634577
0.3719627088
0.3719609655
0.3719638841
0.3719638839
0.3719638841
0.371963884
0.3719638839
0.3719638835
0.3719638825
0.3719638787
0.3719638654
0.371963819
0.3719636682
0.3719632111
0.3719619526
0.3719589206
0.3719638839
0.3719638839
0.3719638839
0.3719638839
0.371963884
0.3719638834
0.3719638823
0.3719638782
0.3719638627
0.3719638082
0.3719636269
0.3719630622
0.3719614543
0.3719574577
0.3719638841
0.3719638843
0.371963884
0.371963884
0.371963884
0.3719638837
0.3719638828
0.3719638789
0.3719638655
0.371963819
0.3719636681
0.3719632111
0.3719619524
0.3719589209
0.371963884
0.3719638842
0.3719638841
0.3719638839
0.3719638838
0.3719638837
0.3719638832
0.37196388
0.3719638706
0.3719638393
0.3719637415
0.3719634573
0.3719627087
0.3719609657
0.3719638839
0.3719638839
0.371963884
0.3719638839
0.3719638839
0.3719638837
0.3719638832
0.3719638812
0.3719638755
0.3719638568
0.3719638004
0.3719636446
0.3719632505
0.3719623591
0.3719638843
0.3719638842
0.3719638839
0.3719638841
0.371963884
0.3719638839
0.3719638835
0.3719638823
0.371963878
0.3719638655
0.37196383
0.371963735
0.3719635028
0.3719629892
)
;

boundaryField
{
    top
    {
        type            zeroGradient;
    }
    bottom
    {
        type            zeroGradient;
    }
    side-walls
    {
        type            zeroGradient;
    }
    inlet
    {
        type            zeroGradient;
    }
    outlet
    {
        type            zeroGradient;
    }
    procBoundary0to1
    {
        type            processor;
        value           nonuniform List<scalar> 
97
(
0.3719602134
0.3719606031
0.3719576284
0.3719519119
0.371943522
0.3719375207
0.371943522
0.3719519121
0.3719576287
0.3719602134
0.3719606031
0.3719606031
0.3719517909
0.3719492714
0.3719370811
0.3719108931
0.3718861365
0.3719108939
0.3719370821
0.3719517913
0.3719576289
0.3719575222
0.3719492714
0.3719492714
0.3718935527
0.3718624572
0.3717965618
0.3716692834
0.3717965643
0.3718935547
0.371937082
0.371951912
0.3719528875
0.3719340232
0.3718624572
0.3718624572
0.3714635259
0.3709259181
0.3708087842
0.3714635357
0.3717965641
0.3719108938
0.371943522
0.3719494033
0.3719180752
0.3717648109
0.3709259181
0.3709259181
0.3679852616
0.3709259201
0.3708087843
0.3716164725
0.3716692823
0.3718861358
0.3719375206
0.3719528873
0.3719340238
0.3718624612
0.3716164753
0.3709259201
0.3716164725
0.3716164725
0.371796562
0.3719239805
0.3719108927
0.3719435219
0.371957522
0.371949272
0.371923982
0.3718624612
0.3717648118
0.3718624615
0.3719239805
0.3719239805
0.3719370812
0.37195744
0.3719519118
0.3719606028
0.3719574398
0.371949272
0.3719340235
0.3719180753
0.3719340238
0.3719492721
0.37195744
0.37195744
0.3719576284
0.3719619772
0.3719619771
0.3719606028
0.3719575219
0.3719528872
0.3719494031
0.3719528875
0.3719575221
0.3719606031
0.3719619772
)
;
    }
}


// ************************************************************************* //
