/*--------------------------------*- C++ -*----------------------------------*\
| =========                 |                                                 |
| \\      /  F ield         | OpenFOAM: The Open Source CFD Toolbox           |
|  \\    /   O peration     | Version:  4.x                                   |
|   \\  /    A nd           | Web:      www.OpenFOAM.org                      |
|    \\/     M anipulation  |                                                 |
\*---------------------------------------------------------------------------*/
FoamFile
{
    version     2.0;
    format      ascii;
    class       volScalarField;
    location    "5000";
    object      CO2;
}
// * * * * * * * * * * * * * * * * * * * * * * * * * * * * * * * * * * * * * //

dimensions      [0 0 0 0 0 0 0];

internalField   nonuniform List<scalar> 
1175
(
0.006506719239
0.006506719269
0.006506719559
0.006506719489
0.006506719348
0.006506719347
0.006506720135
0.006506722456
0.006506727756
0.006506743701
0.006506790015
0.006506912181
0.006507212022
0.006507876431
0.006509185097
0.006506718747
0.00650671842
0.006506719099
0.006506719179
0.006506719581
0.006506719947
0.006506720751
0.006506722816
0.006506730672
0.006506755299
0.006506828058
0.006507029311
0.006507539272
0.006508691429
0.006510962723
0.006506718566
0.006506718472
0.006506718254
0.006506719295
0.006506719885
0.006506719903
0.006506721645
0.006506725126
0.006506737387
0.006506777773
0.006506904077
0.006507270574
0.006508239064
0.006510492464
0.006514946435
0.00650671893
0.006506718973
0.006506718997
0.006506719344
0.006506719966
0.006506720445
0.006506721146
0.00650672613
0.006506743401
0.006506803382
0.006506998372
0.00650758938
0.006509216809
0.006513137159
0.006520939933
0.006506718988
0.006506719341
0.006506718595
0.00650671939
0.006506719444
0.006506719469
0.006506721415
0.006506726787
0.006506746441
0.006506816559
0.006507051287
0.006507782003
0.006509861132
0.006515028102
0.006525444184
0.006506718987
0.006506719016
0.006506719713
0.006506719525
0.006506719347
0.006506720105
0.006506721373
0.006506725905
0.006506743678
0.006506803814
0.006506998446
0.006507589448
0.006509216882
0.006513136324
0.006520939187
0.006506719234
0.00650671867
0.006506719437
0.00650671938
0.00650671933
0.006506719936
0.006506720453
0.006506724397
0.00650673684
0.006506777059
0.006506903615
0.006507271116
0.006508238325
0.006510492549
0.006514946445
0.006506719248
0.006506719167
0.0065067186
0.006506719096
0.006506719052
0.006506719304
0.006506720331
0.006506722938
0.006506729984
0.006506754472
0.006506826861
0.006507028968
0.006507538438
0.006508691101
0.006510962229
0.006506718583
0.00650671859
0.006506718856
0.006506718447
0.006506718361
0.006506718539
0.006506719048
0.006506720764
0.006506726698
0.006506743051
0.006506789152
0.006506911886
0.006507212217
0.006507876687
0.006509185989
0.006506719029
0.00650671965
0.006506719715
0.006506719243
0.006506719953
0.006506719536
0.006506719985
0.00650672388
0.00650673098
0.006506754935
0.00650682782
0.006507028854
0.006507538915
0.006508691617
0.006506718538
0.00650671875
0.006506719228
0.006506718677
0.006506720082
0.006506720159
0.006506720868
0.006506724303
0.00650673606
0.006506775986
0.00650690132
0.006507268066
0.006508244773
0.006510531279
0.006515054229
0.006506718703
0.006506718799
0.006506719062
0.006506719513
0.0065067197
0.006506719968
0.006506721337
0.006506727297
0.006506747595
0.006506819721
0.006507060357
0.006507811707
0.006509938999
0.006515166382
0.006525615482
0.006506719293
0.006506719484
0.006506719435
0.006506719255
0.006506720463
0.006506720895
0.006506722045
0.006506731428
0.006506761861
0.006506875207
0.006507280513
0.006508630331
0.006512721223
0.006523418277
0.006545330917
0.006506719025
0.006506719469
0.006506719262
0.00650671926
0.006506719589
0.006506719407
0.006506722258
0.006506731057
0.006506767917
0.006506908276
0.006507422911
0.00650922289
0.006515017178
0.00653121781
0.006565949568
0.006506719464
0.006506719934
0.006506719761
0.006506719446
0.006506719303
0.00650672004
0.00650672267
0.006506729873
0.00650676077
0.006506874883
0.006507280025
0.006508630466
0.006512722069
0.006523417853
0.006545330003
0.00650671982
0.006506719341
0.006506719488
0.006506719651
0.00650671947
0.006506720003
0.006506721738
0.006506727153
0.006506747744
0.006506819752
0.006507060469
0.006507812069
0.006509938961
0.006515166254
0.006525614134
0.00650671877
0.006506718677
0.006506719452
0.006506718988
0.006506719785
0.006506719224
0.006506720149
0.00650672384
0.006506736015
0.006506776284
0.006506901633
0.006507268953
0.006508245199
0.006510530542
0.006515052996
0.006506718771
0.00650671867
0.00650671869
0.006506719066
0.006506718336
0.006506718698
0.006506719906
0.006506722208
0.006506730357
0.006506755128
0.006506828175
0.006507028764
0.006507538564
0.006508690764
0.006510962312
0.006506719532
0.00650671941
0.006506719146
0.006506719073
0.00650671955
0.006506719807
0.006506721491
0.006506725043
0.006506737312
0.006506777722
0.006506904602
0.006507271381
0.006508238849
0.006510493166
0.006506719118
0.00650671913
0.00650671914
0.006506719207
0.006506719316
0.006506720305
0.006506721717
0.006506726998
0.006506748186
0.0065068196
0.006507060792
0.006507811572
0.006509938738
0.00651516804
0.006506719279
0.006506719887
0.006506719303
0.006506719231
0.006506719612
0.006506719906
0.006506723
0.006506732345
0.006506769925
0.006506911446
0.006507426328
0.006509175817
0.006514574782
0.006528883829
0.006558321121
0.00650671932
0.006506719131
0.006506718911
0.006506719435
0.006506719774
0.006506720723
0.006506723829
0.006506738525
0.006506798966
0.006507042422
0.006507999413
0.006511560429
0.006523717986
0.006559440327
0.006637863021
0.006506720124
0.006506719993
0.006506719786
0.006506719697
0.006506720134
0.006506720428
0.00650672432
0.006506741925
0.006506815737
0.006507129801
0.006508432894
0.006513673065
0.006533469917
0.006599526991
0.006764101162
0.006506719945
0.006506719879
0.006506719626
0.006506719131
0.006506719315
0.006506720099
0.006506723123
0.006506738366
0.006506798892
0.006507042802
0.006508000282
0.006511560621
0.006523717559
0.006559437867
0.006637855901
0.006506719571
0.006506719563
0.006506719516
0.006506719664
0.006506718779
0.006506719238
0.006506722622
0.006506732587
0.006506769408
0.006506911274
0.006507426554
0.006509176037
0.006514573702
0.006528881614
0.00655831403
0.006506719435
0.006506719194
0.006506719095
0.006506718921
0.006506719158
0.006506719852
0.006506721013
0.006506726531
0.006506746671
0.006506818961
0.006507060296
0.006507811308
0.006509937727
0.006515166185
0.006525614133
0.006506718624
0.006506718914
0.006506719167
0.006506718872
0.006506719056
0.006506719384
0.006506720682
0.006506724138
0.006506736266
0.006506776944
0.006506903535
0.006507270733
0.006508238872
0.006510492327
0.006514946245
0.006506719475
0.00650671914
0.006506718748
0.006506718609
0.006506718553
0.006506719516
0.006506721027
0.006506726752
0.006506743567
0.006506803771
0.006506999052
0.00650758939
0.006509216586
0.006513136874
0.006506718298
0.006506719363
0.00650671898
0.006506718593
0.006506719002
0.006506719897
0.006506721766
0.006506730212
0.006506760899
0.006506875352
0.006507280863
0.006508630673
0.006512723169
0.006523421823
0.006506719462
0.006506719154
0.006506718597
0.00650671885
0.006506718809
0.006506720435
0.006506723428
0.006506737867
0.006506798403
0.006507042835
0.006507999612
0.006511560823
0.006523719074
0.006559446821
0.006506719014
0.006506719214
0.006506718487
0.006506718668
0.006506719281
0.006506720757
0.006506726365
0.006506749617
0.006506851589
0.006507305726
0.006509276838
0.006517573777
0.006550372941
0.00666433788
0.00695593108
0.006506719239
0.006506719659
0.006506719465
0.006506719332
0.006506719717
0.006506720531
0.006506726812
0.006506755715
0.006506887001
0.006507504098
0.00651042633
0.006524280606
0.006588824922
0.006870412658
0.007848623743
0.00650671952
0.006506718947
0.006506719815
0.006506718998
0.006506719256
0.006506720536
0.006506726495
0.00650674972
0.006506851957
0.006507306219
0.006509276587
0.006517572751
0.006550370885
0.006664327729
0.00695588723
0.006506719313
0.006506719045
0.006506719501
0.006506719096
0.006506719281
0.006506719495
0.006506723665
0.006506738005
0.006506798209
0.006507043627
0.00650799997
0.006511559676
0.006523717394
0.00655943867
0.006637856771
0.006506718975
0.006506718589
0.006506718535
0.006506718902
0.006506718939
0.006506719196
0.006506721565
0.00650673034
0.006506760864
0.006506875466
0.006507281225
0.00650863006
0.006512721722
0.006523418282
0.006545330076
0.006506719109
0.006506718849
0.006506718994
0.006506719264
0.006506719365
0.006506720171
0.006506720898
0.006506726151
0.006506743482
0.00650680318
0.006506998686
0.006507588915
0.006509216456
0.006513136381
0.006520938995
0.006506718833
0.006506719641
0.006506719064
0.006506719121
0.006506718733
0.006506719671
0.00650672163
0.00650672727
0.006506746905
0.006506818018
0.006507052247
0.006507782838
0.006509861109
0.006515029228
0.006506719388
0.006506719138
0.006506718966
0.006506719056
0.006506719034
0.006506720326
0.006506722922
0.006506732145
0.006506768153
0.00650690771
0.006507422823
0.006509222714
0.006515018836
0.006531223422
0.006506720347
0.006506720323
0.006506719336
0.006506719279
0.006506720444
0.006506720281
0.006506724243
0.006506740942
0.006506815448
0.00650712947
0.006508432812
0.006513673456
0.006533473672
0.006599544355
0.006506719208
0.006506719034
0.006506718817
0.006506719276
0.006506720283
0.006506721665
0.006506727396
0.006506756109
0.006506887278
0.006507504926
0.006510427583
0.006524282518
0.006588832569
0.006870463451
0.006506719895
0.006506719624
0.006506719408
0.006506718963
0.00650671894
0.006506721171
0.006506728615
0.006506763661
0.006506937547
0.006507823391
0.006512557192
0.006539349442
0.006701411334
0.00775599807
0.01517743472
0.006506719148
0.006506719612
0.00650671929
0.006506719326
0.006506720181
0.006506720953
0.006506727209
0.00650675549
0.006506886391
0.006507504269
0.006510427033
0.006524281227
0.006588827169
0.006870421002
0.007848630372
0.006506718657
0.006506718708
0.006506719291
0.006506718485
0.006506718988
0.006506719997
0.006506723827
0.006506741544
0.006506815542
0.006507129146
0.006508432617
0.006513673139
0.006533471007
0.006599530382
0.006764103969
0.006506719797
0.006506719203
0.00650671929
0.006506719304
0.006506719316
0.006506719706
0.006506721849
0.006506731354
0.006506768536
0.006506908179
0.006507422845
0.006509222904
0.006515017846
0.006531219139
0.006565951056
0.006506718781
0.00650671959
0.006506719526
0.006506719166
0.006506719149
0.006506719322
0.006506720595
0.006506726884
0.006506746616
0.006506816815
0.006507051204
0.006507782214
0.006509861262
0.00651502821
0.006525444852
0.006506719698
0.00650671901
0.006506718861
0.006506718725
0.006506719388
0.006506719459
0.006506720599
0.006506726058
0.006506743086
0.006506803648
0.006506998784
0.006507589693
0.00650921726
0.006513138389
0.006506719368
0.00650671893
0.00650671945
0.006506719768
0.006506719429
0.006506719715
0.006506722673
0.006506731022
0.006506760757
0.006506875174
0.006507280752
0.006508631176
0.006512723159
0.006523421679
0.006506718774
0.006506718635
0.006506718471
0.006506718803
0.006506719379
0.006506720564
0.006506724081
0.006506739167
0.006506798459
0.006507042472
0.006507999656
0.006511560546
0.006523719751
0.006559448177
0.006506720019
0.006506718775
0.006506718839
0.006506719214
0.006506720394
0.006506720873
0.00650672591
0.006506749701
0.006506853159
0.006507307095
0.006509277651
0.006517574968
0.006550376983
0.006664354817
0.006506719105
0.006506718999
0.006506719191
0.006506718659
0.006506719651
0.006506720288
0.006506727064
0.006506754981
0.006506887351
0.006507504407
0.006510427215
0.00652428231
0.006588834317
0.006870470108
0.006506718729
0.006506719157
0.006506719338
0.006506718911
0.006506719333
0.006506720816
0.006506725829
0.006506748847
0.006506851966
0.006507305568
0.006509277179
0.006517574178
0.00655037533
0.006664349926
0.006506719291
0.006506719124
0.006506719222
0.006506718993
0.006506719072
0.00650672006
0.006506723409
0.006506738571
0.006506799206
0.006507043168
0.006508000014
0.006511560992
0.006523719014
0.00655944286
0.006637871229
0.00650671904
0.006506719497
0.006506719393
0.006506719494
0.006506719196
0.006506720292
0.006506722268
0.006506730178
0.006506760671
0.006506875132
0.006507280613
0.006508630384
0.006512722589
0.006523419041
0.006545332099
0.006506718811
0.006506719377
0.006506719271
0.006506719376
0.006506719779
0.006506720108
0.006506720698
0.006506725317
0.006506742831
0.006506803472
0.006506998527
0.006507589805
0.006509217525
0.006513137243
0.006520940027
0.006506719609
0.006506719514
0.006506719703
0.006506719964
0.006506720556
0.006506720025
0.006506720477
0.006506724426
0.006506736794
0.006506777169
0.006506903675
0.00650727119
0.006508239477
0.006510493652
0.006506719375
0.006506719265
0.00650671902
0.006506719416
0.006506719833
0.006506720503
0.006506721903
0.00650672738
0.006506747031
0.006506819959
0.00650706052
0.006507811911
0.006509939847
0.006515168532
0.006506719289
0.006506719662
0.006506719357
0.006506719343
0.006506719839
0.006506720887
0.00650672333
0.006506732493
0.006506770168
0.006506912146
0.00650742689
0.00650917578
0.006514576027
0.006528886522
0.006506719856
0.006506719007
0.006506718916
0.00650671932
0.006506719204
0.006506720479
0.006506724708
0.006506738656
0.006506799212
0.006507043301
0.006508000496
0.006511561458
0.006523720316
0.00655944828
0.006506719735
0.006506720023
0.006506719681
0.006506719378
0.006506719534
0.006506720909
0.006506724542
0.006506741739
0.006506816149
0.006507129376
0.006508432922
0.006513673246
0.006533474216
0.006599544173
0.006506719557
0.006506719171
0.006506719142
0.006506719435
0.006506718979
0.006506720284
0.006506722928
0.00650673818
0.006506799116
0.006507042997
0.006508000536
0.00651156212
0.006523719993
0.006559446905
0.006506719022
0.006506719087
0.006506718601
0.006506718803
0.006506718997
0.006506720223
0.006506722576
0.006506732002
0.006506770119
0.006506912032
0.006507426736
0.0065091763
0.006514575438
0.00652888565
0.006506719346
0.006506718708
0.006506718967
0.006506719437
0.00650671929
0.00650672026
0.006506721257
0.006506726985
0.006506747794
0.00650681953
0.006507060139
0.006507811805
0.006509939136
0.006515167534
0.006525617063
0.006506719039
0.006506718933
0.006506719381
0.00650671931
0.006506719097
0.006506718947
0.006506720201
0.006506723952
0.006506736744
0.006506777084
0.006506903679
0.006507270785
0.006508239087
0.006510493286
0.006514948004
0.006506719587
0.006506719702
0.006506719877
0.006506719915
0.006506720365
0.006506720326
0.006506720896
0.006506722979
0.006506730829
0.006506754683
0.006506827149
0.006507028964
0.006507539417
0.006508691667
0.006506719825
0.006506719889
0.006506719553
0.006506719364
0.006506719029
0.006506719711
0.006506721138
0.006506724367
0.006506736271
0.006506775867
0.006506901502
0.00650726833
0.006508245626
0.006510531636
0.006506720333
0.00650671999
0.006506719103
0.006506719914
0.00650671994
0.006506720663
0.006506721744
0.00650672693
0.006506747581
0.006506819482
0.00650706068
0.006507811795
0.006509939355
0.006515168333
0.006506719289
0.006506719601
0.006506719158
0.006506719327
0.006506719815
0.006506720722
0.006506723036
0.006506730132
0.006506760832
0.006506875172
0.006507280499
0.006508630782
0.006512722549
0.006523421892
0.006506719218
0.006506719826
0.006506720007
0.006506719929
0.006506720057
0.006506720762
0.006506723107
0.006506731696
0.006506768217
0.006506907902
0.006507423155
0.006509223614
0.006515018818
0.00653122369
0.006506719728
0.006506719374
0.006506719764
0.006506720175
0.006506720171
0.006506720355
0.006506721913
0.006506730038
0.006506761422
0.006506875626
0.006507281206
0.0065086306
0.006512722579
0.006523421482
0.006506719987
0.006506719485
0.006506719426
0.006506720178
0.006506719609
0.006506720543
0.006506721881
0.006506727644
0.00650674735
0.006506819573
0.006507060313
0.006507811923
0.006509939682
0.006515167549
0.006506719488
0.006506719236
0.006506720187
0.006506719367
0.006506719736
0.006506719705
0.006506720391
0.006506724196
0.006506736302
0.006506776206
0.006506901343
0.006507268492
0.006508244893
0.006510531685
0.006506719459
0.006506719188
0.006506719136
0.006506719026
0.006506718663
0.006506719235
0.006506719615
0.006506722483
0.006506730539
0.006506754882
0.006506827089
0.006507028535
0.0065075389
0.006508690632
0.006510962995
0.006506719996
0.006506719948
0.006506719779
0.006506720385
0.006506719806
0.006506720113
0.00650672023
0.006506722162
0.00650672706
0.006506743212
0.006506789974
0.006506912609
0.006507212558
0.006507876636
0.006506719641
0.006506719781
0.006506719814
0.006506719817
0.006506719719
0.006506719307
0.00650672088
0.006506722572
0.006506730491
0.006506754684
0.006506827712
0.006507028929
0.006507538917
0.006508692437
0.00650671951
0.006506719766
0.006506719227
0.006506719258
0.00650671988
0.006506720162
0.006506720803
0.006506724335
0.006506737136
0.006506777958
0.006506903892
0.006507270778
0.006508239466
0.00651049437
0.006506719502
0.006506720062
0.006506719604
0.006506719863
0.006506720102
0.006506720653
0.006506721789
0.006506726681
0.006506743511
0.006506803382
0.006506998677
0.006507590079
0.006509217212
0.00651313874
0.006506720183
0.006506720201
0.006506720096
0.006506720044
0.006506719679
0.006506720841
0.006506722251
0.006506727343
0.006506747187
0.006506817508
0.006507052363
0.006507782261
0.006509861472
0.006515030559
0.006506719656
0.00650671914
0.006506719795
0.006506719787
0.006506719743
0.006506720183
0.006506721125
0.00650672631
0.006506743404
0.006506803596
0.006506998747
0.006507589975
0.00650921777
0.006513137986
0.006506719834
0.006506719356
0.006506719713
0.006506720125
0.006506720274
0.00650672039
0.006506720617
0.00650672532
0.006506737248
0.006506777494
0.006506903902
0.006507271795
0.006508239651
0.006510493878
0.00650672008
0.006506720092
0.006506719986
0.006506720073
0.006506719931
0.006506720261
0.006506721068
0.006506723688
0.006506730607
0.006506754524
0.006506827683
0.006507029332
0.006507538868
0.006508692074
0.006506719191
0.006506719452
0.006506720007
0.006506719465
0.006506719811
0.006506719839
0.006506720357
0.006506721923
0.006506727703
0.006506743626
0.006506789453
0.00650691231
0.006507212904
0.006507877008
)
;

boundaryField
{
    top
    {
        type            zeroGradient;
    }
    bottom
    {
        type            zeroGradient;
    }
    side-walls
    {
        type            zeroGradient;
    }
    inlet
    {
        type            zeroGradient;
    }
    outlet
    {
        type            zeroGradient;
    }
    procBoundary0to1
    {
        type            processor;
        value           nonuniform List<scalar> 
97
(
0.006511466723
0.006510962593
0.006514810012
0.00652220235
0.006533051816
0.00654081155
0.006533051825
0.006522201842
0.006514809489
0.006511466764
0.006510962593
0.006510962593
0.006522358516
0.006525616898
0.006541381011
0.006575243937
0.006607254353
0.00657524239
0.006541378759
0.00652235769
0.006514808924
0.006514946957
0.006525616898
0.006525616898
0.006597667356
0.006637874948
0.006723080727
0.006887648432
0.006723076184
0.006597663752
0.006541379068
0.006522202273
0.006520940166
0.006545333853
0.006637874948
0.006637874948
0.00715370142
0.007848785496
0.008000248882
0.007153682947
0.006723076417
0.006575242314
0.006533051773
0.006525445507
0.006565955089
0.006764127361
0.007848785496
0.007848785496
0.01165089405
0.007848781096
0.008000249759
0.006955930256
0.006887650755
0.006607255823
0.006540811665
0.006520940822
0.006545332854
0.006637866831
0.006955924839
0.007848781096
0.006955930256
0.006955930256
0.006723080604
0.006558321133
0.006575244935
0.006533051818
0.006514947558
0.006525615679
0.006558317889
0.006637866681
0.006764125513
0.006637866043
0.006558321133
0.006558321133
0.006541380794
0.00651505302
0.006522202693
0.00651096342
0.006515053647
0.006525615632
0.006545333691
0.006565954766
0.006545332861
0.006525615325
0.00651505302
0.00651505302
0.006514810055
0.006509185835
0.006509186164
0.006510963365
0.006514947678
0.006520940977
0.006525446118
0.006520940173
0.006514947233
0.006510962562
0.006509185835
)
;
    }
}


// ************************************************************************* //
