/*--------------------------------*- C++ -*----------------------------------*\
| =========                 |                                                 |
| \\      /  F ield         | OpenFOAM: The Open Source CFD Toolbox           |
|  \\    /   O peration     | Version:  4.x                                   |
|   \\  /    A nd           | Web:      www.OpenFOAM.org                      |
|    \\/     M anipulation  |                                                 |
\*---------------------------------------------------------------------------*/
FoamFile
{
    version     2.0;
    format      ascii;
    class       volScalarField;
    location    "5000";
    object      Cpv;
}
// * * * * * * * * * * * * * * * * * * * * * * * * * * * * * * * * * * * * * //

dimensions      [0 2 -2 -1 0 0 0];

internalField   nonuniform List<scalar> 
1175
(
1210.518968
1210.518957
1210.518943
1210.518949
1210.518954
1210.518955
1210.518956
1210.518942
1210.518939
1210.518951
1210.518947
1210.518956
1210.518966
1210.519017
1210.519107
1210.519114
1210.51913
1210.519133
1210.519117
1210.519116
1210.519107
1210.519118
1210.519124
1210.519128
1210.519106
1210.519123
1210.51914
1210.519169
1210.519225
1210.519386
1210.518625
1210.518618
1210.518624
1210.518643
1210.518628
1210.518631
1210.518621
1210.51864
1210.518628
1210.518644
1210.518649
1210.518677
1210.51875
1210.518913
1210.519177
1210.51861
1210.518614
1210.518602
1210.518607
1210.518604
1210.518611
1210.518635
1210.518627
1210.518656
1210.518655
1210.518646
1210.518687
1210.518777
1210.519029
1210.519519
1210.519449
1210.519447
1210.519434
1210.519427
1210.519417
1210.519428
1210.519444
1210.519452
1210.519475
1210.519469
1210.519498
1210.519551
1210.519672
1210.519994
1210.520652
1210.519518
1210.51952
1210.519518
1210.519511
1210.519501
1210.51951
1210.519497
1210.519502
1210.519506
1210.51951
1210.519521
1210.519555
1210.519668
1210.519915
1210.520425
1210.518967
1210.518981
1210.518971
1210.518984
1210.51897
1210.518996
1210.51899
1210.518974
1210.51898
1210.518971
1210.518986
1210.518993
1210.519086
1210.5192
1210.519483
1210.519061
1210.519056
1210.519064
1210.519062
1210.51906
1210.519031
1210.519032
1210.519032
1210.519035
1210.519042
1210.519052
1210.519055
1210.519092
1210.519151
1210.519281
1210.519457
1210.519452
1210.519447
1210.519458
1210.519471
1210.519486
1210.519485
1210.519488
1210.519468
1210.519457
1210.519444
1210.519445
1210.519458
1210.519492
1210.519577
1210.518774
1210.518784
1210.518784
1210.518794
1210.518787
1210.518776
1210.518787
1210.518759
1210.518773
1210.518795
1210.518815
1210.518834
1210.518865
1210.51892
1210.519298
1210.519285
1210.519292
1210.51929
1210.519248
1210.519247
1210.519228
1210.51921
1210.519207
1210.519224
1210.519231
1210.519247
1210.519315
1210.519445
1210.51974
1210.519466
1210.519463
1210.519441
1210.519432
1210.519431
1210.519443
1210.519436
1210.51941
1210.519425
1210.519405
1210.519454
1210.519505
1210.519642
1210.519978
1210.520647
1210.518344
1210.518361
1210.51838
1210.518385
1210.518347
1210.518358
1210.518352
1210.518349
1210.518351
1210.518368
1210.518404
1210.518492
1210.518794
1210.519446
1210.520824
1210.51881
1210.518794
1210.518789
1210.518799
1210.518831
1210.518861
1210.518852
1210.518857
1210.518881
1210.518861
1210.518859
1210.518989
1210.519352
1210.520405
1210.522593
1210.518419
1210.518414
1210.518416
1210.51845
1210.518483
1210.518472
1210.518471
1210.518476
1210.518472
1210.518472
1210.518513
1210.518594
1210.518835
1210.519514
1210.520886
1210.51974
1210.519751
1210.519735
1210.519734
1210.519704
1210.51971
1210.519716
1210.519711
1210.519719
1210.519733
1210.519708
1210.51974
1210.519883
1210.520203
1210.520882
1210.518345
1210.518363
1210.518318
1210.518329
1210.518303
1210.518306
1210.518305
1210.518304
1210.518315
1210.518318
1210.518354
1210.51837
1210.518427
1210.518616
1210.5189
1210.519589
1210.519598
1210.519621
1210.519609
1210.519612
1210.519627
1210.51962
1210.5196
1210.519571
1210.519575
1210.519581
1210.519581
1210.51961
1210.519667
1210.51981
1210.518853
1210.518844
1210.518844
1210.51884
1210.518839
1210.518839
1210.518826
1210.51882
1210.51884
1210.518844
1210.518832
1210.518872
1210.51896
1210.519127
1210.518808
1210.51883
1210.518803
1210.51881
1210.518768
1210.518773
1210.518736
1210.51874
1210.518751
1210.518717
1210.518756
1210.518804
1210.518928
1210.519218
1210.518565
1210.51854
1210.518563
1210.51855
1210.51857
1210.518557
1210.518549
1210.518564
1210.518566
1210.518567
1210.518583
1210.518705
1210.519055
1210.519963
1210.521834
1210.519198
1210.519202
1210.519211
1210.519206
1210.519184
1210.519176
1210.519189
1210.519209
1210.519243
1210.519268
1210.519326
1210.51955
1210.520304
1210.52254
1210.527514
1210.517951
1210.517955
1210.517974
1210.517973
1210.517968
1210.517978
1210.51796
1210.517966
1210.517963
1210.517993
1210.518094
1210.518428
1210.519699
1210.523887
1210.534349
1210.518768
1210.518771
1210.518778
1210.518798
1210.518829
1210.518858
1210.518842
1210.518849
1210.518833
1210.518845
1210.518885
1210.519121
1210.519911
1210.522182
1210.527158
1210.51815
1210.518146
1210.518143
1210.51813
1210.518145
1210.518143
1210.518114
1210.518125
1210.518145
1210.518165
1210.51819
1210.518313
1210.518676
1210.519564
1210.52144
1210.520142
1210.520152
1210.520167
1210.52015
1210.520156
1210.520148
1210.520153
1210.520173
1210.520181
1210.520184
1210.5202
1210.520225
1210.520381
1210.52069
1210.521346
1210.51851
1210.518509
1210.518486
1210.518478
1210.518481
1210.518485
1210.518483
1210.518473
1210.518473
1210.518477
1210.518493
1210.518521
1210.518586
1210.518731
1210.519032
1210.518926
1210.518921
1210.518924
1210.518933
1210.518958
1210.518947
1210.518926
1210.518947
1210.518959
1210.51895
1210.518954
1210.518999
1210.5191
1210.519359
1210.519322
1210.519327
1210.519348
1210.519357
1210.519368
1210.51934
1210.519351
1210.519358
1210.519351
1210.519353
1210.519389
1210.519478
1210.519738
1210.520395
1210.518738
1210.518748
1210.518748
1210.518763
1210.518759
1210.518758
1210.518746
1210.518748
1210.518746
1210.518744
1210.518785
1210.519015
1210.519774
1210.522015
1210.519329
1210.519303
1210.519319
1210.519335
1210.519332
1210.519308
1210.519298
1210.519281
1210.519272
1210.519312
1210.519437
1210.519993
1210.522071
1210.529308
1210.547805
1210.519219
1210.519227
1210.519214
1210.5192
1210.519191
1210.519206
1210.519227
1210.519214
1210.519229
1210.519264
1210.519451
1210.520316
1210.524395
1210.542251
1210.603621
1210.518447
1210.518469
1210.51845
1210.518466
1210.518462
1210.51847
1210.518457
1210.518447
1210.518467
1210.518486
1210.518614
1210.519155
1210.52124
1210.528482
1210.54694
1210.519293
1210.519261
1210.519285
1210.519294
1210.519298
1210.519277
1210.519287
1210.519273
1210.519293
1210.519323
1210.519411
1210.519653
1210.520403
1210.522651
1210.527613
1210.518682
1210.518682
1210.51869
1210.5187
1210.518706
1210.518717
1210.51869
1210.5187
1210.518708
1210.518705
1210.518725
1210.518842
1210.519122
1210.519807
1210.521215
1210.518873
1210.518874
1210.518886
1210.518861
1210.518845
1210.518866
1210.518875
1210.518865
1210.518869
1210.518888
1210.518872
1210.518921
1210.519011
1210.519262
1210.51976
1210.518879
1210.518852
1210.518861
1210.518866
1210.518888
1210.518882
1210.518867
1210.518848
1210.51885
1210.518836
1210.518848
1210.518869
1210.51902
1210.51936
1210.518441
1210.51845
1210.518463
1210.518471
1210.518465
1210.51845
1210.518432
1210.518478
1210.518485
1210.518491
1210.518524
1210.518639
1210.51899
1210.520018
1210.518629
1210.518655
1210.518668
1210.518649
1210.518654
1210.518705
1210.518693
1210.518709
1210.518707
1210.518732
1210.518823
1210.519158
1210.520406
1210.524603
1210.519357
1210.519346
1210.51934
1210.51933
1210.519305
1210.519282
1210.519268
1210.519267
1210.519288
1210.519327
1210.519473
1210.520346
1210.524466
1210.542321
1210.519449
1210.519451
1210.519449
1210.519484
1210.519512
1210.519513
1210.519502
1210.519514
1210.519514
1210.519586
1210.519892
1210.521593
1210.531858
1210.598685
1210.182179
1210.518954
1210.518954
1210.518972
1210.518983
1210.518977
1210.518983
1210.518989
1210.519024
1210.519026
1210.519073
1210.519264
1210.520126
1210.524198
1210.542054
1210.603389
1210.519381
1210.519391
1210.519385
1210.519386
1210.51939
1210.519378
1210.519363
1210.519381
1210.51935
1210.519357
1210.519423
1210.519753
1210.521029
1210.525194
1210.535645
1210.518882
1210.518894
1210.518888
1210.518883
1210.5189
1210.518909
1210.518922
1210.518918
1210.518875
1210.518901
1210.518936
1210.519052
1210.519417
1210.520437
1210.52264
1210.519565
1210.519564
1210.519552
1210.519565
1210.519547
1210.519539
1210.519551
1210.519548
1210.519555
1210.519545
1210.519563
1210.519589
1210.519684
1210.520031
1210.520692
1210.519193
1210.519193
1210.519195
1210.519197
1210.519195
1210.519195
1210.519185
1210.519205
1210.519212
1210.519194
1210.519214
1210.519248
1210.519346
1210.519586
1210.518211
1210.518212
1210.518209
1210.518178
1210.518173
1210.518164
1210.518156
1210.51816
1210.518191
1210.518209
1210.518214
1210.518296
1210.518562
1210.519218
1210.519031
1210.519031
1210.51903
1210.519017
1210.519027
1210.519042
1210.519028
1210.518994
1210.519016
1210.519047
1210.51911
1210.519344
1210.520111
1210.522361
1210.518514
1210.518525
1210.518535
1210.518514
1210.518513
1210.518465
1210.518472
1210.518454
1210.518467
1210.518491
1210.518607
1210.519159
1210.521246
1210.528462
1210.519229
1210.519246
1210.519254
1210.519256
1210.51925
1210.519254
1210.51927
1210.519269
1210.519238
1210.519313
1210.51947
1210.520376
1210.524471
1210.54232
1210.519531
1210.519523
1210.519508
1210.519518
1210.519517
1210.519478
1210.51947
1210.519466
1210.51949
1210.519483
1210.5196
1210.52012
1210.522212
1210.529453
1210.518084
1210.518087
1210.518103
1210.5181
1210.518111
1210.5181
1210.518098
1210.518114
1210.518112
1210.518131
1210.518198
1210.518412
1210.519182
1210.521436
1210.526401
1210.519173
1210.519173
1210.519158
1210.519146
1210.519161
1210.519167
1210.519147
1210.519133
1210.519164
1210.519185
1210.519193
1210.51927
1210.51951
1210.520195
1210.521571
1210.519467
1210.519454
1210.519449
1210.519463
1210.519455
1210.519457
1210.519466
1210.519446
1210.519471
1210.519468
1210.51947
1210.519486
1210.519576
1210.519805
1210.520284
1210.519215
1210.519208
1210.519199
1210.51921
1210.519216
1210.51922
1210.519218
1210.5192
1210.519218
1210.519215
1210.519226
1210.519235
1210.51927
1210.519419
1210.519562
1210.519592
1210.51959
1210.51957
1210.519544
1210.519567
1210.519543
1210.51956
1210.519578
1210.51957
1210.519622
1210.519647
1210.519784
1210.520092
1210.519192
1210.519188
1210.519199
1210.519202
1210.519216
1210.519218
1210.519197
1210.519194
1210.519184
1210.519206
1210.519212
1210.51933
1210.519677
1210.520597
1210.519663
1210.519674
1210.519678
1210.519671
1210.519679
1210.519683
1210.519663
1210.519673
1210.519664
1210.519674
1210.519728
1210.519956
1210.520718
1210.522952
1210.518484
1210.518493
1210.518493
1210.518492
1210.518493
1210.518503
1210.5185
1210.518511
1210.518526
1210.518571
1210.518662
1210.518987
1210.520248
1210.52443
1210.518964
1210.518948
1210.518947
1210.518955
1210.518939
1210.518975
1210.518981
1210.518941
1210.518927
1210.518928
1210.518976
1210.51921
1210.520005
1210.52227
1210.519324
1210.519335
1210.519359
1210.519377
1210.51939
1210.519372
1210.519354
1210.519347
1210.519362
1210.519376
1210.519386
1210.519495
1210.51984
1210.520764
1210.518653
1210.518659
1210.518653
1210.518634
1210.518642
1210.518634
1210.518642
1210.518642
1210.518633
1210.51862
1210.51864
1210.518693
1210.51885
1210.519196
1210.519877
1210.518953
1210.51893
1210.51894
1210.518946
1210.518953
1210.518971
1210.518983
1210.518971
1210.518972
1210.518994
1210.519007
1210.519024
1210.519079
1210.519231
1210.519493
1210.518309
1210.51829
1210.518297
1210.51831
1210.518296
1210.518311
1210.518329
1210.51832
1210.518329
1210.518344
1210.518337
1210.518356
1210.518384
1210.518458
1210.518395
1210.518388
1210.518394
1210.5184
1210.518406
1210.518408
1210.518403
1210.518402
1210.518426
1210.518446
1210.518442
1210.518486
1210.518551
1210.518694
1210.519215
1210.519216
1210.519245
1210.519246
1210.51924
1210.519224
1210.519213
1210.519204
1210.519216
1210.519229
1210.51922
1210.519276
1210.519408
1210.519733
1210.518751
1210.518751
1210.518772
1210.518748
1210.51876
1210.518747
1210.518725
1210.518717
1210.518718
1210.518725
1210.518753
1210.518826
1210.519084
1210.519736
1210.518957
1210.518957
1210.518947
1210.518948
1210.518965
1210.518956
1210.518953
1210.518963
1210.519
1210.518988
1210.51903
1210.519154
1210.519521
1210.520547
1210.518499
1210.518495
1210.518462
1210.518444
1210.518429
1210.518431
1210.518429
1210.518443
1210.518428
1210.518437
1210.518473
1210.518579
1210.518852
1210.519522
1210.518685
1210.518685
1210.518688
1210.518689
1210.5187
1210.518668
1210.518721
1210.518737
1210.518717
1210.518733
1210.518721
1210.518753
1210.518855
1210.519193
1210.518724
1210.518723
1210.518724
1210.518732
1210.518716
1210.518753
1210.518752
1210.518754
1210.518753
1210.51876
1210.518774
1210.518785
1210.518858
1210.51898
1210.519167
1210.51917
1210.519174
1210.51918
1210.519175
1210.519159
1210.519159
1210.519175
1210.519172
1210.519176
1210.519201
1210.519221
1210.51923
1210.519317
1210.519436
1210.519197
1210.519206
1210.519182
1210.519187
1210.519192
1210.519182
1210.519188
1210.519194
1210.519179
1210.519179
1210.519193
1210.519191
1210.519221
1210.519272
1210.51906
1210.519043
1210.519053
1210.519043
1210.519037
1210.519048
1210.51903
1210.519053
1210.519067
1210.519088
1210.51907
1210.519068
1210.519087
1210.519138
1210.519262
1210.519254
1210.519249
1210.519253
1210.51924
1210.519232
1210.519246
1210.519241
1210.519257
1210.519227
1210.519235
1210.519265
1210.519315
1210.519452
1210.51811
1210.518112
1210.518115
1210.518125
1210.518116
1210.518106
1210.518115
1210.518137
1210.518169
1210.518184
1210.518202
1210.51824
1210.51835
1210.518583
1210.518217
1210.518216
1210.518205
1210.518205
1210.518202
1210.518191
1210.518196
1210.518191
1210.518197
1210.518188
1210.518203
1210.518238
1210.518357
1210.518677
1210.518539
1210.518534
1210.518526
1210.518539
1210.518536
1210.51852
1210.518535
1210.518534
1210.518558
1210.518546
1210.518562
1210.518619
1210.518725
1210.519
1210.51901
1210.519017
1210.519025
1210.519007
1210.518987
1210.51898
1210.518988
1210.518961
1210.518972
1210.518975
1210.518992
1210.518996
1210.519057
1210.519193
1210.518596
1210.5186
1210.518601
1210.518615
1210.518626
1210.518628
1210.51863
1210.518639
1210.518657
1210.518677
1210.518663
1210.518679
1210.518723
1210.518803
1210.518895
1210.518888
1210.518869
1210.518878
1210.518867
1210.518853
1210.518868
1210.518861
1210.518867
1210.518864
1210.518886
1210.518875
1210.518898
1210.518927
)
;

boundaryField
{
    top
    {
        type            calculated;
        value           nonuniform List<scalar> 
134
(
1210.519457
1210.519589
1210.51851
1210.518873
1210.519565
1210.519467
1210.518953
1210.519167
1210.518895
1210.519452
1210.519598
1210.518509
1210.518874
1210.519564
1210.519454
1210.51893
1210.51917
1210.518888
1210.519447
1210.519621
1210.518486
1210.518886
1210.519552
1210.519449
1210.51894
1210.519174
1210.518869
1210.519458
1210.519609
1210.518478
1210.518861
1210.519565
1210.519463
1210.518946
1210.51918
1210.518878
1210.519471
1210.519612
1210.518481
1210.518845
1210.519547
1210.519455
1210.518953
1210.519175
1210.518867
1210.519486
1210.519627
1210.518485
1210.518866
1210.519539
1210.519457
1210.518971
1210.519159
1210.518853
1210.519485
1210.51962
1210.518483
1210.518875
1210.519551
1210.519466
1210.518983
1210.519159
1210.518868
1210.519488
1210.5196
1210.518473
1210.518865
1210.519548
1210.519446
1210.518971
1210.519175
1210.518861
1210.519468
1210.519571
1210.518473
1210.518869
1210.519555
1210.519471
1210.518972
1210.519172
1210.518867
1210.519457
1210.519575
1210.518477
1210.518888
1210.519545
1210.519468
1210.518994
1210.519176
1210.518864
1210.519444
1210.519581
1210.518493
1210.518872
1210.519563
1210.51947
1210.519007
1210.519201
1210.518886
1210.519445
1210.519581
1210.518521
1210.518921
1210.519589
1210.519486
1210.519024
1210.519221
1210.518875
1210.519458
1210.51961
1210.518586
1210.519011
1210.519684
1210.519576
1210.519079
1210.51923
1210.518898
1210.519492
1210.519667
1210.518731
1210.519262
1210.520031
1210.519805
1210.519231
1210.519317
1210.518927
1210.519577
1210.51981
1210.519032
1210.51976
1210.520692
1210.520284
1210.519493
1210.519436
)
;
    }
    bottom
    {
        type            calculated;
        value           nonuniform List<scalar> 
127
(
1210.518968
1210.518774
1210.518853
1210.518926
1210.518879
1210.519193
1210.519215
1210.518309
1210.519197
1210.518957
1210.518784
1210.518844
1210.518921
1210.518852
1210.519193
1210.519208
1210.51829
1210.519206
1210.518943
1210.518784
1210.518844
1210.518924
1210.518861
1210.519195
1210.519199
1210.518297
1210.519182
1210.518949
1210.518794
1210.51884
1210.518933
1210.518866
1210.519197
1210.51921
1210.51831
1210.519187
1210.518954
1210.518787
1210.518839
1210.518958
1210.518888
1210.519195
1210.519216
1210.518296
1210.519192
1210.518955
1210.518776
1210.518839
1210.518947
1210.518882
1210.519195
1210.51922
1210.518311
1210.519182
1210.518956
1210.518787
1210.518826
1210.518926
1210.518867
1210.519185
1210.519218
1210.518329
1210.519188
1210.518942
1210.518759
1210.51882
1210.518947
1210.518848
1210.519205
1210.5192
1210.51832
1210.519194
1210.518939
1210.518773
1210.51884
1210.518959
1210.51885
1210.519212
1210.519218
1210.518329
1210.519179
1210.518951
1210.518795
1210.518844
1210.51895
1210.518836
1210.519194
1210.519215
1210.518344
1210.519179
1210.518947
1210.518815
1210.518832
1210.518954
1210.518848
1210.519214
1210.519226
1210.518337
1210.519193
1210.518956
1210.518834
1210.518872
1210.518999
1210.518869
1210.519248
1210.519235
1210.518356
1210.519191
1210.518966
1210.518865
1210.51896
1210.5191
1210.51902
1210.519346
1210.51927
1210.518384
1210.519221
1210.519017
1210.51892
1210.519127
1210.519359
1210.51936
1210.519586
1210.519419
1210.518458
1210.519272
1210.519107
)
;
    }
    side-walls
    {
        type            calculated;
        value           nonuniform List<scalar> 
261
(
1210.518968
1210.519114
1210.518625
1210.51861
1210.519449
1210.519518
1210.518967
1210.519061
1210.519457
1210.518957
1210.51913
1210.518618
1210.518614
1210.519447
1210.51952
1210.518981
1210.519056
1210.519452
1210.518943
1210.519133
1210.518624
1210.518602
1210.519434
1210.519518
1210.518971
1210.519064
1210.519447
1210.518949
1210.519117
1210.518643
1210.518607
1210.519427
1210.519511
1210.518984
1210.519062
1210.519458
1210.518954
1210.519116
1210.518628
1210.518604
1210.519417
1210.519501
1210.51897
1210.51906
1210.519471
1210.518955
1210.519107
1210.518631
1210.518611
1210.519428
1210.51951
1210.518996
1210.519031
1210.519486
1210.518956
1210.519118
1210.518621
1210.518635
1210.519444
1210.519497
1210.51899
1210.519032
1210.519485
1210.518942
1210.519124
1210.51864
1210.518627
1210.519452
1210.519502
1210.518974
1210.519032
1210.519488
1210.518939
1210.519128
1210.518628
1210.518656
1210.519475
1210.519506
1210.51898
1210.519035
1210.519468
1210.518951
1210.519106
1210.518644
1210.518655
1210.519469
1210.51951
1210.518971
1210.519042
1210.519457
1210.518947
1210.519123
1210.518649
1210.518646
1210.519498
1210.519521
1210.518986
1210.519052
1210.519444
1210.518956
1210.51914
1210.518677
1210.518687
1210.519551
1210.519555
1210.518993
1210.519055
1210.519445
1210.518966
1210.519169
1210.51875
1210.518777
1210.519672
1210.519668
1210.519086
1210.519092
1210.519458
1210.519017
1210.519225
1210.518913
1210.519029
1210.519994
1210.519915
1210.5192
1210.519151
1210.519492
1210.519107
1210.519386
1210.519177
1210.519519
1210.520652
1210.520425
1210.519483
1210.519281
1210.519577
1210.519197
1210.51906
1210.519262
1210.51811
1210.518217
1210.518539
1210.51901
1210.518596
1210.518895
1210.519206
1210.519043
1210.519254
1210.518112
1210.518216
1210.518534
1210.519017
1210.5186
1210.518888
1210.519182
1210.519053
1210.519249
1210.518115
1210.518205
1210.518526
1210.519025
1210.518601
1210.518869
1210.519187
1210.519043
1210.519253
1210.518125
1210.518205
1210.518539
1210.519007
1210.518615
1210.518878
1210.519192
1210.519037
1210.51924
1210.518116
1210.518202
1210.518536
1210.518987
1210.518626
1210.518867
1210.519182
1210.519048
1210.519232
1210.518106
1210.518191
1210.51852
1210.51898
1210.518628
1210.518853
1210.519188
1210.51903
1210.519246
1210.518115
1210.518196
1210.518535
1210.518988
1210.51863
1210.518868
1210.519194
1210.519053
1210.519241
1210.518137
1210.518191
1210.518534
1210.518961
1210.518639
1210.518861
1210.519179
1210.519067
1210.519257
1210.518169
1210.518197
1210.518558
1210.518972
1210.518657
1210.518867
1210.519179
1210.519088
1210.519227
1210.518184
1210.518188
1210.518546
1210.518975
1210.518677
1210.518864
1210.519193
1210.51907
1210.519235
1210.518202
1210.518203
1210.518562
1210.518992
1210.518663
1210.518886
1210.519191
1210.519068
1210.519265
1210.51824
1210.518238
1210.518619
1210.518996
1210.518679
1210.518875
1210.519221
1210.519087
1210.519315
1210.51835
1210.518357
1210.518725
1210.519057
1210.518723
1210.518898
1210.519272
1210.519138
1210.519452
1210.518583
1210.518677
1210.519
1210.519193
1210.518803
1210.518927
)
;
    }
    inlet
    {
        type            calculated;
        value           nonuniform List<scalar> 
81
(
1210.518968
1210.519114
1210.518625
1210.51861
1210.519449
1210.519518
1210.518967
1210.519061
1210.519457
1210.518774
1210.519298
1210.519466
1210.518344
1210.51881
1210.518419
1210.51974
1210.518345
1210.519589
1210.518853
1210.518808
1210.518565
1210.519198
1210.517951
1210.518768
1210.51815
1210.520142
1210.51851
1210.518926
1210.519322
1210.518738
1210.519329
1210.519219
1210.518447
1210.519293
1210.518682
1210.518873
1210.518879
1210.518441
1210.518629
1210.519357
1210.519449
1210.518954
1210.519381
1210.518882
1210.519565
1210.519193
1210.518211
1210.519031
1210.518514
1210.519229
1210.519531
1210.518084
1210.519173
1210.519467
1210.519215
1210.519562
1210.519192
1210.519663
1210.518484
1210.518964
1210.519324
1210.518653
1210.518953
1210.518309
1210.518395
1210.519215
1210.518751
1210.518957
1210.518499
1210.518685
1210.518724
1210.519167
1210.519197
1210.51906
1210.519262
1210.51811
1210.518217
1210.518539
1210.51901
1210.518596
1210.518895
)
;
    }
    outlet
    {
        type            calculated;
        value           nonuniform 0();
    }
    procBoundary0to1
    {
        type            processor;
        value           nonuniform List<scalar> 
97
(
1210.519228
1210.519067
1210.51961
1210.519626
1210.520274
1210.521608
1210.521209
1210.519957
1210.519542
1210.519723
1210.519067
1210.519067
1210.520199
1210.519906
1210.521665
1210.522769
1210.525242
1210.522781
1210.521874
1210.51937
1210.520045
1210.519388
1210.519906
1210.519906
1210.524343
1210.526963
1210.532903
1210.542169
1210.532555
1210.523952
1210.52237
1210.519486
1210.51982
1210.5218
1210.526963
1210.526963
1210.56035
1210.603687
1210.613226
1210.559482
1210.533053
1210.523109
1210.520508
1210.520018
1210.522201
1210.53506
1210.603687
1210.603687
1209.959605
1210.603688
1210.612988
1210.547939
1210.543479
1210.525248
1210.521637
1210.520083
1210.520624
1210.527298
1210.546972
1210.603688
1210.547939
1210.547939
1210.531784
1210.522631
1210.523478
1210.521058
1210.519696
1210.520778
1210.522473
1210.527935
1210.534867
1210.527232
1210.522631
1210.522631
1210.5209
1210.519257
1210.51995
1210.518602
1210.518985
1210.520367
1210.521164
1210.522752
1210.520914
1210.519873
1210.519257
1210.519257
1210.519699
1210.519037
1210.519346
1210.519283
1210.519752
1210.519058
1210.519345
1210.519479
1210.51948
1210.518923
1210.519037
)
;
    }
}


// ************************************************************************* //
