/*--------------------------------*- C++ -*----------------------------------*\
| =========                 |                                                 |
| \\      /  F ield         | OpenFOAM: The Open Source CFD Toolbox           |
|  \\    /   O peration     | Version:  4.x                                   |
|   \\  /    A nd           | Web:      www.OpenFOAM.org                      |
|    \\/     M anipulation  |                                                 |
\*---------------------------------------------------------------------------*/
FoamFile
{
    version     2.0;
    format      ascii;
    class       volScalarField;
    location    "5000";
    object      molarConc;
}
// * * * * * * * * * * * * * * * * * * * * * * * * * * * * * * * * * * * * * //

dimensions      [0 -3 0 0 1 0 0];

internalField   nonuniform List<scalar> 
1175
(
9.963275963
9.963276561
9.963277309
9.963277011
9.963276705
9.963276674
9.963276635
9.963277407
9.963277573
9.963276965
9.963277337
9.963277289
9.963277791
9.963277285
9.963276905
9.963267932
9.96326709
9.963266938
9.963267775
9.963267868
9.963268356
9.963267744
9.963267429
9.963267222
9.963268519
9.963267813
9.963267586
9.963267809
9.963268738
9.963267753
9.963294741
9.963295107
9.963294772
9.963293733
9.963294564
9.963294404
9.963294936
9.963293912
9.963294645
9.963293917
9.963294073
9.963293783
9.963293154
9.963292068
9.963293043
9.963295568
9.963295359
9.96329601
9.963295712
9.963295901
9.96329551
9.963294207
9.963294669
9.963293099
9.963293395
9.963294534
9.963294361
9.963295082
9.963294886
9.963295104
9.963249619
9.963249705
9.963250431
9.963250798
9.963251366
9.963250755
9.963249872
9.963249472
9.963248293
9.96324884
9.963248097
9.96324769
9.963248272
9.963248593
9.963248685
9.963245835
9.963245744
9.963245823
9.963246237
9.963246738
9.963246273
9.963247004
9.963246733
9.963246558
9.963246569
9.963246616
9.963246822
9.963246251
9.96324635
9.963245502
9.963276024
9.963275252
9.963275775
9.963275098
9.963275866
9.963274419
9.963274752
9.963275661
9.963275378
9.963275987
9.963275591
9.963276468
9.963274736
9.963276329
9.963276302
9.963270852
9.963271149
9.963270695
9.963270777
9.963270913
9.963272483
9.963272436
9.963272474
9.963272341
9.963271997
9.963271717
9.963272252
9.963272009
9.963272743
9.963273517
9.963249169
9.963249464
9.963249726
9.963249088
9.963248415
9.963247602
9.963247635
9.96324747
9.9632486
9.963249271
9.963250108
9.963250498
9.963250821
9.963251285
9.963251136
9.963286602
9.963286033
9.963286023
9.963285505
9.963285863
9.963286447
9.963285879
9.963287414
9.963286646
9.963285523
9.963284731
9.963284354
9.963284422
9.963285403
9.963257858
9.963258583
9.963258178
9.963258298
9.963260611
9.963260645
9.963261727
9.963262728
9.963262898
9.963262118
9.963262153
9.963262554
9.963262247
9.963263052
9.963262572
9.963248657
9.963248837
9.963250027
9.963250518
9.963250601
9.963249959
9.963250326
9.963251794
9.963251025
9.963252369
9.963250522
9.963250357
9.963250198
9.963249917
9.963249534
9.963310115
9.96330921
9.963308182
9.963307878
9.963309958
9.96330938
9.963309695
9.963309898
9.963309895
9.963309329
9.963308791
9.963308654
9.963306328
9.963307704
9.96330822
9.963284608
9.963285482
9.963285778
9.96328521
9.96328346
9.963281826
9.963282338
9.963282066
9.963280864
9.963282488
9.96328438
9.963283494
9.96328369
9.963282254
9.963282902
9.963306035
9.963306317
9.963306188
9.963304323
9.963302515
9.963303114
9.963303184
9.963302959
9.963303252
9.963303636
9.963302843
9.963303091
9.963304063
9.963303954
9.963304847
9.963233693
9.963233039
9.963233936
9.963234006
9.96323565
9.963235328
9.963235004
9.96323527
9.96323489
9.963234418
9.963236599
9.963237477
9.96323701
9.963237585
9.963236656
9.963310075
9.963309094
9.963311554
9.963310923
9.963312389
9.963312218
9.963312248
9.96331231
9.96331179
9.963311756
9.96331019
9.963310602
9.963310894
9.963308454
9.963308569
9.963241932
9.963241452
9.963240205
9.963240841
9.963240691
9.963239858
9.963240237
9.963241337
9.963242961
9.963242807
9.963242756
9.96324344
9.963243639
9.963244512
9.963244538
9.963282263
9.96328273
9.963282732
9.963282952
9.963283022
9.963283008
9.963283711
9.963284085
9.963283036
9.963282928
9.963284037
9.963283123
9.963281666
9.963280307
9.96328469
9.96328353
9.963284964
9.963284596
9.96328688
9.96328661
9.963288658
9.96328846
9.963287912
9.963290052
9.963288749
9.963288701
9.963289313
9.963291566
9.963297996
9.963299369
9.963298154
9.963298848
9.963297772
9.963298484
9.963298935
9.963298144
9.963298153
9.96329859
9.9632995
9.963298853
9.96329845
9.963298347
9.963297968
9.96326333
9.963263113
9.963262615
9.963262919
9.963264101
9.963264566
9.963263882
9.963262801
9.963261142
9.963260638
9.963260764
9.96326088
9.96326176
9.963263173
9.963262796
9.963331649
9.963331409
9.963330387
9.963330451
9.96333071
9.963330188
9.963331156
9.963330889
9.963331344
9.963330799
9.963329765
9.963329656
9.9633287
9.963328503
9.963326349
9.96328689
9.963286738
9.963286346
9.963285258
9.963283571
9.96328196
9.963282842
9.963282547
9.963283609
9.963283834
9.963284917
9.963284362
9.963283293
9.963282804
9.963282298
9.963320726
9.963320994
9.963321146
9.963321827
9.963321024
9.963321158
9.96332274
9.963322157
9.963321193
9.963320604
9.963321013
9.963320333
9.963319188
9.963320192
9.963319549
9.963211625
9.963211106
9.963210307
9.963211194
9.963210902
9.963211314
9.963211032
9.963209997
9.963209626
9.963209695
9.963209674
9.963210884
9.963209721
9.963210932
9.96321125
9.963301028
9.963301062
9.963302338
9.963302809
9.963302643
9.963302388
9.963302491
9.963303093
9.963303126
9.963303025
9.963302617
9.963302327
9.963302143
9.963302044
9.963301007
9.963278242
9.963278524
9.96327838
9.96327788
9.963276512
9.963277083
9.963278265
9.963277102
9.96327653
9.963277255
9.963277709
9.963277248
9.963277396
9.963276803
9.963256587
9.963256279
9.963255149
9.963254661
9.963254042
9.963255571
9.963254966
9.963254605
9.963255141
9.963255412
9.963254861
9.963254636
9.963254609
9.963255719
9.963288573
9.963288015
9.963288019
9.963287179
9.963287393
9.963287463
9.963288099
9.96328805
9.9632884
9.963289329
9.963290438
9.963290164
9.963290783
9.963291954
9.963256177
9.963257576
9.963256744
9.963255863
9.963256008
9.963257308
9.963257923
9.963258903
9.963259734
9.963259148
9.96325916
9.963257463
9.963257415
9.963256403
9.963254815
9.96326219
9.963261746
9.963262479
9.96326325
9.963263743
9.963262933
9.963261774
9.96326262
9.963262234
9.963262477
9.963262378
9.963263048
9.96326352
9.963262337
9.963294394
9.963304512
9.963303304
9.963304297
9.963303445
9.963303659
9.963303233
9.963303945
9.963304606
9.963303828
9.963304394
9.963304217
9.963303352
9.963302919
9.963301619
9.963302043
9.963258168
9.963259904
9.963258572
9.963258076
9.963257853
9.963259017
9.963258496
9.963259318
9.963258413
9.963257614
9.96325614
9.963255225
9.963256312
9.96325711
9.96325737
9.963291614
9.963291621
9.963291159
9.963290634
9.963290287
9.963289673
9.96329121
9.963290687
9.96329036
9.963290872
9.963291223
9.963289456
9.963288316
9.963287944
9.963286837
9.963281171
9.963281123
9.963280429
9.963281809
9.963282663
9.963281542
9.963281038
9.963281633
9.963281474
9.963280617
9.963282156
9.963281568
9.963282264
9.963282083
9.963281878
9.963280835
9.96328233
9.96328183
9.963281513
9.96328034
9.963280647
9.963281488
9.963282562
9.963282481
9.963283512
9.963283665
9.963285074
9.963283975
9.963283323
9.963304803
9.963304299
9.963303603
9.963303168
9.963303496
9.963304334
9.963305308
9.963302822
9.963302596
9.963302727
9.963302722
9.963302672
9.963303562
9.963303426
9.963294538
9.96329311
9.963292355
9.963293411
9.963293178
9.963290381
9.963291051
9.963290225
9.963290575
9.963290302
9.963289814
9.963289662
9.963289996
9.963289325
9.963254663
9.963255225
9.963255565
9.96325613
9.963257516
9.963258743
9.96325957
9.963259681
9.96325901
9.963259037
9.963261165
9.963261391
9.963259687
9.963258722
9.963249616
9.963249487
9.963249592
9.96324768
9.963246133
9.963246093
9.963246759
9.963246207
9.963246816
9.963245953
9.963245578
9.963245394
9.963245325
9.963243423
10.01179365
9.963276691
9.963276709
9.96327574
9.963275125
9.963275462
9.963275117
9.963274803
9.963272989
9.963273376
9.963272938
9.963272627
9.963273441
9.963274317
9.963273195
9.96330712
9.963253355
9.963252791
9.963253119
9.963253078
9.963252839
9.963253518
9.963254356
9.9632534
9.963255357
9.963256083
9.963256953
9.963257079
9.963255872
9.963256888
9.96325541
9.963280662
9.963279984
9.963280336
9.963280625
9.963279681
9.963279193
9.96327848
9.963278713
9.963281234
9.963280299
9.963280127
9.963280027
9.963280157
9.963280475
9.963280301
9.963243227
9.963243288
9.963243967
9.963243241
9.963244212
9.963244682
9.963244027
9.96324419
9.963243914
9.96324469
9.96324454
9.963245629
9.963247647
9.963246565
9.963246502
9.963263609
9.963263602
9.963263509
9.963263419
9.963263497
9.963263544
9.963264063
9.963262976
9.963262648
9.963263881
9.963263448
9.963263628
9.963263904
9.963264364
9.963317427
9.96331736
9.963317535
9.963319215
9.963319504
9.963319964
9.963320445
9.963320235
9.963318657
9.963318077
9.963319203
9.963319403
9.963319036
9.963320207
9.963272471
9.963272515
9.963272559
9.963273263
9.963272701
9.963271889
9.963272667
9.963274579
9.963273595
9.963272749
9.963272638
9.963272136
9.963272329
9.963273045
9.963300791
9.963300214
9.963299665
9.963300841
9.963300881
9.963303503
9.96330313
9.963304225
9.963303848
9.963304117
9.963304615
9.963303138
9.963302645
9.963302778
9.963261635
9.963260714
9.9632603
9.963260169
9.963260525
9.963260275
9.963259449
9.963259581
9.963261731
9.963259792
9.963261293
9.963259785
9.963259425
9.963258806
9.963245102
9.963245558
9.963246366
9.963245826
9.963245882
9.963248005
9.963248483
9.963248769
9.963247834
9.963249764
9.963250181
9.963250495
9.963249739
9.963248507
9.963324372
9.963324227
9.963323305
9.963323472
9.963322896
9.963323471
9.963323627
9.963322764
9.963323109
9.963322921
9.963322588
9.963323208
9.963323227
9.963323683
9.963323806
9.963264739
9.963264697
9.963265535
9.963266175
9.963265398
9.963265034
9.963266179
9.963266978
9.96326534
9.963264603
9.963265574
9.963266059
9.963267106
9.963266678
9.963267316
9.963248629
9.96324931
9.963249607
9.963248846
9.963249261
9.963249181
9.963248661
9.963249796
9.963248505
9.963248856
9.963249426
9.9632506
9.963251317
9.963252345
9.963253233
9.96326244
9.9632628
9.963263283
9.963262707
9.963262382
9.963262144
9.963262264
9.963263245
9.963262312
9.963262599
9.963262483
9.96326324
9.963264703
9.96326434
9.963243417
9.963241788
9.963241886
9.963243007
9.963244425
9.963243157
9.963244493
9.963243545
9.963242614
9.963243325
9.96324129
9.963242549
9.963242434
9.963243718
9.963263708
9.96326393
9.963263289
9.963263153
9.96326239
9.963262247
9.963263396
9.963263635
9.963264307
9.963263584
9.963265027
9.96326463
9.963264364
9.963263629
9.963237883
9.963237295
9.963237079
9.96323745
9.963236985
9.96323677
9.963237913
9.96323741
9.963238091
9.96323842
9.963238745
9.96323861
9.963239056
9.963240669
9.96330248
9.963301987
9.963301982
9.963302012
9.963301995
9.963301421
9.963301607
9.96330105
9.963300491
9.963299139
9.963298632
9.963299041
9.963298633
9.963298808
9.963276153
9.963277069
9.963277121
9.963276647
9.96327756
9.963275576
9.963275231
9.963277515
9.963278486
9.963279266
9.963279952
9.963279477
9.963278117
9.96327799
9.963256477
9.963255843
9.963254549
9.96325355
9.963252819
9.963253812
9.96325484
9.96325523
9.963254558
9.963254276
9.963255496
9.96325563
9.96325542
9.96325448
9.963293223
9.963292871
9.963293203
9.963294235
9.963293786
9.963294261
9.963293802
9.963293821
9.963294388
9.963295358
9.96329509
9.963294796
9.963293555
9.963292755
9.963291696
9.963276754
9.96327804
9.963277461
9.963277151
9.963276749
9.963275781
9.963275142
9.963275778
9.963275766
9.963274701
9.963274434
9.963274775
9.963275128
9.96327465
9.963275765
9.963312063
9.963313063
9.963312711
9.963312017
9.963312748
9.963311956
9.963310937
9.963311431
9.963310977
9.963310228
9.963310876
9.963310536
9.963310799
9.963310727
9.963307335
9.963307737
9.963307409
9.963307059
9.963306722
9.96330664
9.963306919
9.96330697
9.963305711
9.963304745
9.963305409
9.963304266
9.963304097
9.963304171
9.963262433
9.963262359
9.963260758
9.963260714
9.963261031
9.963261927
9.963262516
9.963263039
9.963262482
9.963262017
9.963263309
9.963262895
9.963263015
9.963263379
9.963287862
9.963287861
9.963286695
9.963288022
9.96328733
9.963288057
9.96328928
9.96328972
9.963289806
9.963289784
9.963289682
9.963290337
9.963290437
9.963291821
9.963276555
9.963276577
9.963277107
9.963277052
9.963276113
9.963276633
9.963276788
9.963276265
9.963274376
9.963275489
9.963275018
9.963274454
9.963274462
9.963274471
9.963301651
9.963301832
9.963303672
9.96330463
9.963305451
9.963305376
9.963305479
9.963304758
9.963305657
9.963305603
9.963304984
9.963303896
9.963303138
9.963303543
9.963291449
9.963291468
9.963291302
9.963291236
9.963290642
9.963292373
9.963289483
9.963288615
9.96328977
9.963289178
9.963290683
9.963291509
9.963293299
9.96329292
9.963289337
9.963289369
9.963289321
9.963288866
9.963289762
9.963287727
9.9632878
9.963287682
9.963287761
9.963287523
9.963287213
9.963287866
9.963287243
9.963288522
9.963265063
9.963264912
9.963264674
9.963264337
9.963264595
9.963265481
9.963265507
9.96326464
9.963264794
9.963264672
9.963263567
9.963263182
9.963264431
9.963263681
9.96326502
9.963263399
9.963262909
9.963264225
9.963263977
9.963263664
9.96326421
9.963263927
9.963263606
9.963264413
9.963264481
9.963263887
9.963264425
9.963263779
9.963263334
9.963270917
9.963271834
9.963271304
9.963271869
9.96327219
9.963271587
9.963272562
9.963271298
9.963270563
9.963269483
9.963270735
9.963271543
9.963272255
9.963273504
9.963259835
9.963260294
9.963260562
9.96326033
9.963261029
9.963261508
9.963260747
9.963261035
9.963260182
9.963261942
9.963261955
9.963261597
9.963262202
9.963262561
9.96332295
9.963322825
9.963322667
9.96332212
9.963322639
9.963323141
9.963322681
9.963321503
9.963319794
9.963319168
9.963318848
9.963318847
9.96331845
9.963319301
9.963317071
9.963317122
9.963317749
9.963317765
9.963317885
9.963318531
9.963318265
9.963318535
9.963318259
9.963319028
9.963319028
9.963319642
9.963320332
9.963320719
9.963299448
9.963299732
9.963300148
9.963299445
9.963299629
9.963300469
9.963299664
9.963299766
9.963298505
9.963299372
9.963299132
9.963298079
9.963297935
9.963296463
9.963273646
9.963273282
9.963272835
9.963273793
9.963274915
9.963275303
9.963274879
9.963276362
9.96327578
9.963275768
9.963275265
9.96327635
9.963276333
9.963276744
9.963296354
9.963296085
9.963296079
9.963295299
9.963294671
9.963294567
9.96329445
9.963293958
9.963293015
9.963292004
9.963293032
9.963292877
9.96329223
9.963291831
9.963279932
9.963280311
9.963281361
9.963280892
9.963281491
9.96328224
9.963281431
9.963281839
9.963281532
9.963281753
9.963280663
9.963281731
9.963281491
9.96328224
)
;

boundaryField
{
    top
    {
        type            calculated;
        value           nonuniform List<scalar> 
134
(
9.963249169
9.963241932
9.963301028
9.963281171
9.963243227
9.963248629
9.963276754
9.963265063
9.963279932
9.963249464
9.963241452
9.963301062
9.963281123
9.963243288
9.96324931
9.96327804
9.963264912
9.963280311
9.963249726
9.963240205
9.963302338
9.963280429
9.963243967
9.963249607
9.963277461
9.963264674
9.963281361
9.963249088
9.963240841
9.963302809
9.963281809
9.963243241
9.963248846
9.963277151
9.963264337
9.963280892
9.963248415
9.963240691
9.963302643
9.963282663
9.963244212
9.963249261
9.963276749
9.963264595
9.963281491
9.963247602
9.963239858
9.963302388
9.963281542
9.963244682
9.963249181
9.963275781
9.963265481
9.96328224
9.963247635
9.963240237
9.963302491
9.963281038
9.963244027
9.963248661
9.963275142
9.963265507
9.963281431
9.96324747
9.963241337
9.963303093
9.963281633
9.96324419
9.963249796
9.963275778
9.96326464
9.963281839
9.9632486
9.963242961
9.963303126
9.963281474
9.963243914
9.963248505
9.963275766
9.963264794
9.963281532
9.963249271
9.963242807
9.963303025
9.963280617
9.96324469
9.963248856
9.963274701
9.963264672
9.963281753
9.963250108
9.963242756
9.963302617
9.963282156
9.96324454
9.963249426
9.963274434
9.963263567
9.963280663
9.963250498
9.96324344
9.963302327
9.963281568
9.963245629
9.9632506
9.963274775
9.963263182
9.963281731
9.963250821
9.963243639
9.963302143
9.963282264
9.963247647
9.963251317
9.963275128
9.963264431
9.963281491
9.963251285
9.963244512
9.963302044
9.963282083
9.963246565
9.963252345
9.96327465
9.963263681
9.96328224
9.963251136
9.963244538
9.963301007
9.963281878
9.963246502
9.963253233
9.963275765
9.96326502
)
;
    }
    bottom
    {
        type            calculated;
        value           nonuniform List<scalar> 
127
(
9.963275963
9.963286602
9.963282263
9.963278242
9.963280835
9.963263609
9.96326244
9.963312063
9.963263399
9.963276561
9.963286033
9.96328273
9.963278524
9.96328233
9.963263602
9.9632628
9.963313063
9.963262909
9.963277309
9.963286023
9.963282732
9.96327838
9.96328183
9.963263509
9.963263283
9.963312711
9.963264225
9.963277011
9.963285505
9.963282952
9.96327788
9.963281513
9.963263419
9.963262707
9.963312017
9.963263977
9.963276705
9.963285863
9.963283022
9.963276512
9.96328034
9.963263497
9.963262382
9.963312748
9.963263664
9.963276674
9.963286447
9.963283008
9.963277083
9.963280647
9.963263544
9.963262144
9.963311956
9.96326421
9.963276635
9.963285879
9.963283711
9.963278265
9.963281488
9.963264063
9.963262264
9.963310937
9.963263927
9.963277407
9.963287414
9.963284085
9.963277102
9.963282562
9.963262976
9.963263245
9.963311431
9.963263606
9.963277573
9.963286646
9.963283036
9.96327653
9.963282481
9.963262648
9.963262312
9.963310977
9.963264413
9.963276965
9.963285523
9.963282928
9.963277255
9.963283512
9.963263881
9.963262599
9.963310228
9.963264481
9.963277337
9.963284731
9.963284037
9.963277709
9.963283665
9.963263448
9.963262483
9.963310876
9.963263887
9.963277289
9.963284354
9.963283123
9.963277248
9.963285074
9.963263628
9.96326324
9.963310536
9.963264425
9.963277791
9.963284422
9.963281666
9.963277396
9.963283975
9.963263904
9.963264703
9.963310799
9.963263779
9.963277285
9.963285403
9.963280307
9.963276803
9.963283323
9.963264364
9.96326434
9.963310727
9.963263334
9.963276905
)
;
    }
    side-walls
    {
        type            calculated;
        value           nonuniform List<scalar> 
261
(
9.963275963
9.963267932
9.963294741
9.963295568
9.963249619
9.963245835
9.963276024
9.963270852
9.963249169
9.963276561
9.96326709
9.963295107
9.963295359
9.963249705
9.963245744
9.963275252
9.963271149
9.963249464
9.963277309
9.963266938
9.963294772
9.96329601
9.963250431
9.963245823
9.963275775
9.963270695
9.963249726
9.963277011
9.963267775
9.963293733
9.963295712
9.963250798
9.963246237
9.963275098
9.963270777
9.963249088
9.963276705
9.963267868
9.963294564
9.963295901
9.963251366
9.963246738
9.963275866
9.963270913
9.963248415
9.963276674
9.963268356
9.963294404
9.96329551
9.963250755
9.963246273
9.963274419
9.963272483
9.963247602
9.963276635
9.963267744
9.963294936
9.963294207
9.963249872
9.963247004
9.963274752
9.963272436
9.963247635
9.963277407
9.963267429
9.963293912
9.963294669
9.963249472
9.963246733
9.963275661
9.963272474
9.96324747
9.963277573
9.963267222
9.963294645
9.963293099
9.963248293
9.963246558
9.963275378
9.963272341
9.9632486
9.963276965
9.963268519
9.963293917
9.963293395
9.96324884
9.963246569
9.963275987
9.963271997
9.963249271
9.963277337
9.963267813
9.963294073
9.963294534
9.963248097
9.963246616
9.963275591
9.963271717
9.963250108
9.963277289
9.963267586
9.963293783
9.963294361
9.96324769
9.963246822
9.963276468
9.963272252
9.963250498
9.963277791
9.963267809
9.963293154
9.963295082
9.963248272
9.963246251
9.963274736
9.963272009
9.963250821
9.963277285
9.963268738
9.963292068
9.963294886
9.963248593
9.96324635
9.963276329
9.963272743
9.963251285
9.963276905
9.963267753
9.963293043
9.963295104
9.963248685
9.963245502
9.963276302
9.963273517
9.963251136
9.963263399
9.963270917
9.963259835
9.96332295
9.963317071
9.963299448
9.963273646
9.963296354
9.963279932
9.963262909
9.963271834
9.963260294
9.963322825
9.963317122
9.963299732
9.963273282
9.963296085
9.963280311
9.963264225
9.963271304
9.963260562
9.963322667
9.963317749
9.963300148
9.963272835
9.963296079
9.963281361
9.963263977
9.963271869
9.96326033
9.96332212
9.963317765
9.963299445
9.963273793
9.963295299
9.963280892
9.963263664
9.96327219
9.963261029
9.963322639
9.963317885
9.963299629
9.963274915
9.963294671
9.963281491
9.96326421
9.963271587
9.963261508
9.963323141
9.963318531
9.963300469
9.963275303
9.963294567
9.96328224
9.963263927
9.963272562
9.963260747
9.963322681
9.963318265
9.963299664
9.963274879
9.96329445
9.963281431
9.963263606
9.963271298
9.963261035
9.963321503
9.963318535
9.963299766
9.963276362
9.963293958
9.963281839
9.963264413
9.963270563
9.963260182
9.963319794
9.963318259
9.963298505
9.96327578
9.963293015
9.963281532
9.963264481
9.963269483
9.963261942
9.963319168
9.963319028
9.963299372
9.963275768
9.963292004
9.963281753
9.963263887
9.963270735
9.963261955
9.963318848
9.963319028
9.963299132
9.963275265
9.963293032
9.963280663
9.963264425
9.963271543
9.963261597
9.963318847
9.963319642
9.963298079
9.96327635
9.963292877
9.963281731
9.963263779
9.963272255
9.963262202
9.96331845
9.963320332
9.963297935
9.963276333
9.96329223
9.963281491
9.963263334
9.963273504
9.963262561
9.963319301
9.963320719
9.963296463
9.963276744
9.963291831
9.96328224
)
;
    }
    inlet
    {
        type            calculated;
        value           nonuniform List<scalar> 
81
(
9.963275963
9.963267932
9.963294741
9.963295568
9.963249619
9.963245835
9.963276024
9.963270852
9.963249169
9.963286602
9.963257858
9.963248657
9.963310115
9.963284608
9.963306035
9.963233693
9.963310075
9.963241932
9.963282263
9.96328469
9.963297996
9.96326333
9.963331649
9.96328689
9.963320726
9.963211625
9.963301028
9.963278242
9.963256587
9.963288573
9.963256177
9.96326219
9.963304512
9.963258168
9.963291614
9.963281171
9.963280835
9.963304803
9.963294538
9.963254663
9.963249616
9.963276691
9.963253355
9.963280662
9.963243227
9.963263609
9.963317427
9.963272471
9.963300791
9.963261635
9.963245102
9.963324372
9.963264739
9.963248629
9.96326244
9.963243417
9.963263708
9.963237883
9.96330248
9.963276153
9.963256477
9.963293223
9.963276754
9.963312063
9.963307335
9.963262433
9.963287862
9.963276555
9.963301651
9.963291449
9.963289337
9.963265063
9.963263399
9.963270917
9.963259835
9.96332295
9.963317071
9.963299448
9.963273646
9.963296354
9.963279932
)
;
    }
    outlet
    {
        type            calculated;
        value           nonuniform 0();
    }
    procBoundary0to1
    {
        type            processor;
        value           nonuniform List<scalar> 
97
(
9.963278168
9.963285251
9.963268833
9.963293621
9.963295776
9.963249645
9.963244537
9.963275504
9.963272555
9.963251081
9.963285251
9.963285251
9.963262802
9.963290153
9.96324849
9.963305483
9.963281089
9.96330482
9.963237045
9.963308172
9.963245035
9.963281464
9.963290153
9.963290153
9.96329708
9.963293015
9.9632633
9.963326677
9.963282347
9.963318471
9.963209875
9.963301297
9.96327861
9.963254809
9.963293015
9.963293015
9.963253835
9.963291393
9.96329438
9.963301301
9.963255066
9.963286835
9.963282972
9.963283405
9.963304341
9.963287498
9.963291393
9.963291393
10.01179238
9.963291333
9.963307427
9.963247494
9.963254928
9.963280751
9.963248049
9.963264221
9.963319223
9.963274678
9.963300409
9.963291333
9.963247494
9.963247494
9.963324564
9.963254352
9.963266643
9.963252823
9.963264633
9.963242369
9.96326297
9.963239786
9.963298069
9.963278285
9.963254352
9.963254352
9.963290374
9.963289047
9.963275854
9.96331073
9.963303952
9.963264878
9.963289619
9.963274207
9.963303304
9.96329192
9.963289047
9.963289047
9.96326396
9.963280722
9.963263805
9.963273435
9.963261576
9.963320374
9.963320258
9.963297311
9.963276435
9.963293149
9.963280722
)
;
    }
}


// ************************************************************************* //
