/*--------------------------------*- C++ -*----------------------------------*\
| =========                 |                                                 |
| \\      /  F ield         | OpenFOAM: The Open Source CFD Toolbox           |
|  \\    /   O peration     | Version:  4.x                                   |
|   \\  /    A nd           | Web:      www.OpenFOAM.org                      |
|    \\/     M anipulation  |                                                 |
\*---------------------------------------------------------------------------*/
FoamFile
{
    version     2.0;
    format      ascii;
    class       volScalarField;
    location    "5000";
    object      N2;
}
// * * * * * * * * * * * * * * * * * * * * * * * * * * * * * * * * * * * * * //

dimensions      [0 0 0 0 0 0 0];

internalField   nonuniform List<scalar> 
1175
(
0.6215293965
0.6215293965
0.6215293963
0.6215293964
0.6215293965
0.6215293965
0.6215293963
0.6215293955
0.6215293943
0.6215293908
0.6215293802
0.6215293527
0.6215292849
0.6215291341
0.6215288374
0.6215293968
0.621529397
0.6215293966
0.6215293966
0.6215293963
0.6215293962
0.621529396
0.6215293956
0.6215293938
0.6215293882
0.6215293717
0.6215293261
0.6215292104
0.6215289492
0.6215284342
0.6215293969
0.621529397
0.6215293971
0.6215293965
0.6215293962
0.6215293963
0.6215293956
0.6215293948
0.6215293921
0.6215293831
0.6215293545
0.6215292716
0.621529052
0.6215285412
0.6215275312
0.6215293967
0.6215293967
0.6215293967
0.6215293965
0.6215293961
0.621529396
0.6215293961
0.6215293949
0.6215293911
0.6215293776
0.6215293334
0.6215291993
0.6215288304
0.6215279416
0.6215261724
0.6215293967
0.6215293965
0.6215293969
0.6215293964
0.6215293965
0.6215293966
0.621529396
0.6215293949
0.6215293906
0.6215293748
0.6215293214
0.6215291557
0.6215286844
0.6215275132
0.6215251519
0.6215293967
0.6215293967
0.6215293962
0.6215293964
0.6215293965
0.6215293962
0.6215293959
0.6215293951
0.621529391
0.6215293773
0.6215293333
0.6215291992
0.6215288304
0.6215279421
0.6215261729
0.6215293965
0.6215293969
0.6215293964
0.6215293964
0.6215293965
0.6215293962
0.6215293963
0.6215293953
0.6215293924
0.6215293835
0.6215293548
0.6215292713
0.6215290524
0.6215285412
0.6215275311
0.6215293965
0.6215293966
0.6215293969
0.6215293966
0.6215293967
0.6215293966
0.6215293962
0.6215293955
0.6215293943
0.6215293887
0.6215293724
0.6215293263
0.6215292109
0.6215289494
0.6215284345
0.6215293969
0.6215293969
0.6215293968
0.621529397
0.6215293971
0.621529397
0.6215293969
0.6215293965
0.621529395
0.6215293912
0.6215293808
0.6215293529
0.6215292848
0.621529134
0.6215288369
0.6215293967
0.6215293963
0.6215293962
0.6215293965
0.6215293961
0.6215293965
0.6215293964
0.621529395
0.6215293936
0.6215293884
0.6215293718
0.6215293264
0.6215292106
0.6215289491
0.621529397
0.6215293968
0.6215293965
0.6215293969
0.621529396
0.6215293961
0.621529396
0.6215293953
0.6215293928
0.6215293837
0.6215293553
0.6215292722
0.6215290506
0.6215285322
0.6215275063
0.6215293969
0.6215293968
0.6215293966
0.6215293964
0.6215293963
0.6215293963
0.621529396
0.6215293945
0.62152939
0.6215293736
0.6215293191
0.6215291489
0.6215286666
0.6215274818
0.6215251125
0.6215293965
0.6215293964
0.6215293964
0.6215293965
0.6215293958
0.6215293958
0.6215293959
0.6215293932
0.6215293865
0.6215293612
0.6215292693
0.6215289635
0.6215280365
0.6215256119
0.6215206445
0.6215293967
0.6215293964
0.6215293965
0.6215293965
0.6215293964
0.6215293967
0.6215293959
0.6215293941
0.6215293856
0.6215293535
0.6215292369
0.621528829
0.6215275161
0.6215238449
0.6215159729
0.6215293964
0.6215293961
0.6215293962
0.6215293964
0.6215293966
0.6215293963
0.6215293955
0.6215293942
0.6215293872
0.6215293614
0.6215292696
0.6215289634
0.621528036
0.6215256121
0.621520645
0.6215293962
0.6215293965
0.6215293964
0.6215293963
0.6215293964
0.6215293963
0.6215293958
0.6215293946
0.6215293899
0.6215293736
0.6215293191
0.6215291486
0.6215286666
0.6215274818
0.6215251132
0.6215293968
0.6215293969
0.6215293964
0.6215293967
0.6215293962
0.6215293967
0.6215293965
0.6215293956
0.6215293928
0.6215293835
0.6215293551
0.6215292717
0.6215290503
0.6215285326
0.6215275069
0.6215293968
0.6215293969
0.6215293969
0.6215293966
0.6215293971
0.621529397
0.6215293965
0.621529396
0.621529394
0.6215293883
0.6215293716
0.6215293265
0.6215292108
0.6215289496
0.6215284344
0.6215293963
0.6215293964
0.6215293966
0.6215293966
0.6215293964
0.6215293963
0.6215293957
0.6215293949
0.6215293922
0.6215293831
0.6215293542
0.6215292711
0.6215290521
0.6215285408
0.6215293966
0.6215293966
0.6215293966
0.6215293966
0.6215293965
0.6215293961
0.6215293958
0.6215293947
0.6215293897
0.6215293737
0.6215293189
0.621529149
0.6215286668
0.6215274808
0.6215293965
0.6215293961
0.6215293965
0.6215293966
0.6215293964
0.6215293964
0.6215293955
0.6215293935
0.6215293849
0.6215293531
0.6215292363
0.6215288397
0.621527616
0.6215243726
0.6215176984
0.6215293965
0.6215293966
0.6215293967
0.6215293964
0.6215293963
0.621529396
0.6215293955
0.6215293921
0.6215293784
0.6215293235
0.6215291066
0.6215282995
0.6215255444
0.621517449
0.6214996745
0.621529396
0.6215293961
0.6215293962
0.6215293963
0.6215293961
0.6215293963
0.6215293955
0.6215293914
0.6215293748
0.6215293034
0.6215290082
0.6215278207
0.6215233354
0.6215083684
0.621471077
0.6215293961
0.6215293961
0.6215293963
0.6215293966
0.6215293966
0.6215293964
0.6215293959
0.6215293922
0.6215293784
0.6215293233
0.6215291061
0.6215282994
0.6215255446
0.6215174503
0.6214996782
0.6215293963
0.6215293963
0.6215293964
0.6215293963
0.6215293969
0.6215293968
0.6215293957
0.6215293933
0.6215293853
0.6215293532
0.6215292361
0.6215288395
0.6215276166
0.6215243738
0.6215177022
0.6215293964
0.6215293966
0.6215293966
0.6215293967
0.6215293966
0.6215293964
0.6215293962
0.621529395
0.6215293906
0.6215293741
0.6215293192
0.6215291491
0.6215286674
0.6215274819
0.6215251132
0.6215293969
0.6215293967
0.6215293966
0.6215293968
0.6215293967
0.6215293966
0.6215293962
0.6215293955
0.6215293928
0.6215293836
0.6215293549
0.6215292715
0.6215290521
0.6215285413
0.6215275312
0.6215293964
0.6215293966
0.6215293968
0.6215293969
0.621529397
0.6215293965
0.6215293961
0.6215293945
0.621529391
0.6215293773
0.6215293329
0.6215291993
0.6215288306
0.6215279418
0.6215293971
0.6215293965
0.6215293967
0.6215293969
0.6215293967
0.6215293964
0.6215293961
0.621529394
0.6215293871
0.6215293611
0.6215292691
0.6215289633
0.6215280354
0.6215256098
0.6215293964
0.6215293966
0.6215293969
0.6215293968
0.6215293969
0.6215293962
0.6215293957
0.6215293925
0.6215293787
0.6215293232
0.6215291065
0.6215282993
0.6215255438
0.6215174454
0.6215293967
0.6215293965
0.621529397
0.6215293969
0.6215293966
0.6215293962
0.6215293948
0.6215293895
0.6215293667
0.6215292636
0.6215288169
0.6215269368
0.6215195049
0.6214936812
0.6214275989
0.6215293965
0.6215293963
0.6215293964
0.6215293965
0.6215293964
0.6215293964
0.6215293949
0.6215293882
0.6215293585
0.6215292188
0.6215285568
0.6215254178
0.621510795
0.621447003
0.6212253941
0.6215293964
0.6215293967
0.6215293962
0.6215293967
0.6215293967
0.6215293963
0.6215293947
0.6215293894
0.6215293665
0.6215292633
0.621528817
0.6215269374
0.6215195059
0.6214936863
0.6214276221
0.6215293965
0.6215293967
0.6215293964
0.6215293966
0.6215293966
0.6215293968
0.6215293956
0.6215293925
0.6215293789
0.6215293228
0.6215291063
0.6215283
0.6215255447
0.6215174499
0.6214996778
0.6215293967
0.6215293969
0.621529397
0.6215293968
0.6215293968
0.6215293968
0.6215293962
0.6215293939
0.6215293871
0.621529361
0.6215292689
0.6215289636
0.6215280362
0.6215256119
0.621520645
0.6215293966
0.6215293968
0.6215293967
0.6215293965
0.6215293965
0.6215293961
0.6215293962
0.6215293949
0.6215293911
0.6215293777
0.6215293332
0.6215291996
0.6215288306
0.621527942
0.621526173
0.6215293968
0.6215293963
0.6215293966
0.6215293966
0.6215293969
0.6215293965
0.6215293958
0.6215293946
0.6215293903
0.6215293739
0.6215293208
0.6215291552
0.6215286844
0.6215275125
0.6215293964
0.6215293966
0.6215293967
0.6215293967
0.6215293967
0.6215293962
0.6215293955
0.6215293934
0.6215293855
0.6215293539
0.6215292369
0.6215288291
0.6215275152
0.6215238417
0.6215293958
0.6215293959
0.6215293965
0.6215293965
0.6215293959
0.6215293964
0.6215293955
0.621529392
0.621529375
0.6215293036
0.6215290083
0.6215278205
0.6215233333
0.6215083587
0.6215293965
0.6215293967
0.6215293968
0.6215293965
0.621529396
0.6215293957
0.6215293946
0.6215293879
0.6215293583
0.6215292182
0.621528556
0.6215254167
0.6215107908
0.6214469752
0.6215293961
0.6215293963
0.6215293964
0.6215293967
0.6215293969
0.6215293961
0.6215293944
0.6215293865
0.621529347
0.6215291462
0.621528074
0.6215220043
0.6214852915
0.621246405
0.6195653647
0.6215293966
0.6215293963
0.6215293965
0.6215293965
0.6215293961
0.6215293962
0.6215293947
0.6215293883
0.6215293589
0.6215292186
0.6215285563
0.6215254175
0.6215107936
0.6214469979
0.6212253902
0.6215293969
0.6215293969
0.6215293965
0.621529397
0.6215293968
0.6215293965
0.6215293958
0.6215293916
0.6215293749
0.6215293038
0.6215290084
0.6215278206
0.6215233348
0.6215083666
0.6214710757
0.6215293962
0.6215293966
0.6215293965
0.6215293965
0.6215293966
0.6215293965
0.6215293961
0.6215293939
0.6215293853
0.6215293536
0.6215292369
0.621528829
0.6215275157
0.6215238442
0.6215159721
0.6215293968
0.6215293963
0.6215293964
0.6215293966
0.6215293966
0.6215293967
0.6215293965
0.6215293948
0.6215293905
0.6215293747
0.6215293215
0.6215291556
0.6215286843
0.6215275131
0.6215251516
0.6215293962
0.6215293967
0.6215293968
0.6215293969
0.6215293965
0.6215293966
0.6215293964
0.621529395
0.6215293913
0.6215293774
0.6215293331
0.6215291991
0.6215288301
0.6215279408
0.6215293964
0.6215293967
0.6215293964
0.6215293962
0.6215293965
0.6215293965
0.6215293955
0.6215293935
0.6215293872
0.6215293612
0.6215292692
0.6215289629
0.6215280354
0.6215256099
0.6215293968
0.6215293969
0.621529397
0.6215293968
0.6215293965
0.6215293961
0.6215293953
0.6215293917
0.6215293787
0.6215293235
0.6215291065
0.6215282995
0.6215255434
0.6215174445
0.621529396
0.6215293968
0.6215293968
0.6215293966
0.6215293959
0.6215293961
0.6215293951
0.6215293894
0.6215293658
0.6215292628
0.6215288164
0.6215269361
0.6215195025
0.6214936711
0.6215293966
0.6215293967
0.6215293966
0.6215293969
0.6215293964
0.6215293966
0.6215293948
0.6215293886
0.6215293583
0.6215292186
0.6215285563
0.6215254169
0.6215107897
0.621446971
0.6215293968
0.6215293966
0.6215293965
0.6215293968
0.6215293966
0.6215293962
0.6215293951
0.62152939
0.6215293665
0.6215292637
0.6215288167
0.6215269366
0.6215195035
0.6214936742
0.6215293965
0.6215293966
0.6215293965
0.6215293967
0.6215293967
0.6215293964
0.6215293957
0.6215293921
0.6215293782
0.621529323
0.6215291062
0.6215282992
0.6215255438
0.6215174476
0.6214996698
0.6215293967
0.6215293964
0.6215293964
0.6215293964
0.6215293966
0.6215293961
0.6215293957
0.621529394
0.6215293873
0.6215293613
0.6215292693
0.6215289634
0.6215280357
0.6215256115
0.6215206439
0.6215293968
0.6215293964
0.6215293965
0.6215293965
0.6215293962
0.6215293962
0.6215293963
0.6215293954
0.6215293915
0.6215293775
0.6215293333
0.621529199
0.62152883
0.6215279415
0.6215261724
0.6215293963
0.6215293964
0.6215293962
0.6215293961
0.6215293957
0.6215293962
0.6215293963
0.6215293953
0.6215293925
0.6215293834
0.6215293548
0.6215292712
0.6215290517
0.6215285405
0.6215293964
0.6215293965
0.6215293967
0.6215293964
0.6215293962
0.6215293959
0.6215293957
0.6215293945
0.6215293904
0.6215293735
0.621529319
0.6215291488
0.6215286661
0.6215274805
0.6215293965
0.6215293963
0.6215293965
0.6215293965
0.6215293962
0.6215293958
0.6215293953
0.6215293934
0.6215293848
0.6215293526
0.6215292359
0.6215288397
0.6215276152
0.621524371
0.6215293961
0.6215293967
0.6215293967
0.6215293965
0.6215293967
0.6215293962
0.6215293949
0.621529392
0.6215293782
0.621529323
0.621529106
0.6215282989
0.6215255431
0.6215174444
0.6215293962
0.621529396
0.6215293963
0.6215293965
0.6215293965
0.621529396
0.6215293953
0.6215293915
0.6215293745
0.6215293037
0.6215290082
0.6215278206
0.621523333
0.6215083587
0.6215293963
0.6215293966
0.6215293966
0.6215293964
0.6215293968
0.6215293963
0.6215293961
0.6215293923
0.6215293783
0.6215293231
0.6215291059
0.6215282985
0.6215255432
0.6215174453
0.6215293967
0.6215293966
0.6215293969
0.6215293968
0.6215293968
0.6215293962
0.6215293957
0.6215293937
0.6215293848
0.6215293527
0.621529236
0.6215288394
0.6215276156
0.6215243715
0.6215293965
0.6215293969
0.6215293967
0.6215293964
0.6215293965
0.6215293961
0.6215293961
0.6215293947
0.6215293899
0.6215293737
0.6215293193
0.6215291488
0.6215286665
0.6215274811
0.6215251115
0.6215293967
0.6215293967
0.6215293964
0.6215293965
0.6215293967
0.6215293969
0.6215293965
0.6215293956
0.6215293925
0.6215293835
0.6215293548
0.6215292715
0.621529052
0.6215285407
0.6215275302
0.6215293963
0.6215293962
0.6215293961
0.6215293961
0.6215293959
0.621529396
0.6215293959
0.6215293955
0.6215293937
0.6215293886
0.6215293723
0.6215293263
0.6215292103
0.6215289491
0.6215293962
0.6215293961
0.6215293963
0.6215293965
0.6215293967
0.6215293964
0.6215293959
0.6215293953
0.6215293926
0.6215293838
0.6215293552
0.6215292721
0.6215290501
0.621528532
0.6215293958
0.6215293961
0.6215293966
0.6215293961
0.6215293961
0.6215293958
0.6215293958
0.6215293948
0.62152939
0.6215293738
0.6215293189
0.6215291488
0.6215286664
0.6215274806
0.6215293965
0.6215293963
0.6215293966
0.6215293965
0.6215293962
0.6215293959
0.6215293953
0.6215293941
0.6215293872
0.6215293612
0.6215292694
0.6215289632
0.6215280358
0.6215256098
0.6215293965
0.6215293962
0.6215293961
0.6215293961
0.6215293961
0.6215293959
0.6215293954
0.6215293937
0.6215293855
0.6215293538
0.6215292367
0.6215288286
0.6215275152
0.6215238415
0.6215293962
0.6215293964
0.6215293962
0.621529396
0.621529396
0.6215293961
0.621529396
0.6215293941
0.6215293868
0.6215293609
0.6215292689
0.6215289633
0.6215280357
0.62152561
0.6215293961
0.6215293964
0.6215293964
0.621529396
0.6215293963
0.6215293959
0.6215293957
0.6215293943
0.6215293902
0.6215293737
0.6215293192
0.6215291487
0.6215286662
0.6215274811
0.6215293964
0.6215293965
0.6215293959
0.6215293965
0.6215293963
0.6215293964
0.6215293963
0.6215293954
0.6215293926
0.6215293836
0.6215293553
0.621529272
0.6215290505
0.621528532
0.6215293964
0.6215293966
0.6215293966
0.6215293967
0.6215293969
0.6215293966
0.6215293967
0.6215293958
0.6215293939
0.6215293885
0.6215293723
0.6215293266
0.6215292106
0.6215289497
0.6215284341
0.6215293961
0.6215293961
0.6215293962
0.6215293958
0.6215293962
0.6215293961
0.6215293962
0.6215293957
0.6215293947
0.6215293911
0.6215293803
0.6215293525
0.6215292846
0.621529134
0.6215293963
0.6215293962
0.6215293962
0.6215293962
0.6215293963
0.6215293966
0.6215293959
0.6215293958
0.6215293939
0.6215293886
0.6215293719
0.6215293264
0.6215292106
0.6215289486
0.6215293964
0.6215293962
0.6215293965
0.6215293965
0.6215293962
0.6215293961
0.6215293961
0.6215293953
0.6215293923
0.6215293829
0.6215293546
0.6215292715
0.6215290517
0.6215285401
0.6215293964
0.621529396
0.6215293963
0.6215293961
0.621529396
0.6215293958
0.6215293957
0.6215293946
0.6215293911
0.6215293776
0.6215293332
0.6215291989
0.6215288302
0.6215279406
0.6215293959
0.6215293959
0.621529396
0.621529396
0.6215293963
0.6215293957
0.6215293955
0.6215293945
0.6215293902
0.6215293742
0.6215293208
0.6215291555
0.6215286842
0.6215275117
0.6215293963
0.6215293966
0.6215293962
0.6215293962
0.6215293963
0.6215293961
0.6215293961
0.6215293948
0.6215293911
0.6215293774
0.6215293331
0.6215291989
0.6215288298
0.6215279411
0.6215293962
0.6215293965
0.6215293962
0.621529396
0.6215293959
0.621529396
0.6215293962
0.6215293947
0.6215293922
0.6215293832
0.6215293546
0.6215292709
0.6215290516
0.6215285404
0.621529396
0.621529396
0.6215293961
0.621529396
0.6215293961
0.621529396
0.6215293958
0.6215293951
0.6215293939
0.6215293887
0.6215293719
0.6215293261
0.6215292106
0.6215289488
0.6215293966
0.6215293964
0.621529396
0.6215293964
0.6215293962
0.6215293962
0.6215293961
0.6215293958
0.6215293943
0.6215293908
0.6215293806
0.6215293527
0.6215292843
0.6215291338
)
;

boundaryField
{
    top
    {
        type            zeroGradient;
    }
    bottom
    {
        type            zeroGradient;
    }
    side-walls
    {
        type            zeroGradient;
    }
    inlet
    {
        type            zeroGradient;
    }
    outlet
    {
        type            zeroGradient;
    }
    procBoundary0to1
    {
        type            processor;
        value           nonuniform List<scalar> 
97
(
0.6215283199
0.6215284343
0.6215275616
0.6215258857
0.6215234262
0.6215216677
0.6215234262
0.621525886
0.6215275618
0.6215283199
0.6215284343
0.6215284343
0.6215258506
0.6215251117
0.6215215379
0.6215138629
0.6215066091
0.6215138637
0.6215215391
0.621525851
0.6215275622
0.6215275309
0.6215251117
0.6215251117
0.6215087799
0.6214996678
0.6214803574
0.6214430682
0.6214803595
0.6215087815
0.621521539
0.6215258858
0.6215261724
0.6215206429
0.6214996678
0.6214996678
0.6213827727
0.6212252964
0.621190967
0.6213827813
0.6214803595
0.6215138639
0.6215234262
0.6215251512
0.6215159697
0.6214710617
0.6212252964
0.6212252964
0.6203638444
0.6212252988
0.6211909659
0.6214275973
0.621443067
0.6215066083
0.6215216677
0.6215261719
0.6215206434
0.621499672
0.6214275999
0.6212252988
0.6214275973
0.6214275973
0.6214803574
0.6215176983
0.6215138624
0.6215234262
0.6215275305
0.6215251123
0.6215177001
0.6214996721
0.6214710626
0.6214996724
0.6215176983
0.6215176983
0.621521538
0.621527507
0.6215258856
0.6215284338
0.6215275066
0.6215251123
0.6215206429
0.6215159699
0.6215206433
0.6215251125
0.621527507
0.621527507
0.6215275615
0.621528837
0.6215288368
0.6215284338
0.6215275304
0.6215261718
0.6215251508
0.6215261723
0.6215275307
0.6215284343
0.621528837
)
;
    }
}


// ************************************************************************* //
