/*--------------------------------*- C++ -*----------------------------------*\
| =========                 |                                                 |
| \\      /  F ield         | OpenFOAM: The Open Source CFD Toolbox           |
|  \\    /   O peration     | Version:  4.x                                   |
|   \\  /    A nd           | Web:      www.OpenFOAM.org                      |
|    \\/     M anipulation  |                                                 |
\*---------------------------------------------------------------------------*/
FoamFile
{
    version     2.0;
    format      ascii;
    class       surfaceScalarField;
    location    "5000";
    object      phi;
}
// * * * * * * * * * * * * * * * * * * * * * * * * * * * * * * * * * * * * * //

dimensions      [1 0 -1 0 0 0 0];

internalField   nonuniform List<scalar> 
3175
(
9.49782874e-06
-6.180723244e-13
4.523382438e-13
9.497828895e-06
-1.554112189e-12
-7.244267421e-14
9.497830583e-06
-6.262666525e-13
1.77214939e-13
9.497831339e-06
-2.999321459e-13
-4.819950272e-14
9.497829332e-06
-6.542372059e-13
3.364188757e-13
9.497831037e-06
-5.692503122e-15
-2.52715558e-13
9.497834888e-06
-5.76106655e-13
-1.971993115e-12
9.497834536e-06
-1.776791542e-12
-7.089302124e-14
9.497835048e-06
-2.781572145e-12
-2.028714842e-12
9.497840195e-06
-3.87505943e-12
-4.351410075e-12
9.497847291e-06
-6.539921027e-12
-3.562027186e-12
9.497861883e-06
-7.259436866e-12
-3.673790337e-12
9.497885927e-06
-1.45279581e-11
-1.33127883e-11
9.49790726e-06
-1.208337052e-11
-1.142510414e-11
-3.68687621e-11
9.497819639e-06
3.017565836e-13
1.519323006e-13
9.497821523e-06
2.162424863e-13
5.71117614e-13
9.497823417e-06
-1.095418905e-12
1.005054014e-12
9.497821538e-06
-2.078665503e-12
-6.40496292e-13
9.497820341e-06
-9.990615695e-14
-3.903680302e-13
9.497822168e-06
3.488597631e-13
1.274473221e-13
9.497824715e-06
2.19241749e-13
-4.932058743e-13
9.497824027e-06
-1.652798105e-12
-1.4056249e-12
9.497824753e-06
-3.015291934e-12
-2.379298884e-12
9.497830127e-06
-3.155424318e-12
-2.330038488e-12
9.497836277e-06
-6.974883748e-12
-3.591939189e-12
9.497846263e-06
-1.105549277e-11
-5.755525348e-12
9.497873143e-06
-2.33696511e-11
-1.450877527e-11
9.497892363e-06
-2.175735649e-11
-1.111736876e-11
-7.192049466e-11
-5.49706408e-11
9.497846972e-06
-1.149857727e-13
-7.405810627e-13
9.497847304e-06
-2.458479247e-13
-3.337739077e-13
9.497850107e-06
1.509993026e-12
1.538524682e-12
9.497847777e-06
-8.256399787e-13
3.235092356e-13
9.4978467e-06
-2.2612607e-12
-5.966182183e-13
9.497848003e-06
-4.243250074e-13
-6.307399739e-13
9.497846073e-06
-2.149953348e-12
-1.394100637e-12
9.49784568e-06
-2.828009741e-12
-1.386186884e-12
9.497848728e-06
-8.768559416e-13
-2.177308813e-12
9.497848797e-06
-3.401844846e-12
-3.521647168e-12
9.497850673e-06
-6.199598955e-12
-4.5730271e-12
9.497861199e-06
-8.014849279e-12
-6.950346517e-12
9.497880018e-06
-2.16520397e-11
-2.096871044e-11
9.497896598e-06
-1.947207914e-11
-1.94177433e-11
-8.931605059e-11
-1.244626827e-10
9.497847237e-06
-1.126026807e-12
-3.601083644e-13
9.497848057e-06
-1.058075711e-12
-3.914926598e-13
9.497846988e-06
-2.032087181e-12
4.137772332e-13
9.49784881e-06
-5.795398158e-13
-4.282102402e-15
9.497849677e-06
-3.187942228e-13
1.476718273e-13
9.497847631e-06
-1.674631145e-12
-3.929641039e-13
9.49784487e-06
-6.456252826e-13
-8.484622903e-13
9.497847931e-06
4.104756602e-13
-8.728758944e-13
9.497846551e-06
-7.675773477e-13
-1.15346989e-12
9.497848761e-06
-1.713362335e-12
-2.741362082e-12
9.497851215e-06
-5.370562529e-12
-1.324031026e-12
9.497860598e-06
-9.778654858e-12
-7.035183493e-12
9.497876546e-06
-2.288816588e-11
-1.40614233e-11
9.497898732e-06
-2.825437083e-11
-1.486420593e-11
-8.670788052e-11
-1.861692016e-10
9.497804552e-06
-6.120218665e-13
-1.767613331e-12
9.49780359e-06
-1.634067448e-12
-1.003715933e-12
9.497805524e-06
-1.034829381e-12
7.290677315e-13
9.497806367e-06
-1.203415076e-12
-3.664542021e-13
9.497806641e-06
6.066600193e-13
-8.129466019e-13
9.4978067e-06
7.041272469e-13
-5.116739804e-13
9.497803819e-06
-5.876327351e-13
-4.563143419e-13
9.49780387e-06
4.966115813e-14
-1.562243353e-12
9.497801834e-06
1.270925628e-12
-3.047110043e-12
9.497796957e-06
2.399025269e-12
-3.737268565e-12
9.497793092e-06
5.111027013e-12
-3.887770303e-12
9.497790444e-06
9.319516895e-12
-1.720717003e-11
9.497785413e-06
2.351416029e-11
-3.829080881e-11
9.497800903e-06
2.79468202e-11
-6.850807029e-11
8.639793503e-11
-4.8442863e-10
9.497800836e-06
-1.216669657e-12
4.568224582e-13
9.497800386e-06
-1.268089295e-12
1.069693517e-13
9.497799951e-06
-1.178413551e-12
3.52289207e-13
9.497803443e-06
-2.618545419e-13
2.441650415e-13
9.497802645e-06
-3.886145963e-13
-1.062944473e-12
9.49780232e-06
-2.966121596e-13
-1.971320562e-12
9.497801069e-06
-8.114023111e-13
-2.332028134e-13
9.49780304e-06
1.04695383e-12
1.715096556e-15
9.497800635e-06
1.231529821e-12
-1.050432086e-12
9.497801612e-06
2.904978563e-12
-3.137632225e-12
9.497805583e-06
6.797750349e-12
-8.906914955e-13
9.497815777e-06
9.856422128e-12
-6.43818197e-12
9.497829384e-06
2.132596675e-11
-1.51134415e-11
9.497853179e-06
1.974485208e-11
-1.294412755e-11
8.90346374e-11
-1.863394679e-10
9.497829478e-06
-3.8498549e-13
2.336605e-12
9.497829886e-06
-1.600826614e-13
2.056471162e-12
9.497829671e-06
-4.329280192e-13
1.204734432e-12
9.497830194e-06
4.885715692e-13
2.323651362e-13
9.497829657e-06
3.657401011e-13
-4.857191921e-13
9.497828452e-06
4.880767013e-14
-1.064418048e-12
9.497828922e-06
1.503311875e-12
-5.616132023e-13
9.497831121e-06
2.736973387e-12
-9.164206343e-13
9.497829098e-06
1.347326359e-12
-5.140365077e-13
9.497832447e-06
4.05320893e-12
-1.907928857e-12
9.497834744e-06
6.559062417e-12
-3.033663994e-12
9.49784197e-06
1.032142125e-11
-7.876868391e-12
9.497863333e-06
2.356280073e-11
-2.132798729e-11
9.497881143e-06
2.011408187e-11
-1.908093071e-11
7.262985693e-11
-1.226664116e-10
9.497823957e-06
1.170050564e-12
2.078403668e-12
9.497825447e-06
1.067281282e-12
1.726760659e-12
9.497826138e-06
1.325975772e-12
2.13739014e-12
9.497824756e-06
1.31335723e-12
-8.146786061e-13
9.497826958e-06
6.593000609e-13
3.929791116e-13
9.497827494e-06
1.78257747e-12
-1.737420208e-12
9.49782761e-06
8.911796115e-13
-6.760403305e-13
9.497828801e-06
-8.034629333e-13
-2.869275765e-12
9.497829485e-06
-6.239244871e-13
-1.500704242e-12
9.497833492e-06
1.005366953e-12
-1.855717287e-12
9.497840753e-06
4.031653104e-12
-2.985131951e-12
9.497849793e-06
5.541029834e-12
-5.219055934e-12
9.497875752e-06
1.165151635e-11
-1.589586698e-11
9.497897674e-06
9.223876237e-12
-1.133149564e-11
3.571855395e-11
-5.562629874e-11
9.497804249e-06
3.435324999e-13
9.4978049e-06
8.145405499e-13
9.497804709e-06
-8.125154138e-14
9.497804369e-06
-3.548304529e-13
9.497806215e-06
9.150568631e-14
9.497804783e-06
-1.138760476e-12
9.497804479e-06
-2.336003891e-14
9.4978065e-06
-7.668908315e-14
9.497809276e-06
-7.205206247e-13
9.497814495e-06
-1.222838512e-12
9.497823209e-06
-2.770397839e-12
9.497832411e-06
-5.096559823e-12
9.497860084e-06
-1.34266417e-11
9.497881676e-06
-1.0367756e-11
-3.489797207e-11
9.497839011e-06
-3.359297919e-13
1.547760418e-13
9.497838083e-06
-5.820988003e-13
2.615179261e-13
9.497838257e-06
-2.911321354e-15
-4.888667247e-13
9.49783851e-06
1.357416739e-14
1.505673874e-13
9.497837378e-06
-1.064068482e-12
-3.964052149e-14
9.497838588e-06
8.77725785e-13
-2.17776813e-13
9.497844328e-06
1.296720135e-12
-1.043340397e-12
9.497841709e-06
-2.594837e-12
-2.463925909e-12
9.497843151e-06
-3.833738631e-12
-2.30224011e-12
9.497850027e-06
-3.777549108e-12
-2.995249368e-12
9.49785331e-06
-7.008738611e-12
-7.351199857e-12
9.497860706e-06
-9.091530259e-12
-1.059423001e-11
9.497887542e-06
-1.610133607e-11
-2.460757352e-11
-1.201294558e-11
-2.002432728e-11
9.49781277e-06
-4.971897442e-13
1.48379531e-13
9.497813718e-06
-5.956895885e-13
6.080088952e-13
9.497812712e-06
-1.296462699e-12
-8.898826953e-13
9.497813354e-06
-1.174470822e-13
1.431634841e-12
9.497814288e-06
-2.818456899e-13
-6.355000594e-13
9.497814967e-06
9.203281248e-13
-3.178831446e-13
9.497815883e-06
-3.700399248e-13
-1.060554878e-12
9.497817839e-06
-6.043295438e-13
-1.531322441e-12
9.497821063e-06
-2.327929858e-12
-8.64105316e-13
9.497823984e-06
-4.12002612e-12
-2.284729951e-12
9.497828316e-06
-6.760060523e-12
-4.979577932e-12
9.497839763e-06
-1.029371744e-11
-1.061400858e-11
9.497861382e-06
-2.623630788e-11
-2.727094999e-11
9.497884196e-06
-2.161433711e-11
-2.147836022e-11
-1.180849043e-10
9.497803915e-06
4.303314183e-13
2.77244073e-13
9.497804669e-06
-1.235979892e-12
1.443573351e-12
9.497804596e-06
-4.936913091e-13
5.903304255e-13
9.497804336e-06
-1.139702823e-12
-6.914368311e-13
9.497805272e-06
-1.043461259e-12
-2.273795558e-13
9.497805325e-06
3.691930986e-13
-8.068239608e-13
9.497805024e-06
-9.810416258e-13
-5.365321904e-13
9.4978045e-06
-1.979435131e-12
-1.640721581e-12
9.497807183e-06
-3.705449988e-13
-2.033229506e-12
9.497807286e-06
-3.242428153e-12
-5.69162831e-12
9.497806069e-06
-4.127877332e-12
-7.290723186e-12
9.497812287e-06
-9.939689183e-12
-1.643482255e-11
9.497826343e-06
-2.358042736e-11
-3.646931812e-11
9.497850109e-06
-2.260942488e-11
-4.149711297e-11
-1.685012966e-10
-2.823062971e-10
9.497860721e-06
-1.991962797e-12
3.640154771e-13
9.497860912e-06
-4.337439083e-13
5.082817566e-13
9.497859203e-06
-6.891967071e-13
1.321334825e-13
9.497859235e-06
-1.711797864e-12
6.174927608e-13
9.497862063e-06
-1.712742539e-12
-2.982898614e-14
9.497860118e-06
-1.214790683e-12
-2.759487943e-13
9.49786105e-06
-4.073153542e-13
-4.403474473e-14
9.497861321e-06
-6.256537078e-13
-1.68272115e-12
9.497859625e-06
-2.175317982e-12
-1.769193631e-12
9.497862374e-06
-2.052149916e-12
-4.885637495e-12
9.497862456e-06
-7.289891909e-12
-8.263792122e-13
9.497876206e-06
-1.326126038e-11
-1.535444576e-11
9.497879453e-06
-3.233605585e-11
-1.340802158e-11
9.497932222e-06
-4.500253133e-11
-4.193205865e-11
-1.76370074e-10
-4.486903717e-10
9.497839034e-06
9.044738906e-13
1.842997645e-12
9.497839398e-06
2.084624142e-13
5.947405465e-13
9.4978378e-06
-1.555809908e-12
-2.737782215e-13
9.497837468e-06
4.663372731e-14
8.193700845e-13
9.497838266e-06
2.520213145e-13
1.673189991e-12
9.497835984e-06
-1.309584769e-12
7.993433272e-13
9.497834133e-06
-5.312427651e-13
-6.771060331e-13
9.497834177e-06
1.600784871e-12
-1.30747738e-12
9.497830918e-06
2.074271229e-12
-2.12104309e-12
9.497826806e-06
2.757173141e-12
-7.740632231e-12
9.497817091e-06
6.549425176e-12
-2.007669175e-12
9.497810678e-06
1.305741856e-11
-3.888547095e-11
9.49776428e-06
3.129608159e-11
-5.493360226e-11
9.49780914e-06
4.524817843e-11
-2.046558462e-10
1.748708514e-10
-1.379075763e-09
9.497857555e-06
6.847155363e-13
1.082966204e-12
9.497858473e-06
3.370728463e-13
8.087561261e-13
9.497857308e-06
1.887264361e-14
2.493748117e-13
9.497856905e-06
-8.48313309e-13
-4.483992201e-13
9.497855661e-06
-1.459021979e-12
-3.664666473e-13
9.497855978e-06
-5.695780014e-14
1.052893707e-12
9.497855015e-06
-1.425879053e-13
-6.201641317e-13
9.497855353e-06
-5.908679075e-13
-1.985104119e-12
9.497854638e-06
2.2027472e-12
-7.897035567e-13
9.497857185e-06
3.924301716e-12
-4.85738415e-12
9.497858057e-06
5.081537335e-12
-1.937585225e-13
9.497870401e-06
9.207332592e-12
-1.534768706e-11
9.497877622e-06
2.326397197e-11
-1.298842822e-11
9.497928544e-06
2.171838858e-11
-4.131158903e-11
1.701530598e-10
-4.465108052e-10
9.497787966e-06
2.959064907e-13
6.61026062e-13
9.497789354e-06
-9.963526907e-13
7.621604528e-13
9.497787682e-06
-2.258648713e-13
4.913244354e-13
9.497789315e-06
-4.627610462e-13
1.212053018e-12
9.497792283e-06
1.989362908e-12
1.062485021e-12
9.497791101e-06
-2.335674439e-14
-9.519350526e-13
9.497790315e-06
1.639046957e-12
3.332953647e-14
9.497792131e-06
5.019072364e-13
-1.641926082e-12
9.497788568e-06
8.339547907e-13
-3.20622178e-12
9.497790607e-06
3.848343295e-12
-5.830628806e-12
9.49779075e-06
5.601515469e-12
-6.407906848e-12
9.49780061e-06
1.081930864e-11
-1.469121326e-11
9.497813739e-06
2.58947493e-11
-3.515677377e-11
9.497839206e-06
2.229122411e-11
-4.189728104e-11
1.183358919e-10
-2.806503416e-10
9.497861059e-06
-9.365690432e-13
7.921280516e-13
9.497863405e-06
1.365682341e-12
2.446388533e-13
9.497861697e-06
5.04381979e-13
5.227644872e-13
9.497863356e-06
1.399177233e-12
9.933092543e-13
9.497862544e-06
-2.754645112e-13
7.825757393e-14
9.497867593e-06
2.170825289e-12
2.894365899e-13
9.497865765e-06
6.275453109e-13
-1.129115323e-12
9.497868147e-06
8.859663402e-13
-1.375340453e-12
9.497867144e-06
5.613687354e-13
-3.047714971e-12
9.497866586e-06
3.835461121e-13
-4.51497191e-12
9.497872444e-06
3.549388621e-12
-6.209591954e-12
9.497883279e-06
5.177239234e-12
-1.16514141e-11
9.497904069e-06
1.343595507e-11
-2.680811234e-11
9.497927997e-06
9.940375785e-12
-2.040922738e-11
5.658903226e-11
-1.171503694e-10
9.497797633e-06
6.093754077e-13
9.497796545e-06
-2.776506382e-13
9.497794364e-06
-4.954625677e-13
9.497795901e-06
4.213081656e-14
9.49779738e-06
-3.681593369e-13
9.497797939e-06
-2.125084318e-13
9.497798321e-06
-7.142016168e-14
9.497800263e-06
-1.563493955e-13
9.497799992e-06
-8.762299619e-13
9.497805034e-06
-2.191363181e-12
9.497811841e-06
-6.307278627e-12
9.49782326e-06
-9.257605998e-12
9.497849959e-06
-2.177630511e-11
9.497872095e-06
-1.8815814e-11
-7.213551004e-11
9.497835942e-06
-6.786251206e-13
-2.804754954e-13
9.497834977e-06
-8.338724035e-13
-1.474361976e-12
9.497836473e-06
-6.964182995e-13
-7.465766272e-13
9.497835731e-06
1.533466548e-13
-1.269684056e-12
9.497835596e-06
-6.351496557e-13
-1.541660629e-12
9.497834797e-06
1.647680625e-12
-2.89340867e-13
9.49783898e-06
1.037054778e-12
5.20866894e-14
9.497839545e-06
-6.046649954e-13
-6.199710899e-13
9.497839512e-06
-1.657516322e-12
-1.278130372e-12
9.49784035e-06
-4.989862003e-12
-3.140277995e-12
9.497841708e-06
-5.449056375e-12
-6.404903385e-12
9.497846507e-06
-1.016770102e-11
-8.20927638e-12
9.497869757e-06
-2.293572524e-11
-1.970819417e-11
-1.970774207e-11
-1.828478151e-11
9.497836665e-06
-3.54957817e-13
-8.599946201e-13
9.497835901e-06
3.164463738e-13
-8.275165387e-13
9.497839235e-06
9.951143787e-13
1.006137272e-13
9.497837582e-06
-9.954359816e-13
-1.320276856e-12
9.497838878e-06
5.709854006e-13
-5.865568616e-13
9.49783898e-06
5.406472035e-14
-1.022907357e-12
9.497840638e-06
7.379046486e-13
-1.872681729e-12
9.497842649e-06
-1.219629302e-12
-8.551911222e-13
9.497841752e-06
-2.540999329e-12
-8.590694515e-14
9.497844114e-06
-6.231831319e-12
-3.176395305e-12
9.497841008e-06
-7.581144085e-12
-4.612138459e-12
9.497849506e-06
-1.594610761e-11
-8.994741208e-12
9.497865311e-06
-3.554993249e-11
-2.278811742e-11
-4.290451615e-11
-2.034073013e-11
9.497851342e-06
6.04408029e-13
9.220117256e-13
9.497851365e-06
-1.204721269e-12
-1.07196597e-14
9.497849681e-06
-1.570176136e-12
-1.531325368e-12
9.497851052e-06
-3.374109389e-14
-6.665620224e-13
9.497850094e-06
-1.331131097e-12
-1.730040201e-12
9.497850295e-06
2.812160191e-13
-7.614271568e-13
9.497849017e-06
-7.959121167e-13
-1.259470275e-12
9.497848653e-06
-1.761999678e-12
-1.50309016e-12
9.497847558e-06
-6.929513776e-13
-7.659237589e-13
9.497848014e-06
-3.550440148e-12
-2.967864135e-12
9.497839652e-06
-3.1546034e-12
-2.475200955e-12
9.497838648e-06
-1.611873481e-11
-1.542532733e-11
9.497824423e-06
-3.154086441e-11
-3.251368547e-11
9.497855558e-06
-6.086623954e-11
-5.893543179e-11
-4.842718353e-10
9.497816135e-06
-4.50645369e-13
1.232644371e-12
9.497817494e-06
1.859667927e-13
1.177119426e-12
9.497818203e-06
-8.93206134e-13
-8.919046836e-13
9.497815282e-06
-1.316803178e-12
-1.61441644e-13
9.497818652e-06
4.516977644e-13
8.458639325e-13
9.497816528e-06
-5.14932236e-13
-8.394893301e-13
9.497815492e-06
-3.441606435e-14
-5.111076516e-13
9.497814232e-06
-2.59347163e-14
-8.811353716e-13
9.497812441e-06
-1.345189741e-12
5.67715932e-13
9.497812357e-06
-3.52259004e-12
-2.824263958e-12
9.497810012e-06
-6.056329857e-12
8.354989437e-12
9.497818007e-06
-2.515725862e-11
-1.429377047e-11
9.49780056e-06
-5.552548599e-11
2.55588707e-11
9.49789721e-06
-1.166365287e-10
-7.943380516e-11
-5.2404648e-10
-9.180681729e-10
9.497881682e-06
2.447188058e-13
5.680199426e-13
9.497881569e-06
-1.034011388e-13
2.798776827e-13
9.497880886e-06
-4.688691945e-13
2.395441283e-13
9.497880734e-06
-1.534851267e-12
-3.128740205e-13
9.497881152e-06
-1.698527713e-12
3.18446624e-13
9.497881535e-06
-5.791030507e-13
-7.270380438e-13
9.497879887e-06
-5.24687642e-13
-1.25637591e-12
9.497876986e-06
1.223270666e-12
-1.544497102e-12
9.497874904e-06
2.739940879e-12
7.639139964e-13
9.497864222e-06
4.491119495e-12
-5.502167287e-12
9.497836153e-06
6.659976186e-12
6.228597875e-12
9.497798749e-06
2.539415216e-11
-5.086641167e-11
9.49764182e-06
5.611495454e-11
-9.970465945e-12
9.497682021e-06
1.178179999e-10
-4.796562635e-10
5.254946777e-10
-3.753566504e-09
9.497839174e-06
4.702056794e-13
8.966231249e-13
9.497838614e-06
-2.664717034e-13
-2.960886473e-13
9.497838682e-06
9.400795787e-13
1.850600054e-13
9.497839099e-06
1.811405342e-13
1.269792761e-12
9.497838629e-06
-8.144286726e-13
8.347052802e-13
9.497836248e-06
-1.32157058e-12
-1.532164689e-12
9.49783607e-06
4.008642592e-13
-9.558041621e-13
9.497835538e-06
9.663505417e-13
-1.536135789e-12
9.497832501e-06
-1.109669672e-13
-7.351593469e-13
9.497833917e-06
3.342638495e-12
-1.865983973e-12
9.497831047e-06
2.230751985e-12
7.697901796e-12
9.497838294e-06
1.661350607e-11
-1.632077596e-11
9.497821873e-06
3.109876104e-11
2.331245963e-11
9.497918302e-06
5.895884503e-11
-7.969491868e-11
4.8540632e-10
-9.181776166e-10
9.497870025e-06
-1.971226451e-13
9.604685042e-15
9.497872558e-06
-4.361132634e-13
1.392312257e-13
9.497871558e-06
-2.880947739e-13
-2.904889455e-13
9.497871859e-06
1.461819628e-13
3.635492927e-13
9.497873186e-06
1.575604052e-12
2.03492562e-12
9.497875462e-06
1.326726309e-12
1.050775652e-12
9.49787256e-06
1.150153086e-12
6.825241649e-13
9.497871578e-06
7.923381141e-13
-2.950740959e-12
9.49786814e-06
1.265250625e-12
-1.486342575e-12
9.497868411e-06
5.410555633e-12
-3.330810643e-12
9.49786022e-06
5.690945465e-12
-2.092869857e-12
9.497857967e-06
1.385582245e-11
-1.722578448e-11
9.497844779e-06
3.491256372e-11
-3.243875592e-11
9.497878749e-06
4.26326609e-11
-5.918001957e-11
2.818096671e-10
-4.854239816e-10
9.497765862e-06
-9.457568299e-13
4.056729806e-13
9.497768067e-06
1.162270863e-12
4.408507954e-13
9.497767359e-06
7.681740669e-14
-9.056651856e-13
9.497768661e-06
5.714348586e-14
-1.265066706e-12
9.497766436e-06
-9.100716666e-13
-4.863476763e-13
9.49776881e-06
7.722500112e-13
-1.720517405e-13
9.497765973e-06
1.053239063e-12
-9.791897586e-13
9.497767373e-06
1.495845477e-12
-3.292683228e-13
9.497768442e-06
2.773321729e-12
-3.550287226e-13
9.49776626e-06
3.418980381e-12
-2.362919101e-12
9.497765594e-06
4.03543946e-12
-2.528083866e-12
9.497776463e-06
9.564279047e-12
-8.47731481e-12
9.497789962e-06
2.30460441e-11
-2.285979723e-11
9.49781367e-06
1.929319014e-11
-2.191908418e-11
1.243185852e-10
-1.690711314e-10
9.497852561e-06
2.325078255e-13
9.49785281e-06
-6.348031673e-13
9.497853953e-06
1.218160311e-13
9.497854344e-06
1.568590921e-13
9.497855346e-06
-4.188659102e-13
9.497856586e-06
-5.315415743e-13
9.497855433e-06
-1.379695015e-12
9.497857311e-06
-1.507307255e-12
9.497856562e-06
-1.457943073e-12
9.497857732e-06
-2.253320361e-12
9.497860167e-06
-3.882151125e-12
9.497868477e-06
-7.983728715e-12
9.497889859e-06
-2.276293991e-11
9.497905904e-06
-2.070282786e-11
-9.005376215e-11
9.497830456e-06
-1.050852722e-12
5.332211984e-13
9.497832142e-06
-4.060011611e-13
1.473520206e-12
9.49783186e-06
-2.44311401e-13
7.377415859e-13
9.497831834e-06
1.465316442e-12
1.063391359e-12
9.497831443e-06
9.232070098e-13
-2.351307288e-13
9.49783198e-06
1.038879911e-12
1.319101999e-12
9.497832354e-06
-9.995703241e-14
6.467339524e-13
9.497833567e-06
-1.446892282e-12
2.41841416e-13
9.497831475e-06
-1.581683337e-12
-1.003033949e-12
9.497833212e-06
-4.890776924e-12
-2.292066367e-12
9.497834822e-06
-3.010942101e-12
-4.580909686e-12
9.497844631e-06
-9.378689351e-12
-8.755545098e-12
9.497859952e-06
-1.567684221e-11
-2.280900651e-11
-1.25776008e-11
-2.719886122e-11
9.497812097e-06
1.053075058e-12
1.510661621e-12
9.497810757e-06
7.942690185e-14
1.366665792e-12
9.497809802e-06
-2.27183712e-13
1.529779133e-12
9.497808771e-06
8.87170349e-13
1.67443797e-15
9.497808668e-06
-9.789076887e-13
-3.36369066e-13
9.497809155e-06
3.518517751e-13
-1.060371885e-12
9.497810013e-06
8.829203167e-13
-7.310650465e-13
9.49781204e-06
-1.179876277e-12
-1.344524607e-15
9.497808346e-06
-2.853275593e-12
-2.061117707e-12
9.497811661e-06
-4.865780006e-12
-1.55664998e-12
9.497810002e-06
-1.670952374e-12
-5.485893826e-12
9.497824339e-06
-1.654182949e-11
-1.264188851e-11
9.497831473e-06
-1.492019186e-11
-3.093026801e-11
-4.291270212e-11
-4.473359398e-11
9.497840569e-06
1.482357973e-12
8.830835946e-13
9.49784032e-06
3.192271495e-13
3.381068456e-13
9.497841339e-06
-5.87974287e-13
-8.062284134e-13
9.497838686e-06
-8.606729442e-13
-4.561635601e-13
9.497841473e-06
1.108978669e-12
1.545203703e-12
9.497839232e-06
-1.591086529e-13
1.525384121e-12
9.497841078e-06
3.129888172e-13
-2.485053783e-13
9.497841451e-06
-1.137497086e-12
-2.595145386e-12
9.49783939e-06
-6.447002719e-13
-1.168042101e-12
9.497839863e-06
-3.869875808e-12
-3.551365694e-12
9.497838037e-06
8.318363436e-12
-5.713324776e-12
9.497845094e-06
-1.511914329e-11
-2.339627522e-11
9.49783108e-06
2.762925684e-11
-5.271801655e-11
-8.038994579e-11
-1.160735254e-10
9.497810588e-06
-9.022334366e-13
-2.607187416e-13
9.497809881e-06
-1.367761624e-12
-4.493043633e-13
9.497813754e-06
-7.873247594e-14
-1.294392542e-12
9.497810506e-06
-1.593917257e-12
-4.926090102e-13
9.497810638e-06
-6.068857991e-13
-4.224923053e-13
9.497810994e-06
-1.373672912e-13
-6.730742784e-15
9.497811371e-06
-4.301081733e-13
7.939303474e-14
9.497811679e-06
-6.018091365e-13
-6.419356991e-13
9.497817113e-06
-8.919285477e-14
1.157928069e-12
9.497819658e-06
-3.743510001e-12
-3.273852817e-12
9.49784473e-06
-3.190942059e-12
-1.864924074e-12
9.497880399e-06
-3.625146012e-11
-3.336158841e-11
9.498009066e-06
-4.016402958e-11
-3.835363816e-11
9.498299091e-06
-2.25135623e-10
-2.227674071e-10
-9.781766017e-10
9.497815925e-06
3.402490717e-13
1.118694433e-12
9.497814114e-06
-8.300183639e-13
-5.366081007e-13
9.497816356e-06
-4.956130336e-13
-9.706034753e-13
9.497818147e-06
-2.318382199e-13
6.356177786e-14
9.497817889e-06
-1.549549425e-12
-5.139694438e-13
9.497816956e-06
-2.285161117e-12
-3.746010962e-13
9.497815591e-06
-5.210416938e-13
5.036104502e-13
9.497812277e-06
2.064482062e-14
-1.804267071e-12
9.497812942e-06
1.3289701e-12
-1.225657557e-12
9.497801683e-06
4.686042296e-12
-8.77000961e-12
9.497811525e-06
3.857046665e-12
-6.436751298e-12
9.497771853e-06
3.440966758e-11
-7.645320684e-11
9.497806641e-06
3.853107677e-11
-1.219808606e-10
9.497993662e-06
2.247883994e-10
-1.117771891e-09
9.789588849e-10
-7.005651715e-09
9.49785453e-06
-4.387813948e-13
-7.761893287e-14
9.497855753e-06
3.379826269e-13
1.731302548e-12
9.497854875e-06
1.400053026e-13
1.493364229e-12
9.497856261e-06
3.238187428e-13
2.368438941e-12
9.49785578e-06
1.108314459e-12
1.308406073e-12
9.497856875e-06
1.368251499e-12
6.110826753e-13
9.497856122e-06
1.909050868e-12
-7.015971749e-14
9.497856207e-06
6.263702873e-14
-7.235605095e-13
9.497859445e-06
-4.540413596e-13
-3.531794636e-13
9.497861948e-06
2.981284578e-12
-6.302999937e-12
9.497886097e-06
-7.743175739e-12
-2.858893437e-12
9.497925297e-06
1.58143402e-11
-3.403349966e-11
9.498054643e-06
-2.47098786e-11
-3.912149696e-11
9.49834139e-06
7.999159663e-11
-2.253523323e-10
9.187155941e-10
-9.805797408e-10
9.497812424e-06
-3.293088313e-13
-3.760291025e-13
9.497813999e-06
-1.386177562e-13
1.446242965e-12
9.497812419e-06
-1.782702388e-12
1.455469725e-12
9.4978125e-06
-1.285524938e-12
4.572686833e-13
9.497812804e-06
-3.369704733e-13
8.719144774e-14
9.497814141e-06
-1.501558669e-13
-2.428463959e-13
9.497809434e-06
-1.396127903e-12
-1.986049529e-12
9.497812894e-06
1.992335059e-12
-8.239109405e-13
9.497809799e-06
1.657896197e-12
-7.224401885e-13
9.497808179e-06
4.549542595e-12
-4.598925156e-12
9.497804892e-06
7.172369806e-13
-8.043789043e-12
9.497813209e-06
1.609106976e-11
-2.501614905e-11
9.497798761e-06
1.395316058e-11
-5.525015494e-11
9.497893738e-06
4.249996988e-11
-1.183269982e-10
4.471930282e-10
-5.264496201e-10
9.497843925e-06
-1.098640008e-12
5.979193877e-13
9.497844212e-06
-8.91139423e-13
1.548446696e-12
9.497844973e-06
1.188049094e-12
1.996848788e-12
9.497843879e-06
8.322494834e-13
1.106143282e-12
9.497842742e-06
-9.03475639e-13
8.907667098e-13
9.49784414e-06
8.811219911e-13
1.42338308e-12
9.497844657e-06
1.506893931e-12
1.569914732e-12
9.497843597e-06
1.092419653e-12
1.97208144e-13
9.497842532e-06
8.280170171e-13
-9.271196584e-13
9.497845855e-06
3.160697884e-12
-1.659323274e-12
9.49784359e-06
1.457080721e-12
-6.142930714e-12
9.497856919e-06
8.239347617e-12
-1.389388843e-11
9.497864212e-06
1.478816574e-11
-3.073545458e-11
9.497912907e-06
1.333270182e-11
-4.457123326e-11
1.863685297e-10
-1.728363286e-10
9.497832756e-06
6.412664862e-13
9.497834425e-06
9.16354846e-13
9.497834775e-06
5.680635143e-13
9.497834295e-06
1.151446518e-12
9.497834267e-06
1.989389659e-12
9.497835121e-06
1.95156935e-12
9.497834605e-06
5.545749416e-13
9.497836527e-06
-9.098902088e-13
9.497835567e-06
-1.846118487e-12
9.497836516e-06
-2.79139448e-12
9.497838058e-06
-4.789823755e-12
9.497848089e-06
-9.412859117e-12
9.49786489e-06
-2.151876618e-11
9.497888223e-06
-2.630440153e-11
-8.470885466e-11
9.497833703e-06
2.016663487e-13
1.278446572e-12
9.497834286e-06
1.763601004e-13
1.147898663e-12
9.497835079e-06
4.402326156e-13
-4.375532168e-13
9.497833834e-06
-6.843163791e-14
3.564043189e-13
9.497834903e-06
8.118781233e-13
2.008135004e-12
9.497834065e-06
3.199882302e-14
1.855195787e-12
9.497836038e-06
-1.548479409e-12
2.598933325e-13
9.497836238e-06
-1.35017147e-12
2.827922179e-13
9.497833732e-06
-2.01257821e-12
-6.242320589e-14
9.497832247e-06
-5.54490417e-12
2.05283647e-12
9.497826506e-06
-4.174599291e-12
4.547768329e-12
9.497826554e-06
-1.727053097e-11
9.365341263e-12
9.497820782e-06
-3.982982024e-11
2.28833569e-11
-6.777030595e-11
2.837071187e-11
9.497856363e-06
4.44200285e-13
1.490541795e-12
9.49785697e-06
2.248778483e-13
1.461798451e-13
9.497855423e-06
-9.926690455e-13
-1.136383292e-12
9.497854314e-06
-1.030853947e-12
2.873975725e-13
9.497855415e-06
5.068481644e-13
1.14549661e-13
9.497855138e-06
2.114612982e-12
2.458334927e-13
9.497857363e-06
2.696741908e-13
9.870933131e-13
9.497853723e-06
-3.387456711e-12
1.546345224e-13
9.497850256e-06
-2.277753768e-12
2.808535206e-12
9.497847484e-06
-7.175226299e-12
5.251628305e-12
9.497834805e-06
-3.952329387e-12
6.528491354e-12
9.497829835e-06
-3.874617395e-11
1.4231017e-11
9.497784324e-06
-5.484877107e-11
3.306961192e-11
-2.053875546e-10
4.512057351e-11
9.497845253e-06
1.109188707e-13
-1.097155486e-13
9.497842402e-06
-3.015354094e-14
1.714209771e-13
9.497846358e-06
-9.590598887e-13
1.409634256e-12
9.497845115e-06
1.681098543e-13
-8.446934762e-14
9.497845286e-06
-3.438445044e-13
-2.854811967e-13
9.497840745e-06
-1.376202348e-12
-5.518527045e-13
9.497842216e-06
4.112822004e-13
1.439259676e-12
9.497841953e-06
-5.497683425e-13
1.76089829e-12
9.497835849e-06
1.754558715e-12
3.037281454e-12
9.49782467e-06
-5.630674533e-12
4.725697303e-12
9.497800502e-06
7.782534257e-12
7.961361415e-12
9.497761116e-06
-5.016390596e-11
2.467490849e-11
9.497605407e-06
-1.028872239e-11
5.604167532e-11
-4.804579534e-10
1.190469557e-10
9.497808157e-06
1.172069413e-13
1.141420687e-12
9.497807027e-06
-1.139286798e-12
1.282577117e-12
9.49781302e-06
-4.820623921e-13
1.549771052e-12
9.497809979e-06
-7.693682208e-13
-1.341801424e-12
9.497810498e-06
-4.829696276e-14
-7.211409261e-13
9.497811755e-06
2.097086135e-13
-3.905571302e-13
9.497811411e-06
2.382663173e-13
-5.065536509e-13
9.497810481e-06
-1.34348182e-12
3.473301287e-13
9.497808981e-06
-2.598480629e-12
1.646156911e-12
9.497799657e-06
-9.444684787e-12
4.815055606e-12
9.497808851e-06
-7.959686048e-12
4.174003978e-12
9.497767964e-06
-7.993756964e-11
3.487812099e-11
9.497803026e-06
-1.244853998e-10
3.948860451e-11
-1.119470291e-09
2.254759613e-10
9.497801784e-06
-1.053455015e-12
2.897017605e-13
9.497802438e-06
1.098014796e-12
1.435904919e-12
9.497805015e-06
1.709861433e-12
2.078847656e-12
9.497801749e-06
1.085556372e-12
-1.289805714e-13
9.497800765e-06
8.003236087e-13
1.345637419e-13
9.497800877e-06
-2.926668748e-13
3.221259611e-13
9.497797969e-06
-4.358474021e-14
1.587802584e-12
9.497792508e-06
1.200032062e-12
6.25116099e-13
9.497785579e-06
8.632011374e-13
1.339705527e-13
9.497751112e-06
7.401404301e-12
9.011996351e-12
9.497716724e-06
6.694891831e-12
8.275688584e-12
9.497409349e-06
7.699655406e-11
7.834733196e-11
9.496919784e-06
1.21833716e-10
1.229108278e-10
9.492456273e-06
1.117527965e-09
1.118948045e-09
7.005191514e-09
9.497830812e-06
-2.056838065e-13
1.045099319e-12
9.497829142e-06
-8.587051329e-14
-1.142326045e-14
9.497830053e-06
3.159211685e-13
7.88883111e-13
9.497827876e-06
3.658840678e-14
-4.802210218e-13
9.497825943e-06
3.195787607e-14
-4.0173374e-13
9.497828584e-06
5.036954004e-13
2.02138071e-13
9.497826077e-06
-3.289414773e-13
8.484584772e-13
9.497823431e-06
1.042261369e-13
9.242935035e-13
9.497822853e-06
-9.719895483e-13
5.646473871e-13
9.497813393e-06
6.82788165e-12
5.835351561e-12
9.497819748e-06
-7.993363674e-12
4.483618781e-12
9.497779858e-06
4.998038085e-11
3.529926038e-11
9.497817092e-06
1.000933416e-11
3.918643833e-11
9.498004983e-06
4.798155727e-10
2.243510157e-10
3.754411372e-09
9.497807991e-06
5.428373489e-13
3.224789503e-13
9.497807363e-06
2.22551177e-13
-7.448508496e-13
9.497808228e-06
1.281538757e-13
5.921969182e-13
9.497807684e-06
-4.573168511e-13
-3.038763938e-14
9.49780687e-06
4.711637473e-13
-8.719291044e-14
9.497807084e-06
1.188908073e-12
1.122872351e-12
9.497807329e-06
2.001441005e-12
1.848808974e-12
9.497805343e-06
3.174849086e-12
1.297586151e-12
9.497802107e-06
2.172819649e-12
2.338841763e-12
9.497793683e-06
8.07932775e-12
5.078725132e-12
9.497768462e-06
4.82227264e-12
8.468268781e-12
9.497729722e-06
3.916892368e-11
2.598198351e-11
9.49757285e-06