/*--------------------------------*- C++ -*----------------------------------*\
| =========                 |                                                 |
| \\      /  F ield         | OpenFOAM: The Open Source CFD Toolbox           |
|  \\    /   O peration     | Version:  4.x                                   |
|   \\  /    A nd           | Web:      www.OpenFOAM.org                      |
|    \\/     M anipulation  |                                                 |
\*---------------------------------------------------------------------------*/
FoamFile
{
    version     2.0;
    format      ascii;
    class       volScalarField;
    location    "5000";
    object      T;
}
// * * * * * * * * * * * * * * * * * * * * * * * * * * * * * * * * * * * * * //

dimensions      [0 0 0 1 0 0 0];

internalField   nonuniform List<scalar> 
1175
(
1223.150408
1223.150362
1223.150273
1223.150299
1223.150359
1223.150393
1223.150343
1223.150238
1223.150228
1223.150269
1223.150203
1223.150253
1223.150303
1223.150277
1223.150365
1223.151491
1223.151578
1223.151498
1223.151462
1223.151401
1223.151352
1223.151397
1223.151503
1223.151509
1223.151416
1223.151426
1223.15149
1223.15138
1223.151369
1223.151406
1223.148221
1223.148211
1223.148282
1223.148208
1223.148155
1223.148238
1223.148088
1223.148159
1223.148141
1223.148216
1223.148269
1223.148342
1223.148281
1223.148425
1223.148378
1223.148068
1223.148091
1223.148066
1223.148044
1223.148023
1223.148025
1223.148191
1223.148172
1223.148322
1223.148319
1223.148258
1223.148166
1223.148158
1223.148056
1223.148036
1223.153716
1223.153647
1223.153757
1223.153554
1223.153517
1223.153609
1223.153601
1223.153684
1223.153803
1223.153914
1223.153896
1223.153903
1223.153876
1223.153789
1223.153857
1223.154214
1223.154264
1223.154123
1223.154119
1223.154126
1223.154026
1223.153962
1223.154026
1223.154006
1223.154019
1223.154068
1223.154018
1223.154027
1223.154157
1223.154239
1223.150397
1223.15053
1223.150413
1223.150499
1223.150559
1223.150544
1223.150633
1223.150525
1223.150477
1223.150515
1223.150537
1223.150376
1223.150583
1223.150467
1223.150389
1223.151051
1223.151037
1223.151184
1223.151051
1223.150988
1223.150925
1223.150845
1223.150803
1223.150956
1223.150966
1223.151015
1223.150882
1223.150944
1223.150905
1223.150922
1223.153719
1223.153691
1223.153602
1223.153735
1223.153841
1223.153898
1223.153945
1223.153957
1223.153801
1223.153725
1223.153698
1223.15363
1223.15354
1223.153457
1223.15342
1223.149224
1223.149144
1223.149158
1223.149253
1223.149163
1223.149251
1223.149326
1223.148996
1223.149106
1223.149217
1223.149274
1223.14942
1223.149307
1223.149257
1223.152706
1223.152634
1223.152554
1223.152681
1223.152309
1223.152339
1223.152264
1223.152206
1223.152217
1223.152241
1223.152194
1223.152133
1223.152062
1223.152077
1223.152018
1223.153824
1223.153764
1223.153638
1223.153527
1223.153526
1223.153541
1223.153529
1223.153397
1223.153422
1223.15335
1223.153497
1223.153598
1223.153623
1223.153777
1223.153683
1223.14638
1223.146395
1223.146448
1223.146521
1223.146223
1223.146277
1223.146445
1223.146155
1223.146223
1223.1464
1223.146467
1223.146493
1223.146669
1223.14659
1223.146631
1223.14945
1223.149294
1223.149346
1223.149423
1223.149472
1223.149693
1223.149619
1223.149753
1223.149751
1223.149528
1223.149397
1223.149438
1223.149526
1223.149678
1223.149655
1223.146819
1223.146674
1223.146786
1223.146974
1223.147139
1223.147072
1223.147006
1223.147207
1223.147161
1223.147184
1223.147263
1223.147126
1223.147004
1223.147047
1223.14692
1223.155542
1223.15565
1223.15556
1223.155458
1223.155407
1223.155378
1223.155369
1223.155376
1223.155394
1223.155374
1223.155305
1223.155222
1223.155196
1223.155165
1223.155197
1223.146321
1223.146336
1223.14612
1223.146161
1223.145982
1223.146095
1223.146093
1223.146093
1223.146074
1223.146057
1223.146181
1223.146112
1223.146167
1223.14647
1223.146407
1223.154661
1223.154723
1223.154815
1223.154748
1223.154885
1223.15488
1223.154742
1223.154718
1223.154602
1223.154512
1223.154412
1223.154503
1223.154403
1223.154326
1223.154288
1223.149616
1223.149659
1223.149674
1223.149671
1223.149623
1223.149643
1223.149482
1223.149481
1223.1495
1223.149536
1223.149476
1223.149507
1223.149733
1223.149844
1223.14945
1223.149449
1223.149338
1223.149294
1223.149225
1223.149005
1223.148938
1223.148991
1223.148883
1223.148905
1223.148767
1223.148865
1223.148829
1223.148604
1223.147754
1223.147601
1223.147707
1223.147675
1223.147633
1223.147733
1223.147606
1223.14767
1223.147658
1223.14772
1223.147686
1223.147628
1223.147674
1223.147767
1223.147739
1223.15203
1223.152061
1223.152098
1223.151981
1223.151939
1223.151893
1223.152051
1223.152179
1223.152242
1223.152418
1223.152392
1223.152289
1223.152154
1223.152026
1223.151941
1223.143595
1223.14367
1223.143744
1223.143736
1223.143658
1223.143773
1223.143749
1223.143719
1223.143778
1223.143698
1223.143829
1223.143712
1223.143938
1223.144038
1223.144292
1223.149133
1223.149147
1223.149249
1223.149429
1223.149546
1223.149639
1223.149723
1223.149604
1223.149551
1223.149529
1223.1494
1223.149464
1223.149519
1223.149559
1223.149669
1223.144895
1223.144932
1223.144901
1223.144809
1223.144997
1223.145031
1223.144811
1223.144753
1223.144926
1223.145037
1223.144928
1223.144915
1223.145086
1223.145056
1223.145124
1223.158304
1223.158337
1223.158424
1223.158461
1223.158457
1223.158331
1223.158452
1223.158489
1223.158615
1223.158621
1223.158508
1223.15851
1223.158683
1223.158484
1223.158434
1223.14742
1223.147347
1223.147191
1223.147226
1223.147175
1223.147179
1223.1471
1223.1471
1223.147167
1223.147182
1223.147196
1223.147179
1223.147209
1223.147276
1223.14727
1223.150111
1223.150201
1223.150288
1223.150345
1223.150402
1223.150312
1223.150301
1223.15016
1223.150334
1223.150287
1223.150176
1223.150265
1223.150339
1223.150448
1223.152958
1223.152786
1223.152927
1223.153062
1223.153068
1223.153023
1223.15311
1223.153048
1223.153073
1223.153011
1223.152997
1223.153052
1223.152971
1223.152885
1223.14889
1223.148985
1223.149101
1223.149061
1223.149123
1223.148974
1223.149022
1223.149049
1223.148977
1223.148864
1223.148836
1223.148721
1223.148655
1223.148472
1223.152781
1223.152713
1223.152856
1223.152924
1223.15289
1223.152745
1223.152622
1223.152527
1223.152632
1223.152541
1223.152529
1223.152632
1223.152688
1223.152954
1223.15312
1223.152171
1223.152103
1223.152071
1223.152025
1223.151957
1223.152081
1223.152162
1223.152035
1223.152068
1223.152121
1223.152147
1223.152071
1223.151941
1223.152066
1223.148154
1223.146967
1223.147114
1223.146945
1223.14714
1223.147182
1223.147163
1223.14701
1223.146937
1223.147062
1223.146958
1223.147001
1223.1471
1223.14707
1223.147281
1223.147217
1223.152567
1223.152546
1223.152462
1223.152562
1223.152562
1223.152624
1223.152549
1223.152578
1223.152656
1223.152531
1223.152815
1223.153055
1223.152838
1223.152747
1223.152775
1223.14851
1223.148607
1223.148671
1223.148646
1223.148694
1223.148764
1223.148673
1223.148574
1223.148639
1223.148564
1223.148516
1223.148822
1223.148879
1223.148916
1223.149043
1223.149825
1223.149863
1223.149871
1223.149758
1223.149722
1223.149671
1223.149781
1223.149704
1223.149701
1223.149834
1223.149722
1223.149777
1223.149745
1223.149728
1223.149739
1223.149882
1223.149664
1223.149782
1223.149785
1223.149968
1223.149891
1223.149728
1223.14962
1223.149634
1223.149474
1223.149429
1223.149358
1223.14955
1223.149562
1223.146898
1223.147005
1223.147079
1223.147128
1223.147141
1223.147014
1223.146943
1223.147038
1223.147213
1223.1472
1223.147102
1223.147222
1223.14705
1223.146976
1223.148122
1223.148172
1223.148412
1223.14843
1223.148279
1223.148599
1223.148642
1223.148796
1223.148705
1223.148696
1223.148748
1223.148678
1223.148753
1223.148756
1223.153073
1223.153064
1223.153012
1223.152906
1223.152675
1223.152532
1223.152543
1223.152444
1223.152546
1223.152422
1223.152345
1223.152291
1223.152362
1223.15254
1223.153687
1223.153708
1223.153735
1223.153954
1223.154217
1223.154137
1223.15409
1223.154135
1223.154033
1223.154016
1223.154211
1223.154273
1223.154182
1223.154539
1217.224056
1223.150427
1223.150358
1223.150474
1223.150506
1223.150396
1223.150554
1223.15058
1223.1507
1223.150841
1223.150769
1223.150779
1223.150781
1223.150653
1223.15071
1223.146778
1223.153276
1223.153325
1223.15324
1223.153363
1223.153289
1223.153203
1223.153212
1223.15314
1223.153075
1223.153004
1223.152901
1223.152758
1223.15289
1223.152816
1223.153065
1223.149762
1223.149949
1223.149928
1223.149964
1223.149987
1223.150051
1223.150135
1223.15015
1223.149911
1223.149849
1223.149852
1223.149859
1223.149917
1223.14992
1223.149827
1223.15455
1223.154382
1223.154326
1223.154391
1223.154348
1223.154329
1223.154392
1223.154252
1223.154342
1223.154378
1223.154299
1223.15414
1223.154036
1223.154046
1223.153979
1223.151873
1223.152004
1223.152023
1223.152063
1223.15194
1223.151982
1223.15205
1223.151991
1223.15212
1223.151961
1223.151955
1223.151944
1223.151996
1223.151878
1223.145351
1223.145396
1223.14523
1223.145085
1223.145093
1223.145155
1223.14499
1223.144986
1223.145245
1223.145288
1223.145188
1223.145044
1223.145079
1223.145044
1223.15095
1223.150933
1223.150912
1223.150858
1223.15082
1223.150782
1223.150781
1223.150662
1223.150846
1223.1509
1223.150891
1223.150983
1223.150919
1223.150765
1223.147258
1223.147519
1223.147555
1223.147446
1223.147192
1223.14716
1223.147205
1223.147031
1223.146905
1223.14685
1223.146943
1223.146997
1223.147073
1223.147151
1223.152252
1223.152319
1223.152336
1223.152428
1223.152287
1223.152449
1223.152386
1223.152482
1223.152297
1223.152367
1223.15236
1223.152447
1223.15243
1223.152563
1223.154303
1223.154196
1223.154076
1223.154147
1223.154065
1223.153865
1223.153865
1223.153884
1223.15389
1223.153787
1223.153589
1223.153581
1223.153631
1223.153742
1223.144463
1223.144506
1223.144533
1223.144577
1223.144627
1223.144618
1223.144651
1223.144621
1223.144551
1223.144587
1223.144677
1223.144649
1223.144581
1223.14461
1223.144581
1223.151785
1223.151684
1223.151696
1223.151701
1223.151768
1223.151662
1223.151636
1223.151595
1223.151743
1223.1518
1223.151757
1223.151757
1223.151527
1223.151602
1223.151618
1223.153862
1223.153723
1223.153719
1223.153693
1223.153649
1223.153634
1223.153752
1223.153809
1223.153832
1223.153651
1223.1536
1223.153466
1223.153371
1223.153358
1223.153329
1223.152134
1223.152126
1223.152068
1223.152035
1223.151946
1223.152094
1223.15218
1223.152075
1223.152077
1223.152111
1223.152115
1223.151944
1223.151903
1223.151908
1223.154523
1223.154587
1223.154658
1223.154588
1223.154436
1223.154358
1223.154336
1223.154386
1223.154593
1223.154411
1223.154567
1223.15459
1223.154519
1223.154428
1223.152065
1223.151953
1223.15196
1223.152026
1223.152056
1223.152001
1223.152005
1223.152041
1223.151928
1223.151902
1223.151788
1223.151939
1223.151797
1223.151885
1223.155124
1223.155239
1223.155265
1223.155192
1223.155306
1223.15523
1223.155026
1223.155163
1223.155094
1223.155073
1223.155045
1223.155009
1223.155
1223.154855
1223.147188
1223.147143
1223.147199
1223.147279
1223.147241
1223.147207
1223.147354
1223.147466
1223.147514
1223.147664
1223.147684
1223.147722
1223.14765
1223.147721
1223.150364
1223.150381
1223.150368
1223.15031
1223.150474
1223.150464
1223.150585
1223.150328
1223.150113
1223.150139
1223.150009
1223.149909
1223.150136
1223.150187
1223.152886
1223.1529
1223.153109
1223.153197
1223.153259
1223.153115
1223.153071
1223.153078
1223.15296
1223.152997
1223.152957
1223.152959
1223.153005
1223.153068
1223.148321
1223.148448
1223.148384
1223.148216
1223.148274
1223.148104
1223.148213
1223.148232
1223.148157
1223.148116
1223.148117
1223.148161
1223.148223
1223.148305
1223.148392
1223.150291
1223.150274
1223.150232
1223.150268
1223.150333
1223.150497
1223.150552
1223.150482
1223.150396
1223.150535
1223.15057
1223.150569
1223.150612
1223.150562
1223.1504
1223.146001
1223.145958
1223.145924
1223.145965
1223.145886
1223.145984
1223.146014
1223.146061
1223.146033
1223.146188
1223.146257
1223.146233
1223.14612
1223.146204
1223.146545
1223.146513
1223.146549
1223.146639
1223.146762
1223.146674
1223.146614
1223.146703
1223.146766
1223.146912
1223.146866
1223.146953
1223.14682
1223.147046
1223.152031
1223.152136
1223.152347
1223.152234
1223.152229
1223.152136
1223.15212
1223.152132
1223.15209
1223.152134
1223.152025
1223.152114
1223.152109
1223.151991
1223.149013
1223.148991
1223.149111
1223.149043
1223.148988
1223.148889
1223.148767
1223.148843
1223.148812
1223.148794
1223.148793
1223.148761
1223.148777
1223.148563
1223.150448
1223.150299
1223.150235
1223.150327
1223.150396
1223.150366
1223.150374
1223.150537
1223.150612
1223.150618
1223.150527
1223.150508
1223.150643
1223.150555
1223.147186
1223.147272
1223.147078
1223.146898
1223.146837
1223.146888
1223.146944
1223.146951
1223.146824
1223.14684
1223.146839
1223.147028
1223.147055
1223.146947
1223.148469
1223.148549
1223.148591
1223.148463
1223.148625
1223.148509
1223.14866
1223.148696
1223.14884
1223.148759
1223.148614
1223.148524
1223.148342
1223.148434
1223.148738
1223.148841
1223.148688
1223.148905
1223.148824
1223.148983
1223.149079
1223.14904
1223.149022
1223.149024
1223.149083
1223.14899
1223.148939
1223.148888
1223.151758
1223.15179
1223.151851
1223.151881
1223.151956
1223.151813
1223.151878
1223.151838
1223.151807
1223.151838
1223.151992
1223.152029
1223.151875
1223.15204
1223.151927
1223.15194
1223.151967
1223.151958
1223.151841
1223.151953
1223.151884
1223.151974
1223.151934
1223.151993
1223.151952
1223.15185
1223.15184
1223.151896
1223.151943
1223.151027
1223.15099
1223.15099
1223.150962
1223.150973
1223.151136
1223.150948
1223.151058
1223.151103
1223.151226
1223.15115
1223.151125
1223.151016
1223.150725
1223.152425
1223.152333
1223.152376
1223.152357
1223.152252
1223.152207
1223.152309
1223.152309
1223.152217
1223.152094
1223.152193
1223.152206
1223.152188
1223.152119
1223.144739
1223.14464
1223.144753
1223.144717
1223.144678
1223.144652
1223.144725
1223.144818
1223.145045
1223.145162
1223.145208
1223.145138
1223.145246
1223.145068
1223.145314
1223.145305
1223.145314
1223.145274
1223.145344
1223.145169
1223.145147
1223.145178
1223.145179
1223.14518
1223.145048
1223.145133
1223.145114
1223.144878
1223.147544
1223.147607
1223.147483
1223.147513
1223.147528
1223.147495
1223.147545
1223.147508
1223.147657
1223.147662
1223.147668
1223.14765
1223.147709
1223.147922
1223.15072
1223.150796
1223.15073
1223.150604
1223.150547
1223.150518
1223.150644
1223.150369
1223.150413
1223.150473
1223.150566
1223.150328
1223.150433
1223.150375
1223.147942
1223.147926
1223.148
1223.148017
1223.148107
1223.148127
1223.14812
1223.148102
1223.148325
1223.148484
1223.148367
1223.148373
1223.148428
1223.148355
1223.14999
1223.149923
1223.14976
1223.149838
1223.149745
1223.149736
1223.149755
1223.149794
1223.14972
1223.149758
1223.149814
1223.149799
1223.149748
1223.149749
)
;

boundaryField
{
    top
    {
        type            zeroGradient;
    }
    bottom
    {
        type            zeroGradient;
    }
    side-walls
    {
        type            zeroGradient;
    }
    inlet
    {
        type            zeroGradient;
    }
    outlet
    {
        type            zeroGradient;
    }
    procBoundary0to1
    {
        type            processor;
        value           nonuniform List<scalar> 
97
(
1223.150249
1223.149402
1223.151347
1223.148315
1223.147942
1223.153761
1223.154191
1223.150455
1223.150833
1223.153555
1223.149402
1223.149402
1223.152233
1223.148722
1223.153643
1223.146691
1223.149786
1223.146908
1223.15526
1223.146527
1223.154318
1223.149789
1223.148722
1223.148722
1223.147959
1223.148428
1223.152137
1223.144287
1223.149637
1223.145124
1223.15852
1223.147237
1223.150204
1223.153067
1223.148428
1223.148428
1223.153105
1223.148608
1223.148269
1223.147373
1223.152926
1223.14916
1223.149533
1223.149591
1223.147022
1223.148939
1223.148608
1223.148608
1217.223908
1223.148599
1223.146555
1223.153971
1223.15298
1223.149783
1223.153969
1223.151901
1223.145127
1223.150723
1223.147363
1223.148599
1223.153971
1223.153971
1223.144538
1223.153061
1223.151526
1223.15329
1223.15179
1223.154549
1223.152063
1223.154948
1223.14781
1223.150297
1223.153061
1223.153061
1223.148637
1223.149019
1223.150517
1223.146165
1223.147021
1223.151893
1223.14867
1223.150711
1223.147026
1223.148525
1223.149019
1223.149019
1223.151839
1223.149876
1223.151899
1223.150735
1223.152173
1223.145072
1223.145
1223.147951
1223.150339
1223.148465
1223.149876
)
;
    }
}


// ************************************************************************* //
