/*--------------------------------*- C++ -*----------------------------------*\
| =========                 |                                                 |
| \\      /  F ield         | OpenFOAM: The Open Source CFD Toolbox           |
|  \\    /   O peration     | Version:  4.x                                   |
|   \\  /    A nd           | Web:      www.OpenFOAM.org                      |
|    \\/     M anipulation  |                                                 |
\*---------------------------------------------------------------------------*/
FoamFile
{
    version     2.0;
    format      ascii;
    class       volVectorField;
    location    "5000";
    object      U;
}
// * * * * * * * * * * * * * * * * * * * * * * * * * * * * * * * * * * * * * //

dimensions      [0 1 -1 0 0 0 0];

internalField   nonuniform List<vector> 
1175
(
(0.01099999925 -1.501799299e-09 -9.57192624e-11)
(0.01100000063 -2.030228942e-09 -2.131260116e-10)
(0.01099999813 -9.653758402e-11 -7.116666149e-11)
(0.01100000078 -1.468458524e-09 1.367424486e-09)
(0.01100000035 -1.622673582e-09 -2.492678708e-10)
(0.01100000092 6.380614381e-10 -4.20300731e-10)
(0.01100000532 2.837957544e-10 -2.456366345e-09)
(0.0110000025 -1.62868752e-09 -5.395534949e-10)
(0.0110000067 8.212686596e-10 -2.132575768e-09)
(0.0110000064 -5.362563573e-10 -5.711196399e-09)
(0.01100001653 -4.19430312e-09 -3.471313239e-09)
(0.0110000216 -4.039833496e-09 -2.12613402e-09)
(0.01100005099 -9.013878507e-09 -8.185380964e-09)
(0.01100006365 -5.747346247e-09 -6.569391199e-09)
(0.01100011318 -1.912047827e-08 -1.795593753e-08)
(0.0109999997 -3.590163391e-11 1.880248847e-10)
(0.01100000087 7.827847863e-10 -8.900332015e-10)
(0.01100000155 -2.030596453e-09 -3.984716146e-10)
(0.01100000216 -1.348387327e-09 -1.051935964e-09)
(0.01100000038 1.731471845e-10 -1.137471915e-09)
(0.01099999897 -6.522243484e-10 -2.262135479e-10)
(0.01100000264 -7.778117407e-10 -3.135989294e-10)
(0.01100000261 -2.42155593e-09 -9.461226881e-10)
(0.01100000486 -4.902553552e-09 -1.138736747e-09)
(0.01100000413 -5.340170571e-09 -1.990614708e-09)
(0.01100001509 -7.955731692e-09 -2.404460868e-09)
(0.01100001597 -1.232722795e-08 -2.858824574e-09)
(0.01100004545 -2.601950668e-08 -8.111985592e-09)
(0.01100004994 -2.580923218e-08 -4.635047563e-09)
(0.01100010934 -7.541579658e-08 -2.73489232e-08)
(0.01100000032 4.871802331e-10 -3.222939378e-10)
(0.01099999996 -4.368787385e-10 -1.511697268e-11)
(0.01100000189 6.287548231e-10 6.07201379e-10)
(0.01100000329 -2.115497309e-09 1.431052513e-09)
(0.01099999953 -2.300259516e-09 -3.048324377e-10)
(0.01100000028 1.967011897e-10 -1.658188416e-09)
(0.01100000026 -1.131551446e-09 4.165819112e-10)
(0.01099999961 -3.376907789e-09 -1.953731797e-09)
(0.01100000171 -2.022928449e-09 -3.854258391e-09)
(0.01100000107 -4.580843232e-09 -3.132115385e-09)
(0.01100000722 -9.012886385e-09 -4.418441591e-09)
(0.0109999996 -1.120734587e-08 -5.033862836e-09)
(0.01100003407 -2.776723036e-08 -1.09323989e-08)
(0.01100001088 -2.076425751e-08 -1.067220485e-08)
(0.01100009302 -9.121935376e-08 -6.354339874e-08)
(0.01100000061 -7.732525611e-10 3.159250092e-10)
(0.01099999996 -3.668490085e-10 1.288793194e-09)
(0.01099999991 -4.582262558e-10 4.090802085e-10)
(0.01100000014 -4.937166478e-10 -2.892139988e-10)
(0.01100000075 -1.617899607e-09 9.433920028e-10)
(0.01100000003 -1.2523765e-09 -3.025051881e-10)
(0.01100000138 -8.232144578e-10 -1.127073103e-09)
(0.01099999992 -1.011984275e-09 4.083995775e-11)
(0.01100000399 -2.421321757e-09 -1.077560602e-09)
(0.01099999899 -3.882584521e-09 -2.004458048e-09)
(0.0110000079 -8.289610802e-09 -3.297111589e-10)
(0.01099999508 -1.494466307e-08 -4.063985136e-09)
(0.01100003303 -3.739317488e-08 -7.743876497e-09)
(0.01099998275 -4.330592981e-08 -2.975071744e-09)
(0.01100009457 -1.576935045e-07 -8.600897756e-08)
(0.01100000034 -1.129805533e-09 -2.651266561e-09)
(0.01099999918 -1.881366853e-09 1.198259948e-10)
(0.01100000143 -2.142587607e-09 -1.986622572e-10)
(0.01100000128 -1.695316577e-09 -6.426381912e-10)
(0.01100000095 8.247757258e-10 -5.35232753e-11)
(0.0110000029 -2.670320927e-10 -1.02900211e-09)
(0.01100000085 -1.53023008e-09 2.12770686e-10)
(0.01099999972 -4.216098428e-10 -3.052237546e-09)
(0.01100000145 1.258867384e-09 -1.926491896e-09)
(0.01099999369 5.592008438e-10 -2.106779606e-09)
(0.01099999709 -1.621539176e-10 -4.942957767e-09)
(0.01099996973 5.14892181e-11 -1.186049162e-08)
(0.01099999917 4.514025956e-10 -2.386530562e-08)
(0.01099989102 3.781053647e-10 -3.246359684e-08)
(0.01100007569 -4.547959217e-10 -2.267319568e-07)
(0.01100000056 -1.457733228e-09 3.63245957e-10)
(0.01100000198 -1.415689709e-09 5.267780806e-10)
(0.01099999953 -4.779512956e-11 6.232599257e-10)
(0.01100000043 -1.106578608e-09 1.590369702e-10)
(0.01100000405 -4.468316294e-10 -3.198425332e-11)
(0.01100000065 1.079552723e-09 -1.762764537e-09)
(0.01100000112 4.5242992e-10 1.625837631e-09)
(0.01100000026 1.484443576e-09 2.348802916e-10)
(0.01100000281 2.458182237e-09 -1.194393263e-09)
(0.01099999806 5.02517261e-09 -2.30382019e-09)
(0.01100000655 8.160343967e-09 -1.070288645e-09)
(0.01099999612 1.483082901e-08 -3.123946089e-09)
(0.0110000313 3.879515266e-08 -8.121198883e-09)
(0.01099998485 4.272404198e-08 -2.137069406e-09)
(0.01100009437 1.57640657e-07 -8.496853609e-08)
(0.0110000001 -3.713761404e-10 2.549895506e-09)
(0.01100000168 -9.708473629e-10 2.092760317e-10)
(0.01100000015 -1.3684406e-09 2.175986021e-09)
(0.01100000135 4.551079543e-10 -3.334656053e-10)
(0.01100000314 -1.075110682e-09 -2.483341164e-11)
(0.01099999991 -1.625404928e-09 -1.01444812e-09)
(0.01100000157 -2.083847678e-10 -2.202744358e-09)
(0.01100000055 2.059554657e-09 -3.439403747e-10)
(0.0110000038 1.545024154e-09 1.031942068e-09)
(0.0109999988 4.272775876e-09 -7.376450465e-10)
(0.01100001089 9.114809545e-09 -1.204303953e-09)
(0.01099999739 1.231673074e-08 -4.705623055e-09)
(0.01100003235 2.536215895e-08 -1.262960887e-08)
(0.01100001165 1.957019372e-08 -8.289593346e-09)
(0.01100009324 9.132017476e-08 -6.21353629e-08)
(0.01099999937 1.249311583e-11 1.160011109e-09)
(0.0109999999 7.646638318e-10 3.375677376e-09)
(0.01100000277 2.913599692e-10 2.309151797e-09)
(0.01100000097 7.604087147e-10 -2.279768134e-09)
(0.01100000237 2.177121245e-09 -1.2535394e-09)
(0.01100000185 1.746833866e-09 -1.64900996e-09)
(0.01100000193 1.493656245e-09 -1.431639246e-09)
(0.01100000211 9.71490145e-10 -2.416259617e-09)
(0.01100000592 6.756217031e-10 -4.649165095e-10)
(0.01100000456 3.54846576e-09 -5.786190076e-10)
(0.01100001667 6.819300093e-09 -6.991156641e-10)
(0.01100001533 1.146220532e-08 -2.600110281e-09)
(0.01100004451 2.589523109e-08 -1.016842635e-08)
(0.01100004906 2.349127804e-08 -3.9457148e-09)
(0.01100010754 7.481717697e-08 -2.790495792e-08)
(0.01099999993 1.478564496e-09 1.245963148e-11)
(0.01100000251 3.890240758e-10 -1.095588199e-09)
(0.01099999967 1.50593617e-09 -3.083572567e-09)
(0.01100000153 1.019428569e-09 -7.076521535e-10)
(0.01100000339 -9.07086838e-10 1.244341852e-09)
(0.01100000419 1.186440572e-09 -5.457584043e-10)
(0.01100000304 1.484642043e-09 9.046882952e-10)
(0.01100000382 -7.216313499e-10 -2.172522932e-10)
(0.01100000663 2.129985601e-10 2.427249273e-10)
(0.01100000722 1.393669658e-09 2.286140556e-09)
(0.01100001891 2.079684586e-09 -5.692349739e-10)
(0.01100002 4.20188408e-09 -1.58983053e-09)
(0.01100004807 7.412011971e-09 -9.05165173e-09)
(0.01100006307 5.099675903e-09 -4.449980932e-09)
(0.0110001122 2.062183716e-08 -1.855929171e-08)
(0.0110000005 -9.914798036e-10 -1.988209807e-10)
(0.01100000002 7.666512881e-10 3.289600651e-11)
(0.01099999899 3.565732946e-10 5.120588477e-10)
(0.01100000078 1.889679683e-10 7.75389238e-10)
(0.01099999859 -5.639331015e-10 1.264391261e-09)
(0.01099999945 1.939355802e-09 -1.634471045e-11)
(0.01100000442 4.874969746e-10 -7.700027984e-10)
(0.01100000278 -1.050046791e-09 -1.515379162e-09)
(0.01100000401 -3.592681184e-09 -2.544422914e-09)
(0.01100000831 -2.936283022e-09 -4.758365239e-09)
(0.01100001699 -5.301927387e-09 -6.522005567e-09)
(0.01100001517 -5.273813839e-09 -1.076426348e-08)
(0.01100004426 -9.195790728e-09 -2.644377126e-08)
(0.01100004704 -5.564679413e-09 -2.373361959e-08)
(0.011000001 4.551829633e-10 1.899676802e-10)
(0.0110000008 -8.778699406e-10 4.818481044e-11)
(0.01099999955 -3.638173746e-10 6.362142126e-10)
(0.01100000182 -1.551972803e-10 7.81897815e-10)
(0.01099999927 -7.59911202e-10 3.583614508e-10)
(0.01099999927 5.224942523e-11 5.432901491e-10)
(0.01099999987 7.817404315e-11 -9.134485465e-10)
(0.01100000119 -2.539588268e-09 -2.153225745e-09)
(0.01100000489 -2.887127485e-09 -2.312369294e-09)
(0.01100000398 -5.124892111e-09 -3.806290079e-09)
(0.01100001486 -9.810624283e-09 -6.531927982e-09)
(0.0110000092 -1.3889149e-08 -1.238609588e-08)
(0.01100004169 -3.117158795e-08 -3.115933641e-08)
(0.01100002828 -2.823089054e-08 -2.752221955e-08)
(0.0110001026 -1.174636898e-07 -1.17819195e-07)
(0.01100000209 -5.607760194e-10 -9.106416235e-10)
(0.01100000091 -1.529894653e-09 1.104655506e-10)
(0.01100000032 -1.524667871e-09 1.485801461e-09)
(0.01100000073 -1.06274579e-09 -8.182840142e-10)
(0.01100000001 -8.670392401e-10 -9.874099726e-10)
(0.01100000048 9.004491537e-10 -8.503077083e-10)
(0.01100000161 -1.204419566e-09 -1.416615198e-09)
(0.01099999891 -8.154156449e-10 -1.302874577e-09)
(0.01100000163 -1.361924973e-09 -2.309857793e-09)
(0.0109999978 -4.714088571e-09 -6.157430039e-09)
(0.01100000538 -6.390882567e-09 -8.631735288e-09)
(0.01099998902 -1.110374749e-08 -1.65777553e-08)
(0.01100002284 -2.649105969e-08 -4.605645902e-08)
(0.01099996308 -1.608120424e-08 -4.751141295e-08)
(0.01100008182 -1.50915043e-07 -2.645452689e-07)
(0.01100000088 -3.212394454e-10 -8.047320874e-11)
(0.01100000051 -4.13735015e-10 -5.945402558e-14)
(0.01099999924 -6.293314053e-10 6.203525178e-10)
(0.01100000013 -2.287219134e-09 7.294162033e-11)
(0.01100000106 -1.112124552e-09 -5.759994803e-10)
(0.01099999844 -9.076768075e-10 -6.75146566e-10)
(0.01100000063 -1.049496569e-10 -7.917250453e-10)
(0.01099999906 -1.640864117e-09 -2.21245869e-09)
(0.01099999944 -8.969377876e-10 -2.525805323e-09)
(0.01099999729 -4.278482221e-09 -4.41804863e-09)
(0.01100000495 -8.198682976e-09 -4.082158586e-09)
(0.01099999094 -2.072220595e-08 -1.774506111e-08)
(0.01100002537 -4.996828838e-08 -3.492617364e-08)
(0.01099991891 -6.505909624e-08 -4.651280361e-08)
(0.01100007416 -3.270232644e-07 -4.102050812e-07)
(0.01100000182 -1.441543798e-09 -1.609387054e-11)
(0.01100000001 -4.597537916e-10 -3.542381526e-10)
(0.01100000055 -1.085316606e-09 6.755222743e-10)
(0.01100000108 -4.28948044e-10 -2.690638613e-10)
(0.01100000209 -1.400775747e-09 4.858109311e-10)
(0.01100000312 -1.292115977e-09 -5.190679622e-11)
(0.01100000014 -1.834152789e-09 -1.348032806e-09)
(0.01099999996 -1.213136813e-10 -1.581663896e-09)
(0.01099999865 -4.00807505e-10 -2.993974226e-09)
(0.01099999031 9.870194107e-11 -6.587837677e-09)
(0.01099998827 -6.812557088e-10 -6.402361636e-09)
(0.0109999495 -1.342480394e-10 -3.704520307e-08)
(0.01099995873 -7.567988335e-10 -8.335745398e-08)
(0.01099971446 6.143819868e-10 -1.675660467e-07)
(0.01100002753 -5.820158095e-10 -1.056087469e-06)
(0.01100000062 6.077826449e-10 1.295087669e-09)
(0.01099999995 5.26422452e-11 -4.527327686e-10)
(0.01100000047 -3.170282932e-10 6.111483566e-11)
(0.01100000064 5.449668473e-10 2.563339745e-10)
(0.01100000334 -2.932979174e-11 -1.083439341e-09)
(0.01100000094 -1.349133191e-09 -4.947806975e-10)
(0.01100000096 7.180942942e-10 -1.266735743e-09)
(0.01100000095 1.429929172e-09 -1.554059936e-09)
(0.01100000085 1.75604338e-09 -1.226888232e-09)
(0.01099999822 5.218244162e-09 -5.104575066e-09)
(0.01100000604 8.644739151e-09 -3.600470086e-09)
(0.01099998933 2.048357611e-08 -1.740546982e-08)
(0.01100002217 5.00259169e-08 -3.510910307e-08)
(0.01099992122 6.403026125e-08 -4.504224299e-08)
(0.01100007145 3.257945127e-07 -4.094069853e-07)
(0.01099999904 1.095724962e-09 1.744770564e-09)
(0.01100000108 -1.397833062e-10 2.040963936e-09)
(0.01099999988 -5.617655456e-10 2.314783813e-10)
(0.0109999985 -1.318504057e-09 9.11570174e-10)
(0.01100000151 -2.064737551e-10 3.454872919e-10)
(0.0110000013 -6.44059688e-10 -3.102661823e-10)
(0.01100000041 5.852484619e-11 -1.337722909e-10)
(0.01100000162 4.941449604e-10 -1.936028606e-09)
(0.0110000016 2.387187437e-09 -3.223032645e-09)
(0.01099999748 5.265148973e-09 -4.934850918e-09)
(0.01100000251 6.774842831e-09 -8.194660644e-09)
(0.01099998835 1.065173795e-08 -1.562493298e-08)
(0.0110000222 2.564616515e-08 -4.392971593e-08)
(0.0109999627 1.736163556e-08 -4.639570805e-08)
(0.01100007965 1.526538176e-07 -2.626161778e-07)
(0.01099999954 -4.943805348e-11 1.660364347e-09)
(0.01100000164 1.293103233e-10 3.440706706e-10)
(0.01099999912 -1.65587561e-13 1.287297945e-09)
(0.0110000008 1.671981543e-10 2.393951357e-10)
(0.01099999783 1.350466264e-09 -2.371177998e-10)
(0.01100000263 1.717309176e-09 -9.523560293e-10)
(0.01100000285 1.550902075e-09 -2.502797427e-10)
(0.01100000274 -3.768125824e-10 -2.987506618e-09)
(0.01100000577 8.189789169e-10 -3.796709925e-09)
(0.011000002 2.9721608e-09 -4.963944327e-09)
(0.01100001216 6.955536228e-09 -7.653307312e-09)
(0.01100000711 1.153451347e-08 -1.204373078e-08)
(0.01100003901 3.044648295e-08 -3.17582742e-08)
(0.01100002838 2.585715719e-08 -2.721508585e-08)
(0.01100010214 1.186117296e-07 -1.178927904e-07)
(0.01100000091 -8.498260689e-10 5.427542387e-10)
(0.01100000173 8.135537407e-10 -4.501673741e-10)
(0.01099999947 1.062933629e-09 4.266036784e-10)
(0.01099999969 6.53377728e-10 -1.751323497e-10)
(0.01100000226 -1.843080537e-10 -1.016685196e-09)
(0.01100000304 1.962325885e-09 -9.639148171e-10)
(0.01100000288 9.36110118e-10 1.685625152e-10)
(0.01100000227 1.257560535e-09 2.645714681e-11)
(0.01100000456 3.855609872e-10 -2.213463274e-09)
(0.01100000433 4.368701868e-10 -3.243862476e-09)
(0.01100001396 1.874962469e-09 -7.084385686e-09)
(0.01100001503 3.403008713e-09 -1.070575512e-08)
(0.01100004761 8.418377245e-09 -2.605296866e-08)
(0.01100005055 4.516667158e-09 -2.359279858e-08)
(0.0110001076 2.958128066e-08 -7.389912476e-08)
(0.01099999861 -1.046455975e-09 -2.480161847e-10)
(0.01100000111 4.699861206e-10 -1.644995051e-09)
(0.01100000102 1.576817076e-11 -1.728308743e-09)
(0.01099999801 -2.760213845e-10 -1.532157632e-09)
(0.01100000014 -6.128097737e-10 -2.110207306e-09)
(0.01099999974 4.258689282e-09 -1.412914815e-10)
(0.01100000151 -1.099922977e-09 -5.022704635e-10)
(0.0110000005 5.630994733e-10 -2.522822848e-09)
(0.01100000538 5.02471744e-10 -1.859861491e-09)
(0.01100000266 -4.669909779e-09 -3.077673202e-09)
(0.01100000694 -1.364731448e-09 -9.312200573e-09)
(0.01099999775 -4.478063637e-09 -1.087553468e-08)
(0.01100003195 -1.38067989e-08 -2.62814914e-08)
(0.01100001278 -7.485273758e-09 -1.910451507e-08)
(0.01099999945 -3.424326613e-10 1.791856476e-10)
(0.01099999958 -1.207589803e-09 -7.982500577e-10)
(0.01100000041 -4.24935317e-10 -5.87419875e-10)
(0.01100000047 -2.817472236e-10 5.17134537e-10)
(0.01100000078 3.560724422e-10 -6.024345209e-10)
(0.01099999821 3.821432758e-10 -2.054272781e-09)
(0.01099999812 8.139541602e-10 -2.445227094e-09)
(0.01100000091 -1.128163435e-09 -1.245308753e-09)
(0.01100000114 -3.289214594e-09 -9.68802658e-10)
(0.01099999999 -6.948934414e-09 -3.214870468e-09)
(0.01100000469 -1.117738306e-08 -4.931010679e-09)
(0.01099998846 -1.848008953e-08 -9.49501205e-09)
(0.01100002408 -4.616238673e-08 -2.6300058e-08)
(0.01099996056 -4.801202918e-08 -1.593700445e-08)
(0.01100000002 5.906978378e-10 1.600392181e-09)
(0.01100000146 -1.193595072e-09 1.012644237e-09)
(0.0109999999 4.323281048e-10 -4.283573705e-10)
(0.01099999932 -8.578091012e-10 -9.019403176e-10)
(0.01100000021 -6.688427446e-11 -5.040338958e-10)
(0.01100000054 4.724880624e-10 -9.513684634e-10)
(0.01099999845 -5.207274622e-10 -8.439676019e-10)
(0.01099999816 -2.831887507e-09 -2.57345113e-09)
(0.01099999828 -2.41566376e-09 -1.822866144e-09)
(0.01099999349 -5.469994445e-09 -5.32879011e-09)
(0.01099999522 -4.392873457e-09 -4.775767479e-09)
(0.01099996197 -1.65643025e-08 -1.69053388e-08)
(0.01099997922 -3.066032439e-08 -3.099665198e-08)
(0.01099981141 -4.186310207e-08 -3.855357503e-08)
(0.01100000808 -3.858937746e-07 -3.901778151e-07)
(0.01099999993 -2.183589175e-10 9.861081165e-10)
(0.01100000072 -4.666405773e-10 1.984738684e-09)
(0.01100000268 -9.446721934e-10 -1.217365763e-09)
(0.01099999928 -1.518789279e-10 1.052078428e-09)
(0.01099999941 1.492612793e-10 1.221914969e-09)
(0.01099999987 -9.042173165e-10 -1.138363846e-11)
(0.01099999826 -3.280548748e-10 -2.435708476e-10)
(0.01099999961 -1.346163771e-09 -1.97397496e-09)
(0.01099999781 -1.15981556e-09 -5.387758558e-10)
(0.01099999663 -6.140369554e-09 -4.137195715e-09)
(0.0109999923 -7.569674441e-09 8.608802723e-09)
(0.01099997282 -3.732031151e-08 -1.047849857e-08)
(0.01099995092 -7.804940394e-08 2.944222926e-08)
(0.01099971588 -1.624325644e-07 -1.563974829e-08)
(0.01099985318 -9.625679694e-07 -5.649404433e-07)
(0.01099999973 -5.927041134e-10 2.539623887e-09)
(0.01099999975 3.562103263e-12 4.969060838e-10)
(0.01100000086 -1.997649677e-09 -2.252904289e-10)
(0.01100000108 -2.712941468e-09 9.705844916e-10)
(0.0109999999 -8.769713715e-10 7.973248108e-10)
(0.01100000023 3.435642291e-11 -4.277547179e-10)
(0.01099999842 -6.833119896e-10 -1.262276681e-09)
(0.01099999792 2.00175612e-09 -1.671196269e-09)
(0.01099999231 7.959728273e-10 1.853860635e-10)
(0.01099998861 7.706091774e-10 -8.659058332e-09)
(0.01099996056 -5.040506189e-10 6.85865965e-09)
(0.01099989907 1.060995096e-09 -4.571076175e-08)
(0.0109997725 8.975452039e-10 -6.926257348e-09)
(0.0109991416 8.16226569e-10 -2.859503834e-07)
(0.01099942187 1.322734569e-09 -2.088149892e-06)
(0.01100000042 3.802710577e-10 7.790274754e-10)
(0.01099999939 -2.608133275e-10 2.02106628e-10)
(0.01099999972 -9.458459487e-11 3.536838765e-10)
(0.01100000026 -1.6201038e-09 -4.461606407e-10)
(0.0110000035 -1.600564319e-09 1.717100482e-10)
(0.0110000023 -1.98961119e-09 -2.798207151e-10)
(0.01100000088 -4.164348424e-10 -1.201910161e-09)
(0.01100000024 6.303681272e-10 -2.973430412e-09)
(0.01099999664 1.084018393e-09 -1.457934245e-09)
(0.01099999713 6.597494281e-09 -3.380369224e-09)
(0.01099998945 7.611224907e-09 8.364003216e-09)
(0.01099997087 3.650772245e-08 -1.193261898e-08)
(0.01099995227 7.844080035e-08 2.861190144e-08)
(0.01099971729 1.62402172e-07 -1.556663685e-08)
(0.01099985443 9.640379182e-07 -5.639147368e-07)
(0.0109999993 7.895487501e-10 1.008788574e-10)
(0.01099999886 -1.965209715e-10 3.697230025e-10)
(0.01100000142 1.70675974e-10 5.796442629e-10)
(0.01099999891 1.865137886e-09 1.692652294e-09)
(0.01100000133 7.057129561e-10 2.092242951e-09)
(0.01100000221 1.375643479e-09 -9.266831718e-10)
(0.01100000115 1.413737884e-09 9.368150914e-10)
(0.0109999988 8.480630062e-10 -3.074655749e-09)
(0.01099999762 2.033992055e-09 -2.799874123e-09)
(0.0109999942 4.701478249e-09 -5.560199201e-09)
(0.0109999937 4.315578051e-09 -2.810872456e-09)
(0.01099996156 1.541924912e-08 -1.691431658e-08)
(0.01099998106 2.937442757e-08 -3.170939605e-08)
(0.01099981091 4.002732145e-08 -3.912222086e-08)
(0.01100001229 3.895062811e-07 -3.889123415e-07)
(0.01099999862 -9.698819454e-10 1.332718129e-09)
(0.01100000019 -4.772449694e-10 9.846908424e-10)
(0.01099999968 2.439394735e-10 -1.923384335e-10)
(0.01100000148 -7.813385751e-10 6.892536567e-10)
(0.01099999994 1.466006428e-09 2.261976829e-10)
(0.0110000004 7.937501421e-10 5.410833026e-10)
(0.01100000174 1.447728481e-09 -1.221863435e-09)
(0.01099999973 2.254565688e-09 -2.295086075e-11)
(0.01100000433 2.039569109e-09 -1.111719103e-09)
(0.01100000006 5.879855542e-09 -3.594879106e-09)
(0.01100000269 7.374588623e-09 -5.327182715e-09)
(0.01099998809 1.637867052e-08 -1.087575773e-08)
(0.0110000279 4.514274382e-08 -2.506418631e-08)
(0.01099996125 4.711464333e-08 -1.543574842e-08)
(0.01100008155 2.63775791e-07 -1.515550572e-07)
(0.01100000029 -7.735113264e-10 3.743887699e-10)
(0.01100000001 1.119658325e-09 -2.406000475e-10)
(0.01099999919 -5.282385346e-11 -7.199822432e-10)
(0.01100000073 7.314141186e-10 8.786409828e-11)
(0.01100000092 -1.686588402e-09 1.007384484e-10)
(0.0110000014 -3.830746822e-12 -1.251258756e-09)
(0.01100000163 1.172629194e-09 -1.541629337e-10)
(0.01100000192 1.299721666e-10 -2.233532011e-10)
(0.01100000333 1.068380822e-09 -9.057928027e-10)
(0.0110000005 2.215006452e-09 -2.400114364e-09)
(0.0110000071 3.398869776e-09 -6.344754038e-09)
(0.01099999955 5.887291798e-09 -9.679327435e-09)
(0.01100003348 1.32362023e-08 -2.547735003e-08)
(0.01100001308 9.216660059e-09 -1.963282527e-08)
(0.01100009349 6.282395067e-08 -9.213969043e-08)
(0.01099999869 -1.126793064e-09 -1.503175625e-10)
(0.0110000005 -1.068120664e-09 -6.996155096e-10)
(0.01100000034 -9.61299167e-10 -1.290965572e-10)
(0.01100000172 2.916610563e-09 -3.032352936e-10)
(0.01100000234 1.937306751e-09 -1.766483628e-11)
(0.01099999959 1.097007373e-09 -3.864737957e-10)
(0.01100000446 7.977480158e-10 4.397717902e-10)
(0.01100000111 -1.412339727e-09 2.332048816e-10)
(0.01100000465 -1.145175588e-09 -2.451360043e-09)
(0.01099999929 -3.346967324e-09 -3.987820631e-09)
(0.01100000775 -1.440392426e-09 -8.501094822e-09)
(0.01099999544 -4.697943236e-09 -1.462886045e-08)
(0.01100003106 -6.297624305e-09 -3.575054321e-08)
(0.01099998601 -4.080496306e-11 -4.145679267e-08)
(0.01100000129 -5.679549946e-11 -5.603475862e-11)
(0.01100000173 2.501172891e-10 -1.29161311e-10)
(0.0110000007 5.455640133e-10 6.321172797e-10)
(0.01100000038 1.668229986e-09 -1.539122378e-09)
(0.01100000046 1.674529699e-10 -6.512398759e-10)
(0.01100000006 1.641696501e-10 -1.210741496e-09)
(0.01100000081 -3.127731547e-10 -6.712073746e-10)
(0.01100000281 -2.187385219e-09 -6.766994552e-10)
(0.01100000162 -3.523556966e-09 -1.713277547e-09)
(0.01099999936 -6.894022124e-09 -3.761934817e-09)
(0.01100000449 -5.44720689e-09 -8.806258274e-09)
(0.01099998815 -1.98834668e-08 -2.059693361e-08)
(0.01100002356 -3.639419413e-08 -4.973085206e-08)
(0.0109999184 -4.7152565e-08 -6.171874009e-08)
(0.01100000052 1.235277023e-09 1.204648998e-09)
(0.01099999925 -2.58130427e-10 9.204887997e-11)
(0.01100000148 -2.036515397e-09 -9.130718979e-10)
(0.01100000136 -5.924014363e-10 -7.563950863e-10)
(0.01100000024 5.855993342e-10 -2.004135435e-10)
(0.01099999906 5.05581375e-10 1.319745604e-09)
(0.0110000015 1.172400649e-09 -9.524778756e-10)
(0.01099999959 -1.87939404e-09 -2.091820957e-09)
(0.01099999962 -1.826880612e-09 -1.419652838e-09)
(0.01099999547 -4.594687315e-09 -5.449027811e-09)
(0.0109999918 7.152471236e-09 -6.833459807e-09)
(0.01099997221 -1.180874376e-08 -3.360818516e-08)
(0.010999952 3.095320307e-08 -7.807603134e-08)
(0.01099971719 -1.682302738e-08 -1.619661353e-07)
(0.01099999976 -1.201485484e-10 6.391265675e-10)
(0.01099999812 -1.416017316e-09 3.269548744e-10)
(0.01100000264 7.793192519e-10 -7.959844976e-10)
(0.01100000123 -1.548867527e-09 -5.279842535e-10)
(0.01100000107 -1.426292114e-09 -6.600981569e-10)
(0.01099999901 2.431695694e-11 -7.401954221e-10)
(0.01099999975 -3.937185331e-10 -8.223939393e-10)
(0.01099999801 -9.505820237e-10 -1.349569899e-09)
(0.01099999914 -4.971914548e-10 6.142093705e-10)
(0.01100000876 -5.958916201e-09 -6.283395195e-09)
(0.01099999215 3.154852252e-09 2.509787367e-09)
(0.01100004142 -4.853656656e-08 -4.729890364e-08)
(0.01099987883 -2.546654984e-08 -2.499218451e-08)
(0.01099983911 -3.093651449e-07 -3.080664898e-07)
(0.01099878636 -2.025393986e-06 -2.025155646e-06)
(0.01100000238 1.382137883e-10 2.05986998e-10)
(0.01099999833 -6.498516749e-10 -6.220164136e-12)
(0.01099999915 -9.751974401e-10 -1.044936697e-10)
(0.01100000043 -1.07965467e-09 -8.232429573e-10)
(0.01100000257 -1.00932613e-09 -6.219227309e-10)
(0.01100000043 -1.291818597e-09 -4.552935092e-10)
(0.0110000007 -6.763484093e-10 -1.65783537e-09)
(0.01099999748 -5.466600718e-10 -2.171348644e-09)
(0.01099999188 1.20103367e-09 -5.47577767e-10)
(0.01099999828 -1.091834769e-09 -1.233243206e-08)
(0.01099994194 1.444149848e-11 -1.544865653e-09)
(0.01099998177 -2.467628812e-09 -1.151936847e-07)
(0.01099943254 -7.127410413e-10 -1.246380736e-07)
(0.0109989077 -6.034208084e-10 -1.385928014e-06)
(0.01099490996 -7.894825838e-11 -9.98950293e-06)
(0.0109999995 -4.230724254e-10 8.314865881e-10)
(0.01100000156 -1.003907149e-09 1.118362343e-09)
(0.01099999917 -2.578378275e-10 1.958211366e-09)
(0.01099999938 -4.22879568e-10 2.062665939e-09)
(0.01100000191 -1.718252373e-10 3.623460212e-10)
(0.01100000245 -5.880938929e-10 -1.269315064e-09)
(0.01099999871 5.114124455e-10 -9.704096118e-10)
(0.01100000118 5.980198282e-10 -1.56843724e-09)
(0.01099999853 7.683218772e-10 4.017373328e-11)
(0.01100000761 8.019124785e-09 -7.638933462e-09)
(0.01099998879 -1.937766291e-09 2.45677586e-09)
(0.01100004282 4.950629772e-08 -4.913929167e-08)
(0.01099988054 2.478317184e-08 -2.666539592e-08)
(0.01099983931 3.087812566e-07 -3.093023484e-07)
(0.01099878413 2.026357137e-06 -2.028294063e-06)
(0.01099999929 -3.584742519e-10 -3.870786613e-10)
(0.01099999989 -2.123347483e-10 6.967947208e-10)
(0.01100000039 -5.252084722e-10 5.49137281e-10)
(0.01100000128 9.714388549e-11 -2.736808702e-10)
(0.01100000112 8.72089994e-10 1.016591917e-09)
(0.01100000187 8.036914174e-10 -5.880608396e-11)
(0.01099999835 -2.873506494e-10 -5.757517819e-10)
(0.01099999924 6.891791618e-10 -2.723872185e-09)
(0.01100000076 1.59176724e-10 -1.618111832e-09)
(0.01099999484 3.717829709e-09 -6.635105316e-09)
(0.01099999074 -8.995674519e-09 -8.567301216e-09)
(0.01099997109 1.123143347e-08 -3.725615679e-08)
(0.01099995405 -2.845812559e-08 -7.882292311e-08)
(0.01099971776 1.610576286e-08 -1.63652281e-07)
(0.01099985268 5.649290948e-07 -9.648836762e-07)
(0.0109999993 -9.719854843e-10 1.877329088e-10)
(0.01100000002 7.308737398e-11 6.266062065e-10)
(0.01100000047 6.154850089e-10 2.018643036e-10)
(0.01100000144 9.869629744e-11 -6.481326725e-10)
(0.01100000193 -5.790707161e-10 6.209295454e-10)
(0.01100000104 1.291085759e-09 8.823592165e-10)
(0.01100000178 1.545004018e-09 1.227186704e-10)
(0.01099999989 2.930559013e-09 -1.927597468e-09)
(0.01100000221 3.657836279e-10 -2.034290623e-09)
(0.0109999969 5.132616644e-09 -4.13532739e-09)
(0.01100000384 5.123241212e-09 -7.545024007e-09)
(0.01099998921 1.95449319e-08 -1.978038878e-08)
(0.01100002377 3.601848659e-08 -4.867675139e-08)
(0.01099992245 4.745977753e-08 -6.419286441e-08)
(0.0110000704 4.100920895e-07 -3.236880216e-07)
(0.0110000004 -1.151761072e-09 -9.539383296e-11)
(0.01099999916 -7.6108091e-10 -2.073597452e-10)
(0.01100000065 7.75289356e-11 1.02304955e-09)
(0.01100000015 6.484047517e-10 1.241664814e-09)
(0.0109999994 -1.476597531e-09 9.278098816e-10)
(0.01100000038 -2.469089416e-11 1.060203995e-09)
(0.01100000083 1.278246302e-09 -8.235620126e-10)
(0.01100000094 9.050950608e-10 -2.011136882e-09)
(0.01100000354 1.694236773e-09 -2.337247243e-09)
(0.01099999976 2.333162944e-09 -4.337272478e-09)
(0.0110000063 3.533080075e-10 -7.839078425e-09)
(0.01099999514 3.730916827e-09 -1.545598897e-08)
(0.01100003154 5.991345757e-09 -3.811351333e-08)
(0.01099998668 1.612054826e-09 -4.203463891e-08)
(0.01100009502 8.569311135e-08 -1.580323889e-07)
(0.01100000021 1.386049312e-09 2.009360578e-09)
(0.01099999939 1.465984294e-11 3.042131604e-09)
(0.01100000046 5.442947324e-10 8.331568924e-10)
(0.01100000025 3.639084706e-10 1.817478687e-09)
(0.01100000227 -5.364559976e-10 5.640485304e-10)
(0.01100000018 9.948111141e-10 2.152728503e-09)
(0.0110000021 -8.524379743e-10 7.850652012e-10)
(0.0110000005 4.557133646e-10 9.235804019e-10)
(0.01100000113 -2.386920351e-09 -9.833651253e-10)
(0.01099999351 -3.190316325e-09 -3.911555447e-10)
(0.01099999773 -1.451624268e-09 4.983559847e-10)
(0.01099996875 -6.649023224e-09 -1.737601563e-10)
(0.01100000098 -2.285230972e-08 -2.471592786e-10)
(0.01099989032 -2.89825368e-08 5.786335787e-10)
(0.01100000005 -5.242001401e-11 2.884114797e-09)
(0.01100000132 4.24104883e-10 1.060933751e-09)
(0.01100000067 5.509572655e-10 7.054653493e-10)
(0.01100000109 -7.262428427e-10 2.06299936e-10)
(0.01100000033 1.027253742e-09 -1.856129717e-10)
(0.01099999721 2.067648714e-09 -2.959922114e-10)
(0.0110000007 -5.452034764e-10 -1.62442357e-11)
(0.01099999952 -2.683430302e-09 4.677322732e-10)
(0.01099999904 -2.030372115e-09 9.052616394e-10)
(0.01099999232 -8.678039097e-09 1.946246202e-09)
(0.01099998919 -9.051127454e-09 1.7404645e-09)
(0.01099994911 -3.787520832e-08 1.590187862e-09)
(0.01099996038 -8.348157142e-08 1.886103391e-09)
(0.01099971154 -1.680662996e-07 -2.057191966e-10)
(0.0109999994 8.474486817e-10 3.72180676e-10)
(0.01099999803 1.353668274e-10 5.435055682e-10)
(0.01099999943 -1.478011057e-09 2.442435131e-10)
(0.01100000029 -5.01429005e-10 -1.304235474e-09)
(0.01100000052 9.538541441e-10 6.506267789e-10)
(0.01099999982 3.136977137e-10 2.12522456e-10)
(0.01099999706 -1.208577228e-10 5.398421563e-10)
(0.01100000121 -2.350110785e-09 -9.705370416e-10)
(0.01099999332 -3.672694428e-11 1.702157704e-09)
(0.01099998779 -7.424932755e-09 1.139058439e-09)
(0.01099996255 5.491833502e-09 5.388577187e-10)
(0.01099990133 -4.546005236e-08 9.076318465e-10)
(0.01099977389 -6.590971175e-09 2.76674933e-09)
(0.01099913965 -2.859342754e-07 1.339665884e-09)
(0.01099999876 2.497752293e-10 3.547713158e-10)
(0.01099999902 -1.136132223e-09 6.123324793e-10)
(0.0110000011 -1.422536868e-09 9.697634078e-10)
(0.01099999993 -6.075241071e-12 -1.623324887e-09)
(0.01099999914 -8.8356229e-10 -1.854001251e-10)
(0.01099999916 -1.474820533e-09 -1.128041136e-09)
(0.01099999791 7.328464303e-10 -1.114509867e-10)
(0.01099999837 -1.280385528e-09 -2.475033463e-10)
(0.01099999244 -1.049315703e-09 1.855359574e-09)
(0.01099999985 -1.254932438e-08 1.326849975e-09)
(0.01099993937 -6.318170573e-10 2.210276513e-09)
(0.01099998104 -1.166796732e-07 1.119311121e-09)
(0.01099943331 -1.264853144e-07 2.317380564e-10)
(0.01099890773 -1.388454357e-06 2.035632852e-09)
(0.01099999868 -7.794463687e-10 1.135752411e-09)
(0.0109999983 -3.61314263e-10 7.283044793e-10)
(0.01099999986 2.232122053e-10 1.08382903e-09)
(0.01100000154 -7.766716115e-10 7.757578437e-10)
(0.01100000126 7.634050245e-10 4.745848635e-10)