/*--------------------------------*- C++ -*----------------------------------*\
| =========                 |                                                 |
| \\      /  F ield         | OpenFOAM: The Open Source CFD Toolbox           |
|  \\    /   O peration     | Version:  4.x                                   |
|   \\  /    A nd           | Web:      www.OpenFOAM.org                      |
|    \\/     M anipulation  |                                                 |
\*---------------------------------------------------------------------------*/
FoamFile
{
    version     2.0;
    format      ascii;
    class       volScalarField;
    location    "5000";
    object      X_CO;
}
// * * * * * * * * * * * * * * * * * * * * * * * * * * * * * * * * * * * * * //

dimensions      [0 0 0 0 0 0 0];

internalField   nonuniform List<scalar> 
1175
(
0.3728740614
0.3728740614
0.3728740613
0.3728740613
0.3728740614
0.3728740613
0.3728740609
0.3728740597
0.3728740563
0.372874046
0.3728740165
0.372873938
0.3728737462
0.3728733215
0.3728724848
0.3728740615
0.3728740615
0.3728740615
0.3728740615
0.3728740613
0.3728740611
0.3728740607
0.3728740593
0.3728740542
0.3728740385
0.3728739919
0.3728738632
0.3728735372
0.3728728005
0.3728713483
0.3728740615
0.3728740615
0.3728740614
0.3728740613
0.3728740613
0.3728740611
0.3728740603
0.3728740581
0.37287405
0.3728740242
0.3728739433
0.3728737088
0.3728730896
0.3728716487
0.372868801
0.3728740615
0.3728740615
0.3728740614
0.3728740613
0.3728740611
0.3728740609
0.3728740603
0.3728740569
0.372874046
0.3728740075
0.3728738828
0.3728735049
0.3728724644
0.3728699578
0.3728649688
0.3728740614
0.3728740614
0.3728740614
0.3728740613
0.3728740613
0.3728740612
0.3728740601
0.3728740566
0.3728740438
0.3728739988
0.3728738488
0.3728733818
0.3728720523
0.3728687483
0.372862088
0.3728740615
0.3728740614
0.3728740613
0.3728740614
0.3728740613
0.3728740611
0.3728740601
0.3728740571
0.3728740459
0.3728740075
0.3728738827
0.3728735049
0.3728724643
0.3728699579
0.3728649689
0.3728740614
0.3728740615
0.3728740614
0.3728740614
0.3728740613
0.3728740612
0.3728740605
0.3728740582
0.3728740502
0.3728740243
0.3728739435
0.3728737086
0.3728730898
0.3728716487
0.3728688011
0.3728740614
0.3728740613
0.3728740616
0.3728740614
0.3728740613
0.3728740613
0.3728740608
0.3728740592
0.3728740544
0.3728740387
0.3728739922
0.3728738634
0.3728735375
0.3728728007
0.3728713484
0.3728740616
0.3728740616
0.3728740615
0.3728740616
0.3728740616
0.3728740615
0.3728740611
0.3728740601
0.3728740565
0.3728740461
0.3728740166
0.3728739381
0.3728737461
0.3728733215
0.3728724847
0.3728740615
0.3728740613
0.3728740613
0.3728740613
0.3728740613
0.3728740612
0.3728740607
0.3728740591
0.3728740542
0.3728740386
0.3728739921
0.3728738635
0.3728735375
0.3728728006
0.3728740616
0.3728740615
0.3728740615
0.3728740614
0.3728740611
0.3728740611
0.3728740604
0.3728740581
0.3728740505
0.372874025
0.3728739448
0.3728737103
0.3728730861
0.3728716241
0.3728687327
0.3728740615
0.3728740614
0.3728740615
0.3728740614
0.3728740613
0.3728740611
0.37287406
0.3728740564
0.3728740433
0.3728739971
0.3728738434
0.3728733628
0.3728720027
0.37286866
0.3728619791
0.3728740613
0.3728740613
0.3728740613
0.3728740614
0.372874061
0.3728740609
0.3728740595
0.3728740541
0.3728740345
0.3728739616
0.3728737026
0.3728728392
0.372870223
0.3728633827
0.372849371
0.3728740613
0.3728740613
0.3728740614
0.3728740613
0.3728740612
0.372874061
0.3728740594
0.3728740535
0.3728740301
0.3728739407
0.3728736115
0.3728724605
0.3728687548
0.3728583943
0.3728361841
0.3728740614
0.3728740612
0.3728740612
0.3728740613
0.3728740613
0.3728740609
0.3728740595
0.3728740545
0.3728740348
0.3728739617
0.3728737026
0.3728728392
0.3728702229
0.3728633831
0.3728493714
0.3728740614
0.3728740615
0.3728740614
0.3728740613
0.3728740612
0.372874061
0.3728740601
0.3728740564
0.3728740434
0.3728739974
0.3728738433
0.3728733627
0.3728720027
0.37286866
0.3728619796
0.3728740615
0.3728740616
0.3728740614
0.3728740613
0.3728740613
0.3728740611
0.3728740606
0.3728740583
0.3728740507
0.3728740251
0.3728739448
0.3728737101
0.372873086
0.3728716243
0.372868733
0.3728740614
0.3728740615
0.3728740615
0.3728740615
0.3728740616
0.3728740615
0.3728740609
0.3728740594
0.3728740542
0.3728740386
0.3728739921
0.3728738633
0.3728735375
0.3728728007
0.3728713485
0.3728740613
0.3728740614
0.3728740613
0.3728740614
0.3728740613
0.3728740611
0.3728740602
0.3728740579
0.3728740503
0.3728740242
0.3728739432
0.3728737087
0.3728730897
0.3728716485
0.3728740614
0.3728740614
0.3728740613
0.3728740614
0.3728740613
0.3728740609
0.3728740599
0.3728740565
0.3728740434
0.3728739973
0.3728738432
0.3728733629
0.3728720026
0.3728686594
0.3728740614
0.3728740613
0.3728740615
0.3728740614
0.3728740613
0.372874061
0.3728740593
0.3728740531
0.3728740292
0.3728739383
0.3728736092
0.3728724905
0.3728690382
0.3728598883
0.3728410659
0.3728740613
0.3728740614
0.3728740614
0.3728740614
0.3728740612
0.3728740606
0.3728740584
0.3728740491
0.3728740105
0.3728738545
0.3728732426
0.3728709654
0.3728631907
0.372840346
0.3727901945
0.3728740612
0.3728740613
0.3728740613
0.3728740613
0.3728740611
0.3728740606
0.372874058
0.3728740469
0.3728739995
0.3728737989
0.3728729656
0.3728696144
0.3728569533
0.3728147057
0.3727094443
0.3728740611
0.3728740612
0.3728740612
0.3728740614
0.3728740613
0.3728740609
0.3728740585
0.3728740492
0.3728740106
0.3728738543
0.3728732424
0.3728709654
0.372863191
0.3728403469
0.3727901969
0.3728740613
0.3728740614
0.3728740613
0.3728740612
0.3728740613
0.3728740609
0.3728740593
0.3728740531
0.3728740292
0.3728739383
0.3728736091
0.3728724906
0.3728690385
0.372859889
0.3728410683
0.3728740614
0.3728740614
0.3728740615
0.3728740614
0.3728740614
0.372874061
0.3728740602
0.3728740565
0.3728740436
0.3728739975
0.3728738433
0.3728733629
0.372872003
0.3728686601
0.3728619796
0.3728740615
0.3728740615
0.3728740614
0.3728740614
0.3728740615
0.3728740612
0.3728740605
0.3728740582
0.3728740504
0.3728740243
0.3728739433
0.3728737087
0.3728730898
0.3728716487
0.3728688013
0.3728740614
0.3728740614
0.3728740615
0.3728740615
0.3728740614
0.3728740611
0.3728740601
0.3728740569
0.3728740459
0.3728740075
0.3728738826
0.3728735049
0.3728724644
0.3728699577
0.3728740615
0.3728740614
0.3728740616
0.3728740615
0.3728740614
0.3728740609
0.3728740597
0.3728740543
0.3728740347
0.3728739616
0.3728737024
0.3728728392
0.3728702226
0.3728633817
0.3728740613
0.3728740613
0.3728740615
0.3728740614
0.3728740613
0.3728740608
0.3728740586
0.3728740492
0.3728740106
0.3728738544
0.3728732424
0.3728709653
0.3728631903
0.372840344
0.3728740616
0.3728740615
0.3728740615
0.3728740615
0.3728740613
0.3728740603
0.372874057
0.3728740421
0.3728739765
0.3728736862
0.3728724257
0.3728671199
0.3728461436
0.3727732557
0.3725867448
0.3728740614
0.3728740614
0.3728740613
0.3728740613
0.3728740612
0.3728740604
0.3728740564
0.3728740382
0.3728739541
0.3728735595
0.3728716903
0.3728628299
0.3728215487
0.3726414254
0.372015406
0.3728740614
0.3728740614
0.3728740613
0.3728740613
0.3728740612
0.3728740604
0.372874057
0.3728740421
0.3728739764
0.3728736863
0.3728724258
0.37286712
0.3728461444
0.3727732595
0.3725867597
0.3728740614
0.3728740614
0.3728740614
0.3728740615
0.3728740613
0.3728740608
0.3728740586
0.3728740492
0.3728740106
0.3728738544
0.3728732425
0.3728709656
0.3728631908
0.3728403466
0.3727901965
0.3728740615
0.3728740615
0.3728740615
0.3728740615
0.3728740613
0.372874061
0.3728740597
0.3728740545
0.3728740348
0.3728739616
0.3728737024
0.3728728393
0.3728702229
0.3728633829
0.3728493714
0.3728740614
0.3728740614
0.3728740615
0.3728740614
0.3728740613
0.372874061
0.3728740602
0.372874057
0.3728740458
0.3728740076
0.3728738828
0.3728735051
0.3728724644
0.3728699578
0.3728649689
0.3728740614
0.3728740613
0.3728740615
0.3728740613
0.3728740614
0.3728740612
0.37287406
0.3728740564
0.3728740438
0.3728739986
0.3728738488
0.3728733816
0.3728720523
0.372868748
0.3728740613
0.3728740614
0.3728740614
0.3728740615
0.3728740613
0.3728740608
0.3728740591
0.3728740533
0.3728740301
0.3728739408
0.3728736116
0.3728724606
0.3728687544
0.3728583928
0.3728740611
0.3728740612
0.3728740613
0.3728740613
0.3728740611
0.3728740608
0.372874058
0.3728740471
0.3728739996
0.3728737991
0.3728729655
0.3728696142
0.3728569522
0.3728147005
0.3728740615
0.3728740614
0.3728740614
0.3728740614
0.3728740611
0.3728740603
0.3728740562
0.3728740381
0.3728739542
0.3728735592
0.37287169
0.3728628293
0.3728215464
0.3726414092
0.3728740613
0.3728740612
0.3728740612
0.3728740613
0.3728740613
0.3728740601
0.3728740554
0.3728740328
0.3728739218
0.3728733555
0.3728703277
0.3728531919
0.3727495329
0.3720746753
0.3673107121
0.3728740614
0.3728740613
0.3728740614
0.3728740614
0.3728740612
0.3728740602
0.3728740564
0.3728740384
0.3728739543
0.3728735593
0.3728716902
0.3728628298
0.3728215483
0.3726414232
0.372015404
0.3728740615
0.3728740614
0.3728740615
0.3728740616
0.3728740614
0.3728740607
0.3728740581
0.372874047
0.3728739995
0.372873799
0.3728729654
0.3728696144
0.372856953
0.3728147045
0.3727094432
0.3728740613
0.3728740615
0.3728740612
0.3728740613
0.3728740613
0.3728740609
0.3728740595
0.3728740536
0.37287403
0.3728739408
0.3728736116
0.3728724605
0.3728687548
0.3728583939
0.3728361838
0.3728740615
0.3728740613
0.3728740613
0.3728740614
0.3728740614
0.3728740612
0.3728740603
0.3728740565
0.3728740437
0.3728739988
0.3728738488
0.3728733817
0.3728720522
0.3728687483
0.3728620879
0.3728740613
0.3728740613
0.3728740614
0.3728740615
0.3728740614
0.3728740611
0.3728740602
0.3728740571
0.3728740459
0.3728740074
0.3728738827
0.3728735049
0.3728724642
0.3728699573
0.3728740615
0.3728740615
0.3728740613
0.3728740614
0.3728740612
0.3728740609
0.3728740595
0.3728740543
0.3728740347
0.3728739617
0.3728737024
0.3728728391
0.3728702226
0.3728633819
0.3728740615
0.3728740615
0.3728740616
0.3728740615
0.3728740612
0.3728740607
0.3728740583
0.372874049
0.3728740107
0.3728738544
0.3728732425
0.3728709654
0.3728631902
0.3728403438
0.3728740613
0.3728740614
0.3728740615
0.3728740614
0.372874061
0.3728740603
0.372874057
0.372874042
0.3728739762
0.3728736861
0.3728724257
0.3728671195
0.3728461427
0.3727732513
0.3728740614
0.3728740616
0.3728740615
0.3728740615
0.3728740612
0.3728740604
0.3728740565
0.3728740383
0.372873954
0.3728735593
0.3728716901
0.3728628294
0.3728215458
0.3726414076
0.3728740615
0.3728740614
0.3728740613
0.3728740614
0.3728740612
0.3728740604
0.372874057
0.3728740423
0.3728739765
0.3728736863
0.3728724258
0.3728671196
0.372846143
0.3727732523
0.3728740614
0.3728740614
0.3728740615
0.3728740614
0.3728740614
0.3728740608
0.3728740585
0.3728740492
0.3728740105
0.3728738544
0.3728732424
0.3728709653
0.3728631904
0.3728403451
0.3727901921
0.3728740613
0.3728740614
0.3728740614
0.3728740614
0.3728740614
0.372874061
0.3728740596
0.3728740543
0.3728740347
0.3728739617
0.3728737025
0.3728728392
0.3728702226
0.3728633825
0.3728493706
0.3728740615
0.3728740614
0.3728740613
0.3728740615
0.3728740613
0.372874061
0.3728740604
0.3728740572
0.372874046
0.3728740075
0.3728738828
0.372873505
0.3728724642
0.3728699577
0.3728649687
0.3728740613
0.3728740613
0.3728740613
0.3728740612
0.3728740611
0.3728740612
0.3728740605
0.3728740581
0.3728740502
0.3728740243
0.3728739434
0.3728737086
0.3728730894
0.3728716483
0.3728740613
0.3728740614
0.3728740615
0.3728740613
0.3728740611
0.3728740609
0.3728740599
0.3728740564
0.3728740434
0.3728739972
0.3728738434
0.3728733628
0.3728720025
0.3728686593
0.3728740614
0.3728740613
0.3728740613
0.3728740613
0.3728740611
0.3728740607
0.3728740592
0.3728740531
0.3728740291
0.3728739382
0.3728736091
0.3728724905
0.3728690379
0.3728598877
0.3728740614
0.3728740614
0.3728740614
0.3728740614
0.3728740613
0.3728740606
0.3728740582
0.3728740491
0.3728740104
0.3728738542
0.3728732423
0.3728709652
0.37286319
0.3728403436
0.3728740614
0.3728740612
0.3728740613
0.3728740613
0.3728740612
0.3728740606
0.372874058
0.3728740469
0.3728739995
0.3728737989
0.3728729654
0.3728696143
0.372856952
0.3728147006
0.3728740614
0.3728740614
0.3728740613
0.3728740613
0.3728740613
0.3728740608
0.3728740585
0.372874049
0.3728740104
0.3728738543
0.3728732422
0.3728709651
0.3728631902
0.372840344
0.3728740614
0.3728740614
0.3728740616
0.3728740614
0.3728740614
0.3728740609
0.3728740594
0.3728740532
0.372874029
0.3728739383
0.3728736091
0.3728724905
0.372869038
0.3728598877
0.3728740614
0.3728740615
0.3728740614
0.3728740613
0.3728740614
0.372874061
0.3728740601
0.3728740565
0.3728740433
0.3728739973
0.3728738433
0.3728733629
0.3728720027
0.3728686596
0.3728619787
0.3728740615
0.3728740614
0.3728740614
0.3728740614
0.3728740614
0.3728740613
0.3728740607
0.3728740583
0.3728740503
0.3728740244
0.3728739435
0.3728737087
0.3728730896
0.3728716484
0.3728688007
0.3728740613
0.3728740612
0.3728740612
0.3728740613
0.3728740611
0.3728740611
0.3728740607
0.3728740592
0.3728740542
0.3728740386
0.3728739921
0.3728738632
0.3728735372
0.3728728005
0.3728740612
0.3728740613
0.3728740613
0.3728740614
0.3728740613
0.3728740611
0.3728740603
0.3728740582
0.3728740505
0.3728740251
0.3728739448
0.3728737103
0.372873086
0.372871624
0.3728740611
0.3728740613
0.3728740614
0.3728740613
0.3728740613
0.372874061
0.37287406
0.3728740564
0.3728740433
0.3728739973
0.3728738433
0.3728733628
0.3728720025
0.3728686594
0.3728740612
0.3728740612
0.3728740614
0.3728740613
0.3728740612
0.3728740607
0.3728740594
0.3728740544
0.3728740347
0.3728739617
0.3728737024
0.3728728391
0.3728702226
0.3728633817
0.3728740613
0.3728740612
0.3728740611
0.3728740612
0.3728740611
0.3728740607
0.3728740592
0.3728740534
0.37287403
0.3728739407
0.3728736115
0.3728724604
0.3728687544
0.3728583926
0.3728740613
0.3728740614
0.3728740612
0.3728740611
0.3728740612
0.3728740609
0.3728740596
0.3728740544
0.3728740346
0.3728739615
0.3728737023
0.3728728392
0.3728702226
0.3728633819
0.3728740613
0.3728740613
0.3728740613
0.3728740612
0.3728740613
0.3728740608
0.3728740601
0.3728740564
0.3728740434
0.3728739974
0.3728738434
0.3728733628
0.3728720025
0.3728686595
0.3728740613
0.3728740614
0.3728740613
0.3728740613
0.3728740612
0.3728740612
0.3728740605
0.3728740582
0.3728740506
0.372874025
0.372873945
0.3728737103
0.3728730861
0.372871624
0.3728740614
0.3728740614
0.3728740615
0.3728740615
0.3728740614
0.3728740612
0.3728740608
0.3728740593
0.3728740542
0.3728740386
0.3728739922
0.3728738634
0.3728735375
0.3728728006
0.3728713483
0.3728740613
0.3728740612
0.3728740612
0.3728740612
0.3728740613
0.372874061
0.3728740609
0.3728740598
0.3728740564
0.372874046
0.3728740164
0.372873938
0.3728737461
0.3728733214
0.3728740613
0.3728740613
0.3728740614
0.3728740613
0.3728740612
0.3728740613
0.3728740606
0.3728740592
0.3728740543
0.3728740387
0.3728739921
0.3728738634
0.3728735374
0.3728728004
0.3728740614
0.3728740613
0.3728740613
0.3728740613
0.3728740612
0.372874061
0.3728740605
0.3728740582
0.3728740503
0.3728740242
0.3728739434
0.3728737087
0.3728730894
0.3728716482
0.3728740613
0.3728740613
0.3728740613
0.3728740613
0.3728740612
0.3728740609
0.3728740601
0.372874057
0.3728740458
0.3728740074
0.3728738827
0.3728735049
0.3728724642
0.3728699573
0.3728740613
0.3728740613
0.3728740613
0.3728740612
0.3728740612
0.3728740608
0.3728740599
0.3728740564
0.3728740436
0.3728739986
0.3728738487
0.3728733817
0.3728720521
0.3728687478
0.3728740613
0.3728740613
0.3728740613
0.3728740613
0.3728740612
0.3728740609
0.3728740602
0.3728740569
0.3728740459
0.3728740074
0.3728738827
0.3728735048
0.3728724641
0.3728699576
0.3728740613
0.3728740614
0.3728740613
0.3728740613
0.3728740612
0.3728740609
0.3728740604
0.372874058
0.3728740501
0.3728740242
0.3728739433
0.3728737085
0.3728730895
0.3728716484
0.3728740612
0.3728740612
0.3728740612
0.3728740612
0.3728740611
0.3728740611
0.3728740606
0.372874059
0.3728740544
0.3728740387
0.3728739919
0.3728738632
0.3728735374
0.3728728005
0.3728740614
0.3728740614
0.3728740613
0.3728740613
0.3728740611
0.3728740611
0.3728740609
0.3728740598
0.3728740563
0.372874046
0.3728740165
0.3728739381
0.3728737461
0.3728733213
)
;

boundaryField
{
    top
    {
        type            calculated;
        value           nonuniform List<scalar> 
134
(
0.3728740616
0.3728740614
0.3728740615
0.3728740614
0.3728740615
0.3728740615
0.3728740615
0.3728740614
0.3728740614
0.3728740616
0.3728740615
0.3728740615
0.3728740614
0.3728740613
0.3728740614
0.3728740614
0.3728740614
0.3728740614
0.3728740615
0.3728740615
0.3728740614
0.3728740615
0.3728740613
0.3728740613
0.3728740614
0.3728740615
0.3728740613
0.3728740616
0.3728740615
0.3728740614
0.3728740614
0.3728740614
0.3728740615
0.3728740614
0.3728740615
0.3728740613
0.3728740616
0.3728740616
0.3728740615
0.3728740613
0.3728740614
0.3728740613
0.3728740614
0.3728740614
0.3728740611
0.3728740615
0.3728740615
0.3728740612
0.372874061
0.3728740612
0.372874061
0.3728740613
0.3728740612
0.3728740611
0.3728740611
0.3728740609
0.3728740605
0.3728740602
0.3728740603
0.3728740604
0.3728740607
0.3728740608
0.3728740609
0.3728740601
0.3728740594
0.3728740582
0.372874057
0.3728740565
0.3728740572
0.3728740583
0.3728740593
0.3728740598
0.3728740565
0.3728740542
0.3728740504
0.3728740458
0.3728740437
0.372874046
0.3728740503
0.3728740542
0.3728740563
0.3728740461
0.3728740386
0.3728740243
0.3728740076
0.3728739988
0.3728740075
0.3728740244
0.3728740386
0.372874046
0.3728740166
0.3728739921
0.3728739433
0.3728738828
0.3728738488
0.3728738828
0.3728739435
0.3728739922
0.3728740165
0.3728739381
0.3728738633
0.3728737087
0.3728735051
0.3728733817
0.372873505
0.3728737087
0.3728738634
0.3728739381
0.3728737461
0.3728735375
0.3728730898
0.3728724644
0.3728720522
0.3728724642
0.3728730896
0.3728735375
0.3728737461
0.3728733215
0.3728728007
0.3728716487
0.3728699578
0.3728687483
0.3728699577
0.3728716484
0.3728728006
0.3728733213
0.3728724847
0.3728713485
0.3728688013
0.3728649689
0.3728620879
0.3728649687
0.3728688007
0.3728713483
)
;
    }
    bottom
    {
        type            calculated;
        value           nonuniform List<scalar> 
127
(
0.3728740614
0.3728740615
0.3728740613
0.3728740614
0.3728740614
0.3728740613
0.3728740613
0.3728740613
0.3728740613
0.3728740614
0.3728740613
0.3728740614
0.3728740614
0.3728740613
0.3728740613
0.3728740613
0.3728740612
0.3728740612
0.3728740613
0.3728740613
0.3728740613
0.3728740615
0.3728740615
0.3728740614
0.3728740613
0.3728740612
0.3728740612
0.3728740613
0.3728740613
0.3728740614
0.3728740615
0.3728740613
0.3728740615
0.3728740612
0.3728740613
0.3728740612
0.3728740614
0.3728740613
0.3728740613
0.3728740614
0.3728740614
0.3728740614
0.3728740611
0.3728740611
0.3728740613
0.3728740613
0.3728740612
0.3728740611
0.3728740611
0.3728740612
0.3728740611
0.3728740612
0.3728740611
0.372874061
0.3728740609
0.3728740607
0.3728740602
0.3728740601
0.37287406
0.3728740602
0.3728740605
0.3728740607
0.3728740609
0.3728740597
0.3728740591
0.3728740579
0.3728740569
0.3728740564
0.3728740571
0.3728740581
0.3728740592
0.3728740598
0.3728740563
0.3728740542
0.3728740503
0.3728740459
0.3728740438
0.3728740459
0.3728740502
0.3728740542
0.3728740564
0.372874046
0.3728740386
0.3728740242
0.3728740075
0.3728739986
0.3728740074
0.3728740243
0.3728740386
0.372874046
0.3728740165
0.3728739921
0.3728739432
0.3728738826
0.3728738488
0.3728738827
0.3728739434
0.3728739921
0.3728740164
0.372873938
0.3728738635
0.3728737087
0.3728735049
0.3728733816
0.3728735049
0.3728737086
0.3728738632
0.372873938
0.3728737462
0.3728735375
0.3728730897
0.3728724644
0.3728720523
0.3728724642
0.3728730894
0.3728735372
0.3728737461
0.3728733215
0.3728728006
0.3728716485
0.3728699577
0.372868748
0.3728699573
0.3728716483
0.3728728005
0.3728733214
0.3728724848
)
;
    }
    side-walls
    {
        type            calculated;
        value           nonuniform List<scalar> 
261
(
0.3728740614
0.3728740615
0.3728740615
0.3728740615
0.3728740614
0.3728740615
0.3728740614
0.3728740614
0.3728740616
0.3728740614
0.3728740615
0.3728740615
0.3728740615
0.3728740614
0.3728740614
0.3728740615
0.3728740613
0.3728740616
0.3728740613
0.3728740615
0.3728740614
0.3728740614
0.3728740614
0.3728740613
0.3728740614
0.3728740616
0.3728740615
0.3728740613
0.3728740615
0.3728740613
0.3728740613
0.3728740613
0.3728740614
0.3728740614
0.3728740614
0.3728740616
0.3728740614
0.3728740613
0.3728740613
0.3728740611
0.3728740613
0.3728740613
0.3728740613
0.3728740613
0.3728740616
0.3728740613
0.3728740611
0.3728740611
0.3728740609
0.3728740612
0.3728740611
0.3728740612
0.3728740613
0.3728740615
0.3728740609
0.3728740607
0.3728740603
0.3728740603
0.3728740601
0.3728740601
0.3728740605
0.3728740608
0.3728740611
0.3728740597
0.3728740593
0.3728740581
0.3728740569
0.3728740566
0.3728740571
0.3728740582
0.3728740592
0.3728740601
0.3728740563
0.3728740542
0.37287405
0.372874046
0.3728740438
0.3728740459
0.3728740502
0.3728740544
0.3728740565
0.372874046
0.3728740385
0.3728740242
0.3728740075
0.3728739988
0.3728740075
0.3728740243
0.3728740387
0.3728740461
0.3728740165
0.3728739919
0.3728739433
0.3728738828
0.3728738488
0.3728738827
0.3728739435
0.3728739922
0.3728740166
0.372873938
0.3728738632
0.3728737088
0.3728735049
0.3728733818
0.3728735049
0.3728737086
0.3728738634
0.3728739381
0.3728737462
0.3728735372
0.3728730896
0.3728724644
0.3728720523
0.3728724643
0.3728730898
0.3728735375
0.3728737461
0.3728733215
0.3728728005
0.3728716487
0.3728699578
0.3728687483
0.3728699579
0.3728716487
0.3728728007
0.3728733215
0.3728724848
0.3728713483
0.372868801
0.3728649688
0.372862088
0.3728649689
0.3728688011
0.3728713484
0.3728724847
0.3728740613
0.3728740613
0.3728740614
0.3728740613
0.3728740613
0.3728740613
0.3728740613
0.3728740612
0.3728740614
0.3728740612
0.3728740613
0.3728740613
0.3728740613
0.3728740613
0.3728740613
0.3728740614
0.3728740612
0.3728740614
0.3728740612
0.3728740614
0.3728740613
0.3728740613
0.3728740613
0.3728740613
0.3728740613
0.3728740612
0.3728740613
0.3728740612
0.3728740613
0.3728740613
0.3728740613
0.3728740612
0.3728740613
0.3728740613
0.3728740612
0.3728740613
0.3728740613
0.3728740612
0.3728740612
0.3728740612
0.3728740612
0.3728740612
0.3728740612
0.3728740611
0.3728740611
0.372874061
0.3728740613
0.372874061
0.3728740609
0.3728740608
0.3728740609
0.3728740609
0.3728740611
0.3728740611
0.3728740609
0.3728740606
0.3728740605
0.3728740601
0.3728740599
0.3728740602
0.3728740604
0.3728740606
0.3728740609
0.3728740598
0.3728740592
0.3728740582
0.372874057
0.3728740564
0.3728740569
0.372874058
0.372874059
0.3728740598
0.3728740564
0.3728740543
0.3728740503
0.3728740458
0.3728740436
0.3728740459
0.3728740501
0.3728740544
0.3728740563
0.372874046
0.3728740387
0.3728740242
0.3728740074
0.3728739986
0.3728740074
0.3728740242
0.3728740387
0.372874046
0.3728740164
0.3728739921
0.3728739434
0.3728738827
0.3728738487
0.3728738827
0.3728739433
0.3728739919
0.3728740165
0.372873938
0.3728738634
0.3728737087
0.3728735049
0.3728733817
0.3728735048
0.3728737085
0.3728738632
0.3728739381
0.3728737461
0.3728735374
0.3728730894
0.3728724642
0.3728720521
0.3728724641
0.3728730895
0.3728735374
0.3728737461
0.3728733214
0.3728728004
0.3728716482
0.3728699573
0.3728687478
0.3728699576
0.3728716484
0.3728728005
0.3728733213
)
;
    }
    inlet
    {
        type            calculated;
        value           nonuniform List<scalar> 
81
(
0.3728740614
0.3728740615
0.3728740615
0.3728740615
0.3728740614
0.3728740615
0.3728740614
0.3728740614
0.3728740616
0.3728740615
0.3728740616
0.3728740615
0.3728740613
0.3728740613
0.3728740614
0.3728740614
0.3728740615
0.3728740614
0.3728740613
0.3728740614
0.3728740614
0.3728740613
0.3728740612
0.3728740611
0.3728740613
0.3728740614
0.3728740615
0.3728740614
0.3728740615
0.3728740613
0.3728740616
0.3728740614
0.3728740614
0.3728740614
0.3728740615
0.3728740614
0.3728740614
0.3728740613
0.3728740611
0.3728740615
0.3728740613
0.3728740614
0.3728740615
0.3728740613
0.3728740615
0.3728740613
0.3728740615
0.3728740615
0.3728740613
0.3728740614
0.3728740615
0.3728740614
0.3728740613
0.3728740615
0.3728740613
0.3728740613
0.3728740614
0.3728740614
0.3728740614
0.3728740614
0.3728740614
0.3728740614
0.3728740615
0.3728740613
0.3728740612
0.3728740611
0.3728740612
0.3728740613
0.3728740613
0.3728740613
0.3728740613
0.3728740614
0.3728740613
0.3728740613
0.3728740614
0.3728740613
0.3728740613
0.3728740613
0.3728740613
0.3728740612
0.3728740614
)
;
    }
    outlet
    {
        type            calculated;
        value           nonuniform 0();
    }
    procBoundary0to1
    {
        type            processor;
        value           nonuniform List<scalar> 
97
(
0.3728710261
0.3728713484
0.3728688889
0.3728641619
0.3728572246
0.3728522622
0.3728572247
0.3728641622
0.3728688891
0.3728710262
0.3728713484
0.3728713484
0.3728640619
0.3728619787
0.3728518989
0.372830244
0.3728097719
0.3728302445
0.3728518995
0.3728640622
0.3728688891
0.372868801
0.3728619787
0.3728619787
0.372815905
0.3727901907
0.3727356965
0.372630429
0.3727356985
0.3728159065
0.3728518994
0.3728641622
0.3728649686
0.3728493702
0.3727901907
0.3727901907
0.3724602295
0.3720153636
0.3719184087
0.3724602368
0.3727356983
0.3728302443
0.3728572247
0.3728620877
0.3728361825
0.3727094369
0.3720153636
0.3720153636
0.3695780086
0.3720153651
0.3719184091
0.3725867472
0.3726304283
0.3728097714
0.3728522621
0.3728649685
0.3728493705
0.3727901936
0.3725867493
0.3720153651
0.3725867472
0.3725867472
0.3727356966
0.372841066
0.3728302437
0.3728572246
0.3728688009
0.3728619792
0.372841067
0.3727901936
0.3727094375
0.3727901939
0.372841066
0.372841066
0.372851899
0.3728687327
0.3728641619
0.3728713482
0.3728687326
0.372861979
0.3728493706
0.3728361827
0.3728493706
0.3728619792
0.3728687327
0.3728687327
0.372868889
0.3728724846
0.3728724847
0.3728713482
0.3728688007
0.3728649685
0.3728620875
0.3728649686
0.3728688009
0.3728713484
0.3728724846
)
;
    }
}


// ************************************************************************* //
