/*--------------------------------*- C++ -*----------------------------------*\
| =========                 |                                                 |
| \\      /  F ield         | OpenFOAM: The Open Source CFD Toolbox           |
|  \\    /   O peration     | Version:  4.x                                   |
|   \\  /    A nd           | Web:      www.OpenFOAM.org                      |
|    \\/     M anipulation  |                                                 |
\*---------------------------------------------------------------------------*/
FoamFile
{
    version     2.0;
    format      ascii;
    class       volScalarField;
    location    "7000";
    object      CO2;
}
// * * * * * * * * * * * * * * * * * * * * * * * * * * * * * * * * * * * * * //

dimensions      [0 0 0 0 0 0 0];

internalField   nonuniform List<scalar> 
1175
(
0.006506720555
0.006506720213
0.006506720336
0.006506720249
0.006506720533
0.006506720952
0.00650672086
0.006506722077
0.006506726797
0.006506738819
0.006506772355
0.006506864267
0.006507089346
0.006507586356
0.006508564894
0.006506720082
0.006506720274
0.006506720475
0.00650672128
0.006506720671
0.006506719897
0.006506720616
0.006506722591
0.006506728975
0.006506747378
0.0065068014
0.006506952106
0.006507333657
0.006508195136
0.006509893997
0.006506720524
0.00650672092
0.006506720346
0.006506720332
0.006506720807
0.00650672063
0.006506721112
0.006506723458
0.00650673299
0.006506763487
0.006506858463
0.006507132511
0.006507857194
0.006509542788
0.006512873649
0.006506720643
0.006506720891
0.006506720687
0.006506720184
0.006506720063
0.006506720232
0.00650672151
0.006506725008
0.00650673784
0.006506783476
0.006506929224
0.006507371128
0.006508588108
0.006511520304
0.006517356625
0.006506720432
0.006506720837
0.006506720989
0.006506720901
0.00650672078
0.006506720983
0.006506721321
0.006506725636
0.006506740822
0.006506793811
0.006506968856
0.006507514917
0.006509070451
0.006512935687
0.006520726704
0.006506721217
0.006506721018
0.006506719962
0.006506720422
0.006506720179
0.006506720195
0.006506721358
0.00650672487
0.006506738401
0.006506783222
0.006506928916
0.006507370965
0.006508588698
0.006511520607
0.006517357099
0.006506720348
0.006506720724
0.006506720584
0.006506720862
0.006506720614
0.006506720698
0.006506721461
0.006506724253
0.006506733859
0.006506764144
0.006506858056
0.006507132736
0.006507857234
0.006509542643
0.006512873628
0.006506720398
0.006506720675
0.006506720843
0.006506720776
0.006506720878
0.006506720437
0.006506720959
0.006506722355
0.006506728427
0.006506746315
0.006506801048
0.00650695199
0.006507332996
0.00650819486
0.006509894078
0.006506720756
0.006506720767
0.006506720354
0.006506720493
0.006506720792
0.006506721069
0.006506720884
0.006506722097
0.006506726168
0.00650673813
0.006506773082
0.006506864363
0.006507089335
0.006507585713
0.006508564432
0.00650672087
0.006506720977
0.00650672054
0.006506720202
0.006506719553
0.006506720407
0.006506720677
0.006506722804
0.006506728773
0.006506746392
0.006506800998
0.006506951766
0.006507333195
0.006508195537
0.006506720409
0.006506720684
0.006506719859
0.006506720392
0.006506720471
0.006506720036
0.006506721009
0.006506723723
0.006506733416
0.006506762576
0.006506856009
0.006507130563
0.006507861234
0.006509571863
0.006512954031
0.006506720575
0.006506720769
0.006506720616
0.006506720273
0.006506719994
0.006506720455
0.006506721416
0.006506725997
0.006506741177
0.006506795259
0.006506975223
0.006507537922
0.006509128885
0.006513039482
0.006520854431
0.006506720741
0.006506720749
0.006506720317
0.006506720481
0.006506720387
0.006506720337
0.00650672221
0.006506728976
0.006506751228
0.006506837255
0.00650714067
0.006508150725
0.006511211852
0.006519214136
0.006535605384
0.006506720781
0.006506720756
0.00650672091
0.006506720621
0.006506720568
0.006506720856
0.006506722723
0.006506729756
0.006506756651
0.006506861181
0.006507246434
0.006508593832
0.006512929255
0.00652505084
0.006551029856
0.006506721274
0.006506720635
0.006506720756
0.006506720234
0.00650672094
0.006506720592
0.006506721888
0.006506728467
0.006506751797
0.006506837421
0.00650714082
0.006508151314
0.006511211995
0.006519213563
0.006535604611
0.006506721118
0.006506720442
0.006506720053
0.006506720862
0.006506720799
0.006506720678
0.006506721575
0.006506726427
0.006506741874
0.00650679611
0.006506975472
0.006507537587
0.006509129093
0.006513039746
0.006520854108
0.006506720013
0.006506720109
0.006506720513
0.006506721027
0.006506720699
0.006506721013
0.00650672153
0.006506724183
0.006506732664
0.006506762199
0.00650685621
0.006507131338
0.006507861649
0.006509571395
0.00651295349
0.006506720092
0.006506720408
0.006506720664
0.006506719977
0.006506719979
0.006506720953
0.00650672181
0.00650672285
0.006506729103
0.006506747119
0.006506801854
0.006506952389
0.006507332916
0.006508194789
0.006509893921
0.006506720062
0.006506720194
0.006506719952
0.006506720317
0.006506720205
0.006506720422
0.006506721748
0.006506724099
0.006506734076
0.006506764435
0.006506858758
0.006507132822
0.006507857546
0.006509543335
0.006506720767
0.006506721138
0.006506720346
0.006506720796
0.006506720628
0.006506720662
0.006506721257
0.006506726384
0.00650674178
0.006506795553
0.006506975193
0.006507538116
0.006509129171
0.006513040374
0.006506720345
0.006506720843
0.006506720483
0.006506720277
0.006506720355
0.006506721407
0.0065067226
0.006506730315
0.006506757764
0.00650686454
0.006507248981
0.0065085578
0.006512598214
0.00652330322
0.006545323059
0.006506719993
0.006506720321
0.006506721043
0.006506720804
0.006506720392
0.006506720615
0.006506724131
0.006506734945
0.006506780018
0.006506962361
0.006507678354
0.006510342839
0.006519441276
0.006546170625
0.00660483863
0.006506720713
0.006506720441
0.006506720432
0.006506720574
0.006506720704
0.006506721567
0.006506725079
0.006506737392
0.006506792982
0.006507027281
0.00650800288
0.006511923817
0.006526740254
0.006576174926
0.006699288638
0.0065067207
0.006506720723
0.006506720481
0.006506720638
0.006506720625
0.006506720741
0.006506723679
0.006506734988
0.006506780133
0.006506962648
0.006507678329
0.006510343329
0.006519440396
0.006546168631
0.006604833713
0.006506720105
0.006506720368
0.006506720117
0.006506720851
0.006506720455
0.006506720421
0.006506722725
0.006506729968
0.00650675762
0.00650686406
0.006507248938
0.006508557586
0.006512597224
0.006523301787
0.006545318924
0.006506719573
0.006506719999
0.006506719813
0.006506720246
0.006506720966
0.006506720429
0.006506722045
0.006506726233
0.006506741425
0.006506794375
0.00650697511
0.006507537582
0.006509128866
0.006513039552
0.006520854596
0.006506720276
0.006506719914
0.006506720664
0.006506720908
0.006506720742
0.006506720335
0.006506721729
0.006506724335
0.006506733166
0.006506764062
0.006506858238
0.006507132661
0.006507856503
0.006509542859
0.00651287353
0.006506719911
0.006506719904
0.006506720516
0.006506720366
0.00650672036
0.006506720271
0.00650672166
0.006506725007
0.006506738548
0.006506783632
0.006506929304
0.006507371456
0.006508588586
0.006511521545
0.006506720326
0.006506719843
0.006506719742
0.006506720354
0.006506720864
0.006506720614
0.0065067223
0.006506728214
0.006506751804
0.006506837307
0.006507140487
0.006508150594
0.006511212091
0.006519215287
0.006506720683
0.006506720335
0.00650671996
0.006506720395
0.006506720886
0.006506721387
0.006506723488
0.006506735363
0.006506779895
0.006506962598
0.006507678671
0.006510343838
0.006519441746
0.006546174381
0.006506720988
0.006506720687
0.006506721042
0.006506720507
0.006506721313
0.006506722559
0.00650672633
0.006506743899
0.006506821165
0.006507159864
0.006508634959
0.006514843796
0.00653939149
0.006624683357
0.006842855596
0.006506720268
0.006506719761
0.006506720555
0.006506720821
0.006506720842
0.006506722034
0.006506727285
0.006506747928
0.006506845804
0.006507308529
0.006509495452
0.006519865901
0.006568181658
0.006778966097
0.00751096216
0.006506720202
0.00650672043
0.006506720234
0.006506720316
0.006506720537
0.00650672172
0.006506725559
0.006506742513
0.006506819824
0.006507158812
0.006508634133
0.006514843268
0.006539390814
0.006624676676
0.006842826377
0.006506719938
0.006506719786
0.006506720404
0.006506720364
0.006506720181
0.006506721308
0.006506723971
0.006506734691
0.00650677925
0.006506962386
0.006507678483
0.006510342989
0.006519440617
0.0065461695
0.006604834212
0.006506719218
0.006506719964
0.006506720062
0.00650672028
0.006506720288
0.006506720903
0.006506722472
0.006506728602
0.006506752139
0.006506836455
0.006507140187
0.006508150014
0.00651121031
0.006519213029
0.006535604406
0.006506719688
0.006506720431
0.006506720315
0.006506720071
0.006506720259
0.006506721145
0.006506721158
0.006506725138
0.006506738703
0.006506783809
0.006506929029
0.006507370927
0.006508588563
0.006511520711
0.006517357021
0.006506720128
0.006506720366
0.006506719853
0.006506720724
0.006506720526
0.006506721151
0.00650672183
0.00650672671
0.006506741884
0.0065067942
0.006506969423
0.00650751598
0.006509071369
0.00651293695
0.006506720704
0.006506720214
0.006506720378
0.006506720662
0.006506720904
0.006506721343
0.00650672306
0.006506729915
0.006506756732
0.006506861614
0.006507246421
0.006508594144
0.006512929944
0.006525054298
0.006506720144
0.006506720176
0.00650672016
0.006506720155
0.00650672051
0.00650672122
0.006506724246
0.006506737916
0.006506792837
0.006507027614
0.006508003284
0.006511924952
0.006526743224
0.006576186471
0.006506720122
0.006506719821
0.006506720107
0.006506719963
0.006506721181
0.00650672252
0.006506726907
0.006506747252
0.00650684621
0.006507308185
0.006509495839
0.0065198661
0.00656818623
0.006778999198
0.006506719332
0.006506719985
0.006506719881
0.006506720255
0.006506720455
0.006506721702
0.006506727298
0.006506753597
0.006506883134
0.006507546839
0.006511090525
0.006531149266
0.006652490147
0.007442165707
0.01299775836
0.006506720219
0.006506719786
0.006506720081
0.006506720567
0.006506720318
0.006506721924
0.006506726589
0.006506747366
0.006506845755
0.006507307672
0.006509495505
0.006519865928
0.006568182796
0.006778970036
0.007510964202
0.006506719751
0.006506720087
0.006506720272
0.006506720008
0.006506720155
0.006506721396
0.006506725167
0.006506737023
0.006506792613
0.006507027084
0.006508002071
0.006511923396
0.006526740982
0.00657617609
0.006699289505
0.006506720288
0.006506719927
0.006506719869
0.006506719835
0.006506720294
0.006506720799
0.006506722585
0.006506729411
0.006506757333
0.006506861609
0.006507246037
0.00650859341
0.006512929197
0.006525051336
0.006551030052
0.006506720398
0.006506720311
0.00650672033
0.006506720045
0.00650672069
0.006506720244
0.006506721623
0.006506725962
0.006506740752
0.006506792914
0.006506968131
0.006507514791
0.006509070771
0.0065129363
0.006520726217
0.006506719924
0.006506719745
0.00650671994
0.006506720278
0.00650672043
0.006506721358
0.006506722218
0.006506725739
0.006506739073
0.006506783705
0.006506929289
0.006507371387
0.006508589306
0.006511521663
0.006506720569
0.006506720573
0.006506720352
0.006506720416
0.00650672152
0.006506721463
0.006506722879
0.006506729063
0.006506752078
0.006506837305
0.00650713975
0.006508150616
0.006511212351
0.006519216013
0.006506720161
0.006506720186
0.00650672046
0.00650672109
0.006506720933
0.006506721269
0.006506723699
0.006506735416
0.006506780158
0.006506962806
0.006507679214
0.006510343636
0.006519442073
0.006546175565
0.006506720233
0.006506719747
0.006506719922
0.006506720153
0.006506720649
0.006506721461
0.006506725492
0.006506742342
0.006506820317
0.006507159185
0.006508633675
0.00651484476
0.006539395523
0.006624694044
0.006506720156
0.006506720555
0.006506720052
0.00650672028
0.006506720279
0.006506721398
0.006506726267
0.006506747649
0.006506845617
0.006507307965
0.006509495651
0.006519866968
0.006568187095
0.006779003848
0.00650672018
0.006506720132
0.006506719274
0.006506719671
0.006506720375
0.006506721468
0.006506725884
0.006506742847
0.006506819529
0.006507159056
0.006508634438
0.006514844299
0.006539393803
0.006624690579
0.006506721073
0.006506720017
0.006506720038
0.006506719935
0.006506719725
0.006506719929
0.006506723879
0.006506734796
0.006506780217
0.00650696268
0.006507678667
0.006510343339
0.006519440484
0.006546171834
0.006604844401
0.006506720226
0.00650671986
0.006506720358
0.006506720897
0.00650672063
0.006506721163
0.006506722391
0.006506728019
0.006506751274
0.006506836313
0.006507140149
0.006508150388
0.00651121115
0.006519214334
0.006535605846
0.006506721437
0.006506720855
0.00650672106
0.006506720408
0.006506720205
0.006506720657
0.006506721638
0.006506725058
0.006506738463
0.006506783415
0.006506929291
0.006507371447
0.006508589068
0.006511520805
0.006517357287
0.006506720041
0.0065067202
0.006506720386
0.006506720084
0.006506720174
0.006506720716
0.006506721719
0.006506724392
0.00650673363
0.00650676335
0.006506859386
0.006507133799
0.006507858143
0.006509543271
0.006506720864
0.006506720375
0.006506719629
0.006506719962
0.006506721095
0.00650672061
0.006506722106
0.006506725956
0.006506741282
0.006506795584
0.006506975635
0.006507537489
0.006509129689
0.006513040405
0.006506719766
0.006506720395
0.006506720602
0.006506720288
0.006506720547
0.00650672143
0.006506722867
0.006506730264
0.006506758492
0.006506864717
0.006507249972
0.00650855869
0.006512598677
0.006523305749
0.006506720592
0.006506720255
0.006506720909
0.006506719581
0.006506721068
0.0065067218
0.006506724328
0.006506735291
0.006506780551
0.006506963387
0.006507679158
0.006510343907
0.006519442325
0.0065461755
0.006506720044
0.006506720135
0.006506719949
0.00650671997
0.006506720665
0.006506721332
0.006506724458
0.006506737261
0.006506791519
0.006507026994
0.006508003458
0.00651192484
0.006526743266
0.006576186078
0.006506719806
0.006506719531
0.006506720446
0.006506720158
0.006506720657
0.006506721078
0.006506723618
0.006506734612
0.006506780162
0.006506962555
0.006507678262
0.006510343202
0.006519441575
0.006546174
0.006506719856
0.006506720111
0.00650672013
0.006506719959
0.006506720304
0.006506721198
0.006506723463
0.006506730247
0.006506758147
0.006506864353
0.006507249487
0.006508557381
0.006512597752
0.006523304729
0.006506720469
0.006506720715
0.006506721061
0.006506720717
0.006506719681
0.006506720338
0.006506721874
0.006506726287
0.006506741388
0.006506795148
0.00650697533
0.006507537008
0.006509128523
0.006513040028
0.006520856491
0.006506720741
0.006506720913
0.006506721215
0.006506721011
0.006506720851
0.006506720382
0.006506721004
0.006506723527
0.006506733229
0.006506764387
0.006506858325
0.006507132746
0.006507856667
0.006509543407
0.006512873962
0.006506719969
0.006506720893
0.006506720571
0.006506721141
0.006506721035
0.006506720352
0.006506720724
0.006506722834
0.006506729192
0.006506747253
0.00650680184
0.006506953386
0.006507333546
0.00650819527
0.006506720808
0.006506721348
0.00650672098
0.006506721209
0.006506720797
0.006506721027
0.006506721681
0.006506723698
0.006506732747
0.006506763105
0.006506857094
0.006507132029
0.006507862112
0.006509571993
0.006506720689
0.006506720907
0.00650672082
0.006506720837
0.006506720423
0.00650672121
0.006506722325
0.006506726729
0.006506741503
0.006506795543
0.006506974963
0.006507537628
0.006509129145
0.006513040851
0.006506719779
0.006506720408
0.00650672047
0.006506720567
0.006506721003
0.006506720901
0.006506722481
0.006506728409
0.006506751243
0.006506837058
0.006507140162
0.006508150619
0.006511212395
0.006519216582
0.006506720038
0.006506719524
0.006506720232
0.006506720616
0.006506720197
0.006506720986
0.006506722885
0.006506729211
0.006506756687
0.006506861282
0.006507246279
0.00650859359
0.006512930647
0.006525054509
0.00650672092
0.006506720776
0.00650672061
0.006506719959
0.006506720029
0.006506720424
0.00650672232
0.006506729017
0.006506751217
0.006506837237
0.006507140163
0.006508150513
0.006511211254
0.00651921565
0.006506720706
0.006506720047
0.006506720453
0.006506720929
0.00650672042
0.006506720786
0.006506721908
0.00650672576
0.006506741293
0.006506795227
0.00650697522
0.006507537706
0.006509129661
0.006513040179
0.006506720879
0.006506720694
0.006506720523
0.006506720351
0.006506720531
0.006506721345
0.006506721311
0.006506724052
0.006506733082
0.00650676308
0.006506856798
0.006507130663
0.006507860824
0.00650957168
0.006506721463
0.006506720777
0.006506720601
0.006506720719
0.006506720753
0.006506720203
0.006506720841
0.006506722994
0.006506728309
0.006506747055
0.006506801653
0.006506951797
0.006507333331
0.006508195231
0.006509894192
0.006506720298
0.0065067209
0.006506720628
0.006506720519
0.006506720632
0.006506720656
0.006506721037
0.006506722432
0.006506726467
0.006506739048
0.006506773811
0.006506864997
0.006507088833
0.006507585812
0.006506720353
0.006506720696
0.006506719822
0.006506720683
0.006506720551
0.006506721252
0.006506721574
0.006506722614
0.006506728645
0.006506747605
0.006506802069
0.006506952035
0.006507333418
0.006508195815
0.00650672037
0.00650672037
0.006506720823
0.006506720669
0.006506720769
0.006506720317
0.006506721093
0.006506723737
0.006506733133
0.006506763872
0.006506858245
0.006507133077
0.006507857865
0.006509543884
0.006506720349
0.006506720483
0.006506720698
0.006506720224
0.006506719397
0.00650672033
0.006506721297
0.006506724624
0.006506738151
0.006506783975
0.006506929658
0.006507371608
0.006508589375
0.006511521955
0.006506719836
0.0065067194
0.006506719434
0.00650671899
0.006506719725
0.006506720736
0.006506721667
0.006506725297
0.006506740229
0.006506793422
0.006506968117
0.006507514881
0.006509070423
0.006512936699
0.006506720042
0.006506719845
0.00650671966
0.00650672014
0.00650672002
0.006506720466
0.006506721147
0.006506725316
0.006506737899
0.006506782969
0.006506929591
0.006507371749
0.006508589604
0.006511522115
0.006506719507
0.006506720108
0.006506720787
0.006506720224
0.006506720166
0.006506720556
0.006506721598
0.006506723987
0.006506733577
0.00650676403
0.006506858681
0.00650713295
0.006507856586
0.006509543348
0.006506719921
0.00650672003
0.006506721245
0.006506720803
0.006506720326
0.006506720598
0.006506720571
0.006506722275
0.006506728206
0.00650674608
0.006506801599
0.006506951993
0.006507333754
0.006508195504
0.006506720547
0.006506720218
0.006506720105
0.006506720395
0.006506720379
0.006506720242
0.006506720683
0.006506722136
0.006506726065
0.006506738822
0.006506773248
0.006506864444
0.006507089181
0.006507585976
)
;

boundaryField
{
    top
    {
        type            zeroGradient;
    }
    bottom
    {
        type            zeroGradient;
    }
    side-walls
    {
        type            zeroGradient;
    }
    inlet
    {
        type            zeroGradient;
    }
    outlet
    {
        type            zeroGradient;
    }
    procBoundary0to1
    {
        type            processor;
        value           nonuniform List<scalar> 
97
(
0.006510270668
0.006509894076
0.006512770365
0.006518299554
0.006526414875
0.006532220142
0.006526414868
0.00651830015
0.00651277021
0.006510270312
0.006509894076
0.006509894076
0.006518417972
0.006520856116
0.006532646377
0.006557979858
0.00658192804
0.006557979685
0.006532646178
0.00651841722
0.006512770552
0.006512874147
0.006520856116
0.006520856116
0.006574756269
0.006604846275
0.006668589999
0.006791724516
0.006668586663
0.006574753888
0.006532646217
0.006518300193
0.006517357488
0.006535607135
0.006604846275
0.006604846275
0.006990813662
0.007511069678
0.007624327476
0.006990801771
0.006668587602
0.006557979561
0.006526415032
0.006520728155
0.006551033777
0.006699304514
0.007511069678
0.007511069678
0.01035544131
0.007511066036
0.007624325306
0.00684285557
0.006791725653
0.006581929714
0.006532220676
0.006517357518
0.006535606864
0.00660484152
0.006842851389
0.007511066036
0.00684285557
0.00684285557
0.006668589974
0.006545322868
0.00655798027
0.00652641533
0.006512874178
0.006520854712
0.006545322385
0.006604841165
0.006699304228
0.006604839972
0.006545322868
0.006545322868
0.006532647055
0.00651295368
0.006518299998
0.00650989424
0.006512954195
0.006520855613
0.006535606446
0.006551033225
0.006535605859
0.006520855264
0.00651295368
0.00651295368
0.006512770757
0.006508564854
0.006508564867
0.006509893434
0.00651287382
0.006517357457
0.006520727753
0.006517357446
0.006512873646
0.006509894391
0.006508564854
)
;
    }
}


// ************************************************************************* //
