/*--------------------------------*- C++ -*----------------------------------*\
| =========                 |                                                 |
| \\      /  F ield         | OpenFOAM: The Open Source CFD Toolbox           |
|  \\    /   O peration     | Version:  4.x                                   |
|   \\  /    A nd           | Web:      www.OpenFOAM.org                      |
|    \\/     M anipulation  |                                                 |
\*---------------------------------------------------------------------------*/
FoamFile
{
    version     2.0;
    format      ascii;
    class       volScalarField;
    location    "7000";
    object      Cpv;
}
// * * * * * * * * * * * * * * * * * * * * * * * * * * * * * * * * * * * * * //

dimensions      [0 2 -2 -1 0 0 0];

internalField   nonuniform List<scalar> 
1175
(
1210.518996
1210.518999
1210.518984
1210.518997
1210.518981
1210.518975
1210.518982
1210.518966
1210.518958
1210.518976
1210.518993
1210.518999
1210.518994
1210.519012
1210.519085
1210.51865
1210.518637
1210.518649
1210.51864
1210.518646
1210.518662
1210.518647
1210.518653
1210.518645
1210.518653
1210.518661
1210.518676
1210.518687
1210.518728
1210.518843
1210.518638
1210.518649
1210.51865
1210.518632
1210.51864
1210.518641
1210.518666
1210.518671
1210.51867
1210.518662
1210.51864
1210.518648
1210.518686
1210.51879
1210.519018
1210.518689
1210.518689
1210.518691
1210.518688
1210.518703
1210.518693
1210.5187
1210.518705
1210.518718
1210.518733
1210.518758
1210.518797
1210.518901
1210.519076
1210.519436
1210.519254
1210.519239
1210.519241
1210.519239
1210.519233
1210.51922
1210.519246
1210.519253
1210.519262
1210.519273
1210.519285
1210.519319
1210.519407
1210.519646
1210.520144
1210.519418
1210.519421
1210.519451
1210.519456
1210.519468
1210.519462
1210.519463
1210.519475
1210.519469
1210.519466
1210.519468
1210.519496
1210.51956
1210.519754
1210.520123
1210.518613
1210.518605
1210.518585
1210.518595
1210.5186
1210.518591
1210.518584
1210.518579
1210.518573
1210.518578
1210.518574
1210.51862
1210.518684
1210.518804
1210.519017
1210.51895
1210.518936
1210.518946
1210.518939
1210.518957
1210.518961
1210.518976
1210.51897
1210.51896
1210.518981
1210.518968
1210.519001
1210.519022
1210.519077
1210.519171
1210.519372
1210.519381
1210.519396
1210.519382
1210.519378
1210.519361
1210.519378
1210.51939
1210.519389
1210.519403
1210.5194
1210.519418
1210.519412
1210.519437
1210.519504
1210.518584
1210.518576
1210.518569
1210.518599
1210.5186
1210.51859
1210.518621
1210.518619
1210.518626
1210.518629
1210.518638
1210.518637
1210.518669
1210.518739
1210.519422
1210.519411
1210.519397
1210.519375
1210.519366
1210.519371
1210.519373
1210.51938
1210.519379
1210.519375
1210.519362
1210.519384
1210.519407
1210.51951
1210.519729
1210.519555
1210.519572
1210.519567
1210.519583
1210.519576
1210.519599
1210.519598
1210.519617
1210.519593
1210.519577
1210.519624
1210.519649
1210.519751
1210.519999
1210.520516
1210.518657
1210.518644
1210.518685
1210.518699
1210.518708
1210.518705
1210.51868
1210.518657
1210.518666
1210.518668
1210.518676
1210.518735
1210.518917
1210.519408
1210.520458
1210.518911
1210.518914
1210.51891
1210.51892
1210.518948
1210.518976
1210.518995
1210.518999
1210.518997
1210.519007
1210.519019
1210.519089
1210.519398
1210.520182
1210.521834
1210.518491
1210.518525
1210.518542
1210.518558
1210.518576
1210.518575
1210.518581
1210.518558
1210.518549
1210.518556
1210.518563
1210.518592
1210.518802
1210.519309
1210.520352
1210.519902
1210.519895
1210.519902
1210.519904
1210.519905
1210.519915
1210.519918
1210.51994
1210.519946
1210.519945
1210.519978
1210.52
1210.520085
1210.520321
1210.520809
1210.51803
1210.518024
1210.51801
1210.518024
1210.518007
1210.518017
1210.517971
1210.517994
1210.518008
1210.518027
1210.518035
1210.518067
1210.51812
1210.518248
1210.518456
1210.519784
1210.519796
1210.519781
1210.519779
1210.519783
1210.519763
1210.519779
1210.519799
1210.519792
1210.519778
1210.51978
1210.519783
1210.519826
1210.519902
1210.520003
1210.518832
1210.518835
1210.518833
1210.518813
1210.518809
1210.518799
1210.518791
1210.518774
1210.518767
1210.518743
1210.518738
1210.518749
1210.518797
1210.518904
1210.51861
1210.51861
1210.518626
1210.518631
1210.518638
1210.518641
1210.518661
1210.518653
1210.518675
1210.518709
1210.51875
1210.51876
1210.51888
1210.519124
1210.518661
1210.518644
1210.518661
1210.518668
1210.518682
1210.518676
1210.518692
1210.518674
1210.518675
1210.518665
1210.518678
1210.518728
1210.51898
1210.519671
1210.521064
1210.519289
1210.519269
1210.519261
1210.519241
1210.519257
1210.51926
1210.519258
1210.519237
1210.519223
1210.519243
1210.519314
1210.519509
1210.520052
1210.521744
1210.525459
1210.518074
1210.518074
1210.518077
1210.518075
1210.518074
1210.518048
1210.518055
1210.518064
1210.518088
1210.5181
1210.518148
1210.518381
1210.519321
1210.522468
1210.530263
1210.518873
1210.51888
1210.518864
1210.518849
1210.518873
1210.518875
1210.518868
1210.51885
1210.518846
1210.518846
1210.518904
1210.519087
1210.519651
1210.521349
1210.525067
1210.518701
1210.518711
1210.51872
1210.518722
1210.518681
1210.518719
1210.518743
1210.518729
1210.518722
1210.518738
1210.518759
1210.51885
1210.519094
1210.51978
1210.521171
1210.519863
1210.519878
1210.51988
1210.519846
1210.519834
1210.519839
1210.519821
1210.519834
1210.519844
1210.519868
1210.519869
1210.519891
1210.519967
1210.520191
1210.52068
1210.518224
1210.518226
1210.518228
1210.518231
1210.518229
1210.518237
1210.518228
1210.518224
1210.518205
1210.518227
1210.518257
1210.518262
1210.518317
1210.518387
1210.518591
1210.519066
1210.519056
1210.519038
1210.519027
1210.519033
1210.519042
1210.519054
1210.519072
1210.519076
1210.519057
1210.519071
1210.519125
1210.519208
1210.519386
1210.519532
1210.51952
1210.519553
1210.519511
1210.519516
1210.519545
1210.519536
1210.519542
1210.519537
1210.519548
1210.519558
1210.519622
1210.519829
1210.520318
1210.518533
1210.518538
1210.51853
1210.518541
1210.51852
1210.518539
1210.518536
1210.518532
1210.518543
1210.518548
1210.518593
1210.518742
1210.519328
1210.521024
1210.519057
1210.519048
1210.519041
1210.519048
1210.519044
1210.519022
1210.51902
1210.519028
1210.519068
1210.519115
1210.519212
1210.519615
1210.521176
1210.526601
1210.540443
1210.519689
1210.519705
1210.519672
1210.519655
1210.519646
1210.519627
1210.519619
1210.519628
1210.519635
1210.519659
1210.519815
1210.52048
1210.523536
1210.536879
1210.582892
1210.518387
1210.518419
1210.518423
1210.518421
1210.518428
1210.518412
1210.518433
1210.518451
1210.518457
1210.518478
1210.51857
1210.518998
1210.520532
1210.525963
1210.539784
1210.519391
1210.519398
1210.519375
1210.51938
1210.51939
1210.519387
1210.519377
1210.519372
1210.519395
1210.519393
1210.519449
1210.519608
1210.520187
1210.521855
1210.52556
1210.518347
1210.518347
1210.518345
1210.518334
1210.518346
1210.518313
1210.518302
1210.51828
1210.518304
1210.518329
1210.518355
1210.518428
1210.518625
1210.51912
1210.520163
1210.518695
1210.518711
1210.518704
1210.518722
1210.518731
1210.518714
1210.518718
1210.518736
1210.518758
1210.518757
1210.518751
1210.518776
1210.518861
1210.519042
1210.51942
1210.518816
1210.518829
1210.518841
1210.518847
1210.518866
1210.518845
1210.518841
1210.518843
1210.518853
1210.518846
1210.518865
1210.51889
1210.519002
1210.519233
1210.518401
1210.518425
1210.518418
1210.518393
1210.518385
1210.518385
1210.518375
1210.518389
1210.51839
1210.518398
1210.518441
1210.518505
1210.518801
1210.519551
1210.518677
1210.518659
1210.518674
1210.518657
1210.51866
1210.518656
1210.518654
1210.518678
1210.518678
1210.518729
1210.518799
1210.519031
1210.51998
1210.523088
1210.519558
1210.519553
1210.519553
1210.51958
1210.519571
1210.51959
1210.519558
1210.519563
1210.519575
1210.519568
1210.519692
1210.520349
1210.523412
1210.536758
1210.519374
1210.519346
1210.519316
1210.51933
1210.519335
1210.519317
1210.519303
1210.519291
1210.519299
1210.519333
1210.519559
1210.520826
1210.528531
1210.578586
1210.266694
1210.518579
1210.518581
1210.518583
1210.51857
1210.518584
1210.518584
1210.518595
1210.518621
1210.518609
1210.518647
1210.518765
1210.519422
1210.522467
1210.53583
1210.581877
1210.519365
1210.519345
1210.519343
1210.51933
1210.519325
1210.519331
1210.519339
1210.519359
1210.519357
1210.519382
1210.519434
1210.519678
1210.520599
1210.523742
1210.531535
1210.519194
1210.519219
1210.519228
1210.51925
1210.519223
1210.519224
1210.51923
1210.519231
1210.519218
1210.519206
1210.519224
1210.51932
1210.519624
1210.520369
1210.52201
1210.519646
1210.51965
1210.519652
1210.519647
1210.519648
1210.519646
1210.519654
1210.519642
1210.519647
1210.519671
1210.519665
1210.519701
1210.51977
1210.52002
1210.52053
1210.518947
1210.518939
1210.518927
1210.51892
1210.5189
1210.518894
1210.518903
1210.518906
1210.518907
1210.518899
1210.518902
1210.518925
1210.519004
1210.519206
1210.518552
1210.518546
1210.51855
1210.518536
1210.518538
1210.518522
1210.518521
1210.518492
1210.518496
1210.518513
1210.51855
1210.518598
1210.518792
1210.519288
1210.519361
1210.519346
1210.519345
1210.519327
1210.519344
1210.519357
1210.519369
1210.519353
1210.519346
1210.519349
1210.519423
1210.519587
1210.520163
1210.521903
1210.518347
1210.518361
1210.518369
1210.51835
1210.518354
1210.51835
1210.518363
1210.518354
1210.518335
1210.518367
1210.518465
1210.518873
1210.520391
1210.525805
1210.519459
1210.519458
1210.519462
1210.519463
1210.519478
1210.51947
1210.519456
1210.519459
1210.519461
1210.519507
1210.51963
1210.520293
1210.523363
1210.536719
1210.519041
1210.519043
1210.519048
1210.519064
1210.519041
1210.519031
1210.519063
1210.519055
1210.519062
1210.519096
1210.519183
1210.519598
1210.52115
1210.526553
1210.518346
1210.518363
1210.518378
1210.518376
1210.518371
1210.518358
1210.518327
1210.518334
1210.518311
1210.518352
1210.518406
1210.518566
1210.51915
1210.520832
1210.524521
1210.519452
1210.519451
1210.519455
1210.519459
1210.519461
1210.519454
1210.519468
1210.519481
1210.519455
1210.51946
1210.519469
1210.519554
1210.519721
1210.52023
1210.521286
1210.519388
1210.51939
1210.519377
1210.519388
1210.519403
1210.519411
1210.5194
1210.519382
1210.519392
1210.519404
1210.519418
1210.519435
1210.519525
1210.519695
1210.520067
1210.519022
1210.519038
1210.519037
1210.519039
1210.519044
1210.519044
1210.519047
1210.519051
1210.51905
1210.519055
1210.519048
1210.519072
1210.51912
1210.519244
1210.519412
1210.519417
1210.519418
1210.519426
1210.519405
1210.519417
1210.519399
1210.519404
1210.519424
1210.519403
1210.519417
1210.519451
1210.519561
1210.519808
1210.518637
1210.518628
1210.518625
1210.518633
1210.518619
1210.518627
1210.518658
1210.518646
1210.518627
1210.518627
1210.518655
1210.518758
1210.519013
1210.519683
1210.519808
1210.519817
1210.519833
1210.519843
1210.519837
1210.519847
1210.519834
1210.51984
1210.519845
1210.519887
1210.519928
1210.520079
1210.520655
1210.522334
1210.518043
1210.518053
1210.518049
1210.518027
1210.518051
1210.51804
1210.518054
1210.518058
1210.518067
1210.518079
1210.518116
1210.518359
1210.519325
1210.522458
1210.518934
1210.518936
1210.518933
1210.518925
1210.5189
1210.518893
1210.5189
1210.518904
1210.518914
1210.518895
1210.518952
1210.51911
1210.519705
1210.521415
1210.519552
1210.519531
1210.51954
1210.519548
1210.519546
1210.51953
1210.51951
1210.519498
1210.519517
1210.519512
1210.519524
1210.519639
1210.519872
1210.520532
1210.518347
1210.518346
1210.51833
1210.51833
1210.51834
1210.518357
1210.51836
1210.518353
1210.518365
1210.518373
1210.518399
1210.518412
1210.518501
1210.518738
1210.519237
1210.518541
1210.51852
1210.518523
1210.518539
1210.518531
1210.518563
1210.518566
1210.518564
1210.518589
1210.51858
1210.518596
1210.518617
1210.518668
1210.518758
1210.518966
1210.518657
1210.518643
1210.51865
1210.518628
1210.518622
1210.518628
1210.518634
1210.518627
1210.518623
1210.518587
1210.518584
1210.518601
1210.518649
1210.518713
1210.518559
1210.518541
1210.518554
1210.518569
1210.518561
1210.51857
1210.518578
1210.518568
1210.518559
1210.518573
1210.518605
1210.518586
1210.518622
1210.518728
1210.518953
1210.518937
1210.51893
1210.51893
1210.518944
1210.518933
1210.518928
1210.51895
1210.518966
1210.51898
1210.518983
1210.519032
1210.519135
1210.519383
1210.519179
1210.519171
1210.519154
1210.51917
1210.519159
1210.519149
1210.519155
1210.519154
1210.51917
1210.519176
1210.519201
1210.519246
1210.519418
1210.519916
1210.519208
1210.519218
1210.519199
1210.519197
1210.519174
1210.519167
1210.519165
1210.519176
1210.519134
1210.519125
1210.519133
1210.519211
1210.519487
1210.520255
1210.518164
1210.518181
1210.518179
1210.518187
1210.518201
1210.518196
1210.518223
1210.518201
1210.518208
1210.518205
1210.518231
1210.518282
1210.518486
1210.519022
1210.518823
1210.518828
1210.518833
1210.518842
1210.518873
1210.518847
1210.518843
1210.51887
1210.518868
1210.518877
1210.51892
1210.518936
1210.519023
1210.519271
1210.518232
1210.518254
1210.51824
1210.51824
1210.518226
1210.518239
1210.51824
1210.518248
1210.518239
1210.518257
1210.518252
1210.518305
1210.518359
1210.518471
1210.519145
1210.519139
1210.519149
1210.519141
1210.519155
1210.519159
1210.519144
1210.519131
1210.519129
1210.519116
1210.519109
1210.51913
1210.519171
1210.519218
1210.519323
1210.519128
1210.519122
1210.519133
1210.519131
1210.51913
1210.519127
1210.519128
1210.519135
1210.519138
1210.519135
1210.519129
1210.519143
1210.519159
1210.519176
1210.518731
1210.518719
1210.518746
1210.518718
1210.518718
1210.518702
1210.518703
1210.51871
1210.51872
1210.518726
1210.518724
1210.518745
1210.518781
1210.51887
1210.519287
1210.51928
1210.519308
1210.519284
1210.519303
1210.519325
1210.519319
1210.519323
1210.51935
1210.519329
1210.519318
1210.519346
1210.519385
1210.519469
1210.517536
1210.517533
1210.517533
1210.51755
1210.517572
1210.517569
1210.517575
1210.517568
1210.517558
1210.517548
1210.517546
1210.517567
1210.517631
1210.51784
1210.518018
1210.518038
1210.51804
1210.51806
1210.518042
1210.518022
1210.518008
1210.518017
1210.518011
1210.518014
1210.518032
1210.518063
1210.51816
1210.518411
1210.518851
1210.518847
1210.518852
1210.518844
1210.518863
1210.518845
1210.518844
1210.518855
1210.51885
1210.51886
1210.518867
1210.5189
1210.518951
1210.51913
1210.518808
1210.518794
1210.518778
1210.518793
1210.518805
1210.518783
1210.518786
1210.518774
1210.518796
1210.518781
1210.518774
1210.518811
1210.518849
1210.518962
1210.518694
1210.518702
1210.518686
1210.518689
1210.518682
1210.518679
1210.518684
1210.518684
1210.51868
1210.518675
1210.518669
1210.518685
1210.518683
1210.518745
1210.518753
1210.518753
1210.518754
1210.518757
1210.518751
1210.518751
1210.51876
1210.51876
1210.518771
1210.518761
1210.518752
1210.518783
1210.518788
1210.518818
)
;

boundaryField
{
    top
    {
        type            calculated;
        value           nonuniform List<scalar> 
134
(
1210.519372
1210.519784
1210.518224
1210.518695
1210.519646
1210.519388
1210.518541
1210.519145
1210.518753
1210.519381
1210.519796
1210.518226
1210.518711
1210.51965
1210.51939
1210.51852
1210.519139
1210.518753
1210.519396
1210.519781
1210.518228
1210.518704
1210.519652
1210.519377
1210.518523
1210.519149
1210.518754
1210.519382
1210.519779
1210.518231
1210.518722
1210.519647
1210.519388
1210.518539
1210.519141
1210.518757
1210.519378
1210.519783
1210.518229
1210.518731
1210.519648
1210.519403
1210.518531
1210.519155
1210.518751
1210.519361
1210.519763
1210.518237
1210.518714
1210.519646
1210.519411
1210.518563
1210.519159
1210.518751
1210.519378
1210.519779
1210.518228
1210.518718
1210.519654
1210.5194
1210.518566
1210.519144
1210.51876
1210.51939
1210.519799
1210.518224
1210.518736
1210.519642
1210.519382
1210.518564
1210.519131
1210.51876
1210.519389
1210.519792
1210.518205
1210.518758
1210.519647
1210.519392
1210.518589
1210.519129
1210.518771
1210.519403
1210.519778
1210.518227
1210.518757
1210.519671
1210.519404
1210.51858
1210.519116
1210.518761
1210.5194
1210.51978
1210.518257
1210.518751
1210.519665
1210.519418
1210.518596
1210.519109
1210.518752
1210.519418
1210.519783
1210.518262
1210.518776
1210.519701
1210.519435
1210.518617
1210.51913
1210.518783
1210.519412
1210.519826
1210.518317
1210.518861
1210.51977
1210.519525
1210.518668
1210.519171
1210.518788
1210.519437
1210.519902
1210.518387
1210.519042
1210.52002
1210.519695
1210.518758
1210.519218
1210.518818
1210.519504
1210.520003
1210.518591
1210.51942
1210.52053
1210.520067
1210.518966
1210.519323
)
;
    }
    bottom
    {
        type            calculated;
        value           nonuniform List<scalar> 
127
(
1210.518996
1210.518584
1210.518832
1210.519066
1210.518816
1210.518947
1210.519022
1210.518657
1210.519128
1210.518999
1210.518576
1210.518835
1210.519056
1210.518829
1210.518939
1210.519038
1210.518643
1210.519122
1210.518984
1210.518569
1210.518833
1210.519038
1210.518841
1210.518927
1210.519037
1210.51865
1210.519133
1210.518997
1210.518599
1210.518813
1210.519027
1210.518847
1210.51892
1210.519039
1210.518628
1210.519131
1210.518981
1210.5186
1210.518809
1210.519033
1210.518866
1210.5189
1210.519044
1210.518622
1210.51913
1210.518975
1210.51859
1210.518799
1210.519042
1210.518845
1210.518894
1210.519044
1210.518628
1210.519127
1210.518982
1210.518621
1210.518791
1210.519054
1210.518841
1210.518903
1210.519047
1210.518634
1210.519128
1210.518966
1210.518619
1210.518774
1210.519072
1210.518843
1210.518906
1210.519051
1210.518627
1210.519135
1210.518958
1210.518626
1210.518767
1210.519076
1210.518853
1210.518907
1210.51905
1210.518623
1210.519138
1210.518976
1210.518629
1210.518743
1210.519057
1210.518846
1210.518899
1210.519055
1210.518587
1210.519135
1210.518993
1210.518638
1210.518738
1210.519071
1210.518865
1210.518902
1210.519048
1210.518584
1210.519129
1210.518999
1210.518637
1210.518749
1210.519125
1210.51889
1210.518925
1210.519072
1210.518601
1210.519143
1210.518994
1210.518669
1210.518797
1210.519208
1210.519002
1210.519004
1210.51912
1210.518649
1210.519159
1210.519012
1210.518739
1210.518904
1210.519386
1210.519233
1210.519206
1210.519244
1210.518713
1210.519176
1210.519085
)
;
    }
    side-walls
    {
        type            calculated;
        value           nonuniform List<scalar> 
261
(
1210.518996
1210.51865
1210.518638
1210.518689
1210.519254
1210.519418
1210.518613
1210.51895
1210.519372
1210.518999
1210.518637
1210.518649
1210.518689
1210.519239
1210.519421
1210.518605
1210.518936
1210.519381
1210.518984
1210.518649
1210.51865
1210.518691
1210.519241
1210.519451
1210.518585
1210.518946
1210.519396
1210.518997
1210.51864
1210.518632
1210.518688
1210.519239
1210.519456
1210.518595
1210.518939
1210.519382
1210.518981
1210.518646
1210.51864
1210.518703
1210.519233
1210.519468
1210.5186
1210.518957
1210.519378
1210.518975
1210.518662
1210.518641
1210.518693
1210.51922
1210.519462
1210.518591
1210.518961
1210.519361
1210.518982
1210.518647
1210.518666
1210.5187
1210.519246
1210.519463
1210.518584
1210.518976
1210.519378
1210.518966
1210.518653
1210.518671
1210.518705
1210.519253
1210.519475
1210.518579
1210.51897
1210.51939
1210.518958
1210.518645
1210.51867
1210.518718
1210.519262
1210.519469
1210.518573
1210.51896
1210.519389
1210.518976
1210.518653
1210.518662
1210.518733
1210.519273
1210.519466
1210.518578
1210.518981
1210.519403
1210.518993
1210.518661
1210.51864
1210.518758
1210.519285
1210.519468
1210.518574
1210.518968
1210.5194
1210.518999
1210.518676
1210.518648
1210.518797
1210.519319
1210.519496
1210.51862
1210.519001
1210.519418
1210.518994
1210.518687
1210.518686
1210.518901
1210.519407
1210.51956
1210.518684
1210.519022
1210.519412
1210.519012
1210.518728
1210.51879
1210.519076
1210.519646
1210.519754
1210.518804
1210.519077
1210.519437
1210.519085
1210.518843
1210.519018
1210.519436
1210.520144
1210.520123
1210.519017
1210.519171
1210.519504
1210.519128
1210.518731
1210.519287
1210.517536
1210.518018
1210.518851
1210.518808
1210.518694
1210.518753
1210.519122
1210.518719
1210.51928
1210.517533
1210.518038
1210.518847
1210.518794
1210.518702
1210.518753
1210.519133
1210.518746
1210.519308
1210.517533
1210.51804
1210.518852
1210.518778
1210.518686
1210.518754
1210.519131
1210.518718
1210.519284
1210.51755
1210.51806
1210.518844
1210.518793
1210.518689
1210.518757
1210.51913
1210.518718
1210.519303
1210.517572
1210.518042
1210.518863
1210.518805
1210.518682
1210.518751
1210.519127
1210.518702
1210.519325
1210.517569
1210.518022
1210.518845
1210.518783
1210.518679
1210.518751
1210.519128
1210.518703
1210.519319
1210.517575
1210.518008
1210.518844
1210.518786
1210.518684
1210.51876
1210.519135
1210.51871
1210.519323
1210.517568
1210.518017
1210.518855
1210.518774
1210.518684
1210.51876
1210.519138
1210.51872
1210.51935
1210.517558
1210.518011
1210.51885
1210.518796
1210.51868
1210.518771
1210.519135
1210.518726
1210.519329
1210.517548
1210.518014
1210.51886
1210.518781
1210.518675
1210.518761
1210.519129
1210.518724
1210.519318
1210.517546
1210.518032
1210.518867
1210.518774
1210.518669
1210.518752
1210.519143
1210.518745
1210.519346
1210.517567
1210.518063
1210.5189
1210.518811
1210.518685
1210.518783
1210.519159
1210.518781
1210.519385
1210.517631
1210.51816
1210.518951
1210.518849
1210.518683
1210.518788
1210.519176
1210.51887
1210.519469
1210.51784
1210.518411
1210.51913
1210.518962
1210.518745
1210.518818
)
;
    }
    inlet
    {
        type            calculated;
        value           nonuniform List<scalar> 
81
(
1210.518996
1210.51865
1210.518638
1210.518689
1210.519254
1210.519418
1210.518613
1210.51895
1210.519372
1210.518584
1210.519422
1210.519555
1210.518657
1210.518911
1210.518491
1210.519902
1210.51803
1210.519784
1210.518832
1210.51861
1210.518661
1210.519289
1210.518074
1210.518873
1210.518701
1210.519863
1210.518224
1210.519066
1210.519532
1210.518533
1210.519057
1210.519689
1210.518387
1210.519391
1210.518347
1210.518695
1210.518816
1210.518401
1210.518677
1210.519558
1210.519374
1210.518579
1210.519365
1210.519194
1210.519646
1210.518947
1210.518552
1210.519361
1210.518347
1210.519459
1210.519041
1210.518346
1210.519452
1210.519388
1210.519022
1210.519412
1210.518637
1210.519808
1210.518043
1210.518934
1210.519552
1210.518347
1210.518541
1210.518657
1210.518559
1210.518953
1210.519179
1210.519208
1210.518164
1210.518823
1210.518232
1210.519145
1210.519128
1210.518731
1210.519287
1210.517536
1210.518018
1210.518851
1210.518808
1210.518694
1210.518753
)
;
    }
    outlet
    {
        type            calculated;
        value           nonuniform 0();
    }
    procBoundary0to1
    {
        type            processor;
        value           nonuniform List<scalar> 
97
(
1210.519186
1210.518845
1210.519009
1210.519355
1210.520006
1210.520881
1210.520695
1210.519345
1210.519374
1210.519603
1210.518845
1210.518845
1210.520064
1210.519616
1210.521241
1210.521888
1210.523812
1210.521778
1210.521558
1210.518836
1210.520191
1210.519119
1210.519616
1210.519616
1210.52294
1210.524766
1210.529518
1210.536141
1210.529127
1210.523021
1210.521408
1210.518918
1210.519764
1210.521362
1210.524766
1210.524766
1210.549838
1210.582809
1210.590081
1210.549206
1210.529576
1210.521582
1210.520008
1210.519712
1210.521207
1210.530899
1210.582809
1210.582809
1210.0999
1210.58276
1210.589071
1210.540383
1210.537401
1210.523961
1210.521262
1210.519579
1210.520313
1210.525622
1210.539647
1210.58276
1210.540383
1210.540383
1210.528555
1210.52196
1210.522691
1210.520639
1210.519454
1210.520305
1210.521101
1210.526071
1210.53027
1210.525119
1210.52196
1210.52196
1210.519976
1210.518667
1210.5193
1210.518822
1210.51896
1210.519869
1210.520956
1210.521906
1210.520074
1210.51978
1210.518667
1210.518667
1210.5195
1210.518907
1210.519227
1210.518982
1210.519669
1210.518181
1210.51891
1210.519482
1210.519167
1210.518851
1210.518907
)
;
    }
}


// ************************************************************************* //
