/*--------------------------------*- C++ -*----------------------------------*\
| =========                 |                                                 |
| \\      /  F ield         | OpenFOAM: The Open Source CFD Toolbox           |
|  \\    /   O peration     | Version:  4.x                                   |
|   \\  /    A nd           | Web:      www.OpenFOAM.org                      |
|    \\/     M anipulation  |                                                 |
\*---------------------------------------------------------------------------*/
FoamFile
{
    version     2.0;
    format      ascii;
    class       volScalarField;
    location    "7000";
    object      molarConc;
}
// * * * * * * * * * * * * * * * * * * * * * * * * * * * * * * * * * * * * * //

dimensions      [0 -3 0 0 1 0 0];

internalField   nonuniform List<scalar> 
1175
(
9.963274409
9.96327425
9.963275054
9.963274361
9.963275236
9.963275571
9.963275164
9.96327605
9.963276511
9.963275565
9.963274758
9.963274774
9.963275786
9.963276538
9.963275949
9.963293366
9.963294108
9.963293401
9.963293922
9.96329359
9.963292715
9.963293559
9.963293238
9.963293699
9.963293281
9.963293053
9.963292744
9.963293481
9.963294216
9.963293815
9.963294052
9.963293443
9.963293375
9.963294375
9.96329394
9.963293867
9.963292513
9.963292218
9.963292344
9.963292848
9.963294387
9.963294931
9.963295336
9.963295476
9.963294584
9.963291256
9.963291253
9.963291109
9.963291293
9.963290463
9.96329099
9.963290656
9.963290359
9.963289686
9.963289048
9.963288202
9.96328758
9.963286078
9.963286683
9.963287198
9.963260284
9.963261098
9.963261017
9.963261124
9.963261468
9.963262132
9.963260726
9.963260367
9.963259937
9.963259528
9.963259475
9.963259477
9.963260088
9.963260356
9.963260138
9.963251291
9.963251161
9.963249479
9.963249218
9.963248543
9.963248879
9.96324885
9.963248205
9.963248571
9.963248922
9.96324932
9.96324931
9.963249996
9.963249531
9.963249607
9.963295388
9.963295834
9.963296924
9.96329641
9.963296134
9.963296603
9.963297011
9.963297298
9.963297635
9.963297466
9.963298033
9.96329645
9.963295454
9.963294703
9.963294596
9.963276947
9.963277735
9.96327718
9.963277568
9.963276568
9.963276345
9.963275495
9.963275836
9.963276416
9.96327532
9.963276228
9.96327497
9.963275098
9.963275125
9.963275844
9.96325384
9.963253321
9.963252508
9.963253258
9.963253525
9.963254435
9.96325348
9.963252849
9.963252937
9.963252217
9.963252498
9.963251832
9.963252895
9.963253244
9.963252988
9.963296968
9.963297401
9.96329779
9.963296137
9.963296101
9.963296635
9.963294946
9.963295079
9.963294725
9.963294598
9.963294314
9.963294911
9.963294456
9.963293619
9.96325111
9.963251679
9.963252479
9.963253668
9.963254162
9.963253868
9.963253781
9.9632534
9.963253485
9.963253824
9.963254871
9.963254568
9.963255882
9.963256156
9.963255917
9.963243794
9.96324289
9.963243127
9.963242255
9.963242678
9.963241402
9.963241479
9.963240433
9.96324182
9.963242851
9.963240898
9.96324148
9.963241411
9.963241423
9.963240206
9.963292969
9.963293704
9.963291435
9.963290688
9.963290189
9.96329037
9.963291745
9.963293007
9.963292604
9.963292816
9.963293431
9.96329366
9.963294328
9.963295173
9.963294547
9.963279085
9.963278899
9.963279146
9.963278569
9.96327707
9.963275492
9.963274501
9.963274294
9.963274466
9.963274306
9.963274994
9.96327584
9.963273955
9.963273047
9.963272681
9.963302085
9.963300235
9.963299269
9.963298436
9.963297427
9.963297498
9.963297144
9.963298447
9.963299012
9.963298907
9.9632996
9.963301532
9.963300634
9.963300634
9.963300375
9.963224798
9.963225178
9.963224819
9.963224704
9.963224654
9.96322408
9.96322392
9.963222713
9.963222444
9.963222689
9.963221497
9.963222261
9.963223132
9.96322378
9.963224138
9.963327302
9.963327629
9.963328438
9.963327641
9.963328593
9.963328028
9.963330551
9.963329336
9.963328602
9.963327617
9.963327531
9.963326718
9.963326367
9.96332529
9.963325643
9.963231268
9.963230628
9.963231415
9.963231513
9.963231339
9.963232423
9.963231533
9.963230472
9.963230848
9.963231676
9.96323179
9.963232142
9.963231107
9.96322989
9.963230259
9.96328338
9.963283254
9.963283345
9.963284422
9.96328468
9.96328521
9.963285628
9.963286615
9.963287002
9.963288445
9.963289049
9.963289361
9.963289268
9.963289239
9.963295554
9.963295554
9.963294682
9.963294402
9.963294011
9.963293867
9.963292798
9.963293227
9.963292103
9.963290413
9.96328878
9.963290182
9.963289129
9.963289352
9.963292776
9.963293707
9.963292796
9.963292399
9.963291609
9.963291922
9.96329109
9.963292063
9.963292141
9.963293035
9.9632937
9.963295456
9.963295676
9.963294967
9.963295076
9.96325835
9.963259457
9.963259898
9.963261011
9.963260113
9.963259974
9.963260067
9.963261275
9.963262181
9.963261761
9.963260349
9.963258909
9.963260703
9.963260787
9.963260819
9.963324897
9.963324934
9.963324762
9.963324884
9.963324936
9.963326372
9.96332595
9.963325533
9.963324415
9.963324543
9.963325303
9.963326171
9.963326041
9.963325212
9.963325341
9.963281136
9.963280767
9.963281636
9.963282494
9.963281177
9.963281056
9.963281457
9.963282447
9.963282858
9.963283487
9.963282777
9.963282013
9.963282653
9.963282381
9.963282258
9.963290603
9.963290051
9.96328953
9.963289414
9.963291677
9.963289618
9.963288298
9.963289081
9.963289563
9.963289058
9.963289236
9.963288795
9.963289419
9.963289013
9.963289204
9.963226916
9.963226093
9.963226006
9.96322786
9.963228522
9.963228276
9.963229255
9.963228557
9.963228076
9.963226899
9.963227498
9.96322821
9.963229615
9.963230899
9.963231222
9.963316691
9.963316613
9.963316469
9.963316326
9.963316426
9.96331598
9.963316511
9.963316731
9.963317811
9.963316664
9.963315374
9.963316069
9.963315526
9.963317585
9.963317961
9.96327061
9.963271125
9.963272103
9.963272729
9.963272406
9.963271889
9.963271225
9.963270288
9.963270118
9.963271303
9.963271019
9.963269599
9.963269316
9.963269744
9.963245074
9.9632457
9.963243938
9.963246191
9.963245964
9.963244368
9.963244836
9.963244534
9.963244873
9.96324461
9.963245082
9.963245089
9.963244383
9.963245346
9.963299767
9.963299526
9.963299952
9.963299325
9.963300509
9.963299465
9.96329963
9.963299886
9.963299421
9.963299802
9.963299796
9.96330089
9.963300358
9.963300231
9.96327108
9.96327159
9.96327197
9.963271564
9.96327181
9.963273018
9.96327313
9.963272754
9.963270819
9.963269443
9.963269222
9.963268703
9.963268349
9.963267079
9.963265799
9.963236491
9.963235607
9.963237374
9.963238349
9.963238816
9.963239864
9.963240296
9.963239917
9.963239879
9.963240123
9.9632392
9.963238732
9.963238949
9.963239348
9.963258461
9.96330778
9.963306032
9.963305816
9.963305932
9.963305507
9.96330641
9.963305249
9.963304374
9.963304293
9.963304318
9.963304393
9.96330249
9.963303607
9.963302029
9.963301785
9.96325278
9.963252415
9.963253667
9.963253408
9.963252844
9.963252997
9.963253567
9.963253867
9.963252791
9.963253498
9.963252907
9.96325346
9.963253338
9.963254668
9.963255251
9.963309951
9.963309978
9.963310067
9.963310705
9.963310034
9.963311849
9.963312418
9.963313676
9.963312444
9.963311363
9.963311007
9.963310507
9.963310335
9.963310939
9.963310682
9.963290927
9.963290005
9.96329044
9.963289429
9.963288931
9.963289885
9.963289624
9.963288681
9.963287505
9.963287746
9.963288542
9.963288747
9.963288322
9.963288528
9.963288078
9.963284281
9.963283572
9.963282923
9.963282562
9.963281555
9.963282684
9.963282934
9.963282816
9.963282325
9.963282897
9.963282476
9.96328298
9.963282241
9.963282994
9.963307008
9.963305717
9.963306104
9.963307427
9.963307887
9.96330787
9.963308468
9.963307708
9.963307716
9.963307689
9.963306627
9.963307798
9.963306647
9.963307647
9.963291908
9.963292875
9.963292074
9.963293008
9.9632928
9.96329305
9.963293164
9.963291919
9.963292091
9.963290116
9.963289678
9.963290551
9.963289961
9.963291284
9.963243629
9.963243909
9.963243898
9.96324246
9.963242904
9.963241874
9.963243681
9.963243439
9.963243159
9.963245143
9.963245903
9.963245941
9.963245782
9.963246123
9.963253696
9.963255245
9.963256899
9.963256113
9.963255856
9.963256818
9.963257644
9.963258376
9.96325839
9.963258828
9.963258755
9.963258918
9.963257868
9.963255608
9.999606163
9.963297281
9.963297155
9.963297032
9.963297772
9.963296993
9.963296972
9.963296387
9.963295075
9.963296032
9.963295589
9.963296672
9.963296676
9.963297513
9.9632968
9.963314008
9.963254186
9.963255291
9.963255408
9.963256144
9.963256424
9.963256059
9.963255671
9.963254603
9.963254901
9.963254341
9.963254902
9.963255134
9.963256053
9.963255444
9.963255654
9.963263557
9.96326221
9.963261689
9.963260501
9.96326199
9.963261935
9.963261635
9.963261592
9.963262404
9.963263413
9.963263736
9.963263186
9.963261581
9.963262827
9.963263033
9.963238811
9.963238618
9.963238487
9.963238784
9.963238731
9.963238829
9.963238362
9.963239062
9.96323884
9.963237726
9.963238614
9.963238571
9.963240182
9.963239895
9.963239015
9.963277096
9.963277548
9.963278188
9.9632786
9.963279699
9.963280018
9.963279525
9.963279388
9.963279385
9.963279976
9.963280292
9.963280562
9.963280456
9.963279575
9.963298737
9.963299093
9.963298825
9.963299625
9.963299482
9.963300396
9.96330047
9.963302058
9.963301939
9.963301303
9.963300279
9.963301171
9.963301158
9.963301787
9.963254438
9.963255265
9.963255299
9.963256313
9.963255372
9.963254655
9.963254017
9.963254926
9.963255479
9.96325593
9.963254384
9.963254638
9.963254613
9.963252094
9.963309966
9.963309222
9.963308775
9.963309815
9.963309579
9.963309795
9.963309117
9.963309642
9.963310976
9.963310393
9.963310169
9.963309355
9.963311337
9.963310725
9.96324907
9.963249092
9.963248877
9.963248828
9.963248041
9.96324847
9.963249271
9.963249147
9.963249405
9.963248451
9.963249352
9.963249006
9.963248448
9.963248263
9.963271981
9.963271827
9.963271551
9.963270709
9.963271957
9.963272487
9.963270745
9.963271286
9.963271144
9.963270452
9.963270802
9.963269614
9.963269809
9.963269733
9.963310021
9.963309113
9.963308258
9.963308387
9.963308644
9.963309369
9.963311077
9.963310704
9.963312147
9.963310511
9.963310081
9.963310564
9.963310092
9.963310721
9.963312224
9.963249466
9.96324949
9.963249263
9.963249046
9.963248945
9.963249354
9.963248567
9.963247888
9.963249375
9.963249399
9.963249974
9.963248826
9.963250287
9.963250167
9.963249184
9.963252954
9.963252835
9.96325354
9.963252927
9.963252148
9.963251696
9.963252281
9.963253278
9.963252782
9.963252273
9.963252017
9.963252615
9.963251914
9.963252784
9.963252642
9.963273006
9.963272096
9.963272166
9.963272075
9.963271813
9.963271778
9.96327164
9.96327145
9.963271518
9.963271348
9.963272055
9.963271666
9.963271571
9.963270644
9.963251658
9.963251341
9.963251328
9.963250896
9.963252029
9.963251365
9.963252335
9.963252069
9.963251058
9.9632524
9.963252263
9.963252328
9.963251855
9.963251868
9.963294077
9.963294588
9.963294733
9.963294298
9.963295086
9.963294642
9.963292965
9.96329365
9.963294788
9.963295117
9.963294946
9.963293813
9.963293904
9.963294303
9.963229949
9.963229429
9.96322857
9.963228013
9.963228349
9.963227827
9.963228538
9.963228259
9.963228157
9.963226475
9.963226689
9.963227668
9.963227689
9.963228442
9.96332661
9.963326078
9.963326262
9.963327504
9.963326154
9.963326764
9.963326032
9.963325848
9.963325528
9.963325698
9.96332708
9.963327352
9.963325861
9.963325757
9.963277822
9.963277681
9.963277865
9.963278306
9.963279653
9.963280079
9.9632797
9.963279519
9.963279101
9.963280817
9.963280172
9.963280757
9.963279721
9.963278814
9.963243989
9.963245117
9.963244653
9.963244192
9.963244273
9.963245152
9.96324626
9.96324696
9.963246004
9.963246646
9.963247312
9.963245604
9.963246815
9.963247851
9.963309981
9.963310041
9.963310875
9.96331088
9.96331033
9.963309428
9.963309274
9.963309679
9.963309036
9.963308809
9.963307976
9.963309264
9.96330988
9.96331047
9.963310234
9.963299358
9.96330049
9.963300332
9.963299476
9.96329987
9.963298144
9.963297949
9.963298068
9.963296734
9.963297352
9.963296812
9.963296604
9.963296346
9.963297261
9.963297425
9.963293001
9.963293734
9.963293358
9.963294554
9.963294912
9.96329455
9.963294259
9.963294617
9.963294869
9.963296938
9.963297276
9.963296874
9.963295542
9.963295017
9.96329837
9.963299336
9.963298618
9.963297805
9.96329827
9.963297777
9.963297299
9.963297855
9.963298392
9.963297731
9.963296333
9.963298324
9.963298867
9.96329898
9.963276773
9.963277668
9.963278038
9.963278025
9.963277277
9.963277852
9.963278165
9.96327697
9.963276144
9.963275541
9.963276036
9.9632753
9.963275149
9.963275171
9.963264421
9.96326483
9.963265742
9.963264908
9.963265472
9.963266044
9.963265701
9.963265811
9.963264974
9.96326496
9.963264672
9.963265664
9.963266907
9.963267371
9.963262792
9.963262249
9.963263317
9.963263429
9.963264645
9.963265051
9.963265163
9.96326458
9.963267014
9.963267836
9.963268764
9.963269168
9.96326908
9.963269059
9.963319993
9.963319037
9.963319151
9.963318706
9.963317951
9.96331823
9.963316739
9.963317997
9.963317666
9.963318154
9.963317759
9.963318475
9.963317927
9.963316363
9.963283888
9.963283602
9.963283365
9.96328284
9.963281132
9.963282608
9.963282804
9.96328133
9.963281494
9.963281209
9.963279492
9.963280539
9.963281312
9.963281294
9.963316259
9.96331508
9.963315847
9.963315804
9.963316601
9.963315878
9.963315831
9.963315428
9.963315949
9.963315055
9.96331564
9.963313691
9.963313272
9.963313065
9.963266274
9.963266602
9.963266053
9.963266471
9.96326571
9.963265512
9.963266289
9.963267062
9.963267154
9.963267914
9.963268531
9.963267881
9.963266977
9.963267383
9.963267537
9.963267182
9.963267499
9.963266906
9.963267041
9.963267075
9.963267274
9.963267219
9.963266841
9.963266667
9.963266898
9.963267347
9.963266895
9.963266775
9.963267591
9.963288958
9.963289573
9.963288104
9.963289638
9.963289647
9.96329054
9.963290471
9.963290088
9.963289546
9.963289297
9.963289578
9.963288976
9.96328833
9.963286463
9.963258466
9.963258892
9.963257319
9.963258627
9.963257622
9.963256402
9.963256713
9.963256547
9.963255092
9.963256341
9.963257276
9.963256668
9.963257036
9.963258324
9.963354368
9.963354571
9.963354541
9.963353594
9.963352435
9.963352592
9.963352243
9.963352621
9.963353248
9.963353927
9.963354582
9.963354925
9.963355666
9.963354364
9.963327992
9.96332686
9.96332677
9.96332569
9.963326651
9.963327758
9.963328549
9.963328074
9.963328435
9.963328438
9.963328096
9.963328281
9.963328364
9.963328027
9.963282366
9.96328258
9.96328228
9.963282725
9.963281716
9.963282677
9.963282776
9.963282174
9.963282467
9.963282064
9.963282192
9.963281933
9.963283393
9.963283722
9.963284693
9.963285495
9.963286376
9.963285528
9.963284874
9.963286111
9.963285907
9.963286599
9.963285407
9.963286339
9.963287063
9.963285975
9.96328644
9.963286058
9.96329098
9.963290509
9.963291393
9.963291225
9.963291612
9.963291782
9.963291517
9.96329154
9.963291752
9.963292071
9.963292627
9.963292258
9.963293678
9.963293284
9.963287749
9.963287739
9.963287694
9.963287515
9.963287856
9.963287826
9.963287335
9.963287364
9.963286752
9.963287351
9.963287991
9.963286579
9.963287089
9.963287157
)
;

boundaryField
{
    top
    {
        type            calculated;
        value           nonuniform List<scalar> 
134
(
9.96325384
9.963231268
9.963316691
9.963290927
9.963238811
9.963252954
9.963299358
9.963266274
9.963287749
9.963253321
9.963230628
9.963316613
9.963290005
9.963238618
9.963252835
9.96330049
9.963266602
9.963287739
9.963252508
9.963231415
9.963316469
9.96329044
9.963238487
9.96325354
9.963300332
9.963266053
9.963287694
9.963253258
9.963231513
9.963316326
9.963289429
9.963238784
9.963252927
9.963299476
9.963266471
9.963287515
9.963253525
9.963231339
9.963316426
9.963288931
9.963238731
9.963252148
9.96329987
9.96326571
9.963287856
9.963254435
9.963232423
9.96331598
9.963289885
9.963238829
9.963251696
9.963298144
9.963265512
9.963287826
9.96325348
9.963231533
9.963316511
9.963289624
9.963238362
9.963252281
9.963297949
9.963266289
9.963287335
9.963252849
9.963230472
9.963316731
9.963288681
9.963239062
9.963253278
9.963298068
9.963267062
9.963287364
9.963252937
9.963230848
9.963317811
9.963287505
9.96323884
9.963252782
9.963296734
9.963267154
9.963286752
9.963252217
9.963231676
9.963316664
9.963287746
9.963237726
9.963252273
9.963297352
9.963267914
9.963287351
9.963252498
9.96323179
9.963315374
9.963288542
9.963238614
9.963252017
9.963296812
9.963268531
9.963287991
9.963251832
9.963232142
9.963316069
9.963288747
9.963238571
9.963252615
9.963296604
9.963267881
9.963286579
9.963252895
9.963231107
9.963315526
9.963288322
9.963240182
9.963251914
9.963296346
9.963266977
9.963287089
9.963253244
9.96322989
9.963317585
9.963288528
9.963239895
9.963252784
9.963297261
9.963267383
9.963287157
9.963252988
9.963230259
9.963317961
9.963288078
9.963239015
9.963252642
9.963297425
9.963267537
)
;
    }
    bottom
    {
        type            calculated;
        value           nonuniform List<scalar> 
127
(
9.963274409
9.963296968
9.96328338
9.96327061
9.963284281
9.963277096
9.963273006
9.963293001
9.963267182
9.96327425
9.963297401
9.963283254
9.963271125
9.963283572
9.963277548
9.963272096
9.963293734
9.963267499
9.963275054
9.96329779
9.963283345
9.963272103
9.963282923
9.963278188
9.963272166
9.963293358
9.963266906
9.963274361
9.963296137
9.963284422
9.963272729
9.963282562
9.9632786
9.963272075
9.963294554
9.963267041
9.963275236
9.963296101
9.96328468
9.963272406
9.963281555
9.963279699
9.963271813
9.963294912
9.963267075
9.963275571
9.963296635
9.96328521
9.963271889
9.963282684
9.963280018
9.963271778
9.96329455
9.963267274
9.963275164
9.963294946
9.963285628
9.963271225
9.963282934
9.963279525
9.96327164
9.963294259
9.963267219
9.96327605
9.963295079
9.963286615
9.963270288
9.963282816
9.963279388
9.96327145
9.963294617
9.963266841
9.963276511
9.963294725
9.963287002
9.963270118
9.963282325
9.963279385
9.963271518
9.963294869
9.963266667
9.963275565
9.963294598
9.963288445
9.963271303
9.963282897
9.963279976
9.963271348
9.963296938
9.963266898
9.963274758
9.963294314
9.963289049
9.963271019
9.963282476
9.963280292
9.963272055
9.963297276
9.963267347
9.963274774
9.963294911
9.963289361
9.963269599
9.96328298
9.963280562
9.963271666
9.963296874
9.963266895
9.963275786
9.963294456
9.963289268
9.963269316
9.963282241
9.963280456
9.963271571
9.963295542
9.963266775
9.963276538
9.963293619
9.963289239
9.963269744
9.963282994
9.963279575
9.963270644
9.963295017
9.963267591
9.963275949
)
;
    }
    side-walls
    {
        type            calculated;
        value           nonuniform List<scalar> 
261
(
9.963274409
9.963293366
9.963294052
9.963291256
9.963260284
9.963251291
9.963295388
9.963276947
9.96325384
9.96327425
9.963294108
9.963293443
9.963291253
9.963261098
9.963251161
9.963295834
9.963277735
9.963253321
9.963275054
9.963293401
9.963293375
9.963291109
9.963261017
9.963249479
9.963296924
9.96327718
9.963252508
9.963274361
9.963293922
9.963294375
9.963291293
9.963261124
9.963249218
9.96329641
9.963277568
9.963253258
9.963275236
9.96329359
9.96329394
9.963290463
9.963261468
9.963248543
9.963296134
9.963276568
9.963253525
9.963275571
9.963292715
9.963293867
9.96329099
9.963262132
9.963248879
9.963296603
9.963276345
9.963254435
9.963275164
9.963293559
9.963292513
9.963290656
9.963260726
9.96324885
9.963297011
9.963275495
9.96325348
9.96327605
9.963293238
9.963292218
9.963290359
9.963260367
9.963248205
9.963297298
9.963275836
9.963252849
9.963276511
9.963293699
9.963292344
9.963289686
9.963259937
9.963248571
9.963297635
9.963276416
9.963252937
9.963275565
9.963293281
9.963292848
9.963289048
9.963259528
9.963248922
9.963297466
9.96327532
9.963252217
9.963274758
9.963293053
9.963294387
9.963288202
9.963259475
9.96324932
9.963298033
9.963276228
9.963252498
9.963274774
9.963292744
9.963294931
9.96328758
9.963259477
9.96324931
9.96329645
9.96327497
9.963251832
9.963275786
9.963293481
9.963295336
9.963286078
9.963260088
9.963249996
9.963295454
9.963275098
9.963252895
9.963276538
9.963294216
9.963295476
9.963286683
9.963260356
9.963249531
9.963294703
9.963275125
9.963253244
9.963275949
9.963293815
9.963294584
9.963287198
9.963260138
9.963249607
9.963294596
9.963275844
9.963252988
9.963267182
9.963288958
9.963258466
9.963354368
9.963327992
9.963282366
9.963284693
9.96329098
9.963287749
9.963267499
9.963289573
9.963258892
9.963354571
9.96332686
9.96328258
9.963285495
9.963290509
9.963287739
9.963266906
9.963288104
9.963257319
9.963354541
9.96332677
9.96328228
9.963286376
9.963291393
9.963287694
9.963267041
9.963289638
9.963258627
9.963353594
9.96332569
9.963282725
9.963285528
9.963291225
9.963287515
9.963267075
9.963289647
9.963257622
9.963352435
9.963326651
9.963281716
9.963284874
9.963291612
9.963287856
9.963267274
9.96329054
9.963256402
9.963352592
9.963327758
9.963282677
9.963286111
9.963291782
9.963287826
9.963267219
9.963290471
9.963256713
9.963352243
9.963328549
9.963282776
9.963285907
9.963291517
9.963287335
9.963266841
9.963290088
9.963256547
9.963352621
9.963328074
9.963282174
9.963286599
9.96329154
9.963287364
9.963266667
9.963289546
9.963255092
9.963353248
9.963328435
9.963282467
9.963285407
9.963291752
9.963286752
9.963266898
9.963289297
9.963256341
9.963353927
9.963328438
9.963282064
9.963286339
9.963292071
9.963287351
9.963267347
9.963289578
9.963257276
9.963354582
9.963328096
9.963282192
9.963287063
9.963292627
9.963287991
9.963266895
9.963288976
9.963256668
9.963354925
9.963328281
9.963281933
9.963285975
9.963292258
9.963286579
9.963266775
9.96328833
9.963257036
9.963355666
9.963328364
9.963283393
9.96328644
9.963293678
9.963287089
9.963267591
9.963286463
9.963258324
9.963354364
9.963328027
9.963283722
9.963286058
9.963293284
9.963287157
)
;
    }
    inlet
    {
        type            calculated;
        value           nonuniform List<scalar> 
81
(
9.963274409
9.963293366
9.963294052
9.963291256
9.963260284
9.963251291
9.963295388
9.963276947
9.96325384
9.963296968
9.96325111
9.963243794
9.963292969
9.963279085
9.963302085
9.963224798
9.963327302
9.963231268
9.96328338
9.963295554
9.963292776
9.96325835
9.963324897
9.963281136
9.963290603
9.963226916
9.963316691
9.96327061
9.963245074
9.963299767
9.96327108
9.963236491
9.96330778
9.96325278
9.963309951
9.963290927
9.963284281
9.963307008
9.963291908
9.963243629
9.963253696
9.963297281
9.963254186
9.963263557
9.963238811
9.963277096
9.963298737
9.963254438
9.963309966
9.96324907
9.963271981
9.963310021
9.963249466
9.963252954
9.963273006
9.963251658
9.963294077
9.963229949
9.96332661
9.963277822
9.963243989
9.963309981
9.963299358
9.963293001
9.96329837
9.963276773
9.963264421
9.963262792
9.963319993
9.963283888
9.963316259
9.963266274
9.963267182
9.963288958
9.963258466
9.963354368
9.963327992
9.963282366
9.963284693
9.96329098
9.963287749
)
;
    }
    outlet
    {
        type            calculated;
        value           nonuniform 0();
    }
    procBoundary0to1
    {
        type            processor;
        value           nonuniform List<scalar> 
97
(
9.963276339
9.963293699
9.963294696
9.963294937
9.963287417
9.963259655
9.963249696
9.96329549
9.963274683
9.963253476
9.963293699
9.963293699
9.963256499
9.963289473
9.963241402
9.963293834
9.963271564
9.963299857
9.963224035
9.963323776
9.963229977
9.963289051
9.963289473
9.963289473
9.963294428
9.963298803
9.963259633
9.963324044
9.963281061
9.963289953
9.963232263
9.963318857
9.963269244
9.963245049
9.963298803
9.963298803
9.963264501
9.963263362
9.963257989
9.963299051
9.963256463
9.96331059
9.963287295
9.963283817
9.96330706
9.963290569
9.963263362
9.963263362
9.999598926
9.963266054
9.963313286
9.963269073
9.963255058
9.963263362
9.963238791
9.963279398
9.963302473
9.963251891
9.963309352
9.963266054
9.963269073
9.963269073
9.963312407
9.963246009
9.963249883
9.963252738
9.963270667
9.963251753
9.963293041
9.963227276
9.963324986
9.963279455
9.963246009
9.963246009
9.963310668
9.96331405
9.963297953
9.963294972
9.963298044
9.963275642
9.963267305
9.963268758
9.963315562
9.963280503
9.96331405
9.96331405
9.963267797
9.963285687
9.963268184
9.963286207
9.963258897
9.963355973
9.963327738
9.963284708
9.96328639
9.963293372
9.963285687
)
;
    }
}


// ************************************************************************* //
