/*--------------------------------*- C++ -*----------------------------------*\
| =========                 |                                                 |
| \\      /  F ield         | OpenFOAM: The Open Source CFD Toolbox           |
|  \\    /   O peration     | Version:  4.x                                   |
|   \\  /    A nd           | Web:      www.OpenFOAM.org                      |
|    \\/     M anipulation  |                                                 |
\*---------------------------------------------------------------------------*/
FoamFile
{
    version     2.0;
    format      ascii;
    class       volScalarField;
    location    "7000";
    object      N2;
}
// * * * * * * * * * * * * * * * * * * * * * * * * * * * * * * * * * * * * * //

dimensions      [0 0 0 0 0 0 0];

internalField   nonuniform List<scalar> 
1175
(
0.6215293958
0.621529396
0.6215293959
0.621529396
0.6215293958
0.6215293956
0.6215293958
0.6215293955
0.6215293942
0.6215293915
0.6215293843
0.6215293634
0.6215293121
0.6215291993
0.6215289775
0.6215293961
0.6215293959
0.6215293958
0.6215293953
0.6215293957
0.6215293963
0.621529396
0.6215293955
0.6215293938
0.6215293896
0.6215293775
0.6215293433
0.6215292567
0.6215290615
0.6215286763
0.6215293958
0.6215293955
0.6215293959
0.6215293959
0.6215293956
0.6215293958
0.6215293958
0.6215293955
0.6215293932
0.6215293862
0.6215293646
0.6215293026
0.6215291382
0.6215287561
0.621528001
0.6215293957
0.6215293956
0.6215293957
0.621529396
0.6215293961
0.6215293961
0.6215293957
0.621529395
0.6215293922
0.6215293816
0.6215293486
0.6215292485
0.6215289728
0.6215283082
0.621526985
0.6215293959
0.6215293956
0.6215293955
0.6215293956
0.6215293957
0.6215293957
0.6215293959
0.6215293949
0.6215293914
0.6215293793
0.6215293397
0.6215292161
0.6215288634
0.6215279873
0.6215262212
0.6215293954
0.6215293955
0.6215293961
0.6215293959
0.621529396
0.6215293961
0.6215293958
0.6215293951
0.6215293919
0.6215293818
0.6215293488
0.6215292486
0.6215289724
0.621528308
0.6215269847
0.6215293959
0.6215293957
0.6215293958
0.6215293956
0.6215293958
0.6215293958
0.6215293956
0.621529395
0.6215293926
0.6215293858
0.6215293648
0.6215293025
0.6215291382
0.6215287562
0.6215280009
0.6215293959
0.6215293957
0.6215293956
0.6215293956
0.6215293956
0.6215293959
0.6215293958
0.6215293956
0.6215293942
0.6215293903
0.6215293778
0.6215293434
0.6215292571
0.6215290617
0.6215286762
0.6215293956
0.6215293956
0.6215293959
0.6215293958
0.6215293956
0.6215293955
0.6215293958
0.6215293955
0.6215293946
0.6215293919
0.6215293838
0.6215293633
0.6215293121
0.6215291997
0.6215289778
0.6215293956
0.6215293955
0.6215293958
0.621529396
0.6215293964
0.6215293959
0.621529396
0.6215293954
0.621529394
0.6215293902
0.6215293778
0.6215293436
0.621529257
0.6215290613
0.6215293959
0.6215293957
0.6215293962
0.6215293959
0.6215293959
0.6215293962
0.6215293959
0.6215293952
0.6215293928
0.6215293865
0.6215293654
0.6215293031
0.6215291373
0.6215287494
0.6215279825
0.6215293958
0.6215293956
0.6215293957
0.621529396
0.6215293962
0.621529396
0.6215293958
0.6215293947
0.6215293913
0.6215293789
0.6215293382
0.6215292105
0.62152885
0.6215279637
0.6215261921
0.6215293957
0.6215293957
0.6215293959
0.6215293958
0.6215293959
0.6215293961
0.6215293956
0.6215293938
0.621529389
0.6215293693
0.6215293005
0.6215290716
0.6215283779
0.6215265644
0.6215228491
0.6215293956
0.6215293956
0.6215293956
0.6215293957
0.6215293958
0.6215293958
0.6215293954
0.6215293937
0.6215293878
0.6215293641
0.6215292767
0.6215289712
0.621527989
0.6215252422
0.6215193546
0.6215293953
0.6215293957
0.6215293957
0.621529396
0.6215293956
0.621529396
0.6215293958
0.6215293941
0.6215293887
0.6215293692
0.6215293004
0.6215290712
0.6215283778
0.6215265647
0.6215228495
0.6215293954
0.6215293958
0.6215293961
0.6215293956
0.6215293957
0.6215293959
0.6215293957
0.6215293944
0.6215293908
0.6215293784
0.6215293381
0.6215292107
0.6215288499
0.6215279635
0.6215261922
0.6215293961
0.6215293961
0.6215293958
0.6215293955
0.6215293957
0.6215293956
0.6215293956
0.621529395
0.6215293932
0.6215293867
0.6215293653
0.6215293026
0.621529137
0.6215287496
0.6215279828
0.6215293961
0.6215293959
0.6215293957
0.6215293961
0.6215293962
0.6215293956
0.6215293953
0.6215293953
0.6215293938
0.6215293898
0.6215293773
0.6215293432
0.6215292572
0.6215290617
0.6215286763
0.6215293961
0.621529396
0.6215293962
0.6215293959
0.621529396
0.621529396
0.6215293954
0.621529395
0.6215293925
0.6215293856
0.6215293644
0.6215293024
0.621529138
0.6215287558
0.6215293956
0.6215293954
0.6215293959
0.6215293956
0.6215293958
0.6215293959
0.6215293959
0.6215293944
0.6215293909
0.6215293788
0.6215293382
0.6215292103
0.6215288498
0.6215279632
0.6215293959
0.6215293956
0.6215293958
0.621529396
0.621529396
0.6215293955
0.6215293955
0.6215293935
0.6215293875
0.6215293631
0.6215292763
0.6215289797
0.6215280636
0.6215256375
0.6215206458
0.6215293961
0.6215293959
0.6215293955
0.6215293956
0.621529396
0.6215293961
0.6215293949
0.6215293925
0.6215293823
0.6215293411
0.6215291789
0.6215285752
0.6215265131
0.6215204563
0.6215071603
0.6215293957
0.6215293958
0.6215293959
0.6215293958
0.6215293958
0.6215293955
0.6215293945
0.621529392
0.6215293794
0.6215293264
0.6215291053
0.621528217
0.6215248601
0.6215136597
0.6214857642
0.6215293957
0.6215293957
0.6215293958
0.6215293957
0.6215293958
0.621529396
0.6215293952
0.6215293925
0.6215293822
0.621529341
0.621529179
0.6215285749
0.6215265136
0.6215204573
0.6215071628
0.6215293961
0.6215293959
0.6215293961
0.6215293956
0.6215293959
0.6215293961
0.6215293954
0.6215293937
0.6215293876
0.6215293634
0.6215292763
0.6215289798
0.6215280642
0.6215256383
0.621520648
0.6215293964
0.6215293961
0.6215293962
0.621529396
0.6215293956
0.621529396
0.6215293954
0.6215293945
0.6215293911
0.6215293795
0.6215293383
0.6215292107
0.62152885
0.6215279636
0.6215261919
0.6215293959
0.6215293962
0.6215293957
0.6215293956
0.6215293957
0.621529396
0.6215293955
0.6215293949
0.6215293931
0.6215293859
0.6215293647
0.6215293025
0.6215291386
0.6215287561
0.621528001
0.6215293962
0.6215293962
0.6215293958
0.6215293959
0.6215293959
0.6215293961
0.6215293956
0.621529395
0.6215293918
0.6215293815
0.6215293486
0.6215292483
0.6215289725
0.6215283075
0.6215293959
0.6215293962
0.6215293963
0.6215293959
0.6215293956
0.6215293959
0.6215293955
0.6215293942
0.6215293887
0.6215293693
0.6215293006
0.6215290717
0.6215283778
0.6215265638
0.6215293957
0.6215293959
0.6215293961
0.6215293959
0.6215293956
0.6215293956
0.6215293953
0.6215293922
0.6215293824
0.621529341
0.6215291787
0.6215285746
0.6215265129
0.6215204542
0.6215293955
0.6215293957
0.6215293955
0.6215293958
0.6215293954
0.621529395
0.6215293942
0.6215293901
0.6215293725
0.6215292961
0.6215289618
0.6215275553
0.6215219935
0.6215026674
0.6214532277
0.621529396
0.6215293963
0.6215293958
0.6215293956
0.6215293957
0.6215293954
0.6215293939
0.6215293895
0.6215293675
0.6215292624
0.6215287671
0.6215264176
0.6215154717
0.6214677211
0.6213018954
0.621529396
0.6215293959
0.621529396
0.6215293959
0.6215293959
0.6215293955
0.6215293947
0.621529391
0.6215293733
0.6215292967
0.6215289623
0.6215275556
0.6215219937
0.6215026707
0.621453243
0.6215293962
0.6215293963
0.6215293959
0.6215293959
0.6215293961
0.6215293956
0.621529395
0.6215293927
0.6215293828
0.6215293411
0.6215291789
0.6215285751
0.6215265135
0.6215204568
0.6215071626
0.6215293966
0.6215293961
0.6215293961
0.621529396
0.621529396
0.6215293958
0.6215293954
0.621529394
0.6215293885
0.6215293698
0.6215293008
0.621529072
0.6215283788
0.6215265651
0.6215228496
0.6215293963
0.6215293959
0.6215293959
0.6215293961
0.621529396
0.6215293955
0.6215293959
0.6215293949
0.6215293917
0.6215293814
0.6215293487
0.6215292486
0.6215289725
0.6215283079
0.6215269847
0.621529396
0.6215293959
0.6215293962
0.6215293957
0.6215293958
0.6215293956
0.6215293956
0.6215293942
0.6215293907
0.621529379
0.6215293393
0.6215292154
0.6215288629
0.6215279866
0.6215293957
0.621529396
0.6215293959
0.6215293957
0.6215293956
0.6215293955
0.6215293951
0.6215293936
0.6215293878
0.6215293638
0.6215292767
0.621528971
0.6215279886
0.6215252402
0.621529396
0.621529396
0.621529396
0.621529396
0.6215293959
0.6215293957
0.621529395
0.6215293917
0.6215293795
0.6215293262
0.621529105
0.6215282163
0.6215248584
0.6215136532
0.621529396
0.6215293962
0.6215293961
0.6215293962
0.6215293955
0.6215293951
0.6215293942
0.6215293899
0.6215293673
0.6215292626
0.6215287669
0.6215264175
0.6215154692
0.6214677029
0.6215293965
0.6215293961
0.6215293962
0.621529396
0.621529396
0.6215293957
0.6215293944
0.6215293884
0.6215293592
0.6215292085
0.6215284058
0.6215238616
0.6214963744
0.6213174982
0.6200591033
0.621529396
0.6215293963
0.6215293961
0.6215293958
0.621529396
0.6215293954
0.6215293944
0.6215293898
0.6215293675
0.6215292629
0.6215287671
0.6215264175
0.6215154709
0.6214677182
0.6213018933
0.6215293963
0.6215293961
0.621529396
0.6215293961
0.6215293961
0.6215293956
0.6215293945
0.6215293922
0.6215293796
0.6215293266
0.6215291058
0.6215282173
0.6215248597
0.621513659
0.6214857637
0.6215293959
0.6215293962
0.6215293962
0.6215293962
0.621529396
0.6215293959
0.6215293954
0.621529394
0.6215293874
0.6215293638
0.621529277
0.6215289715
0.621527989
0.6215252419
0.6215193546
0.6215293959
0.6215293959
0.6215293959
0.6215293961
0.6215293957
0.6215293961
0.6215293957
0.6215293947
0.6215293914
0.6215293798
0.6215293401
0.6215292161
0.6215288632
0.6215279869
0.6215262216
0.6215293962
0.6215293963
0.6215293962
0.621529396
0.6215293959
0.6215293954
0.6215293953
0.6215293946
0.6215293915
0.6215293815
0.6215293486
0.6215292483
0.6215289721
0.6215283074
0.6215293958
0.6215293958
0.6215293959
0.6215293959
0.6215293952
0.6215293954
0.6215293951
0.6215293937
0.6215293885
0.6215293693
0.6215293011
0.6215290717
0.6215283776
0.6215265633
0.621529396
0.621529396
0.6215293958
0.6215293955
0.6215293956
0.6215293957
0.6215293952
0.6215293922
0.6215293822
0.6215293409
0.6215291784
0.6215285747
0.6215265127
0.6215204534
0.621529396
0.6215293963
0.6215293962
0.621529396
0.6215293958
0.6215293957
0.6215293947
0.6215293911
0.621529373
0.6215292965
0.6215289626
0.6215275547
0.621521991
0.621502661
0.621529396
0.6215293958
0.6215293961
0.621529396
0.6215293961
0.6215293958
0.6215293946
0.6215293896
0.6215293676
0.6215292627
0.621528767
0.6215264169
0.6215154687
0.6214676999
0.621529396
0.621529396
0.6215293966
0.6215293964
0.621529396
0.6215293957
0.6215293945
0.6215293908
0.6215293735
0.6215292966
0.6215289621
0.621527555
0.6215219921
0.6215026631
0.6215293955
0.6215293961
0.6215293961
0.6215293962
0.6215293964
0.6215293965
0.6215293951
0.6215293926
0.6215293822
0.6215293409
0.6215291787
0.6215285749
0.6215265136
0.6215204555
0.6215071568
0.621529396
0.6215293962
0.6215293959
0.6215293956
0.6215293958
0.6215293956
0.6215293955
0.6215293943
0.621529389
0.6215293699
0.6215293008
0.6215290718
0.6215283783
0.6215265643
0.6215228488
0.6215293952
0.6215293956
0.6215293955
0.6215293959
0.621529396
0.6215293959
0.6215293956
0.621529395
0.6215293918
0.6215293816
0.6215293486
0.6215292483
0.6215289722
0.6215283079
0.6215269846
0.6215293961
0.621529396
0.6215293959
0.6215293961
0.621529396
0.6215293958
0.6215293955
0.6215293949
0.6215293928
0.6215293863
0.621529364
0.6215293018
0.6215291376
0.6215287559
0.6215293956
0.6215293959
0.6215293964
0.6215293962
0.6215293955
0.6215293959
0.6215293954
0.6215293947
0.6215293912
0.6215293787
0.621529338
0.6215292107
0.6215288495
0.6215279631
0.6215293963
0.6215293959
0.6215293957
0.621529396
0.6215293958
0.6215293955
0.6215293953
0.6215293935
0.6215293871
0.621529363
0.6215292756
0.6215289791
0.6215280633
0.621525636
0.6215293958
0.621529396
0.6215293956
0.6215293964
0.6215293955
0.6215293953
0.6215293948
0.6215293923
0.621529382
0.6215293405
0.6215291784
0.6215285745
0.6215265125
0.6215204534
0.6215293961
0.621529396
0.6215293962
0.6215293962
0.6215293958
0.6215293957
0.6215293949
0.6215293921
0.6215293803
0.6215293266
0.6215291049
0.6215282164
0.6215248584
0.6215136534
0.6215293962
0.6215293964
0.6215293958
0.621529396
0.6215293958
0.6215293958
0.6215293952
0.6215293927
0.6215293822
0.621529341
0.621529179
0.621528575
0.621526513
0.6215204543
0.6215293962
0.6215293961
0.621529396
0.6215293962
0.621529396
0.6215293956
0.6215293949
0.6215293936
0.6215293873
0.6215293633
0.6215292759
0.6215289799
0.6215280639
0.6215256366
0.6215293958
0.6215293957
0.6215293955
0.6215293957
0.6215293964
0.6215293961
0.6215293956
0.6215293945
0.6215293911
0.621529379
0.6215293381
0.621529211
0.6215288502
0.6215279633
0.6215261909
0.6215293957
0.6215293955
0.6215293954
0.6215293955
0.6215293956
0.621529396
0.6215293959
0.6215293954
0.621529393
0.6215293857
0.6215293647
0.6215293025
0.6215291385
0.6215287558
0.6215280008
0.6215293961
0.6215293956
0.6215293958
0.6215293954
0.6215293955
0.621529396
0.621529396
0.6215293953
0.6215293937
0.6215293897
0.6215293773
0.6215293425
0.6215292568
0.6215290615
0.6215293956
0.6215293953
0.6215293955
0.6215293954
0.6215293957
0.6215293956
0.6215293955
0.6215293953
0.6215293932
0.6215293861
0.6215293647
0.6215293022
0.6215291368
0.6215287493
0.6215293957
0.6215293956
0.6215293956
0.6215293956
0.6215293959
0.6215293955
0.6215293953
0.6215293942
0.6215293911
0.6215293788
0.6215293384
0.6215292107
0.6215288499
0.6215279628
0.6215293963
0.6215293959
0.6215293958
0.6215293958
0.6215293955
0.6215293958
0.6215293954
0.6215293941
0.621529389
0.6215293695
0.6215293008
0.6215290717
0.6215283776
0.621526563
0.6215293961
0.6215293964
0.621529396
0.6215293957
0.6215293961
0.6215293957
0.6215293953
0.6215293941
0.6215293878
0.621529364
0.6215292768
0.6215289714
0.6215279882
0.62152524
0.6215293955
0.6215293956
0.6215293957
0.6215293962
0.6215293962
0.6215293961
0.6215293955
0.6215293937
0.6215293891
0.6215293694
0.6215293008
0.6215290717
0.6215283783
0.6215265635
0.6215293957
0.6215293961
0.6215293958
0.6215293955
0.6215293959
0.6215293958
0.6215293955
0.6215293948
0.6215293912
0.621529379
0.6215293382
0.6215292106
0.6215288495
0.6215279633
0.6215293956
0.6215293957
0.6215293958
0.6215293959
0.6215293958
0.6215293954
0.6215293957
0.621529395
0.621529393
0.6215293861
0.6215293649
0.6215293031
0.6215291376
0.6215287495
0.6215293952
0.6215293956
0.6215293957
0.6215293957
0.6215293957
0.6215293961
0.6215293959
0.6215293952
0.6215293942
0.6215293898
0.6215293774
0.6215293435
0.6215292569
0.6215290615
0.6215286761
0.6215293959
0.6215293956
0.6215293957
0.6215293958
0.6215293957
0.6215293958
0.6215293957
0.6215293953
0.6215293944
0.6215293914
0.6215293834
0.6215293629
0.6215293125
0.6215291996
0.6215293959
0.6215293957
0.6215293962
0.6215293957
0.6215293958
0.6215293954
0.6215293954
0.6215293955
0.621529394
0.6215293895
0.6215293771
0.6215293434
0.6215292568
0.6215290611
0.6215293959
0.6215293959
0.6215293956
0.6215293957
0.6215293957
0.621529396
0.6215293959
0.6215293953
0.6215293931
0.621529386
0.6215293647
0.6215293023
0.6215291378
0.6215287555
0.6215293959
0.6215293958
0.6215293957
0.621529396
0.6215293965
0.6215293961
0.6215293959
0.6215293953
0.621529392
0.6215293813
0.6215293483
0.6215292482
0.621528972
0.6215283072
0.6215293962
0.6215293965
0.6215293965
0.6215293968
0.6215293963
0.6215293958
0.6215293957
0.6215293951
0.6215293918
0.6215293795
0.6215293401
0.6215292161
0.6215288634
0.6215279867
0.6215293961
0.6215293962
0.6215293963
0.621529396
0.6215293961
0.621529396
0.621529396
0.6215293948
0.6215293922
0.6215293819
0.6215293484
0.6215292481
0.6215289719
0.6215283071
0.6215293964
0.6215293961
0.6215293956
0.621529396
0.621529396
0.6215293959
0.6215293955
0.6215293951
0.6215293928
0.6215293859
0.6215293644
0.6215293024
0.6215291386
0.6215287558
0.6215293962
0.6215293961
0.6215293953
0.6215293956
0.6215293959
0.6215293958
0.6215293961
0.6215293957
0.6215293943
0.6215293904
0.6215293774
0.6215293434
0.6215292566
0.6215290613
0.6215293958
0.621529396
0.6215293961
0.6215293959
0.6215293959
0.621529396
0.6215293959
0.6215293955
0.6215293947
0.6215293915
0.6215293837
0.6215293633
0.6215293122
0.6215291995
)
;

boundaryField
{
    top
    {
        type            zeroGradient;
    }
    bottom
    {
        type            zeroGradient;
    }
    side-walls
    {
        type            zeroGradient;
    }
    inlet
    {
        type            zeroGradient;
    }
    outlet
    {
        type            zeroGradient;
    }
    procBoundary0to1
    {
        type            processor;
        value           nonuniform List<scalar> 
97
(
0.6215285908
0.6215286762
0.6215280242
0.6215267709
0.6215249315
0.6215236158
0.6215249315
0.6215267705
0.6215280242
0.621528591
0.6215286762
0.6215286762
0.6215267437
0.6215261911
0.6215235188
0.6215177775
0.621512351
0.6215177774
0.6215235188
0.621526744
0.621528024
0.6215280007
0.6215261911
0.6215261911
0.6215139745
0.621507156
0.6214927106
0.6214648109
0.6214927121
0.6215139756
0.6215235188
0.6215267705
0.6215269845
0.6215228481
0.621507156
0.621507156
0.6214196947
0.6213018304
0.6212761621
0.6214197
0.6214927115
0.6215177775
0.6215249314
0.6215262204
0.6215193523
0.621485755
0.6213018304
0.6213018304
0.6206574004
0.6213018322
0.6212761625
0.6214532259
0.6214648101
0.6215123499
0.6215236155
0.6215269844
0.6215228482
0.6215071584
0.6214532283
0.6213018322
0.6214532259
0.6214532259
0.6214927104
0.6215206459
0.6215177772
0.6215249313
0.6215280006
0.6215261919
0.621520646
0.6215071586
0.6214857548
0.6215071592
0.6215206459
0.6215206459
0.6215235183
0.6215279827
0.6215267706
0.6215286761
0.6215279824
0.6215261914
0.6215228484
0.6215193526
0.6215228487
0.6215261916
0.6215279827
0.6215279827
0.6215280239
0.6215289775
0.6215289775
0.6215286766
0.6215280008
0.6215269845
0.6215262206
0.6215269845
0.6215280009
0.621528676
0.6215289775
)
;
    }
}


// ************************************************************************* //
