/*--------------------------------*- C++ -*----------------------------------*\
| =========                 |                                                 |
| \\      /  F ield         | OpenFOAM: The Open Source CFD Toolbox           |
|  \\    /   O peration     | Version:  4.x                                   |
|   \\  /    A nd           | Web:      www.OpenFOAM.org                      |
|    \\/     M anipulation  |                                                 |
\*---------------------------------------------------------------------------*/
FoamFile
{
    version     2.0;
    format      ascii;
    class       surfaceScalarField;
    location    "7000";
    object      phi;
}
// * * * * * * * * * * * * * * * * * * * * * * * * * * * * * * * * * * * * * //

dimensions      [1 0 -1 0 0 0 0];

internalField   nonuniform List<scalar> 
3175
(
9.497827521e-06
-3.557559631e-13
-9.657761527e-14
9.497826634e-06
-1.665296143e-12
-1.186450012e-13
9.497826589e-06
-2.12911972e-13
-1.347522223e-12
9.497825397e-06
-6.725459192e-13
-8.614607167e-13
9.497829683e-06
1.346250082e-12
-1.20794517e-12
9.497829826e-06
-7.779125505e-13
-1.461666755e-12
9.49783273e-06
3.869552812e-13
-1.723070902e-14
9.497837305e-06
-9.139294721e-13
-3.627867627e-13
9.497841021e-06
-6.909684509e-13
-1.673721908e-12
9.497843676e-06
-2.495379704e-12
-5.761992889e-12
9.497853815e-06
-4.250945493e-12
-5.317762689e-12
9.497864921e-06
-7.154685625e-12
-8.680290053e-12
9.497888699e-06
-1.036908607e-11
-1.173176252e-11
9.497908765e-06
-1.105328811e-11
-9.492757808e-12
-2.716511914e-11
9.497844297e-06
-2.14108268e-12
-8.120461064e-13
9.497846161e-06
1.921669407e-13
-4.377236323e-13
9.497845039e-06
-2.51794538e-13
-1.464368838e-12
9.49784448e-06
-1.62003041e-12
-1.234808212e-12
9.497844354e-06
-1.063001013e-12
-1.763939994e-12
9.497850034e-06
-8.497097711e-13
-1.927181869e-12
9.497847876e-06
-1.086651461e-12
-5.907047724e-13
9.497852672e-06
-5.16613706e-13
-1.805669298e-13
9.497855369e-06
-1.210333491e-12
-1.338399747e-12
9.497858664e-06
-3.758050324e-12
-4.193413633e-12
9.497866201e-06
-6.208599582e-12
-5.047030131e-12
9.497880923e-06
-1.083870734e-11
-8.38543526e-12
9.497900639e-06
-2.101803e-11
-1.385574884e-11
9.497925772e-06
-1.928491525e-11
-9.745354138e-12
-5.546960311e-11
-4.298862957e-11
9.497847309e-06
2.056537577e-13
3.860125638e-15
9.497845524e-06
-7.863452907e-13
-3.677323391e-13
9.497845172e-06
-2.261739299e-13
-7.537649369e-13
9.497846715e-06
-2.76422852e-13
3.233912098e-15
9.497845796e-06
-7.364258089e-13
-9.01227061e-13
9.497848009e-06
2.174750102e-14
-4.228976136e-13
9.497848211e-06
2.66186641e-13
-3.6503681e-13
9.497851638e-06
-1.467134059e-12
-1.432059414e-12
9.497852064e-06
-2.781814943e-12
-3.452594094e-12
9.497853734e-06
-3.671325112e-12
-4.745648237e-12
9.497859485e-06
-6.118231752e-12
-7.084427819e-12
9.497872574e-06
-8.85238795e-12
-1.274784928e-11
9.497891354e-06
-1.851580558e-11
-2.084100042e-11
9.49791505e-06
-1.828117674e-11
-2.228721398e-11
-6.767866122e-11
-9.753498911e-11
9.497843773e-06
-1.003930416e-13
-5.13479801e-13
9.497844464e-06
-6.304076014e-13
1.53202184e-14
9.497843015e-06
9.177694112e-14
-1.968749057e-13
9.497843705e-06
1.017215718e-12
-5.877965617e-13
9.497844967e-06
-3.690217197e-13
4.710795198e-13
9.497847337e-06
-3.26404794e-14
-1.948428634e-13
9.497844297e-06
-1.684339039e-13
-1.33515036e-12
9.497846332e-06
1.559307681e-12
-1.275009605e-12
9.497847679e-06
5.910125481e-13
-3.319775942e-13
9.497847646e-06
-2.135021543e-12
-5.205281186e-12
9.497853648e-06
-3.836394533e-12
-4.634961329e-12
9.497865079e-06
-1.145739794e-11
-1.298160058e-11
9.497881153e-06
-1.993189001e-11
-1.616547984e-11
9.49791152e-06
-2.727782643e-11
-2.030251593e-11
-6.71400811e-11
-1.4038724e-10
9.497815125e-06
2.705765416e-14
-1.227542878e-12
9.497815266e-06
-7.180534611e-13
-1.337595046e-12
9.497813188e-06
-1.002080086e-12
-1.67760161e-12
9.497813779e-06
-8.58370958e-14
-2.492177447e-12
9.497816443e-06
1.987398e-12
-1.647022476e-13
9.497816032e-06
2.094305376e-12
-1.04023247e-13
9.497816121e-06
1.898404981e-12
-8.36872704e-13
9.497816307e-06
4.195255343e-13
-2.707169282e-12
9.497814633e-06
2.636088743e-12
-2.472963871e-12
9.497812686e-06
4.92954466e-12
-6.246407137e-12
9.497809781e-06
6.540637177e-12
-7.746049971e-12
9.497818086e-06
1.242044079e-11
-2.6597912e-11
9.497817612e-06
2.295459391e-11
-3.985142322e-11
9.497852848e-06
2.941207175e-11
-8.885989351e-11
6.991031969e-11
-3.743162403e-10
9.497805186e-06
-1.642213711e-13
-4.460498139e-13
9.497805691e-06
2.350444977e-14
2.427793875e-14
9.497804317e-06
-1.576985481e-13
-9.332862608e-13
9.497805222e-06
7.077939066e-13
-1.577954277e-12
9.497804629e-06
4.683430202e-13
-6.074824156e-13
9.497804787e-06
1.03047285e-12
1.725281129e-13
9.49780456e-06
1.899601061e-12
3.224542619e-13
9.497807678e-06
4.320014927e-12
1.289703391e-13
9.497807663e-06
3.339370227e-12
-1.390743983e-12
9.497810991e-06
5.497574386e-12
-5.172939497e-12
9.497814782e-06
6.965990268e-12
-4.669158778e-12
9.497829822e-06
1.178958784e-11
-1.176595683e-11
9.497845048e-06
2.11730981e-11
-1.486051294e-11
9.497876096e-06
2.073617947e-11
-2.233616199e-11
6.829181346e-11
-1.425406966e-10
9.497848137e-06
2.372728004e-13
-4.415938643e-13
9.497848016e-06
-4.34200825e-13
-2.314126112e-13
9.497848694e-06
-1.138848031e-13
-8.166714106e-14
9.497850058e-06
-4.899933045e-13
-1.623068283e-12
9.497849944e-06
1.564148074e-12
-9.540329677e-15
9.497851164e-06
1.02511103e-12
-4.933202955e-13
9.497852199e-06
3.048490357e-12
-1.462253246e-12
9.497853581e-06
3.164150173e-12
-2.366369176e-12
9.497855605e-06
2.429331913e-12
-1.674190778e-12
9.497856846e-06
4.718276904e-12
-4.195645582e-12
9.497862779e-06
7.637462143e-12
-4.146776583e-12
9.497872405e-06
1.293283326e-11
-1.105053745e-11
9.497888879e-06
2.074416727e-11
-2.090799839e-11
9.497914376e-06
1.961104809e-11
-2.190965338e-11
5.371100024e-11
-9.639413061e-11
9.497829706e-06
-1.928547109e-13
-1.077774871e-12
9.497831128e-06
2.569059139e-13
5.476035272e-13
9.49783066e-06
-3.903040765e-13
6.28852955e-13
9.497831865e-06
-1.7472051e-13
-1.13120352e-13
9.497831206e-06
-4.781392077e-13
-1.163967494e-12
9.497833648e-06
-2.86866154e-13
3.06252169e-13
9.497831963e-06
6.678309304e-13
-8.699054593e-13
9.49783408e-06
1.911535381e-12
-1.751317146e-12
9.497839729e-06
3.02690714e-12
-1.246959589e-12
9.497841012e-06
3.45281483e-12
-3.352362281e-12
9.497852073e-06
7.38309078e-12
-3.499520049e-12
9.497861391e-06
7.925896388e-12
-6.837495003e-12
9.4978831e-06
1.236745098e-11
-1.333384618e-11
9.497904568e-06
9.689030106e-12
-9.391844777e-12
2.780198644e-11
-4.180698983e-11
9.497807045e-06
-1.125932902e-12
9.497807717e-06
-1.392743844e-12
9.497810104e-06
-1.345074218e-13
9.497809105e-06
-1.633196775e-15
9.497809805e-06
-5.44838526e-13
9.497814039e-06
5.459366141e-13
9.497812848e-06
-3.596678325e-13
9.497812176e-06
-9.020497114e-13
9.497817537e-06
-6.485773196e-13
9.497822571e-06
-1.685734509e-12
9.497830554e-06
-2.879882488e-12
9.497842878e-06
-5.436826588e-12
9.497862794e-06
-1.121920085e-11
9.49788611e-06
-8.253756012e-12
-2.69195702e-11
9.497848968e-06
-1.393889876e-12
-4.933248371e-13
9.497846306e-06
-8.761864685e-13
-1.582866883e-12
9.497847896e-06
-3.417321002e-13
-2.430848048e-12
9.497847117e-06
2.229382557e-13
-4.356103909e-13
9.497850174e-06
9.868206317e-13
7.587859953e-13
9.497850964e-06
-4.303864146e-13
-1.093732126e-13
9.497850756e-06
-5.148092536e-14
4.863563802e-13
9.497853802e-06
-8.423775883e-14
1.746674423e-13
9.49785679e-06
-1.107684436e-12
-3.332623159e-12
9.497862198e-06
-2.647450163e-12
-3.850883775e-12
9.497867974e-06
-4.647770237e-12
-6.227013316e-12
9.497881416e-06
-6.678507489e-12
-1.044336048e-11
9.497903317e-06
-1.288195012e-11
-2.103456003e-11
-1.098441307e-11
-1.890248781e-11
9.49780539e-06
-7.616843431e-13
-3.081347516e-14
9.497804909e-06
-1.113671851e-12
-7.039701109e-13
9.497807959e-06
-2.505439454e-13
-6.755929715e-13
9.497806454e-06
-9.972325625e-13
-1.026190608e-12
9.497807484e-06
-5.312297802e-13
-1.75444118e-13
9.497812752e-06
1.136270299e-12
-1.352071947e-13
9.497810092e-06
-1.095541919e-12
-2.427792349e-12
9.497812661e-06
-1.817338342e-12
-2.415448343e-12
9.49781416e-06
-2.59380202e-12
-3.863648247e-12
9.497820242e-06
-3.915759501e-12
-4.801505339e-12
9.49782786e-06
-6.688947878e-12
-6.483337606e-12
9.49784248e-06
-1.369692673e-11
-1.367012056e-11
9.497863514e-06
-2.433632034e-11
-2.424479911e-11
9.497888027e-06
-2.359517423e-11
-2.344144176e-11
-8.895422571e-11
9.497798859e-06
-9.287105112e-13
2.007599841e-13
9.497796769e-06
-6.913625728e-13
-1.210135152e-12
9.497795973e-06
-1.950382098e-13
-1.536775958e-12
9.497796642e-06
-8.524899846e-13
-5.041875423e-13
9.497799819e-06
2.133407639e-13
-7.853725293e-13
9.497797805e-06
-1.424378389e-12
-1.301976754e-12
9.497798163e-06
-9.388671305e-13
-6.187605389e-14
9.497799017e-06
-1.387277453e-12
-1.818148704e-12
9.497800782e-06
-1.761288229e-12
-3.118548068e-12
9.49780103e-06
-4.978058922e-12
-8.046871354e-12
9.497804327e-06
-5.561080291e-12
-9.646190123e-12
9.497815575e-06
-1.250935206e-11
-2.406647039e-11
9.497831046e-06
-2.012252448e-11
-3.681940349e-11
9.497864153e-06
-2.631455684e-11
-5.250065264e-11
-1.268554636e-10
-2.179103961e-10
9.497845435e-06
-5.586026842e-13
1.891544585e-13
9.497845745e-06
-9.997554767e-13
-1.799131628e-13
9.497842716e-06
-1.203877024e-12
-1.43982451e-12
9.497844066e-06
-9.375466169e-13
-5.130264035e-13
9.497844435e-06
-3.300760465e-13
-2.058737554e-12
9.497845453e-06
1.513588524e-12
-1.879876281e-12
9.497847105e-06
1.67815414e-12
-4.659730374e-13
9.497847107e-06
6.79658849e-14
-1.942689195e-12
9.497847162e-06
-8.707589607e-13
-2.24795924e-12
9.497850882e-06
-2.416687279e-12
-9.157465577e-12
9.497854223e-06
-5.336881227e-12
-6.022711157e-12
9.497871912e-06
-1.574803077e-11
-2.695424742e-11
9.497884574e-06
-2.809636708e-11
-1.979749053e-11
9.49794098e-06
-4.683332589e-11
-5.727215904e-11
-1.320897077e-10
-3.329668219e-10
9.497832741e-06
5.490672437e-13
1.591506278e-13
9.497832941e-06
6.17178891e-13
-2.055512986e-13
9.497831273e-06
4.376251989e-13
-2.197046084e-12
9.497831086e-06
7.930144369e-13
2.02027748e-13
9.49783217e-06
2.073758353e-12
5.604527255e-13
9.497828984e-06
1.724817959e-12
-2.791136393e-12
9.497827395e-06
2.073171e-12
-1.919983088e-12
9.497827659e-06
2.200590302e-12
-4.279288843e-12
9.497825766e-06
2.908297495e-12
-3.815090442e-12
9.497821467e-06
4.593810715e-12
-1.366256009e-11
9.497813898e-06
7.638208302e-12
-1.209529357e-11
9.49781435e-06
1.74991495e-11
-6.254882976e-11
9.497784066e-06
3.049490538e-11
-6.963846971e-11
9.497868787e-06
4.668933766e-11
-2.740257212e-10
1.319883306e-10
-1.058304654e-09
9.497853408e-06
-6.425305509e-13
-2.05028944e-12
9.49785373e-06
-3.07962521e-13
-5.713435661e-13
9.497851033e-06
-9.214759957e-14
-6.303350128e-13
9.497850924e-06
7.899299683e-13
9.160780744e-13
9.497851173e-06
9.036320519e-13
1.271827065e-13
9.497851457e-06
1.579689872e-13
-3.181298229e-12
9.497850939e-06
3.223621611e-13
-1.695343562e-12
9.497852147e-06
2.436717025e-12
-2.356663223e-12
9.497852208e-06
2.636683789e-12
-3.160161206e-12
9.497854654e-06
5.822573028e-12
-8.964001927e-12
9.497861199e-06
8.760741671e-12
-5.406120923e-12
9.497877843e-06
1.559173461e-11
-2.572290136e-11
9.497888607e-06
2.303644417e-11
-1.949098396e-11
9.497946308e-06
2.9454885e-11
-5.654650165e-11
1.289831698e-10
-3.319570845e-10
9.497780934e-06
-4.308448663e-13
-8.737316014e-13
9.497782254e-06
1.179246354e-13
-1.26132883e-12
9.497780377e-06
3.357350282e-13
-3.109599775e-13
9.497782597e-06
1.4192377e-12
1.284744668e-12
9.497780376e-06
-2.637797226e-13
-1.145095728e-12
9.497782361e-06
1.885498064e-12
-1.077453734e-12
9.497781103e-06
2.762124503e-12
-1.431005709e-13
9.497780426e-06
2.829707025e-12
-3.363254132e-12
9.497781453e-06
2.7454408e-12
-2.472760222e-12
9.497783337e-06
5.629510242e-12
-7.816061355e-12
9.497784001e-06
6.714725264e-12
-1.066715734e-11
9.497797909e-06
1.415213455e-11
-2.208706921e-11
9.49781207e-06
2.387812069e-11
-3.614242216e-11
9.497846071e-06
2.424142516e-11
-5.21615646e-11
8.965681368e-11
-2.17174647e-10
9.497879736e-06
-2.491876412e-13
-1.298737845e-12
9.497880138e-06
-1.059544376e-12
-1.278486445e-12
9.497879116e-06
-2.257310778e-13
-1.116545152e-12
9.497879284e-06
-4.758933406e-13
-1.810376542e-12
9.497881716e-06
-1.515419177e-12
1.843957227e-13
9.497882957e-06
-7.05831421e-13
-2.171690992e-12
9.497881021e-06
2.725812774e-13
-3.167475624e-12
9.49788405e-06
2.864560541e-12
-1.757597269e-12
9.4978867e-06
3.903071864e-12
-1.905858041e-12
9.497890212e-06
3.701105311e-12
-5.668184949e-12
9.497895877e-06
5.47449865e-12
-7.683568951e-12
9.497908068e-06
8.630536089e-12
-1.196239195e-11
9.497928379e-06
1.427385964e-11
-2.299766415e-11
9.497953397e-06
1.128801874e-11
-2.318542969e-11
4.293922841e-11
-8.923773232e-11
9.497787184e-06
-5.54861353e-13
9.497787604e-06
-1.168795063e-12
9.497788141e-06
-7.706486219e-13
9.497787344e-06
3.675211705e-13
9.497790851e-06
1.920713873e-12
9.497791245e-06
-7.34358272e-14
9.497790769e-06
-2.089731701e-12
9.497791902e-06
-1.921801406e-12
9.497792694e-06
-3.756672421e-12
9.497800333e-06
-4.412680347e-12
9.497807833e-06
-6.990130198e-12
9.497820302e-06
-9.636392616e-12
9.497840741e-06
-1.839501666e-11
9.497861091e-06
-1.859087207e-11
-5.443547133e-11
9.497835586e-06
-2.171987364e-13
-2.550040195e-13
9.497832528e-06
-3.780427498e-13
-1.372578892e-12
9.497836743e-06
3.457939654e-13
9.524993898e-13
9.497836275e-06
-1.210705845e-12
-3.794154724e-13
9.497838246e-06
-7.434236742e-13
4.583150652e-13
9.497841672e-06
-2.962405353e-13
5.773739481e-14
9.497839892e-06
-2.980891189e-12
-1.681944972e-12
9.497842122e-06
-2.025445076e-12
-1.425936587e-12
9.497846293e-06
-1.23061859e-12
-1.720636551e-12
9.497851168e-06
-3.499718912e-12
-4.597500418e-12
9.497855534e-06
-6.056858606e-12
-7.275728061e-12
9.497865553e-06
-1.064868231e-11
-9.807170897e-12
9.497887349e-06
-1.998016378e-11
-1.974011805e-11
-2.26527727e-11
-1.99089355e-11
9.497846049e-06
-3.09222323e-13
-2.184277672e-13
9.497845584e-06
-1.150905533e-12
-5.990286905e-13
9.497846858e-06
-1.158920616e-12
-4.123511835e-13
9.49784482e-06
-2.152098178e-12
-7.573837439e-13
9.497846918e-06
-9.580008808e-13
-7.765072793e-14
9.497846929e-06
-5.659570168e-13
-2.442366283e-13
9.497848413e-06
4.373927024e-14
-1.05336922e-13
9.497847768e-06
-1.23371676e-12
-1.290688895e-12
9.497846921e-06
-1.853817403e-12
-1.371550156e-12
9.497847864e-06
-6.339804503e-12
-4.612282045e-12
9.497850828e-06
-9.197228908e-12
-5.185219868e-12
9.497861443e-06
-2.365216872e-11
-1.183840711e-11
9.497876766e-06
-3.817547331e-11
-2.145203818e-11
-5.368181852e-11
-2.715560105e-11
9.497844919e-06
-1.66454662e-12
9.624712005e-13
9.497843971e-06
-3.767722395e-13
8.624334232e-13
9.497844247e-06
-1.860551378e-13
5.525341896e-13
9.497844359e-06
-2.698289334e-13
-1.230240448e-13
9.497844506e-06
-8.599563884e-13
1.742463646e-12
9.49784426e-06
-1.765896205e-12
-4.323608942e-13
9.49784398e-06
-7.545264299e-13
-2.132618676e-12
9.497844544e-06
-1.739775051e-12
-1.895732987e-12
9.49784378e-06
-1.834583089e-12
-2.641002568e-12
9.49784158e-06
-7.906236564e-12
-7.274935869e-12
9.497839302e-06
-6.62681295e-12
-5.727205904e-12
9.497848121e-06
-2.399977662e-11
-2.434867812e-11
9.49784129e-06
-3.144934364e-11
-3.254002117e-11
9.497900811e-06
-7.954550303e-11
-8.001235045e-11
-3.731636704e-10
9.497813024e-06
-4.405030798e-13
2.148682654e-12
9.497812651e-06
-7.118387054e-13
2.130828449e-13
9.497812802e-06
-1.876299963e-12
3.906141576e-14
9.497813458e-06
6.049268761e-13
-4.57090296e-13
9.497814595e-06
1.270596187e-12
1.719124698e-12
9.497815789e-06
3.010426424e-13
1.835899558e-12
9.497813843e-06
-4.277244161e-13
-2.004834805e-12
9.497813368e-06
-9.497710744e-13
-1.671135166e-12
9.497812329e-06
-1.025857544e-12
-6.783085452e-13
9.497813262e-06
-5.25314624e-12
-7.413180137e-12
9.497810344e-06
-9.590477411e-12
1.202842096e-12
9.497822543e-06
-3.351693895e-11
-3.113773733e-11
9.49781585e-06
-5.586940054e-11
6.885694696e-12
9.497940386e-06
-1.351610124e-10
-1.238343534e-10
-4.016361289e-10
-6.863183986e-10
9.49787508e-06
-7.103145202e-13
-8.788132307e-14
9.49787523e-06
-4.481699173e-14
7.748501902e-13
9.497876554e-06
1.388796734e-12
1.0484467e-12
9.49787546e-06
8.772009059e-13
-4.140810731e-13
9.49787433e-06
1.072859774e-12
-9.907892566e-13
9.497875762e-06
1.678799767e-12
-2.515974152e-13
9.497873438e-06
2.176278214e-12
-1.11936611e-12
9.497870967e-06
3.41193173e-12
-3.097446119e-12
9.49786396e-06
2.751360193e-12
-3.750545721e-12
9.497853023e-06
7.557637932e-12
-1.476095184e-11
9.497825748e-06
1.16612562e-11
-6.309078863e-12
9.497796244e-06
3.55328144e-11
-9.413238533e-11
9.497669609e-06
5.743992767e-11
-5.472216678e-11
9.497860728e-06
1.355491957e-10
-7.371647576e-10
4.03497669e-10
-2.89509752e-09
9.497834028e-06
1.514456744e-14
4.568562509e-13
9.497835871e-06
-3.54532282e-13
3.625477014e-13
9.497835136e-06
3.753601139e-13
-1.959535502e-13
9.49783422e-06
1.877683073e-12
-2.969638292e-14
9.497833065e-06
5.193476977e-13
-9.274854434e-13
9.497837585e-06
2.062901899e-12
1.235300553e-13
9.497835222e-06
2.746815738e-12
2.010087517e-15
9.497833495e-06
2.214857052e-12
-3.071458386e-12
9.497833512e-06
4.314070198e-12
-1.355513427e-12
9.497833617e-06
8.815309299e-12
-7.727560286e-12
9.497831956e-06
7.420866014e-12
1.077887543e-12
9.49784439e-06
2.732235247e-11
-3.168408421e-11
9.497838181e-06
3.513027248e-11
7.944919831e-12
9.497960591e-06
8.231624103e-11
-1.221910852e-10
3.75757149e-10
-6.856340345e-10
9.497843175e-06
-1.039681595e-12
-2.446577723e-13
9.497844314e-06
-6.34608645e-14
5.598365983e-13
9.497842656e-06
-1.514654163e-13
1.210982089e-12
9.497841159e-06
-7.631858709e-13
-1.282641105e-12
9.497843059e-06
2.268290692e-12
-7.134092825e-13
9.497845279e-06
1.187877806e-12
-3.997998293e-13
9.497839248e-06
3.924101785e-13
-1.455381408e-12
9.497842562e-06
3.306062638e-12
-1.579943833e-12
9.497840117e-06
2.742171309e-12
-3.275748813e-12
9.497837984e-06
6.714279301e-12
-8.435465423e-12
9.497835815e-06
9.549562953e-12
-5.657093733e-12
9.497841387e-06
2.372981685e-11
-2.586633573e-11
9.497834737e-06
3.736206545e-11
-3.329411042e-11
9.497893729e-06
5.255392087e-11
-8.009424725e-11
2.179742802e-10
-3.735008202e-10
9.497783172e-06
5.589580243e-13
8.2450673e-13
9.497782665e-06
-6.078071201e-13
1.210544601e-12
9.497782056e-06
1.898941878e-13
-1.474614865e-15
9.497785281e-06
2.678120761e-12
3.673224476e-13
9.497783978e-06
2.568837025e-13
-3.840549793e-13
9.497785209e-06
3.125565392e-13
-1.841829596e-13
9.497785608e-06
1.368663434e-12
1.157618273e-13
9.497786222e-06
2.563805234e-12
-1.694201553e-12
9.49778523e-06
1.785036005e-12
-8.924663889e-13
9.497788632e-06
5.760621099e-12
-4.08299647e-12
9.49779428e-06
7.791820759e-12
-4.61868283e-12
9.497803848e-06
1.217258294e-11
-1.26765766e-11
9.497818344e-06
2.193773924e-11
-2.118564591e-11
9.497853046e-06
2.345646594e-11
-2.716058892e-11
9.646735781e-11
-1.291535829e-10
9.497868764e-06
-3.206169695e-15
9.497870973e-06
1.350630597e-12
9.497870051e-06
-1.357254355e-12
9.497867228e-06
-1.330191604e-12
9.497868527e-06
2.055305892e-13
9.497869107e-06
1.102362919e-12
9.497871473e-06
3.534196513e-13
9.497871004e-06
-2.387378526e-12
9.497874316e-06
-1.809707399e-12
9.497877084e-06
-3.369243847e-12
9.4978802e-06
-7.899828623e-12
9.497891743e-06
-1.152917683e-11
9.497910203e-06
-2.202139086e-11
9.497934884e-06
-2.149003794e-11
-6.965033311e-11
9.49782314e-06
1.37647393e-13
-2.540426959e-13
9.497823243e-06
-1.859325467e-13
-3.242443467e-13
9.4978239e-06
-1.120192776e-12
2.49468374e-13
9.497824674e-06
2.498447223e-13
-5.558331437e-13
9.497826509e-06
-1.96114943e-13
7.196137065e-14
9.497827324e-06
-2.849546648e-13
-7.017124174e-13
9.497825846e-06
-8.43627932e-13
-5.570914413e-13
9.497828544e-06
-6.691361345e-13
9.597340749e-13
9.4978272e-06
-1.395137066e-12
1.906119275e-12
9.497833799e-06
-3.550017877e-12
-1.300535482e-12
9.497837397e-06
-2.773380169e-12
-3.890250918e-12
9.497846575e-06
-1.139648795e-11
-9.766715146e-12
9.497866112e-06
-1.424027006e-11
-1.745350845e-11
-2.03803249e-11
-2.586734164e-11
9.497799922e-06
1.930374776e-13
-4.925169733e-14
9.497798119e-06
5.189953655e-13
4.446549164e-13
9.497799724e-06
1.97828203e-13
-3.911219347e-14
9.497799773e-06
-1.385010314e-12
-5.201760011e-13
9.497799719e-06
1.001483364e-12
-4.559946308e-13
9.497800265e-06
-5.532389314e-13
1.303518635e-14
9.497802068e-06
-1.574383777e-12
5.5584149e-13
9.497801957e-06
-1.668697872e-12
9.360149208e-14
9.497801311e-06
-2.464025318e-12
-1.677127373e-12
9.497805126e-06
-7.46565762e-12
-4.191969606e-12
9.497808892e-06
-4.641252677e-12
-6.63092251e-12
9.497823243e-06
-2.757228708e-11
-1.540234489e-11
9.497838865e-06
-1.939541539e-11
-2.84132716e-11
-5.823275955e-11
-4.865954373e-11
9.497851652e-06
5.186915322e-13
-6.660591673e-13
9.497850321e-06
-1.895356736e-12
-1.312929358e-12
9.497850386e-06
-1.527492356e-12
-6.468275909e-14
9.497853455e-06
7.168074504e-14
-4.610464674e-13
9.497849323e-06
-1.30466663e-13
-1.281989385e-12
9.497850297e-06
7.396094209e-13
-7.800388215e-13
9.497852267e-06
2.337566773e-13
6.766447208e-13
9.497850371e-06
-1.29269505e-12
-2.094356562e-12
9.497850311e-06
-1.050898826e-12
-2.170801111e-12
9.497850246e-06
-7.16783989e-12
-6.74041769e-12
9.497847325e-06
3.212108324e-13
-8.582976047e-12
9.497862165e-06
-3.039093758e-11
-3.221579889e-11
9.497855895e-06
8.747651067e-12
-5.558954034e-11
-1.224254841e-10
-1.339833972e-10
9.49782149e-06
-2.497727488e-12
-1.36699986e-12
9.497824529e-06
-4.263737213e-13
-7.628414877e-13
9.497822546e-06
-6.398532262e-13
-1.202626052e-12
9.497825574e-06
1.44162676e-12
-7.699585705e-13
9.497823531e-06
-2.762788465e-13
-7.850500533e-13
9.497823719e-06
-2.479436072e-13
-2.682408841e-13
9.497825164e-06
9.810636148e-13
-3.906500647e-13
9.497821212e-06
-2.029224298e-12
-2.906514175e-12
9.497821073e-06
-2.968221108e-12
-3.459763149e-12
9.497824359e-06
-8.952209404e-12
-8.874030346e-12
9.497846245e-06
-1.083796727e-11
-1.070389941e-11
9.497886071e-06
-5.210868513e-11
-5.404717049e-11
9.498009569e-06
-5.189663583e-11
-5.334339997e-11
9.49826907e-06
-2.511773178e-10
-2.505495525e-10
-7.053566941e-10
9.497792219e-06
-4.638824767e-13
1.129364336e-12
9.497791459e-06
-2.108373881e-13
9.317682314e-14
9.497791463e-06
-3.357248477e-13
-8.419157563e-13
9.497791419e-06
-6.697983615e-14
-1.28926511e-12
9.497794252e-06
3.266977204e-13
-4.665511336e-13
9.497793377e-06
1.274168066e-12
1.25647381e-13
9.497790419e-06
2.583983706e-12
-4.406899693e-13
9.497786342e-06
2.219463146e-12
-2.124727275e-12
9.497781865e-06
4.901610538e-12
-5.147031141e-12
9.497763541e-06
1.124549331e-11
-1.709012234e-11
9.497756986e-06
1.283833868e-11
-2.338226852e-11
9.497696231e-06
5.460559649e-11
-1.379062011e-10
9.497746643e-06
5.441906636e-11
-2.177271569e-10
9.498207095e-06
2.531244834e-10
-1.694758046e-09
7.074585319e-10
-5.221683284e-09
9.497859718e-06
-4.487118091e-13
5.096611628e-13
9.497859492e-06
3.50874631e-13
-8.685940248e-13
9.497857575e-06
1.277108609e-12
-1.799466396e-12
9.497856444e-06
6.560217484e-13
-1.157227767e-12
9.497857884e-06
1.939162646e-13
-1.230343627e-12
9.497857924e-06
5.5702468e-13
-6.834999846e-13
9.497854393e-06
4.388458678e-13
-1.295834684e-12
9.497856293e-06
3.876320107e-12
-5.09519821e-13
9.497854831e-06
2.233437387e-12
-3.773740089e-12
9.497858564e-06
8.387650102e-12
-9.303277065e-12
9.497879137e-06
7.991030028e-13
-1.074263781e-11
9.497918907e-06
3.265305633e-11
-5.127621249e-11
9.498041583e-06
-6.786054482e-12
-5.28104076e-11
9.498300644e-06
1.239600756e-10
-2.5031962e-10
6.871735852e-10
-7.066545621e-10
9.497807369e-06
9.688811975e-14
-3.18938889e-13
9.497808378e-06
-1.397775124e-13
-1.458931345e-12
9.497807461e-06
-1.143305455e-12
-1.133799514e-12
9.497808303e-06
-4.067142415e-13
-1.311130199e-12
9.4978083e-06
1.658867705e-12
-4.382892159e-13
9.497807615e-06
2.675502008e-12
-6.320384461e-13
9.497807251e-06
1.86587834e-12
6.230808676e-14
9.497807427e-06
2.85449522e-12
-1.446469963e-12
9.497804794e-06
4.619479903e-12
-3.26961013e-12
9.497805574e-06
9.050959715e-12
-7.355135966e-12
9.497802844e-06
5.776650786e-12
-1.104329867e-11
9.497816693e-06
2.840083353e-11
-3.453742162e-11
9.497810487e-06
2.119498281e-11
-5.648136141e-11
9.497932685e-06
5.6570669e-11
-1.37673806e-10
3.320209739e-10
-4.036371242e-10
9.497862976e-06
-7.393154449e-14
-1.074437732e-12
9.497863058e-06
-1.205659515e-14
-6.705722256e-13
9.497863817e-06
-1.700600202e-13
-9.266713725e-13
9.497863327e-06
5.34346298e-13
-8.891395417e-13
9.497863717e-06
1.19598853e-12
-5.763421169e-13
9.497865094e-06
2.515523236e-12
-1.107691246e-12
9.497865486e-06
1.197275238e-12
-4.663294318e-13
9.497866787e-06
1.669031452e-12
-8.109733256e-13
9.497863005e-06
5.297532853e-13
-2.882648925e-12
9.497868587e-06
5.395809554e-12
-4.703604136e-12
9.497871931e-06
3.386098959e-12
-7.401753549e-12
9.497888561e-06
1.072464791e-11
-1.867494674e-11
9.497898516e-06
1.411548504e-11
-3.169430396e-11
9.497956279e-06
2.040812645e-11
-4.898054876e-11
1.401150553e-10
-1.340239058e-10
9.497843648e-06
3.637961956e-13
9.497842851e-06
-1.142883749e-12
9.497845012e-06
-1.684953674e-12
9.497844014e-06
-2.83755928e-12
9.497844545e-06
-9.350519e-13
9.497842989e-06
-1.347968356e-12
9.497843514e-06
-8.288551702e-13
9.497843275e-06
-1.795016635e-12
9.497843987e-06
-1.090546243e-12
9.497847265e-06
-4.303817866e-12
9.497852706e-06
-5.988555417e-12
9.497864876e-06
-1.102664242e-11
9.497882142e-06
-2.109318125e-11
9.497910607e-06
-2.795319259e-11
-6.811640275e-11
9.497835001e-06
8.189893465e-13
-1.534982112e-12
9.497836942e-06
1.958649935e-12
-1.141813499e-13
9.497834975e-06
-1.541133358e-13
-5.930886561e-13
9.497835117e-06
-5.573283058e-13
9.815125592e-13
9.497834136e-06
-1.376303957e-12
-3.149933115e-13
9.497835966e-06
1.64934634e-14
-5.702785773e-15
9.497835637e-06
-4.346228181e-13
1.196373225e-12
9.497838204e-06
-1.866820801e-12
1.177921931e-12
9.497833305e-06
-4.586628237e-12
1.968709807e-12
9.497835356e-06
-7.488664224e-12
4.342035374e-12
9.49783361e-06
-7.110813311e-12
6.873520471e-12
9.497838847e-06
-2.62103049e-11
1.155423245e-11
9.49783918e-06
-4.160578569e-11
1.988246363e-11
-9.101043109e-11
2.649185775e-11
9.497858414e-06
-6.359078288e-13
-2.98075515e-13
9.49785658e-06
-1.79837374e-12
-1.682455871e-12
9.497857753e-06
-2.189845525e-13
-6.000651082e-13
9.497858341e-06
-1.302966286e-12
-3.583656523e-13
9.497859078e-06
-6.111478728e-13
-3.779688013e-13
9.497859557e-06
-8.881295206e-13
4.745459168e-13
9.497858674e-06
-9.368629948e-13
8.482690255e-13
9.497859103e-06
-3.638974123e-12
1.578095644e-12
9.497856305e-06
-2.85704754e-12
2.581051641e-12
9.497854682e-06
-1.22742465e-11
4.949676996e-12
9.497844799e-06
-1.047028776e-11
8.41073755e-12
9.497844868e-06
-6.169014171e-11
1.742042038e-11
9.497815547e-06
-6.955070409e-11
3.025564769e-11
-2.7233907e-10
4.97584351e-11
9.497844346e-06
-7.043310614e-14
-1.5286943e-12
9.497845407e-06
-6.036601349e-13
-8.352629769e-14
9.497842835e-06
-1.820301415e-12
8.492703876e-14
9.497845582e-06
-5.638482773e-13
2.360497166e-13
9.497844335e-06
8.319595397e-13
6.557327848e-13
9.497844571e-06
8.514976286e-13
1.426344463e-12
9.497842461e-06
-1.571212566e-12
2.524610433e-12
9.497840318e-06
-2.557307416e-12
2.249133283e-12
9.497832316e-06
-2.32783775e-12
3.21545941e-12
9.497821532e-06
-1.379272246e-11
7.223788458e-12
9.497792801e-06
-8.283859177e-12
1.040185111e-11
9.497761222e-06
-9.618932864e-11
3.368201324e-11
9.497637116e-06
-5.495732097e-11
5.64485007e-11
-7.3610502e-10
1.369411321e-10
9.497795719e-06
-3.143521611e-13
-4.815679955e-13
9.497798517e-06
4.490429105e-13
-1.350086153e-13
9.497796537e-06
-4.630076587e-13
1.264585711e-12
9.497798961e-06
9.332198645e-13
7.132324546e-13
9.497796836e-06
-1.701438581e-13
4.312911244e-14
9.497791571e-06
-6.71582614e-13
-7.672187571e-13
9.497796612e-06
1.403365191e-12
1.60639176e-12
9.497790834e-06
-1.142564844e-12
2.701708786e-12
9.497786181e-06
-4.61860536e-12
2.457265971e-12
9.497768856e-06
-1.712847194e-11
9.094039799e-12
9.497763006e-06
-2.285698557e-11
1.040331884e-11
9.497703505e-06
-1.355096794e-10
5.357851772e-11
9.497756856e-06
-2.162921846e-10
5.417628208e-11
-1.694977208e-09
2.521757491e-10
9.497807602e-06
-1.152777357e-12
3.449333492e-14
9.497809109e-06
-1.494316517e-12
-9.201993342e-13
9.497810285e-06
-7.162347405e-13
1.33952479e-13
9.497809793e-06
-5.789431696e-13
1.840107966e-13
9.497811331e-06
-8.375209769e-14
-1.696133805e-14
9.497808898e-06
5.953420444e-13
-6.133963042e-13
9.497806274e-06
1.468319853e-12
-2.14328491e-13
9.497794968e-06
4.348368883e-12
2.567760235e-12
9.497781943e-06
6.14664636e-12
3.807398498e-12
9.497715172e-06
1.868169773e-11
1.770036972e-11
9.497623707e-06
2.510541289e-11
2.276355007e-11
9.49707483e-06
1.405434843e-10
1.386189984e-10
9.496209353e-06
2.18856814e-10
2.170039901e-10
9.489437927e-06
1.696912362e-09
1.696045709e-09
5.222305573e-09
9.497849015e-06
-9.102208264e-13
2.63456987e-13
9.497848959e-06
-2.493381914e-13
4.796845132e-13
9.497850196e-06
6.429028821e-13
-3.016808019e-13
9.497849057e-06
7.764279287e-13
-8.741646699e-13
9.497850076e-06
3.418685352e-13
-3.417264838e-13
9.49784575e-06
1.585412106e-12
-1.265701736e-12
9.497846079e-06
2.812019278e-12
-4.924905971e-13
9.497838929e-06
3.110146811e-12
1.552976691e-13
9.497836789e-06
3.70827407e-12
2.295214829e-12
9.497817744e-06
1.468502108e-11
8.054124258e-12
9.49781298e-06
6.960467001e-12
1.028479737e-11
9.497750661e-06
9.395689045e-11
5.122775499e-11
9.497804122e-06
5.540016883e-11
5.335724816e-11
9.498258335e-06
7.345489539e-10
2.512110171e-10
2.895577659e-09
9.497808551e-06
-5.675256426e-13
8.187651978e-13
9.497810376e-06
5.360147919e-14
-1.37255331e-12
9.497809655e-06
-4.602047774e-13
-9.915253654e-13
9.497809341e-06
-1.681289037e-13
-3.768237593e-13
9.49781199e-06
1.731409957e-12
3.050044418e-13
9.497809361e-06
1.861306552e-12
-1.123211163e-13
9.497806256e-06
1.400546254e-12
-1.228729164e-12
9.497803195e-06
3.487905549e-12
2.910288643e-13
9.497798417e-06
5.83987086e-12
2.864164996e-12
9.497786297e-06
1.356863867e-11
5.746270058e-12
9.497760525e-06
1.308494739e-11
1.058017597e-11
9.497730723e-06