/*--------------------------------*- C++ -*----------------------------------*\
| =========                 |                                                 |
| \\      /  F ield         | OpenFOAM: The Open Source CFD Toolbox           |
|  \\    /   O peration     | Version:  4.x                                   |
|   \\  /    A nd           | Web:      www.OpenFOAM.org                      |
|    \\/     M anipulation  |                                                 |
\*---------------------------------------------------------------------------*/
FoamFile
{
    version     2.0;
    format      ascii;
    class       volScalarField;
    location    "7000";
    object      T;
}
// * * * * * * * * * * * * * * * * * * * * * * * * * * * * * * * * * * * * * //

dimensions      [0 0 0 1 0 0 0];

internalField   nonuniform List<scalar> 
1175
(
1223.150587
1223.150658
1223.150621
1223.150676
1223.150576
1223.150511
1223.150568
1223.150519
1223.150353
1223.150384
1223.150556
1223.150556
1223.150398
1223.150306
1223.150379
1223.148311
1223.148243
1223.148214
1223.148078
1223.148237
1223.14841
1223.14836
1223.148348
1223.148298
1223.148289
1223.148374
1223.148364
1223.148297
1223.14831
1223.148244
1223.148252
1223.148204
1223.148299
1223.148283
1223.148184
1223.148235
1223.148352
1223.148426
1223.148371
1223.14833
1223.148181
1223.148192
1223.148061
1223.148066
1223.148119
1223.148651
1223.148565
1223.148562
1223.148618
1223.148716
1223.148715
1223.148681
1223.148707
1223.148853
1223.148814
1223.148907
1223.148956
1223.149125
1223.149118
1223.149049
1223.152382
1223.152274
1223.152236
1223.152213
1223.152193
1223.152138
1223.152325
1223.152358
1223.152384
1223.152403
1223.15244
1223.152524
1223.152456
1223.152386
1223.152403
1223.153441
1223.153507
1223.153752
1223.153685
1223.153768
1223.15381
1223.153768
1223.153865
1223.153814
1223.153806
1223.153799
1223.153742
1223.15359
1223.153597
1223.153511
1223.148043
1223.14796
1223.147936
1223.14789
1223.14792
1223.147904
1223.147865
1223.147807
1223.147743
1223.14774
1223.147844
1223.147881
1223.147943
1223.148062
1223.148102
1223.150341
1223.150239
1223.150206
1223.150241
1223.150298
1223.150424
1223.150476
1223.150574
1223.150462
1223.150557
1223.150482
1223.150478
1223.150528
1223.150557
1223.150425
1223.153138
1223.153162
1223.153279
1223.153261
1223.153201
1223.153121
1223.153216
1223.153239
1223.153288
1223.153348
1223.153304
1223.153439
1223.1533
1223.153282
1223.153291
1223.147846
1223.14779
1223.147843
1223.147926
1223.148095
1223.147976
1223.148117
1223.148096
1223.148093
1223.148261
1223.148206
1223.14818
1223.148219
1223.148208
1223.153444
1223.153368
1223.153436
1223.15318
1223.153078
1223.153188
1223.153157
1223.153176
1223.153043
1223.153142
1223.153181
1223.153161
1223.153022
1223.15289
1223.1529
1223.154462
1223.154438
1223.154458
1223.154642
1223.154731
1223.154704
1223.154738
1223.15473
1223.15469
1223.154616
1223.15468
1223.154557
1223.154639
1223.154732
1223.154874
1223.148299
1223.148329
1223.148548
1223.148599
1223.148636
1223.148706
1223.148528
1223.148326
1223.148408
1223.148282
1223.148214
1223.148181
1223.148086
1223.148093
1223.148118
1223.1501
1223.15012
1223.150088
1223.150171
1223.150348
1223.150522
1223.1506
1223.150607
1223.150696
1223.150656
1223.150558
1223.150453
1223.150662
1223.150745
1223.150806
1223.14723
1223.147434
1223.14749
1223.147695
1223.147667
1223.147849
1223.147902
1223.147711
1223.147593
1223.147572
1223.147534
1223.147347
1223.147383
1223.147503
1223.147402
1223.156635
1223.156754
1223.156851
1223.156683
1223.156737
1223.156805
1223.156914
1223.156895
1223.156936
1223.15681
1223.156975
1223.156944
1223.156875
1223.156801
1223.156901
1223.144238
1223.144184
1223.144024
1223.143969
1223.144017
1223.143978
1223.143916
1223.14388
1223.144049
1223.14419
1223.144192
1223.144107
1223.144124
1223.144325
1223.144373
1223.15602
1223.155981
1223.155893
1223.155995
1223.155984
1223.155851
1223.155834
1223.15602
1223.155893
1223.155916
1223.155811
1223.155802
1223.155974
1223.156039
1223.15601
1223.149575
1223.149539
1223.149565
1223.149463
1223.149475
1223.149392
1223.149209
1223.149204
1223.148989
1223.148875
1223.148872
1223.148908
1223.14876
1223.148833
1223.14808
1223.148038
1223.148194
1223.148174
1223.148255
1223.148323
1223.148468
1223.148364
1223.14848
1223.148649
1223.148831
1223.148665
1223.148796
1223.148801
1223.148385
1223.148276
1223.148398
1223.148485
1223.14851
1223.148416
1223.148557
1223.148399
1223.148482
1223.148311
1223.148298
1223.148274
1223.148024
1223.148117
1223.148156
1223.152644
1223.15257
1223.152351
1223.152304
1223.152426
1223.15249
1223.152349
1223.152305
1223.152216
1223.152329
1223.152471
1223.152503
1223.152279
1223.152277
1223.152313
1223.144428
1223.144468
1223.144492
1223.144477
1223.144442
1223.144324
1223.144271
1223.144442
1223.14443
1223.144498
1223.144393
1223.1444
1223.144432
1223.14441
1223.144451
1223.149856
1223.14981
1223.149821
1223.149769
1223.149846
1223.149936
1223.149857
1223.149699
1223.149646
1223.14963
1223.149727
1223.14966
1223.149623
1223.149681
1223.149713
1223.148719
1223.148662
1223.148743
1223.14865
1223.148654
1223.148802
1223.148828
1223.148787
1223.148795
1223.14876
1223.148742
1223.148845
1223.148845
1223.148791
1223.148765
1223.156532
1223.156479
1223.156531
1223.156361
1223.156218
1223.156347
1223.15621
1223.156243
1223.156347
1223.156559
1223.156373
1223.156252
1223.156112
1223.156008
1223.155924
1223.145553
1223.145617
1223.145464
1223.145424
1223.145457
1223.145609
1223.145472
1223.145458
1223.145471
1223.145354
1223.145526
1223.145535
1223.145586
1223.145382
1223.145348
1223.151084
1223.151073
1223.150897
1223.150914
1223.150938
1223.151048
1223.151007
1223.151145
1223.151116
1223.151078
1223.151125
1223.151134
1223.151246
1223.15124
1223.154203
1223.154294
1223.154375
1223.154264
1223.154151
1223.154374
1223.154334
1223.154396
1223.154306
1223.154294
1223.15422
1223.154248
1223.154258
1223.15433
1223.147484
1223.14753
1223.147603
1223.14755
1223.14751
1223.147563
1223.147642
1223.147431
1223.147549
1223.147536
1223.147542
1223.147407
1223.147463
1223.147544
1223.151005
1223.150979
1223.150888
1223.150997
1223.15092
1223.150789
1223.150805
1223.150822
1223.150896
1223.151157
1223.151206
1223.151412
1223.151574
1223.151542
1223.151723
1223.155269
1223.155377
1223.155201
1223.155062
1223.155031
1223.15493
1223.154712
1223.154797
1223.154898
1223.154725
1223.15489
1223.154927
1223.154905
1223.154958
1223.152768
1223.146662
1223.146707
1223.146821
1223.14681
1223.14681
1223.146767
1223.146845
1223.146965
1223.146948
1223.147093
1223.146986
1223.147146
1223.147096
1223.147144
1223.147338
1223.153263
1223.153363
1223.153205
1223.153232
1223.153338
1223.153234
1223.153185
1223.15319
1223.153321
1223.153228
1223.15324
1223.153196
1223.153144
1223.153037
1223.153068
1223.146412
1223.146228
1223.146175
1223.146098
1223.146124
1223.146044
1223.14599
1223.145888
1223.145839
1223.146081
1223.146023
1223.146094
1223.146303
1223.146282
1223.146213
1223.148689
1223.148601
1223.148641
1223.148757
1223.148818
1223.14868
1223.148915
1223.148941
1223.148916
1223.148865
1223.148935
1223.148901
1223.148875
1223.148917
1223.148864
1223.149521
1223.149483
1223.149636
1223.149548
1223.149669
1223.149561
1223.149681
1223.149527
1223.149549
1223.149598
1223.149593
1223.14956
1223.149626
1223.149611
1223.146661
1223.146802
1223.1467
1223.146596
1223.146535
1223.146512
1223.146458
1223.14656
1223.146642
1223.146558
1223.146659
1223.146506
1223.146689
1223.14654
1223.148449
1223.148415
1223.1485
1223.1485
1223.148439
1223.1484
1223.148441
1223.148403
1223.148535
1223.14863
1223.148674
1223.148692
1223.148699
1223.14856
1223.154395
1223.154483
1223.154444
1223.154577
1223.154437
1223.154417
1223.154385
1223.154532
1223.15442
1223.154274
1223.154187
1223.154266
1223.154113
1223.154206
1223.153222
1223.153023
1223.152954
1223.15291
1223.152901
1223.152853
1223.152762
1223.152691
1223.152695
1223.152499
1223.152611
1223.152546
1223.152767
1223.153101
1218.707219
1223.147833
1223.147894
1223.147855
1223.147727
1223.147859
1223.147792
1223.147826
1223.14796
1223.147945
1223.147972
1223.147939
1223.147913
1223.147755
1223.147948
1223.145852
1223.15321
1223.153053
1223.152995
1223.153018
1223.152949
1223.152918
1223.152792
1223.15305
1223.152995
1223.153041
1223.153076
1223.153108
1223.152937
1223.153027
1223.153036
1223.152042
1223.152164
1223.152263
1223.152289
1223.152197
1223.152172
1223.152185
1223.152204
1223.151999
1223.151946
1223.152031
1223.151988
1223.152092
1223.152002
1223.152057
1223.155053
1223.155066
1223.155055
1223.155067
1223.154929
1223.155041
1223.155009
1223.154984
1223.155052
1223.155172
1223.155153
1223.155081
1223.154898
1223.154851
1223.155109
1223.150343
1223.150325
1223.150247
1223.150155
1223.150088
1223.149926
1223.149976
1223.150055
1223.150001
1223.150001
1223.149994
1223.149969
1223.149938
1223.150063
1223.147572
1223.147562
1223.147639
1223.147655
1223.147429
1223.147422
1223.147395
1223.147246
1223.147266
1223.147292
1223.147514
1223.147353
1223.147284
1223.147276
1223.153116
1223.153088
1223.153002
1223.152882
1223.152949
1223.153048
1223.153121
1223.152977
1223.153036
1223.153057
1223.153022
1223.153128
1223.15315
1223.153242
1223.146185
1223.146362
1223.146412
1223.146306
1223.146276
1223.146309
1223.14632
1223.146407
1223.146153
1223.146278
1223.146431
1223.146218
1223.146017
1223.14617
1223.153778
1223.153696
1223.153809
1223.153824
1223.153912
1223.153909
1223.153803
1223.153754
1223.153822
1223.153781
1223.153724
1223.153707
1223.153789
1223.153827
1223.15091
1223.150903
1223.151115
1223.151099
1223.150997
1223.151001
1223.150998
1223.151036
1223.151101
1223.151179
1223.151127
1223.151199
1223.15119
1223.151283
1223.146157
1223.146398
1223.146418
1223.14648
1223.14652
1223.146557
1223.146184
1223.146156
1223.146099
1223.146203
1223.146233
1223.146121
1223.146273
1223.146149
1223.145937
1223.15382
1223.153843
1223.153782
1223.153627
1223.153693
1223.1537
1223.153778
1223.153875
1223.153763
1223.153808
1223.15367
1223.153674
1223.153758
1223.153672
1223.153725
1223.153105
1223.153257
1223.153195
1223.15333
1223.153402
1223.153363
1223.153378
1223.15336
1223.153317
1223.153341
1223.153331
1223.153278
1223.15325
1223.153339
1223.153246
1223.150872
1223.150925
1223.150869
1223.150972
1223.151012
1223.150985
1223.15094
1223.15093
1223.15096
1223.151131
1223.150875
1223.150918
1223.150917
1223.151076
1223.15338
1223.153479
1223.153614
1223.153571
1223.153316
1223.153444
1223.15333
1223.153419
1223.153454
1223.153382
1223.153383
1223.153461
1223.153349
1223.153404
1223.148228
1223.148105
1223.148052
1223.14821
1223.148211
1223.148115
1223.14828
1223.148238
1223.148122
1223.148112
1223.148075
1223.14819
1223.148227
1223.148125
1223.156079
1223.156188
1223.156102
1223.156401
1223.156181
1223.156192
1223.15625
1223.156306
1223.156316
1223.156321
1223.156438
1223.156381
1223.156354
1223.156324
1223.144301
1223.144263
1223.144315
1223.144307
1223.144231
1223.144235
1223.144247
1223.144316
1223.144589
1223.144444
1223.144157
1223.144235
1223.144329
1223.144383
1223.150326
1223.15035
1223.150121
1223.150142
1223.150042
1223.150045
1223.150048
1223.150018
1223.14988
1223.149911
1223.149987
1223.149941
1223.149912
1223.150032
1223.154393
1223.154292
1223.1543
1223.154371
1223.154319
1223.15415
1223.154034
1223.154054
1223.1541
1223.154052
1223.153943
1223.154199
1223.15407
1223.153926
1223.146265
1223.146207
1223.146099
1223.146131
1223.14636
1223.146349
1223.146281
1223.146253
1223.146362
1223.146419
1223.146443
1223.146421
1223.146382
1223.1463
1223.146168
1223.147537
1223.147489
1223.147449
1223.147502
1223.147533
1223.147679
1223.147762
1223.147849
1223.147837
1223.147698
1223.147848
1223.147881
1223.14799
1223.147755
1223.14781
1223.148458
1223.148274
1223.148296
1223.14814
1223.14809
1223.148223
1223.148244
1223.148176
1223.148015
1223.14797
1223.147951
1223.147804
1223.148052
1223.148099
1223.147641
1223.147503
1223.147571
1223.147603
1223.147726
1223.147788
1223.147814
1223.14786
1223.147856
1223.147826
1223.147797
1223.147657
1223.147621
1223.147724
1223.150283
1223.150229
1223.150229
1223.150199
1223.150281
1223.150162
1223.150153
1223.150189
1223.150378
1223.150407
1223.150612
1223.150566
1223.150552
1223.150468
1223.151849
1223.151729
1223.151713
1223.151726
1223.151603
1223.151716
1223.151724
1223.151713
1223.151763
1223.151785
1223.151799
1223.151715
1223.151609
1223.151477
1223.152091
1223.152195
1223.152006
1223.151902
1223.151953
1223.151827
1223.151734
1223.151781
1223.151571
1223.151477
1223.15142
1223.151374
1223.15126
1223.151219
1223.144918
1223.145018
1223.145106
1223.145269
1223.145305
1223.145292
1223.145337
1223.145198
1223.145401
1223.145244
1223.145339
1223.145238
1223.145479
1223.145462
1223.149455
1223.149575
1223.149524
1223.149464
1223.149671
1223.149648
1223.149639
1223.149767
1223.149756
1223.149882
1223.150005
1223.149948
1223.14972
1223.149832
1223.145473
1223.145542
1223.145574
1223.145545
1223.145489
1223.145418
1223.14565
1223.14563
1223.145625
1223.145604
1223.14565
1223.145811
1223.145902
1223.145806
1223.151505
1223.151593
1223.151656
1223.151635
1223.151598
1223.151738
1223.15166
1223.151503
1223.151561
1223.151505
1223.151425
1223.151532
1223.151548
1223.151551
1223.151505
1223.151529
1223.151432
1223.151498
1223.151561
1223.151587
1223.151601
1223.151606
1223.151584
1223.151616
1223.151518
1223.151431
1223.151529
1223.151625
1223.151553
1223.148853
1223.148811
1223.149019
1223.148786
1223.148789
1223.148619
1223.148626
1223.148801
1223.148785
1223.1487
1223.148746
1223.148938
1223.148972
1223.149038
1223.152638
1223.152686
1223.152622
1223.152652
1223.15265
1223.152828
1223.152868
1223.152889
1223.152915
1223.152846
1223.152883
1223.152845
1223.152717
1223.152594
1223.140824
1223.140789
1223.140775
1223.140898
1223.141124
1223.141019
1223.141032
1223.141103
1223.140982
1223.140743
1223.140702
1223.1407
1223.140634
1223.140688
1223.144091
1223.144219
1223.144226
1223.144333
1223.144198
1223.144045
1223.144012
1223.144122
1223.144148
1223.144088
1223.144206
1223.144105
1223.144171
1223.144088
1223.149703
1223.149736
1223.149766
1223.149641
1223.149704
1223.149687
1223.14971
1223.149594
1223.149712
1223.149717
1223.149585
1223.149584
1223.149452
1223.149401
1223.149445
1223.149292
1223.149166
1223.149306
1223.149326
1223.149242
1223.149193
1223.149232
1223.149163
1223.149129
1223.149101
1223.149139
1223.149294
1223.149151
1223.148666
1223.148646
1223.148414
1223.148504
1223.14854
1223.148481
1223.14856
1223.148578
1223.148544
1223.148648
1223.148406
1223.148421
1223.148238
1223.1483
1223.148989
1223.149029
1223.14907
1223.149014
1223.149016
1223.149049
1223.149041
1223.149047
1223.1491
1223.148974
1223.148995
1223.14913
1223.149127
1223.149135
)
;

boundaryField
{
    top
    {
        type            zeroGradient;
    }
    bottom
    {
        type            zeroGradient;
    }
    side-walls
    {
        type            zeroGradient;
    }
    inlet
    {
        type            zeroGradient;
    }
    outlet
    {
        type            zeroGradient;
    }
    procBoundary0to1
    {
        type            processor;
        value           nonuniform List<scalar> 
97
(
1223.15044
1223.148293
1223.148225
1223.14823
1223.149031
1223.15243
1223.15361
1223.148052
1223.15058
1223.153269
1223.148293
1223.148293
1223.152762
1223.14873
1223.154748
1223.148318
1223.150974
1223.147477
1223.156736
1223.144476
1223.156108
1223.148842
1223.14873
1223.14873
1223.148173
1223.147652
1223.152432
1223.14451
1223.149803
1223.148679
1223.155912
1223.14512
1223.151343
1223.154116
1223.147652
1223.147652
1223.151893
1223.151941
1223.152706
1223.147531
1223.152868
1223.146103
1223.149052
1223.149542
1223.146585
1223.148796
1223.151941
1223.151941
1218.707935
1223.151644
1223.145779
1223.151182
1223.152995
1223.151875
1223.154997
1223.149995
1223.147136
1223.153313
1223.146307
1223.151644
1223.151182
1223.151182
1223.14606
1223.154166
1223.153785
1223.153263
1223.151112
1223.153529
1223.148198
1223.156356
1223.144429
1223.15003
1223.154166
1223.154166
1223.14615
1223.145906
1223.147755
1223.148087
1223.147629
1223.150407
1223.151532
1223.151397
1223.145462
1223.149855
1223.145906
1223.145906
1223.151495
1223.149178
1223.151441
1223.14928
1223.152652
1223.14069
1223.144048
1223.149455
1223.149225
1223.14825
1223.149178
)
;
    }
}


// ************************************************************************* //
