/*--------------------------------*- C++ -*----------------------------------*\
| =========                 |                                                 |
| \\      /  F ield         | OpenFOAM: The Open Source CFD Toolbox           |
|  \\    /   O peration     | Version:  4.x                                   |
|   \\  /    A nd           | Web:      www.OpenFOAM.org                      |
|    \\/     M anipulation  |                                                 |
\*---------------------------------------------------------------------------*/
FoamFile
{
    version     2.0;
    format      ascii;
    class       volScalarField;
    location    "7000";
    object      X_CO;
}
// * * * * * * * * * * * * * * * * * * * * * * * * * * * * * * * * * * * * * //

dimensions      [0 0 0 0 0 0 0];

internalField   nonuniform List<scalar> 
1175
(
0.3728740611
0.3728740611
0.372874061
0.3728740611
0.3728740609
0.3728740609
0.3728740607
0.3728740598
0.3728740571
0.3728740496
0.3728740276
0.372873969
0.3728738253
0.3728735076
0.3728728819
0.3728740611
0.3728740611
0.372874061
0.372874061
0.3728740611
0.372874061
0.3728740608
0.3728740595
0.3728740557
0.372874044
0.3728740093
0.3728739129
0.3728736692
0.372873118
0.372872032
0.3728740609
0.372874061
0.3728740611
0.372874061
0.372874061
0.3728740608
0.3728740605
0.3728740588
0.3728740529
0.3728740334
0.3728739728
0.3728737973
0.3728733342
0.3728722564
0.3728701266
0.372874061
0.3728740609
0.372874061
0.3728740611
0.3728740612
0.3728740609
0.3728740603
0.3728740578
0.3728740495
0.3728740207
0.3728739274
0.3728736449
0.3728728666
0.3728709916
0.3728672599
0.372874061
0.372874061
0.372874061
0.372874061
0.3728740608
0.3728740608
0.3728740602
0.3728740575
0.3728740478
0.3728740142
0.3728739021
0.3728735526
0.3728725581
0.3728700865
0.3728651048
0.3728740609
0.372874061
0.372874061
0.372874061
0.3728740612
0.372874061
0.3728740603
0.3728740579
0.3728740495
0.3728740207
0.3728739276
0.372873645
0.3728728664
0.3728709915
0.37286726
0.3728740611
0.3728740611
0.372874061
0.372874061
0.372874061
0.3728740609
0.3728740604
0.3728740587
0.3728740527
0.3728740332
0.3728739727
0.3728737973
0.3728733342
0.3728722564
0.3728701267
0.3728740612
0.372874061
0.3728740609
0.372874061
0.3728740611
0.3728740609
0.3728740607
0.3728740596
0.3728740557
0.3728740442
0.3728740091
0.372873913
0.3728736692
0.3728731182
0.372872032
0.372874061
0.372874061
0.372874061
0.3728740611
0.3728740609
0.3728740608
0.3728740607
0.3728740599
0.3728740574
0.3728740497
0.3728740275
0.3728739689
0.3728738253
0.3728735077
0.372872882
0.372874061
0.372874061
0.372874061
0.3728740611
0.3728740612
0.3728740609
0.3728740607
0.3728740595
0.3728740557
0.3728740441
0.3728740093
0.3728739129
0.3728736692
0.3728731181
0.372874061
0.3728740611
0.3728740612
0.3728740611
0.372874061
0.3728740609
0.3728740605
0.3728740589
0.372874053
0.3728740339
0.372873974
0.3728737985
0.3728733315
0.3728722379
0.3728700755
0.3728740609
0.372874061
0.3728740609
0.3728740611
0.372874061
0.3728740609
0.3728740601
0.3728740575
0.3728740476
0.3728740132
0.372873898
0.3728735385
0.3728725209
0.3728700203
0.3728650233
0.3728740609
0.3728740609
0.3728740612
0.3728740611
0.3728740611
0.3728740609
0.3728740597
0.3728740559
0.3728740412
0.3728739864
0.3728737925
0.3728731466
0.372871189
0.3728660716
0.3728555904
0.3728740609
0.372874061
0.3728740609
0.3728740609
0.3728740609
0.3728740607
0.3728740596
0.372874055
0.3728740377
0.3728739709
0.3728737246
0.3728728632
0.3728700904
0.3728623388
0.3728457254
0.3728740609
0.372874061
0.3728740611
0.372874061
0.3728740609
0.3728740608
0.3728740598
0.3728740559
0.372874041
0.3728739864
0.3728737924
0.3728731464
0.372871189
0.3728660719
0.3728555907
0.3728740609
0.372874061
0.3728740611
0.3728740609
0.3728740609
0.3728740608
0.3728740602
0.3728740574
0.3728740475
0.372874013
0.372873898
0.3728735385
0.372872521
0.3728700203
0.3728650235
0.3728740612
0.3728740612
0.3728740612
0.372874061
0.372874061
0.3728740609
0.3728740603
0.3728740587
0.3728740531
0.3728740341
0.3728739739
0.3728737984
0.3728733315
0.3728722381
0.3728700757
0.372874061
0.372874061
0.372874061
0.372874061
0.372874061
0.3728740608
0.3728740605
0.3728740595
0.3728740557
0.372874044
0.3728740091
0.3728739128
0.3728736693
0.3728731182
0.372872032
0.3728740611
0.3728740612
0.3728740611
0.372874061
0.372874061
0.3728740608
0.3728740604
0.3728740587
0.3728740526
0.3728740332
0.3728739727
0.3728737972
0.372873334
0.3728722562
0.3728740608
0.3728740609
0.372874061
0.372874061
0.3728740609
0.3728740608
0.3728740601
0.3728740572
0.3728740474
0.3728740131
0.372873898
0.3728735384
0.3728725209
0.3728700201
0.372874061
0.3728740609
0.372874061
0.3728740611
0.3728740609
0.3728740606
0.3728740597
0.372874055
0.3728740371
0.372873969
0.3728737227
0.3728728857
0.3728703025
0.3728634569
0.372849377
0.372874061
0.3728740611
0.3728740609
0.3728740609
0.3728740609
0.3728740605
0.3728740589
0.3728740517
0.3728740228
0.372873906
0.3728734483
0.3728717443
0.3728659263
0.3728488325
0.3728113145
0.372874061
0.372874061
0.3728740609
0.3728740609
0.3728740609
0.3728740604
0.3728740584
0.3728740503
0.3728740147
0.3728738646
0.3728732409
0.3728707332
0.3728612576
0.3728296416
0.3727509008
0.372874061
0.372874061
0.372874061
0.372874061
0.372874061
0.3728740606
0.372874059
0.3728740518
0.3728740229
0.3728739061
0.3728734482
0.3728717443
0.3728659265
0.3728488332
0.3728113159
0.3728740611
0.372874061
0.3728740611
0.372874061
0.3728740608
0.3728740608
0.3728740597
0.372874055
0.372874037
0.3728739692
0.3728737229
0.372872886
0.3728703028
0.3728634574
0.3728493785
0.3728740611
0.3728740612
0.3728740612
0.3728740609
0.372874061
0.3728740609
0.37287406
0.3728740573
0.3728740477
0.3728740133
0.372873898
0.3728735386
0.3728725209
0.3728700202
0.3728650232
0.372874061
0.372874061
0.372874061
0.372874061
0.3728740609
0.3728740609
0.3728740603
0.3728740587
0.3728740528
0.3728740333
0.3728739728
0.3728737973
0.3728733344
0.3728722564
0.3728701268
0.3728740612
0.3728740612
0.372874061
0.372874061
0.372874061
0.3728740609
0.3728740602
0.3728740578
0.3728740495
0.3728740207
0.3728739274
0.3728736448
0.3728728662
0.3728709911
0.3728740611
0.3728740612
0.3728740612
0.372874061
0.3728740608
0.3728740608
0.3728740597
0.3728740558
0.372874041
0.3728739865
0.3728737924
0.3728731465
0.372871189
0.3728660713
0.372874061
0.3728740611
0.3728740611
0.372874061
0.3728740608
0.3728740605
0.3728740588
0.3728740518
0.3728740231
0.3728739062
0.3728734481
0.372871744
0.3728659261
0.3728488312
0.372874061
0.3728740608
0.3728740609
0.3728740609
0.3728740608
0.3728740602
0.3728740576
0.3728740464
0.3728739973
0.3728737803
0.372872837
0.3728688659
0.3728531666
0.3727986186
0.3726590763
0.372874061
0.3728740611
0.3728740611
0.3728740609
0.3728740609
0.3728740602
0.3728740571
0.3728740437
0.3728739808
0.3728736853
0.3728722863
0.372865654
0.3728347529
0.3726999267
0.372231553
0.3728740611
0.3728740611
0.3728740611
0.3728740611
0.3728740609
0.3728740602
0.3728740579
0.3728740467
0.3728739976
0.3728737805
0.3728728371
0.3728688661
0.3728531672
0.3727986211
0.3726590863
0.3728740612
0.3728740612
0.3728740611
0.372874061
0.372874061
0.3728740605
0.3728740587
0.3728740519
0.3728740231
0.3728739063
0.3728734483
0.3728717443
0.3728659265
0.3728488329
0.3728113158
0.3728740612
0.3728740612
0.3728740612
0.3728740611
0.3728740611
0.3728740607
0.3728740597
0.3728740557
0.3728740411
0.3728739865
0.3728737926
0.3728731469
0.3728711894
0.3728660719
0.3728555908
0.3728740612
0.3728740612
0.3728740611
0.3728740612
0.3728740611
0.3728740607
0.3728740602
0.3728740579
0.3728740494
0.3728740207
0.3728739276
0.3728736448
0.3728728664
0.3728709915
0.3728672598
0.3728740611
0.3728740611
0.3728740611
0.372874061
0.372874061
0.3728740606
0.3728740601
0.3728740573
0.3728740478
0.372874014
0.372873902
0.3728735525
0.372872558
0.3728700862
0.372874061
0.3728740612
0.372874061
0.3728740609
0.3728740609
0.3728740606
0.3728740593
0.3728740551
0.3728740376
0.3728739708
0.3728737246
0.372872863
0.3728700902
0.3728623376
0.3728740611
0.3728740611
0.3728740611
0.3728740609
0.3728740608
0.3728740605
0.3728740586
0.3728740501
0.3728740147
0.3728738646
0.3728732411
0.3728707329
0.3728612566
0.372829638
0.3728740611
0.3728740611
0.3728740611
0.3728740611
0.3728740609
0.3728740602
0.3728740571
0.3728740438
0.3728739808
0.3728736852
0.3728722863
0.3728656538
0.3728347513
0.3726999162
0.3728740613
0.3728740611
0.3728740611
0.3728740611
0.3728740609
0.3728740602
0.3728740566
0.3728740397
0.3728739566
0.3728735326
0.372871266
0.3728584373
0.3727808265
0.3722755658
0.3687126244
0.3728740611
0.3728740611
0.3728740611
0.3728740609
0.3728740609
0.3728740602
0.3728740572
0.3728740439
0.3728739809
0.3728736854
0.3728722864
0.3728656541
0.3728347527
0.3726999262
0.3722315536
0.3728740612
0.3728740611
0.3728740612
0.3728740612
0.3728740609
0.3728740605
0.3728740585
0.3728740503
0.3728740147
0.3728738648
0.3728732411
0.3728707333
0.3728612574
0.3728296411
0.3727509006
0.3728740611
0.3728740611
0.3728740613
0.3728740612
0.372874061
0.3728740607
0.3728740596
0.3728740552
0.3728740376
0.3728739707
0.3728737247
0.3728728632
0.3728700905
0.3728623386
0.3728457252
0.3728740611
0.3728740611
0.372874061
0.3728740611
0.372874061
0.3728740609
0.3728740602
0.3728740574
0.3728740478
0.3728740142
0.3728739022
0.3728735527
0.3728725579
0.3728700864
0.3728651049
0.3728740612
0.3728740612
0.3728740612
0.3728740611
0.372874061
0.3728740607
0.3728740601
0.3728740577
0.3728740493
0.3728740206
0.3728739273
0.3728736447
0.3728728662
0.3728709912
0.372874061
0.3728740611
0.372874061
0.3728740609
0.3728740607
0.3728740606
0.3728740596
0.3728740557
0.372874041
0.3728739863
0.3728737926
0.3728731467
0.3728711889
0.3728660712
0.372874061
0.372874061
0.372874061
0.372874061
0.3728740608
0.3728740606
0.3728740589
0.3728740518
0.3728740229
0.3728739061
0.3728734482
0.3728717441
0.3728659259
0.3728488312
0.372874061
0.3728740612
0.3728740612
0.372874061
0.3728740609
0.3728740603
0.3728740578
0.3728740468
0.3728739973
0.3728737803
0.3728728373
0.3728688657
0.3728531659
0.3727986159
0.3728740611
0.372874061
0.3728740611
0.372874061
0.3728740609
0.3728740603
0.3728740572
0.3728740437
0.3728739807
0.3728736853
0.3728722863
0.3728656538
0.3728347511
0.3726999152
0.3728740611
0.3728740612
0.3728740613
0.3728740612
0.372874061
0.3728740603
0.3728740578
0.3728740468
0.3728739975
0.3728737804
0.372872837
0.3728688658
0.3728531662
0.3727986168
0.3728740609
0.3728740611
0.3728740611
0.3728740612
0.372874061
0.3728740607
0.3728740587
0.3728740518
0.3728740229
0.3728739062
0.3728734483
0.3728717442
0.3728659264
0.3728488321
0.3728113126
0.3728740611
0.3728740611
0.3728740611
0.3728740609
0.372874061
0.3728740609
0.3728740599
0.372874056
0.3728740411
0.3728739865
0.3728737925
0.3728731467
0.3728711892
0.3728660715
0.3728555902
0.3728740608
0.3728740609
0.3728740609
0.372874061
0.3728740611
0.3728740609
0.3728740603
0.3728740577
0.3728740494
0.3728740208
0.3728739275
0.3728736449
0.3728728663
0.3728709914
0.3728672598
0.372874061
0.3728740611
0.372874061
0.3728740612
0.372874061
0.3728740609
0.3728740603
0.3728740585
0.3728740527
0.3728740333
0.3728739725
0.3728737971
0.372873334
0.3728722561
0.3728740611
0.3728740611
0.3728740612
0.3728740612
0.3728740608
0.3728740608
0.37287406
0.3728740575
0.3728740476
0.372874013
0.3728738979
0.3728735385
0.3728725209
0.37287002
0.3728740612
0.3728740611
0.372874061
0.3728740611
0.3728740609
0.3728740606
0.3728740595
0.3728740549
0.3728740369
0.3728739689
0.3728737227
0.3728728857
0.3728703024
0.3728634564
0.3728740611
0.3728740611
0.3728740611
0.3728740612
0.3728740609
0.3728740605
0.3728740588
0.3728740517
0.3728740228
0.3728739061
0.3728734482
0.372871744
0.3728659258
0.3728488311
0.3728740611
0.372874061
0.3728740611
0.372874061
0.372874061
0.3728740604
0.3728740585
0.3728740503
0.372874015
0.3728738647
0.3728732407
0.3728707329
0.3728612567
0.3728296383
0.3728740611
0.3728740612
0.3728740612
0.372874061
0.3728740609
0.3728740604
0.3728740588
0.3728740518
0.372874023
0.3728739062
0.3728734483
0.3728717443
0.3728659261
0.3728488316
0.3728740611
0.3728740611
0.3728740611
0.3728740611
0.3728740611
0.3728740606
0.3728740595
0.3728740548
0.3728740369
0.3728739689
0.3728737228
0.372872886
0.3728703025
0.3728634566
0.3728740611
0.372874061
0.3728740609
0.3728740609
0.3728740612
0.3728740608
0.3728740601
0.3728740573
0.3728740476
0.3728740132
0.3728738981
0.3728735385
0.3728725209
0.3728700201
0.3728650228
0.372874061
0.3728740609
0.3728740608
0.3728740608
0.372874061
0.3728740609
0.3728740605
0.3728740587
0.3728740528
0.3728740332
0.3728739727
0.3728737973
0.3728733342
0.3728722561
0.3728701266
0.3728740611
0.3728740609
0.3728740609
0.3728740609
0.3728740609
0.372874061
0.3728740607
0.3728740595
0.3728740557
0.3728740439
0.372874009
0.3728739127
0.3728736691
0.372873118
0.3728740609
0.3728740609
0.3728740609
0.372874061
0.3728740609
0.3728740608
0.3728740604
0.3728740588
0.372874053
0.3728740338
0.3728739739
0.3728737982
0.3728733313
0.3728722379
0.372874061
0.372874061
0.372874061
0.372874061
0.3728740611
0.3728740608
0.37287406
0.3728740574
0.3728740476
0.372874013
0.372873898
0.3728735386
0.3728725209
0.37287002
0.3728740612
0.3728740611
0.372874061
0.372874061
0.3728740609
0.3728740606
0.3728740598
0.372874056
0.3728740412
0.3728739864
0.3728737925
0.3728731465
0.3728711888
0.3728660711
0.3728740611
0.3728740612
0.372874061
0.372874061
0.3728740611
0.3728740605
0.3728740595
0.3728740552
0.3728740377
0.3728739708
0.3728737247
0.3728728632
0.3728700901
0.3728623377
0.3728740609
0.372874061
0.372874061
0.3728740611
0.3728740611
0.3728740607
0.3728740598
0.3728740557
0.3728740412
0.3728739864
0.3728737925
0.3728731464
0.372871189
0.3728660713
0.3728740611
0.3728740611
0.372874061
0.3728740609
0.3728740611
0.3728740607
0.3728740601
0.3728740575
0.3728740476
0.3728740131
0.3728738979
0.3728735384
0.3728725207
0.37287002
0.372874061
0.3728740611
0.372874061
0.372874061
0.3728740609
0.3728740608
0.3728740605
0.3728740587
0.3728740528
0.3728740339
0.3728739739
0.3728737985
0.3728733315
0.3728722378
0.372874061
0.372874061
0.372874061
0.372874061
0.3728740609
0.3728740611
0.3728740608
0.3728740595
0.3728740558
0.3728740441
0.3728740092
0.3728739129
0.3728736692
0.372873118
0.3728720319
0.372874061
0.372874061
0.372874061
0.3728740609
0.3728740609
0.3728740609
0.3728740606
0.3728740599
0.3728740573
0.3728740494
0.3728740273
0.3728739688
0.3728738254
0.3728735077
0.3728740611
0.3728740611
0.3728740612
0.3728740609
0.372874061
0.3728740608
0.3728740605
0.3728740595
0.3728740556
0.3728740439
0.372874009
0.3728739129
0.3728736691
0.372873118
0.372874061
0.372874061
0.3728740609
0.372874061
0.372874061
0.3728740609
0.3728740605
0.3728740588
0.3728740528
0.3728740333
0.3728739727
0.3728737973
0.372873334
0.3728722561
0.3728740611
0.372874061
0.3728740609
0.3728740612
0.3728740612
0.3728740609
0.3728740603
0.3728740581
0.3728740496
0.3728740206
0.3728739273
0.3728736449
0.3728728662
0.3728709912
0.3728740612
0.3728740613
0.3728740613
0.3728740614
0.3728740612
0.3728740609
0.3728740601
0.3728740576
0.3728740478
0.3728740142
0.3728739022
0.3728735526
0.372872558
0.3728700862
0.3728740612
0.3728740612
0.3728740611
0.372874061
0.3728740611
0.3728740609
0.3728740603
0.3728740578
0.3728740495
0.3728740207
0.3728739274
0.3728736448
0.3728728662
0.3728709911
0.3728740613
0.3728740611
0.3728740611
0.3728740612
0.3728740611
0.3728740608
0.3728740603
0.3728740587
0.3728740528
0.3728740333
0.3728739728
0.3728737973
0.3728733343
0.3728722562
0.3728740612
0.3728740611
0.372874061
0.372874061
0.372874061
0.3728740609
0.3728740607
0.3728740596
0.3728740559
0.3728740442
0.3728740091
0.3728739129
0.372873669
0.372873118
0.372874061
0.372874061
0.372874061
0.372874061
0.372874061
0.372874061
0.3728740607
0.3728740599
0.3728740573
0.3728740494
0.3728740274
0.3728739689
0.3728738253
0.3728735077
)
;

boundaryField
{
    top
    {
        type            calculated;
        value           nonuniform List<scalar> 
134
(
0.372874061
0.372874061
0.372874061
0.3728740612
0.3728740611
0.3728740608
0.372874061
0.372874061
0.372874061
0.372874061
0.372874061
0.372874061
0.3728740612
0.3728740611
0.3728740609
0.3728740609
0.372874061
0.372874061
0.372874061
0.372874061
0.372874061
0.3728740611
0.372874061
0.3728740609
0.3728740608
0.372874061
0.372874061
0.3728740611
0.372874061
0.372874061
0.3728740612
0.3728740611
0.372874061
0.3728740608
0.372874061
0.372874061
0.3728740609
0.372874061
0.3728740609
0.3728740611
0.372874061
0.3728740611
0.372874061
0.3728740609
0.372874061
0.3728740608
0.3728740608
0.3728740609
0.3728740607
0.3728740609
0.3728740609
0.3728740609
0.3728740611
0.372874061
0.3728740607
0.3728740605
0.3728740603
0.3728740602
0.3728740602
0.3728740603
0.3728740605
0.3728740608
0.3728740607
0.3728740599
0.3728740595
0.3728740587
0.3728740579
0.3728740574
0.3728740577
0.3728740587
0.3728740595
0.3728740599
0.3728740574
0.3728740557
0.3728740528
0.3728740494
0.3728740478
0.3728740494
0.3728740528
0.3728740558
0.3728740573
0.3728740497
0.372874044
0.3728740333
0.3728740207
0.3728740142
0.3728740208
0.3728740332
0.3728740441
0.3728740494
0.3728740275
0.3728740091
0.3728739728
0.3728739276
0.3728739022
0.3728739275
0.3728739727
0.3728740092
0.3728740274
0.3728739689
0.3728739128
0.3728737973
0.3728736448
0.3728735527
0.3728736449
0.3728737973
0.3728739129
0.3728739689
0.3728738253
0.3728736693
0.3728733344
0.3728728664
0.3728725579
0.3728728663
0.3728733342
0.3728736692
0.3728738253
0.3728735077
0.3728731182
0.3728722564
0.3728709915
0.3728700864
0.3728709914
0.3728722561
0.372873118
0.3728735077
0.372872882
0.372872032
0.3728701268
0.3728672598
0.3728651049
0.3728672598
0.3728701266
0.3728720319
)
;
    }
    bottom
    {
        type            calculated;
        value           nonuniform List<scalar> 
127
(
0.3728740611
0.372874061
0.3728740611
0.3728740612
0.3728740611
0.3728740612
0.372874061
0.3728740611
0.372874061
0.3728740611
0.372874061
0.3728740612
0.3728740612
0.3728740611
0.3728740612
0.3728740611
0.3728740609
0.372874061
0.372874061
0.372874061
0.3728740611
0.372874061
0.3728740611
0.3728740612
0.372874061
0.3728740609
0.372874061
0.3728740611
0.3728740611
0.372874061
0.372874061
0.372874061
0.3728740611
0.3728740612
0.3728740609
0.3728740609
0.3728740609
0.3728740612
0.372874061
0.372874061
0.372874061
0.372874061
0.372874061
0.3728740609
0.3728740609
0.3728740609
0.3728740609
0.3728740608
0.3728740609
0.3728740606
0.3728740607
0.3728740609
0.372874061
0.3728740609
0.3728740607
0.3728740607
0.3728740604
0.3728740602
0.3728740601
0.3728740601
0.3728740603
0.3728740607
0.3728740606
0.3728740598
0.3728740595
0.3728740587
0.3728740578
0.3728740573
0.3728740577
0.3728740585
0.3728740595
0.3728740599
0.3728740571
0.3728740557
0.3728740526
0.3728740495
0.3728740478
0.3728740493
0.3728740527
0.3728740557
0.3728740573
0.3728740496
0.3728740441
0.3728740332
0.3728740207
0.372874014
0.3728740206
0.3728740333
0.3728740439
0.3728740494
0.3728740276
0.3728740093
0.3728739727
0.3728739274
0.372873902
0.3728739273
0.3728739725
0.372874009
0.3728740273
0.372873969
0.3728739129
0.3728737972
0.3728736448
0.3728735525
0.3728736447
0.3728737971
0.3728739127
0.3728739688
0.3728738253
0.3728736692
0.372873334
0.3728728662
0.372872558
0.3728728662
0.372873334
0.3728736691
0.3728738254
0.3728735076
0.3728731181
0.3728722562
0.3728709911
0.3728700862
0.3728709912
0.3728722561
0.372873118
0.3728735077
0.3728728819
)
;
    }
    side-walls
    {
        type            calculated;
        value           nonuniform List<scalar> 
261
(
0.3728740611
0.3728740611
0.3728740609
0.372874061
0.372874061
0.3728740609
0.3728740611
0.3728740612
0.372874061
0.3728740611
0.3728740611
0.372874061
0.3728740609
0.372874061
0.372874061
0.3728740611
0.372874061
0.372874061
0.372874061
0.372874061
0.3728740611
0.372874061
0.372874061
0.372874061
0.372874061
0.3728740609
0.372874061
0.3728740611
0.372874061
0.372874061
0.3728740611
0.372874061
0.372874061
0.372874061
0.372874061
0.3728740611
0.3728740609
0.3728740611
0.372874061
0.3728740612
0.3728740608
0.3728740612
0.372874061
0.3728740611
0.3728740609
0.3728740609
0.372874061
0.3728740608
0.3728740609
0.3728740608
0.372874061
0.3728740609
0.3728740609
0.3728740608
0.3728740607
0.3728740608
0.3728740605
0.3728740603
0.3728740602
0.3728740603
0.3728740604
0.3728740607
0.3728740607
0.3728740598
0.3728740595
0.3728740588
0.3728740578
0.3728740575
0.3728740579
0.3728740587
0.3728740596
0.3728740599
0.3728740571
0.3728740557
0.3728740529
0.3728740495
0.3728740478
0.3728740495
0.3728740527
0.3728740557
0.3728740574
0.3728740496
0.372874044
0.3728740334
0.3728740207
0.3728740142
0.3728740207
0.3728740332
0.3728740442
0.3728740497
0.3728740276
0.3728740093
0.3728739728
0.3728739274
0.3728739021
0.3728739276
0.3728739727
0.3728740091
0.3728740275
0.372873969
0.3728739129
0.3728737973
0.3728736449
0.3728735526
0.372873645
0.3728737973
0.372873913
0.3728739689
0.3728738253
0.3728736692
0.3728733342
0.3728728666
0.3728725581
0.3728728664
0.3728733342
0.3728736692
0.3728738253
0.3728735076
0.372873118
0.3728722564
0.3728709916
0.3728700865
0.3728709915
0.3728722564
0.3728731182
0.3728735077
0.3728728819
0.372872032
0.3728701266
0.3728672599
0.3728651048
0.37286726
0.3728701267
0.372872032
0.372872882
0.372874061
0.3728740611
0.372874061
0.3728740611
0.3728740612
0.3728740612
0.3728740613
0.3728740612
0.372874061
0.372874061
0.3728740611
0.372874061
0.372874061
0.3728740613
0.3728740612
0.3728740611
0.3728740611
0.372874061
0.372874061
0.3728740612
0.3728740609
0.3728740609
0.3728740613
0.3728740611
0.3728740611
0.372874061
0.372874061
0.3728740609
0.3728740609
0.372874061
0.3728740612
0.3728740614
0.372874061
0.3728740612
0.372874061
0.372874061
0.3728740609
0.372874061
0.372874061
0.3728740612
0.3728740612
0.3728740611
0.3728740611
0.372874061
0.372874061
0.3728740609
0.3728740608
0.3728740609
0.3728740609
0.3728740609
0.3728740609
0.3728740608
0.3728740609
0.372874061
0.3728740606
0.3728740605
0.3728740605
0.3728740603
0.3728740601
0.3728740603
0.3728740603
0.3728740607
0.3728740607
0.3728740599
0.3728740595
0.3728740588
0.3728740581
0.3728740576
0.3728740578
0.3728740587
0.3728740596
0.3728740599
0.3728740573
0.3728740556
0.3728740528
0.3728740496
0.3728740478
0.3728740495
0.3728740528
0.3728740559
0.3728740573
0.3728740494
0.3728740439
0.3728740333
0.3728740206
0.3728740142
0.3728740207
0.3728740333
0.3728740442
0.3728740494
0.3728740273
0.372874009
0.3728739727
0.3728739273
0.3728739022
0.3728739274
0.3728739728
0.3728740091
0.3728740274
0.3728739688
0.3728739129
0.3728737973
0.3728736449
0.3728735526
0.3728736448
0.3728737973
0.3728739129
0.3728739689
0.3728738254
0.3728736691
0.372873334
0.3728728662
0.372872558
0.3728728662
0.3728733343
0.372873669
0.3728738253
0.3728735077
0.372873118
0.3728722561
0.3728709912
0.3728700862
0.3728709911
0.3728722562
0.372873118
0.3728735077
)
;
    }
    inlet
    {
        type            calculated;
        value           nonuniform List<scalar> 
81
(
0.3728740611
0.3728740611
0.3728740609
0.372874061
0.372874061
0.3728740609
0.3728740611
0.3728740612
0.372874061
0.372874061
0.372874061
0.3728740609
0.3728740609
0.3728740609
0.3728740609
0.3728740609
0.3728740612
0.372874061
0.3728740611
0.3728740608
0.372874061
0.372874061
0.372874061
0.372874061
0.3728740611
0.3728740611
0.372874061
0.3728740612
0.3728740611
0.372874061
0.372874061
0.372874061
0.3728740611
0.3728740612
0.3728740612
0.3728740612
0.3728740611
0.372874061
0.3728740611
0.3728740611
0.3728740613
0.3728740611
0.3728740612
0.3728740611
0.3728740611
0.3728740612
0.372874061
0.372874061
0.372874061
0.3728740611
0.3728740611
0.3728740609
0.3728740611
0.3728740608
0.372874061
0.3728740611
0.3728740612
0.3728740611
0.3728740611
0.3728740611
0.3728740611
0.3728740611
0.372874061
0.3728740611
0.3728740609
0.372874061
0.3728740612
0.3728740611
0.3728740609
0.3728740611
0.372874061
0.372874061
0.372874061
0.3728740611
0.372874061
0.3728740611
0.3728740612
0.3728740612
0.3728740613
0.3728740612
0.372874061
)
;
    }
    outlet
    {
        type            calculated;
        value           nonuniform 0();
    }
    procBoundary0to1
    {
        type            processor;
        value           nonuniform List<scalar> 
97
(
0.3728717912
0.372872032
0.3728701928
0.3728666572
0.372861468
0.3728577556
0.372861468
0.3728666572
0.372870193
0.3728717913
0.372872032
0.372872032
0.3728665822
0.3728650228
0.3728574836
0.372841283
0.3728259673
0.3728412833
0.3728574837
0.3728665822
0.372870193
0.3728701264
0.3728650228
0.3728650228
0.3728305556
0.372811312
0.3727705449
0.3726917851
0.3727705465
0.3728305566
0.3728574836
0.3728666572
0.3728672596
0.3728555899
0.372811312
0.372811312
0.3725644349
0.3722315252
0.3721590449
0.3725644399
0.3727705462
0.3728412833
0.372861468
0.3728651045
0.3728457244
0.3727508962
0.3722315252
0.3722315252
0.3704092241
0.3722315264
0.3721590464
0.3726590782
0.3726917851
0.3728259671
0.3728577554
0.3728672596
0.37285559
0.3728113137
0.3726590795
0.3722315264
0.3726590782
0.3726590782
0.3727705454
0.3728493772
0.3728412829
0.3728614677
0.3728701265
0.3728650232
0.3728493776
0.3728113138
0.3727508967
0.3728113143
0.3728493772
0.3728493772
0.3728574834
0.3728700755
0.3728666571
0.372872032
0.3728700755
0.3728650231
0.37285559
0.3728457246
0.3728555903
0.3728650231
0.3728700755
0.3728700755
0.3728701928
0.3728728819
0.372872882
0.3728720321
0.3728701265
0.3728672597
0.3728651047
0.3728672597
0.3728701266
0.372872032
0.3728728819
)
;
    }
}


// ************************************************************************* //
