/*--------------------------------*- C++ -*----------------------------------*\
| =========                 |                                                 |
| \\      /  F ield         | OpenFOAM: The Open Source CFD Toolbox           |
|  \\    /   O peration     | Version:  4.x                                   |
|   \\  /    A nd           | Web:      www.OpenFOAM.org                      |
|    \\/     M anipulation  |                                                 |
\*---------------------------------------------------------------------------*/
FoamFile
{
    version     2.0;
    format      ascii;
    class       volScalarField;
    location    "10000";
    object      CO;
}
// * * * * * * * * * * * * * * * * * * * * * * * * * * * * * * * * * * * * * //

dimensions      [0 0 0 0 0 0 0];

internalField   nonuniform List<scalar> 
1174
(
0.3315813547
0.3315803357
0.331578899
0.3315770281
0.3315747441
0.3315720986
0.3315691631
0.3315660182
0.3315627454
0.331559421
0.3315561153
0.3315529027
0.3315499147
0.3315475703
0.3315803994
0.3315787693
0.3315766022
0.3315739498
0.331570905
0.3315675792
0.3315640851
0.3315605249
0.3315569844
0.3315535315
0.3315502196
0.3315471002
0.3315442722
0.3315420926
0.3315782918
0.3315754163
0.3315718648
0.3315678394
0.3315635575
0.3315592134
0.3315549602
0.3315509061
0.3315471195
0.3315436368
0.3315404729
0.3315376364
0.3315351715
0.3315333286
0.3315752085
0.3315707485
0.3315656378
0.3315602519
0.3315549023
0.3315498112
0.3315451166
0.3315408883
0.3315371472
0.3315338818
0.3315310625
0.3315286557
0.331526656
0.3315252113
0.3315730111
0.3315676832
0.3315618817
0.3315560164
0.3315503823
0.3315451663
0.3315404692
0.3315363285
0.3315327388
0.3315296686
0.3315270722
0.3315249028
0.3315231379
0.3315218846
0.3315752085
0.3315707486
0.3315656379
0.3315602521
0.3315549024
0.3315498114
0.3315451167
0.3315408884
0.3315371474
0.331533882
0.3315310626
0.3315286559
0.3315266562
0.3315252115
0.3315782919
0.3315754164
0.3315718649
0.3315678395
0.3315635576
0.3315592136
0.3315549604
0.3315509063
0.3315471197
0.3315436371
0.3315404732
0.3315376366
0.3315351717
0.3315333289
0.3315803995
0.3315787694
0.3315766023
0.3315739499
0.3315709051
0.3315675793
0.3315640853
0.3315605251
0.3315569846
0.3315535317
0.3315502198
0.3315471004
0.3315442725
0.3315420929
0.3315813547
0.3315803357
0.3315788991
0.3315770282
0.3315747442
0.3315720987
0.3315691632
0.3315660184
0.3315627456
0.3315594212
0.3315561155
0.331552903
0.331549915
0.3315475706
0.3315815019
0.3315803994
0.3315787694
0.3315766022
0.3315739499
0.331570905
0.3315675792
0.3315640851
0.331560525
0.3315569844
0.3315535315
0.3315502196
0.3315471002
0.3315442723
0.3315420926
0.3315782497
0.3315753942
0.3315719184
0.3315680329
0.3315639478
0.3315598394
0.3315558381
0.3315520304
0.3315484672
0.3315451727
0.3315421555
0.3315394226
0.3315370217
0.3315352103
0.3315728484
0.3315673135
0.3315613098
0.3315553463
0.3315497695
0.3315447661
0.3315404023
0.3315366661
0.3315335039
0.3315308439
0.3315286128
0.3315267472
0.3315252167
0.3315241178
0.3315632654
0.3315540811
0.3315453687
0.331537777
0.3315315277
0.3315265848
0.3315227889
0.3315199405
0.3315178454
0.3315163334
0.3315152643
0.3315145271
0.3315140372
0.3315137475
0.3315542425
0.3315432072
0.3315338817
0.3315265034
0.3315209177
0.3315168328
0.3315139406
0.3315119659
0.3315106809
0.3315099049
0.3315094976
0.3315093502
0.3315093721
0.3315094656
0.3315632655
0.3315540812
0.3315453688
0.3315377771
0.3315315278
0.331526585
0.331522789
0.3315199407
0.3315178456
0.3315163335
0.3315152645
0.3315145272
0.3315140374
0.3315137476
0.3315728485
0.3315673136
0.3315613099
0.3315553465
0.3315497696
0.3315447663
0.3315404024
0.3315366663
0.3315335041
0.3315308442
0.3315286131
0.3315267475
0.331525217
0.3315241181
0.3315782498
0.3315753943
0.3315719185
0.331568033
0.3315639479
0.3315598395
0.3315558383
0.3315520307
0.3315484674
0.331545173
0.3315421558
0.3315394229
0.331537022
0.3315352106
0.3315803995
0.3315787694
0.3315766023
0.3315739499
0.3315709051
0.3315675793
0.3315640853
0.3315605251
0.3315569846
0.3315535317
0.3315502199
0.3315471005
0.3315442726
0.331542093
0.331580363
0.3315782919
0.3315754164
0.3315718649
0.3315678395
0.3315635576
0.3315592135
0.3315549603
0.3315509063
0.3315471196
0.3315436369
0.331540473
0.3315376365
0.3315351716
0.3315333288
0.3315773266
0.3315728484
0.3315673136
0.3315613099
0.3315553464
0.3315497696
0.3315447662
0.3315404023
0.3315366662
0.331533504
0.331530844
0.3315286129
0.3315267473
0.3315252168
0.3315241179
0.3315569207
0.3315452772
0.3315347629
0.3315261678
0.3315196464
0.3315150004
0.3315118895
0.331509955
0.3315088788
0.331508403
0.3315083298
0.331508511
0.3315088275
0.331509141
0.3315215571
0.3315019515
0.3314884876
0.3314805898
0.331476928
0.3314761712
0.33147725
0.3314793922
0.331482076
0.3314849653
0.3314878509
0.3314905992
0.3314930823
0.3314949816
0.3314753336
0.3314559002
0.3314476441
0.33144629
0.331448796
0.3314532531
0.3314585335
0.3314639979
0.3314692991
0.3314742609
0.3314788022
0.3314828837
0.3314864309
0.3314890811
0.3315215576
0.331501952
0.3314884881
0.3314805902
0.3314769284
0.3314761716
0.3314772503
0.3314793925
0.3314820763
0.3314849656
0.3314878512
0.3314905994
0.3314930825
0.3314949819
0.3315569211
0.3315452776
0.3315347632
0.3315261681
0.3315196467
0.3315150007
0.3315118898
0.3315099554
0.3315088792
0.3315084034
0.3315083302
0.3315085114
0.3315088279
0.3315091414
0.3315728485
0.3315673137
0.33156131
0.3315553466
0.3315497698
0.3315447665
0.3315404026
0.3315366665
0.3315335043
0.3315308444
0.3315286133
0.3315267476
0.3315252172
0.3315241183
0.3315782919
0.3315754164
0.3315718649
0.3315678395
0.3315635577
0.3315592137
0.3315549605
0.3315509065
0.3315471199
0.3315436373
0.3315404734
0.3315376369
0.331535172
0.3315333292
0.3315786552
0.3315752085
0.3315707486
0.3315656379
0.3315602521
0.3315549025
0.3315498114
0.3315451167
0.3315408885
0.3315371474
0.331533882
0.3315310626
0.3315286559
0.3315266561
0.3315252114
0.3315717326
0.3315632655
0.3315540812
0.3315453688
0.3315377771
0.3315315278
0.331526585
0.331522789
0.3315199407
0.3315178455
0.3315163335
0.3315152645
0.3315145272
0.3315140373
0.3315137476
0.3315455599
0.3315215573
0.3315019517
0.3314884877
0.3314805899
0.3314769281
0.3314761713
0.3314772501
0.3314793923
0.3314820761
0.3314849653
0.331487851
0.3314905992
0.3314930823
0.3314949817
0.33140051
0.331376001
0.3313721357
0.3313794067
0.3313916142
0.3314052721
0.3314186215
0.3314308836
0.3314417949
0.3314513428
0.3314596213
0.3314667424
0.3314727214
0.3314770849
0.3311634275
0.3311948436
0.3312427234
0.3312885084
0.3313273497
0.3313589983
0.3313845054
0.3314050952
0.3314218305
0.3314355514
0.3314468951
0.3314563166
0.3314640299
0.3314695694
0.3314005118
0.3313760023
0.3313721367
0.3313794076
0.3313916149
0.3314052727
0.3314186221
0.3314308841
0.3314417953
0.3314513432
0.3314596217
0.3314667427
0.3314727216
0.3314770852
0.3315215576
0.3315019521
0.3314884883
0.3314805905
0.3314769287
0.3314761719
0.3314772507
0.3314793928
0.3314820767
0.3314849659
0.3314878515
0.3314905997
0.3314930828
0.3314949822
0.3315632655
0.3315540813
0.331545369
0.3315377773
0.3315315281
0.3315265853
0.3315227894
0.3315199411
0.331517846
0.331516334
0.3315152649
0.3315145277
0.3315140378
0.3315137481
0.3315752085
0.3315707486
0.331565638
0.3315602522
0.3315549026
0.3315498116
0.331545117
0.3315408888
0.3315371477
0.3315338824
0.3315310631
0.3315286563
0.3315266566
0.331525212
0.3315773764
0.3315730111
0.3315676833
0.3315618818
0.3315560166
0.3315503824
0.3315451665
0.3315404694
0.3315363287
0.331532739
0.3315296687
0.3315270724
0.331524903
0.3315231381
0.3315218848
0.3315659064
0.3315542425
0.3315432073
0.3315338819
0.3315265035
0.3315209179
0.331516833
0.3315139408
0.3315119661
0.3315106811
0.3315099051
0.3315094978
0.3315093503
0.3315093723
0.3315094657
0.3315100124
0.3314753333
0.3314559002
0.3314476442
0.3314462901
0.3314487962
0.3314532533
0.3314585337
0.3314639981
0.3314692993
0.331474261
0.3314788023
0.3314828839
0.3314864311
0.3314890813
0.3312051744
0.3311634281
0.3311948442
0.3312427239
0.3312885089
0.3313273501
0.3313589987
0.3313845057
0.3314050955
0.3314218307
0.3314355516
0.3314468952
0.3314563168
0.33146403
0.3314695695
0.330144613
0.3306644744
0.3309519483
0.331120057
0.331224098
0.3312921227
0.3313389084
0.3313725539
0.3313976822
0.3314170414
0.3314323272
0.3314445983
0.3314544005
0.3314613315
0.3311634275
0.3311948453
0.331242725
0.3312885097
0.3313273508
0.3313589992
0.3313845062
0.3314050959
0.3314218311
0.331435552
0.3314468955
0.3314563171
0.3314640303
0.3314695697
0.3314753337
0.3314559009
0.331447645
0.3314462909
0.3314487969
0.331453254
0.3314585344
0.3314639987
0.3314692999
0.3314742616
0.3314788028
0.3314828844
0.3314864315
0.3314890817
0.3315542426
0.3315432075
0.3315338822
0.3315265039
0.3315209183
0.3315168335
0.3315139413
0.3315119666
0.3315106816
0.3315099056
0.3315094983
0.3315093509
0.3315093728
0.3315094662
0.3315730111
0.3315676833
0.3315618819
0.3315560167
0.3315503826
0.3315451668
0.3315404698
0.331536329
0.3315327394
0.3315296692
0.3315270729
0.3315249035
0.3315231386
0.3315218853
0.3315786552
0.3315752086
0.3315707487
0.331565638
0.3315602522
0.3315549026
0.3315498115
0.3315451169
0.3315408886
0.3315371476
0.3315338822
0.3315310628
0.331528656
0.3315266563
0.3315252116
0.3315717327
0.3315632657
0.3315540814
0.331545369
0.3315377773
0.3315315281
0.3315265852
0.3315227893
0.3315199409
0.3315178458
0.3315163337
0.3315152647
0.3315145274
0.3315140375
0.3315137478
0.3315455605
0.3315215579
0.3315019524
0.3314884884
0.3314805905
0.3314769287
0.3314761719
0.3314772506
0.3314793927
0.3314820765
0.3314849658
0.3314878514
0.3314905996
0.3314930827
0.331494982
0.3314559224
0.3314005128
0.3313760032
0.3313721375
0.3313794081
0.3313916154
0.3314052731
0.3314186223
0.3314308843
0.3314417955
0.3314513433
0.3314596218
0.3314667428
0.3314727217
0.3314770853
0.3312051754
0.3311634291
0.3311948463
0.3312427256
0.3312885101
0.331327351
0.3313589994
0.3313845063
0.331405096
0.3314218312
0.331435552
0.3314468956
0.3314563171
0.3314640303
0.3314695698
0.3314559222
0.3314005132
0.3313760038
0.3313721381
0.3313794088
0.3313916159
0.3314052736
0.3314186228
0.3314308847
0.3314417959
0.3314513437
0.3314596221
0.3314667431
0.331472722
0.3314770856
0.3315215572
0.3315019522
0.3314884886
0.3314805909
0.3314769292
0.3314761724
0.3314772511
0.3314793933
0.3314820771
0.3314849663
0.3314878519
0.3314906001
0.3314930832
0.3314949825
0.3315632654
0.3315540813
0.3315453691
0.3315377775
0.3315315283
0.3315265855
0.3315227896
0.3315199413
0.3315178462
0.3315163342
0.3315152652
0.3315145279
0.3315140381
0.3315137483
0.3315752085
0.3315707486
0.331565638
0.3315602523
0.3315549027
0.3315498117
0.3315451172
0.3315408889
0.3315371479
0.3315338826
0.3315310633
0.3315286565
0.3315266568
0.3315252122
0.331580363
0.3315782919
0.3315754165
0.331571865
0.3315678396
0.3315635577
0.3315592137
0.3315549605
0.3315509065
0.3315471199
0.3315436372
0.3315404733
0.3315376368
0.3315351719
0.3315333291
0.3315773267
0.3315728486
0.3315673137
0.3315613101
0.3315553466
0.3315497698
0.3315447665
0.3315404026
0.3315366665
0.3315335043
0.3315308444
0.3315286133
0.3315267476
0.3315252172
0.3315241182
0.3315680485
0.3315569212
0.3315452777
0.3315347634
0.3315261683
0.3315196469
0.3315150009
0.33151189
0.3315099556
0.3315088793
0.3315084035
0.3315083304
0.3315085116
0.3315088281
0.3315091415
0.3315455606
0.3315215582
0.3315019528
0.3314884889
0.331480591
0.3314769292
0.3314761723
0.331477251
0.3314793931
0.3314820769
0.3314849661
0.3314878517
0.3314905999
0.331493083
0.3314949823
0.3315100133
0.3314753347
0.3314559018
0.3314476457
0.3314462915
0.3314487974
0.3314532544
0.3314585347
0.3314639989
0.3314693001
0.3314742617
0.331478803
0.3314828845
0.3314864316
0.3314890818
0.3315455607
0.3315215583
0.331501953
0.3314884891
0.3314805913
0.3314769295
0.3314761726
0.3314772513
0.3314793934
0.3314820772
0.3314849664
0.331487852
0.3314906002
0.3314930832
0.3314949825
0.3315680483
0.3315569212
0.3315452778
0.3315347635
0.3315261686
0.3315196472
0.3315150013
0.3315118904
0.331509956
0.3315088797
0.3315084039
0.3315083308
0.331508512
0.3315088285
0.3315091419
0.3315728484
0.3315673137
0.3315613101
0.3315553468
0.33154977
0.3315447668
0.331540403
0.3315366669
0.3315335047
0.3315308448
0.3315286137
0.3315267481
0.3315252176
0.3315241187
0.3315782918
0.3315754164
0.3315718649
0.3315678396
0.3315635578
0.3315592138
0.3315549607
0.3315509067
0.3315471202
0.3315436375
0.3315404737
0.3315376372
0.3315351723
0.3315333295
0.3315815019
0.3315803995
0.3315787694
0.3315766023
0.33157395
0.3315709051
0.3315675794
0.3315640853
0.3315605252
0.3315569847
0.3315535318
0.3315502199
0.3315471006
0.3315442726
0.331542093
0.3315803339
0.3315782498
0.3315753943
0.3315719186
0.3315680331
0.331563948
0.3315598396
0.3315558383
0.3315520308
0.3315484675
0.3315451731
0.3315421559
0.331539423
0.3315370221
0.3315352108
0.3315773267
0.3315728486
0.3315673137
0.3315613101
0.3315553467
0.3315497699
0.3315447666
0.3315404027
0.3315366666
0.3315335044
0.3315308445
0.3315286134
0.3315267478
0.3315252173
0.3315241184
0.3315717327
0.3315632657
0.3315540816
0.3315453692
0.3315377776
0.3315315284
0.3315265855
0.3315227896
0.3315199413
0.3315178462
0.3315163341
0.3315152651
0.3315145278
0.3315140379
0.3315137482
0.3315659066
0.3315542428
0.3315432078
0.3315338825
0.3315265043
0.3315209186
0.3315168337
0.3315139415
0.3315119668
0.3315106818
0.3315099058
0.3315094985
0.331509351
0.331509373
0.3315094664
0.3315717327
0.3315632658
0.3315540817
0.3315453694
0.3315377778
0.3315315285
0.3315265857
0.3315227898
0.3315199415
0.3315178464
0.3315163344
0.3315152653
0.331514528
0.3315140381
0.3315137484
0.3315773268
0.3315728486
0.3315673138
0.3315613102
0.3315553469
0.3315497701
0.3315447668
0.331540403
0.3315366669
0.3315335047
0.3315308448
0.3315286137
0.3315267481
0.3315252177
0.3315241187
0.3315803339
0.3315782498
0.3315753943
0.3315719186
0.3315680331
0.3315639481
0.3315598398
0.3315558386
0.331552031
0.3315484678
0.3315451734
0.3315421562
0.3315394234
0.3315370225
0.3315352112
0.3315803994
0.3315787694
0.3315766023
0.33157395
0.3315709052
0.3315675794
0.3315640854
0.3315605253
0.3315569849
0.331553532
0.3315502202
0.3315471009
0.331544273
0.3315420934
0.3315820112
0.3315813548
0.3315803357
0.3315788991
0.3315770282
0.3315747442
0.3315720988
0.3315691633
0.3315660184
0.3315627457
0.3315594213
0.3315561156
0.3315529031
0.3315499151
0.3315475707
0.3315815019
0.3315803995
0.3315787694
0.3315766023
0.33157395
0.3315709051
0.3315675794
0.3315640854
0.3315605252
0.3315569847
0.3315535318
0.33155022
0.3315471006
0.3315442727
0.3315420931
0.331580363
0.3315782919
0.3315754165
0.331571865
0.3315678396
0.3315635578
0.3315592138
0.3315549606
0.3315509066
0.33154712
0.3315436374
0.3315404735
0.331537637
0.3315351721
0.3315333293
0.3315786552
0.3315752086
0.3315707487
0.3315656381
0.3315602523
0.3315549027
0.3315498117
0.3315451171
0.3315408889
0.3315371479
0.3315338825
0.3315310632
0.3315286564
0.3315266567
0.3315252121
0.3315773765
0.3315730112
0.3315676835
0.3315618821
0.3315560169
0.3315503828
0.3315451669
0.3315404699
0.3315363292
0.3315327395
0.3315296693
0.331527073
0.3315249036
0.3315231387
0.3315218854
0.3315786552
0.3315752086
0.3315707487
0.3315656381
0.3315602524
0.3315549028
0.3315498118
0.3315451172
0.331540889
0.331537148
0.3315338827
0.3315310633
0.3315286566
0.3315266569
0.3315252122
0.331580363
0.3315782919
0.3315754165
0.331571865
0.3315678397
0.3315635579
0.3315592139
0.3315549607
0.3315509068
0.3315471202
0.3315436376
0.3315404737
0.3315376372
0.3315351724
0.3315333296
0.3315815019
0.3315803995
0.3315787694
0.3315766024
0.33157395
0.3315709052
0.3315675795
0.3315640855
0.3315605254
0.3315569849
0.3315535321
0.3315502203
0.3315471009
0.3315442731
0.3315420934
0.3315820112
0.3315813547
0.3315803357
0.3315788991
0.3315770282
0.3315747443
0.3315720988
0.3315691634
0.3315660186
0.3315627458
0.3315594215
0.3315561159
0.3315529034
0.3315499154
0.331547571
)
;

boundaryField
{
    top
    {
        type            zeroGradient;
    }
    bottom
    {
        type            zeroGradient;
    }
    side-walls
    {
        type            zeroGradient;
    }
    inlet
    {
        type            zeroGradient;
    }
    outlet
    {
        type            zeroGradient;
    }
    procBoundary1to0
    {
        type            processor;
        value           nonuniform List<scalar> 
97
(
0.3315820112
0.3315820112
0.3315815019
0.331580363
0.3315786552
0.3315773765
0.3315786553
0.3315803631
0.3315815019
0.3315820112
0.3315821548
0.3315803339
0.3315803339
0.3315803339
0.3315773267
0.3315717327
0.3315659067
0.3315717328
0.3315773268
0.331580334
0.3315815019
0.3315816381
0.3315803036
0.3315680483
0.3315680483
0.3315680483
0.3315455605
0.3315100137
0.331545561
0.3315680487
0.3315773268
0.3315803631
0.3315808822
0.3315779543
0.3315677299
0.3314559205
0.3314559205
0.3314559205
0.3312051797
0.3314559235
0.3315455609
0.3315717328
0.3315786553
0.3315803434
0.3315757419
0.331556397
0.331479962
0.3291510913
0.3291510913
0.3291510913
0.3312051791
0.3312051791
0.3315100137
0.3315659067
0.3315773765
0.3315808822
0.3315779543
0.3315677299
0.3315380606
0.3314799623
0.3315380608
0.3315455601
0.3315455601
0.3315455601
0.3315717327
0.3315786553
0.3315816381
0.3315803036
0.331576399
0.3315677299
0.3315563973
0.33156773
0.331576399
0.3315773267
0.3315773267
0.3315773267
0.331580363
0.3315821548
0.3315816278
0.3315803036
0.3315779543
0.331575742
0.3315779544
0.3315803036
0.3315816278
0.3315815019
0.3315815019
0.3315815019
0.331582389
0.3315821548
0.3315816381
0.3315808822
0.3315803434
0.3315808822
0.3315816381
0.3315821548
0.331582389
)
;
    }
}


// ************************************************************************* //
