/*--------------------------------*- C++ -*----------------------------------*\
| =========                 |                                                 |
| \\      /  F ield         | OpenFOAM: The Open Source CFD Toolbox           |
|  \\    /   O peration     | Version:  4.x                                   |
|   \\  /    A nd           | Web:      www.OpenFOAM.org                      |
|    \\/     M anipulation  |                                                 |
\*---------------------------------------------------------------------------*/
FoamFile
{
    version     2.0;
    format      ascii;
    class       volScalarField;
    location    "10000";
    object      CO2;
}
// * * * * * * * * * * * * * * * * * * * * * * * * * * * * * * * * * * * * * //

dimensions      [0 0 0 0 0 0 0];

internalField   nonuniform List<scalar> 
1174
(
0.06315148264
0.0631526928
0.06315439889
0.0631566207
0.06315933307
0.06316247472
0.06316596085
0.06316969558
0.06317358227
0.06317753022
0.06318145598
0.06318527114
0.06318881972
0.06319160387
0.06315261707
0.06315455288
0.06315712645
0.06316027628
0.06316389224
0.06316784182
0.06317199123
0.06317621916
0.06318042379
0.06318452437
0.06318845748
0.06319216201
0.06319552041
0.06319810898
0.06315511995
0.06315853472
0.06316275234
0.06316753275
0.06317261773
0.06317777658
0.06318282752
0.06318764196
0.06319213883
0.0631962748
0.06320003218
0.06320340083
0.06320632811
0.06320851665
0.06315878153
0.06316407799
0.06317014717
0.06317654315
0.06318289616
0.06318894213
0.06319451732
0.06319953868
0.0632039815
0.06320785938
0.06321120762
0.0632140659
0.06321644077
0.06321815651
0.06316139101
0.06316771814
0.06317460769
0.06318157303
0.0631882639
0.06319445814
0.06320003625
0.06320495371
0.06320921671
0.06321286291
0.06321594633
0.06321852271
0.06322061871
0.06322210718
0.06315878146
0.06316407789
0.06317014705
0.06317654301
0.06318289601
0.06318894198
0.06319451716
0.06319953852
0.06320398133
0.06320785921
0.06321120746
0.06321406575
0.06321644062
0.06321815636
0.06315511989
0.06315853463
0.06316275223
0.06316753262
0.06317261758
0.0631777764
0.06318282734
0.06318764175
0.06319213862
0.06319627458
0.06320003196
0.0632034006
0.06320632788
0.06320851642
0.06315261702
0.06315455282
0.06315712637
0.06316027618
0.06316389212
0.06316784168
0.06317199107
0.06317621898
0.0631804236
0.06318452416
0.06318845725
0.06319216177
0.06319552016
0.06319810872
0.0631514826
0.06315269276
0.06315439884
0.06315662064
0.06315933299
0.06316247463
0.06316596074
0.06316969545
0.06317358212
0.06317753005
0.0631814558
0.06318527094
0.06318881949
0.06319160363
0.06315130784
0.06315261705
0.06315455286
0.06315712642
0.06316027624
0.0631638922
0.06316784177
0.06317199117
0.0631762191
0.06318042373
0.06318452431
0.06318845741
0.06319216195
0.06319552035
0.06319810893
0.06315516995
0.06315856101
0.06316268866
0.06316730294
0.06317215419
0.06317703319
0.06318178498
0.06318630676
0.06319053839
0.06319445081
0.06319803403
0.06320127952
0.06320413084
0.06320628205
0.06316158421
0.06316815716
0.06317528683
0.06318236877
0.0631889916
0.06319493335
0.06320011575
0.06320455267
0.06320830809
0.063211467
0.06321411666
0.06321633231
0.06321814993
0.06321945506
0.06317296438
0.06318387119
0.06319421763
0.06320323321
0.06321065462
0.06321652457
0.06322103254
0.06322441517
0.06322690336
0.06322869909
0.06322996876
0.06323084442
0.06323142629
0.06323177046
0.06318367952
0.06319678442
0.06320785889
0.06321662106
0.06322325444
0.06322810555
0.06323154028
0.06323388547
0.06323541157
0.06323633323
0.06323681705
0.06323699231
0.06323696636
0.06323685554
0.0631729643
0.06318387108
0.06319421752
0.06320323309
0.06321065449
0.06321652444
0.06322103241
0.06322441504
0.06322690322
0.06322869895
0.06322996862
0.06323084429
0.06323142615
0.06323177033
0.06316158411
0.06316815706
0.06317528672
0.06318236865
0.06318899147
0.06319493321
0.0632001156
0.0632045525
0.06320830792
0.06321146681
0.06321411647
0.06321633212
0.06321814973
0.06321945485
0.06315516986
0.06315856091
0.06316268855
0.06316730281
0.06317215404
0.06317703302
0.06318178479
0.06318630656
0.06319053816
0.06319445058
0.06319803378
0.06320127926
0.06320413058
0.06320628178
0.06315261702
0.06315455282
0.06315712637
0.06316027617
0.06316389211
0.06316784167
0.06317199104
0.06317621895
0.06318042356
0.06318452412
0.0631884572
0.06319216172
0.0631955201
0.06319810866
0.06315266031
0.06315511991
0.06315853465
0.06316275226
0.06316753266
0.06317261762
0.06317777645
0.06318282739
0.06318764182
0.06319213869
0.06319627466
0.06320003205
0.0632034007
0.06320632799
0.06320851654
0.06315626609
0.06316158416
0.0631681571
0.06317528675
0.06318236868
0.0631889915
0.06319493326
0.06320011566
0.06320455258
0.063208308
0.06321146691
0.06321411658
0.06321633224
0.06321814986
0.06321945499
0.06318049887
0.06319432614
0.06320681248
0.06321701961
0.06322476419
0.06323028167
0.06323397612
0.06323627349
0.0632375517
0.06323811687
0.06323820384
0.06323798878
0.06323761306
0.06323724088
0.06322249462
0.06324577726
0.06326176642
0.0632711456
0.06327549424
0.06327639313
0.06327511224
0.06327256842
0.0632693814
0.06326595039
0.06326252371
0.06325926016
0.06325631149
0.06325405602
0.06327738713
0.06330046533
0.06331026999
0.06331187823
0.06330890242
0.06330360959
0.06329733902
0.06329085001
0.06328455467
0.06327866254
0.06327326967
0.06326842275
0.06326421041
0.06326106328
0.06322249407
0.06324577672
0.06326176592
0.06327114516
0.06327549385
0.0632763928
0.06327511195
0.06327256816
0.06326938116
0.06326595018
0.06326252351
0.06325925998
0.06325631131
0.06325405585
0.06318049847
0.06319432578
0.06320681214
0.06321701928
0.06322476386
0.06323028135
0.0632339758
0.06323627318
0.06323755139
0.06323811657
0.06323820356
0.0632379885
0.06323761279
0.06323724061
0.06316158406
0.06316815698
0.06317528661
0.06318236852
0.06318899132
0.06319493306
0.06320011544
0.06320455234
0.06320830775
0.06321146665
0.06321411631
0.06321633196
0.06321814958
0.0632194547
0.06315511988
0.06315853461
0.06316275219
0.06316753257
0.06317261751
0.06317777631
0.06318282723
0.06318764163
0.06319213848
0.06319627442
0.06320003179
0.06320340042
0.0632063277
0.06320851623
0.06315468839
0.06315878146
0.06316407788
0.06317014703
0.06317654299
0.06318289599
0.06318894195
0.06319451713
0.06319953849
0.0632039813
0.06320785919
0.06321120744
0.06321406573
0.06321644061
0.06321815635
0.06316290929
0.06317296432
0.06318387107
0.0631942175
0.06320323306
0.06321065447
0.06321652442
0.0632210324
0.06322441503
0.06322690323
0.06322869896
0.06322996864
0.06323084431
0.06323142618
0.06323177036
0.06319399026
0.06322249451
0.0632457771
0.06326176626
0.06327114547
0.06327549414
0.06327639305
0.06327511218
0.06327256837
0.06326938135
0.06326595036
0.06326252368
0.06325926013
0.06325631145
0.06325405599
0.06336624298
0.06339534892
0.06339993951
0.06339130514
0.06337680848
0.0633605893
0.0633447365
0.06333017491
0.06331721745
0.063305879
0.063296048
0.06328759157
0.06328049135
0.06327530948
0.06364778892
0.06361048145
0.06355362259
0.06349925127
0.06345312581
0.06341554185
0.06338525124
0.06336080007
0.06334092628
0.0633246322
0.06331116123
0.06329997279
0.06329081303
0.06328423476
0.06336624107
0.06339534758
0.06339993849
0.06339130435
0.06337680786
0.0633605888
0.06334473609
0.06333017457
0.06331721715
0.06330587874
0.06329604776
0.06328759135
0.06328049115
0.06327530929
0.0632224941
0.06324577662
0.06326176575
0.06327114494
0.06327549361
0.06327639254
0.06327511169
0.06327256791
0.06326938091
0.06326594994
0.06326252328
0.06325925976
0.0632563111
0.06325405565
0.06317296426
0.06318387098
0.06319421736
0.06320323288
0.06321065425
0.06321652417
0.06322103212
0.06322441474
0.06322690292
0.06322869864
0.06322996831
0.06323084398
0.06323142584
0.06323177002
0.06315878146
0.06316407787
0.063170147
0.06317654292
0.06318289588
0.06318894181
0.06319451695
0.06319953828
0.06320398107
0.06320785893
0.06321120716
0.06321406543
0.06321644029
0.06321815602
0.06315620701
0.06316139098
0.06316771806
0.06317460759
0.06318157291
0.06318826376
0.06319445798
0.06320003608
0.06320495354
0.06320921654
0.06321286273
0.06321594616
0.06321852254
0.06322061855
0.06322210703
0.06316982807
0.06318367954
0.06319678437
0.06320785881
0.06321662096
0.06322325432
0.06322810542
0.06323154014
0.06323388533
0.06323541143
0.06323633309
0.06323681692
0.06323699218
0.06323696624
0.06323685542
0.06323620447
0.06327738755
0.06330046538
0.06331026993
0.06331187813
0.06330890227
0.06330360942
0.06329733886
0.06329084985
0.06328455451
0.06327866239
0.06327326953
0.06326842262
0.06326421029
0.06326106317
0.06359821233
0.06364778865
0.06361048102
0.0635536221
0.0634992508
0.0634531254
0.06341554149
0.06338525093
0.06336079981
0.06334092606
0.06332463202
0.06331116108
0.06329997265
0.06329081291
0.06328423466
0.06485767515
0.06424031876
0.06389893161
0.06369929555
0.06357574241
0.06349496018
0.06343940025
0.06339944477
0.06336960391
0.06334661402
0.06332846152
0.0633138891
0.06330224869
0.06329401788
0.06364778888
0.06361047978
0.0635536211
0.06349925011
0.06345312492
0.06341554115
0.06338525065
0.06336079958
0.06334092586
0.06332463183
0.06331116092
0.0632999725
0.06329081276
0.06328423451
0.06327738689
0.06330046457
0.06331026914
0.0633118774
0.06330890163
0.06330360887
0.06329733838
0.06329084942
0.06328455412
0.06327866203
0.06327326919
0.0632684223
0.06326420999
0.06326106287
0.06318367938
0.06319678412
0.06320785849
0.0632166206
0.06322325393
0.06322810502
0.06323153974
0.06323388493
0.06323541103
0.0632363327
0.06323681653
0.0632369918
0.06323696586
0.06323685504
0.06316139095
0.063167718
0.06317460748
0.06318157276
0.06318826357
0.06319445775
0.06320003582
0.06320495325
0.06320921623
0.0632128624
0.06321594581
0.06321852218
0.06322061818
0.06322210665
0.06315468836
0.06315878141
0.06316407781
0.06317014694
0.06317654288
0.06318289587
0.06318894182
0.06319451699
0.06319953835
0.06320398116
0.06320785904
0.0632112073
0.06321406558
0.06321644046
0.0632181562
0.06316290919
0.06317296415
0.06318387086
0.06319421727
0.06320323283
0.06321065424
0.0632165242
0.06322103218
0.06322441483
0.06322690303
0.06322869877
0.06322996845
0.06323084413
0.063231426
0.06323177019
0.06319398969
0.0632224939
0.06324577642
0.06326176562
0.06327114488
0.0632754936
0.06327639256
0.06327511174
0.06327256797
0.06326938098
0.06326595002
0.06326252336
0.06325925984
0.06325631118
0.06325405573
0.06330043864
0.06336624024
0.06339534669
0.06339993779
0.06339130382
0.06337680746
0.0633605885
0.06334473586
0.0633301744
0.06331721702
0.06330587863
0.06329604767
0.06328759128
0.06328049108
0.06327530922
0.06359821118
0.06364778751
0.06361047889
0.06355362056
0.06349924981
0.06345312473
0.06341554103
0.06338525058
0.06336079954
0.06334092583
0.06332463181
0.06331116089
0.06329997248
0.06329081275
0.0632842345
0.06330043875
0.06336623976
0.0633953461
0.06339993723
0.06339130333
0.06337680703
0.06336058813
0.06334473553
0.0633301741
0.06331721675
0.06330587839
0.06329604745
0.06328759107
0.06328049089
0.06327530904
0.06322249446
0.06324577654
0.06326176548
0.0632711446
0.06327549325
0.06327639219
0.06327511135
0.06327256759
0.06326938061
0.06326594966
0.06326252302
0.06325925951
0.06325631087
0.06325405542
0.06317296432
0.06318387096
0.06319421728
0.06320323275
0.06321065409
0.06321652399
0.06322103193
0.06322441454
0.06322690272
0.06322869845
0.06322996812
0.0632308438
0.06323142566
0.06323176984
0.06315878146
0.06316407784
0.06317014694
0.06317654284
0.06318289578
0.06318894168
0.06319451682
0.06319953813
0.06320398091
0.06320785877
0.063211207
0.06321406526
0.06321644013
0.06321815585
0.06315266029
0.06315511985
0.06315853457
0.06316275215
0.06316753252
0.06317261747
0.06317777628
0.0631828272
0.06318764161
0.06319213847
0.06319627443
0.06320003181
0.06320340045
0.06320632774
0.06320851628
0.063156266
0.06316158404
0.06316815694
0.06317528657
0.06318236849
0.0631889913
0.06319493304
0.06320011543
0.06320455233
0.06320830775
0.06321146665
0.06321411631
0.06321633196
0.06321814958
0.06321945471
0.0631672843
0.06318049841
0.06319432567
0.063206812
0.06321701913
0.06322476371
0.0632302812
0.06323397565
0.06323627303
0.06323755125
0.06323811643
0.06323820342
0.06323798837
0.06323761266
0.06323724049
0.06319398953
0.0632224936
0.06324577602
0.06326176517
0.06327114442
0.06327549316
0.06327639216
0.06327511137
0.06327256763
0.06326938068
0.06326594974
0.06326252311
0.06325925961
0.06325631097
0.06325405553
0.06323620349
0.06327738599
0.06330046371
0.06331026842
0.06331187683
0.06330890119
0.06330360852
0.0632973381
0.0632908492
0.06328455395
0.06327866189
0.06327326908
0.06326842221
0.06326420991
0.06326106279
0.06319398944
0.06322249344
0.06324577583
0.06326176498
0.06327114423
0.06327549297
0.06327639198
0.0632751112
0.06327256746
0.06326938052
0.06326594959
0.06326252296
0.06325925946
0.06325631083
0.06325405539
0.06316728441
0.06318049845
0.06319432562
0.06320681187
0.06321701894
0.06322476348
0.06323028094
0.06323397538
0.06323627276
0.06323755098
0.06323811616
0.06323820316
0.06323798811
0.06323761241
0.06323724024
0.06316158413
0.06316815696
0.06317528652
0.06318236837
0.06318899113
0.06319493282
0.06320011518
0.06320455206
0.06320830746
0.06321146635
0.063214116
0.06321633165
0.06321814927
0.06321945439
0.06315511991
0.06315853463
0.06316275219
0.06316753254
0.06317261745
0.06317777622
0.06318282711
0.06318764148
0.06319213831
0.06319627424
0.0632000316
0.06320340021
0.06320632747
0.063208516
0.06315130782
0.06315261701
0.0631545528
0.06315712635
0.06316027615
0.06316389208
0.06316784164
0.06317199101
0.06317621892
0.06318042353
0.06318452409
0.06318845717
0.06319216169
0.06319552007
0.06319810864
0.06315269484
0.06315516985
0.06315856088
0.06316268851
0.06316730276
0.06317215399
0.06317703296
0.06318178473
0.06318630649
0.06319053809
0.0631944505
0.0631980337
0.06320127918
0.0632041305
0.06320628169
0.06315626599
0.06316158402
0.06316815691
0.06317528653
0.06318236843
0.06318899123
0.06319493296
0.06320011534
0.06320455224
0.06320830765
0.06321146656
0.06321411621
0.06321633187
0.06321814948
0.06321945461
0.06316290917
0.06317296409
0.06318387074
0.0631942171
0.06320323262
0.063210654
0.06321652394
0.06322103191
0.06322441455
0.06322690275
0.06322869849
0.06322996817
0.06323084385
0.06323142573
0.06323176991
0.06316982787
0.06318367915
0.06319678383
0.0632078582
0.06321662031
0.06322325366
0.06322810478
0.06323153953
0.06323388474
0.06323541087
0.06323633255
0.0632368164
0.06323699168
0.06323696575
0.06323685494
0.06316290911
0.063172964
0.06318387063
0.06319421697
0.06320323248
0.06321065385
0.06321652378
0.06322103175
0.06322441439
0.0632269026
0.06322869834
0.06322996803
0.06323084371
0.06323142559
0.06323176978
0.06315626597
0.06316158398
0.06316815684
0.06317528642
0.06318236829
0.06318899105
0.06319493276
0.06320011513
0.06320455201
0.06320830742
0.06321146632
0.06321411597
0.06321633162
0.06321814924
0.06321945437
0.06315269486
0.06315516986
0.06315856088
0.06316268848
0.06316730269
0.06317215388
0.06317703282
0.06318178457
0.0631863063
0.06319053789
0.06319445028
0.06319803346
0.06320127893
0.06320413023
0.06320628142
0.06315261705
0.06315455284
0.06315712637
0.06316027615
0.06316389207
0.0631678416
0.06317199095
0.06317621882
0.06318042341
0.06318452394
0.063188457
0.0631921615
0.06319551986
0.0631981084
0.063150703
0.0631514826
0.06315269275
0.06315439882
0.06315662061
0.06315933295
0.06316247458
0.06316596068
0.06316969539
0.06317358205
0.06317752997
0.06318145571
0.06318527085
0.0631888194
0.06319160354
0.06315130782
0.06315261701
0.0631545528
0.06315712635
0.06316027614
0.06316389207
0.06316784162
0.063171991
0.0631762189
0.0631804235
0.06318452406
0.06318845714
0.06319216165
0.06319552003
0.06319810859
0.06315266029
0.06315511986
0.06315853457
0.06316275215
0.06316753251
0.06317261745
0.06317777625
0.06318282716
0.06318764156
0.0631921384
0.06319627435
0.06320003172
0.06320340035
0.06320632763
0.06320851616
0.06315468837
0.06315878141
0.06316407778
0.06317014689
0.0631765428
0.06318289576
0.06318894169
0.06319451684
0.06319953817
0.06320398096
0.06320785883
0.06321120707
0.06321406534
0.06321644021
0.06321815594
0.06315620696
0.06316139087
0.0631677179
0.06317460736
0.06318157263
0.06318826344
0.06319445763
0.06320003571
0.06320495314
0.06320921613
0.06321286231
0.06321594573
0.06321852211
0.06322061811
0.06322210658
0.06315468835
0.06315878138
0.06316407775
0.06317014685
0.06317654275
0.0631828957
0.06318894161
0.06319451675
0.06319953808
0.06320398086
0.06320785872
0.06321120696
0.06321406523
0.06321644009
0.06321815582
0.06315266028
0.06315511984
0.06315853455
0.06316275211
0.06316753246
0.06317261737
0.06317777615
0.06318282704
0.06318764143
0.06319213826
0.06319627419
0.06320003155
0.06320340017
0.06320632744
0.06320851597
0.06315130782
0.06315261701
0.06315455279
0.06315712632
0.06316027609
0.063163892
0.06316784153
0.06317199088
0.06317621875
0.06318042334
0.06318452387
0.06318845694
0.06319216143
0.0631955198
0.06319810835
0.06315070301
0.06315148261
0.06315269276
0.06315439883
0.06315662061
0.06315933293
0.06316247455
0.06316596062
0.06316969531
0.06317358194
0.06317752984
0.06318145556
0.06318527068
0.0631888192
0.06319160333
)
;

boundaryField
{
    top
    {
        type            zeroGradient;
    }
    bottom
    {
        type            zeroGradient;
    }
    side-walls
    {
        type            zeroGradient;
    }
    inlet
    {
        type            zeroGradient;
    }
    outlet
    {
        type            zeroGradient;
    }
    procBoundary1to0
    {
        type            processor;
        value           nonuniform List<scalar> 
97
(
0.06315070301
0.06315070301
0.06315130783
0.0631526603
0.06315468837
0.06315620696
0.06315468833
0.06315266027
0.06315130781
0.06315070299
0.06315053252
0.06315269489
0.06315269489
0.06315269489
0.06315626603
0.06316290918
0.06316982785
0.06316290912
0.06315626596
0.06315269481
0.06315130781
0.06315114611
0.06315273084
0.0631672845
0.0631672845
0.0631672845
0.06319398978
0.06323620346
0.06319398928
0.0631672841
0.06315626593
0.06315266027
0.06315204377
0.06315552074
0.06316766268
0.06330044085
0.06330044085
0.06330044085
0.06359820961
0.06330043806
0.06319398934
0.06316290911
0.06315468834
0.06315268359
0.06315814803
0.06318112087
0.06327189092
0.06603755035
0.06603755035
0.06603755035
0.06359821016
0.06359821016
0.06323620342
0.06316982779
0.06315620693
0.06315204376
0.06315552072
0.06316766262
0.0632028961
0.06327189047
0.06320289597
0.06319399
0.06319399
0.06319399
0.06316290919
0.06315468834
0.0631511461
0.06315273084
0.06315736774
0.06316766256
0.06318112048
0.06316766252
0.06315736772
0.06315626604
0.06315626604
0.06315626604
0.0631526603
0.06315053251
0.06315115836
0.06315273083
0.06315552072
0.06315814796
0.06315552069
0.06315273082
0.06315115836
0.06315130784
0.06315130784
0.06315130784
0.0631502544
0.06315053251
0.06315114611
0.06315204377
0.06315268357
0.06315204377
0.0631511461
0.06315053251
0.0631502544
)
;
    }
}


// ************************************************************************* //
