/*--------------------------------*- C++ -*----------------------------------*\
| =========                 |                                                 |
| \\      /  F ield         | OpenFOAM: The Open Source CFD Toolbox           |
|  \\    /   O peration     | Version:  4.x                                   |
|   \\  /    A nd           | Web:      www.OpenFOAM.org                      |
|    \\/     M anipulation  |                                                 |
\*---------------------------------------------------------------------------*/
FoamFile
{
    version     2.0;
    format      ascii;
    class       volScalarField;
    location    "10000";
    object      H2O;
}
// * * * * * * * * * * * * * * * * * * * * * * * * * * * * * * * * * * * * * //

dimensions      [0 0 0 0 0 0 0];

internalField   nonuniform List<scalar> 
1174
(
1.324045032e-06
1.565069478e-06
1.904855926e-06
2.347342538e-06
2.887511252e-06
3.513156338e-06
4.207380644e-06
4.951088287e-06
5.725028107e-06
6.511137843e-06
7.292799177e-06
8.052404795e-06
8.758902654e-06
9.313192051e-06
1.550018609e-06
1.935573297e-06
2.448135366e-06
3.07544891e-06
3.795576572e-06
4.582121664e-06
5.408433038e-06
6.250349547e-06
7.087594541e-06
7.904083299e-06
8.6871866e-06
9.4247431e-06
1.009335019e-05
1.060866768e-05
2.048568883e-06
2.728689258e-06
3.568690892e-06
4.520752919e-06
5.533439621e-06
6.560798994e-06
7.566631321e-06
8.525319253e-06
9.420725925e-06
1.024422226e-05
1.099229087e-05
1.16629145e-05
1.22456303e-05
1.268125407e-05
2.777909405e-06
3.832805289e-06
5.041572366e-06
6.315385e-06
7.580594448e-06
8.784604043e-06
9.894805062e-06
1.089466239e-05
1.177925655e-05
1.255130766e-05
1.321785396e-05
1.378679749e-05
1.425946305e-05
1.460089701e-05
3.297673501e-06
4.557844283e-06
5.929995599e-06
7.31719324e-06
8.649673729e-06
9.883189941e-06
1.099394856e-05
1.197308738e-05
1.282184877e-05
1.354773401e-05
1.416151623e-05
1.467429909e-05
1.509140915e-05
1.538757212e-05
2.777889047e-06
3.832775882e-06
5.041533156e-06
6.315333293e-06
7.580530728e-06
8.784526863e-06
9.894715024e-06
1.089456035e-05
1.177914296e-05
1.255118424e-05
1.321772007e-05
1.378665454e-05
1.42593115e-05
1.460073978e-05
2.048546073e-06
2.728658188e-06
3.568649296e-06
4.520697591e-06
5.533367096e-06
6.560706692e-06
7.566516778e-06
8.525182709e-06
9.420566628e-06
1.024404026e-05
1.099208866e-05
1.16626935e-05
1.22453888e-05
1.268099386e-05
1.549999221e-06
1.935549447e-06
2.448104505e-06
3.075407487e-06
3.795520522e-06
4.58204652e-06
5.408334127e-06
6.250225399e-06
7.087441747e-06
7.903900095e-06
8.686974474e-06
9.424501138e-06
1.009307914e-05
1.060837119e-05
1.324032116e-06
1.565055935e-06
1.904839479e-06
2.347319015e-06
2.887476533e-06
3.513105691e-06
4.207308097e-06
4.950989587e-06
5.724899834e-06
6.510976467e-06
7.29260242e-06
8.05217112e-06
8.758631792e-06
9.312883629e-06
1.289240283e-06
1.550003468e-06
1.935557583e-06
2.448118021e-06
3.075429774e-06
3.795556307e-06
4.58209962e-06
5.408409874e-06
6.25032679e-06
7.087571194e-06
7.904059249e-06
8.687164121e-06
9.424719341e-06
1.009332688e-05
1.060864649e-05
2.058546161e-06
2.733938925e-06
3.556021609e-06
4.47499631e-06
5.441137544e-06
6.41276854e-06
7.359029294e-06
8.259443445e-06
9.102033271e-06
9.881020787e-06
1.059441391e-05
1.124052181e-05
1.180811897e-05
1.223630997e-05
3.336217658e-06
4.645353756e-06
6.065331669e-06
7.475757553e-06
8.794694794e-06
9.977937852e-06
1.100989909e-05
1.1893347e-05
1.264103428e-05
1.326989097e-05
1.379730519e-05
1.423826554e-05
1.459995129e-05
1.485960736e-05
5.603005578e-06
7.775316973e-06
9.835953607e-06
1.163144796e-05
1.310936912e-05
1.427823359e-05
1.517579303e-05
1.584919018e-05
1.634442243e-05
1.670172348e-05
1.695424397e-05
1.712828755e-05
1.724382247e-05
1.73120671e-05
7.737262243e-06
1.034735796e-05
1.255296784e-05
1.42979509e-05
1.561886928e-05
1.658476633e-05
1.726852746e-05
1.773526231e-05
1.803884449e-05
1.822203536e-05
1.831801841e-05
1.835254918e-05
1.834701912e-05
1.83246319e-05
5.60295532e-06
7.775256596e-06
9.835880113e-06
1.16313589e-05
1.310926313e-05
1.427811047e-05
1.517565585e-05
1.584903713e-05
1.634425834e-05
1.670155007e-05
1.695406095e-05
1.712810124e-05
1.724363065e-05
1.731186877e-05
3.336162422e-06
4.645295534e-06
6.06526274e-06
7.475669181e-06
8.794580401e-06
9.977794884e-06
1.100972694e-05
1.189314699e-05
1.264080983e-05
1.326964128e-05
1.379703405e-05
1.423797715e-05
1.459964543e-05
1.485928569e-05
2.058506267e-06
2.733900448e-06
3.555974048e-06
4.47493154e-06
5.441048382e-06
6.412650667e-06
7.358877275e-06
8.2592579e-06
9.101813396e-06
9.880767276e-06
1.059412822e-05
1.124020577e-05
1.180777418e-05
1.223593967e-05
1.550000726e-06
1.935549684e-06
2.448101655e-06
3.075399953e-06
3.795505873e-06
4.582023273e-06
5.408301067e-06
6.250181183e-06
7.087386011e-06
7.903832947e-06
8.686895086e-06
9.42441002e-06
1.00929755e-05
1.060825329e-05
1.558639324e-06
2.048530963e-06
2.728646027e-06
3.568643258e-06
4.520700897e-06
5.533384469e-06
6.560741521e-06
7.566572224e-06
8.525260742e-06
9.420667771e-06
1.024416476e-05
1.09922358e-05
1.166286161e-05
1.224557873e-05
1.268120244e-05
2.276934817e-06
3.336166906e-06
4.645306539e-06
6.065285032e-06
7.475712004e-06
8.794649147e-06
9.977891401e-06
1.100985515e-05
1.189330482e-05
1.264099415e-05
1.326985276e-05
1.37972672e-05
1.423823011e-05
1.459991798e-05
1.485957244e-05
7.103889261e-06
9.857819246e-06
1.23446172e-05
1.437738923e-05
1.591962453e-05
1.701824285e-05
1.775373422e-05
1.821095009e-05
1.846516232e-05
1.857735656e-05
1.859430952e-05
1.855110914e-05
1.847592455e-05
1.840149375e-05
1.546893748e-05
2.010603484e-05
2.32903408e-05
2.51580182e-05
2.602368645e-05
2.620223979e-05
2.594664276e-05
2.543951889e-05
2.480430711e-05
2.412051916e-05
2.34376117e-05
2.278721747e-05
2.219956074e-05
2.175002217e-05
2.640248088e-05
3.099876265e-05
3.295113321e-05
3.327089483e-05
3.267760223e-05
3.162283921e-05
3.037336302e-05
2.908041879e-05
2.782608588e-05
2.665209516e-05
2.557757489e-05
2.461181567e-05
2.377247459e-05
2.314533986e-05
1.546866375e-05
2.010577173e-05
2.329007403e-05
2.515773889e-05
2.602339774e-05
2.620194567e-05
2.59463412e-05
2.543921604e-05
2.480400401e-05
2.412022073e-05
2.343731975e-05
2.278693394e-05
2.219927904e-05
2.174974532e-05
7.103696161e-06
9.857652168e-06
1.234442936e-05
1.43771623e-05
1.591935371e-05
1.701792848e-05
1.775338341e-05
1.82105682e-05
1.846476125e-05
1.857694266e-05
1.859388527e-05
1.855067725e-05
1.8475487e-05
1.840104704e-05
3.336153767e-06
4.645272284e-06
6.06521896e-06
7.47560427e-06
8.79449387e-06
9.977685176e-06
1.100959737e-05
1.189300021e-05
1.264064756e-05
1.326946861e-05
1.379685139e-05
1.423778622e-05
1.459944663e-05
1.485908026e-05
2.048547937e-06
2.728651907e-06
3.56862903e-06
4.520656586e-06
5.533299752e-06
6.560609887e-06
7.566389911e-06
8.525025843e-06
9.420381021e-06
1.02438254e-05
1.099184758e-05
1.16624274e-05
1.224510149e-05
1.268068289e-05
1.962610004e-06
2.777845365e-06
3.832730227e-06
5.041489006e-06
6.315294146e-06
7.580498342e-06
8.784504028e-06
9.894704244e-06
1.089456295e-05
1.177915882e-05
1.255121308e-05
1.321776222e-05
1.378670834e-05
1.425937793e-05
1.460081687e-05
3.600176028e-06
5.602897355e-06
7.775206139e-06
9.835845264e-06
1.163134285e-05
1.310926752e-05
1.42781356e-05
1.51757008e-05
1.584910344e-05
1.634433622e-05
1.670164315e-05
1.695416759e-05
1.712821453e-05
1.72437539e-05
1.731200168e-05
9.791454946e-06
1.546872757e-05
2.010587133e-05
2.329021071e-05
2.51579086e-05
2.602359738e-05
2.620216245e-05
2.594657588e-05
2.543945773e-05
2.480425258e-05
2.412046978e-05
2.343757064e-05
2.278717974e-05
2.219952369e-05
2.174998786e-05
4.4101993e-05
4.989821023e-05
5.081158637e-05
4.909090011e-05
4.620267309e-05
4.297146932e-05
3.981333318e-05
3.691246112e-05
3.433116732e-05
3.207239768e-05
3.011391573e-05
2.842924497e-05
2.701473161e-05
2.598234666e-05
0.0001001808972
9.274835637e-05
8.142180242e-05
7.059097307e-05
6.140280475e-05
5.391613034e-05
4.788228159e-05
4.301164293e-05
3.905279542e-05
3.580700455e-05
3.312355773e-05
3.089476826e-05
2.907006903e-05
2.77595726e-05
4.410103636e-05
4.989751583e-05
5.081094527e-05
4.909028285e-05
4.620207834e-05
4.297089997e-05
3.981279937e-05
3.691196385e-05
3.433069768e-05
3.207195369e-05
3.011349511e-05
2.842885216e-05
2.701435473e-05
2.598197747e-05
1.546869209e-05
2.010569524e-05
2.328989584e-05
2.515748015e-05
2.602308445e-05
2.620159245e-05
2.59459729e-05
2.543884193e-05
2.480362866e-05
2.411985198e-05
2.343695809e-05
2.278657882e-05
2.219893611e-05
2.174940454e-05
5.602960901e-06
7.775206359e-06
9.835760592e-06
1.163116663e-05
1.310900306e-05
1.427779157e-05
1.517528793e-05
1.584863492e-05
1.634382706e-05
1.670109699e-05
1.695359341e-05
1.712761898e-05
1.724314064e-05
1.731137081e-05
2.777898149e-06
3.832762153e-06
5.041481069e-06
6.315230764e-06
7.580369075e-06
8.784303611e-06
9.894432332e-06
1.089422067e-05
1.177875193e-05
1.255074823e-05
1.321724254e-05
1.378614205e-05
1.425876819e-05
1.460016349e-05
2.265101393e-06
3.297606829e-06
4.557763642e-06
5.929902599e-06
7.317090686e-06
8.6495632e-06
9.883075201e-06
1.099383022e-05
1.197296979e-05
1.282172946e-05
1.354761739e-05
1.416140232e-05
1.467418944e-05
1.50913044e-05
1.538746838e-05
4.97828299e-06
7.737143962e-06
1.034722834e-05
1.255283128e-05
1.429781214e-05
1.561873338e-05
1.658463101e-05
1.72683976e-05
1.773513621e-05
1.80387225e-05
1.822191979e-05
1.831790621e-05
1.835244429e-05
1.834691823e-05
1.832453666e-05
1.819966649e-05
2.64022493e-05
3.099851605e-05
3.295090344e-05
3.327068634e-05
3.267741077e-05
3.162266387e-05
3.037320706e-05
2.908028e-05
2.7825957e-05
2.665197967e-05
2.557746365e-05
2.461171748e-05
2.37723823e-05
2.314525544e-05
9.030722051e-05
0.0001001799857
9.274774323e-05
8.142136031e-05
7.059064982e-05
6.140255777e-05
5.391593023e-05
4.788212027e-05
4.301150877e-05
3.905268301e-05
3.58069091e-05
3.312347467e-05
3.089469246e-05
2.907000539e-05
2.775951299e-05
0.0003411722431
0.0002182001016
0.000150199394
0.0001104342754
8.582405571e-05
6.973328603e-05
5.866645089e-05
5.070779891e-05
4.476382985e-05
4.018446508e-05
3.6568635e-05
3.366589814e-05
3.134716307e-05
2.970755067e-05
0.000100180928
9.274739336e-05
8.142059923e-05
7.058979724e-05
6.140172966e-05
5.39151746e-05
4.788143039e-05
4.301087908e-05
3.905211142e-05
3.580638503e-05
3.312299178e-05
3.08942436e-05
2.906958224e-05
2.775910781e-05
2.640250743e-05
3.099835551e-05
3.29504447e-05
3.327004879e-05
3.267668016e-05
3.162189253e-05
3.037243076e-05
2.907951018e-05
2.7825204e-05
2.665125113e-05
2.557675852e-05
2.461103468e-05
2.377172276e-05
2.314460473e-05
7.737270242e-06
1.034722593e-05
1.255268624e-05
1.42975335e-05
1.5618343e-05
1.658415212e-05
1.726784925e-05
1.773453832e-05
1.803808927e-05
1.82212586e-05
1.831722839e-05
1.835174985e-05
1.834621332e-05
1.832381881e-05
3.297677054e-06
4.557797983e-06
5.929876481e-06
7.316986503e-06
8.649374128e-06
9.882800116e-06
1.09934741e-05
1.197253646e-05
1.282122797e-05
1.354705584e-05
1.416078647e-05
1.467352784e-05
1.509060172e-05
1.538672565e-05
1.962604649e-06
2.777827407e-06
3.832697916e-06
5.04144003e-06
6.315229204e-06
7.580415955e-06
8.784406073e-06
9.894588877e-06
1.089443165e-05
1.177901386e-05
1.25510557e-05
1.321759263e-05
1.378653044e-05
1.425919096e-05
1.460061884e-05
3.600131159e-06
5.602816909e-06
7.77509522e-06
9.835708526e-06
1.163118271e-05
1.310908643e-05
1.427793874e-05
1.517548866e-05
1.584887687e-05
1.634410721e-05
1.670140435e-05
1.695392308e-05
1.712796679e-05
1.724350441e-05
1.731174623e-05
9.791052745e-06
1.54683433e-05
2.010544961e-05
2.32897668e-05
2.515745788e-05
2.602314374e-05
2.620171336e-05
2.594613547e-05
2.543903029e-05
2.480383445e-05
2.412006722e-05
2.34371793e-05
2.278680374e-05
2.219916005e-05
2.174962961e-05
3.099432488e-05
4.410014007e-05
4.989677677e-05
5.081037109e-05
4.908983113e-05
4.620172324e-05
4.29706157e-05
3.981256568e-05
3.691176956e-05
3.433053398e-05
3.207181305e-05
3.011337696e-05
2.842874526e-05
2.701426102e-05
2.598189168e-05
9.030676968e-05
0.0001001795433
9.27465443e-05
8.14200521e-05
7.058943495e-05
6.140147228e-05
5.391498252e-05
4.788129022e-05
4.301077229e-05
3.905202234e-05
3.58063082e-05
3.312292442e-05
3.089418555e-05
2.906953199e-05
2.775906446e-05
3.099456844e-05
4.41000615e-05
4.989640453e-05
5.08098104e-05
4.908918681e-05
4.620105414e-05
4.296996397e-05
3.981194543e-05
3.691118859e-05
3.432999298e-05
3.207131134e-05
3.011290028e-05
2.842829802e-05
2.701383737e-05
2.598148558e-05
1.546891182e-05
2.010556279e-05
2.328955793e-05
2.515703145e-05
2.602258084e-05
2.620107146e-05
2.594544982e-05
2.543832792e-05
2.480312951e-05
2.41193711e-05
2.343650081e-05
2.278613933e-05
2.219851013e-05
2.174898589e-05
5.60303351e-06
7.775195684e-06
9.835668817e-06
1.163100668e-05
1.310879192e-05
1.427754164e-05
1.517501046e-05
1.58483375e-05
1.634351806e-05
1.670078093e-05
1.695327297e-05
1.712729672e-05
1.724281876e-05
1.731104542e-05
2.777916181e-06
3.832758993e-06
5.041446366e-06
6.315161046e-06
7.580264668e-06
8.784167475e-06
9.894265318e-06
1.089402932e-05
1.177853906e-05
1.255051714e-05
1.321699726e-05
1.378588403e-05
1.425850064e-05
1.459988639e-05
1.558628197e-06
2.048504862e-06
2.728602615e-06
3.568580015e-06
4.520615584e-06
5.533273714e-06
6.560603742e-06
7.56640689e-06
8.525067198e-06
9.420447135e-06
1.024391805e-05
1.099196526e-05
1.16625683e-05
1.224526542e-05
1.26808714e-05
2.276868003e-06
3.336079005e-06
4.645190741e-06
6.065140795e-06
7.475535866e-06
8.79443973e-06
9.977649362e-06
1.100957978e-05
1.189300021e-05
1.264066242e-05
1.326949872e-05
1.37968941e-05
1.423783933e-05
1.459951246e-05
1.485915281e-05
4.471630813e-06
7.103523091e-06
9.857456806e-06
1.234422413e-05
1.437695386e-05
1.591915013e-05
1.701773431e-05
1.77531951e-05
1.821039e-05
1.846459415e-05
1.857678279e-05
1.859373153e-05
1.855053278e-05
1.847534999e-05
1.840091407e-05
9.79103003e-06
1.546823409e-05
2.010523683e-05
2.328946653e-05
2.515709229e-05
2.602274272e-05
2.620129875e-05
2.594571449e-05
2.543861292e-05
2.480342781e-05
2.411967228e-05
2.343680038e-05
2.278643259e-05
2.219880074e-05
2.174928048e-05
1.819948708e-05
2.640173624e-05
3.099769781e-05
3.294990738e-05
3.326961516e-05
3.267633229e-05
3.162160872e-05
3.037219608e-05
2.907931193e-05
2.782504187e-05
2.665110897e-05
2.557663625e-05
2.461092427e-05
2.377162194e-05
2.314451213e-05
9.790998038e-06
1.546813687e-05
2.010505052e-05
2.328919932e-05
2.515676583e-05
2.602238003e-05
2.620091387e-05
2.594532447e-05
2.543822101e-05
2.480304349e-05
2.41193015e-05
2.343643499e-05
2.278608082e-05
2.219845955e-05
2.174894127e-05
4.471754548e-06
7.103606316e-06
9.857433303e-06
1.234407635e-05
1.437669413e-05
1.591879914e-05
1.701731363e-05
1.775272571e-05
1.820988893e-05
1.846407273e-05
1.857624936e-05
1.859319442e-05
1.85499921e-05
1.84748077e-05
1.840036863e-05
3.336204758e-06
4.645243607e-06
6.065110113e-06
7.475416003e-06
8.794233508e-06
9.977363669e-06
1.100922483e-05
1.189258506e-05
1.264019815e-05
1.326899344e-05
1.37963541e-05
1.423727132e-05
1.459892068e-05
1.485853844e-05
2.048574034e-06
2.72865535e-06
3.568597177e-06
4.520580966e-06
5.533176628e-06
6.560437956e-06
7.566169636e-06
8.524759851e-06
9.420072282e-06
1.024348151e-05
1.099147075e-05
1.166202145e-05
1.224467114e-05
1.268023044e-05
1.289224742e-06
1.549977964e-06
1.935519243e-06
2.448064505e-06
3.075357035e-06
3.795459846e-06
4.581975985e-06
5.408255772e-06
6.250138357e-06
7.087348101e-06
7.903801976e-06
8.686870635e-06
9.42439309e-06
1.009296801e-05
1.06082586e-05
1.56551493e-06
2.058468186e-06
2.733848584e-06
3.555909533e-06
4.474855085e-06
5.44096176e-06
6.412554449e-06
7.358775891e-06
8.259149844e-06
9.101701192e-06
9.880651379e-06
1.059400981e-05
1.124008578e-05
1.180765457e-05
1.223581941e-05
2.276868155e-06
3.336071324e-06
4.645167887e-06
6.065098426e-06
7.475470973e-06
8.794351653e-06
9.977538916e-06
1.100944967e-05
1.189285358e-05
1.264050305e-05
1.326932658e-05
1.379671215e-05
1.423764894e-05
1.45993141e-05
1.485895128e-05
3.600133056e-06
5.602779781e-06
7.774996479e-06
9.835535772e-06
1.163093876e-05
1.310877765e-05
1.427757557e-05
1.517508419e-05
1.584844432e-05
1.634364678e-05
1.670092985e-05
1.695343685e-05
1.71274718e-05
1.724300421e-05
1.731123806e-05
4.978248195e-06
7.736994725e-06
1.034693477e-05
1.255239936e-05
1.429726336e-05
1.561809258e-05
1.65839256e-05
1.726764321e-05
1.773434849e-05
1.803791929e-05
1.822110217e-05
1.831708569e-05
1.835161962e-05
1.834609307e-05
1.832370481e-05
3.600108711e-06
5.602731127e-06
7.774912039e-06
9.835414056e-06
1.163078256e-05
1.310859266e-05
1.427736646e-05
1.517485657e-05
1.584819976e-05
1.634339516e-05
1.67006715e-05
1.695317392e-05
1.712720702e-05
1.724273477e-05
1.731096525e-05
2.276870983e-06
3.336063734e-06
4.645128297e-06
6.06501135e-06
7.475330249e-06
8.79415807e-06
9.977295336e-06
1.100916312e-05
1.189252909e-05
1.264014789e-05
1.326894716e-05
1.379631225e-05
1.423723246e-05
1.459888415e-05
1.485850524e-05
1.565539996e-06
2.058492803e-06
2.733855233e-06
3.555883503e-06
4.47478513e-06
5.440841183e-06
6.412381789e-06
7.358550279e-06
8.258873708e-06
9.101377139e-06
9.880284245e-06
1.059360256e-05
1.123964244e-05
1.180717773e-05
1.223531265e-05
1.550017548e-06
1.935547393e-06
2.448072853e-06
3.075335732e-06
3.795398969e-06
4.581868605e-06
5.408095947e-06
6.249923955e-06
7.087076932e-06
7.903473165e-06
8.686487108e-06
9.42395673e-06
1.009248067e-05
1.060772257e-05
1.16874589e-06
1.32401785e-06
1.565034584e-06
1.904809601e-06
2.347280049e-06
2.88742748e-06
3.513046572e-06
4.207239926e-06
4.950912106e-06
5.724813832e-06
6.510883284e-06
7.292502888e-06
8.052067201e-06
8.758523205e-06
9.312771918e-06
1.289225508e-06
1.549978005e-06
1.935517238e-06
2.448058589e-06
3.075345501e-06
3.795441106e-06
4.581948237e-06
5.408217188e-06
6.250089085e-06
7.087288034e-06
7.903730144e-06
8.686787908e-06
9.424299621e-06
1.009286251e-05
1.060813827e-05
1.558631505e-06
2.04850402e-06
2.728592232e-06
3.568553825e-06
4.52056758e-06
5.533199074e-06
6.560500169e-06
7.566273029e-06
8.52490372e-06
9.420255512e-06
1.02436991e-05
1.099172053e-05
1.166230068e-05
1.224497623e-05
1.268055735e-05
1.962609279e-06
2.777817723e-06
3.832658145e-06
5.041356737e-06
6.315092243e-06
7.580220421e-06
8.784150236e-06
9.894276048e-06
1.089406573e-05
1.177859987e-05
1.255060137e-05
1.321710028e-05
1.378600584e-05
1.425863498e-05
1.460003251e-05
2.265095461e-06
3.297563674e-06
4.557659127e-06
5.929719914e-06
7.316821734e-06
8.649207316e-06
9.882633559e-06
1.099331145e-05
1.197237849e-05
1.28210785e-05
1.354691483e-05
1.416065526e-05
1.467340387e-05
1.509048241e-05
1.538660812e-05
1.962600289e-06
2.777799383e-06
3.832625549e-06
5.041305575e-06
6.315019465e-06
7.58012534e-06
8.78403295e-06
9.894138461e-06
1.089390857e-05
1.17784265e-05
1.25504103e-05
1.321689819e-05
1.378579245e-05
1.425841352e-05
1.459980289e-05
1.558627469e-06
2.048494204e-06
2.72856906e-06
3.568508839e-06
4.520493229e-06
5.533090947e-06
6.560355687e-06
7.566091511e-06
8.524685749e-06
9.420003819e-06
1.024341624e-05
1.099141017e-05
1.166196406e-05
1.224461617e-05
1.26801771e-05
1.289227177e-06
1.549979182e-06
1.935510907e-06
2.448036397e-06
3.075298773e-06
3.795362205e-06
4.58183127e-06
5.408058897e-06
6.249887323e-06
7.087041518e-06
7.903439447e-06
8.686455498e-06
9.423926665e-06
1.009245316e-05
1.060769558e-05
1.168753489e-06
1.324027923e-06
1.565042028e-06
1.904807308e-06
2.347259986e-06
2.88738107e-06
3.512965606e-06
4.207118242e-06
4.950743983e-06
5.724595402e-06
6.510612236e-06
7.29217828e-06
8.051687814e-06
8.758092502e-06
9.312290195e-06
)
;

boundaryField
{
    top
    {
        type            zeroGradient;
    }
    bottom
    {
        type            zeroGradient;
    }
    side-walls
    {
        type            zeroGradient;
    }
    inlet
    {
        type            zeroGradient;
    }
    outlet
    {
        type            zeroGradient;
    }
    procBoundary1to0
    {
        type            processor;
        value           nonuniform List<scalar> 
97
(
1.168754005e-06
1.168754005e-06
1.289227004e-06
1.55862024e-06
1.962573175e-06
2.265037367e-06
1.962557797e-06
1.558602245e-06
1.289210177e-06
1.168737956e-06
1.134786034e-06
1.565543555e-06
1.565543555e-06
1.565543555e-06
2.276864306e-06
3.600045413e-06
4.978033667e-06
3.599997669e-06
2.276804818e-06
1.565485163e-06
1.28921094e-06
1.257012096e-06
1.572678013e-06
4.471762571e-06
4.471762571e-06
4.471762571e-06
9.790849507e-06
1.819834267e-05
9.790516448e-06
4.471429571e-06
2.276799904e-06
1.558603481e-06
1.435822305e-06
2.128411231e-06
4.546926583e-06
3.099470311e-05
3.099470311e-05
3.099470311e-05
9.029869454e-05
3.099240783e-05
9.790543084e-06
3.600003615e-06
1.962564291e-06
1.563270735e-06
2.651751002e-06
7.227678715e-06
2.530727052e-05
0.0005761311311
0.0005761311311
0.0005761311311
9.029915609e-05
9.029915609e-05
1.81984211e-05
4.978049865e-06
2.265041837e-06
1.435824582e-06
2.128420885e-06
4.547006532e-06
1.156513336e-05
2.530753833e-05
1.156487774e-05
9.791297919e-06
9.791297919e-06
9.791297919e-06
3.600113157e-06
1.962584816e-06
1.25701407e-06
1.572691352e-06
2.496344982e-06
4.547002943e-06
7.227649762e-06
4.546947312e-06
2.496313468e-06
2.276923376e-06
2.276923376e-06
2.276923376e-06
1.55863301e-06
1.134788372e-06
1.259457174e-06
1.572691694e-06
2.128424045e-06
2.651744009e-06
2.128406519e-06
1.57268092e-06
1.259452687e-06
1.289240624e-06
1.289240624e-06
1.289240624e-06
1.079388432e-06
1.134788758e-06
1.257015963e-06
1.435827851e-06
1.563269965e-06
1.435822372e-06
1.257011828e-06
1.134786711e-06
1.079388e-06
)
;
    }
}


// ************************************************************************* //
