/*--------------------------------*- C++ -*----------------------------------*\
| =========                 |                                                 |
| \\      /  F ield         | OpenFOAM: The Open Source CFD Toolbox           |
|  \\    /   O peration     | Version:  4.x                                   |
|   \\  /    A nd           | Web:      www.OpenFOAM.org                      |
|    \\/     M anipulation  |                                                 |
\*---------------------------------------------------------------------------*/
FoamFile
{
    version     2.0;
    format      ascii;
    class       volScalarField;
    location    "10000";
    object      molarConc;
}
// * * * * * * * * * * * * * * * * * * * * * * * * * * * * * * * * * * * * * //

dimensions      [0 -3 0 0 1 0 0];

internalField   nonuniform List<scalar> 
1174
(
9.963265067
9.963264693
9.963263202
9.96326225
9.963261032
9.963258719
9.96325526
9.963252106
9.96324891
9.963245909
9.963243875
9.963241475
9.96323808
9.963235435
9.963255212
9.963254106
9.963251509
9.963249007
9.963245753
9.963243059
9.963241007
9.963238692
9.963234761
9.963232094
9.963230644
9.96322955
9.963226317
9.963224171
9.963262663
9.963258957
9.963255831
9.96325179
9.963247423
9.9632446
9.96323966
9.963236385
9.963232239
9.963228472
9.963225658
9.963222945
9.963222032
9.963220893
9.963219459
9.963215492
9.963211098
9.963207562
9.963204366
9.963200356
9.963196013
9.96319334
9.963189414
9.963187049
9.96318472
9.963182683
9.963182295
9.963181401
9.963251341
9.963246776
9.963243046
9.963237883
9.963233703
9.963229133
9.963224661
9.963221194
9.963218417
9.963215839
9.963213389
9.963211628
9.96321016
9.963209253
9.963320188
9.96331611
9.963311225
9.963304925
9.96330081
9.963296622
9.963293238
9.963289478
9.963286917
9.963284454
9.96328139
9.963279263
9.963276221
9.963274921
9.963315158
9.963312737
9.963308205
9.963306589
9.963303291
9.963299612
9.963295184
9.963291817
9.963288886
9.963285756
9.963284163
9.963280688
9.963279804
9.963277608
9.963268685
9.963266236
9.963265066
9.963262087
9.963257973
9.963254697
9.963251743
9.963248177
9.963243766
9.963239573
9.963237139
9.963234695
9.963232789
9.963230318
9.963263884
9.963262652
9.963262116
9.963261395
9.963260053
9.963257866
9.963254615
9.963251541
9.96324848
9.963247331
9.963243058
9.96324057
9.963238877
9.963237372
9.963286489
9.963285531
9.963284049
9.963281656
9.963278341
9.963276178
9.963272917
9.96326991
9.963268003
9.963263506
9.963261047
9.963259514
9.963256177
9.96325392
9.963253293
9.963253856
9.963250719
9.96324746
9.963243441
9.963240006
9.963236628
9.963233133
9.963229486
9.96322691
9.963223028
9.963219451
9.963216291
9.963214685
9.963214572
9.963231173
9.963225944
9.963220182
9.963215166
9.96321082
9.963207579
9.963204158
9.963200707
9.963196737
9.96319518
9.963195314
9.963194395
9.963194864
9.963194562
9.963267924
9.963258971
9.963250863
9.963243285
9.963237806
9.963234485
9.963230929
9.963228006
9.963227426
9.963226298
9.963225836
9.963224676
9.963222864
9.963221746
9.963256017
9.963246676
9.963238345
9.963232732
9.963228234
9.963225791
9.963223314
9.963223495
9.963223103
9.96322108
9.963222376
9.963222893
9.963222458
9.963223125
9.963214621
9.963207876
9.963198997
9.963193262
9.963189296
9.96318452
9.963181525
9.963178029
9.963176807
9.963175854
9.963174845
9.963175594
9.963175623
9.963175208
9.963183013
9.963176832
9.963172721
9.96316628
9.96316139
9.963157468
9.96315561
9.963152348
9.963151479
9.963147808
9.963146885
9.963144084
9.963143035
9.963142521
9.963322191
9.963318808
9.963315999
9.963312734
9.963310095
9.963307054
9.963304447
9.963301577
9.96329981
9.963296292
9.963294518
9.963292366
9.963289316
9.963287678
9.963256577
9.963255664
9.963253571
9.963252307
9.963248383
9.963244826
9.963242321
9.963239247
9.963236289
9.963232597
9.963228524
9.963226145
9.963222717
9.963221171
9.96327904
9.963277657
9.963275595
9.963272358
9.963267997
9.963263614
9.963260207
9.963255333
9.963251986
9.963249399
9.963246576
9.963244351
9.963242038
9.963239215
9.963237838
9.963275836
9.963270864
9.963266835
9.963262034
9.963258369
9.963253182
9.963249197
9.96324542
9.963241094
9.963240157
9.963238177
9.963235545
9.963236397
9.96323455
9.963233448
9.963255909
9.963245441
9.963237394
9.963229887
9.963224992
9.963221722
9.963219811
9.963218976
9.96321665
9.963216303
9.963216623
9.963215937
9.963217609
9.963217778
9.963228608
9.963212547
9.963199498
9.96319131
9.963187905
9.963187682
9.963190109
9.963192695
9.963197153
9.963200942
9.963202165
9.963205456
9.963207835
9.963208851
9.96315422
9.963137336
9.963130066
9.963128751
9.963130247
9.963133839
9.963139648
9.963144259
9.963148507
9.963152611
9.963156875
9.963159761
9.963163053
9.963164914
9.9632549
9.963237769
9.963226503
9.96321852
9.963216833
9.963216578
9.963216738
9.963218251
9.96322177
9.963223991
9.963227135
9.963228284
9.96323082
9.963233345
9.963267194
9.96325827
9.963249617
9.963240889
9.963234542
9.963229904
9.963227852
9.963225178
9.96322357
9.963224575
9.963224076
9.963223545
9.963223841
9.963223215
9.963276836
9.96327186
9.963266745
9.963261903
9.963256681
9.963250549
9.963246237
9.96324121
9.963240158
9.96323713
9.963235989
9.963236184
9.963233415
9.963233717
9.963297395
9.96329448
9.963290691
9.963286988
9.963284528
9.963280879
9.963278459
9.963274958
9.963270689
9.963268045
9.96326459
9.963261565
9.963259382
9.963257967
9.963289129
9.963285801
9.96328172
9.963276518
9.963272818
9.963269273
9.963265674
9.963262802
9.963259137
9.963255668
9.96325157
9.963249012
9.963246517
9.963245609
9.963244997
9.963287511
9.963279914
9.963272076
9.963265258
9.963259107
9.963254378
9.963250633
9.963248738
9.963246543
9.963244297
9.963244098
9.963243693
9.963241906
9.963240002
9.96323992
9.963319191
9.963298093
9.963281037
9.963269202
9.963263333
9.963259214
9.963258845
9.96325989
9.963260833
9.963263643
9.963265733
9.963269372
9.96327145
9.963275227
9.963276544
9.963104867
9.963083701
9.963080947
9.963085925
9.963096207
9.963106771
9.963117631
9.96312772
9.963137023
9.963144334
9.963150431
9.963157217
9.963162337
9.963166688
9.962931499
9.962957996
9.962999847
9.963036919
9.963070972
9.96309893
9.96312059
9.963139144
9.963153412
9.963165873
9.963175929
9.963184303
9.963190183
9.96319485
9.963113644
9.963092385
9.963089231
9.963096089
9.9631053
9.963117576
9.963129671
9.963140346
9.963149271
9.96315613
9.96316439
9.963170096
9.963175483
9.963177451
9.963217214
9.963200539
9.96318783
9.963183176
9.963179038
9.963177107
9.963179097
9.963180549
9.963183306
9.963185399
9.963188484
9.963191315
9.963193863
9.963195459
9.963236153
9.963228059
9.96322061
9.9632134
9.963207842
9.963203635
9.963200567
9.963200282
9.963198362
9.96319681
9.963194598
9.963193733
9.963193117
9.963192012
9.963251322
9.963248173
9.963243964
9.963239877
9.963235506
9.963231562
9.963227044
9.963223363
9.963220235
9.963218044
9.963216832
9.963215749
9.963213666
9.963213221
9.96326668
9.963262228
9.963259129
9.963254156
9.963249731
9.963245434
9.963241283
9.963237468
9.963233681
9.963231521
9.963226809
9.963225602
9.963225
9.963223439
9.96322185
9.963277013
9.963266781
9.963257072
9.963249869
9.963244514
9.963240361
9.963237704
9.963236416
9.963233825
9.963230762
9.963229212
9.963228533
9.963228518
9.963228768
9.963230042
9.963136292
9.963107227
9.963089605
9.963083015
9.963081713
9.963085152
9.963088657
9.963094115
9.963097995
9.963102377
9.963107646
9.963111867
9.963116058
9.963118234
9.963120587
9.962928521
9.962893034
9.962920505
9.962961172
9.962999202
9.963032382
9.963059875
9.963081184
9.963099907
9.963114457
9.963127128
9.963135239
9.963143095
9.963150034
9.963156795
9.986620399
9.987078659
9.987341057
9.987500398
9.98760354
9.987676275
9.987731599
9.987774221
9.987810327
9.987840606
9.987867053
9.987893702
9.987918098
9.987938681
9.962922825
9.962950705
9.962990909
9.963029378
9.963063078
9.963090013
9.963110531
9.963126604
9.9631416
9.963152312
9.963162577
9.963170866
9.963176135
9.963180134
9.963190887
9.963171905
9.963165496
9.963165005
9.963167215
9.96317101
9.963177157
9.963182395
9.963187201
9.963192053
9.963195024
9.963197354
9.963200651
9.963203363
9.963284757
9.963275099
9.963266339
9.963261354
9.963255826
9.963252768
9.963250391
9.963248403
9.963245551
9.963245727
9.963244741
9.963245663
9.963246129
9.963247318
9.963283152
9.963278407
9.963272974
9.963266872
9.963262028
9.963257192
9.963254121
9.963251751
9.963248153
9.963246485
9.963243791
9.963241597
9.963242594
9.963243959
9.963290915
9.963288004
9.963283646
9.96328035
9.963277006
9.963271391
9.963267745
9.963265376
9.963259951
9.963258141
9.963255127
9.963253591
9.96325235
9.963250542
9.963250317
9.963321285
9.963312615
9.963304507
9.963297619
9.963291358
9.963284708
9.963280421
9.963276019
9.963271719
9.963270945
9.963267705
9.963267393
9.963266079
9.963266315
9.963265409
9.963266757
9.963246117
9.963229993
9.963218382
9.963212143
9.963209211
9.96320841
9.963209774
9.963210112
9.963211543
9.963214447
9.963217684
9.963219684
9.963221224
9.963222094
9.963200044
9.963151541
9.963129694
9.963125645
9.963132967
9.963144244
9.963155176
9.963166967
9.96317797
9.963188567
9.963197508
9.963205166
9.963210213
9.963216037
9.963220543
9.962976011
9.96293803
9.962965885
9.963006903
9.963045531
9.96307807
9.963103987
9.963125551
9.963143645
9.963155384
9.963165855
9.963174002
9.96318259
9.963188997
9.963193671
9.963193843
9.963145572
9.963125192
9.963120478
9.963125819
9.963136226
9.963147916
9.963159893
9.963171454
9.963180701
9.963188716
9.963194904
9.963201159
9.963207194
9.963212279
9.963207717
9.963190845
9.963179359
9.963173121
9.963171204
9.963171273
9.963172415
9.963172448
9.963173822
9.963176946
9.963180134
9.963184011
9.963186599
9.963187292
9.963276719
9.963267611
9.963259216
9.963253217
9.963247736
9.963243815
9.963239035
9.963236752
9.963236343
9.963235015
9.963234689
9.963233724
9.963232818
9.963232738
9.963291891
9.963288169
9.963283401
9.963278625
9.963273613
9.963269505
9.963264354
9.963262272
9.963258986
9.96325674
9.963254109
9.963252074
9.963249717
9.963249051
9.9633219
9.963321229
9.963317422
9.963314094
9.963312248
9.963309264
9.963306407
9.963303479
9.963299438
9.963296924
9.963295205
9.963293141
9.963289546
9.963287194
9.9632861
9.96324346
9.96324088
9.963236096
9.963232035
9.963226195
9.96322191
9.963217519
9.963213254
9.963208984
9.963206269
9.963203329
9.963200862
9.963199121
9.963199596
9.963198801
9.963192433
9.963181312
9.963171973
9.963162905
9.963154121
9.963149055
9.963145808
9.963141493
9.963139424
9.963138673
9.963137326
9.963137017
9.963137739
9.963139671
9.96313955
9.963241963
9.96322127
9.963205177
9.963193072
9.963184435
9.963181475
9.963182477
9.963182707
9.963185199
9.963187602
9.963191335
9.963194902
9.963196626
9.963198913
9.963200926
9.963253916
9.963225061
9.963209475
9.963201496
9.963200839
9.963202898
9.963206253
9.963211652
9.963216228
9.963221733
9.963225621
9.96322966
9.963233211
9.963235765
9.963237079
9.963253666
9.96323295
9.963214616
9.963203827
9.963197389
9.96319457
9.963193489
9.963193706
9.963193872
9.963196385
9.963201117
9.963203114
9.963205084
9.96320701
9.963207851
9.963255293
9.963246106
9.963235485
9.963225437
9.963217789
9.963212037
9.963208459
9.963205783
9.963205245
9.963205101
9.963205396
9.963205351
9.963205253
9.963205052
9.963206549
9.96330337
9.963297825
9.963293697
9.963289133
9.963284144
9.963278474
9.9632768
9.963273117
9.963270113
9.963267374
9.963264268
9.963261355
9.96325974
9.963259281
9.963249237
9.963246694
9.963242743
9.963238889
9.96323509
9.96323183
9.963228618
9.963226464
9.963222713
9.963220636
9.963217744
9.963215481
9.963213722
9.963211381
9.963246251
9.963245093
9.963243287
9.963241476
9.963238307
9.963235616
9.963233377
9.963229839
9.963226109
9.963221572
9.963219205
9.963217048
9.96321459
9.963212102
9.9632111
9.963260113
9.963258076
9.963254993
9.963251037
9.963248488
9.963246061
9.963243293
9.963240739
9.963238625
9.963234915
9.963232532
9.963229979
9.963226515
9.963225678
9.963225204
9.963264482
9.963260471
9.963254759
9.963250008
9.963244326
9.963238805
9.963233657
9.963229927
9.963226739
9.963223526
9.963221809
9.96321987
9.963218019
9.963216155
9.963215666
9.963248658
9.963242877
9.963236744
9.963229539
9.963223577
9.963216884
9.963212702
9.963208481
9.963206229
9.963204055
9.963202465
9.963200269
9.963199595
9.963200297
9.963198548
9.963232514
9.963222249
9.963213665
9.963205905
9.963199726
9.963194709
9.963190303
9.963187634
9.963184508
9.963183918
9.963183149
9.963182658
9.963182195
9.963183495
9.96318439
9.963290081
9.963283283
9.963276239
9.963268061
9.963261036
9.963256842
9.96325284
9.963251147
9.963248046
9.963245639
9.96324436
9.96324262
9.963242587
9.963241567
9.963240062
9.963291437
9.963286982
9.963281559
9.963277927
9.963272385
9.963269221
9.96326461
9.963259456
9.963256392
9.963253896
9.963250541
9.963248167
9.963246284
9.963243625
9.963243438
9.963271846
9.963269216
9.963267103
9.963264667
9.963261932
9.963257976
9.963254129
9.963249692
9.963245865
9.963242804
9.963240661
9.963238018
9.963236143
9.963234263
9.963234122
9.963221867
9.963219921
9.963220131
9.963217813
9.963214626
9.963211765
9.963210133
9.963207951
9.963204753
9.963200966
9.963198122
9.96319473
9.963191128
9.963188729
9.963292963
9.963292688
9.963290499
9.963289043
9.963287916
9.963284963
9.963282845
9.96328117
9.963278415
9.963275301
9.963273386
9.963271387
9.963268168
9.963265585
9.963264517
9.963257709
9.963257078
9.963256729
9.96325406
9.963252602
9.963249109
9.96324716
9.963243545
9.963239518
9.963237071
9.963235027
9.963233421
9.963231812
9.963229017
9.963226876
9.963288156
9.963285599
9.96328352
9.963279365
9.963277369
9.963273163
9.963268943
9.963265596
9.963262783
9.963258431
9.963255547
9.963252034
9.963249246
9.963246423
9.963245226
9.963236606
9.963233745
9.963230029
9.963225828
9.963221679
9.96321712
9.963212351
9.963208214
9.963203443
9.963200929
9.96319817
9.963194891
9.963192888
9.963190956
9.963188915
9.963278323
9.963274425
9.963269935
9.963263928
9.9632598
9.963256145
9.963250952
9.963246353
9.963242858
9.963239812
9.963238104
9.963235144
9.963233726
9.963231776
9.963230059
9.963220369
9.963217499
9.963213218
9.9632091
9.963203129
9.963197568
9.963193558
9.963188589
9.96318628
9.963184462
9.963180653
9.963179961
9.963177045
9.963175536
9.96317477
9.963269564
9.963267713
9.963265276
9.96326228
9.963259707
9.963255244
9.963251402
9.963248164
9.963243736
9.963239728
9.963236824
9.963235195
9.963231869
9.963229518
9.963227763
9.963300321
9.963299629
9.963298855
9.96329684
9.963294239
9.963292033
9.963289064
9.963286328
9.963283171
9.963281909
9.963279363
9.963275859
9.963273606
9.963270591
9.963267351
9.963279801
9.963279371
9.963278335
9.96327697
9.963275705
9.963272852
9.963270773
9.963268306
9.963265379
9.963262775
9.963260676
9.963257616
9.963253995
9.963251936
9.963250441
)
;

boundaryField
{
    top
    {
        type            calculated;
        value           nonuniform List<scalar> 
127
(
9.963279801
9.963263884
9.963256577
9.963297395
9.963251322
9.963283152
9.963291891
9.963249237
9.963221867
9.963279371
9.963262652
9.963255664
9.96329448
9.963248173
9.963278407
9.963288169
9.963246694
9.963219921
9.963278335
9.963262116
9.963253571
9.963290691
9.963243964
9.963272974
9.963283401
9.963242743
9.963220131
9.96327697
9.963261395
9.963252307
9.963286988
9.963239877
9.963266872
9.963278625
9.963238889
9.963217813
9.963275705
9.963260053
9.963248383
9.963284528
9.963235506
9.963262028
9.963273613
9.96323509
9.963214626
9.963272852
9.963257866
9.963244826
9.963280879
9.963231562
9.963257192
9.963269505
9.96323183
9.963211765
9.963270773
9.963254615
9.963242321
9.963278459
9.963227044
9.963254121
9.963264354
9.963228618
9.963210133
9.963268306
9.963251541
9.963239247
9.963274958
9.963223363
9.963251751
9.963262272
9.963226464
9.963207951
9.963265379
9.96324848
9.963236289
9.963270689
9.963220235
9.963248153
9.963258986
9.963222713
9.963204753
9.963262775
9.963247331
9.963232597
9.963268045
9.963218044
9.963246485
9.96325674
9.963220636
9.963200966
9.963260676
9.963243058
9.963228524
9.96326459
9.963216832
9.963243791
9.963254109
9.963217744
9.963198122
9.963257616
9.96324057
9.963226145
9.963261565
9.963215749
9.963241597
9.963252074
9.963215481
9.96319473
9.963253995
9.963238877
9.963222717
9.963259382
9.963213666
9.963242594
9.963249717
9.963213722
9.963191128
9.963251936
9.963237372
9.963221171
9.963257967
9.963213221
9.963243959
9.963249051
9.963211381
9.963188729
9.963250441
)
;
    }
    bottom
    {
        type            calculated;
        value           nonuniform List<scalar> 
134
(
9.963286489
9.96327904
9.963289129
9.96326668
9.963290915
9.9633219
9.963246251
9.963292963
9.963265067
9.963285531
9.963277657
9.963285801
9.963262228
9.963288004
9.963321229
9.963245093
9.963292688
9.963264693
9.963284049
9.963275595
9.96328172
9.963259129
9.963283646
9.963317422
9.963243287
9.963290499
9.963263202
9.963281656
9.963272358
9.963276518
9.963254156
9.96328035
9.963314094
9.963241476
9.963289043
9.96326225
9.963278341
9.963267997
9.963272818
9.963249731
9.963277006
9.963312248
9.963238307
9.963287916
9.963261032
9.963276178
9.963263614
9.963269273
9.963245434
9.963271391
9.963309264
9.963235616
9.963284963
9.963258719
9.963272917
9.963260207
9.963265674
9.963241283
9.963267745
9.963306407
9.963233377
9.963282845
9.96325526
9.96326991
9.963255333
9.963262802
9.963237468
9.963265376
9.963303479
9.963229839
9.96328117
9.963252106
9.963268003
9.963251986
9.963259137
9.963233681
9.963259951
9.963299438
9.963226109
9.963278415
9.96324891
9.963263506
9.963249399
9.963255668
9.963231521
9.963258141
9.963296924
9.963221572
9.963275301
9.963245909
9.963261047
9.963246576
9.96325157
9.963226809
9.963255127
9.963295205
9.963219205
9.963273386
9.963243875
9.963259514
9.963244351
9.963249012
9.963225602
9.963253591
9.963293141
9.963217048
9.963271387
9.963241475
9.963256177
9.963242038
9.963246517
9.963225
9.96325235
9.963289546
9.96321459
9.963268168
9.96323808
9.96325392
9.963239215
9.963245609
9.963223439
9.963250542
9.963287194
9.963212102
9.963265585
9.963235435
9.963253293
9.963237838
9.963244997
9.96322185
9.963250317
9.9632861
9.9632111
9.963264517
)
;
    }
    side-walls
    {
        type            calculated;
        value           nonuniform List<scalar> 
261
(
9.963265067
9.963255212
9.963262663
9.963219459
9.963251341
9.963320188
9.963315158
9.963268685
9.963263884
9.963264693
9.963254106
9.963258957
9.963215492
9.963246776
9.96331611
9.963312737
9.963266236
9.963262652
9.963263202
9.963251509
9.963255831
9.963211098
9.963243046
9.963311225
9.963308205
9.963265066
9.963262116
9.96326225
9.963249007
9.96325179
9.963207562
9.963237883
9.963304925
9.963306589
9.963262087
9.963261395
9.963261032
9.963245753
9.963247423
9.963204366
9.963233703
9.96330081
9.963303291
9.963257973
9.963260053
9.963258719
9.963243059
9.9632446
9.963200356
9.963229133
9.963296622
9.963299612
9.963254697
9.963257866
9.96325526
9.963241007
9.96323966
9.963196013
9.963224661
9.963293238
9.963295184
9.963251743
9.963254615
9.963252106
9.963238692
9.963236385
9.96319334
9.963221194
9.963289478
9.963291817
9.963248177
9.963251541
9.96324891
9.963234761
9.963232239
9.963189414
9.963218417
9.963286917
9.963288886
9.963243766
9.96324848
9.963245909
9.963232094
9.963228472
9.963187049
9.963215839
9.963284454
9.963285756
9.963239573
9.963247331
9.963243875
9.963230644
9.963225658
9.96318472
9.963213389
9.96328139
9.963284163
9.963237139
9.963243058
9.963241475
9.96322955
9.963222945
9.963182683
9.963211628
9.963279263
9.963280688
9.963234695
9.96324057
9.96323808
9.963226317
9.963222032
9.963182295
9.96321016
9.963276221
9.963279804
9.963232789
9.963238877
9.963235435
9.963224171
9.963220893
9.963181401
9.963209253
9.963274921
9.963277608
9.963230318
9.963237372
9.963292963
9.963257709
9.963288156
9.963236606
9.963278323
9.963220369
9.963269564
9.963300321
9.963279801
9.963292688
9.963257078
9.963285599
9.963233745
9.963274425
9.963217499
9.963267713
9.963299629
9.963279371
9.963290499
9.963256729
9.96328352
9.963230029
9.963269935
9.963213218
9.963265276
9.963298855
9.963278335
9.963289043
9.96325406
9.963279365
9.963225828
9.963263928
9.9632091
9.96326228
9.96329684
9.96327697
9.963287916
9.963252602
9.963277369
9.963221679
9.9632598
9.963203129
9.963259707
9.963294239
9.963275705
9.963284963
9.963249109
9.963273163
9.96321712
9.963256145
9.963197568
9.963255244
9.963292033
9.963272852
9.963282845
9.96324716
9.963268943
9.963212351
9.963250952
9.963193558
9.963251402
9.963289064
9.963270773
9.96328117
9.963243545
9.963265596
9.963208214
9.963246353
9.963188589
9.963248164
9.963286328
9.963268306
9.963278415
9.963239518
9.963262783
9.963203443
9.963242858
9.96318628
9.963243736
9.963283171
9.963265379
9.963275301
9.963237071
9.963258431
9.963200929
9.963239812
9.963184462
9.963239728
9.963281909
9.963262775
9.963273386
9.963235027
9.963255547
9.96319817
9.963238104
9.963180653
9.963236824
9.963279363
9.963260676
9.963271387
9.963233421
9.963252034
9.963194891
9.963235144
9.963179961
9.963235195
9.963275859
9.963257616
9.963268168
9.963231812
9.963249246
9.963192888
9.963233726
9.963177045
9.963231869
9.963273606
9.963253995
9.963265585
9.963229017
9.963246423
9.963190956
9.963231776
9.963175536
9.963229518
9.963270591
9.963251936
9.963264517
9.963226876
9.963245226
9.963188915
9.963230059
9.96317477
9.963227763
9.963267351
9.963250441
)
;
    }
    inlet
    {
        type            calculated;
        value           nonuniform 0();
    }
    outlet
    {
        type            calculated;
        value           nonuniform List<scalar> 
81
(
9.963235435
9.963224171
9.963220893
9.963181401
9.963209253
9.963274921
9.963277608
9.963230318
9.963237372
9.963253293
9.963214572
9.963194562
9.963221746
9.963223125
9.963175208
9.963142521
9.963287678
9.963221171
9.963237838
9.963233448
9.963217778
9.963208851
9.963164914
9.963233345
9.963223215
9.963233717
9.963257967
9.963244997
9.96323992
9.963276544
9.963166688
9.96319485
9.963177451
9.963195459
9.963192012
9.963213221
9.96322185
9.963230042
9.963120587
9.963156795
9.987938681
9.963180134
9.963203363
9.963247318
9.963243959
9.963250317
9.963265409
9.963222094
9.963220543
9.963193671
9.963212279
9.963187292
9.963232738
9.963249051
9.9632861
9.963198801
9.96313955
9.963200926
9.963237079
9.963207851
9.963206549
9.963259281
9.963211381
9.9632111
9.963225204
9.963215666
9.963198548
9.96318439
9.963240062
9.963243438
9.963234122
9.963188729
9.963264517
9.963226876
9.963245226
9.963188915
9.963230059
9.96317477
9.963227763
9.963267351
9.963250441
)
;
    }
    procBoundary1to0
    {
        type            processor;
        value           nonuniform List<scalar> 
97
(
9.963265971
9.963265971
9.963254752
9.963264863
9.963223055
9.9632559
9.963322846
9.96331718
9.963268908
9.963264516
9.963286994
9.963255059
9.963255059
9.963255059
9.963233279
9.963273339
9.96326623
9.963223873
9.963187577
9.963324293
9.963258094
9.963279514
9.963278461
9.963265036
9.963265036
9.963265036
9.963249222
9.9631826
9.963274473
9.96327796
9.963281429
9.963297975
9.963290889
9.963291116
9.963339018
9.963151722
9.963151722
9.963151722
9.962967575
9.963160965
9.96323762
9.963242892
9.963254928
9.963270102
9.963286856
9.963174811
9.963154264
9.985784466
9.985784466
9.985784466
9.96295702
9.96295702
9.963220688
9.963295834
9.963286774
9.963293668
9.963326111
9.96328526
9.963268157
9.963199672
9.963265902
9.963229202
9.963229202
9.963229202
9.963284544
9.963294756
9.963324085
9.963245175
9.963197993
9.963261015
9.96329327
9.963271237
9.963261341
9.963305984
9.963305984
9.963305984
9.963249962
9.963247309
9.963262055
9.963267546
9.963254173
9.963241324
9.963295361
9.963292551
9.963273357
9.963222586
9.963222586
9.963222586
9.963292862
9.963257578
9.963290227
9.963239794
9.963281623
9.96322238
9.963271123
9.963300903
9.963281097
)
;
    }
}


// ************************************************************************* //
