/*--------------------------------*- C++ -*----------------------------------*\
| =========                 |                                                 |
| \\      /  F ield         | OpenFOAM: The Open Source CFD Toolbox           |
|  \\    /   O peration     | Version:  4.x                                   |
|   \\  /    A nd           | Web:      www.OpenFOAM.org                      |
|    \\/     M anipulation  |                                                 |
\*---------------------------------------------------------------------------*/
FoamFile
{
    version     2.0;
    format      ascii;
    class       volScalarField;
    location    "10000";
    object      N2;
}
// * * * * * * * * * * * * * * * * * * * * * * * * * * * * * * * * * * * * * //

dimensions      [0 0 0 0 0 0 0];

internalField   nonuniform List<scalar> 
1174
(
0.6030933636
0.6030929599
0.6030923908
0.6030916497
0.603090745
0.603089697
0.6030885342
0.6030872885
0.6030859921
0.6030846753
0.6030833659
0.6030820935
0.6030809099
0.6030799813
0.6030929851
0.6030923394
0.603091481
0.6030904303
0.6030892242
0.6030879068
0.6030865227
0.6030851125
0.6030837101
0.6030823423
0.6030810305
0.6030797949
0.6030786748
0.6030778115
0.6030921502
0.6030910112
0.6030896043
0.6030880098
0.6030863136
0.6030845929
0.6030829081
0.6030813023
0.6030798024
0.6030784229
0.6030771697
0.6030760462
0.6030750699
0.60307434
0.6030909288
0.6030891621
0.6030871376
0.6030850042
0.6030828851
0.6030808684
0.6030790088
0.603077334
0.6030758522
0.6030745588
0.6030734421
0.6030724888
0.6030716968
0.6030711246
0.6030900584
0.6030879478
0.6030856497
0.6030833264
0.6030810946
0.6030790285
0.6030771679
0.6030755278
0.6030741059
0.6030728898
0.6030718615
0.6030710023
0.6030703033
0.6030698069
0.6030909288
0.6030891621
0.6030871377
0.6030850042
0.6030828852
0.6030808685
0.6030790089
0.6030773341
0.6030758523
0.6030745589
0.6030734422
0.6030724889
0.6030716969
0.6030711247
0.6030921502
0.6030910112
0.6030896044
0.6030880098
0.6030863137
0.603084593
0.6030829082
0.6030813024
0.6030798025
0.6030784231
0.6030771699
0.6030760464
0.6030750701
0.6030743402
0.6030929851
0.6030923394
0.603091481
0.6030904303
0.6030892242
0.6030879068
0.6030865228
0.6030851126
0.6030837102
0.6030823425
0.6030810307
0.6030797951
0.603078675
0.6030778117
0.6030933636
0.6030929599
0.6030923908
0.6030916497
0.603090745
0.6030896971
0.6030885343
0.6030872886
0.6030859922
0.6030846755
0.6030833661
0.6030820936
0.6030809101
0.6030799815
0.6030934219
0.6030929851
0.6030923394
0.603091481
0.6030904303
0.6030892242
0.6030879068
0.6030865227
0.6030851125
0.6030837101
0.6030823424
0.6030810305
0.603079795
0.6030786749
0.6030778115
0.6030921335
0.6030910024
0.6030896256
0.6030880864
0.6030864682
0.6030848408
0.6030832559
0.6030817476
0.6030803362
0.6030790313
0.6030778362
0.6030767537
0.6030758028
0.6030750853
0.6030899939
0.6030878014
0.6030854232
0.6030830609
0.6030808518
0.6030788699
0.6030771414
0.6030756615
0.6030744089
0.6030733554
0.6030724717
0.6030717328
0.6030711266
0.6030706914
0.6030861977
0.6030825596
0.6030791084
0.6030761012
0.6030736257
0.6030716678
0.6030701643
0.6030690361
0.6030682063
0.6030676075
0.6030671841
0.6030668922
0.6030666983
0.6030665836
0.6030826235
0.6030782521
0.6030745581
0.6030716354
0.6030694229
0.6030678049
0.6030666593
0.6030658772
0.6030653683
0.6030650611
0.6030648999
0.6030648416
0.6030648504
0.6030648875
0.6030861978
0.6030825597
0.6030791085
0.6030761013
0.6030736258
0.603071668
0.6030701644
0.6030690362
0.6030682064
0.6030676076
0.6030671843
0.6030668923
0.6030666984
0.6030665838
0.6030899939
0.6030878014
0.6030854232
0.603083061
0.6030808519
0.60307887
0.6030771415
0.6030756616
0.6030744091
0.6030733556
0.6030724719
0.603071733
0.6030711269
0.6030706917
0.6030921336
0.6030910024
0.6030896256
0.6030880865
0.6030864683
0.6030848409
0.603083256
0.6030817478
0.6030803364
0.6030790315
0.6030778364
0.603076754
0.603075803
0.6030750856
0.6030929851
0.6030923394
0.603091481
0.6030904303
0.6030892242
0.6030879068
0.6030865228
0.6030851126
0.6030837102
0.6030823426
0.6030810308
0.6030797952
0.6030786751
0.6030778118
0.6030929707
0.6030921503
0.6030910112
0.6030896044
0.6030880098
0.6030863137
0.6030845929
0.6030829082
0.6030813023
0.6030798025
0.603078423
0.6030771698
0.6030760462
0.6030750699
0.60307434
0.6030917679
0.6030899939
0.6030878014
0.6030854232
0.6030830609
0.6030808519
0.60307887
0.6030771414
0.6030756615
0.603074409
0.6030733554
0.6030724717
0.6030717328
0.6030711267
0.6030706915
0.6030836843
0.6030790721
0.6030749071
0.6030715025
0.6030689192
0.6030670789
0.6030658468
0.6030650806
0.6030646544
0.6030644661
0.6030644372
0.6030645091
0.6030646346
0.6030647589
0.6030696756
0.6030619094
0.6030565761
0.6030534477
0.6030519974
0.6030516978
0.6030521253
0.603052974
0.6030540373
0.603055182
0.6030563252
0.603057414
0.6030583977
0.6030591502
0.6030513652
0.6030436672
0.6030403969
0.6030398607
0.6030408536
0.6030426194
0.6030447113
0.603046876
0.6030489762
0.6030509418
0.6030527409
0.6030543578
0.6030557631
0.603056813
0.6030696759
0.6030619097
0.6030565764
0.603053448
0.6030519976
0.603051698
0.6030521255
0.6030529743
0.6030540375
0.6030551822
0.6030563254
0.6030574142
0.603058398
0.6030591504
0.6030836846
0.6030790723
0.6030749073
0.6030715027
0.6030689195
0.6030670792
0.603065847
0.6030650809
0.6030646547
0.6030644664
0.6030644375
0.6030645095
0.603064635
0.6030647593
0.6030899939
0.6030878014
0.6030854233
0.6030830611
0.603080852
0.6030788701
0.6030771416
0.6030756618
0.6030744092
0.6030733557
0.603072472
0.6030717331
0.603071127
0.6030706918
0.6030921502
0.6030910112
0.6030896044
0.6030880099
0.6030863138
0.603084593
0.6030829083
0.6030813025
0.6030798027
0.6030784232
0.60307717
0.6030760466
0.6030750703
0.6030743404
0.6030922942
0.6030909289
0.6030891622
0.6030871377
0.6030850043
0.6030828852
0.6030808685
0.6030790089
0.6030773341
0.6030758523
0.6030745589
0.6030734422
0.6030724889
0.6030716969
0.6030711247
0.6030895519
0.6030861978
0.6030825597
0.6030791085
0.6030761013
0.6030736258
0.6030716679
0.6030701644
0.6030690362
0.6030682064
0.6030676075
0.6030671842
0.6030668923
0.6030666983
0.6030665837
0.6030791838
0.6030696758
0.6030619095
0.6030565762
0.6030534478
0.6030519975
0.6030516978
0.6030521253
0.6030529741
0.6030540374
0.603055182
0.6030563252
0.603057414
0.6030583978
0.6030591503
0.6030217248
0.6030120166
0.6030104858
0.6030133664
0.6030182024
0.6030236129
0.6030289012
0.6030337588
0.6030380812
0.6030418635
0.603045143
0.603047964
0.6030503325
0.6030520612
0.6029278096
0.602940255
0.6029592221
0.6029773592
0.6029927457
0.6030052829
0.6030153872
0.6030235435
0.603030173
0.6030356084
0.603040102
0.6030438343
0.6030468898
0.6030490843
0.6030217258
0.6030120173
0.6030104864
0.6030133669
0.6030182029
0.6030236134
0.6030289017
0.6030337592
0.6030380815
0.6030418639
0.6030451433
0.6030479643
0.6030503328
0.6030520615
0.6030696759
0.6030619098
0.6030565765
0.6030534482
0.6030519979
0.6030516983
0.6030521258
0.6030529745
0.6030540378
0.6030551825
0.6030563257
0.6030574145
0.6030583982
0.6030591507
0.6030861978
0.6030825597
0.6030791086
0.6030761014
0.603073626
0.6030716682
0.6030701647
0.6030690365
0.6030682067
0.6030676079
0.6030671846
0.6030668927
0.6030666988
0.6030665841
0.6030909288
0.6030891621
0.6030871377
0.6030850043
0.6030828853
0.6030808687
0.6030790091
0.6030773344
0.6030758526
0.6030745592
0.6030734425
0.6030724893
0.6030716973
0.6030711252
0.6030917876
0.6030900584
0.6030879479
0.6030856498
0.6030833265
0.6030810947
0.6030790286
0.6030771681
0.6030755279
0.603074106
0.6030728899
0.6030718616
0.6030710024
0.6030703034
0.603069807
0.6030872439
0.6030826235
0.6030782522
0.6030745582
0.6030716355
0.603069423
0.603067805
0.6030666594
0.6030658773
0.6030653684
0.6030650612
0.6030649
0.6030648417
0.6030648505
0.6030648876
0.6030651025
0.6030513652
0.6030436673
0.603040397
0.6030398608
0.6030408537
0.6030426195
0.6030447114
0.6030468762
0.6030489763
0.6030509419
0.603052741
0.6030543579
0.6030557632
0.6030568131
0.6029443464
0.6029278102
0.6029402555
0.6029592224
0.6029773595
0.6029927459
0.6030052831
0.6030153873
0.6030235437
0.6030301731
0.6030356085
0.6030401021
0.6030438344
0.6030468899
0.6030490843
0.6025242262
0.6027301606
0.6028440383
0.6029106315
0.6029518454
0.6029787921
0.6029973254
0.6030106534
0.6030206076
0.6030282764
0.6030343316
0.6030391926
0.6030430756
0.6030458212
0.6029278096
0.602940256
0.6029592231
0.6029773602
0.6029927465
0.6030052836
0.6030153878
0.6030235441
0.6030301735
0.6030356088
0.6030401024
0.6030438347
0.6030468902
0.6030490846
0.6030513652
0.6030436676
0.6030403975
0.6030398614
0.6030408543
0.6030426201
0.603044712
0.6030468767
0.6030489768
0.6030509424
0.6030527415
0.6030543584
0.6030557637
0.6030568136
0.6030826235
0.6030782523
0.6030745584
0.6030716358
0.6030694233
0.6030678054
0.6030666598
0.6030658778
0.6030653689
0.6030650617
0.6030649005
0.6030648422
0.603064851
0.6030648881
0.6030900584
0.6030879479
0.6030856499
0.6030833266
0.6030810949
0.6030790288
0.6030771683
0.6030755282
0.6030741064
0.6030728904
0.603071862
0.6030710028
0.6030703039
0.6030698075
0.6030922942
0.6030909289
0.6030891622
0.6030871378
0.6030850043
0.6030828853
0.6030808686
0.603079009
0.6030773342
0.6030758524
0.603074559
0.6030734423
0.603072489
0.603071697
0.6030711249
0.6030895519
0.6030861979
0.6030825598
0.6030791086
0.6030761014
0.603073626
0.6030716681
0.6030701645
0.6030690364
0.6030682066
0.6030676077
0.6030671844
0.6030668925
0.6030666985
0.6030665839
0.6030791842
0.6030696761
0.60306191
0.6030565766
0.6030534482
0.6030519979
0.6030516982
0.6030521257
0.6030529744
0.6030540377
0.6030551823
0.6030563255
0.6030574143
0.6030583981
0.6030591505
0.6030436757
0.6030217266
0.6030120179
0.6030104869
0.6030133673
0.6030182032
0.6030236136
0.6030289018
0.6030337593
0.6030380817
0.603041864
0.6030451434
0.6030479644
0.6030503329
0.6030520615
0.6029443469
0.6029278107
0.6029402567
0.6029592236
0.6029773605
0.6029927467
0.6030052838
0.6030153879
0.6030235442
0.6030301736
0.6030356089
0.6030401025
0.6030438347
0.6030468902
0.6030490846
0.6030436755
0.6030217267
0.6030120183
0.6030104874
0.6030133678
0.6030182037
0.6030236141
0.6030289023
0.6030337597
0.6030380821
0.6030418643
0.6030451438
0.6030479647
0.6030503332
0.6030520618
0.6030696757
0.6030619099
0.6030565768
0.6030534485
0.6030519983
0.6030516987
0.6030521262
0.6030529749
0.6030540382
0.6030551828
0.603056326
0.6030574148
0.6030583985
0.603059151
0.6030861977
0.6030825597
0.6030791087
0.6030761015
0.6030736262
0.6030716684
0.6030701649
0.6030690368
0.603068207
0.6030676082
0.6030671848
0.6030668929
0.603066699
0.6030665844
0.6030909288
0.6030891621
0.6030871378
0.6030850044
0.6030828854
0.6030808688
0.6030790093
0.6030773345
0.6030758527
0.6030745594
0.6030734427
0.6030724895
0.6030716975
0.6030711254
0.6030929707
0.6030921503
0.6030910112
0.6030896044
0.6030880099
0.6030863138
0.603084593
0.6030829083
0.6030813025
0.6030798026
0.6030784232
0.60307717
0.6030760465
0.6030750702
0.6030743403
0.6030917679
0.603089994
0.6030878015
0.6030854233
0.6030830611
0.603080852
0.6030788702
0.6030771416
0.6030756618
0.6030744092
0.6030733557
0.603072472
0.6030717331
0.603071127
0.6030706918
0.6030880925
0.6030836847
0.6030790724
0.6030749075
0.6030715028
0.6030689196
0.6030670794
0.6030658472
0.603065081
0.6030646549
0.6030644665
0.6030644377
0.6030645096
0.6030646351
0.6030647594
0.6030791842
0.6030696763
0.6030619102
0.6030565769
0.6030534485
0.6030519982
0.6030516986
0.603052126
0.6030529747
0.603054038
0.6030551826
0.6030563258
0.6030574146
0.6030583983
0.6030591508
0.6030651028
0.6030513659
0.6030436682
0.603040398
0.6030398618
0.6030408546
0.6030426204
0.6030447122
0.6030468769
0.603048977
0.6030509426
0.6030527416
0.6030543585
0.6030557637
0.6030568136
0.6030791843
0.6030696764
0.6030619103
0.6030565771
0.6030534488
0.6030519985
0.6030516988
0.6030521263
0.603052975
0.6030540383
0.6030551829
0.6030563261
0.6030574148
0.6030583986
0.603059151
0.6030880924
0.6030836846
0.6030790724
0.6030749076
0.603071503
0.6030689199
0.6030670797
0.6030658475
0.6030650814
0.6030646552
0.6030644669
0.6030644381
0.60306451
0.6030646355
0.6030647598
0.6030899939
0.6030878015
0.6030854234
0.6030830612
0.6030808522
0.6030788704
0.6030771419
0.6030756621
0.6030744096
0.6030733561
0.6030724724
0.6030717335
0.6030711274
0.6030706922
0.6030921502
0.6030910112
0.6030896044
0.6030880099
0.6030863138
0.6030845932
0.6030829085
0.6030813027
0.6030798029
0.6030784235
0.6030771703
0.6030760469
0.6030750706
0.6030743408
0.6030934219
0.6030929852
0.6030923395
0.603091481
0.6030904304
0.6030892243
0.6030879069
0.6030865229
0.6030851127
0.6030837103
0.6030823426
0.6030810308
0.6030797952
0.6030786751
0.6030778118
0.6030929592
0.6030921336
0.6030910025
0.6030896257
0.6030880865
0.6030864684
0.603084841
0.6030832561
0.6030817479
0.6030803365
0.6030790316
0.6030778365
0.6030767541
0.6030758031
0.6030750857
0.6030917679
0.603089994
0.6030878015
0.6030854234
0.6030830612
0.6030808521
0.6030788703
0.6030771417
0.6030756619
0.6030744093
0.6030733558
0.6030724721
0.6030717332
0.6030711271
0.6030706919
0.6030895519
0.6030861979
0.6030825599
0.6030791088
0.6030761016
0.6030736262
0.6030716684
0.6030701649
0.6030690367
0.6030682069
0.6030676081
0.6030671847
0.6030668928
0.6030666989
0.6030665842
0.603087244
0.6030826237
0.6030782525
0.6030745586
0.603071636
0.6030694235
0.6030678055
0.60306666
0.6030658779
0.603065369
0.6030650618
0.6030649006
0.6030648423
0.6030648511
0.6030648882
0.6030895519
0.603086198
0.60308256
0.6030791089
0.6030761017
0.6030736264
0.6030716686
0.603070165
0.6030690369
0.6030682071
0.6030676083
0.6030671849
0.603066893
0.6030666991
0.6030665844
0.6030917679
0.603089994
0.6030878016
0.6030854234
0.6030830613
0.6030808523
0.6030788704
0.6030771419
0.6030756621
0.6030744096
0.6030733561
0.6030724724
0.6030717335
0.6030711274
0.6030706922
0.6030929592
0.6030921336
0.6030910025
0.6030896257
0.6030880866
0.6030864685
0.6030848411
0.6030832562
0.6030817481
0.6030803367
0.6030790318
0.6030778368
0.6030767544
0.6030758035
0.6030750861
0.6030929851
0.6030923394
0.603091481
0.6030904304
0.6030892243
0.603087907
0.603086523
0.6030851128
0.6030837105
0.6030823428
0.603081031
0.6030797955
0.6030786755
0.6030778122
0.6030936236
0.6030933636
0.6030929599
0.6030923908
0.6030916497
0.603090745
0.6030896971
0.6030885344
0.6030872887
0.6030859923
0.6030846755
0.6030833662
0.6030820937
0.6030809102
0.6030799816
0.6030934219
0.6030929852
0.6030923395
0.603091481
0.6030904304
0.6030892243
0.6030879069
0.6030865229
0.6030851127
0.6030837103
0.6030823426
0.6030810308
0.6030797953
0.6030786752
0.6030778119
0.6030929707
0.6030921503
0.6030910113
0.6030896044
0.6030880099
0.6030863138
0.6030845931
0.6030829084
0.6030813026
0.6030798028
0.6030784233
0.6030771701
0.6030760467
0.6030750704
0.6030743405
0.6030922942
0.6030909289
0.6030891622
0.6030871378
0.6030850044
0.6030828854
0.6030808688
0.6030790093
0.6030773345
0.6030758527
0.6030745593
0.6030734426
0.6030724894
0.6030716974
0.6030711253
0.6030917876
0.6030900585
0.603087948
0.60308565
0.6030833267
0.603081095
0.603079029
0.6030771685
0.6030755283
0.6030741065
0.6030728905
0.6030718621
0.6030710029
0.603070304
0.6030698076
0.6030922942
0.6030909289
0.6030891622
0.6030871379
0.6030850045
0.6030828855
0.6030808689
0.6030790094
0.6030773346
0.6030758528
0.6030745595
0.6030734428
0.6030724896
0.6030716976
0.6030711254
0.6030929707
0.6030921503
0.6030910113
0.6030896045
0.60308801
0.6030863139
0.6030845932
0.6030829086
0.6030813028
0.603079803
0.6030784235
0.6030771704
0.6030760469
0.6030750706
0.6030743408
0.6030934219
0.6030929852
0.6030923395
0.603091481
0.6030904304
0.6030892243
0.603087907
0.603086523
0.6030851129
0.6030837105
0.6030823428
0.6030810311
0.6030797956
0.6030786755
0.6030778122
0.6030936236
0.6030933636
0.6030929599
0.6030923908
0.6030916498
0.6030907451
0.6030896972
0.6030885344
0.6030872888
0.6030859925
0.6030846757
0.6030833664
0.603082094
0.6030809105
0.603079982
)
;

boundaryField
{
    top
    {
        type            zeroGradient;
    }
    bottom
    {
        type            zeroGradient;
    }
    side-walls
    {
        type            zeroGradient;
    }
    inlet
    {
        type            zeroGradient;
    }
    outlet
    {
        type            zeroGradient;
    }
    procBoundary1to0
    {
        type            processor;
        value           nonuniform List<scalar> 
97
(
0.6030936236
0.6030936236
0.6030934219
0.6030929707
0.6030922942
0.6030917877
0.6030922942
0.6030929707
0.6030934219
0.6030936236
0.6030936805
0.6030929592
0.6030929592
0.6030929592
0.6030917679
0.603089552
0.6030872441
0.603089552
0.603091768
0.6030929592
0.6030934219
0.6030934758
0.6030929472
0.6030880923
0.6030880923
0.6030880923
0.6030791843
0.6030651035
0.6030791846
0.6030880926
0.603091768
0.6030929707
0.6030931764
0.6030920165
0.6030879663
0.603043675
0.603043675
0.603043675
0.6029443522
0.603043677
0.6030791846
0.603089552
0.6030922942
0.6030929629
0.6030911401
0.603083477
0.6030531989
0.6021306882
0.6021306882
0.6021306882
0.6029443518
0.6029443518
0.6030651035
0.6030872441
0.6030917877
0.6030931764
0.6030920165
0.6030879663
0.6030762133
0.6030531988
0.6030762134
0.603079184
0.603079184
0.603079184
0.6030895519
0.6030922942
0.6030934758
0.6030929472
0.6030914004
0.6030879663
0.6030834771
0.6030879663
0.6030914004
0.6030917679
0.6030917679
0.6030917679
0.6030929707
0.6030936805
0.6030934717
0.6030929472
0.6030920165
0.6030911401
0.6030920165
0.6030929472
0.6030934717
0.6030934219
0.6030934219
0.6030934219
0.6030937733
0.6030936805
0.6030934758
0.6030931764
0.6030929629
0.6030931764
0.6030934758
0.6030936805
0.6030937733
)
;
    }
}


// ************************************************************************* //
