/*--------------------------------*- C++ -*----------------------------------*\
| =========                 |                                                 |
| \\      /  F ield         | OpenFOAM: The Open Source CFD Toolbox           |
|  \\    /   O peration     | Version:  4.x                                   |
|   \\  /    A nd           | Web:      www.OpenFOAM.org                      |
|    \\/     M anipulation  |                                                 |
\*---------------------------------------------------------------------------*/
FoamFile
{
    version     2.0;
    format      ascii;
    class       surfaceScalarField;
    location    "10000";
    object      phi;
}
// * * * * * * * * * * * * * * * * * * * * * * * * * * * * * * * * * * * * * //

dimensions      [1 0 -1 0 0 0 0];

internalField   nonuniform List<scalar> 
3172
(
9.428403167e-06
-6.532614917e-12
-6.43676192e-12
9.428418925e-06
-7.549953703e-12
-6.341002296e-12
9.428425998e-06
-4.627189621e-12
-2.142392094e-12
9.428429474e-06
-3.046827652e-12
-1.297834664e-12
9.428432054e-06
-9.798684233e-13
-4.92645646e-13
9.428431391e-06
-9.060708396e-13
-1.694439761e-13
9.428428034e-06
4.052309841e-13
2.376109803e-12
9.428424814e-06
1.232125857e-13
1.835181308e-12
9.428420902e-06
2.149837813e-12
2.944239526e-12
9.428415296e-06
1.436831913e-12
2.931955906e-12
9.428409376e-06
8.350246323e-13
3.58666113e-12
9.428404201e-06
1.84754826e-12
3.164187046e-12
9.428399041e-06
2.968540813e-12
4.723449825e-12
3.23249211e-12
3.243703166e-12
9.428401103e-06
-1.158229145e-11
-8.018455631e-12
9.428415833e-06
-1.037759655e-11
-9.275780595e-12
9.428418678e-06
-6.255143231e-12
-5.276294245e-12
9.428421629e-06
-4.351741017e-12
-1.197776391e-12
9.42842053e-06
-2.322287779e-12
8.543146792e-13
9.428416432e-06
-7.586940194e-14
8.047826472e-13
9.428412047e-06
3.387806428e-12
3.575309812e-12
9.428410111e-06
4.683013253e-12
4.396537924e-12
9.428403457e-06
3.657064031e-12
3.910561614e-12
9.428395949e-06
3.337722973e-12
3.230235054e-12
9.428393296e-06
4.074167906e-12
4.663576989e-12
9.428387201e-06
4.975883527e-12
3.729592639e-12
9.428381383e-06
4.66043335e-12
4.122430614e-12
4.366393329e-12
4.753194618e-12
9.428430675e-06
-6.245527916e-12
-1.199248257e-11
9.428439551e-06
-8.149738448e-12
-1.482272618e-11
9.428435656e-06
-1.510819156e-12
-2.58712097e-12
9.428431569e-06
2.311032344e-12
3.178030065e-12
9.428422667e-06
1.18196812e-12
5.527223594e-12
9.428416396e-06
1.76097186e-12
7.549111884e-12
9.428405971e-06
3.224817823e-12
6.246747613e-12
9.428399316e-06
3.234555897e-12
6.383316946e-12
9.428393322e-06
4.461499807e-12
6.269373777e-12
9.428387164e-06
3.841789266e-12
5.486831414e-12
9.428383416e-06
3.616840647e-12
5.911782686e-12
9.428377866e-06
5.558476013e-12
4.618101453e-12
9.42837455e-06
5.4410107e-12
4.821186024e-12
5.976398865e-12
4.202527946e-12
9.428398542e-06
1.031448821e-12
6.712867922e-12
9.428403945e-06
1.723985149e-12
-1.685012313e-11
9.428397665e-06
4.881283023e-12
-2.439560293e-12
9.428388204e-06
4.8687288e-12
4.773344893e-12
9.428378881e-06
4.460873293e-12
8.189677765e-12
9.428370909e-06
4.11587311e-12
1.066423011e-11
9.428360978e-06
2.268150912e-12
1.087003551e-11
9.42835289e-06
2.769916112e-12
9.631571461e-12
9.428346949e-06
2.362016179e-12
8.673927512e-12
9.428340683e-06
2.137539235e-12
8.064172376e-12
9.42834094e-06
2.596403376e-12
7.535505009e-12
9.428335461e-06
1.448243293e-12
3.96929587e-12
9.428335082e-06
1.870570822e-12
5.318200407e-12
2.252606073e-12
4.329088493e-12
9.428466617e-06
4.348221228e-14
4.678054378e-11
9.428451121e-06
-7.523463451e-13
1.859073468e-11
9.428428831e-06
-3.581063211e-12
2.321183614e-11
9.428413712e-06
-4.575383646e-12
2.253154933e-11
9.428401555e-06
-2.641179033e-12
1.85911043e-11
9.428392218e-06
-2.454671601e-12
1.658847464e-11
9.428383235e-06
-3.700707162e-12
1.271969005e-11
9.428375654e-06
-2.317352385e-12
1.084399846e-11
9.428370339e-06
-2.17274704e-12
8.562391166e-12
9.428364687e-06
-1.383625774e-12
6.99281177e-12
9.428364689e-06
-3.318021291e-14
6.750952822e-12
9.428362663e-06
-4.511962886e-13
5.528358422e-12
9.428361108e-06
-1.301086298e-12
4.963423759e-12
-5.750592811e-13
4.776987908e-12
9.428490452e-06
7.244339156e-12
6.122723898e-12
9.428497949e-06
8.928499863e-12
-1.539144396e-11
9.428488292e-06
2.263697407e-12
-2.176899544e-12
9.428481392e-06
-2.4830496e-13
6.408148401e-12
9.42847008e-06
-2.241828827e-12
8.213883492e-12
9.428461761e-06
-2.213601223e-12
1.021738921e-11
9.428452644e-06
-2.237674714e-12
1.16669609e-11
9.428445262e-06
-3.589776475e-12
1.032226465e-11
9.428438809e-06
-3.431946971e-12
8.952697335e-12
9.428434065e-06
-2.222618068e-12
7.055113576e-12
9.428429231e-06
-3.50302644e-12
5.361342175e-12
9.42842749e-06
-2.167025192e-12
5.48217755e-12
9.428423655e-06
-2.960817313e-12
6.99550113e-12
-3.563354692e-12
5.517240696e-12
9.428479737e-06
1.236003253e-11
-1.032721781e-11
9.42848794e-06
1.150474914e-11
-1.302265006e-11
9.428488615e-06
4.802088815e-12
-4.068537656e-12
9.428481405e-06
6.260927642e-13
2.543952894e-12
9.428475879e-06
3.149637857e-13
4.381152725e-12
9.428468108e-06
-1.250721926e-12
7.015582608e-12
9.428460361e-06
-4.010419395e-12
7.481160271e-12
9.428454565e-06
-3.889157128e-12
7.179059729e-12
9.428448431e-06
-3.613754931e-12
6.786389283e-12
9.428441803e-06
-3.696727572e-12
6.19452836e-12
9.428437546e-06
-5.047242662e-12
4.557412446e-12
9.428431744e-06
-6.013096567e-12
3.155881325e-12
9.428429392e-06
-4.427581787e-12
5.387339585e-12
-4.3527269e-12
4.347214811e-12
9.428411432e-06
6.911905735e-12
-6.771731615e-12
9.428425365e-06
6.216397304e-12
-9.581386241e-12
9.428431566e-06
3.448908393e-12
-5.821622567e-12
9.42843364e-06
1.234822889e-12
-1.812821921e-12
9.428431878e-06
1.575581346e-13
-4.236342761e-14
9.428426767e-06
2.74594797e-13
1.153388266e-12
9.428423626e-06
-8.379170737e-13
2.759666541e-12
9.428419188e-06
-1.696113639e-12
3.310365594e-12
9.428412267e-06
-2.482746385e-12
2.493759116e-12
9.428405188e-06
-3.557657233e-12
3.432972049e-12
9.428400181e-06
-6.017265191e-13
4.309440454e-12
9.428394507e-06
-2.958572892e-12
4.262098646e-12
9.428388217e-06
-4.506111366e-12
4.786483299e-12
-3.230247796e-12
2.983512511e-12
9.428399728e-06
-7.70491572e-12
9.428413812e-06
-9.363596161e-12
9.4284213e-06
-4.369666177e-12
9.428429065e-06
5.321588736e-13
9.428432027e-06
-5.106680921e-13
9.428429089e-06
-2.251402208e-13
9.428429136e-06
1.778772765e-12
9.428425485e-06
2.337822398e-12
9.428419728e-06
1.9423851e-12
9.428417441e-06
4.210739268e-12
9.428407624e-06
1.923751663e-12
9.428404452e-06
3.249358118e-12
9.428400068e-06
3.02898525e-12
2.295717236e-12
9.428416835e-06
-4.401476849e-11
9.428428478e-06
-6.552821456e-12
-1.087803119e-11
9.428444568e-06
-9.39336715e-12
-1.012816264e-11
9.428447991e-06
-6.985927828e-12
-8.061092628e-12
9.428449314e-06
-2.031435338e-12
-3.655052628e-12
9.428448735e-06
8.512363056e-13
1.076995277e-12
9.428446633e-06
-9.28344136e-15
2.713232899e-12
9.428440461e-06
2.594466129e-12
5.092008401e-12
9.428436392e-06
3.512394902e-12
6.954923169e-12
9.428429447e-06
3.16002888e-12
4.975669273e-12
9.428425161e-06
3.060660497e-12
4.924402314e-12
9.428418709e-06
3.252995966e-12
3.868709962e-12
9.428416157e-06
3.680103172e-12
5.61027628e-12
9.428407449e-06
3.112910688e-12
5.125689345e-12
5.273553043e-12
6.436772368e-12
9.428410551e-06
-5.706588488e-12
-6.459189062e-12
9.428419802e-06
-1.416943299e-11
-1.415612707e-11
9.428421444e-06
-5.657607372e-12
-7.060579758e-12
9.428418931e-06
-1.472098769e-12
-1.35875029e-12
9.428412412e-06
9.151628872e-13
2.118920622e-12
9.428408353e-06
4.890722328e-12
5.302055511e-12
9.42839979e-06
6.039114975e-12
5.890578389e-12
9.428395327e-06
6.874065464e-12
8.306781147e-12
9.428388162e-06
6.893086425e-12
6.69292033e-12
9.42838312e-06
6.128645346e-12
7.284174355e-12
9.428375525e-06
6.19379685e-12
5.154074688e-12
9.428371646e-06
6.148908197e-12
6.237269323e-12
9.428368959e-06
5.956661983e-12
6.222305529e-12
4.709846934e-12
4.808153634e-12
9.428423888e-06
6.88575035e-12
-4.283616928e-12
9.4284209e-06
-6.150820283e-12
-1.559636339e-11
9.428406999e-06
7.595335502e-13
3.159976741e-12
9.428393318e-06
4.885883865e-12
1.176873364e-11
9.428380313e-06
4.793983882e-12
1.39140321e-11
9.428370562e-06
6.450722314e-12
1.306036519e-11
9.428361678e-06
7.500959715e-12
1.248221165e-11
9.428356173e-06
7.237189835e-12
1.266494802e-11
9.42834937e-06
6.723210556e-12
1.07938875e-11
9.428348378e-06
6.653854608e-12
9.846434499e-12
9.42834627e-06
4.739650451e-12
7.904092172e-12
9.428346213e-06
4.260343844e-12
7.524209795e-12
9.428345736e-06
5.869034147e-12
8.996374529e-12
6.033931011e-12
7.49332346e-12
9.428454342e-06
2.711702146e-11
5.844115889e-11
9.428443236e-06
7.16930795e-12
-2.568464534e-11
9.428428036e-06
9.19063667e-12
5.68270022e-12
9.428409941e-06
8.332473005e-12
2.002949115e-11
9.428397319e-06
6.594188185e-12
2.151746778e-11
9.42838862e-06
6.005984457e-12
2.207879338e-11
9.428378774e-06
3.000890765e-12
1.810506875e-11
9.428374865e-06
3.106643142e-12
1.681250148e-11
9.428372272e-06
2.683511814e-12
1.372622829e-11
9.428370865e-06
1.333875553e-12
1.041795374e-11
9.428370588e-06
2.899843259e-12
1.075635539e-11
9.428371686e-06
3.41728223e-12
9.725565025e-12
9.428373089e-06
3.285958651e-12
9.845898378e-12
2.834801545e-12
6.425519176e-12
9.428501962e-06
-2.536988971e-11
2.840596974e-10
9.428440233e-06
-6.013957629e-12
9.434112554e-11
9.42840667e-06
-7.373533705e-12
7.613084747e-11
9.428386028e-06
-7.852433655e-12
6.365436406e-11
9.428375713e-06
-6.141959396e-12
4.481778508e-11
9.42836841e-06
-5.392635243e-12
3.446099924e-11
9.428366536e-06
-3.820915624e-12
2.544189077e-11
9.428365763e-06
-3.388446757e-12
1.873839782e-11
9.428363433e-06
-3.530529667e-12
1.456908931e-11
9.428366938e-06
-1.499837095e-12
1.13865039e-11
9.428367994e-06
-2.453644505e-12
1.109739317e-11
9.42836881e-06
-1.339936191e-12
9.487900429e-12
9.428372663e-06
-1.403530692e-12
1.161730393e-11
-1.637227624e-12
7.99048724e-12
9.428403801e-06
-4.941328111e-12
5.734455925e-11
9.428395809e-06
8.813117959e-12
-2.645609277e-11
9.428378677e-06
-1.839819533e-12
4.342095798e-12
9.428362841e-06
-5.13858866e-12
1.980262848e-11
9.428349819e-06
-7.007600634e-12
2.066998824e-11
9.428339134e-06
-6.264338486e-12
1.983052158e-11
9.428332097e-06
-6.865272568e-12
1.748511919e-11
9.428326711e-06
-7.287715238e-12
1.642719868e-11
9.428325729e-06
-5.766753192e-12
1.526196809e-11
9.428323962e-06
-4.818571624e-12
1.174717197e-11
9.428325581e-06
-4.853438961e-12
1.063891576e-11
9.428325451e-06
-4.475561749e-12
9.279268618e-12
9.428326937e-06
-4.842839116e-12
1.101028049e-11
-5.229340688e-12
8.995914978e-12
9.428373652e-06
7.10892503e-12
-6.33125655e-12
9.428370069e-06
1.455239373e-11
-1.663344793e-11
9.428359978e-06
5.831841593e-12
4.042303702e-12
9.428343372e-06
-6.646075262e-13
1.159574688e-11
9.42833432e-06
-2.117694276e-12
1.360208719e-11
9.428324386e-06
-5.170367851e-12
1.217927405e-11
9.428316307e-06
-7.137637478e-12
1.208064616e-11
9.42831224e-06
-6.558800741e-12
1.273140953e-11
9.428306185e-06
-8.053912143e-12
1.054653515e-11
9.428303123e-06
-6.311345292e-12
9.065466607e-12
9.428300556e-06
-5.137136913e-12
9.473879368e-12
9.428298389e-06
-5.084137987e-12
8.455362388e-12
9.428296394e-06
-5.124553438e-12
7.128463704e-12
-5.355504006e-12
6.614715264e-12
9.428472909e-06
6.438917406e-12
-7.539888788e-12
9.428482402e-06
6.995389596e-12
-1.596013466e-11
9.42848532e-06
4.718544992e-12
-6.108563981e-12
9.428483533e-06
2.416575053e-12
-1.230203768e-12
9.428479755e-06
2.40802914e-13
2.253256639e-12
9.428473891e-06
-2.012589839e-12
4.710861532e-12
9.428468034e-06
-2.154782602e-12
7.27606363e-12
9.428463487e-06
-2.707507421e-12
7.103126522e-12
9.428458019e-06
-3.135324267e-12
7.71866615e-12
9.42845198e-06
-2.667951303e-12
6.4674584e-12
9.428446315e-06
-4.225441868e-12
5.790981865e-12
9.428443727e-06
-5.207265284e-12
6.233379322e-12
9.428438324e-06
-6.095961384e-12
4.535839102e-12
-4.159943637e-12
4.596646836e-12
9.42839979e-06
-1.268749116e-11
9.428415095e-06
-1.219547339e-11
9.428420871e-06
-5.253929015e-12
9.428421159e-06
-8.025778705e-13
9.428421576e-06
3.269036409e-13
9.428417512e-06
8.01239143e-13
9.428412956e-06
2.356333808e-12
9.428407924e-06
4.404322383e-12
9.428404205e-06
5.03285388e-12
9.428396691e-06
4.833740324e-12
9.428389811e-06
4.58275283e-12
9.428385088e-06
4.854054487e-12
9.428380931e-06
5.167264274e-12
4.094027425e-12
9.428438933e-06
-7.64780307e-11
-5.373792069e-11
9.428444185e-06
-1.00448347e-11
-8.629751056e-12
9.42845245e-06
-1.324878423e-11
-1.011587381e-11
9.428452649e-06
-2.31403208e-12
-2.942226173e-12
9.42844567e-06
3.837813951e-12
1.002581015e-12
9.428437335e-06
4.746377724e-12
2.273067758e-12
9.428432558e-06
4.948552432e-12
2.45343788e-12
9.428422644e-06
5.7270402e-12
1.028812672e-12
9.428413319e-06
6.294940615e-12
3.624337561e-12
9.42840757e-06
6.357364694e-12
3.899603353e-12
9.428401716e-06
7.321443665e-12
4.610021476e-12
9.428400096e-06
6.105027389e-12
5.305048294e-12
9.428392773e-06
5.163252451e-12
4.515064674e-12
9.428389327e-06
5.531315476e-12
4.69277255e-12
5.249640716e-12
3.523589513e-12
9.428480669e-06
-9.741615613e-11
9.428460103e-06
-2.49939603e-12
6.794902556e-12
9.428456301e-06
-1.591918702e-11
-8.135512367e-12
9.428447107e-06
4.659850392e-12
9.312514159e-13
9.428432696e-06
1.201088526e-11
4.105056701e-12
9.428417278e-06
1.252854287e-11
4.638302895e-12
9.428411388e-06
1.370353613e-11
7.819031666e-12
9.428401118e-06
1.275545349e-11
7.119037102e-12
9.428393448e-06
1.141855659e-11
7.905876873e-12
9.428390937e-06
1.037630266e-11
7.007389596e-12
9.428386703e-06
9.33951724e-12
5.770281019e-12
9.428386566e-06
8.126310546e-12
6.803863177e-12
9.428383389e-06
7.087927946e-12
5.079124408e-12
9.428383434e-06
8.624506377e-12
4.992257457e-12
9.146716398e-12
5.272667285e-12
9.428506363e-06
4.041318215e-11
3.850101601e-11
9.428461033e-06
1.126490233e-11
9.606115814e-12
9.428418432e-06
2.650600608e-11
2.468286951e-11
9.428386551e-06
2.56189241e-11
2.471949263e-11
9.42836851e-06
2.092728235e-11
2.070741071e-11
9.428362485e-06
1.975103734e-11
1.857355202e-11
9.428357548e-06
1.622502169e-11
1.581833624e-11
9.428355393e-06
1.217573639e-11
1.291326363e-11
9.428356718e-06
1.06510235e-11
1.059588429e-11
9.428358384e-06
7.0608859e-12
8.81400873e-12
9.42836036e-06
8.023796836e-12
7.563389071e-12
9.428362812e-06
6.458348825e-12
6.933492554e-12
9.42836638e-06
6.916319335e-12
7.127358061e-12
4.672327629e-12
5.236092896e-12
9.428458205e-06
1.093461293e-10
2.231158473e-10
9.428391431e-06
4.280826424e-11
8.264636461e-12
9.428345408e-06
3.700925615e-11
4.041221771e-11
9.428317529e-06
2.670168993e-11
4.280177924e-11
9.428312633e-06
1.743941907e-11
3.424938573e-11
9.4283137e-06
1.242092329e-11
2.762422376e-11
9.428319281e-06
7.380564248e-12
2.095983774e-11
9.428324669e-06
5.044793817e-12
1.576354023e-11
9.428332006e-06
4.561438622e-12
1.069563416e-11
9.428341997e-06
3.288395293e-12
9.798103641e-12
9.428348041e-06
3.666334741e-12
9.199840911e-12
9.428353683e-06
3.118185251e-12
9.145972623e-12
9.428359234e-06
4.927688619e-12
9.05646989e-12
3.902617903e-12
7.123244949e-12
9.428490059e-06
-1.083095065e-10
1.139972694e-09
9.428279972e-06
-4.280508657e-11
3.878048276e-10
9.428224772e-06
-3.594334311e-11
2.02805581e-10
9.428217658e-06
-2.664701884e-11
1.226329276e-10
9.428231341e-06
-1.793385851e-11
6.932748649e-11
9.428246494e-06
-1.392302805e-11
4.16319748e-11
9.42826396e-06
-9.133066275e-12
2.807128209e-11
9.428276608e-06
-5.194189788e-12
1.900977867e-11
9.428285289e-06
-3.710488804e-12
1.300189033e-11
9.428298345e-06
-1.953356165e-12
1.201492427e-11
9.428304429e-06
-2.535625629e-12
8.798197541e-12
9.428312912e-06
-1.796423625e-12
8.987043395e-12
9.428319442e-06
-2.346975965e-12
8.656404729e-12
-1.889421706e-12
5.955814993e-12
9.428482543e-06
-3.881954644e-11
2.223765688e-10
9.428416142e-06
-8.001694665e-12
1.026735141e-11
9.428369184e-06
-2.5974397e-11
4.063386813e-11
9.428342298e-06
-2.588429427e-11
4.184651942e-11
9.428337369e-06
-2.119774182e-11
3.445327446e-11
9.42833953e-06
-1.836257321e-11
2.777036017e-11
9.42834418e-06
-1.573088144e-11
2.084608744e-11
9.428349632e-06
-1.273425508e-11
1.505769169e-11
9.428355834e-06
-1.149936726e-11
1.265559507e-11
9.428365001e-06
-8.326222708e-12
1.169436286e-11
9.42836967e-06
-7.547078032e-12
9.46368819e-12
9.428377811e-06
-5.319344539e-12
8.7848733e-12
9.428383594e-06
-8.633808742e-12
8.450927119e-12
-6.941231893e-12
5.067390415e-12
9.428516898e-06
4.676341037e-12
3.825982751e-11
9.428471414e-06
1.540395057e-11
9.816091088e-12
9.428427772e-06
-4.359926805e-12
2.665300632e-11
9.428394517e-06
-1.343072345e-11
2.47678297e-11
9.428377627e-06
-1.302835727e-11
2.140414503e-11
9.428370446e-06
-1.245326641e-11
1.887530933e-11
9.428366084e-06
-1.210942427e-11
1.474235204e-11
9.428365024e-06
-1.283336389e-11
1.210155845e-11
9.428364702e-06
-1.140733303e-11
1.031407187e-11
9.428368138e-06
-9.345137375e-12
1.001513611e-11
9.428367886e-06
-9.126102767e-12
8.040085762e-12
9.42836904e-06
-7.278490828e-12
6.4468507e-12
9.428373041e-06
-7.213880554e-12
7.475124957e-12
-6.481890459e-12
5.575063546e-12
9.428464825e-06
1.042271637e-11
5.989386338e-12
9.428460643e-06
1.147007566e-11
-7.201967782e-12
9.428448456e-06
2.931280008e-12
1.479257072e-12
9.428434726e-06
-1.069607073e-12
5.940172882e-12
9.428422688e-06
-4.274092604e-12
6.168226979e-12
9.428410949e-06
-7.647310332e-12
7.806459263e-12
9.428401615e-06
-8.186412507e-12
7.651028514e-12
9.42839638e-06
-6.963881275e-12
6.525037211e-12
9.428391126e-06
-4.997114562e-12
6.342301557e-12
9.428388847e-06
-4.318242634e-12
6.995085024e-12
9.428386455e-06
-5.256763643e-12
7.235927229e-12
9.428384007e-06
-5.108168785e-12
4.6536695e-12
9.428382934e-06
-4.886998033e-12
5.609643576e-12
-4.995557558e-12
4.259969153e-12
9.428460976e-06
-7.969042983e-12
9.428472033e-06
-9.330667456e-12
9.428468396e-06
-2.294661829e-12
9.428460858e-06
7.594010307e-13
9.428457794e-06
3.101698369e-12
9.428451661e-06
4.023152037e-12
9.428443292e-06
3.707963154e-12
9.428435762e-06
3.208216867e-12
9.428429386e-06
3.807862534e-12
9.428423827e-06
5.545044725e-12
9.428418417e-06
6.193252612e-12
9.428412635e-06
3.585798475e-12
9.428408042e-06
5.445226322e-12
4.840384127e-12
9.428475739e-06
-1.059435147e-10
-4.931875774e-11
9.428460655e-06
8.683546344e-12
1.944283398e-12
9.428464066e-06
-1.693266017e-11
1.048929556e-12
9.42846017e-06
-1.41654572e-12
1.148348328e-12
9.428451097e-06
5.083420276e-12
1.991094367e-12
9.428439342e-06
8.538033611e-12
1.621154706e-12
9.428432085e-06
1.097328423e-11
2.544022367e-12
9.428425426e-06
1.106504641e-11
2.378764402e-12
9.428413319e-06
9.678428499e-12
2.593897081e-12
9.428406776e-06
8.165687641e-12
1.90716706e-12
9.428403035e-06
7.744833877e-12
2.432172413e-12
9.428397973e-06
6.329552695e-12
2.195978366e-12
9.428394984e-06
5.208244089e-12
2.022614562e-12
9.428392219e-06
4.957754717e-12
3.611013303e-12
5.464968823e-12
3.149438637e-12
9.428536838e-06
-2.404370962e-10
-9.49572969e-11
9.428463804e-06
5.990309609e-11
2.631099948e-11
9.428457641e-06
-2.40560076e-11
8.488211927e-12
9.428442081e-06
4.95553985e-12
7.838917569e-12
9.428424681e-06
1.955662458e-11
7.094019269e-12
9.428410552e-06
2.103167338e-11
7.533279487e-12
9.428401989e-06
2.089099798e-11
6.319161169e-12
9.428396455e-06
1.888240398e-11
4.312653819e-12
9.428389088e-06
1.478033494e-11
2.618485367e-12
9.428389665e-06
1.39027521e-11
3.245022456e-12
9.428389358e-06
1.144946129e-11
3.77720545e-12
9.428387565e-06
9.560909455e-12
2.215012777e-12
9.428387005e-06
9.402420965e-12
2.305039167e-12
9.42838993e-06
1.123536727e-11
3.533379042e-12
8.386779957e-12
2.32467963e-12
9.428756711e-06
-2.971716603e-10
9.428522159e-06
2.2255054e-10
1.074541106e-10
9.428454551e-06
9.503037105e-12
4.204807723e-11
9.428411883e-06
4.260052791e-11
3.580120505e-11
9.428383847e-06
4.347577128e-11
2.628936997e-11
9.428377837e-06
3.374893429e-11
1.795280959e-11
9.42837922e-06
2.763350479e-11
1.301914624e-11
9.42838343e-06
2.156231619e-11
7.952539347e-12
9.428387943e-06
1.640622713e-11
6.145228479e-12
9.428395647e-06
1.055777681e-11
4.951486907e-12
9.428403392e-06
8.125468307e-12
4.032190913e-12
9.428409847e-06
1.00131471e-11
2.473667442e-12
9.428415827e-06
8.611793025e-12
1.896768225e-12
9.428424147e-06
8.657049986e-12
4.714766476e-12
6.914505057e-12
2.584626801e-12
9.428136254e-06
4.299048461e-10
4.293289329e-10
9.428160074e-06
-1.047593141e-12
-1.422707004e-12
9.428167602e-06
3.843851553e-11
3.706623211e-11
9.428181471e-06
3.646820027e-11
3.547418328e-11
9.428203782e-06
2.187337123e-11
2.324339604e-11
9.428226393e-06
1.516448163e-11
1.615346074e-11
9.428247972e-06
1.006665095e-11
1.102027642e-11
9.428264648e-06
7.192093917e-12
7.347756207e-12
9.42828166e-06
6.679111788e-12
5.754075366e-12
9.428294895e-06
5.853150662e-12
4.231025634e-12
9.428304024e-06
2.769011349e-12
2.455627583e-12
9.428313082e-06
2.0650961e-12
3.0997432e-12
9.42832389e-06
3.808627541e-12
3.396648409e-12
3.575331421e-12
1.309542013e-12
9.4278391e-06
-4.290437209e-10
3.408068981e-09
9.427887707e-06
3.283948716e-12
3.350175879e-10
9.428008131e-06
-3.659898021e-11
1.542950797e-10
9.428100905e-06
-3.661714269e-11
1.024648009e-10
9.428171855e-06
-2.192598548e-11
4.926798051e-11
9.428221956e-06
-1.582218884e-11
2.671680907e-11
9.428258328e-06
-1.178358164e-11
1.439741435e-11
9.428283682e-06
-7.933578203e-12
9.289729936e-12
9.428305242e-06
-4.14649105e-12
4.934691938e-12
9.428319976e-06
-2.694157255e-12
3.269668576e-12
9.428335499e-06
-2.726249461e-12
3.232508425e-12
9.428345763e-06
-1.526870571e-12
2.954910584e-12
9.428356854e-06
-3.157022034e-12
2.962375393e-12
-2.694378912e-12
1.015414409e-12
9.428148051e-06
-2.238403838e-10
4.298619639e-10
9.428167176e-06
-9.295501138e-12
-2.77306696e-12
9.428175855e-06
-4.040564959e-11
3.624216196e-11
9.428190634e-06
-4.370685835e-11
3.759636451e-11
9.428213331e-06
-3.406077459e-11
2.268172871e-11
9.428236226e-06
-2.786542792e-11
1.627277726e-11
9.428257504e-06
-2.163340547e-11
1.031398042e-11
9.428278108e-06
-1.67497144e-11
7.509822183e-12
9.428292238e-06
-1.414936179e-11
4.203659652e-12
9.428305508e-06
-1.059184915e-11
2.703383866e-12
9.42831702e-06
-8.317460877e-12
3.592963952e-12
9.428326926e-06
-7.68415561e-12
2.851584037e-12
9.428336969e-06
-9.481578382e-12
3.234857962e-12
-6.77224895e-12
2.487446496e-12
9.428448589e-06
-5.697643608e-11
1.096200045e-10
9.428380144e-06
2.523102606e-11
4.202662153e-11
9.428332244e-06
-5.943743092e-12
3.437728243e-11
9.428308026e-06
-1.958573678e-11
2.714602677e-11
9.428299778e-06
-2.182910501e-11
1.803936612e-11
9.428302868e-06
-1.985471333e-11
1.183451697e-11
9.42830767e-06
-1.73933654e-11
8.780821249e-12
9.428314552e-06
-1.602688835e-11
6.083915155e-12
9.428321834e-06
-1.383399623e-11
5.219282473e-12
9.428327268e-06
-1.195152222e-11
3.045084318e-12
9.428333925e-06
-9.979723316e-12
3.448156111e-12
9.428340412e-06
-9.456599457e-12
3.165817533e-12
9.428347681e-06
-9.772709861e-12
2.980701285e-12
-8.318410282e-12
1.920530882e-12
9.428423996e-06
-7.371767501e-12
2.650531532e-11
9.42841409e-06
1.444705146e-11
6.711045627e-12
9.428397227e-06
1.214398847e-12
7.870562143e-12
9.428379286e-06
-3.957879595e-12
7.160216647e-12
9.428368152e-06
-8.258789006e-12
6.284397088e-12
9.428357167e-06
-1.127934638e-11
4.368235988e-12
9.428351518e-06
-1.203461313e-11
4.341262824e-12
9.428347934e-06
-9.650605871e-12
3.731011593e-12
9.42834631e-06
-8.46272038e-12
3.519626196e-12
9.42834486e-06
-5.448074171e-12
3.097679967e-12
9.42834162e-06
-5.670197084e-12
2.577749787e-12
9.428342564e-06
-6.122809015e-12
3.01553697e-12
9.428343541e-06
-4.27474115e-12
3.690155403e-12
-4.828794579e-12
2.570290915e-12
9.428426168e-06
-4.242812663e-13
9.428434364e-06
1.471139587e-12
9.428427526e-06
3.160435966e-12
9.428417221e-06
2.956031103e-12
9.428408256e-06
2.499847214e-12
9.428398047e-06
5.343398045e-12
9.428390685e-06
5.647601225e-12
9.428382837e-06
3.557909191e-12
9.428379995e-06
3.589260255e-12
9.428370895e-06
2.701304444e-12
9.428366178e-06
3.202217209e-12
9.428367263e-06
3.918161577e-12
9.428361701e-06
3.477606199e-12
2.136676103e-12
9.428526813e-06
-2.844709324e-10
5.173311787e-11
9.428477417e-06
4.91932239e-11
8.797670921e-14
9.42845836e-06
1.918995473e-11
-2.393545824e-13
9.428443934e-06
2.710600887e-11
-2.570865808e-12
9.428426428e-06
2.54783898e-11
-3.929718658e-12
9.428412875e-06
2.300032127e-11
-4.217202384e-12
9.428403332e-06
1.985817265e-11
-2.39379495e-12
9.428397149e-06
1.496456614e-11
-2.785192771e-12
9.428387388e-06
1.106030689e-11
-2.866383842e-12
9.428381079e-06
9.003529269e-12
-3.694000704e-12
9.428376981e-06
8.461367967e-12
-1.867038707e-12
9.428373299e-06
6.946971872e-12
-1.416396382e-12
9.428373302e-06
6.100283458e-12
-1.984389039e-12
9.428368299e-06
5.373357353e-12
-1.085148824e-12
4.526572959e-12
-1.222984416e-12
9.428695779e-06
-7.855568653e-10
9.760238607e-11
9.428510696e-06
2.842992711e-10
-2.547538616e-11
9.428450289e-06
9.466073897e-11
-7.804308026e-12
9.428417389e-06
7.57291005e-11
-8.498808504e-12
9.428397323e-06
6.353483225e-11
-7.90609374e-12
9.428385328e-06
4.438546311e-11
-8.444191297e-12
9.428378742e-06
3.357949714e-11
-6.506666407e-12
9.428376111e-06
2.474552382e-11
-4.738429503e-12
9.428373788e-06
1.904632629e-11
-4.125557517e-12
9.428373032e-06
1.52067419e-11
-3.802591808e-12
9.428371374e-06
1.097268207e-11
-3.603341657e-12
9.428373309e-06
9.020038589e-12
-1.730549582e-12
9.428375353e-06
9.511611609e-12
-1.777439976e-12
9.42837835e-06
1.109441814e-11
-2.001436802e-12
7.660271546e-12
-2.344962628e-12
9.4290858e-06
-2.130802303e-09
2.976707209e-10
9.428446075e-06
1.13979603e-09
-1.075963876e-10
9.428234847e-06
3.878049069e-10
-4.246349984e-11
9.428181057e-06
2.038499207e-10
-3.571280936e-11
9.428173505e-06
1.233076519e-10
-2.634873879e-11
9.428186909e-06
7.025671933e-11
-1.815707784e-11
9.428202934e-06
4.306392101e-11
-1.283824961e-11
9.428219534e-06
2.792995555e-11
-9.096266536e-12
9.428231611e-06
1.825785933e-11
-6.399872522e-12
9.428243513e-06
1.251535321e-11
-4.699848061e-12
9.42825327e-06
7.430370915e-12
-3.473093553e-12
9.428263153e-06
9.192494206e-12
-1.411326463e-12
9.428271332e-06
9.209265947e-12
-9.499131047e-14
9.428276503e-06
7.149679833e-12
-1.661744964e-12
6.284786184e-12
-1.653522269e-12
9.429212689e-06
4.657520002e-10
9.427801228e-06
3.408176914e-09
-4.290155941e-10
9.427850883e-06
3.357028648e-10
2.032435748e-12
9.427973588e-06
1.553404665e-10
-3.643049641e-11
9.428065961e-06
1.017559757e-10
-3.689330138e-11
9.428134108e-06
4.757864681e-11
-2.332317133e-11
9.428182671e-06
2.590008442e-11
-1.564417924e-11
9.428219729e-06
1.405176724e-11
-1.032121771e-11
9.428245723e-06
9.505269708e-12
-7.16570468e-12
9.428266835e-06
5.494116133e-12
-5.118462468e-12
9.428284781e-06
5.610438227e-12
-3.40372896e-12
9.428297226e-06
3.808540898e-12
-3.530333064e-12
9.428306438e-06
2.173306551e-12
-2.697639228e-12
9.428317024e-06
3.558714515e-12
-2.010226493e-12
3.07594819e-12
-1.930502317e-12
9.448747366e-06
-3.407655558e-09
-3.41023222e-09
9.450107821e-06
-3.350687186e-10
-3.356808951e-10
9.4507469e-06
-1.548315859e-10
-1.551906097e-10
9.451174431e-06
-1.01304656e-10
-1.024547574e-10
9.451384597e-06
-4.918873585e-11
-4.828673134e-11
9.45149682e-06
-2.638409118e-11
-2.454261129e-11
9.451569287e-06
-1.530243715e-11
-1.365931154e-11
9.451617471e-06
-1.043980191e-11
-9.307692157e-12
9.451658779e-06
-5.17522632e-12
-4.993532222e-12
9.451689139e-06
-4.177968644e-12
-2.769985743e-12
9.451717902e-06
-2.123103302e-12
-3.170052691e-12
9.451743955e-06
-2.268617784e-12
-2.802055912e-12
9.451769477e-06
-3.011971692e-12
-3.8025422e-12
-9.462247203e-13
-1.558988112e-12
9.427830348e-06
-1.140655575e-09
-4.290908917e-10
9.427878887e-06
-3.870484091e-10
8.254411878e-14
9.428000681e-06
-2.024112125e-10
-3.829476869e-11
9.428092618e-06
-1.238740622e-10
-3.727848755e-11
9.428161981e-06
-6.908369417e-11
-2.384594298e-11
9.428209693e-06
-4.444007871e-11
-1.672702586e-11
9.428246756e-06
-2.783371546e-11
-9.540886451e-12
9.428272091e-06
-1.948631965e-11
-5.685092065e-12
9.428292824e-06
-1.247134667e-11
-4.520617077e-12
9.42830846e-06
-9.65497435e-12
-2.012379847e-12
9.4283225e-06
-8.62115584e-12
-2.725208e-12
9.428332267e-06
-7.015782206e-12
-1.826804393e-12
9.428342746e-06
-8.448615548e-12
-3.757036002e-12
-7.506996077e-12
-2.662173153e-12
9.428524728e-06
-2.830911196e-10
-1.076754417e-10
9.428312496e-06
-9.498858379e-11
-4.372678061e-11
9.428255499e-06
-7.631257642e-11
-3.842456048e-11
9.428251489e-06
-6.495662045e-11
-2.821027291e-11
9.428262797e-06
-4.615570578e-11
-1.782692283e-11
9.428283002e-06
-3.346281636e-11
-1.115232636e-11
9.428298239e-06
-2.476133393e-11
-8.508385922e-12
9.428312802e-06
-1.849416048e-11
-5.10970422e-12
9.428324569e-06
-1.459576291e-11
-3.866764044e-12
9.428334174e-06
-1.231109166e-11
-4.009917363e-12
9.428342905e-06
-9.244298475e-12
-1.286185377e-12
9.428346391e-06
-9.204627823e-12
-1.428348245e-12
9.428354759e-06
-9.638735382e-12
-2.392552202e-12
-7.502357538e-12
-2.093862285e-12
9.428524193e-06
-4.859300709e-11
-2.531130731e-11
9.428463861e-06
-2.005547314e-11
-9.25513531e-12
9.428429367e-06
-2.601071487e-11
-1.100307176e-11
9.428411279e-06
-2.344660715e-11
-8.030717536e-12
9.428400432e-06
-1.989686515e-11
-5.95237399e-12
9.428394519e-06
-1.480973906e-11
-3.600132174e-12
9.428390477e-06
-1.344056041e-11
-3.640059743e-12
9.428388201e-06
-1.085696532e-11
-3.030573011e-12
9.428386667e-06
-8.830436438e-12
-2.009312611e-12
9.428387355e-06
-5.770246849e-12
-1.940800725e-12
9.428387891e-06
-4.915571426e-12
-1.41128537e-12
9.428390893e-06
-5.847320552e-12
-7.443716208e-13
9.428394376e-06
-5.643957661e-12
-2.994916705e-13
-5.704371218e-12
-1.074653434e-12
9.428495453e-06
-2.663072082e-13
9.428477431e-06
-2.631236555e-12
9.428457188e-06
-6.295199723e-12
9.428440612e-06
-5.064801035e-12
9.428431584e-06
-2.15090471e-12
9.428418448e-06
-2.645458855e-12
9.428410807e-06
-8.684845714e-13
9.428404725e-06
-5.095541274e-13
9.428401412e-06
-3.033635934e-13
9.428396228e-06
-1.901226856e-12
9.428389988e-06
-8.146478299e-13
9.428390618e-06
-2.507637229e-13
9.428388289e-06
-5.062077212e-13
-5.754418257e-13
9.428477144e-06
-1.069150206e-10