/*--------------------------------*- C++ -*----------------------------------*\
| =========                 |                                                 |
| \\      /  F ield         | OpenFOAM: The Open Source CFD Toolbox           |
|  \\    /   O peration     | Version:  4.x                                   |
|   \\  /    A nd           | Web:      www.OpenFOAM.org                      |
|    \\/     M anipulation  |                                                 |
\*---------------------------------------------------------------------------*/
FoamFile
{
    version     2.0;
    format      ascii;
    class       volScalarField;
    location    "10000";
    object      rho;
}
// * * * * * * * * * * * * * * * * * * * * * * * * * * * * * * * * * * * * * //

dimensions      [1 -3 0 0 0 0 0];

internalField   nonuniform List<scalar> 
1174
(
0.2777046346
0.2777048284
0.277705031
0.277705348
0.2777057334
0.2777061436
0.277706586
0.2777070873
0.2777075922
0.2777081216
0.2777086405
0.2777091467
0.2777096074
0.2777099737
0.2777045247
0.2777048023
0.2777051629
0.2777055712
0.2777060072
0.2777065471
0.2777071347
0.277707684
0.2777082508
0.2777088354
0.2777093707
0.2777098938
0.2777103622
0.2777106627
0.277705147
0.277705577
0.2777060908
0.2777067334
0.2777074207
0.2777081067
0.2777087713
0.2777093772
0.2777099578
0.2777105099
0.2777109832
0.2777114157
0.2777118369
0.2777121496
0.2777045006
0.2777051848
0.2777059982
0.2777068942
0.2777077622
0.2777085949
0.2777093556
0.2777100398
0.2777106037
0.2777110946
0.2777115824
0.2777119706
0.2777123042
0.2777125292
0.2777057889
0.2777066489
0.2777075659
0.277708505
0.2777094219
0.2777102419
0.2777109778
0.2777116231
0.2777122189
0.2777126777
0.2777131054
0.2777134252
0.2777137159
0.2777139364
0.2777073309
0.2777080072
0.2777088192
0.2777096099
0.2777104701
0.2777112736
0.2777120397
0.2777127202
0.2777132823
0.2777137984
0.2777142612
0.2777146331
0.2777149223
0.2777151809
0.2777065994
0.2777070624
0.2777075886
0.2777082552
0.2777089497
0.2777096352
0.2777102972
0.2777109291
0.2777115383
0.2777120908
0.2777126131
0.2777130858
0.2777134621
0.2777137343
0.2777049057
0.277705149
0.2777054883
0.2777058851
0.2777063338
0.2777068776
0.2777074067
0.2777079717
0.2777084868
0.2777089953
0.2777095402
0.2777100492
0.2777105096
0.2777108343
0.2777046154
0.2777047755
0.2777050229
0.2777053092
0.2777057046
0.2777061462
0.2777065676
0.2777070614
0.2777075911
0.2777081342
0.277708643
0.277709139
0.2777096333
0.2777100474
0.2777052096
0.2777053864
0.2777056656
0.277705987
0.2777063716
0.2777068525
0.2777073636
0.2777079254
0.2777085109
0.2777090606
0.277709605
0.2777101763
0.277710629
0.2777110935
0.2777114679
0.2777049042
0.2777053516
0.2777058864
0.277706485
0.2777071332
0.2777077575
0.2777084143
0.2777090072
0.2777095463
0.27771007
0.2777105294
0.2777109392
0.2777113202
0.2777116332
0.2777052272
0.2777060914
0.2777070593
0.2777079996
0.2777088997
0.277709736
0.2777104213
0.2777110237
0.2777115047
0.2777119125
0.277712312
0.2777126248
0.277712903
0.2777131425
0.2777080051
0.2777094746
0.277710806
0.2777119719
0.2777129692
0.277713775
0.277714379
0.2777148268
0.277715188
0.2777154236
0.2777156033
0.277715704
0.2777157367
0.2777157772
0.2777093287
0.2777110772
0.2777125588
0.277713759
0.2777146239
0.2777153073
0.2777157854
0.2777161213
0.2777163388
0.2777164767
0.2777165333
0.2777165765
0.2777165888
0.2777165785
0.277706545
0.2777080483
0.2777093822
0.2777105925
0.2777116122
0.2777123899
0.2777130069
0.2777134002
0.2777137672
0.2777140095
0.2777141731
0.27771435
0.277714414
0.2777144702
0.2777039232
0.2777047704
0.2777057274
0.2777066382
0.2777075071
0.2777083146
0.2777090341
0.2777096673
0.2777102128
0.2777105853
0.2777109546
0.2777112446
0.277711462
0.2777116812
0.2777067915
0.2777072571
0.2777077734
0.2777084065
0.2777090627
0.2777097359
0.2777103564
0.277711016
0.2777115869
0.2777121387
0.2777126321
0.2777130627
0.2777134164
0.277713702
0.2777045926
0.2777048494
0.2777051843
0.2777056376
0.2777060841
0.277706619
0.2777071544
0.2777077181
0.277708266
0.2777088023
0.2777093086
0.2777097895
0.2777102166
0.2777105611
0.2777052292
0.2777055655
0.2777060086
0.2777065731
0.2777071823
0.2777078694
0.2777085438
0.2777091917
0.2777098419
0.2777104426
0.2777110005
0.2777115216
0.2777119728
0.2777123566
0.2777126231
0.2777056781
0.2777063621
0.2777072552
0.2777082128
0.2777092111
0.2777100777
0.2777108503
0.2777115653
0.2777121667
0.2777126833
0.2777131061
0.2777134549
0.2777137735
0.277714038
0.2777141748
0.2777088724
0.277710681
0.2777123974
0.277713774
0.2777147699
0.2777155205
0.2777160478
0.2777164013
0.2777165292
0.2777166087
0.2777166159
0.2777165768
0.2777165401
0.277716517
0.2777145436
0.2777176278
0.2777197457
0.2777209926
0.2777215498
0.2777216734
0.2777215347
0.2777212214
0.2777208544
0.2777204231
0.2777199605
0.2777195245
0.2777191437
0.2777188198
0.2777209062
0.2777240162
0.2777252731
0.2777254628
0.2777250675
0.2777243823
0.2777235216
0.2777226644
0.2777218236
0.27772102
0.277720335
0.2777196731
0.2777191129
0.277718654
0.2777152462
0.2777183778
0.2777205134
0.277721749
0.2777223258
0.277722467
0.2777222664
0.277721937
0.2777215215
0.2777210584
0.2777206041
0.2777202016
0.2777197646
0.2777195054
0.2777091815
0.2777110295
0.277712702
0.2777140609
0.2777150445
0.2777157727
0.2777162864
0.2777165516
0.2777166911
0.2777168062
0.2777168169
0.2777167725
0.2777167193
0.2777166637
0.2777065289
0.2777073977
0.2777083122
0.2777092876
0.2777101918
0.2777109238
0.2777115659
0.2777121514
0.2777126655
0.2777130706
0.2777134483
0.277713788
0.2777139892
0.2777141933
0.2777061146
0.2777065403
0.2777071039
0.2777077453
0.2777084137
0.2777091135
0.2777098147
0.2777104756
0.277711083
0.2777115909
0.2777120877
0.2777125144
0.2777129089
0.2777131992
0.2777058054
0.2777063524
0.2777070569
0.2777078817
0.2777087282
0.2777095848
0.2777103974
0.2777111772
0.277711867
0.2777124306
0.2777129245
0.2777133724
0.2777137258
0.2777140527
0.2777143128
0.2777070075
0.2777083683
0.2777097996
0.277711199
0.27771241
0.2777134304
0.2777142378
0.277714868
0.2777153375
0.2777156284
0.2777159033
0.277716078
0.2777161653
0.2777162066
0.2777162511
0.2777126719
0.277716475
0.277719551
0.277721719
0.2777229565
0.2777235519
0.2777236412
0.2777234818
0.2777231323
0.277722724
0.2777222435
0.2777218258
0.2777213957
0.2777210073
0.2777207043
0.2777331777
0.2777370502
0.2777376758
0.2777364864
0.277734533
0.2777323796
0.2777302241
0.2777282278
0.2777265031
0.2777249866
0.2777236821
0.2777225343
0.277721601
0.2777209256
0.2777716037
0.2777666305
0.2777590241
0.2777517257
0.277745557
0.2777405583
0.2777365118
0.2777332722
0.277730634
0.2777284702
0.2777266772
0.2777252056
0.2777239579
0.2777230722
0.2777334209
0.2777373035
0.277737894
0.2777367512
0.2777348074
0.2777326499
0.27773056
0.2777286379
0.2777268785
0.277725343
0.2777240122
0.2777229126
0.2777219526
0.277721227
0.2777142021
0.2777172936
0.2777194456
0.277720717
0.2777213164
0.2777213943
0.2777212292
0.2777209119
0.2777204697
0.2777200209
0.2777195625
0.2777191304
0.2777187448
0.2777184445
0.2777071067
0.277708563
0.2777099483
0.2777111515
0.2777121559
0.2777129383
0.2777135359
0.2777140055
0.2777143626
0.2777145684
0.2777147222
0.2777148181
0.2777148847
0.277714945
0.2777054121
0.2777060897
0.277706944
0.277707816
0.2777086678
0.2777094437
0.2777102065
0.2777108633
0.2777114342
0.2777119947
0.2777124491
0.2777128466
0.2777131729
0.2777134412
0.2777054218
0.2777061035
0.2777069694
0.2777078814
0.2777088374
0.2777097477
0.2777105927
0.2777113228
0.2777120108
0.2777125539
0.2777130108
0.277713436
0.2777137931
0.2777141055
0.2777142823
0.2777078156
0.2777096217
0.2777113929
0.2777128737
0.2777140826
0.2777149953
0.2777156387
0.2777161489
0.2777164292
0.2777165821
0.2777166959
0.2777166987
0.2777167485
0.277716753
0.2777167781
0.2777140316
0.2777195818
0.2777226164
0.2777239342
0.2777241866
0.2777237957
0.2777231137
0.2777222623
0.2777214234
0.2777205595
0.2777197867
0.2777190566
0.2777184651
0.277717862
0.2777174164
0.2777639147
0.2777705299
0.2777655602
0.2777579264
0.2777506504
0.2777445044
0.2777394813
0.2777354297
0.2777321818
0.2777295403
0.2777273722
0.2777255605
0.2777240505
0.2777228651
0.2777219783
0.2786185236
0.2785360845
0.278490764
0.2784644419
0.2784483057
0.2784379065
0.2784308861
0.2784259109
0.2784222999
0.2784195953
0.2784175604
0.2784160548
0.2784149392
0.2784142599
0.2777713288
0.2777663759
0.2777587793
0.2777515035
0.2777453239
0.2777403331
0.277736242
0.2777329412
0.277730305
0.2777281172
0.2777263266
0.2777248015
0.2777235646
0.2777226621
0.2777219133
0.2777249548
0.2777262565
0.2777264915
0.2777260542
0.2777253672
0.2777245747
0.2777237468
0.2777228733
0.2777221219
0.277721366
0.277720735
0.2777201799
0.2777197632
0.2777101523
0.2777118874
0.2777133608
0.2777145297
0.2777154194
0.2777160491
0.2777165199
0.2777168224
0.277717016
0.2777171438
0.277717199
0.2777172302
0.2777172377
0.2777172573
0.2777066619
0.2777074994
0.2777084181
0.2777093026
0.2777102012
0.2777110418
0.2777118086
0.2777124903
0.2777130473
0.2777135446
0.2777139444
0.277714285
0.2777146141
0.2777148761
0.2777058856
0.27770639
0.2777071033
0.2777079159
0.27770882
0.2777096602
0.2777104961
0.2777112298
0.2777119058
0.2777124953
0.2777130333
0.2777135049
0.277713916
0.2777142497
0.2777144581
0.2777079502
0.2777092852
0.2777107114
0.2777121241
0.277713306
0.2777142626
0.2777150575
0.2777156438
0.277716035
0.2777164163
0.2777165957
0.2777167507
0.2777168489
0.2777169345
0.277716967
0.2777112308
0.2777150195
0.2777181412
0.2777202598
0.2777215464
0.2777221322
0.2777222217
0.2777220671
0.2777217247
0.2777212774
0.2777208194
0.2777203688
0.277719949
0.2777195282
0.277719205
0.2777256879
0.2777344599
0.2777382872
0.2777389215
0.2777377587
0.2777358524
0.2777336969
0.2777315815
0.2777296587
0.2777279477
0.277726451
0.277725171
0.2777240502
0.2777231075
0.2777224113
0.2777651862
0.277771777
0.2777667936
0.2777592016
0.2777519634
0.2777457632
0.277740738
0.2777366754
0.2777334059
0.2777307112
0.2777284874
0.2777266559
0.2777251304
0.2777239227
0.2777230578
0.2777255494
0.277734297
0.2777381744
0.2777387886
0.2777375956
0.2777356399
0.2777334975
0.2777313755
0.2777294643
0.277727751
0.2777262493
0.2777248734
0.2777237587
0.2777228188
0.2777221704
0.2777139524
0.2777170426
0.2777191745
0.2777204598
0.2777210712
0.2777211991
0.2777210389
0.2777206814
0.2777202077
0.2777197459
0.2777193575
0.2777189459
0.2777185481
0.2777182256
0.2777082902
0.2777096928
0.2777110738
0.277712252
0.2777132781
0.2777140404
0.2777146113
0.2777150468
0.2777154174
0.277715661
0.2777158437
0.2777159646
0.2777160413
0.2777160781
0.2777064901
0.2777071974
0.2777080118
0.2777088645
0.2777097162
0.2777105342
0.2777112587
0.2777119617
0.2777125431
0.2777130808
0.2777135232
0.2777138742
0.2777141818
0.2777144332
0.2777064088
0.2777067754
0.2777072109
0.2777077634
0.277708433
0.2777091273
0.2777098278
0.2777105263
0.2777111701
0.277711774
0.2777123399
0.2777128742
0.2777133077
0.2777137011
0.2777139881
0.2777047626
0.2777055146
0.2777063996
0.2777073489
0.2777083077
0.2777091947
0.2777099778
0.2777106444
0.2777112299
0.2777116973
0.2777121201
0.2777124766
0.2777127627
0.2777130254
0.2777131881
0.2777050355
0.277706798
0.2777086425
0.2777103105
0.2777116436
0.2777126589
0.2777134236
0.2777138724
0.2777141671
0.2777143529
0.2777144288
0.2777144044
0.2777144001
0.2777143722
0.2777143138
0.2777105196
0.2777143385
0.277717447
0.2777195718
0.2777207952
0.2777213954
0.277721538
0.277721361
0.2777210164
0.2777205867
0.2777201322
0.2777197546
0.2777192727
0.2777188757
0.2777186096
0.277717337
0.2777228765
0.2777259485
0.2777272673
0.2777274937
0.2777270877
0.2777263659
0.2777255406
0.2777246672
0.277723863
0.2777230672
0.2777223467
0.2777217056
0.2777211221
0.277720693
0.277710846
0.2777146216
0.2777177324
0.2777198951
0.2777211409
0.2777217435
0.277721844
0.2777216715
0.2777212715
0.2777208367
0.2777204457
0.2777199817
0.2777195326
0.2777191446
0.2777188457
0.2777067837
0.2777085658
0.2777103923
0.2777120253
0.2777133869
0.2777144133
0.2777151663
0.2777156363
0.2777159855
0.2777161975
0.2777162859
0.2777162973
0.2777162684
0.2777162198
0.2777162011
0.2777072394
0.2777081242
0.2777090965
0.2777100313
0.2777109163
0.2777116964
0.2777124156
0.277713016
0.2777135088
0.2777139267
0.2777142469
0.2777145226
0.2777147586
0.2777148974
0.2777047552
0.2777052209
0.2777057605
0.2777063905
0.2777070608
0.2777077703
0.2777084436
0.2777090985
0.2777096849
0.2777102637
0.2777107823
0.2777112219
0.2777116423
0.2777119337
0.2777041064
0.2777042667
0.2777045115
0.2777048483
0.2777052377
0.2777057216
0.2777062635
0.277706837
0.2777073535
0.2777078928
0.2777084568
0.2777089669
0.2777094656
0.2777099191
0.2777102726
0.2777047061
0.2777050294
0.2777054443
0.2777059746
0.2777065991
0.2777072845
0.2777079337
0.277708628
0.277709244
0.2777097984
0.2777103247
0.2777107975
0.2777112277
0.2777116386
0.2777119575
0.2777053777
0.2777060949
0.2777069102
0.2777078686
0.2777088235
0.2777096832
0.2777104496
0.2777111121
0.2777117239
0.2777122487
0.2777126553
0.2777130242
0.2777132916
0.2777135102
0.2777137273
0.2777059465
0.2777073029
0.2777088339
0.2777102329
0.2777114395
0.2777123805
0.2777131487
0.2777137436
0.2777142225
0.2777145151
0.2777147544
0.2777149025
0.2777150039
0.2777151133
0.2777151414
0.2777065544
0.2777084079
0.2777101676
0.2777116377
0.27771282
0.277713685
0.2777143504
0.2777148037
0.2777150432
0.2777152891
0.2777153864
0.2777154409
0.2777154752
0.2777154898
0.2777155105
0.2777071256
0.2777084774
0.2777098959
0.277711268
0.2777125053
0.2777134938
0.2777142983
0.2777149201
0.2777153661
0.2777157093
0.2777159436
0.2777160894
0.2777162011
0.2777162574
0.2777162704
0.2777061004
0.2777068172
0.2777076937
0.2777086466
0.277709611
0.2777105259
0.2777112944
0.2777119679
0.277712546
0.2777130527
0.2777134718
0.2777138084
0.2777140821
0.2777143112
0.2777144779
0.2777050032
0.2777053138
0.2777057823
0.2777063533
0.2777069538
0.2777075867
0.2777082504
0.2777089005
0.2777094901
0.2777100194
0.2777105673
0.2777110468
0.2777114914
0.2777118841
0.2777121761
0.2777036202
0.2777038715
0.2777042637
0.2777046882
0.2777051356
0.2777056912
0.2777062664
0.2777068582
0.2777074185
0.27770795
0.2777084584
0.2777089449
0.2777093597
0.2777097014
0.27770529
0.2777054227
0.2777055521
0.2777057574
0.2777060596
0.2777064135
0.2777068343
0.2777073018
0.2777078063
0.2777083259
0.2777088733
0.277709399
0.2777099248
0.2777103892
0.2777107858
0.2777044119
0.2777045963
0.2777048702
0.2777052055
0.2777056217
0.2777061079
0.2777066524
0.2777071949
0.2777077272
0.2777083068
0.277708893
0.2777094352
0.2777099592
0.2777104077
0.2777107538
0.277705499
0.2777057783
0.2777062182
0.2777067814
0.2777074541
0.2777081176
0.2777087991
0.2777094611
0.2777101184
0.2777107274
0.2777112549
0.2777117459
0.2777121805
0.2777125791
0.2777128481
0.2777043609
0.2777049056
0.2777056095
0.277706418
0.2777072917
0.2777081242
0.2777089295
0.2777096488
0.2777103014
0.2777108726
0.2777114319
0.2777118587
0.2777122519
0.2777125394
0.2777127684
0.2777057508
0.277706425
0.2777072718
0.2777081652
0.2777091168
0.2777100546
0.2777108527
0.2777115983
0.2777122302
0.2777127904
0.2777133027
0.2777137385
0.2777140728
0.2777143271
0.2777144923
0.2777038915
0.2777044219
0.2777051304
0.2777059422
0.27770677
0.2777075924
0.2777083945
0.2777091477
0.2777098196
0.2777104328
0.2777109368
0.2777114214
0.277711809
0.2777121146
0.2777123804
0.2777049603
0.2777052674
0.2777057303
0.2777063066
0.2777069579
0.2777076197
0.2777082989
0.2777089663
0.2777095972
0.2777102067
0.2777107433
0.2777112693
0.2777116862
0.2777120806
0.2777123608
0.2777055984
0.2777057955
0.2777060612
0.2777064075
0.2777068064
0.2777073037
0.2777078206
0.2777083945
0.2777089596
0.2777095403
0.2777101186
0.2777106529
0.2777111331
0.2777115854
0.2777118873
0.277704949
0.2777050309
0.2777052047
0.2777054229
0.2777057348
0.2777060775
0.2777064782
0.2777069559
0.2777074364
0.2777079613
0.2777085144
0.277709044
0.2777095166
0.2777100176
0.2777103861
)
;

boundaryField
{
    top
    {
        type            calculated;
        value           nonuniform List<scalar> 
127
(
0.277704949
0.2777046154
0.2777045926
0.2777061146
0.2777054121
0.2777066619
0.2777064901
0.2777047552
0.2777036202
0.2777050309
0.2777047755
0.2777048494
0.2777065403
0.2777060897
0.2777074994
0.2777071974
0.2777052209
0.2777038715
0.2777052047
0.2777050229
0.2777051843
0.2777071039
0.277706944
0.2777084181
0.2777080118
0.2777057605
0.2777042637
0.2777054229
0.2777053092
0.2777056376
0.2777077453
0.277707816
0.2777093026
0.2777088645
0.2777063905
0.2777046882
0.2777057348
0.2777057046
0.2777060841
0.2777084137
0.2777086678
0.2777102012
0.2777097162
0.2777070608
0.2777051356
0.2777060775
0.2777061462
0.277706619
0.2777091135
0.2777094437
0.2777110418
0.2777105342
0.2777077703
0.2777056912
0.2777064782
0.2777065676
0.2777071544
0.2777098147
0.2777102065
0.2777118086
0.2777112587
0.2777084436
0.2777062664
0.2777069559
0.2777070614
0.2777077181
0.2777104756
0.2777108633
0.2777124903
0.2777119617
0.2777090985
0.2777068582
0.2777074364
0.2777075911
0.277708266
0.277711083
0.2777114342
0.2777130473
0.2777125431
0.2777096849
0.2777074185
0.2777079613
0.2777081342
0.2777088023
0.2777115909
0.2777119947
0.2777135446
0.2777130808
0.2777102637
0.27770795
0.2777085144
0.277708643
0.2777093086
0.2777120877
0.2777124491
0.2777139444
0.2777135232
0.2777107823
0.2777084584
0.277709044
0.277709139
0.2777097895
0.2777125144
0.2777128466
0.277714285
0.2777138742
0.2777112219
0.2777089449
0.2777095166
0.2777096333
0.2777102166
0.2777129089
0.2777131729
0.2777146141
0.2777141818
0.2777116423
0.2777093597
0.2777100176
0.2777100474
0.2777105611
0.2777131992
0.2777134412
0.2777148761
0.2777144332
0.2777119337
0.2777097014
0.2777103861
)
;
    }
    bottom
    {
        type            calculated;
        value           nonuniform List<scalar> 
134
(
0.2777052096
0.2777052292
0.2777058054
0.2777054218
0.2777058856
0.2777064088
0.2777041064
0.27770529
0.2777046346
0.2777053864
0.2777055655
0.2777063524
0.2777061035
0.27770639
0.2777067754
0.2777042667
0.2777054227
0.2777048284
0.2777056656
0.2777060086
0.2777070569
0.2777069694
0.2777071033
0.2777072109
0.2777045115
0.2777055521
0.277705031
0.277705987
0.2777065731
0.2777078817
0.2777078814
0.2777079159
0.2777077634
0.2777048483
0.2777057574
0.277705348
0.2777063716
0.2777071823
0.2777087282
0.2777088374
0.27770882
0.277708433
0.2777052377
0.2777060596
0.2777057334
0.2777068525
0.2777078694
0.2777095848
0.2777097477
0.2777096602
0.2777091273
0.2777057216
0.2777064135
0.2777061436
0.2777073636
0.2777085438
0.2777103974
0.2777105927
0.2777104961
0.2777098278
0.2777062635
0.2777068343
0.277706586
0.2777079254
0.2777091917
0.2777111772
0.2777113228
0.2777112298
0.2777105263
0.277706837
0.2777073018
0.2777070873
0.2777085109
0.2777098419
0.277711867
0.2777120108
0.2777119058
0.2777111701
0.2777073535
0.2777078063
0.2777075922
0.2777090606
0.2777104426
0.2777124306
0.2777125539
0.2777124953
0.277711774
0.2777078928
0.2777083259
0.2777081216
0.277709605
0.2777110005
0.2777129245
0.2777130108
0.2777130333
0.2777123399
0.2777084568
0.2777088733
0.2777086405
0.2777101763
0.2777115216
0.2777133724
0.277713436
0.2777135049
0.2777128742
0.2777089669
0.277709399
0.2777091467
0.277710629
0.2777119728
0.2777137258
0.2777137931
0.277713916
0.2777133077
0.2777094656
0.2777099248
0.2777096074
0.2777110935
0.2777123566
0.2777140527
0.2777141055
0.2777142497
0.2777137011
0.2777099191
0.2777103892
0.2777099737
0.2777114679
0.2777126231
0.2777143128
0.2777142823
0.2777144581
0.2777139881
0.2777102726
0.2777107858
)
;
    }
    side-walls
    {
        type            calculated;
        value           nonuniform List<scalar> 
261
(
0.2777046346
0.2777045247
0.277705147
0.2777045006
0.2777057889
0.2777073309
0.2777065994
0.2777049057
0.2777046154
0.2777048284
0.2777048023
0.277705577
0.2777051848
0.2777066489
0.2777080072
0.2777070624
0.277705149
0.2777047755
0.277705031
0.2777051629
0.2777060908
0.2777059982
0.2777075659
0.2777088192
0.2777075886
0.2777054883
0.2777050229
0.277705348
0.2777055712
0.2777067334
0.2777068942
0.277708505
0.2777096099
0.2777082552
0.2777058851
0.2777053092
0.2777057334
0.2777060072
0.2777074207
0.2777077622
0.2777094219
0.2777104701
0.2777089497
0.2777063338
0.2777057046
0.2777061436
0.2777065471
0.2777081067
0.2777085949
0.2777102419
0.2777112736
0.2777096352
0.2777068776
0.2777061462
0.277706586
0.2777071347
0.2777087713
0.2777093556
0.2777109778
0.2777120397
0.2777102972
0.2777074067
0.2777065676
0.2777070873
0.277707684
0.2777093772
0.2777100398
0.2777116231
0.2777127202
0.2777109291
0.2777079717
0.2777070614
0.2777075922
0.2777082508
0.2777099578
0.2777106037
0.2777122189
0.2777132823
0.2777115383
0.2777084868
0.2777075911
0.2777081216
0.2777088354
0.2777105099
0.2777110946
0.2777126777
0.2777137984
0.2777120908
0.2777089953
0.2777081342
0.2777086405
0.2777093707
0.2777109832
0.2777115824
0.2777131054
0.2777142612
0.2777126131
0.2777095402
0.277708643
0.2777091467
0.2777098938
0.2777114157
0.2777119706
0.2777134252
0.2777146331
0.2777130858
0.2777100492
0.277709139
0.2777096074
0.2777103622
0.2777118369
0.2777123042
0.2777137159
0.2777149223
0.2777134621
0.2777105096
0.2777096333
0.2777099737
0.2777106627
0.2777121496
0.2777125292
0.2777139364
0.2777151809
0.2777137343
0.2777108343
0.2777100474
0.27770529
0.2777044119
0.277705499
0.2777043609
0.2777057508
0.2777038915
0.2777049603
0.2777055984
0.277704949
0.2777054227
0.2777045963
0.2777057783
0.2777049056
0.277706425
0.2777044219
0.2777052674
0.2777057955
0.2777050309
0.2777055521
0.2777048702
0.2777062182
0.2777056095
0.2777072718
0.2777051304
0.2777057303
0.2777060612
0.2777052047
0.2777057574
0.2777052055
0.2777067814
0.277706418
0.2777081652
0.2777059422
0.2777063066
0.2777064075
0.2777054229
0.2777060596
0.2777056217
0.2777074541
0.2777072917
0.2777091168
0.27770677
0.2777069579
0.2777068064
0.2777057348
0.2777064135
0.2777061079
0.2777081176
0.2777081242
0.2777100546
0.2777075924
0.2777076197
0.2777073037
0.2777060775
0.2777068343
0.2777066524
0.2777087991
0.2777089295
0.2777108527
0.2777083945
0.2777082989
0.2777078206
0.2777064782
0.2777073018
0.2777071949
0.2777094611
0.2777096488
0.2777115983
0.2777091477
0.2777089663
0.2777083945
0.2777069559
0.2777078063
0.2777077272
0.2777101184
0.2777103014
0.2777122302
0.2777098196
0.2777095972
0.2777089596
0.2777074364
0.2777083259
0.2777083068
0.2777107274
0.2777108726
0.2777127904
0.2777104328
0.2777102067
0.2777095403
0.2777079613
0.2777088733
0.277708893
0.2777112549
0.2777114319
0.2777133027
0.2777109368
0.2777107433
0.2777101186
0.2777085144
0.277709399
0.2777094352
0.2777117459
0.2777118587
0.2777137385
0.2777114214
0.2777112693
0.2777106529
0.277709044
0.2777099248
0.2777099592
0.2777121805
0.2777122519
0.2777140728
0.277711809
0.2777116862
0.2777111331
0.2777095166
0.2777103892
0.2777104077
0.2777125791
0.2777125394
0.2777143271
0.2777121146
0.2777120806
0.2777115854
0.2777100176
0.2777107858
0.2777107538
0.2777128481
0.2777127684
0.2777144923
0.2777123804
0.2777123608
0.2777118873
0.2777103861
)
;
    }
    inlet
    {
        type            calculated;
        value           nonuniform 0();
    }
    outlet
    {
        type            calculated;
        value           nonuniform List<scalar> 
81
(
0.2777099737
0.2777106627
0.2777121496
0.2777125292
0.2777139364
0.2777151809
0.2777137343
0.2777108343
0.2777100474
0.2777114679
0.2777116332
0.2777131425
0.2777157772
0.2777165785
0.2777144702
0.2777116812
0.277713702
0.2777105611
0.2777126231
0.2777141748
0.277716517
0.2777188198
0.277718654
0.2777195054
0.2777166637
0.2777141933
0.2777131992
0.2777143128
0.2777162511
0.2777207043
0.2777209256
0.2777230722
0.277721227
0.2777184445
0.277714945
0.2777134412
0.2777142823
0.2777167781
0.2777174164
0.2777219783
0.2784142599
0.2777226621
0.2777197632
0.2777172573
0.2777148761
0.2777144581
0.277716967
0.277719205
0.2777224113
0.2777230578
0.2777221704
0.2777182256
0.2777160781
0.2777144332
0.2777139881
0.2777131881
0.2777143138
0.2777186096
0.277720693
0.2777188457
0.2777162011
0.2777148974
0.2777119337
0.2777102726
0.2777119575
0.2777137273
0.2777151414
0.2777155105
0.2777162704
0.2777144779
0.2777121761
0.2777097014
0.2777107858
0.2777107538
0.2777128481
0.2777127684
0.2777144923
0.2777123804
0.2777123608
0.2777118873
0.2777103861
)
;
    }
    procBoundary1to0
    {
        type            processor;
        value           nonuniform List<scalar> 
97
(
0.277704539
0.277704539
0.2777043297
0.2777048229
0.2777039425
0.2777051262
0.2777067588
0.2777062848
0.2777047191
0.277704512
0.2777051117
0.277704543
0.277704543
0.277704543
0.2777044794
0.2777066444
0.2777074867
0.2777052661
0.2777032082
0.2777064745
0.2777044194
0.2777049775
0.2777051924
0.2777070926
0.2777070926
0.2777070926
0.2777107449
0.2777153807
0.2777114509
0.2777074416
0.2777058063
0.2777057458
0.277705437
0.2777059815
0.2777091743
0.2777243794
0.2777243794
0.2777243794
0.2777649717
0.277724625
0.2777103957
0.2777058191
0.2777048331
0.2777049849
0.2777062642
0.2777066877
0.2777200909
0.27877727
0.27877727
0.27877727
0.2777646983
0.2777646983
0.2777164168
0.2777083287
0.277705975
0.277705531
0.2777069983
0.2777076727
0.277712642
0.2777213273
0.2777125495
0.2777101683
0.2777101683
0.2777101683
0.277706928
0.2777059657
0.2777062286
0.2777043099
0.2777036703
0.2777070228
0.277709964
0.2777073008
0.2777054632
0.2777065322
0.2777065322
0.2777065322
0.2777043623
0.2777040117
0.2777044956
0.2777049302
0.2777049615
0.2777049834
0.2777061054
0.2777056222
0.2777048129
0.2777034576
0.2777034576
0.2777034576
0.2777052354
0.2777042862
0.277705279
0.2777040083
0.2777052994
0.2777035113
0.2777047866
0.2777055006
0.2777048938
)
;
    }
}


// ************************************************************************* //
