/*--------------------------------*- C++ -*----------------------------------*\
| =========                 |                                                 |
| \\      /  F ield         | OpenFOAM: The Open Source CFD Toolbox           |
|  \\    /   O peration     | Version:  4.x                                   |
|   \\  /    A nd           | Web:      www.OpenFOAM.org                      |
|    \\/     M anipulation  |                                                 |
\*---------------------------------------------------------------------------*/
FoamFile
{
    version     2.0;
    format      ascii;
    class       volScalarField;
    location    "10000";
    object      T;
}
// * * * * * * * * * * * * * * * * * * * * * * * * * * * * * * * * * * * * * //

dimensions      [0 0 0 1 0 0 0];

internalField   nonuniform List<scalar> 
1174
(
1223.151825
1223.151791
1223.152052
1223.152159
1223.152296
1223.152614
1223.153024
1223.153342
1223.153747
1223.154085
1223.154455
1223.154805
1223.155176
1223.155445
1223.153077
1223.153164
1223.153316
1223.153648
1223.154174
1223.154468
1223.154686
1223.155127
1223.155474
1223.155672
1223.155975
1223.156176
1223.156384
1223.156811
1223.152029
1223.152445
1223.153035
1223.153439
1223.153851
1223.154319
1223.154808
1223.155396
1223.15588
1223.156246
1223.156702
1223.157075
1223.157199
1223.157302
1223.157353
1223.157923
1223.158446
1223.158826
1223.1593
1223.159722
1223.160143
1223.160525
1223.161047
1223.161507
1223.161623
1223.161846
1223.161982
1223.162151
1223.153445
1223.153937
1223.154559
1223.155134
1223.155621
1223.1562
1223.156731
1223.157215
1223.157474
1223.157919
1223.15812
1223.158454
1223.15859
1223.158625
1223.144887
1223.145492
1223.146021
1223.146865
1223.147373
1223.147924
1223.148321
1223.14872
1223.149249
1223.149598
1223.149824
1223.150119
1223.150451
1223.150472
1223.145632
1223.145903
1223.146438
1223.146736
1223.147117
1223.147587
1223.148088
1223.148561
1223.148919
1223.149283
1223.149523
1223.149719
1223.150041
1223.150322
1223.151399
1223.151637
1223.151883
1223.152266
1223.152736
1223.153012
1223.153488
1223.153859
1223.154434
1223.154968
1223.155228
1223.155492
1223.155735
1223.156055
1223.15191
1223.152023
1223.152088
1223.15233
1223.152423
1223.152603
1223.153105
1223.153456
1223.153752
1223.154029
1223.154444
1223.154839
1223.155062
1223.155121
1223.149175
1223.149282
1223.149361
1223.149687
1223.150123
1223.150451
1223.150872
1223.151204
1223.151485
1223.151907
1223.152283
1223.152427
1223.152938
1223.153163
1223.153265
1223.153133
1223.153456
1223.153892
1223.154377
1223.154804
1223.155354
1223.155675
1223.156122
1223.15661
1223.15695
1223.157349
1223.157739
1223.157989
1223.158065
1223.156049
1223.156689
1223.157249
1223.157898
1223.158414
1223.15875
1223.159236
1223.159584
1223.160005
1223.160345
1223.160377
1223.160497
1223.160501
1223.160328
1223.151513
1223.152419
1223.153554
1223.154518
1223.155145
1223.155567
1223.155955
1223.15627
1223.156362
1223.156538
1223.156604
1223.156752
1223.157001
1223.157054
1223.152932
1223.154097
1223.155063
1223.155704
1223.156382
1223.156653
1223.15687
1223.156976
1223.157049
1223.157064
1223.157141
1223.157068
1223.156995
1223.156965
1223.157944
1223.158701
1223.159825
1223.160593
1223.161122
1223.161667
1223.161998
1223.162554
1223.162619
1223.162766
1223.162903
1223.162716
1223.162826
1223.162811
1223.161793
1223.162507
1223.163115
1223.163894
1223.164548
1223.16501
1223.165346
1223.165558
1223.165695
1223.166191
1223.166355
1223.166576
1223.166847
1223.166764
1223.14482
1223.145063
1223.145581
1223.145914
1223.146305
1223.14664
1223.147122
1223.147275
1223.147622
1223.147838
1223.148088
1223.148386
1223.148757
1223.148953
1223.152778
1223.152956
1223.153222
1223.153356
1223.153835
1223.154151
1223.154599
1223.154976
1223.155407
1223.155818
1223.156248
1223.156636
1223.157025
1223.157259
1223.150003
1223.150186
1223.150544
1223.150911
1223.151461
1223.151875
1223.152394
1223.152957
1223.153349
1223.153745
1223.154085
1223.154331
1223.154621
1223.15491
1223.155216
1223.150465
1223.15105
1223.151563
1223.152169
1223.152562
1223.153225
1223.153841
1223.154198
1223.154549
1223.154814
1223.155088
1223.155343
1223.155438
1223.155502
1223.155781
1223.15279
1223.154178
1223.155066
1223.155907
1223.15676
1223.157186
1223.157362
1223.157358
1223.157658
1223.15769
1223.157716
1223.157741
1223.157647
1223.157496
1223.156225
1223.158392
1223.159881
1223.160734
1223.161221
1223.161283
1223.161026
1223.160683
1223.160142
1223.159719
1223.159437
1223.159148
1223.158829
1223.158729
1223.165342
1223.167258
1223.168355
1223.168605
1223.168331
1223.167766
1223.167313
1223.166696
1223.166138
1223.16569
1223.165057
1223.164692
1223.164308
1223.164199
1223.153129
1223.155089
1223.1565
1223.157402
1223.157803
1223.157788
1223.157803
1223.157531
1223.157204
1223.156921
1223.156602
1223.156166
1223.156095
1223.155709
1223.151428
1223.152644
1223.153724
1223.154644
1223.15555
1223.156075
1223.156311
1223.156696
1223.156945
1223.15682
1223.15683
1223.156879
1223.156858
1223.15685
1223.150316
1223.150935
1223.151731
1223.152225
1223.152723
1223.153518
1223.154195
1223.154617
1223.154892
1223.155244
1223.155373
1223.155374
1223.155717
1223.1557
1223.147767
1223.148202
1223.148573
1223.148982
1223.149477
1223.149885
1223.150213
1223.150558
1223.150924
1223.151485
1223.151837
1223.152236
1223.152478
1223.152679
1223.148837
1223.149197
1223.149677
1223.15015
1223.150748
1223.151273
1223.151783
1223.15212
1223.152478
1223.153
1223.153447
1223.153739
1223.154115
1223.154281
1223.154295
1223.149105
1223.149913
1223.150987
1223.151823
1223.152588
1223.153114
1223.153528
1223.153801
1223.154021
1223.154422
1223.154425
1223.154514
1223.15472
1223.154931
1223.154967
1223.145183
1223.147718
1223.149922
1223.15119
1223.152084
1223.152403
1223.152616
1223.15245
1223.152267
1223.151908
1223.151701
1223.151222
1223.150907
1223.150621
1223.150429
1223.171417
1223.174055
1223.174404
1223.173797
1223.172589
1223.171096
1223.169861
1223.168799
1223.167627
1223.166633
1223.165725
1223.165058
1223.164364
1223.163832
1223.192722
1223.18937
1223.184384
1223.179728
1223.175679
1223.172259
1223.169582
1223.167303
1223.165474
1223.163978
1223.162759
1223.161669
1223.160966
1223.160415
1223.170345
1223.172938
1223.173442
1223.172631
1223.17138
1223.169906
1223.168382
1223.166993
1223.165973
1223.165063
1223.164272
1223.163392
1223.162815
1223.162504
1223.157728
1223.159864
1223.161202
1223.161948
1223.162248
1223.162512
1223.162371
1223.162046
1223.161836
1223.16149
1223.16119
1223.160884
1223.160586
1223.160382
1223.15547
1223.156434
1223.157332
1223.158131
1223.158727
1223.159252
1223.159669
1223.159888
1223.159997
1223.160305
1223.160485
1223.160654
1223.160753
1223.16072
1223.153339
1223.153937
1223.15428
1223.154766
1223.155311
1223.155984
1223.156395
1223.156898
1223.157389
1223.157542
1223.157805
1223.157987
1223.158156
1223.158134
1223.151554
1223.152059
1223.152525
1223.153169
1223.15367
1223.154187
1223.154655
1223.155212
1223.155507
1223.155998
1223.156452
1223.156664
1223.156833
1223.156874
1223.157102
1223.150226
1223.151642
1223.152706
1223.153676
1223.154279
1223.154746
1223.155193
1223.155269
1223.15562
1223.155977
1223.156099
1223.156412
1223.156311
1223.156272
1223.156086
1223.167757
1223.171175
1223.173423
1223.174252
1223.174226
1223.173932
1223.173353
1223.172859
1223.172162
1223.171706
1223.171122
1223.170688
1223.170012
1223.169818
1223.16965
1223.193033
1223.197451
1223.194083
1223.189217
1223.184463
1223.180314
1223.177002
1223.174348
1223.172106
1223.170291
1223.168814
1223.167677
1223.166757
1223.165779
1223.165233
1220.29146
1220.235539
1220.203555
1220.184097
1220.171392
1220.162428
1220.155687
1220.150519
1220.146201
1220.142535
1220.1392
1220.135962
1220.132994
1220.130415
1223.193933
1223.19049
1223.185461
1223.180706
1223.176705
1223.173251
1223.17077
1223.168762
1223.166923
1223.165533
1223.164303
1223.163449
1223.162698
1223.162222
1223.160906
1223.163124
1223.164023
1223.164074
1223.163986
1223.163429
1223.162675
1223.161929
1223.161515
1223.160837
1223.160517
1223.160015
1223.159609
1223.159314
1223.149305
1223.150528
1223.151531
1223.15231
1223.152878
1223.153386
1223.153635
1223.153888
1223.154066
1223.154126
1223.154209
1223.154189
1223.154138
1223.153976
1223.149599
1223.150191
1223.150805
1223.151621
1223.152189
1223.152677
1223.153072
1223.153395
1223.153825
1223.154101
1223.154425
1223.154667
1223.154634
1223.154487
1223.148484
1223.149031
1223.149472
1223.149999
1223.150344
1223.15094
1223.151348
1223.151888
1223.152307
1223.152715
1223.152968
1223.153155
1223.153277
1223.153413
1223.153655
1223.144952
1223.145875
1223.146972
1223.147749
1223.148642
1223.149448
1223.149918
1223.150384
1223.150949
1223.150952
1223.151376
1223.151551
1223.15171
1223.151725
1223.151814
1223.151531
1223.154128
1223.156131
1223.157617
1223.158294
1223.158655
1223.158868
1223.158681
1223.158467
1223.158279
1223.157974
1223.157638
1223.157278
1223.157136
1223.157032
1223.15988
1223.165769
1223.168606
1223.168917
1223.168193
1223.166778
1223.165295
1223.163883
1223.162497
1223.161264
1223.160183
1223.159168
1223.158382
1223.157729
1223.157289
1223.187434
1223.191959
1223.188651
1223.183601
1223.17868
1223.17477
1223.171468
1223.168862
1223.166715
1223.165134
1223.163902
1223.162853
1223.162001
1223.161121
1223.160479
1223.16049
1223.166486
1223.169103
1223.169502
1223.168912
1223.167714
1223.166173
1223.164791
1223.163354
1223.162131
1223.161072
1223.160479
1223.159666
1223.159
1223.15835
1223.158828
1223.160969
1223.162396
1223.16308
1223.163328
1223.163372
1223.163209
1223.163062
1223.162991
1223.162702
1223.162093
1223.161697
1223.161452
1223.161346
1223.150257
1223.151458
1223.152375
1223.153284
1223.153785
1223.154397
1223.154932
1223.155302
1223.155352
1223.155492
1223.155546
1223.155604
1223.155659
1223.155729
1223.14859
1223.149058
1223.149577
1223.150148
1223.150694
1223.151181
1223.151761
1223.152061
1223.152504
1223.152759
1223.153075
1223.153461
1223.153712
1223.153765
1223.144808
1223.144857
1223.145249
1223.145668
1223.145953
1223.146335
1223.146739
1223.147078
1223.147499
1223.147881
1223.148185
1223.148373
1223.148742
1223.148989
1223.149204
1223.154498
1223.154783
1223.155332
1223.155974
1223.156541
1223.157114
1223.157684
1223.158254
1223.158676
1223.159157
1223.159431
1223.159652
1223.15989
1223.159961
1223.160127
1223.16075
1223.161926
1223.163157
1223.164257
1223.165291
1223.166058
1223.166421
1223.166943
1223.167198
1223.167244
1223.167291
1223.167456
1223.167328
1223.167196
1223.1672
1223.154663
1223.157127
1223.159188
1223.160647
1223.161603
1223.1619
1223.161879
1223.161791
1223.161586
1223.161321
1223.161
1223.160344
1223.160257
1223.160009
1223.159655
1223.153198
1223.156663
1223.158747
1223.159571
1223.15966
1223.159434
1223.15903
1223.158421
1223.157875
1223.157157
1223.156674
1223.156197
1223.15574
1223.155459
1223.155219
1223.153225
1223.15588
1223.157931
1223.159223
1223.16008
1223.160367
1223.160531
1223.160423
1223.160462
1223.16022
1223.15962
1223.159344
1223.159112
1223.158825
1223.158615
1223.15305
1223.15414
1223.15545
1223.156705
1223.157612
1223.158331
1223.158746
1223.159174
1223.159189
1223.159119
1223.159111
1223.159119
1223.159099
1223.159058
1223.158888
1223.147186
1223.147736
1223.148276
1223.14895
1223.149532
1223.150115
1223.150452
1223.150809
1223.151178
1223.151474
1223.151855
1223.152139
1223.152328
1223.152599
1223.153755
1223.154014
1223.15449
1223.154949
1223.155436
1223.155801
1223.156252
1223.156624
1223.157082
1223.15733
1223.157587
1223.157929
1223.158057
1223.158253
1223.154034
1223.154213
1223.154444
1223.154702
1223.155118
1223.155432
1223.155717
1223.155997
1223.156582
1223.15705
1223.15734
1223.157753
1223.158062
1223.158336
1223.158529
1223.152331
1223.152581
1223.153047
1223.153504
1223.153875
1223.154137
1223.154578
1223.154734
1223.15508
1223.1555
1223.155827
1223.156168
1223.156468
1223.156587
1223.156637
1223.151788
1223.152227
1223.153083
1223.153685
1223.154269
1223.154963
1223.155606
1223.156194
1223.1565
1223.156728
1223.157073
1223.15724
1223.15756
1223.157826
1223.157752
1223.153777
1223.154606
1223.155241
1223.156078
1223.156862
1223.157738
1223.158325
1223.158754
1223.158932
1223.159326
1223.159485
1223.159691
1223.159836
1223.159746
1223.159855
1223.155781
1223.156988
1223.158103
1223.15912
1223.15984
1223.160517
1223.160867
1223.161193
1223.161724
1223.161673
1223.161866
1223.161952
1223.161919
1223.161836
1223.161669
1223.148584
1223.149432
1223.150563
1223.151519
1223.152169
1223.152835
1223.153262
1223.153572
1223.153895
1223.154066
1223.154248
1223.154463
1223.154563
1223.154707
1223.154882
1223.148605
1223.149046
1223.149632
1223.150258
1223.150801
1223.151251
1223.151886
1223.152424
1223.152879
1223.153187
1223.153478
1223.153787
1223.154079
1223.154298
1223.154446
1223.151022
1223.151328
1223.151559
1223.151836
1223.152312
1223.152806
1223.153183
1223.153534
1223.153995
1223.154526
1223.154759
1223.15507
1223.155307
1223.155506
1223.155674
1223.157061
1223.157263
1223.157277
1223.157538
1223.158013
1223.158238
1223.158511
1223.158764
1223.15914
1223.159572
1223.159993
1223.160356
1223.1608
1223.161045
1223.148411
1223.148354
1223.148603
1223.148853
1223.149024
1223.1493
1223.149572
1223.149871
1223.150175
1223.150515
1223.150775
1223.151114
1223.151378
1223.151733
1223.151869
1223.152688
1223.152761
1223.152865
1223.153129
1223.153426
1223.153731
1223.154004
1223.154421
1223.154936
1223.155227
1223.155419
1223.15569
1223.155888
1223.156183
1223.15641
1223.148815
1223.149248
1223.149621
1223.149994
1223.150264
1223.150781
1223.151269
1223.15177
1223.152131
1223.152491
1223.152964
1223.153343
1223.153707
1223.15393
1223.154226
1223.1552
1223.15557
1223.156052
1223.156596
1223.157075
1223.157706
1223.158248
1223.158851
1223.159373
1223.159862
1223.160021
1223.160406
1223.160607
1223.160946
1223.161097
1223.150105
1223.150643
1223.151193
1223.151919
1223.152439
1223.152835
1223.153509
1223.153999
1223.154541
1223.154957
1223.155166
1223.155332
1223.155601
1223.155898
1223.156177
1223.157267
1223.1577
1223.158162
1223.158692
1223.159373
1223.160048
1223.160605
1223.161058
1223.161495
1223.161799
1223.162202
1223.162332
1223.162557
1223.162817
1223.162806
1223.151188
1223.151499
1223.15177
1223.152085
1223.15245
1223.152975
1223.153472
1223.153949
1223.154427
1223.154784
1223.155218
1223.155442
1223.155884
1223.156126
1223.156372
1223.147462
1223.14748
1223.147619
1223.147834
1223.148208
1223.148464
1223.148859
1223.149138
1223.149508
1223.149794
1223.15002
1223.150327
1223.150717
1223.150997
1223.151418
1223.149913
1223.15008
1223.150133
1223.150326
1223.150455
1223.15078
1223.15114
1223.151394
1223.151804
1223.152121
1223.152355
1223.152678
1223.153176
1223.153369
1223.153629
)
;

boundaryField
{
    top
    {
        type            zeroGradient;
    }
    bottom
    {
        type            zeroGradient;
    }
    side-walls
    {
        type            zeroGradient;
    }
    inlet
    {
        type            zeroGradient;
    }
    outlet
    {
        type            zeroGradient;
    }
    procBoundary1to0
    {
        type            processor;
        value           nonuniform List<scalar> 
97
(
1223.151719
1223.151719
1223.15305
1223.151793
1223.157043
1223.152856
1223.144638
1223.145354
1223.151335
1223.151838
1223.149081
1223.153049
1223.153049
1223.153049
1223.155745
1223.150704
1223.151675
1223.156774
1223.161344
1223.144542
1223.152655
1223.150088
1223.150213
1223.15169
1223.15169
1223.15169
1223.153671
1223.161815
1223.150561
1223.150152
1223.1499
1223.147728
1223.148671
1223.148625
1223.142777
1223.165644
1223.165644
1223.165644
1223.188382
1223.164562
1223.155209
1223.154339
1223.15312
1223.151095
1223.149157
1223.162834
1223.165216
1220.393866
1220.393866
1220.393866
1223.189586
1223.189586
1223.157252
1223.147966
1223.149118
1223.148257
1223.144146
1223.149391
1223.151341
1223.15977
1223.151749
1223.15621
1223.15621
1223.15621
1223.149454
1223.148131
1223.144577
1223.1541
1223.160054
1223.152253
1223.148404
1223.151028
1223.152157
1223.146703
1223.146703
1223.146703
1223.153821
1223.153926
1223.152218
1223.151368
1223.153117
1223.154798
1223.148079
1223.14832
1223.150821
1223.156891
1223.156891
1223.156891
1223.148348
1223.152717
1223.148759
1223.154964
1223.14971
1223.157153
1223.150929
1223.147368
1223.149853
)
;
    }
}


// ************************************************************************* //
