/*--------------------------------*- C++ -*----------------------------------*\
| =========                 |                                                 |
| \\      /  F ield         | OpenFOAM: The Open Source CFD Toolbox           |
|  \\    /   O peration     | Version:  4.x                                   |
|   \\  /    A nd           | Web:      www.OpenFOAM.org                      |
|    \\/     M anipulation  |                                                 |
\*---------------------------------------------------------------------------*/
FoamFile
{
    version     2.0;
    format      ascii;
    class       volVectorField;
    location    "10000";
    object      U;
}
// * * * * * * * * * * * * * * * * * * * * * * * * * * * * * * * * * * * * * //

dimensions      [0 1 -1 0 0 0 0];

internalField   nonuniform List<vector> 
1174
(
(0.01100018622 -2.197451082e-09 -1.597045482e-09)
(0.01100018572 -3.781255723e-09 -1.617647448e-09)
(0.01100019362 -1.172707239e-09 -8.053923248e-10)
(0.0110001876 -2.035166354e-09 -8.741342313e-10)
(0.01100017452 -1.129105545e-09 -1.685130801e-09)
(0.01100015999 -1.899928568e-09 -1.0123047e-09)
(0.01100014019 -3.776024472e-10 9.893986259e-10)
(0.01100011554 -8.609930241e-10 7.756782291e-10)
(0.01100009313 7.454428984e-10 3.111144983e-09)
(0.01100006539 -4.521595123e-10 3.082637377e-09)
(0.01100003792 1.862510811e-10 3.420506475e-09)
(0.0110000098 5.655413841e-10 2.371841243e-09)
(0.01099998766 2.019766478e-09 1.985231635e-09)
(0.01099996336 2.541657089e-09 2.267770879e-09)
(0.01100019322 -1.777945459e-08 -1.388210317e-09)
(0.01100018263 -1.457306293e-08 -4.626054596e-09)
(0.01100018538 -1.060545152e-08 -3.504045494e-09)
(0.0110001707 -5.224384947e-09 -2.217008864e-09)
(0.01100015251 -2.271070104e-09 4.341350524e-10)
(0.01100012891 -1.896701313e-10 -9.919573046e-10)
(0.01100009916 2.518822374e-09 1.85842763e-09)
(0.01100007561 2.309492881e-09 2.54206505e-09)
(0.01100004788 4.823776426e-09 1.330607331e-09)
(0.01100001685 3.485362164e-09 1.133957758e-09)
(0.0109999884 3.799310584e-09 4.667399952e-09)
(0.01099996395 4.441363021e-09 2.161574193e-09)
(0.01099993907 5.601253241e-09 2.758945392e-09)
(0.01099991684 5.559638755e-09 2.626643794e-09)
(0.01100021727 -7.894148426e-09 -4.523790918e-09)
(0.01100018067 -1.355219862e-08 -9.866722439e-09)
(0.01100017243 -6.797208539e-09 -3.771450683e-09)
(0.01100013866 -4.542441556e-09 -8.506196042e-10)
(0.01100010485 -2.018784114e-09 2.556574295e-09)
(0.01100006847 3.901719171e-10 2.687522259e-09)
(0.01100003126 3.497068974e-09 1.215309577e-09)
(0.01099999674 5.812759319e-09 1.592602545e-09)
(0.01099996752 5.48132365e-09 2.26586886e-09)
(0.01099993686 4.32595837e-09 1.076404305e-09)
(0.01099991241 6.052995636e-09 2.040073515e-09)
(0.0109998897 7.280166377e-09 9.799221868e-10)
(0.01099986942 7.218416425e-09 1.363704233e-09)
(0.01099985074 6.523095242e-09 1.545055436e-09)
(0.01100022463 -1.033031156e-08 9.639760069e-09)
(0.01100014959 -3.290898826e-09 -1.08397898e-08)
(0.01100013322 5.06255787e-09 -4.209196943e-09)
(0.01100008555 8.413427285e-09 -1.400686362e-09)
(0.01100003937 6.120769292e-09 -2.295787088e-10)
(0.01099999586 5.553566124e-09 3.910096882e-09)
(0.01099995577 5.724729397e-09 5.07219107e-09)
(0.01099991833 5.517491093e-09 5.104608773e-09)
(0.0109998859 4.560436213e-09 5.36693308e-09)
(0.01099986104 4.357980798e-09 4.920299283e-09)
(0.01099983865 4.737178672e-09 4.655682033e-09)
(0.01099981882 5.706099513e-09 1.040152841e-09)
(0.01099980309 5.278121726e-09 3.590784936e-09)
(0.01099979024 5.954988067e-09 1.950774498e-09)
(0.0110002966 1.258368859e-09 2.65303981e-08)
(0.0110001532 3.827078689e-10 4.294708349e-09)
(0.01100011466 4.95957168e-10 5.049985523e-09)
(0.01100005267 7.280524851e-10 5.889113568e-09)
(0.01099999977 1.249449345e-09 4.272666848e-09)
(0.01099995629 2.091680038e-09 4.451598642e-09)
(0.01099991589 -9.846183984e-10 4.98025919e-09)
(0.0109998812 2.848093362e-10 2.955632981e-09)
(0.01099985044 2.195713148e-10 2.465159825e-09)
(0.0109998259 9.991172419e-10 3.112522595e-09)
(0.01099980423 2.714275945e-09 2.377768411e-09)
(0.01099979048 3.981640555e-10 1.396804824e-09)
(0.0109997775 -3.947957926e-10 9.888059252e-10)
(0.0109997674 8.301445083e-10 1.436999949e-09)
(0.01100022188 1.275462925e-08 9.917641995e-09)
(0.01100014781 4.569948886e-09 -9.637394448e-09)
(0.0110001306 -2.437387135e-09 -5.102920844e-09)
(0.01100008466 -7.636168227e-09 2.067035493e-10)
(0.0110000383 -6.924417361e-09 2.170866464e-09)
(0.01099999626 -6.354835403e-09 4.132436446e-09)
(0.01099995538 -5.815383663e-09 5.329621008e-09)
(0.01099991913 -4.952844951e-09 4.870602412e-09)
(0.01099988757 -4.525189634e-09 4.729651535e-09)
(0.01099986042 -3.52236145e-09 5.131335883e-09)
(0.01099983865 -4.327727365e-09 4.198590708e-09)
(0.01099981713 -2.668608862e-09 2.431451042e-09)
(0.01099980612 -2.865943658e-09 4.920748013e-09)
(0.01099979091 -3.190466984e-09 3.703541934e-09)
(0.01100021392 8.13596398e-09 -1.683221771e-09)
(0.01100018022 1.419254137e-08 -7.207221218e-09)
(0.01100017072 5.277614052e-09 -3.411596575e-09)
(0.01100013926 2.650417914e-09 8.518472479e-10)
(0.01100010284 1.305936686e-09 6.941583392e-10)
(0.01100006845 -1.472276229e-09 3.39166172e-09)
(0.01100003249 -3.21173566e-09 3.715397114e-09)
(0.01099999898 -4.988202077e-09 4.536939328e-09)
(0.01099996811 -5.215605262e-09 4.710274923e-09)
(0.0109999379 -4.522610153e-09 3.036282114e-09)
(0.01099991315 -6.730853581e-09 3.013622849e-09)
(0.01099988693 -6.376695819e-09 2.054642072e-09)
(0.0109998692 -4.945012514e-09 3.426476019e-09)
(0.01099985255 -5.960457152e-09 2.90915681e-09)
(0.01100018854 1.756574839e-08 -2.177927877e-10)
(0.01100018245 1.558558611e-08 -4.412920598e-09)
(0.01100018323 6.20386205e-09 -2.255727509e-09)
(0.01100017116 2.728487971e-09 -1.34152187e-09)
(0.01100015262 -1.259191128e-10 -2.301304062e-09)
(0.01100012801 -5.226121948e-10 -5.388384883e-10)
(0.01100010255 -2.280469255e-09 1.069330794e-09)
(0.01100007574 -2.284141972e-09 1.926525779e-09)
(0.01100004641 -2.701521414e-09 6.438056102e-10)
(0.01100001881 -4.54683098e-09 3.823983524e-09)
(0.0109999907 -3.83448223e-09 2.541937649e-09)
(0.0109999637 -5.274245968e-09 3.503631249e-09)
(0.01099994214 -6.151367761e-09 3.351428731e-09)
(0.01099991677 -5.168844404e-09 1.476392333e-09)
(0.01100018057 2.985163827e-09 -2.595098069e-09)
(0.01100018422 2.454961455e-09 -4.738408263e-09)
(0.01100018957 2.830632821e-09 -2.047867066e-09)
(0.01100018672 -2.029309973e-11 4.700351411e-10)
(0.01100017666 2.051164649e-09 -1.547998209e-09)
(0.01100015767 1.210815811e-09 -1.905191073e-09)
(0.01100013995 1.80452855e-10 1.178529481e-09)
(0.01100011872 -1.785478623e-09 1.526415078e-09)
(0.01100009164 -2.199872841e-09 1.705216793e-09)
(0.01100006536 -1.894731187e-09 2.8607474e-09)
(0.01100003803 6.28943778e-10 9.367794852e-10)
(0.01100000961 -2.14056919e-09 2.783968247e-09)
(0.01099998833 -4.584109235e-09 2.13225123e-09)
(0.01099996161 -1.787131008e-09 7.370727552e-10)
(0.01100014699 -1.611289815e-08 -4.579098607e-08)
(0.01100019227 2.577576662e-11 -1.681861684e-08)
(0.01100018092 -5.149792479e-09 -1.484639429e-08)
(0.01100018639 -3.638507052e-09 -7.415288374e-09)
(0.01100017124 -1.631845967e-09 -3.71359439e-09)
(0.01100015082 8.768131065e-10 2.551099061e-10)
(0.01100012986 -9.32976935e-10 1.532012467e-09)
(0.01100010357 6.551072426e-10 4.393799557e-09)
(0.01100007322 1.360569141e-09 5.335895289e-09)
(0.01100004655 9.020717231e-10 4.086549039e-09)
(0.0110000163 2.434504285e-09 5.405185968e-09)
(0.01099998903 3.604329512e-09 5.944992184e-09)
(0.01099996348 2.229771732e-09 5.739507262e-09)
(0.0109999411 2.949665647e-09 7.377999867e-09)
(0.01099991631 4.402671572e-09 6.780747027e-09)
(0.01100020307 -1.735818123e-08 -1.828241334e-08)
(0.01100016577 -1.953207467e-08 -1.976112532e-08)
(0.01100016077 -9.32480651e-09 -8.788968995e-09)
(0.01100013455 -3.055091046e-09 -1.202934305e-09)
(0.01100010183 1.305647474e-10 1.302647976e-09)
(0.01100007124 3.384438356e-09 4.1349466e-09)
(0.01100003805 6.042536193e-09 6.697784761e-09)
(0.01100000486 7.637592511e-09 9.003004803e-09)
(0.01099997821 8.352659878e-09 6.190718936e-09)
(0.01099994998 6.780177251e-09 8.087710431e-09)
(0.01099992485 5.897048543e-09 5.894497158e-09)
(0.01099990241 7.188636576e-09 7.185550493e-09)
(0.01099988492 6.409601038e-09 7.377377861e-09)
(0.0109998634 7.453661514e-09 6.785888235e-09)
(0.01100023518 4.365340024e-09 -2.582074655e-08)
(0.01100013766 -1.805048243e-08 -2.366824929e-08)
(0.01100010683 -9.622373366e-09 -1.990813337e-09)
(0.01100004924 -2.4957325e-09 9.132846042e-09)
(0.01099999695 1.650354754e-09 1.276662273e-08)
(0.01099995177 5.66270324e-09 1.261777781e-08)
(0.01099991296 8.883782375e-09 1.330065401e-08)
(0.01099988343 9.590262452e-09 1.365624521e-08)
(0.01099985543 1.006252529e-08 1.230675006e-08)
(0.01099983373 7.857759502e-09 1.17303014e-08)
(0.01099981605 7.973456945e-09 1.049662323e-08)
(0.01099980341 7.500041033e-09 9.649547625e-09)
(0.01099979189 9.14593054e-09 9.774722572e-09)
(0.01099978256 8.002665166e-09 8.97429156e-09)
(0.01100020682 2.027852364e-08 7.443800138e-09)
(0.0110000172 9.473153506e-09 -2.821541216e-08)
(0.0109999857 1.566654576e-08 2.640170328e-09)
(0.01099991246 1.608935554e-08 1.696428891e-08)
(0.01099985418 1.327064107e-08 2.000538192e-08)
(0.01099981135 1.206170839e-08 2.148143054e-08)
(0.01099977623 9.915036343e-09 2.083508604e-08)
(0.01099975231 8.547483384e-09 1.903381626e-08)
(0.01099973222 6.787082743e-09 1.637144714e-08)
(0.01099972117 7.887307822e-09 1.342854987e-08)
(0.01099971419 5.671621263e-09 1.382526354e-08)
(0.01099971021 4.943801096e-09 1.064684759e-08)
(0.01099971092 5.980888336e-09 1.128149762e-08)
(0.01099970841 5.073570026e-09 8.213006557e-09)
(0.01100033483 1.732244501e-09 1.054159382e-07)
(0.01099994808 3.078119882e-10 5.1582969e-08)
(0.01099989618 1.109251246e-10 6.385214001e-08)
(0.01099981549 1.165375024e-09 5.644541952e-08)
(0.01099975968 9.762461598e-10 4.404550442e-08)
(0.01099972592 9.199903315e-10 3.617755909e-08)
(0.01099970166 9.405757437e-11 2.823238418e-08)
(0.01099968774 1.689653597e-10 2.347213166e-08)
(0.01099967682 -9.924343398e-10 1.825818917e-08)
(0.01099967155 -9.163900633e-10 1.50121995e-08)
(0.01099967183 -5.650846491e-11 1.340151111e-08)
(0.01099967294 1.550104077e-09 1.151376529e-08)
(0.01099967368 -2.508947498e-11 1.16456129e-08)
(0.01099967706 1.563888269e-09 9.395205939e-09)
(0.01100020555 -1.719928787e-08 7.757206747e-09)
(0.01100001607 -5.540874458e-09 -2.688808066e-08)
(0.0109999856 -1.403182105e-08 4.178545983e-09)
(0.010999912 -1.670444454e-08 1.718844954e-08)
(0.01099985259 -1.543852717e-08 2.016775811e-08)
(0.01099981108 -1.143391697e-08 2.073893225e-08)
(0.01099977405 -1.080965884e-08 2.049091185e-08)
(0.01099975198 -9.80070292e-09 1.873319357e-08)
(0.01099973244 -6.716015654e-09 1.790272019e-08)
(0.01099972299 -6.261488779e-09 1.389869168e-08)
(0.01099971796 -4.744083512e-09 1.192152536e-08)
(0.01099970952 -4.908227757e-09 1.264281714e-08)
(0.01099970981 -5.050063359e-09 1.220685964e-08)
(0.01099970567 -4.994402202e-09 9.669555998e-09)
(0.01100023107 -3.616481081e-09 -2.582290861e-08)
(0.01100013153 1.95365433e-08 -2.483118638e-08)
(0.01100010362 8.281246548e-09 -2.449005925e-09)
(0.01100004725 1.980107549e-10 7.803322784e-09)
(0.01099999546 -3.263634295e-09 1.162105823e-08)
(0.0109999528 -6.032478361e-09 1.213425261e-08)
(0.01099991524 -9.606157429e-09 1.410332803e-08)
(0.01099988228 -8.976428932e-09 1.365062447e-08)
(0.01099985411 -1.001597176e-08 1.136712755e-08)
(0.01099983655 -7.163457859e-09 1.175309726e-08)
(0.01099981791 -6.906877127e-09 1.088285485e-08)
(0.01099980271 -5.586687e-09 8.53831046e-09)
(0.01099979232 -5.434623742e-09 9.144553921e-09)
(0.0109997808 -7.877793637e-09 7.985795773e-09)
(0.01100020026 1.814804315e-08 -1.83848133e-08)
(0.01100016401 1.837874119e-08 -1.919599918e-08)
(0.01100015856 8.823169619e-09 -8.915518458e-09)
(0.0110001335 1.764437112e-09 -2.797501389e-09)
(0.01100010213 -9.040946353e-10 2.390434322e-09)
(0.01100006871 -4.646214696e-09 3.429470597e-09)
(0.01100003941 -6.724596294e-09 6.777669294e-09)
(0.01100000468 -6.834290854e-09 7.704952668e-09)
(0.01099997737 -8.402082246e-09 7.345381692e-09)
(0.01099995009 -6.374658632e-09 7.268115149e-09)
(0.01099992353 -7.525477863e-09 7.118675779e-09)
(0.01099990087 -6.642451492e-09 6.982690847e-09)
(0.01099988404 -8.548156651e-09 6.37871849e-09)
(0.01099986395 -6.450281888e-09 6.221379997e-09)
(0.01100018947 9.691712799e-10 -1.956675686e-08)
(0.01100018055 2.767824248e-09 -1.721289762e-08)
(0.01100018338 2.071919074e-09 -7.959247568e-09)
(0.01100017023 2.026345193e-09 -8.47916734e-10)
(0.01100015097 1.50761591e-09 -8.715732768e-10)
(0.01100012612 6.560946858e-12 1.522169449e-09)
(0.01100010199 1.982514421e-10 1.958558033e-09)
(0.01100007282 -1.077294734e-09 4.332713992e-09)
(0.01100004443 -1.317048125e-09 4.30254559e-09)
(0.01100001766 -2.786463572e-09 6.176052205e-09)
(0.01099998897 -3.064310057e-09 5.205493068e-09)
(0.01099996346 -4.142278197e-09 5.359622744e-09)
(0.01099994235 -3.836798635e-09 5.459024738e-09)
(0.0109999195 -3.754776972e-09 5.223674819e-09)
(0.01100015529 -3.528483269e-08 -5.501287623e-08)
(0.01100021602 1.100420756e-09 -8.229567285e-09)
(0.01100017946 -6.215655397e-09 -1.454241783e-08)
(0.01100017019 -9.596445547e-10 -9.563985999e-09)
(0.01100014065 3.392844841e-09 -3.558086733e-09)
(0.01100010165 1.007490095e-09 7.184137523e-10)
(0.01100006866 4.157033902e-09 2.597919358e-09)
(0.0110000333 5.256551386e-09 3.418475514e-09)
(0.01099999695 5.575979283e-09 6.559263447e-09)
(0.01099996499 5.642014712e-09 6.853198795e-09)
(0.01099993512 6.406616968e-09 6.93639032e-09)
(0.01099991173 6.188356491e-09 6.225482739e-09)
(0.01099988546 4.633779434e-09 8.125641077e-09)
(0.01099986745 5.670563124e-09 6.607668919e-09)
(0.01099984768 5.401811223e-09 6.851133156e-09)
(0.01100017044 -1.654863366e-07 -8.443435073e-08)
(0.01100023238 -2.46884469e-08 3.612377488e-09)
(0.01100013201 -2.337451686e-08 -1.985841493e-08)
(0.01100010585 -1.103391406e-09 -1.046423813e-08)
(0.01100004633 9.031338625e-09 -2.620415493e-09)
(0.0109999949 1.088794125e-08 2.659129884e-09)
(0.0109999528 1.18731502e-08 7.595436053e-09)
(0.01099991357 1.200295995e-08 7.647241111e-09)
(0.01099988139 1.309308517e-08 1.097948576e-08)
(0.01099985404 1.183477661e-08 1.037406438e-08)
(0.01099983365 1.195599177e-08 8.81917479e-09)
(0.01099981698 1.025166557e-08 8.371284764e-09)
(0.01099980147 8.724268998e-09 8.446225916e-09)
(0.01099979039 1.047126959e-08 7.495196748e-09)
(0.01099978437 1.003408167e-08 7.543593394e-09)
(0.01100027323 1.990325676e-08 1.770346919e-08)
(0.01100000777 -2.438603835e-08 -2.442303462e-08)
(0.01099992591 5.829427297e-09 3.584855186e-09)
(0.0109998208 1.609351197e-08 1.496716934e-08)
(0.01099974975 1.77188447e-08 1.847652869e-08)
(0.01099970824 2.06089745e-08 2.011387159e-08)
(0.01099968274 1.852104795e-08 1.726031447e-08)
(0.01099966637 1.522008498e-08 1.694466167e-08)
(0.01099965973 1.365729897e-08 1.474460427e-08)
(0.01099965816 1.114671268e-08 1.201588412e-08)
(0.01099966156 1.053220324e-08 1.066105191e-08)
(0.01099966491 9.666224769e-09 1.034707074e-08)
(0.0109996698 1.021247851e-08 1.14230327e-08)
(0.01099967246 9.703572148e-09 8.198561584e-09)
(0.01100010827 1.179762361e-07 1.14286516e-07)
(0.01099961273 7.333980724e-08 -6.943036816e-08)
(0.01099955483 7.10443468e-08 2.049255718e-10)
(0.01099945052 5.587936547e-08 2.660350817e-08)
(0.01099940791 3.919147664e-08 3.091935073e-08)
(0.01099940432 3.023831134e-08 3.178067397e-08)
(0.0109994143 2.141929195e-08 2.516565072e-08)
(0.01099943324 1.478123251e-08 2.216994266e-08)
(0.01099945637 1.231391763e-08 1.54453692e-08)
(0.01099948366 7.593788599e-09 1.372524433e-08)
(0.01099951045 9.994513623e-09 1.334067193e-08)
(0.01099953537 6.937288095e-09 1.258713477e-08)
(0.01099955517 8.469450671e-09 1.225407911e-08)
(0.01099957806 6.564607773e-09 9.263438154e-09)
(0.01100030474 9.308830608e-10 6.126723835e-07)
(0.01099920477 5.764352642e-11 7.747825514e-08)
(0.01099918581 8.683915438e-10 9.337825973e-08)
(0.01099914288 3.632694414e-10 8.754249652e-08)
(0.01099916422 3.729603692e-10 6.154935843e-08)
(0.01099921093 -1.180455685e-09 4.532345678e-08)
(0.01099926569 -1.365183037e-09 3.294506806e-08)
(0.01099931758 -5.80804904e-10 2.43245952e-08)
(0.0109993623 1.396857423e-09 1.815911324e-08)
(0.01099940822 1.995947594e-09 1.435984546e-08)
(0.01099944439 1.473070092e-09 1.368837276e-08)
(0.0109994799 1.295249421e-09 1.340387273e-08)
(0.01099950919 1.182685156e-09 1.47716708e-08)
(0.01099953848 2.36064905e-10 9.490432661e-09)
(0.01100010861 -1.167271568e-07 1.123642355e-07)
(0.01099961282 -7.023697202e-08 -7.020267941e-08)
(0.01099955355 -7.03186566e-08 -1.274149433e-09)
(0.01099944743 -5.667772944e-08 2.508915585e-08)
(0.01099940615 -4.189808096e-08 2.926008493e-08)
(0.01099940233 -2.987513247e-08 2.86553663e-08)
(0.01099941525 -2.131421231e-08 2.509583316e-08)
(0.01099943556 -1.471566039e-08 2.120128153e-08)
(0.01099945663 -1.297503338e-08 1.941524938e-08)
(0.01099948637 -9.588540442e-09 1.502869755e-08)
(0.01099951053 -8.967288492e-09 1.36014604e-08)
(0.01099953511 -5.797298728e-09 1.175205788e-08)
(0.01099955851 -8.413135022e-09 1.289819755e-08)
(0.0109995771 -5.43818384e-09 9.456546409e-09)
(0.01100027152 -1.685442371e-08 1.454934902e-08)
(0.01100000744 2.406679241e-08 -2.451065871e-08)
(0.01099992306 -4.709939408e-09 5.83629995e-09)
(0.01099981846 -1.668171179e-08 1.55594748e-08)
(0.01099974944 -1.71332322e-08 1.832764389e-08)
(0.01099971024 -1.863202008e-08 1.943425645e-08)
(0.01099968352 -1.831834475e-08 1.700898572e-08)
(0.01099966766 -1.719803313e-08 1.73258926e-08)
(0.01099966311 -1.584389123e-08 1.455166411e-08)
(0.01099966062 -1.262672793e-08 1.252423961e-08)
(0.01099966331 -1.129535405e-08 1.172067185e-08)
(0.01099966316 -9.300344689e-09 1.058193655e-08)
(0.01099966987 -1.052708784e-08 1.027827824e-08)
(0.01099967383 -9.211207154e-09 7.685660566e-09)
(0.01100023143 2.511980076e-08 2.773154874e-09)
(0.01100013237 2.333312248e-08 -2.110753949e-08)
(0.01100010355 1.457264169e-09 -8.673343796e-09)
(0.01100004679 -9.513140721e-09 -1.216358474e-09)
(0.010999995 -1.095949219e-08 2.535020973e-09)
(0.01099995029 -1.299606499e-08 7.446232023e-09)
(0.01099991479 -1.451832054e-08 8.969236981e-09)
(0.01099988363 -1.361589098e-08 8.748196182e-09)
(0.01099985429 -1.160511064e-08 9.928704376e-09)
(0.01099983595 -9.863050147e-09 9.149547015e-09)
(0.01099981799 -1.064548361e-08 9.673948501e-09)
(0.01099980183 -9.358731372e-09 7.708600045e-09)
(0.01099979484 -8.482742007e-09 6.755567984e-09)
(0.01099977975 -7.70612568e-09 5.765634799e-09)
(0.01100021397 2.62538848e-09 -8.095406598e-09)
(0.01100018062 5.608925693e-09 -1.524078344e-08)
(0.01100017055 3.097116084e-09 -6.543434652e-09)
(0.01100013628 2.301061616e-09 -1.554189266e-09)
(0.01100010139 -1.822675346e-09 1.690860199e-09)
(0.01100006814 -3.499651067e-09 2.765318822e-09)
(0.01100003239 -2.57940045e-09 4.142256663e-09)
(0.01099999726 -3.836957492e-09 5.565782471e-09)
(0.01099996463 -3.197977603e-09 6.031468521e-09)
(0.01099993845 -2.698586355e-09 6.882680664e-09)
(0.01099991157 -2.724244435e-09 7.224187357e-09)
(0.01099988775 -3.443260814e-09 5.665923793e-09)
(0.01099986766 -3.764947126e-09 7.295832991e-09)
(0.01099984846 -4.593084527e-09 6.176434707e-09)
(0.01100016997 -4.46147825e-08 -9.673126996e-08)
(0.01100022427 1.23304473e-08 -1.141139398e-08)
(0.01100014853 -1.102093102e-08 -4.558171639e-09)
(0.01100013206 -5.204837165e-09 2.190045182e-09)
(0.01100008547 -5.274050782e-11 5.87543467e-09)
(0.01100003873 4.712425415e-09 5.922757654e-09)
(0.01099999615 5.234401732e-09 5.83030418e-09)
(0.01099995684 6.258919853e-09 5.053720443e-09)
(0.01099991678 5.015937931e-09 5.552496244e-09)
(0.01099988479 4.93901265e-09 4.808722997e-09)
(0.01099986044 4.470516974e-09 4.61722478e-09)
(0.01099983499 5.289688321e-09 4.595296112e-09)
(0.01099981764 3.283789976e-09 4.134326017e-09)
(0.01099980113 4.4996036e-09 5.153281849e-09)
(0.01099978776 4.194719661e-09 4.258982035e-09)
(0.01100018857 -2.39685338e-07 -1.920439374e-07)
(0.01100020443 1.000942157e-08 1.945508939e-08)
(0.01100001635 -2.731034193e-08 8.79546117e-09)
(0.01099998742 4.446690069e-09 1.465940116e-08)
(0.01099991268 1.640712468e-08 1.518780174e-08)
(0.01099985233 1.959184079e-08 1.37330389e-08)
(0.01099980914 2.246194021e-08 1.293118168e-08)
(0.01099977333 2.034602853e-08 1.112502579e-08)
(0.0109997497 1.758748646e-08 8.416067108e-09)
(0.01099973224 1.61388694e-08 8.118363961e-09)
(0.01099972253 1.420394765e-08 7.712496055e-09)
(0.01099971423 1.120018969e-08 6.192012841e-09)
(0.01099971012 1.243887209e-08 5.42259073e-09)
(0.01099970815 1.080428841e-08 5.434223695e-09)
(0.01099970963 9.501368228e-09 4.530916573e-09)
(0.01100018092 -2.792884807e-07 -5.769037751e-07)
(0.01100010817 1.138263917e-07 1.149651587e-07)
(0.01099961117 -6.78110645e-08 7.014985123e-08)
(0.01099955136 9.257050096e-10 6.913737348e-08)
(0.01099944932 2.639335033e-08 5.547287847e-08)
(0.01099940654 2.888082493e-08 4.046548911e-08)
(0.01099940265 2.938080969e-08 2.985258827e-08)
(0.01099941324 2.574123636e-08 2.166065586e-08)
(0.01099943171 2.184744659e-08 1.655722949e-08)
(0.01099945783 1.653816167e-08 1.29496774e-08)
(0.01099948457 1.325551302e-08 1.02821444e-08)
(0.0109995092 1.380561183e-08 7.572120163e-09)
(0.01099953378 1.133383437e-08 6.098532932e-09)
(0.01099955543 1.393404845e-08 8.30043227e-09)
(0.01099957712 1.061086101e-08 5.829965252e-09)
(0.01099911489 6.144070463e-07 6.149464184e-07)
(0.01099839567 1.11645179e-07 1.113002099e-07)
(0.01099864424 1.090588323e-07 1.056442782e-07)
(0.01099865711 8.992665652e-08 8.874935411e-08)
(0.01099875254 5.985470139e-08 6.07228866e-08)
(0.01099886924 4.133273264e-08 4.170180505e-08)
(0.01099897894 2.861838094e-08 2.861494293e-08)
(0.01099907994 1.938196208e-08 1.931030522e-08)
(0.01099916747 1.459325471e-08 1.39613497e-08)
(0.01099924769 1.064080166e-08 1.187467986e-08)
(0.01099931066 1.077561701e-08 1.013308761e-08)
(0.01099936724 8.38689554e-09 8.985081799e-09)
(0.01099941358 8.692134613e-09 1.002454031e-08)
(0.01099945674 6.951170282e-09 6.30899171e-09)
(0.01099827735 2.037329669e-09 3.735723383e-06)
(0.01099650065 1.609335371e-09 1.003531659e-06)
(0.01099757985 1.264653944e-09 4.328209071e-07)
(0.01099793792 2.272708029e-10 2.41946519e-07)
(0.01099825491 -3.67720389e-10 1.240148363e-07)
(0.01099852806 -1.145960418e-09 6.679348329e-08)
(0.01099873521 -4.84918054e-10 3.90739252e-08)
(0.01099890095 -3.134367998e-10 2.456863179e-08)
(0.01099903116 1.4233221e-09 1.495658288e-08)
(0.01099913759 2.888041056e-09 1.316750604e-08)
(0.01099922485 -1.347960322e-09 9.196611859e-09)
(0.01099929807 -5.143420032e-10 9.118593195e-09)
(0.01099935874 6.437369855e-10 8.783580152e-09)
(0.01099941139 8.693592196e-10 4.762825977e-09)
(0.01099911708 -6.156020025e-07 6.142935138e-07)
(0.01099839631 -1.103044129e-07 1.111843591e-07)
(0.01099864476 -1.066745943e-07 1.065390509e-07)
(0.01099865694 -9.054541438e-08 8.921816091e-08)
(0.01099875098 -5.883318122e-08 5.989203458e-08)
(0.01099886925 -4.006209534e-08 4.312286006e-08)
(0.01099897784 -3.018464318e-08 2.839959134e-08)
(0.01099908003 -2.049916457e-08 1.913690707e-08)
(0.01099916842 -1.451189252e-08 1.33456765e-08)
(0.01099924461 -1.140632582e-08 1.262614229e-08)
(0.01099931058 -9.11212557e-09 1.011550887e-08)
(0.0109993692 -6.731090222e-09 8.915163465e-09)
(0.01099941399 -8.555532807e-09 9.420446044e-09)
(0.01099946045 -6.482128694e-09 5.989230595e-09)
(0.0110001093 -1.137939535e-07 1.174207848e-07)
(0.0109996139 6.771256676e-08 7.118226284e-08)
(0.0109995516 -5.066320978e-10 6.933562865e-08)
(0.01099944661 -2.707550637e-08 5.542012628e-08)
(0.01099940562 -3.026611933e-08 4.029046704e-08)
(0.01099940164 -2.988430532e-08 2.963632887e-08)
(0.01099941367 -2.579664242e-08 2.077322686e-08)
(0.0109994342 -2.23128812e-08 1.590850981e-08)
(0.01099945997 -1.929537593e-08 1.306341769e-08)
(0.0109994852 -1.462521735e-08 1.071372098e-08)
(0.0109995108 -1.121963021e-08 8.637892861e-09)
(0.01099953399 -1.159563335e-08 7.854104442e-09)
(0.01099955569 -1.364882859e-08 7.524783537e-09)
(0.01099957961 -1.139613978e-08 6.519751107e-09)
(0.01100020502 -6.962968378e-09 1.911156318e-08)
(0.01100001675 2.672615165e-08 8.452518956e-09)
(0.01099998409 -3.92337242e-09 1.466001101e-08)
(0.01099991097 -1.465852221e-08 1.724330661e-08)
(0.01099985235 -2.050906109e-08 1.448144467e-08)
(0.0109998083 -2.185002411e-08 1.139657046e-08)
(0.01099977494 -1.976918843e-08 1.13453568e-08)
(0.01099975202 -1.754904767e-08 8.535428534e-09)
(0.01099973331 -1.672324086e-08 8.245605536e-09)
(0.01099972483 -1.367467295e-08 7.241701242e-09)
(0.01099971545 -1.327834929e-08 6.181203946e-09)
(0.01099971002 -1.210401235e-08 4.372296033e-09)
(0.01099970925 -1.063403558e-08 6.581476236e-09)
(0.0109997071 -9.217540962e-09 5.144078459e-09)
(0.01100022194 -1.043690173e-08 -1.272283823e-08)
(0.01100014901 9.38083173e-09 -3.780638655e-09)
(0.01100013146 4.174887606e-09 2.876552051e-09)
(0.01100008383 1.860279794e-09 5.736827843e-09)
(0.01100003754 -7.887031961e-10 6.082691146e-09)
(0.01099999455 -5.292169379e-09 6.177878756e-09)
(0.01099995638 -5.846749052e-09 6.485695643e-09)
(0.01099991866 -5.511124941e-09 5.698418741e-09)
(0.01099989109 -4.485839844e-09 5.791173429e-09)
(0.01099986164 -2.858130946e-09 5.679280793e-09)
(0.01099983532 -2.671444537e-09 5.627284424e-09)
(0.01099981707 -3.436114469e-09 5.404805171e-09)
(0.01099980293 -2.749173991e-09 6.904636943e-09)
(0.01099978697 -3.104781007e-09 3.675088865e-09)
(0.01100020235 -1.27553567e-07 2.204905155e-09)
(0.0110002976 3.195497445e-08 2.152591075e-09)
(0.01100015103 7.146279124e-09 -2.371691683e-10)
(0.01100011559 9.780969109e-09 -8.423696278e-10)
(0.01100005597 1.077120353e-08 -1.829682186e-09)
(0.01100000153 1.130014208e-08 -1.078507352e-09)
(0.01099995529 1.209789564e-08 -2.035058472e-10)
(0.01099991811 1.036484479e-08 -3.642810827e-11)
(0.01099987905 7.990415916e-09 3.947964446e-12)
(0.01099985077 7.394048561e-09 -1.168683495e-09)
(0.01099982617 5.078789039e-09 1.282932354e-09)
(0.01099980352 6.12042749e-09 9.082233144e-10)
(0.01099978823 5.065913411e-09 -9.656563592e-12)
(0.01099977326 5.132162082e-09 3.310603157e-09)
(0.01099976159 4.610179229e-09 1.134164616e-09)
(0.0110002647 -6.332673592e-07 2.343945627e-09)
(0.01100033448 1.054520582e-07 1.1759569e-10)
(0.01099994875 5.096851281e-08 6.628621855e-10)
(0.01099989477 6.51930437e-08 9.747186864e-12)
(0.01099981499 5.794469494e-08 -8.278886275e-10)
(0.01099975869 4.593839468e-08 -1.273355282e-09)
(0.01099972466 3.613978998e-08 -5.132929326e-10)
(0.0109996994 2.71525506e-08 -1.038474008e-09)
(0.01099968554 2.149518136e-08 -1.226731634e-09)
(0.01099967788 1.713222802e-08 -9.164910869e-10)
(0.01099967188 1.426539813e-08 -5.255583953e-10)
(0.01099967126 1.19167782e-08 2.898308547e-10)
(0.01099967224 1.17663389e-08 3.541955565e-10)
(0.01099967369 1.101796457e-08 2.793992136e-09)
(0.01099967601 9.013464989e-09 1.554230987e-10)
(0.01100028052 -1.125828341e-06 1.817971581e-09)
(0.01100030601 6.132392125e-07 1.303251659e-10)
(0.01099920544 7.754551017e-08 -2.156370389e-10)
(0.01099918475 9.496255761e-08 -4.615870105e-10)
(0.0109991425 8.760536691e-08 6.666999475e-10)
(0.01099916211 6.08525928e-08 -1.172329582e-09)
(0.01099921023 4.564052809e-08 4.952684279e-10)
(0.01099926583 3.476810517e-08 -3.822589321e-10)
(0.01099931419 2.449031894e-08 -9.477368808e-10)
(0.01099936363 2.016149401e-08 -3.317895923e-10)
(0.01099940455 1.262625397e-08 -1.770681802e-10)
(0.01099944579 1.308229944e-08 -2.422308653e-11)
(0.01099948012 1.269808801e-08 2.073931456e-09)
(0.01099950848 1.357625869e-08 1.748711975e-09)
(0.01099953863 9.511637498e-09 6.474138593e-10)
(0.01099854517 -5.563348706e-06 -2.453045066e-10)
(0.01099827287 3.736076743e-06 -1.53947212e-10)
(0.01099649969 1.004817529e-06 -1.251739292e-10)
(0.01099758017 4.347864782e-07 5.187140439e-10)
(0.01099793896 2.405749861e-07 -1.295287954e-09)
(0.0109982542 1.231094872e-07 -4.99704946e-10)
(0.01099852548 6.685554617e-08 -5.941573346e-10)
(0.01099873394 3.824565016e-08 7.686976168e-10)
(0.01099889806 2.407633115e-08 1.078977727e-09)
(0.01099902902 1.308369625e-08 1.085638865e-09)
(0.01099913827 1.12945957e-08 2.861794007e-10)
(0.01099922524 9.860266795e-09 -1.490835416e-09)
(0.01099930159 7.58938322e-09 1.062456866e-09)
(0.01099935448 7.969638472e-09 1.27986584e-09)
(0.01099941235 6.939291801e-09 3.918117057e-10)
(0.01099655269 1.162445855e-09 -1.968578808e-09)
(0.01098970595 1.516211347e-10 -4.907558671e-10)
(0.0109948329 3.769043033e-12 -4.418305575e-10)
(0.01099655837 6.396200486e-10 -3.035267249e-10)
(0.01099745215 -8.601618844e-10 -2.312306125e-10)
(0.01099803923 -4.885218794e-10 1.199595523e-09)
(0.01099841476 -1.775014007e-09 1.201788917e-10)
(0.0109986775 -5.593501498e-10 4.757862656e-10)
(0.01099886939 5.883742372e-10 5.235463872e-10)
(0.01099901658 -2.649854197e-11 7.235856873e-10)
(0.01099913071 1.031086436e-09 4.606190451e-10)
(0.01099922392 -7.92333766e-10 -5.723130897e-10)
(0.01099929371 1.810633012e-11 -1.148677646e-09)
(0.01099936312 1.90489567e-09 5.26783639e-10)
(0.01099827314 -3.737300143e-06 -2.70997471e-11)
(0.01099650021 -1.002805771e-06 -1.835884725e-09)
(0.01099757883 -4.337264508e-07 -2.023275203e-09)
(0.01099793644 -2.409329704e-07 8.568263298e-10)
(0.0109982541 -1.240706652e-07 -2.007010289e-09)
(0.01099852279 -6.760327957e-08 -5.766869941e-10)
(0.01099873426 -3.812638421e-08 3.53632253e-10)
(0.01099889985 -2.560231671e-08 2.380211267e-09)
(0.01099903091 -1.532553068e-08 1.443699825e-09)
(0.0109991378 -1.086151124e-08 5.586415881e-11)
(0.01099922509 -9.050558373e-09 4.463223348e-10)
(0.01099929893 -6.239606285e-09 3.014734577e-10)
(0.01099935793 -7.566420866e-09 -2.03528754e-09)
(0.01099941011 -5.886883426e-09 -6.615668996e-10)
(0.01100030491 -6.130165844e-07 1.024805672e-10)
(0.01099920379 -7.858816759e-08 -6.742894938e-10)
(0.01099918355 -9.262397819e-08 -2.252189988e-09)
(0.0109991389 -8.917807864e-08 -1.064843336e-09)