/*--------------------------------*- C++ -*----------------------------------*\
| =========                 |                                                 |
| \\      /  F ield         | OpenFOAM: The Open Source CFD Toolbox           |
|  \\    /   O peration     | Version:  4.x                                   |
|   \\  /    A nd           | Web:      www.OpenFOAM.org                      |
|    \\/     M anipulation  |                                                 |
\*---------------------------------------------------------------------------*/
FoamFile
{
    version     2.0;
    format      ascii;
    class       volScalarField;
    location    "10000";
    object      X_CO2;
}
// * * * * * * * * * * * * * * * * * * * * * * * * * * * * * * * * * * * * * //

dimensions      [0 0 0 0 0 0 0];

internalField   nonuniform List<scalar> 
1174
(
0.03999573123
0.03999652454
0.03999764294
0.03999909942
0.04000087748
0.04000293695
0.04000522226
0.04000767053
0.04001021843
0.0400128065
0.04001538004
0.04001788108
0.04002020736
0.04002203253
0.03999647489
0.03999774389
0.03999943096
0.04000149579
0.04000386621
0.04000645533
0.04000917545
0.04001194706
0.04001470341
0.04001739156
0.04001996992
0.04002239845
0.04002460008
0.04002629704
0.03999811562
0.04000035414
0.04000311896
0.04000625274
0.04000958618
0.04001296806
0.04001627922
0.04001943535
0.04002238331
0.04002509469
0.04002755789
0.04002976625
0.04003168527
0.04003312
0.04000051594
0.04000398799
0.04000796662
0.0400121595
0.04001632425
0.04002028773
0.04002394261
0.04002723443
0.04003014699
0.0400326892
0.04003488421
0.040036758
0.04003831489
0.04003943967
0.04000222657
0.04000637428
0.04001089072
0.04001545687
0.04001984312
0.04002390383
0.04002756064
0.04003078437
0.04003357906
0.0400359694
0.0400379908
0.0400396798
0.04004105387
0.04004202967
0.04000051589
0.04000398793
0.04000796654
0.04001215941
0.04001632415
0.04002028763
0.0400239425
0.04002723432
0.04003014688
0.04003268909
0.0400348841
0.0400367579
0.0400383148
0.04003943958
0.03999811559
0.04000035408
0.04000311889
0.04000625265
0.04000958608
0.04001296795
0.0400162791
0.04001943522
0.04002238318
0.04002509455
0.04002755774
0.0400297661
0.04003168512
0.04003311985
0.03999647486
0.03999774385
0.03999943091
0.04000149573
0.04000386613
0.04000645524
0.04000917535
0.04001194695
0.04001470329
0.04001739142
0.04001996978
0.0400223983
0.04002459992
0.04002629688
0.03999573121
0.03999652451
0.03999764291
0.03999909938
0.04000087743
0.0400029369
0.04000522218
0.04000767045
0.04001021834
0.0400128064
0.04001537992
0.04001788095
0.04002020722
0.04002203238
0.03999561665
0.03999647488
0.03999774387
0.03999943094
0.04000149577
0.04000386618
0.04000645529
0.04000917541
0.04001194702
0.04001470337
0.04001739151
0.04001996988
0.04002239841
0.04002460004
0.04002629701
0.03999814841
0.04000037137
0.04000307722
0.04000610208
0.0400092823
0.04001248073
0.04001559578
0.04001856005
0.04002133412
0.04002389895
0.04002624796
0.04002837558
0.0400302448
0.04003165506
0.04000235321
0.04000666208
0.04001133593
0.04001597852
0.04002032017
0.04002421536
0.04002761276
0.04003052146
0.04003298339
0.04003505427
0.04003679131
0.04003824382
0.04003943539
0.04004029098
0.04000981346
0.04001696348
0.04002374622
0.04002965654
0.04003452182
0.04003837002
0.04004132535
0.04004354293
0.04004517413
0.04004635136
0.04004718371
0.04004775775
0.04004813919
0.0400483648
0.04001683784
0.04002542894
0.04003268905
0.04003843334
0.04004278206
0.04004596237
0.04004821412
0.04004975158
0.04005075205
0.04005135625
0.04005167341
0.04005178827
0.04005177122
0.04005169854
0.04000981341
0.04001696341
0.04002374615
0.04002965647
0.04003452174
0.04003836994
0.04004132527
0.04004354284
0.04004517404
0.04004635127
0.04004718362
0.04004775767
0.0400481391
0.04004836472
0.04000235315
0.04000666202
0.04001133586
0.04001597845
0.04002032009
0.04002421528
0.04002761267
0.04003052135
0.04003298328
0.04003505416
0.04003679119
0.04003824369
0.04003943526
0.04004029085
0.03999814835
0.04000037131
0.04000307715
0.04000610199
0.04000928221
0.04001248062
0.04001559566
0.04001855992
0.04002133398
0.0400238988
0.04002624781
0.04002837542
0.04003024463
0.04003165488
0.03999647486
0.03999774385
0.03999943091
0.04000149572
0.04000386612
0.04000645523
0.04000917533
0.04001194693
0.04001470326
0.04001739139
0.04001996975
0.04002239827
0.04002459988
0.04002629684
0.03999650324
0.0399981156
0.0400003541
0.04000311891
0.04000625267
0.04000958611
0.04001296798
0.04001627914
0.04001943526
0.04002238322
0.0400250946
0.0400275578
0.04002976616
0.04003168519
0.04003311993
0.03999886697
0.04000235318
0.04000666204
0.04001133588
0.04001597847
0.04002032011
0.0400242153
0.0400276127
0.0400305214
0.04003298333
0.04003505422
0.04003679125
0.04003824377
0.04003943534
0.04004029094
0.04001475273
0.04002381736
0.04003200304
0.04003869462
0.04004377183
0.04004738901
0.04004981104
0.04005131716
0.04005215511
0.0400525256
0.04005258258
0.04005244155
0.0400521952
0.04005195117
0.04004228403
0.04005754804
0.04006803067
0.04007417981
0.04007703085
0.04007762014
0.04007678031
0.04007511247
0.04007302295
0.04007077347
0.04006852683
0.04006638717
0.04006445394
0.0400629752
0.04007827206
0.04009340294
0.04009983131
0.0401008857
0.04009893455
0.04009546425
0.04009135294
0.04008709844
0.04008297094
0.04007910784
0.04007557209
0.0400723943
0.04006963258
0.04006756924
0.04004228367
0.04005754768
0.04006803035
0.04007417953
0.0400770306
0.04007761993
0.04007678012
0.04007511231
0.0400730228
0.04007077333
0.04006852671
0.04006638705
0.04006445383
0.0400629751
0.04001475247
0.04002381713
0.04003200282
0.0400386944
0.04004377162
0.04004738881
0.04004981084
0.04005131696
0.04005215492
0.04005252541
0.0400525824
0.04005244138
0.04005219503
0.040051951
0.04000235311
0.04000666196
0.04001133579
0.04001597836
0.04002032
0.04002421517
0.04002761256
0.04003052125
0.04003298318
0.04003505405
0.04003679108
0.04003824359
0.04003943516
0.04004029076
0.03999811558
0.04000035407
0.04000311887
0.04000625261
0.04000958603
0.04001296789
0.04001627903
0.04001943514
0.04002238309
0.04002509445
0.04002755764
0.04002976599
0.04003168501
0.04003311974
0.03999783272
0.04000051589
0.04000398792
0.04000796653
0.0400121594
0.04001632413
0.04002028761
0.04002394248
0.0400272343
0.04003014686
0.04003268908
0.04003488409
0.04003675789
0.04003831479
0.04003943957
0.04000322187
0.04000981342
0.0400169634
0.04002374613
0.04002965645
0.04003452173
0.04003836993
0.04004132526
0.04004354284
0.04004517404
0.04004635128
0.04004718363
0.04004775768
0.04004813912
0.04004836473
0.0400235972
0.04004228396
0.04005754793
0.04006803058
0.04007417973
0.04007703078
0.04007762009
0.04007678027
0.04007511244
0.04007302292
0.04007077345
0.04006852681
0.04006638715
0.04006445392
0.04006297518
0.04013653137
0.0401556162
0.04015862625
0.0401529645
0.04014345888
0.04013282399
0.04012242953
0.04011288185
0.0401043861
0.04009695197
0.04009050628
0.04008496188
0.04008030671
0.04007690931
0.0403211681
0.04029669858
0.04025940757
0.04022375024
0.04019350232
0.04016885685
0.04014899469
0.04013296206
0.04011993113
0.04010924758
0.0401004152
0.04009307948
0.04008707393
0.04008276096
0.04013653013
0.04015561533
0.04015862559
0.04015296399
0.04014345849
0.04013282367
0.04012242926
0.04011288163
0.04010438591
0.0400969518
0.04009050613
0.04008496174
0.04008030659
0.04007690919
0.04004228369
0.04005754763
0.04006803024
0.04007417939
0.04007703045
0.04007761977
0.04007677996
0.04007511215
0.04007302264
0.04007077318
0.04006852657
0.04006638691
0.0400644537
0.04006297497
0.04000981338
0.04001696334
0.04002374604
0.04002965633
0.04003452159
0.04003836977
0.04004132508
0.04004354265
0.04004517385
0.04004635108
0.04004718343
0.04004775747
0.04004813891
0.04004836452
0.04000051589
0.04000398791
0.04000796651
0.04001215936
0.04001632407
0.04002028752
0.04002394237
0.04002723418
0.04003014671
0.04003268892
0.04003488391
0.0400367577
0.04003831459
0.04003943937
0.03999882824
0.04000222654
0.04000637423
0.04001089066
0.0400154568
0.04001984303
0.04002390373
0.04002756053
0.04003078426
0.04003357895
0.04003596929
0.04003799069
0.04003967969
0.04004105377
0.04004202957
0.04000775746
0.04001683786
0.04002542891
0.04003268901
0.04003843328
0.04004278198
0.04004596228
0.04004821403
0.04004975149
0.04005075196
0.04005135616
0.04005167332
0.04005178819
0.04005177114
0.04005169846
0.04005127216
0.04007827235
0.04009340298
0.04009983128
0.04010088564
0.04009893446
0.04009546415
0.04009135284
0.04008709833
0.04008297084
0.04007910775
0.040075572
0.04007239422
0.0400696325
0.04006756917
0.04028865194
0.04032116794
0.04029669831
0.04025940726
0.04022374994
0.04019350205
0.04016885661
0.04014899449
0.04013296189
0.040119931
0.04010924746
0.0401004151
0.04009307939
0.04008707386
0.0400827609
0.04111526228
0.04070993482
0.04048591485
0.04035495187
0.04027391441
0.04022093604
0.04018450162
0.04015830149
0.0401387346
0.04012366039
0.04011175827
0.04010220368
0.04009457161
0.04008917511
0.04032116807
0.0402966975
0.04025940661
0.0402237495
0.04019350176
0.0401688564
0.04014899432
0.04013296175
0.04011993087
0.04010924735
0.040100415
0.0400930793
0.04008707377
0.04008276081
0.04007827191
0.04009340245
0.04009983076
0.04010088517
0.04009893405
0.04009546381
0.04009135254
0.04008709807
0.0400829706
0.04007910753
0.0400755718
0.04007239403
0.04006963232
0.04006756898
0.04001683775
0.04002542875
0.0400326888
0.04003843304
0.04004278174
0.04004596203
0.04004821378
0.04004975124
0.04005075171
0.04005135592
0.04005167308
0.04005178795
0.04005177091
0.04005169823
0.04000222652
0.04000637419
0.04001089059
0.0400154567
0.04001984291
0.04002390358
0.04002756037
0.04003078407
0.04003357875
0.04003596908
0.04003799047
0.04003967947
0.04004105354
0.04004202934
0.03999783271
0.04000051586
0.04000398787
0.04000796647
0.04001215933
0.04001632406
0.04002028753
0.04002394239
0.04002723421
0.04003014677
0.04003268898
0.04003488399
0.0400367578
0.04003831469
0.04003943948
0.0400032218
0.04000981331
0.04001696327
0.04002374599
0.0400296563
0.04003452158
0.04003836979
0.04004132512
0.04004354271
0.04004517392
0.04004635115
0.04004718351
0.04004775757
0.04004813901
0.04004836462
0.04002359683
0.04004228357
0.0400575475
0.04006803016
0.04007417935
0.04007703044
0.04007761978
0.04007677999
0.04007511219
0.04007302268
0.04007077323
0.04006852662
0.04006638696
0.04006445375
0.04006297502
0.04009338553
0.04013652961
0.04015561476
0.04015862514
0.04015296366
0.04014345823
0.04013282348
0.04012242912
0.04011288153
0.04010438582
0.04009695173
0.04009050607
0.0400849617
0.04008030655
0.04007690915
0.04028865113
0.04032116718
0.04029669693
0.04025940628
0.04022374931
0.04019350164
0.04016885633
0.04014899428
0.04013296173
0.04011993085
0.04010924734
0.04010041499
0.04009307929
0.04008707376
0.0400827608
0.04009338559
0.04013652929
0.04015561437
0.04015862478
0.04015296334
0.04014345796
0.04013282325
0.04012242892
0.04011288134
0.04010438566
0.04009695158
0.04009050593
0.04008496157
0.04008030643
0.04007690903
0.04004228392
0.04005754757
0.04006803007
0.04007417917
0.04007703022
0.04007761954
0.04007677975
0.04007511195
0.04007302245
0.04007077301
0.0400685264
0.04006638676
0.04006445355
0.04006297483
0.04000981342
0.04001696333
0.04002374599
0.04002965625
0.04003452148
0.04003836966
0.04004132496
0.04004354253
0.04004517373
0.04004635096
0.04004718331
0.04004775736
0.0400481388
0.04004836441
0.04000051589
0.04000398789
0.04000796647
0.0400121593
0.040016324
0.04002028744
0.04002394228
0.04002723408
0.04003014661
0.04003268881
0.04003488381
0.0400367576
0.04003831449
0.04003943926
0.03999650323
0.03999811556
0.04000035404
0.04000311884
0.04000625259
0.04000958601
0.04001296787
0.04001627901
0.04001943513
0.04002238308
0.04002509445
0.04002755765
0.04002976601
0.04003168503
0.04003311976
0.03999886691
0.0400023531
0.04000666194
0.04001133577
0.04001597834
0.04002031998
0.04002421516
0.04002761255
0.04003052124
0.04003298317
0.04003505405
0.04003679108
0.0400382436
0.04003943517
0.04004029076
0.04000608989
0.04001475243
0.04002381706
0.04003200274
0.04003869431
0.04004377152
0.04004738871
0.04004981074
0.04005131686
0.04005215482
0.04005252532
0.04005258232
0.04005244129
0.04005219495
0.04005195092
0.04002359673
0.04004228337
0.04005754724
0.04006802987
0.04007417906
0.04007703016
0.04007761952
0.04007677976
0.04007511197
0.04007302249
0.04007077306
0.04006852646
0.04006638682
0.04006445361
0.04006297489
0.04005127152
0.04007827133
0.0400934019
0.0400998303
0.0401008848
0.04009893376
0.04009546358
0.04009135236
0.04008709793
0.04008297049
0.04007910744
0.04007557172
0.04007239397
0.04006963226
0.04006756894
0.04002359667
0.04004228327
0.04005754711
0.04006802975
0.04007417894
0.04007703004
0.04007761941
0.04007677965
0.04007511187
0.04007302239
0.04007077296
0.04006852637
0.04006638673
0.04006445353
0.04006297481
0.04000608996
0.04001475246
0.04002381703
0.04003200265
0.04003869419
0.04004377138
0.04004738855
0.04004981058
0.0400513167
0.04005215466
0.04005252516
0.04005258215
0.04005244113
0.04005219479
0.04005195077
0.04000235316
0.04000666195
0.04001133573
0.04001597827
0.04002031988
0.04002421503
0.0400276124
0.04003052107
0.04003298299
0.04003505387
0.04003679089
0.0400382434
0.04003943497
0.04004029056
0.0399981156
0.04000035408
0.04000311887
0.04000625259
0.04000958599
0.04001296783
0.04001627896
0.04001943505
0.04002238298
0.04002509434
0.04002755752
0.04002976586
0.04003168487
0.04003311959
0.03999561664
0.03999647486
0.03999774384
0.03999943089
0.04000149571
0.0400038661
0.04000645521
0.04000917531
0.04001194691
0.04001470324
0.04001739137
0.04001996973
0.04002239825
0.04002459986
0.04002629682
0.03999652588
0.03999814834
0.04000037129
0.04000307713
0.04000610197
0.04000928217
0.04001248058
0.04001559562
0.04001855988
0.04002133394
0.04002389875
0.04002624776
0.04002837537
0.04003024458
0.04003165483
0.0399988669
0.04000235309
0.04000666192
0.04001133574
0.04001597831
0.04002031994
0.04002421511
0.0400276125
0.04003052119
0.04003298312
0.04003505399
0.04003679102
0.04003824353
0.0400394351
0.0400402907
0.04000322179
0.04000981327
0.04001696319
0.04002374588
0.04002965617
0.04003452143
0.04003836962
0.04004132495
0.04004354253
0.04004517374
0.04004635098
0.04004718334
0.04004775739
0.04004813884
0.04004836446
0.04000775733
0.04001683761
0.04002542857
0.04003268861
0.04003843286
0.04004278157
0.04004596188
0.04004821364
0.04004975112
0.0400507516
0.04005135582
0.04005167299
0.04005178787
0.04005177084
0.04005169817
0.04000322175
0.04000981321
0.04001696312
0.04002374579
0.04002965608
0.04003452133
0.04003836952
0.04004132485
0.04004354244
0.04004517364
0.04004635089
0.04004718325
0.04004775731
0.04004813875
0.04004836437
0.03999886689
0.04000235307
0.04000666187
0.04001133567
0.04001597822
0.04002031983
0.04002421499
0.04002761236
0.04003052104
0.04003298297
0.04003505384
0.04003679087
0.04003824338
0.04003943495
0.04004029055
0.03999652589
0.03999814835
0.04000037129
0.0400030771
0.04000610192
0.04000928211
0.0400124805
0.04001559551
0.04001855976
0.04002133381
0.04002389861
0.04002624761
0.04002837521
0.04003024442
0.04003165466
0.03999647488
0.03999774386
0.03999943091
0.04000149571
0.04000386609
0.04000645518
0.04000917527
0.04001194685
0.04001470317
0.04001739128
0.04001996962
0.04002239813
0.04002459973
0.04002629668
0.03999522015
0.03999573121
0.0399965245
0.0399976429
0.03999909936
0.0400008774
0.04000293687
0.04000522215
0.04000767041
0.04001021829
0.04001280635
0.04001537987
0.04001788089
0.04002020716
0.04002203232
0.03999561664
0.03999647486
0.03999774384
0.03999943089
0.04000149571
0.0400038661
0.0400064552
0.0400091753
0.0400119469
0.04001470323
0.04001739136
0.04001996971
0.04002239823
0.04002459984
0.04002629679
0.03999650323
0.03999811557
0.04000035405
0.04000311884
0.04000625258
0.04000958599
0.04001296785
0.04001627899
0.0400194351
0.04002238304
0.04002509441
0.0400275576
0.04002976595
0.04003168496
0.04003311969
0.03999783271
0.04000051586
0.04000398786
0.04000796644
0.04001215928
0.04001632399
0.04002028745
0.0400239423
0.0400272341
0.04003014665
0.04003268885
0.04003488385
0.04003675765
0.04003831454
0.04003943932
0.03999882821
0.04000222648
0.04000637412
0.04001089051
0.04001545662
0.04001984283
0.04002390351
0.0400275603
0.04003078401
0.04003357869
0.04003596902
0.04003799042
0.04003967942
0.0400410535
0.0400420293
0.0399978327
0.04000051584
0.04000398784
0.04000796641
0.04001215925
0.04001632395
0.0400202874
0.04002394225
0.04002723405
0.04003014659
0.04003268879
0.04003488379
0.04003675758
0.04003831447
0.04003943924
0.03999650323
0.03999811556
0.04000035403
0.04000311882
0.04000625254
0.04000958595
0.04001296779
0.04001627892
0.04001943502
0.04002238295
0.04002509431
0.04002755749
0.04002976584
0.04003168485
0.04003311957
0.03999561664
0.03999647485
0.03999774383
0.03999943087
0.04000149567
0.04000386605
0.04000645514
0.04000917523
0.04001194681
0.04001470312
0.04001739124
0.04001996958
0.04002239809
0.04002459969
0.04002629665
0.03999522016
0.03999573121
0.03999652451
0.0399976429
0.03999909936
0.04000087739
0.04000293684
0.04000522211
0.04000767036
0.04001021823
0.04001280627
0.04001537977
0.04001788078
0.04002020704
0.04002203219
)
;

boundaryField
{
    top
    {
        type            calculated;
        value           nonuniform List<scalar> 
127
(
0.03999522016
0.03999573121
0.03999647486
0.03999811558
0.04000051589
0.04000222652
0.04000051589
0.0399981156
0.03999647488
0.03999573121
0.03999652451
0.03999774385
0.04000035407
0.04000398791
0.04000637419
0.04000398789
0.04000035408
0.03999774386
0.03999652451
0.03999764291
0.03999943091
0.04000311887
0.04000796651
0.04001089059
0.04000796647
0.04000311887
0.03999943091
0.0399976429
0.03999909938
0.04000149572
0.04000625261
0.04001215936
0.0400154567
0.0400121593
0.04000625259
0.04000149571
0.03999909936
0.04000087743
0.04000386612
0.04000958603
0.04001632407
0.04001984291
0.040016324
0.04000958599
0.04000386609
0.04000087739
0.0400029369
0.04000645523
0.04001296789
0.04002028752
0.04002390358
0.04002028744
0.04001296783
0.04000645518
0.04000293684
0.04000522218
0.04000917533
0.04001627903
0.04002394237
0.04002756037
0.04002394228
0.04001627896
0.04000917527
0.04000522211
0.04000767045
0.04001194693
0.04001943514
0.04002723418
0.04003078407
0.04002723408
0.04001943505
0.04001194685
0.04000767036
0.04001021834
0.04001470326
0.04002238309
0.04003014671
0.04003357875
0.04003014661
0.04002238298
0.04001470317
0.04001021823
0.0400128064
0.04001739139
0.04002509445
0.04003268892
0.04003596908
0.04003268881
0.04002509434
0.04001739128
0.04001280627
0.04001537992
0.04001996975
0.04002755764
0.04003488391
0.04003799047
0.04003488381
0.04002755752
0.04001996962
0.04001537977
0.04001788095
0.04002239827
0.04002976599
0.0400367577
0.04003967947
0.0400367576
0.04002976586
0.04002239813
0.04001788078
0.04002020722
0.04002459988
0.04003168501
0.04003831459
0.04004105354
0.04003831449
0.04003168487
0.04002459973
0.04002020704
0.04002203238
0.04002629684
0.04003311974
0.04003943937
0.04004202934
0.04003943926
0.04003311959
0.04002629668
0.04002203219
)
;
    }
    bottom
    {
        type            calculated;
        value           nonuniform List<scalar> 
134
(
0.03999561665
0.03999650324
0.03999783272
0.03999882824
0.03999783271
0.03999650323
0.03999561664
0.03999522015
0.03999573123
0.03999647488
0.0399981156
0.04000051589
0.04000222654
0.04000051586
0.03999811556
0.03999647486
0.03999573121
0.03999652454
0.03999774387
0.0400003541
0.04000398792
0.04000637423
0.04000398787
0.04000035404
0.03999774384
0.0399965245
0.03999764294
0.03999943094
0.04000311891
0.04000796653
0.04001089066
0.04000796647
0.04000311884
0.03999943089
0.0399976429
0.03999909942
0.04000149577
0.04000625267
0.0400121594
0.0400154568
0.04001215933
0.04000625259
0.04000149571
0.03999909936
0.04000087748
0.04000386618
0.04000958611
0.04001632413
0.04001984303
0.04001632406
0.04000958601
0.0400038661
0.0400008774
0.04000293695
0.04000645529
0.04001296798
0.04002028761
0.04002390373
0.04002028753
0.04001296787
0.04000645521
0.04000293687
0.04000522226
0.04000917541
0.04001627914
0.04002394248
0.04002756053
0.04002394239
0.04001627901
0.04000917531
0.04000522215
0.04000767053
0.04001194702
0.04001943526
0.0400272343
0.04003078426
0.04002723421
0.04001943513
0.04001194691
0.04000767041
0.04001021843
0.04001470337
0.04002238322
0.04003014686
0.04003357895
0.04003014677
0.04002238308
0.04001470324
0.04001021829
0.0400128065
0.04001739151
0.0400250946
0.04003268908
0.04003596929
0.04003268898
0.04002509445
0.04001739137
0.04001280635
0.04001538004
0.04001996988
0.0400275578
0.04003488409
0.04003799069
0.04003488399
0.04002755765
0.04001996973
0.04001537987
0.04001788108
0.04002239841
0.04002976616
0.04003675789
0.04003967969
0.0400367578
0.04002976601
0.04002239825
0.04001788089
0.04002020736
0.04002460004
0.04003168519
0.04003831479
0.04004105377
0.04003831469
0.04003168503
0.04002459986
0.04002020716
0.04002203253
0.04002629701
0.04003311993
0.04003943957
0.04004202957
0.04003943948
0.04003311976
0.04002629682
0.04002203232
)
;
    }
    side-walls
    {
        type            calculated;
        value           nonuniform List<scalar> 
261
(
0.03999573123
0.03999647489
0.03999811562
0.04000051594
0.04000222657
0.04000051589
0.03999811559
0.03999647486
0.03999573121
0.03999652454
0.03999774389
0.04000035414
0.04000398799
0.04000637428
0.04000398793
0.04000035408
0.03999774385
0.03999652451
0.03999764294
0.03999943096
0.04000311896
0.04000796662
0.04001089072
0.04000796654
0.04000311889
0.03999943091
0.03999764291
0.03999909942
0.04000149579
0.04000625274
0.0400121595
0.04001545687
0.04001215941
0.04000625265
0.04000149573
0.03999909938
0.04000087748
0.04000386621
0.04000958618
0.04001632425
0.04001984312
0.04001632415
0.04000958608
0.04000386613
0.04000087743
0.04000293695
0.04000645533
0.04001296806
0.04002028773
0.04002390383
0.04002028763
0.04001296795
0.04000645524
0.0400029369
0.04000522226
0.04000917545
0.04001627922
0.04002394261
0.04002756064
0.0400239425
0.0400162791
0.04000917535
0.04000522218
0.04000767053
0.04001194706
0.04001943535
0.04002723443
0.04003078437
0.04002723432
0.04001943522
0.04001194695
0.04000767045
0.04001021843
0.04001470341
0.04002238331
0.04003014699
0.04003357906
0.04003014688
0.04002238318
0.04001470329
0.04001021834
0.0400128065
0.04001739156
0.04002509469
0.0400326892
0.0400359694
0.04003268909
0.04002509455
0.04001739142
0.0400128064
0.04001538004
0.04001996992
0.04002755789
0.04003488421
0.0400379908
0.0400348841
0.04002755774
0.04001996978
0.04001537992
0.04001788108
0.04002239845
0.04002976625
0.040036758
0.0400396798
0.0400367579
0.0400297661
0.0400223983
0.04001788095
0.04002020736
0.04002460008
0.04003168527
0.04003831489
0.04004105387
0.0400383148
0.04003168512
0.04002459992
0.04002020722
0.04002203253
0.04002629704
0.04003312
0.04003943967
0.04004202967
0.04003943958
0.04003311985
0.04002629688
0.04002203238
0.03999522015
0.03999561664
0.03999650323
0.03999783271
0.03999882821
0.0399978327
0.03999650323
0.03999561664
0.03999522016
0.03999573121
0.03999647486
0.03999811557
0.04000051586
0.04000222648
0.04000051584
0.03999811556
0.03999647485
0.03999573121
0.0399965245
0.03999774384
0.04000035405
0.04000398786
0.04000637412
0.04000398784
0.04000035403
0.03999774383
0.03999652451
0.0399976429
0.03999943089
0.04000311884
0.04000796644
0.04001089051
0.04000796641
0.04000311882
0.03999943087
0.0399976429
0.03999909936
0.04000149571
0.04000625258
0.04001215928
0.04001545662
0.04001215925
0.04000625254
0.04000149567
0.03999909936
0.0400008774
0.0400038661
0.04000958599
0.04001632399
0.04001984283
0.04001632395
0.04000958595
0.04000386605
0.04000087739
0.04000293687
0.0400064552
0.04001296785
0.04002028745
0.04002390351
0.0400202874
0.04001296779
0.04000645514
0.04000293684
0.04000522215
0.0400091753
0.04001627899
0.0400239423
0.0400275603
0.04002394225
0.04001627892
0.04000917523
0.04000522211
0.04000767041
0.0400119469
0.0400194351
0.0400272341
0.04003078401
0.04002723405
0.04001943502
0.04001194681
0.04000767036
0.04001021829
0.04001470323
0.04002238304
0.04003014665
0.04003357869
0.04003014659
0.04002238295
0.04001470312
0.04001021823
0.04001280635
0.04001739136
0.04002509441
0.04003268885
0.04003596902
0.04003268879
0.04002509431
0.04001739124
0.04001280627
0.04001537987
0.04001996971
0.0400275576
0.04003488385
0.04003799042
0.04003488379
0.04002755749
0.04001996958
0.04001537977
0.04001788089
0.04002239823
0.04002976595
0.04003675765
0.04003967942
0.04003675758
0.04002976584
0.04002239809
0.04001788078
0.04002020716
0.04002459984
0.04003168496
0.04003831454
0.0400410535
0.04003831447
0.04003168485
0.04002459969
0.04002020704
0.04002203232
0.04002629679
0.04003311969
0.04003943932
0.0400420293
0.04003943924
0.04003311957
0.04002629665
0.04002203219
)
;
    }
    inlet
    {
        type            calculated;
        value           nonuniform 0();
    }
    outlet
    {
        type            calculated;
        value           nonuniform List<scalar> 
81
(
0.04002203253
0.04002629704
0.04003312
0.04003943967
0.04004202967
0.04003943958
0.04003311985
0.04002629688
0.04002203238
0.04002629701
0.04003165506
0.04004029098
0.0400483648
0.04005169854
0.04004836472
0.04004029085
0.04003165488
0.04002629684
0.04003311993
0.04004029094
0.04005195117
0.0400629752
0.04006756924
0.0400629751
0.040051951
0.04004029076
0.04003311974
0.04003943957
0.04004836473
0.04006297518
0.04007690931
0.04008276096
0.04007690919
0.04006297497
0.04004836452
0.04003943937
0.04004202957
0.04005169846
0.04006756917
0.0400827609
0.04008917511
0.04008276081
0.04006756898
0.04005169823
0.04004202934
0.04003943948
0.04004836462
0.04006297502
0.04007690915
0.0400827608
0.04007690903
0.04006297483
0.04004836441
0.04003943926
0.04003311976
0.04004029076
0.04005195092
0.04006297489
0.04006756894
0.04006297481
0.04005195077
0.04004029056
0.04003311959
0.04002629682
0.04003165483
0.0400402907
0.04004836446
0.04005169817
0.04004836437
0.04004029055
0.04003165466
0.04002629668
0.04002203232
0.04002629679
0.04003311969
0.04003943932
0.0400420293
0.04003943924
0.04003311957
0.04002629665
0.04002203219
)
;
    }
    procBoundary1to0
    {
        type            processor;
        value           nonuniform List<scalar> 
97
(
0.03999522016
0.03999522016
0.03999561665
0.03999650324
0.03999783271
0.03999882821
0.03999783268
0.03999650322
0.03999561663
0.03999522015
0.0399951084
0.03999652591
0.03999652591
0.03999652591
0.03999886693
0.0400032218
0.04000775732
0.04000322176
0.03999886688
0.03999652586
0.03999561663
0.03999551063
0.03999654948
0.04000609002
0.04000609002
0.04000609002
0.0400235969
0.04005127154
0.04002359657
0.04000608977
0.03999886686
0.03999650321
0.03999609908
0.03999837837
0.04000633794
0.04009338698
0.04009338698
0.04009338698
0.04028865029
0.04009338519
0.04002359662
0.04000322175
0.03999783269
0.0399965185
0.04000010066
0.04001516052
0.04007466867
0.04189068636
0.04189068636
0.04189068636
0.04028865063
0.04028865063
0.0400512715
0.04000775728
0.03999882819
0.03999609907
0.03999837835
0.0400063379
0.04002943563
0.04007466837
0.04002943555
0.04002359703
0.04002359703
0.04002359703
0.04000322181
0.03999783269
0.03999551062
0.03999654948
0.03999958915
0.04000633787
0.04001516026
0.04000633784
0.03999958914
0.03999886693
0.03999886693
0.03999886693
0.03999650323
0.0399951084
0.03999551866
0.03999654948
0.03999837835
0.04000010062
0.03999837833
0.03999654946
0.03999551866
0.03999561665
0.03999561665
0.03999561665
0.03999492608
0.0399951084
0.03999551063
0.03999609908
0.03999651849
0.03999609908
0.03999551063
0.03999510839
0.03999492609
)
;
    }
}


// ************************************************************************* //
