/*--------------------------------*- C++ -*----------------------------------*\
| =========                 |                                                 |
| \\      /  F ield         | OpenFOAM: The Open Source CFD Toolbox           |
|  \\    /   O peration     | Version:  4.x                                   |
|   \\  /    A nd           | Web:      www.OpenFOAM.org                      |
|    \\/     M anipulation  |                                                 |
\*---------------------------------------------------------------------------*/
FoamFile
{
    version     2.0;
    format      ascii;
    class       volScalarField;
    location    "10000";
    object      X_CO;
}
// * * * * * * * * * * * * * * * * * * * * * * * * * * * * * * * * * * * * * //

dimensions      [0 0 0 0 0 0 0];

internalField   nonuniform List<scalar> 
1174
(
0.3299578384
0.329957045
0.3299559266
0.3299544701
0.3299526919
0.3299506324
0.329948347
0.3299458985
0.3299433505
0.3299407623
0.3299381885
0.3299356873
0.3299333608
0.3299315355
0.3299570947
0.3299558257
0.3299541385
0.3299520736
0.3299497031
0.3299471139
0.3299443936
0.3299416219
0.3299388654
0.329936177
0.3299335985
0.3299311697
0.3299289679
0.3299272708
0.3299554539
0.3299532154
0.3299504505
0.3299473166
0.329943983
0.329940601
0.3299372897
0.3299341334
0.3299311852
0.3299284737
0.3299260102
0.3299238017
0.3299218824
0.3299204475
0.3299530536
0.3299495815
0.3299456027
0.3299414097
0.3299372449
0.3299332812
0.3299296262
0.3299263341
0.3299234214
0.3299208789
0.3299186837
0.3299168097
0.3299152526
0.3299141276
0.3299513429
0.3299471952
0.3299426786
0.3299381124
0.329933726
0.3299296651
0.3299260081
0.3299227841
0.3299199892
0.3299175987
0.329915577
0.3299138878
0.3299125135
0.3299115375
0.3299530536
0.3299495815
0.3299456028
0.3299414099
0.329937245
0.3299332813
0.3299296263
0.3299263343
0.3299234215
0.3299208791
0.3299186839
0.3299168098
0.3299152527
0.3299141278
0.329955454
0.3299532154
0.3299504505
0.3299473167
0.3299439832
0.3299406012
0.3299372899
0.3299341336
0.3299311854
0.3299284739
0.3299260105
0.3299238019
0.3299218827
0.3299204478
0.3299570947
0.3299558257
0.3299541386
0.3299520737
0.3299497032
0.329947114
0.3299443938
0.329941622
0.3299388656
0.3299361772
0.3299335987
0.32993117
0.3299289682
0.3299272711
0.3299578384
0.3299570451
0.3299559266
0.3299544701
0.329952692
0.3299506325
0.3299483471
0.3299458987
0.3299433506
0.3299407624
0.3299381887
0.3299356875
0.3299333611
0.3299315358
0.329957953
0.3299570947
0.3299558257
0.3299541386
0.3299520737
0.3299497032
0.3299471139
0.3299443937
0.3299416219
0.3299388654
0.3299361771
0.3299335985
0.3299311698
0.3299289679
0.3299272708
0.3299554211
0.3299531981
0.3299504922
0.3299474673
0.3299442869
0.3299410884
0.3299379732
0.3299350087
0.3299322344
0.3299296694
0.3299273202
0.3299251924
0.3299233229
0.3299219125
0.3299512163
0.3299469073
0.3299422334
0.3299375907
0.3299332489
0.3299293535
0.3299259559
0.329923047
0.3299205849
0.3299185138
0.3299167765
0.3299153238
0.329914132
0.3299132762
0.329943756
0.3299366059
0.329929823
0.3299239126
0.3299190471
0.3299151987
0.3299122431
0.3299100253
0.3299083939
0.3299072164
0.3299063838
0.3299058096
0.3299054279
0.3299052021
0.3299367317
0.3299281405
0.3299208802
0.3299151358
0.3299107868
0.3299076063
0.3299053543
0.3299038166
0.3299028159
0.3299022115
0.3299018941
0.329901779
0.3299017958
0.3299018683
0.329943756
0.329936606
0.3299298231
0.3299239127
0.3299190472
0.3299151988
0.3299122433
0.3299100255
0.3299083941
0.3299072166
0.329906384
0.3299058097
0.3299054281
0.3299052023
0.3299512163
0.3299469074
0.3299422335
0.3299375908
0.329933249
0.3299293537
0.3299259561
0.3299230472
0.3299205851
0.329918514
0.3299167768
0.329915324
0.3299141323
0.3299132765
0.3299554212
0.3299531982
0.3299504923
0.3299474674
0.3299442871
0.3299410885
0.3299379733
0.3299350089
0.3299322347
0.3299296697
0.3299273205
0.3299251927
0.3299233233
0.3299219129
0.3299570947
0.3299558257
0.3299541386
0.3299520737
0.3299497032
0.329947114
0.3299443938
0.3299416221
0.3299388656
0.3299361773
0.3299335988
0.3299311701
0.3299289683
0.3299272712
0.3299570664
0.329955454
0.3299532154
0.3299504505
0.3299473167
0.3299439831
0.3299406011
0.3299372898
0.3299341335
0.3299311853
0.3299284738
0.3299260103
0.3299238018
0.3299218825
0.3299204476
0.3299547026
0.3299512163
0.3299469074
0.3299422335
0.3299375907
0.329933249
0.3299293536
0.329925956
0.3299230471
0.3299205849
0.3299185138
0.3299167766
0.3299153238
0.3299141321
0.3299132763
0.3299388166
0.3299297519
0.3299215662
0.3299148744
0.329909797
0.3299061796
0.3299037573
0.329902251
0.3299014128
0.3299010421
0.3299009848
0.3299011256
0.3299013718
0.3299016157
0.3299112854
0.3298960214
0.3298855386
0.3298793892
0.3298765379
0.3298759483
0.3298767878
0.3298784554
0.3298805446
0.3298827939
0.3298850403
0.3298871797
0.3298891127
0.3298905913
0.3298752979
0.3298601669
0.3298537383
0.3298526835
0.3298546343
0.3298581042
0.3298622152
0.3298664694
0.3298705966
0.3298744594
0.3298779949
0.3298811725
0.329883934
0.3298859972
0.3299112858
0.3298960218
0.329885539
0.3298793896
0.3298765382
0.3298759486
0.3298767882
0.3298784557
0.3298805449
0.3298827941
0.3298850405
0.3298871799
0.329889113
0.3298905915
0.3299388169
0.3299297522
0.3299215664
0.3299148747
0.3299097973
0.32990618
0.3299037577
0.3299022514
0.3299014132
0.3299010424
0.3299009852
0.329901126
0.3299013722
0.329901616
0.3299512164
0.3299469075
0.3299422336
0.3299375909
0.3299332491
0.3299293538
0.3299259563
0.3299230474
0.3299205853
0.3299185142
0.329916777
0.3299153242
0.3299141325
0.3299132767
0.329955454
0.3299532154
0.3299504506
0.3299473168
0.3299439832
0.3299406013
0.32993729
0.3299341337
0.3299311856
0.3299284741
0.3299260107
0.3299238021
0.3299218829
0.3299204481
0.3299557369
0.3299530536
0.3299495816
0.3299456029
0.3299414099
0.329937245
0.3299332814
0.3299296263
0.3299263343
0.3299234215
0.3299208791
0.3299186838
0.3299168098
0.3299152527
0.3299141277
0.3299503477
0.3299437561
0.329936606
0.3299298232
0.3299239127
0.3299190472
0.3299151988
0.3299122433
0.3299100255
0.329908394
0.3299072165
0.329906384
0.3299058097
0.329905428
0.3299052022
0.3299299722
0.3299112856
0.3298960215
0.3298855387
0.3298793893
0.329876538
0.3298759484
0.3298767879
0.3298784554
0.3298805447
0.3298827939
0.3298850403
0.3298871797
0.3298891127
0.3298905913
0.3298170388
0.3297979541
0.3297949437
0.3298006049
0.32981011
0.3298207445
0.3298311385
0.3298406858
0.3298491812
0.329856615
0.3298630605
0.3298686046
0.3298732596
0.3298766569
0.3296324061
0.3296568743
0.329694164
0.3297298202
0.3297600672
0.3297847119
0.3298045735
0.3298206057
0.3298336362
0.3298443194
0.3298531515
0.329860487
0.3298664923
0.3298708051
0.3298170404
0.3297979552
0.3297949446
0.3298006057
0.3298101107
0.329820745
0.329831139
0.3298406863
0.3298491816
0.3298566154
0.3298630608
0.329868605
0.3298732599
0.3298766572
0.3299112858
0.3298960219
0.3298855392
0.3298793898
0.3298765386
0.329875949
0.3298767885
0.329878456
0.3298805453
0.3298827945
0.3298850408
0.3298871803
0.3298891133
0.3298905918
0.3299437561
0.3299366061
0.3299298233
0.3299239129
0.3299190475
0.3299151991
0.3299122436
0.3299100259
0.3299083945
0.329907217
0.3299063844
0.3299058102
0.3299054285
0.3299052028
0.3299530536
0.3299495816
0.3299456029
0.32994141
0.3299372451
0.3299332816
0.3299296266
0.3299263346
0.3299234219
0.3299208795
0.3299186843
0.3299168103
0.3299152532
0.3299141283
0.3299547413
0.329951343
0.3299471953
0.3299426787
0.3299381125
0.3299337261
0.3299296652
0.3299260082
0.3299227843
0.3299199894
0.3299175988
0.3299155772
0.329913888
0.3299125137
0.3299115377
0.3299458121
0.3299367317
0.3299281406
0.3299208804
0.3299151359
0.329910787
0.3299076065
0.3299053545
0.3299038168
0.3299028161
0.3299022116
0.3299018942
0.3299017791
0.3299017959
0.3299018685
0.3299022978
0.3298752978
0.329860167
0.3298537384
0.3298526837
0.3298546345
0.3298581044
0.3298622154
0.3298664696
0.3298705968
0.3298744596
0.3298779951
0.3298811726
0.3298839341
0.3298859973
0.3296649224
0.3296324067
0.3296568749
0.3296941645
0.3297298206
0.3297600675
0.3297847122
0.3298045738
0.3298206059
0.3298336364
0.3298443196
0.3298531516
0.3298604871
0.3298664924
0.3298708052
0.3288383304
0.3292436474
0.3294676616
0.3295986211
0.3296796565
0.3297326335
0.329769067
0.3297952665
0.3298148329
0.3298299067
0.3298418085
0.3298513628
0.3298589946
0.329864391
0.3296324061
0.3296568758
0.3296941655
0.3297298215
0.3297600683
0.3297847128
0.3298045743
0.3298206063
0.3298336368
0.32984432
0.329853152
0.3298604874
0.3298664927
0.3298708055
0.3298752981
0.3298601676
0.3298537391
0.3298526844
0.3298546352
0.3298581051
0.3298622161
0.3298664702
0.3298705974
0.3298744602
0.3298779956
0.3298811732
0.3298839346
0.3298859978
0.3299367317
0.3299281407
0.3299208806
0.3299151363
0.3299107874
0.3299076069
0.329905355
0.3299038173
0.3299028166
0.3299022122
0.3299018948
0.3299017797
0.3299017965
0.3299018691
0.329951343
0.3299471953
0.3299426788
0.3299381126
0.3299337263
0.3299296655
0.3299260086
0.3299227847
0.3299199898
0.3299175993
0.3299155777
0.3299138885
0.3299125142
0.3299115383
0.3299557369
0.3299530537
0.3299495816
0.3299456029
0.32994141
0.3299372451
0.3299332815
0.3299296265
0.3299263344
0.3299234217
0.3299208793
0.329918684
0.32991681
0.3299152529
0.3299141279
0.3299503477
0.3299437562
0.3299366062
0.3299298234
0.3299239129
0.3299190475
0.329915199
0.3299122435
0.3299100257
0.3299083943
0.3299072168
0.3299063842
0.3299058099
0.3299054283
0.3299052025
0.3299299727
0.3299112861
0.3298960221
0.3298855393
0.3298793899
0.3298765385
0.3298759489
0.3298767884
0.3298784559
0.3298805451
0.3298827943
0.3298850407
0.3298871801
0.3298891131
0.3298905917
0.3298601849
0.3298170413
0.3297979561
0.3297949453
0.3298006062
0.3298101111
0.3298207454
0.3298311393
0.3298406865
0.3298491818
0.3298566156
0.3298630609
0.3298686051
0.32987326
0.3298766572
0.3296649233
0.3296324076
0.3296568767
0.3296941661
0.3297298218
0.3297600685
0.329784713
0.3298045744
0.3298206064
0.3298336369
0.32984432
0.329853152
0.3298604875
0.3298664928
0.3298708056
0.3298601847
0.3298170416
0.3297979566
0.3297949459
0.3298006069
0.3298101117
0.3298207459
0.3298311398
0.3298406869
0.3298491822
0.329856616
0.3298630613
0.3298686054
0.3298732603
0.3298766576
0.3299112855
0.329896022
0.3298855395
0.3298793903
0.329876539
0.3298759495
0.329876789
0.3298784565
0.3298805457
0.3298827949
0.3298850412
0.3298871806
0.3298891136
0.3298905922
0.329943756
0.3299366061
0.3299298234
0.329923913
0.3299190477
0.3299151994
0.3299122439
0.3299100261
0.3299083947
0.3299072173
0.3299063847
0.3299058105
0.3299054288
0.329905203
0.3299530536
0.3299495816
0.3299456029
0.32994141
0.3299372453
0.3299332817
0.3299296267
0.3299263348
0.3299234221
0.3299208797
0.3299186845
0.3299168105
0.3299152534
0.3299141285
0.3299570664
0.329955454
0.3299532155
0.3299504506
0.3299473168
0.3299439833
0.3299406013
0.32993729
0.3299341337
0.3299311856
0.329928474
0.3299260106
0.3299238021
0.3299218828
0.3299204479
0.3299547027
0.3299512164
0.3299469075
0.3299422336
0.329937591
0.3299332492
0.3299293538
0.3299259563
0.3299230474
0.3299205853
0.3299185142
0.3299167769
0.3299153242
0.3299141324
0.3299132767
0.3299474796
0.3299388171
0.3299297524
0.3299215666
0.3299148749
0.3299097975
0.3299061801
0.3299037579
0.3299022515
0.3299014133
0.3299010426
0.3299009854
0.3299011262
0.3299013723
0.3299016162
0.3299299728
0.3299112863
0.3298960225
0.3298855397
0.3298793903
0.329876539
0.3298759493
0.3298767888
0.3298784563
0.3298805455
0.3298827947
0.329885041
0.3298871804
0.3298891134
0.329890592
0.3299022984
0.329875299
0.3298601684
0.3298537398
0.329852685
0.3298546357
0.3298581055
0.3298622164
0.3298664704
0.3298705976
0.3298744603
0.3298779958
0.3298811733
0.3298839347
0.3298859979
0.3299299729
0.3299112865
0.3298960227
0.32988554
0.3298793906
0.3298765393
0.3298759497
0.3298767891
0.3298784566
0.3298805458
0.329882795
0.3298850413
0.3298871807
0.3298891137
0.3298905922
0.3299474795
0.329938817
0.3299297524
0.3299215668
0.3299148752
0.3299097979
0.3299061805
0.3299037583
0.329902252
0.3299014138
0.3299010431
0.3299009858
0.3299011266
0.3299013728
0.3299016166
0.3299512163
0.3299469075
0.3299422337
0.3299375911
0.3299332494
0.3299293541
0.3299259566
0.3299230478
0.3299205857
0.3299185146
0.3299167774
0.3299153247
0.3299141329
0.3299132772
0.3299554539
0.3299532154
0.3299504506
0.3299473168
0.3299439833
0.3299406014
0.3299372902
0.329934134
0.3299311859
0.3299284744
0.329926011
0.3299238025
0.3299218833
0.3299204484
0.329957953
0.3299570947
0.3299558257
0.3299541386
0.3299520738
0.3299497033
0.3299471141
0.3299443939
0.3299416221
0.3299388656
0.3299361773
0.3299335988
0.3299311701
0.3299289683
0.3299272712
0.3299570437
0.3299554212
0.3299531982
0.3299504924
0.3299474674
0.3299442871
0.3299410886
0.3299379734
0.329935009
0.3299322348
0.3299296698
0.3299273206
0.3299251928
0.3299233234
0.329921913
0.3299547027
0.3299512164
0.3299469076
0.3299422337
0.329937591
0.3299332493
0.329929354
0.3299259564
0.3299230475
0.3299205854
0.3299185143
0.3299167771
0.3299153244
0.3299141326
0.3299132768
0.3299503477
0.3299437563
0.3299366063
0.3299298236
0.3299239132
0.3299190478
0.3299151994
0.3299122439
0.3299100261
0.3299083947
0.3299072172
0.3299063846
0.3299058103
0.3299054287
0.3299052029
0.3299458122
0.329936732
0.329928141
0.3299208809
0.3299151366
0.3299107877
0.3299076072
0.3299053552
0.3299038175
0.3299028168
0.3299022124
0.3299018949
0.3299017798
0.3299017967
0.3299018692
0.3299503478
0.3299437563
0.3299366064
0.3299298237
0.3299239133
0.3299190479
0.3299151996
0.3299122441
0.3299100263
0.3299083949
0.3299072174
0.3299063848
0.3299058106
0.3299054289
0.3299052031
0.3299547027
0.3299512165
0.3299469076
0.3299422338
0.3299375912
0.3299332495
0.3299293542
0.3299259567
0.3299230478
0.3299205857
0.3299185147
0.3299167774
0.3299153247
0.329914133
0.3299132772
0.3299570437
0.3299554212
0.3299531982
0.3299504924
0.3299474675
0.3299442873
0.3299410888
0.3299379736
0.3299350093
0.3299322351
0.3299296701
0.3299273209
0.3299251932
0.3299233238
0.3299219134
0.3299570947
0.3299558257
0.3299541386
0.3299520738
0.3299497033
0.3299471142
0.329944394
0.3299416223
0.3299388659
0.3299361776
0.3299335991
0.3299311704
0.3299289687
0.3299272716
0.3299583495
0.3299578384
0.3299570451
0.3299559267
0.3299544702
0.3299526921
0.3299506325
0.3299483471
0.3299458988
0.3299433507
0.3299407625
0.3299381888
0.3299356877
0.3299333612
0.3299315359
0.329957953
0.3299570947
0.3299558257
0.3299541386
0.3299520738
0.3299497033
0.3299471141
0.3299443939
0.3299416222
0.3299388657
0.3299361774
0.3299335989
0.3299311702
0.3299289684
0.3299272713
0.3299570664
0.329955454
0.3299532155
0.3299504506
0.3299473168
0.3299439833
0.3299406014
0.3299372901
0.3299341338
0.3299311857
0.3299284742
0.3299260108
0.3299238023
0.329921883
0.3299204482
0.3299557369
0.3299530537
0.3299495817
0.329945603
0.3299414101
0.3299372453
0.3299332817
0.3299296267
0.3299263347
0.329923422
0.3299208796
0.3299186844
0.3299168104
0.3299152533
0.3299141284
0.3299547414
0.3299513431
0.3299471954
0.329942679
0.3299381128
0.3299337265
0.3299296657
0.3299260087
0.3299227848
0.32991999
0.3299175994
0.3299155778
0.3299138886
0.3299125144
0.3299115384
0.3299557369
0.3299530537
0.3299495817
0.3299456031
0.3299414102
0.3299372454
0.3299332818
0.3299296268
0.3299263349
0.3299234222
0.3299208798
0.3299186846
0.3299168106
0.3299152535
0.3299141286
0.3299570664
0.329955454
0.3299532155
0.3299504507
0.3299473169
0.3299439834
0.3299406015
0.3299372903
0.329934134
0.3299311859
0.3299284744
0.3299260111
0.3299238025
0.3299218833
0.3299204485
0.329957953
0.3299570948
0.3299558257
0.3299541387
0.3299520738
0.3299497034
0.3299471142
0.329944394
0.3299416224
0.3299388659
0.3299361777
0.3299335992
0.3299311705
0.3299289687
0.3299272716
0.3299583495
0.3299578384
0.3299570451
0.3299559267
0.3299544702
0.3299526921
0.3299506326
0.3299483472
0.3299458989
0.3299433509
0.3299407628
0.3299381891
0.329935688
0.3299333616
0.3299315363
)
;

boundaryField
{
    top
    {
        type            calculated;
        value           nonuniform List<scalar> 
127
(
0.3299583495
0.3299578384
0.3299570947
0.329955454
0.3299530536
0.329951343
0.3299530536
0.3299554539
0.3299570947
0.3299578384
0.3299570451
0.3299558257
0.3299532154
0.3299495816
0.3299471953
0.3299495816
0.3299532154
0.3299558257
0.3299570451
0.3299559266
0.3299541386
0.3299504506
0.3299456029
0.3299426788
0.3299456029
0.3299504506
0.3299541386
0.3299559267
0.3299544701
0.3299520737
0.3299473168
0.32994141
0.3299381126
0.32994141
0.3299473168
0.3299520738
0.3299544702
0.329952692
0.3299497032
0.3299439832
0.3299372451
0.3299337263
0.3299372453
0.3299439833
0.3299497033
0.3299526921
0.3299506325
0.329947114
0.3299406013
0.3299332816
0.3299296655
0.3299332817
0.3299406014
0.3299471142
0.3299506326
0.3299483471
0.3299443938
0.32993729
0.3299296266
0.3299260086
0.3299296267
0.3299372902
0.329944394
0.3299483472
0.3299458987
0.3299416221
0.3299341337
0.3299263346
0.3299227847
0.3299263348
0.329934134
0.3299416223
0.3299458989
0.3299433506
0.3299388656
0.3299311856
0.3299234219
0.3299199898
0.3299234221
0.3299311859
0.3299388659
0.3299433509
0.3299407624
0.3299361773
0.3299284741
0.3299208795
0.3299175993
0.3299208797
0.3299284744
0.3299361776
0.3299407628
0.3299381887
0.3299335988
0.3299260107
0.3299186843
0.3299155777
0.3299186845
0.329926011
0.3299335991
0.3299381891
0.3299356875
0.3299311701
0.3299238021
0.3299168103
0.3299138885
0.3299168105
0.3299238025
0.3299311704
0.329935688
0.3299333611
0.3299289683
0.3299218829
0.3299152532
0.3299125142
0.3299152534
0.3299218833
0.3299289687
0.3299333616
0.3299315358
0.3299272712
0.3299204481
0.3299141283
0.3299115383
0.3299141285
0.3299204484
0.3299272716
0.3299315363
)
;
    }
    bottom
    {
        type            calculated;
        value           nonuniform List<scalar> 
134
(
0.329957953
0.3299570664
0.3299557369
0.3299547413
0.3299557369
0.3299570664
0.329957953
0.3299583495
0.3299578384
0.3299570947
0.329955454
0.3299530536
0.329951343
0.3299530537
0.329955454
0.3299570947
0.3299578384
0.329957045
0.3299558257
0.3299532154
0.3299495816
0.3299471953
0.3299495816
0.3299532155
0.3299558257
0.3299570451
0.3299559266
0.3299541386
0.3299504505
0.3299456029
0.3299426787
0.3299456029
0.3299504506
0.3299541386
0.3299559267
0.3299544701
0.3299520737
0.3299473167
0.3299414099
0.3299381125
0.32994141
0.3299473168
0.3299520738
0.3299544702
0.3299526919
0.3299497032
0.3299439831
0.329937245
0.3299337261
0.3299372451
0.3299439833
0.3299497033
0.3299526921
0.3299506324
0.3299471139
0.3299406011
0.3299332814
0.3299296652
0.3299332815
0.3299406013
0.3299471141
0.3299506325
0.329948347
0.3299443937
0.3299372898
0.3299296263
0.3299260082
0.3299296265
0.32993729
0.3299443939
0.3299483471
0.3299458985
0.3299416219
0.3299341335
0.3299263343
0.3299227843
0.3299263344
0.3299341337
0.3299416221
0.3299458988
0.3299433505
0.3299388654
0.3299311853
0.3299234215
0.3299199894
0.3299234217
0.3299311856
0.3299388656
0.3299433507
0.3299407623
0.3299361771
0.3299284738
0.3299208791
0.3299175988
0.3299208793
0.329928474
0.3299361773
0.3299407625
0.3299381885
0.3299335985
0.3299260103
0.3299186838
0.3299155772
0.329918684
0.3299260106
0.3299335988
0.3299381888
0.3299356873
0.3299311698
0.3299238018
0.3299168098
0.329913888
0.32991681
0.3299238021
0.3299311701
0.3299356877
0.3299333608
0.3299289679
0.3299218825
0.3299152527
0.3299125137
0.3299152529
0.3299218828
0.3299289683
0.3299333612
0.3299315355
0.3299272708
0.3299204476
0.3299141277
0.3299115377
0.3299141279
0.3299204479
0.3299272712
0.3299315359
)
;
    }
    side-walls
    {
        type            calculated;
        value           nonuniform List<scalar> 
261
(
0.3299578384
0.3299570947
0.3299554539
0.3299530536
0.3299513429
0.3299530536
0.329955454
0.3299570947
0.3299578384
0.329957045
0.3299558257
0.3299532154
0.3299495815
0.3299471952
0.3299495815
0.3299532154
0.3299558257
0.3299570451
0.3299559266
0.3299541385
0.3299504505
0.3299456027
0.3299426786
0.3299456028
0.3299504505
0.3299541386
0.3299559266
0.3299544701
0.3299520736
0.3299473166
0.3299414097
0.3299381124
0.3299414099
0.3299473167
0.3299520737
0.3299544701
0.3299526919
0.3299497031
0.329943983
0.3299372449
0.329933726
0.329937245
0.3299439832
0.3299497032
0.329952692
0.3299506324
0.3299471139
0.329940601
0.3299332812
0.3299296651
0.3299332813
0.3299406012
0.329947114
0.3299506325
0.329948347
0.3299443936
0.3299372897
0.3299296262
0.3299260081
0.3299296263
0.3299372899
0.3299443938
0.3299483471
0.3299458985
0.3299416219
0.3299341334
0.3299263341
0.3299227841
0.3299263343
0.3299341336
0.329941622
0.3299458987
0.3299433505
0.3299388654
0.3299311852
0.3299234214
0.3299199892
0.3299234215
0.3299311854
0.3299388656
0.3299433506
0.3299407623
0.329936177
0.3299284737
0.3299208789
0.3299175987
0.3299208791
0.3299284739
0.3299361772
0.3299407624
0.3299381885
0.3299335985
0.3299260102
0.3299186837
0.329915577
0.3299186839
0.3299260105
0.3299335987
0.3299381887
0.3299356873
0.3299311697
0.3299238017
0.3299168097
0.3299138878
0.3299168098
0.3299238019
0.32993117
0.3299356875
0.3299333608
0.3299289679
0.3299218824
0.3299152526
0.3299125135
0.3299152527
0.3299218827
0.3299289682
0.3299333611
0.3299315355
0.3299272708
0.3299204475
0.3299141276
0.3299115375
0.3299141278
0.3299204478
0.3299272711
0.3299315358
0.3299583495
0.329957953
0.3299570664
0.3299557369
0.3299547414
0.3299557369
0.3299570664
0.329957953
0.3299583495
0.3299578384
0.3299570947
0.329955454
0.3299530537
0.3299513431
0.3299530537
0.329955454
0.3299570948
0.3299578384
0.3299570451
0.3299558257
0.3299532155
0.3299495817
0.3299471954
0.3299495817
0.3299532155
0.3299558257
0.3299570451
0.3299559267
0.3299541386
0.3299504506
0.329945603
0.329942679
0.3299456031
0.3299504507
0.3299541387
0.3299559267
0.3299544702
0.3299520738
0.3299473168
0.3299414101
0.3299381128
0.3299414102
0.3299473169
0.3299520738
0.3299544702
0.3299526921
0.3299497033
0.3299439833
0.3299372453
0.3299337265
0.3299372454
0.3299439834
0.3299497034
0.3299526921
0.3299506325
0.3299471141
0.3299406014
0.3299332817
0.3299296657
0.3299332818
0.3299406015
0.3299471142
0.3299506326
0.3299483471
0.3299443939
0.3299372901
0.3299296267
0.3299260087
0.3299296268
0.3299372903
0.329944394
0.3299483472
0.3299458988
0.3299416222
0.3299341338
0.3299263347
0.3299227848
0.3299263349
0.329934134
0.3299416224
0.3299458989
0.3299433507
0.3299388657
0.3299311857
0.329923422
0.32991999
0.3299234222
0.3299311859
0.3299388659
0.3299433509
0.3299407625
0.3299361774
0.3299284742
0.3299208796
0.3299175994
0.3299208798
0.3299284744
0.3299361777
0.3299407628
0.3299381888
0.3299335989
0.3299260108
0.3299186844
0.3299155778
0.3299186846
0.3299260111
0.3299335992
0.3299381891
0.3299356877
0.3299311702
0.3299238023
0.3299168104
0.3299138886
0.3299168106
0.3299238025
0.3299311705
0.329935688
0.3299333612
0.3299289684
0.329921883
0.3299152533
0.3299125144
0.3299152535
0.3299218833
0.3299289687
0.3299333616
0.3299315359
0.3299272713
0.3299204482
0.3299141284
0.3299115384
0.3299141286
0.3299204485
0.3299272716
0.3299315363
)
;
    }
    inlet
    {
        type            calculated;
        value           nonuniform 0();
    }
    outlet
    {
        type            calculated;
        value           nonuniform List<scalar> 
81
(
0.3299315355
0.3299272708
0.3299204475
0.3299141276
0.3299115375
0.3299141278
0.3299204478
0.3299272711
0.3299315358
0.3299272708
0.3299219125
0.3299132762
0.3299052021
0.3299018683
0.3299052023
0.3299132765
0.3299219129
0.3299272712
0.3299204476
0.3299132763
0.3299016157
0.3298905913
0.3298859972
0.3298905915
0.329901616
0.3299132767
0.3299204481
0.3299141277
0.3299052022
0.3298905913
0.3298766569
0.3298708051
0.3298766572
0.3298905918
0.3299052028
0.3299141283
0.3299115377
0.3299018685
0.3298859973
0.3298708052
0.329864391
0.3298708055
0.3298859978
0.3299018691
0.3299115383
0.3299141279
0.3299052025
0.3298905917
0.3298766572
0.3298708056
0.3298766576
0.3298905922
0.329905203
0.3299141285
0.3299204479
0.3299132767
0.3299016162
0.329890592
0.3298859979
0.3298905922
0.3299016166
0.3299132772
0.3299204484
0.3299272712
0.329921913
0.3299132768
0.3299052029
0.3299018692
0.3299052031
0.3299132772
0.3299219134
0.3299272716
0.3299315359
0.3299272713
0.3299204482
0.3299141284
0.3299115384
0.3299141286
0.3299204485
0.3299272716
0.3299315363
)
;
    }
    procBoundary1to0
    {
        type            processor;
        value           nonuniform List<scalar> 
97
(
0.3299583495
0.3299583495
0.329957953
0.3299570664
0.3299557369
0.3299547414
0.3299557369
0.3299570664
0.329957953
0.3299583495
0.3299584613
0.3299570437
0.3299570437
0.3299570437
0.3299547026
0.3299503478
0.3299458124
0.3299503478
0.3299547027
0.3299570438
0.329957953
0.329958059
0.3299570201
0.3299474794
0.3299474794
0.3299474794
0.3299299728
0.3299022991
0.3299299733
0.3299474798
0.3299547027
0.3299570664
0.3299574706
0.3299551912
0.3299472317
0.3298601835
0.3298601835
0.3298601835
0.3296649286
0.3298601863
0.3299299732
0.3299503479
0.3299557369
0.3299570511
0.3299534689
0.3299384092
0.3298789023
0.3280629632
0.3280629632
0.3280629632
0.329664928
0.329664928
0.3299022991
0.3299458124
0.3299547414
0.3299574706
0.3299551912
0.3299472317
0.3299241341
0.3298789024
0.3299241343
0.3299299724
0.3299299724
0.3299299724
0.3299503477
0.3299557369
0.329958059
0.3299570201
0.3299539804
0.3299472317
0.3299384094
0.3299472318
0.3299539805
0.3299547026
0.3299547026
0.3299547026
0.3299570664
0.3299584613
0.329958051
0.3299570201
0.3299551912
0.329953469
0.3299551913
0.3299570202
0.329958051
0.329957953
0.329957953
0.329957953
0.3299586436
0.3299584613
0.329958059
0.3299574705
0.3299570511
0.3299574706
0.329958059
0.3299584613
0.3299586436
)
;
    }
}


// ************************************************************************* //
