/*--------------------------------*- C++ -*----------------------------------*\
| =========                 |                                                 |
| \\      /  F ield         | OpenFOAM: The Open Source CFD Toolbox           |
|  \\    /   O peration     | Version:  4.x                                   |
|   \\  /    A nd           | Web:      www.OpenFOAM.org                      |
|    \\/     M anipulation  |                                                 |
\*---------------------------------------------------------------------------*/
FoamFile
{
    version     2.0;
    format      ascii;
    class       volScalarField;
    location    "5000";
    object      CO;
}
// * * * * * * * * * * * * * * * * * * * * * * * * * * * * * * * * * * * * * //

dimensions      [0 0 0 0 0 0 0];

internalField   nonuniform List<scalar> 
1174
(
0.3315797878
0.3315776027
0.3315745219
0.331570509
0.3315656091
0.3315599323
0.3315536313
0.3315468791
0.3315398498
0.3315327074
0.3315256025
0.3315186952
0.3315122683
0.3315072244
0.3315777408
0.3315742462
0.3315695995
0.3315639111
0.3315573792
0.3315502425
0.3315427424
0.3315350976
0.3315274921
0.3315200718
0.3315129514
0.3315062418
0.3315001565
0.3314954644
0.3315732253
0.3315670618
0.3315594476
0.3315508151
0.3315416296
0.3315323074
0.3315231763
0.3315144689
0.3315063318
0.3314988437
0.331492037
0.3314859306
0.331480621
0.3314766493
0.3315666201
0.3315570613
0.3315461051
0.3315345551
0.3315230782
0.3315121511
0.3315020697
0.3314929846
0.3314849411
0.3314779152
0.3314718438
0.3314666561
0.3314623415
0.3314592219
0.331561913
0.3315504947
0.3315380576
0.3315254788
0.3315133903
0.3315021936
0.331492105
0.3314832055
0.3314754848
0.3314688757
0.3314632811
0.3314586013
0.3314547894
0.3314520795
0.3315666202
0.3315570615
0.3315461054
0.3315345554
0.3315230786
0.3315121514
0.3315020701
0.331492985
0.3314849415
0.3314779156
0.3314718442
0.3314666565
0.3314623419
0.3314592223
0.3315732254
0.3315670619
0.3315594478
0.3315508153
0.3315416299
0.3315323076
0.3315231766
0.3315144693
0.3315063322
0.3314988442
0.3314920375
0.3314859311
0.3314806215
0.3314766499
0.3315777409
0.3315742463
0.3315695996
0.3315639112
0.3315573794
0.3315502428
0.3315427427
0.331535098
0.3315274925
0.3315200722
0.3315129519
0.3315062423
0.331500157
0.331495465
0.3315797878
0.3315776028
0.331574522
0.3315705091
0.3315656092
0.3315599324
0.3315536315
0.3315468793
0.3315398502
0.3315327078
0.3315256029
0.3315186957
0.3315122688
0.331507225
0.331580104
0.3315777409
0.3315742463
0.3315695996
0.3315639111
0.3315573792
0.3315502426
0.3315427425
0.3315350977
0.3315274922
0.3315200718
0.3315129515
0.3315062419
0.3315001565
0.3314954645
0.3315731353
0.3315670148
0.3315595631
0.3315512306
0.3315424671
0.3315336502
0.3315250595
0.3315168809
0.3315092232
0.3315021394
0.3314956478
0.3314897646
0.3314845928
0.3314806891
0.3315615654
0.3315497038
0.3315368337
0.3315240448
0.3315120792
0.3315013381
0.3314919637
0.3314839319
0.3314771279
0.331471399
0.3314665883
0.3314625607
0.3314592524
0.3314568744
0.3315410416
0.3315213608
0.3315026831
0.3314863987
0.331472984
0.3314623642
0.3314541991
0.331448063
0.3314435404
0.3314402674
0.3314379441
0.3314363327
0.3314352533
0.3314346089
0.331521718
0.3314980715
0.331478076
0.3314622429
0.3314502445
0.3314414583
0.331435226
0.3314309594
0.3314281711
0.3314264741
0.3314255683
0.3314252204
0.3314252379
0.3314254147
0.3315410418
0.3315213611
0.3315026835
0.331486399
0.3314729844
0.3314623646
0.3314541995
0.3314480635
0.3314435409
0.3314402678
0.3314379445
0.3314363331
0.3314352537
0.3314346094
0.3315615657
0.3315497041
0.331536834
0.3315240451
0.3315120795
0.3315013385
0.3314919642
0.3314839324
0.3314771284
0.3314713996
0.3314665889
0.3314625613
0.331459253
0.331456875
0.3315731355
0.331567015
0.3315595633
0.3315512308
0.3315424674
0.3315336505
0.3315250599
0.3315168813
0.3315092237
0.3315021399
0.3314956484
0.3314897652
0.3314845935
0.3314806899
0.3315777409
0.3315742463
0.3315695996
0.3315639113
0.3315573794
0.3315502428
0.3315427427
0.331535098
0.3315274926
0.3315200723
0.331512952
0.3315062425
0.3315001572
0.3314954652
0.3315776641
0.3315732253
0.3315670619
0.3315594478
0.3315508153
0.3315416298
0.3315323076
0.3315231765
0.3315144691
0.3315063321
0.331498844
0.3314920372
0.3314859308
0.3314806212
0.3314766495
0.3315711606
0.3315615655
0.331549704
0.3315368339
0.331524045
0.3315120794
0.3315013383
0.3314919639
0.3314839321
0.3314771281
0.3314713992
0.3314665885
0.3314625608
0.3314592525
0.3314568745
0.3315274543
0.3315025048
0.3314799642
0.3314615255
0.3314475226
0.3314375335
0.3314308317
0.3314266502
0.3314243084
0.3314232542
0.3314230643
0.3314234209
0.3314240699
0.3314247187
0.331451734
0.3314097216
0.3313808423
0.331363873
0.3313559736
0.3313542982
0.3313565589
0.3313611028
0.3313668118
0.3313729653
0.3313791145
0.3313849724
0.3313902656
0.3313943143
0.3313527685
0.3313111062
0.3312933524
0.3312903754
0.3312956721
0.3313051574
0.3313164158
0.3313280766
0.3313393945
0.3313499902
0.3313596892
0.3313684063
0.3313759817
0.331381641
0.3314517351
0.3314097226
0.3313808432
0.3313638739
0.3313559744
0.331354299
0.3313565597
0.3313611035
0.3313668125
0.3313729659
0.3313791151
0.331384973
0.3313902662
0.3313943149
0.3315274552
0.3315025055
0.3314799649
0.3314615263
0.3314475234
0.3314375343
0.3314308325
0.3314266511
0.3314243093
0.3314232551
0.3314230652
0.3314234218
0.3314240708
0.3314247196
0.3315615657
0.3315497042
0.3315368341
0.3315240453
0.3315120798
0.3315013388
0.3314919645
0.3314839327
0.3314771288
0.3314713999
0.3314665893
0.3314625617
0.3314592534
0.3314568755
0.3315732254
0.331567062
0.3315594479
0.3315508154
0.3315416301
0.3315323079
0.3315231769
0.3315144696
0.3315063327
0.3314988446
0.331492038
0.3314859317
0.3314806221
0.3314766505
0.3315740058
0.3315666203
0.3315570616
0.3315461054
0.3315345555
0.3315230786
0.3315121515
0.3315020702
0.3314929851
0.3314849415
0.3314779156
0.3314718442
0.3314666565
0.3314623419
0.3314592223
0.3315591801
0.3315410418
0.3315213611
0.3315026835
0.331486399
0.3314729844
0.3314623646
0.3314541994
0.3314480634
0.3314435408
0.3314402677
0.3314379444
0.3314363329
0.3314352536
0.3314346092
0.3315031397
0.3314517343
0.3314097219
0.3313808426
0.3313638733
0.3313559738
0.3313542984
0.3313565591
0.331361103
0.331366812
0.3313729654
0.3313791146
0.3313849726
0.3313902657
0.3313943144
0.3311926124
0.3311400334
0.3311316276
0.3311470771
0.3311731203
0.3312022937
0.3312308264
0.3312570456
0.3312803825
0.3313008067
0.3313185169
0.331333751
0.3313465416
0.3313558762
0.3306852077
0.330752127
0.3308543642
0.3309522216
0.3310352897
0.3311030055
0.3311575982
0.3312016759
0.3312375069
0.331266886
0.3312911751
0.3313113482
0.3313278627
0.3313397228
0.3311926164
0.3311400361
0.3311316298
0.331147079
0.331173122
0.3312022952
0.3312308277
0.3312570468
0.3312803836
0.3313008077
0.3313185177
0.3313337518
0.3313465424
0.3313558769
0.3314517351
0.3314097229
0.3313808438
0.3313638746
0.3313559752
0.3313542998
0.3313565605
0.3313611043
0.3313668133
0.3313729667
0.3313791159
0.3313849738
0.3313902669
0.3313943156
0.3315410418
0.3315213612
0.3315026838
0.3314863995
0.331472985
0.3314623653
0.3314542003
0.3314480643
0.3314435418
0.3314402688
0.3314379455
0.3314363341
0.3314352547
0.3314346104
0.3315666202
0.3315570616
0.3315461055
0.3315345557
0.3315230789
0.3315121519
0.3315020707
0.3314929858
0.3314849423
0.3314779165
0.3314718452
0.3314666575
0.331462343
0.3314592235
0.3315712664
0.3315619132
0.331550495
0.331538058
0.3315254792
0.3315133908
0.3315021941
0.3314921055
0.331483206
0.3314754853
0.3314688762
0.3314632816
0.3314586017
0.3314547898
0.3314520799
0.3315467009
0.3315217184
0.331498072
0.3314780765
0.3314622435
0.331450245
0.3314414588
0.3314352265
0.3314309599
0.3314281715
0.3314264746
0.3314255687
0.3314252208
0.3314252383
0.3314254151
0.3314270169
0.3313527687
0.3313111071
0.3312933532
0.3312903762
0.3312956728
0.331305158
0.3313164164
0.331328077
0.3313393949
0.3313499906
0.3313596895
0.3313684066
0.3313759819
0.3313816413
0.3307746786
0.3306852097
0.3307521287
0.3308543656
0.3309522227
0.3310352906
0.3311030063
0.3311575988
0.3312016764
0.3312375074
0.3312668863
0.3312911754
0.3313113484
0.331327863
0.331339723
0.3285034682
0.3296148121
0.3302300577
0.3305901666
0.3308131805
0.3309590538
0.3310594039
0.331131575
0.3311854746
0.3312269959
0.3312597765
0.3312860886
0.3313071051
0.3313219686
0.330685207
0.3307521311
0.3308543685
0.3309522252
0.3310352928
0.3311030081
0.3311576004
0.3312016779
0.3312375086
0.3312668875
0.3312911764
0.3313113494
0.3313278638
0.3313397238
0.3313527684
0.3313111077
0.3312933543
0.3312903776
0.3312956743
0.3313051596
0.3313164179
0.3313280785
0.3313393964
0.331349992
0.3313596908
0.3313684078
0.3313759832
0.3313816425
0.3315217181
0.331498072
0.3314780769
0.3314622441
0.3314502458
0.3314414597
0.3314352276
0.331430961
0.3314281727
0.3314264758
0.33142557
0.3314252221
0.3314252396
0.3314254164
0.3315619131
0.331550495
0.3315380581
0.3315254795
0.3315133912
0.3315021947
0.3314921062
0.3314832069
0.3314754863
0.3314688773
0.3314632828
0.331458603
0.3314547911
0.3314520813
0.3315740059
0.3315666204
0.3315570618
0.3315461057
0.3315345558
0.331523079
0.3315121519
0.3315020706
0.3314929855
0.331484942
0.3314779161
0.3314718447
0.3314666569
0.3314623424
0.3314592228
0.3315591803
0.3315410422
0.3315213616
0.3315026841
0.3314863996
0.331472985
0.3314623652
0.3314542
0.331448064
0.3314435414
0.3314402683
0.331437945
0.3314363335
0.3314352542
0.3314346098
0.3315031412
0.3314517358
0.3314097236
0.3313808442
0.3313638748
0.3313559752
0.3313542997
0.3313565603
0.3313611041
0.3313668131
0.3313729664
0.3313791156
0.3313849735
0.3313902666
0.3313943152
0.3313112733
0.3311926185
0.3311400383
0.3311316316
0.3311470805
0.3311731232
0.3312022961
0.3312308285
0.3312570475
0.3312803842
0.3313008082
0.3313185182
0.3313337523
0.3313465428
0.3313558773
0.3307746796
0.3306852113
0.3307521339
0.3308543702
0.3309522263
0.3310352935
0.3311030086
0.3311576007
0.3312016781
0.3312375088
0.3312668876
0.3312911766
0.3313113495
0.331327864
0.331339724
0.3313112725
0.3311926192
0.3311400395
0.331131633
0.3311470819
0.3311731245
0.3312022974
0.3312308297
0.3312570486
0.3312803851
0.3313008091
0.331318519
0.331333753
0.3313465435
0.331355878
0.3314517338
0.3314097229
0.3313808444
0.3313638755
0.3313559762
0.3313543009
0.3313565616
0.3313611054
0.3313668143
0.3313729677
0.3313791168
0.3313849746
0.3313902677
0.3313943164
0.3315410415
0.3315213612
0.331502684
0.3314863998
0.3314729855
0.3314623659
0.3314542009
0.331448065
0.3314435424
0.3314402695
0.3314379462
0.3314363347
0.3314352554
0.331434611
0.3315666201
0.3315570615
0.3315461056
0.3315345558
0.3315230791
0.3315121522
0.3315020711
0.3314929862
0.3314849428
0.331477917
0.3314718457
0.3314666581
0.3314623436
0.331459224
0.3315776642
0.3315732255
0.3315670621
0.331559448
0.3315508156
0.3315416302
0.331532308
0.331523177
0.3315144697
0.3315063326
0.3314988446
0.3314920379
0.3314859316
0.331480622
0.3314766503
0.3315711609
0.3315615659
0.3315497044
0.3315368344
0.3315240455
0.33151208
0.331501339
0.3314919647
0.3314839329
0.3314771289
0.3314714
0.3314665894
0.3314625617
0.3314592535
0.3314568755
0.3315512913
0.3315274556
0.3315025061
0.3314799655
0.3314615269
0.331447524
0.3314375349
0.3314308331
0.3314266516
0.3314243098
0.3314232556
0.3314230656
0.3314234223
0.3314240712
0.33142472
0.3315031412
0.3314517361
0.3314097242
0.331380845
0.3313638757
0.3313559762
0.3313543007
0.3313565613
0.331361105
0.331366814
0.3313729673
0.3313791164
0.3313849742
0.3313902673
0.331394316
0.3314270177
0.3313527709
0.33131111
0.3312933562
0.3312903791
0.3312956755
0.3313051605
0.3313164187
0.3313280792
0.3313393969
0.3313499924
0.3313596912
0.3313684082
0.3313759835
0.3313816428
0.3315031414
0.3314517365
0.3314097247
0.3313808457
0.3313638764
0.3313559769
0.3313543014
0.331356562
0.3313611057
0.3313668146
0.3313729679
0.331379117
0.3313849748
0.3313902679
0.3313943165
0.3315512909
0.3315274552
0.331502506
0.3314799657
0.3314615273
0.3314475246
0.3314375356
0.3314308339
0.3314266525
0.3314243107
0.3314232565
0.3314230666
0.3314234232
0.3314240721
0.331424721
0.3315615654
0.3315497041
0.3315368343
0.3315240456
0.3315120803
0.3315013394
0.3314919652
0.3314839335
0.3314771296
0.3314714009
0.3314665903
0.3314625627
0.3314592545
0.3314568765
0.3315732252
0.3315670619
0.3315594479
0.3315508155
0.3315416303
0.3315323082
0.3315231773
0.3315144701
0.3315063332
0.3314988453
0.3314920387
0.3314859325
0.3314806229
0.3314766514
0.331580104
0.331577741
0.3315742464
0.3315695998
0.3315639114
0.3315573796
0.331550243
0.331542743
0.3315350983
0.3315274928
0.3315200726
0.3315129522
0.3315062427
0.3315001574
0.3314954654
0.331577602
0.3315731356
0.3315670152
0.3315595636
0.3315512311
0.3315424677
0.3315336509
0.3315250603
0.3315168817
0.3315092241
0.3315021403
0.3314956489
0.3314897657
0.3314845939
0.3314806903
0.3315711609
0.3315615659
0.3315497045
0.3315368345
0.3315240457
0.3315120803
0.3315013393
0.331491965
0.3314839332
0.3314771292
0.3314714004
0.3314665898
0.3314625621
0.3314592539
0.3314568759
0.3315591803
0.3315410423
0.3315213619
0.3315026845
0.3314864002
0.3314729857
0.331462366
0.3314542009
0.3314480649
0.3314435423
0.3314402693
0.331437946
0.3314363345
0.3314352552
0.3314346108
0.3315467011
0.3315217189
0.3314980729
0.3314780777
0.3314622449
0.3314502466
0.3314414604
0.3314352282
0.3314309616
0.3314281732
0.3314264763
0.3314255704
0.3314252225
0.3314252399
0.3314254167
0.3315591804
0.3315410424
0.3315213621
0.3315026847
0.3314864005
0.331472986
0.3314623663
0.3314542013
0.3314480653
0.3314435428
0.3314402698
0.3314379464
0.331436335
0.3314352556
0.3314346112
0.3315711608
0.3315615659
0.3315497045
0.3315368346
0.3315240459
0.3315120805
0.3315013396
0.3314919654
0.3314839337
0.3314771298
0.331471401
0.3314665904
0.3314625628
0.3314592545
0.3314568766
0.3315776019
0.3315731355
0.331567015
0.3315595635
0.3315512311
0.3315424678
0.331533651
0.3315250605
0.331516882
0.3315092246
0.3315021409
0.3314956495
0.3314897663
0.3314845947
0.3314806911
0.3315777408
0.3315742463
0.3315695997
0.3315639114
0.3315573796
0.3315502431
0.3315427431
0.3315350985
0.3315274932
0.331520073
0.3315129528
0.3315062433
0.3315001582
0.3314954663
0.3315811953
0.3315797879
0.3315776029
0.3315745221
0.3315705092
0.3315656094
0.3315599326
0.3315536318
0.3315468796
0.3315398505
0.3315327081
0.3315256033
0.3315186961
0.3315122692
0.3315072254
0.331580104
0.331577741
0.3315742464
0.3315695998
0.3315639115
0.3315573796
0.3315502431
0.331542743
0.3315350984
0.331527493
0.3315200727
0.3315129524
0.3315062429
0.3315001576
0.3314954657
0.3315776641
0.3315732255
0.3315670621
0.3315594481
0.3315508157
0.3315416304
0.3315323082
0.3315231773
0.33151447
0.331506333
0.331498845
0.3314920384
0.3314859321
0.3314806225
0.3314766509
0.3315740059
0.3315666204
0.3315570618
0.3315461059
0.3315345561
0.3315230794
0.3315121524
0.3315020712
0.3314929862
0.3314849428
0.331477917
0.3314718456
0.3314666579
0.3314623434
0.3314592239
0.3315712665
0.3315619133
0.3315504953
0.3315380585
0.3315254799
0.3315133916
0.3315021951
0.3314921066
0.3314832073
0.3314754867
0.3314688776
0.3314632831
0.3314586033
0.3314547914
0.3314520816
0.3315740059
0.3315666204
0.3315570619
0.3315461059
0.3315345561
0.3315230794
0.3315121525
0.3315020713
0.3314929864
0.331484943
0.3314779172
0.3314718459
0.3314666582
0.3314623437
0.3314592242
0.3315776641
0.3315732254
0.3315670621
0.3315594481
0.3315508157
0.3315416304
0.3315323083
0.3315231775
0.3315144703
0.3315063334
0.3314988454
0.3314920388
0.3314859326
0.331480623
0.3314766514
0.331580104
0.3315777409
0.3315742464
0.3315695998
0.3315639115
0.3315573797
0.3315502432
0.3315427432
0.3315350986
0.3315274933
0.3315200731
0.3315129529
0.3315062435
0.3315001583
0.3314954663
0.3315811953
0.3315797878
0.3315776028
0.331574522
0.3315705092
0.3315656094
0.3315599327
0.3315536319
0.3315468798
0.3315398507
0.3315327085
0.3315256038
0.3315186966
0.3315122699
0.3315072261
)
;

boundaryField
{
    top
    {
        type            zeroGradient;
    }
    bottom
    {
        type            zeroGradient;
    }
    side-walls
    {
        type            zeroGradient;
    }
    inlet
    {
        type            zeroGradient;
    }
    outlet
    {
        type            zeroGradient;
    }
    procBoundary1to0
    {
        type            processor;
        value           nonuniform List<scalar> 
97
(
0.3315811953
0.3315811953
0.331580104
0.3315776642
0.3315740059
0.3315712666
0.331574006
0.3315776642
0.3315801041
0.3315811953
0.3315815034
0.3315776019
0.3315776019
0.3315776019
0.3315711608
0.3315591805
0.3315467014
0.3315591806
0.331571161
0.3315776021
0.3315801041
0.3315803965
0.3315775388
0.3315512908
0.3315512908
0.3315512908
0.3315031414
0.3314270194
0.3315031425
0.3315512919
0.331571161
0.3315776642
0.3315787776
0.3315725087
0.3315506234
0.3313112696
0.3313112696
0.3313112696
0.3307746909
0.3313112767
0.3315031424
0.3315591806
0.331574006
0.3315776239
0.3315677728
0.3315263751
0.3313628995
0.3263824802
0.3263824802
0.3263824802
0.3307746883
0.3307746883
0.3314270189
0.3315467014
0.3315712666
0.3315787776
0.3315725087
0.3315506234
0.3314871414
0.3313628992
0.3314871417
0.3315031401
0.3315031401
0.3315031401
0.3315591803
0.3315740059
0.3315803966
0.3315775388
0.3315691789
0.3315506234
0.3315263753
0.3315506235
0.3315691789
0.3315711606
0.3315711606
0.3315711606
0.3315776641
0.3315815034
0.3315803745
0.3315775388
0.3315725087
0.3315677728
0.3315725087
0.3315775388
0.3315803745
0.331580104
0.331580104
0.331580104
0.3315820051
0.3315815034
0.3315803965
0.3315787776
0.3315776238
0.3315787776
0.3315803965
0.3315815034
0.3315820051
)
;
    }
}


// ************************************************************************* //
