/*--------------------------------*- C++ -*----------------------------------*\
| =========                 |                                                 |
| \\      /  F ield         | OpenFOAM: The Open Source CFD Toolbox           |
|  \\    /   O peration     | Version:  4.x                                   |
|   \\  /    A nd           | Web:      www.OpenFOAM.org                      |
|    \\/     M anipulation  |                                                 |
\*---------------------------------------------------------------------------*/
FoamFile
{
    version     2.0;
    format      ascii;
    class       volScalarField;
    location    "5000";
    object      Cpv;
}
// * * * * * * * * * * * * * * * * * * * * * * * * * * * * * * * * * * * * * //

dimensions      [0 2 -2 -1 0 0 0];

internalField   nonuniform List<scalar> 
1174
(
1245.090802
1245.090792
1245.090778
1245.09078
1245.090746
1245.090724
1245.090688
1245.090661
1245.090659
1245.090642
1245.090628
1245.090583
1245.090566
1245.090535
1245.090926
1245.09091
1245.090911
1245.09089
1245.090874
1245.090857
1245.090823
1245.090782
1245.090742
1245.090701
1245.090681
1245.090659
1245.090628
1245.090637
1245.090185
1245.09014
1245.090106
1245.090069
1245.090019
1245.089978
1245.089951
1245.089916
1245.089898
1245.089883
1245.089848
1245.089806
1245.089784
1245.089744
1245.091683
1245.091642
1245.091601
1245.091537
1245.091466
1245.091431
1245.091378
1245.091324
1245.091291
1245.091256
1245.091235
1245.091225
1245.091234
1245.091225
1245.091438
1245.091382
1245.091354
1245.09134
1245.091278
1245.091225
1245.091184
1245.091162
1245.091124
1245.091106
1245.091084
1245.091085
1245.091069
1245.091049
1245.089737
1245.089679
1245.089632
1245.089591
1245.089555
1245.089513
1245.089465
1245.089451
1245.08943
1245.089394
1245.08937
1245.089351
1245.089338
1245.089311
1245.090591
1245.090559
1245.0905
1245.090473
1245.090428
1245.090385
1245.090334
1245.090287
1245.090257
1245.090221
1245.090181
1245.09019
1245.09016
1245.090164
1245.091065
1245.091048
1245.091048
1245.091021
1245.090976
1245.090932
1245.090886
1245.090854
1245.090804
1245.090769
1245.090709
1245.090704
1245.090676
1245.090683
1245.090758
1245.090746
1245.090718
1245.09069
1245.090665
1245.090629
1245.090588
1245.090546
1245.090525
1245.090514
1245.090486
1245.090478
1245.090458
1245.090448
1245.091024
1245.091015
1245.090992
1245.090934
1245.090936
1245.090895
1245.090848
1245.090805
1245.090759
1245.090717
1245.090689
1245.090655
1245.090632
1245.090602
1245.090577
1245.091032
1245.090989
1245.090951
1245.090924
1245.090867
1245.090812
1245.090782
1245.090723
1245.090696
1245.090678
1245.090646
1245.090657
1245.090625
1245.09062
1245.091142
1245.091081
1245.091009
1245.090951
1245.09092
1245.090868
1245.09084
1245.090807
1245.090792
1245.090772
1245.090745
1245.090719
1245.090719
1245.090715
1245.09083
1245.090741
1245.090664
1245.090607
1245.090538
1245.090492
1245.090426
1245.090412
1245.090376
1245.090365
1245.090334
1245.09033
1245.090339
1245.090317
1245.090682
1245.090567
1245.090485
1245.090419
1245.09038
1245.090366
1245.090348
1245.090323
1245.090343
1245.090322
1245.090308
1245.090281
1245.090276
1245.090253
1245.090965
1245.090868
1245.090775
1245.0907
1245.090606
1245.090548
1245.0905
1245.090464
1245.090441
1245.090409
1245.090414
1245.090416
1245.090412
1245.090416
1245.09169
1245.091654
1245.091571
1245.091552
1245.091507
1245.091486
1245.091453
1245.091403
1245.091369
1245.091332
1245.091308
1245.091279
1245.091264
1245.091264
1245.090404
1245.090398
1245.09039
1245.090367
1245.090321
1245.090291
1245.090218
1245.09021
1245.090179
1245.090165
1245.090141
1245.090114
1245.090101
1245.090075
1245.091329
1245.091323
1245.091309
1245.091306
1245.091284
1245.091233
1245.091198
1245.091203
1245.091176
1245.091145
1245.091138
1245.091085
1245.091058
1245.091049
1245.090715
1245.090732
1245.090687
1245.090669
1245.090625
1245.090608
1245.09057
1245.090518
1245.090497
1245.090461
1245.090435
1245.090402
1245.090367
1245.090357
1245.090337
1245.090218
1245.090186
1245.090116
1245.09005
1245.090011
1245.08998
1245.089921
1245.089896
1245.089873
1245.089863
1245.089832
1245.089824
1245.089793
1245.089778
1245.089778
1245.090435
1245.090307
1245.090235
1245.090159
1245.090103
1245.090069
1245.090048
1245.090071
1245.090065
1245.09008
1245.090084
1245.090073
1245.090082
1245.090076
1245.090014
1245.089838
1245.089718
1245.089675
1245.08963
1245.089664
1245.089664
1245.089658
1245.089706
1245.089746
1245.089776
1245.089787
1245.089823
1245.089841
1245.090655
1245.090476
1245.090382
1245.090331
1245.090347
1245.0904
1245.09043
1245.090496
1245.090548
1245.090618
1245.090682
1245.090702
1245.090723
1245.090729
1245.089682
1245.089553
1245.089415
1245.089333
1245.089302
1245.089308
1245.089337
1245.089387
1245.089426
1245.089466
1245.089487
1245.0895
1245.089532
1245.089572
1245.090788
1245.090692
1245.090599
1245.090546
1245.090481
1245.090436
1245.090434
1245.090394
1245.090408
1245.090414
1245.090402
1245.090407
1245.090425
1245.090403
1245.090712
1245.090684
1245.09063
1245.090578
1245.090514
1245.090484
1245.090461
1245.090428
1245.09041
1245.090398
1245.090385
1245.090365
1245.090319
1245.090329
1245.090468
1245.09042
1245.090413
1245.090392
1245.090352
1245.090326
1245.090264
1245.090219
1245.090168
1245.090128
1245.090082
1245.090045
1245.090026
1245.090022
1245.090511
1245.090481
1245.090458
1245.090417
1245.090375
1245.090313
1245.090263
1245.090221
1245.090175
1245.090161
1245.090121
1245.090092
1245.090102
1245.090063
1245.090043
1245.09063
1245.090553
1245.090462
1245.090359
1245.090303
1245.090252
1245.090234
1245.0902
1245.090172
1245.090141
1245.090137
1245.090094
1245.090086
1245.090097
1245.09013
1245.090017
1245.089784
1245.089624
1245.089519
1245.089436
1245.089404
1245.089385
1245.089389
1245.089409
1245.089445
1245.089482
1245.089515
1245.089549
1245.089576
1245.089584
1245.088737
1245.088511
1245.088483
1245.088548
1245.088671
1245.088824
1245.088951
1245.089059
1245.089157
1245.089221
1245.089332
1245.08943
1245.089475
1245.089502
1245.085972
1245.086281
1245.086716
1245.087145
1245.087524
1245.087838
1245.088063
1245.08824
1245.088389
1245.088531
1245.088646
1245.088734
1245.088797
1245.088852
1245.088974
1245.088761
1245.088767
1245.088846
1245.088971
1245.089089
1245.089201
1245.089326
1245.089442
1245.089534
1245.089629
1245.089699
1245.089738
1245.089782
1245.089908
1245.089747
1245.08963
1245.08957
1245.089543
1245.089498
1245.089534
1245.089542
1245.089566
1245.089592
1245.089622
1245.08965
1245.089688
1245.089715
1245.091202
1245.091084
1245.091034
1245.090957
1245.090948
1245.090902
1245.090894
1245.090894
1245.090878
1245.090876
1245.090881
1245.090888
1245.09089
1245.090879
1245.090928
1245.090908
1245.090866
1245.090809
1245.090773
1245.090718
1245.090668
1245.090646
1245.090607
1245.090573
1245.090554
1245.090541
1245.090516
1245.090492
1245.091033
1245.091008
1245.090958
1245.090927
1245.090878
1245.090838
1245.090807
1245.090774
1245.090744
1245.090726
1245.09068
1245.090651
1245.090636
1245.090643
1245.090615
1245.090333
1245.090186
1245.090093
1245.089996
1245.089932
1245.089892
1245.089885
1245.089861
1245.089836
1245.089832
1245.089843
1245.089823
1245.089798
1245.089812
1245.089807
1245.090794
1245.09047
1245.090284
1245.090229
1245.090219
1245.090265
1245.090287
1245.090335
1245.090403
1245.090426
1245.090483
1245.090543
1245.090582
1245.090596
1245.090668
1245.086704
1245.086325
1245.086633
1245.087093
1245.087516
1245.087909
1245.088205
1245.088425
1245.088627
1245.08878
1245.088934
1245.089018
1245.089091
1245.08918
1245.089233
1244.10354
1244.108364
1244.110697
1244.111774
1244.112179
1244.112189
1244.111941
1244.111575
1244.111086
1244.110577
1244.11001
1244.109406
1244.10877
1244.108123
1245.086741
1245.087026
1245.087475
1245.08793
1245.088297
1245.088594
1245.088851
1245.089046
1245.089235
1245.089338
1245.089445
1245.089517
1245.089601
1245.089701
1245.090052
1245.089872
1245.089813
1245.089807
1245.089831
1245.08983
1245.089908
1245.089973
1245.090013
1245.090029
1245.090089
1245.090162
1245.090203
1245.090249
1245.090045
1245.089947
1245.089857
1245.089805
1245.089764
1245.089739
1245.089718
1245.089712
1245.089723
1245.089722
1245.089716
1245.089692
1245.089695
1245.089679
1245.090127
1245.090053
1245.090013
1245.089949
1245.089886
1245.089834
1245.08978
1245.08977
1245.089743
1245.089713
1245.089686
1245.089661
1245.089648
1245.089628
1245.090073
1245.09005
1245.090015
1245.089965
1245.089932
1245.089878
1245.089826
1245.089789
1245.089751
1245.089725
1245.08969
1245.089678
1245.089679
1245.08966
1245.089648
1245.090279
1245.090243
1245.090151
1245.090108
1245.090043
1245.089972
1245.089928
1245.089906
1245.089869
1245.089876
1245.089851
1245.089832
1245.089811
1245.08981
1245.089801
1245.089971
1245.089737
1245.089562
1245.089434
1245.089344
1245.089316
1245.089339
1245.089338
1245.089377
1245.089437
1245.089465
1245.089488
1245.089509
1245.089546
1245.089569
1245.089744
1245.089237
1245.089012
1245.088972
1245.089031
1245.089144
1245.089274
1245.089413
1245.089529
1245.089622
1245.089715
1245.0898
1245.089899
1245.089936
1245.089938
1245.086616
1245.086246
1245.086536
1245.086995
1245.087437
1245.087821
1245.088117
1245.088394
1245.088589
1245.088737
1245.08887
1245.088976
1245.089064
1245.089165
1245.08923
1245.089573
1245.08906
1245.088837
1245.08879
1245.08886
1245.089008
1245.089146
1245.08926
1245.089377
1245.089502
1245.089609
1245.089651
1245.0897
1245.089756
1245.089815
1245.090209
1245.090019
1245.089898
1245.089835
1245.089792
1245.089773
1245.089769
1245.089771
1245.089791
1245.089818
1245.089852
1245.08988
1245.089918
1245.08991
1245.09017
1245.090099
1245.09
1245.089939
1245.089874
1245.089845
1245.089818
1245.089816
1245.089797
1245.089784
1245.089766
1245.089754
1245.089742
1245.089754
1245.090559
1245.090522
1245.090488
1245.090439
1245.090417
1245.090361
1245.090316
1245.090274
1245.090241
1245.090208
1245.090155
1245.090123
1245.090118
1245.09009
1245.090734
1245.090718
1245.090665
1245.090639
1245.090629
1245.090583
1245.090538
1245.090504
1245.090465
1245.090449
1245.090419
1245.090373
1245.090331
1245.090328
1245.090312
1245.091101
1245.091043
1245.090962
1245.090902
1245.090837
1245.090763
1245.090728
1245.090696
1245.090686
1245.090655
1245.090637
1245.090645
1245.090643
1245.090624
1245.090626
1245.091453
1245.091343
1245.091241
1245.091157
1245.091067
1245.091009
1245.090944
1245.090914
1245.090893
1245.090882
1245.090874
1245.090901
1245.09091
1245.090928
1245.090906
1245.090794
1245.090586
1245.090379
1245.090275
1245.090208
1245.090195
1245.09019
1245.090192
1245.090234
1245.090272
1245.090284
1245.0903
1245.0903
1245.090341
1245.090349
1245.089785
1245.089443
1245.089278
1245.089194
1245.089193
1245.089216
1245.089295
1245.08937
1245.089429
1245.089473
1245.08956
1245.089591
1245.089637
1245.089644
1245.089686
1245.090225
1245.089989
1245.089816
1245.089701
1245.089637
1245.089613
1245.089635
1245.089655
1245.089692
1245.089718
1245.089769
1245.089774
1245.089771
1245.089792
1245.089788
1245.090795
1245.09067
1245.090566
1245.09048
1245.090375
1245.090339
1245.090319
1245.090298
1245.090298
1245.090312
1245.090319
1245.090342
1245.09034
1245.090326
1245.090335
1245.090987
1245.090962
1245.090902
1245.090848
1245.090771
1245.090744
1245.090694
1245.090651
1245.090643
1245.090592
1245.090586
1245.090568
1245.090583
1245.090552
1245.090799
1245.090758
1245.09073
1245.090696
1245.090644
1245.090595
1245.090571
1245.090556
1245.090527
1245.090513
1245.090492
1245.09047
1245.090455
1245.090445
1245.091004
1245.091002
1245.090978
1245.090969
1245.090931
1245.090908
1245.090899
1245.090868
1245.09082
1245.090784
1245.090755
1245.090709
1245.090687
1245.090651
1245.090616
1245.090559
1245.090531
1245.090496
1245.090462
1245.090459
1245.090431
1245.090388
1245.090334
1245.09034
1245.090338
1245.090294
1245.090296
1245.090255
1245.090219
1245.090203
1245.090377
1245.090327
1245.090261
1245.090188
1245.090116
1245.090045
1245.09
1245.089966
1245.089942
1245.089915
1245.089888
1245.08985
1245.089837
1245.089843
1245.089835
1245.090629
1245.090542
1245.090463
1245.090428
1245.090365
1245.0903
1245.090262
1245.09023
1245.090203
1245.090181
1245.090167
1245.090144
1245.090141
1245.090172
1245.090141
1245.091148
1245.091047
1245.09093
1245.090855
1245.090777
1245.090702
1245.090688
1245.090672
1245.090645
1245.09063
1245.090616
1245.090617
1245.090622
1245.090631
1245.090609
1245.09079
1245.090702
1245.090637
1245.090519
1245.090466
1245.090393
1245.090359
1245.0903
1245.090282
1245.09027
1245.090248
1245.090239
1245.090211
1245.090168
1245.090155
1245.091127
1245.091086
1245.091025
1245.090982
1245.090924
1245.090864
1245.090866
1245.090834
1245.090807
1245.090788
1245.09077
1245.090761
1245.090759
1245.090765
1245.09075
1245.091156
1245.091137
1245.091119
1245.09107
1245.091045
1245.090975
1245.090922
1245.090914
1245.09088
1245.090838
1245.090813
1245.090789
1245.090802
1245.090774
1245.090731
1245.091198
1245.09116
1245.091147
1245.091131
1245.091088
1245.091073
1245.091043
1245.091034
1245.090994
1245.090956
1245.090934
1245.090901
1245.090896
1245.090877
1245.090464
1245.090453
1245.090455
1245.09045
1245.090429
1245.090419
1245.0904
1245.090371
1245.090337
1245.090312
1245.090283
1245.090262
1245.090233
1245.090209
1245.090182
1245.090813
1245.090807
1245.090798
1245.090788
1245.090746
1245.090725
1245.09071
1245.090693
1245.090654
1245.090621
1245.090591
1245.09058
1245.090566
1245.090539
1245.090509
1245.090902
1245.090878
1245.090872
1245.090837
1245.090808
1245.09077
1245.090718
1245.090696
1245.090658
1245.090631
1245.090604
1245.090584
1245.090543
1245.09051
1245.090502
1245.090996
1245.090974
1245.090927
1245.090882
1245.090851
1245.090803
1245.090766
1245.090725
1245.090697
1245.090668
1245.090617
1245.090602
1245.090563
1245.090545
1245.090543
1245.090778
1245.090721
1245.090668
1245.090611
1245.09054
1245.090473
1245.090441
1245.090382
1245.090343
1245.090347
1245.090316
1245.09031
1245.090272
1245.090252
1245.090229
1245.09151
1245.09149
1245.091433
1245.091401
1245.091343
1245.091272
1245.091247
1245.091189
1245.091164
1245.091107
1245.09108
1245.091065
1245.091015
1245.091017
1245.091016
1245.091069
1245.091035
1245.091009
1245.090966
1245.090933
1245.090894
1245.090853
1245.090817
1245.09077
1245.090738
1245.090712
1245.090686
1245.090672
1245.090641
1245.090611
1245.090057
1245.090053
1245.090021
1245.08997
1245.089944
1245.08992
1245.089927
1245.08991
1245.089859
1245.089807
1245.089794
1245.08976
1245.089731
1245.089717
1245.089682
1245.090647
1245.090644
1245.090634
1245.090627
1245.090589
1245.090564
1245.090551
1245.090516
1245.090484
1245.090453
1245.090418
1245.090402
1245.090371
1245.090366
1245.090345
)
;

boundaryField
{
    top
    {
        type            calculated;
        value           nonuniform List<scalar> 
127
(
1245.090647
1245.090758
1245.091329
1245.090468
1245.090928
1245.090127
1245.090559
1245.090799
1245.091198
1245.090644
1245.090746
1245.091323
1245.09042
1245.090908
1245.090053
1245.090522
1245.090758
1245.09116
1245.090634
1245.090718
1245.091309
1245.090413
1245.090866
1245.090013
1245.090488
1245.09073
1245.091147
1245.090627
1245.09069
1245.091306
1245.090392
1245.090809
1245.089949
1245.090439
1245.090696
1245.091131
1245.090589
1245.090665
1245.091284
1245.090352
1245.090773
1245.089886
1245.090417
1245.090644
1245.091088
1245.090564
1245.090629
1245.091233
1245.090326
1245.090718
1245.089834
1245.090361
1245.090595
1245.091073
1245.090551
1245.090588
1245.091198
1245.090264
1245.090668
1245.08978
1245.090316
1245.090571
1245.091043
1245.090516
1245.090546
1245.091203
1245.090219
1245.090646
1245.08977
1245.090274
1245.090556
1245.091034
1245.090484
1245.090525
1245.091176
1245.090168
1245.090607
1245.089743
1245.090241
1245.090527
1245.090994
1245.090453
1245.090514
1245.091145
1245.090128
1245.090573
1245.089713
1245.090208
1245.090513
1245.090956
1245.090418
1245.090486
1245.091138
1245.090082
1245.090554
1245.089686
1245.090155
1245.090492
1245.090934
1245.090402
1245.090478
1245.091085
1245.090045
1245.090541
1245.089661
1245.090123
1245.09047
1245.090901
1245.090371
1245.090458
1245.091058
1245.090026
1245.090516
1245.089648
1245.090118
1245.090455
1245.090896
1245.090366
1245.090448
1245.091049
1245.090022
1245.090492
1245.089628
1245.09009
1245.090445
1245.090877
1245.090345
)
;
    }
    bottom
    {
        type            calculated;
        value           nonuniform List<scalar> 
134
(
1245.091024
1245.090715
1245.090511
1245.091033
1245.090073
1245.090734
1245.091004
1245.090464
1245.090802
1245.091015
1245.090732
1245.090481
1245.091008
1245.09005
1245.090718
1245.091002
1245.090453
1245.090792
1245.090992
1245.090687
1245.090458
1245.090958
1245.090015
1245.090665
1245.090978
1245.090455
1245.090778
1245.090934
1245.090669
1245.090417
1245.090927
1245.089965
1245.090639
1245.090969
1245.09045
1245.09078
1245.090936
1245.090625
1245.090375
1245.090878
1245.089932
1245.090629
1245.090931
1245.090429
1245.090746
1245.090895
1245.090608
1245.090313
1245.090838
1245.089878
1245.090583
1245.090908
1245.090419
1245.090724
1245.090848
1245.09057
1245.090263
1245.090807
1245.089826
1245.090538
1245.090899
1245.0904
1245.090688
1245.090805
1245.090518
1245.090221
1245.090774
1245.089789
1245.090504
1245.090868
1245.090371
1245.090661
1245.090759
1245.090497
1245.090175
1245.090744
1245.089751
1245.090465
1245.09082
1245.090337
1245.090659
1245.090717
1245.090461
1245.090161
1245.090726
1245.089725
1245.090449
1245.090784
1245.090312
1245.090642
1245.090689
1245.090435
1245.090121
1245.09068
1245.08969
1245.090419
1245.090755
1245.090283
1245.090628
1245.090655
1245.090402
1245.090092
1245.090651
1245.089678
1245.090373
1245.090709
1245.090262
1245.090583
1245.090632
1245.090367
1245.090102
1245.090636
1245.089679
1245.090331
1245.090687
1245.090233
1245.090566
1245.090602
1245.090357
1245.090063
1245.090643
1245.08966
1245.090328
1245.090651
1245.090209
1245.090535
1245.090577
1245.090337
1245.090043
1245.090615
1245.089648
1245.090312
1245.090616
1245.090182
)
;
    }
    side-walls
    {
        type            calculated;
        value           nonuniform List<scalar> 
261
(
1245.090802
1245.090926
1245.090185
1245.091683
1245.091438
1245.089737
1245.090591
1245.091065
1245.090758
1245.090792
1245.09091
1245.09014
1245.091642
1245.091382
1245.089679
1245.090559
1245.091048
1245.090746
1245.090778
1245.090911
1245.090106
1245.091601
1245.091354
1245.089632
1245.0905
1245.091048
1245.090718
1245.09078
1245.09089
1245.090069
1245.091537
1245.09134
1245.089591
1245.090473
1245.091021
1245.09069
1245.090746
1245.090874
1245.090019
1245.091466
1245.091278
1245.089555
1245.090428
1245.090976
1245.090665
1245.090724
1245.090857
1245.089978
1245.091431
1245.091225
1245.089513
1245.090385
1245.090932
1245.090629
1245.090688
1245.090823
1245.089951
1245.091378
1245.091184
1245.089465
1245.090334
1245.090886
1245.090588
1245.090661
1245.090782
1245.089916
1245.091324
1245.091162
1245.089451
1245.090287
1245.090854
1245.090546
1245.090659
1245.090742
1245.089898
1245.091291
1245.091124
1245.08943
1245.090257
1245.090804
1245.090525
1245.090642
1245.090701
1245.089883
1245.091256
1245.091106
1245.089394
1245.090221
1245.090769
1245.090514
1245.090628
1245.090681
1245.089848
1245.091235
1245.091084
1245.08937
1245.090181
1245.090709
1245.090486
1245.090583
1245.090659
1245.089806
1245.091225
1245.091085
1245.089351
1245.09019
1245.090704
1245.090478
1245.090566
1245.090628
1245.089784
1245.091234
1245.091069
1245.089338
1245.09016
1245.090676
1245.090458
1245.090535
1245.090637
1245.089744
1245.091225
1245.091049
1245.089311
1245.090164
1245.090683
1245.090448
1245.090464
1245.090813
1245.090902
1245.090996
1245.090778
1245.09151
1245.091069
1245.090057
1245.090647
1245.090453
1245.090807
1245.090878
1245.090974
1245.090721
1245.09149
1245.091035
1245.090053
1245.090644
1245.090455
1245.090798
1245.090872
1245.090927
1245.090668
1245.091433
1245.091009
1245.090021
1245.090634
1245.09045
1245.090788
1245.090837
1245.090882
1245.090611
1245.091401
1245.090966
1245.08997
1245.090627
1245.090429
1245.090746
1245.090808
1245.090851
1245.09054
1245.091343
1245.090933
1245.089944
1245.090589
1245.090419
1245.090725
1245.09077
1245.090803
1245.090473
1245.091272
1245.090894
1245.08992
1245.090564
1245.0904
1245.09071
1245.090718
1245.090766
1245.090441
1245.091247
1245.090853
1245.089927
1245.090551
1245.090371
1245.090693
1245.090696
1245.090725
1245.090382
1245.091189
1245.090817
1245.08991
1245.090516
1245.090337
1245.090654
1245.090658
1245.090697
1245.090343
1245.091164
1245.09077
1245.089859
1245.090484
1245.090312
1245.090621
1245.090631
1245.090668
1245.090347
1245.091107
1245.090738
1245.089807
1245.090453
1245.090283
1245.090591
1245.090604
1245.090617
1245.090316
1245.09108
1245.090712
1245.089794
1245.090418
1245.090262
1245.09058
1245.090584
1245.090602
1245.09031
1245.091065
1245.090686
1245.08976
1245.090402
1245.090233
1245.090566
1245.090543
1245.090563
1245.090272
1245.091015
1245.090672
1245.089731
1245.090371
1245.090209
1245.090539
1245.09051
1245.090545
1245.090252
1245.091017
1245.090641
1245.089717
1245.090366
1245.090182
1245.090509
1245.090502
1245.090543
1245.090229
1245.091016
1245.090611
1245.089682
1245.090345
)
;
    }
    inlet
    {
        type            calculated;
        value           nonuniform 0();
    }
    outlet
    {
        type            calculated;
        value           nonuniform List<scalar> 
81
(
1245.090535
1245.090637
1245.089744
1245.091225
1245.091049
1245.089311
1245.090164
1245.090683
1245.090448
1245.090577
1245.09062
1245.090715
1245.090317
1245.090253
1245.090416
1245.091264
1245.090075
1245.091049
1245.090337
1245.089778
1245.090076
1245.089841
1245.090729
1245.089572
1245.090403
1245.090329
1245.090022
1245.090043
1245.09013
1245.089584
1245.089502
1245.088852
1245.089782
1245.089715
1245.090879
1245.090492
1245.090615
1245.089807
1245.090668
1245.089233
1244.108123
1245.089701
1245.090249
1245.089679
1245.089628
1245.089648
1245.089801
1245.089569
1245.089938
1245.08923
1245.089815
1245.08991
1245.089754
1245.09009
1245.090312
1245.090626
1245.090906
1245.090349
1245.089686
1245.089788
1245.090335
1245.090552
1245.090445
1245.090616
1245.090203
1245.089835
1245.090141
1245.090609
1245.090155
1245.09075
1245.090731
1245.090877
1245.090182
1245.090509
1245.090502
1245.090543
1245.090229
1245.091016
1245.090611
1245.089682
1245.090345
)
;
    }
    procBoundary1to0
    {
        type            processor;
        value           nonuniform List<scalar> 
97
(
1245.0908
1245.0908
1245.090937
1245.090182
1245.091722
1245.091485
1245.08977
1245.090617
1245.091062
1245.090774
1245.091016
1245.09105
1245.09105
1245.09105
1245.091176
1245.090891
1245.090776
1245.09103
1245.091722
1245.090464
1245.091324
1245.090722
1245.090231
1245.090526
1245.090526
1245.090526
1245.090247
1245.090995
1245.089907
1245.090909
1245.090769
1245.090509
1245.090522
1245.09069
1245.090241
1245.089258
1245.089258
1245.089258
1245.086345
1245.08949
1245.09013
1245.091292
1245.090936
1245.091066
1245.0904
1245.091223
1245.090053
1244.092549
1244.092549
1244.092549
1245.087086
1245.087086
1245.090356
1245.09014
1245.090168
1245.090091
1245.090361
1245.090198
1245.090524
1245.089955
1245.090318
1245.090426
1245.090426
1245.090426
1245.090263
1245.090607
1245.090744
1245.09109
1245.091521
1245.091013
1245.090249
1245.090406
1245.09091
1245.09101
1245.09101
1245.09101
1245.090787
1245.091017
1245.090574
1245.090395
1245.090715
1245.091218
1245.090852
1245.091165
1245.091159
1245.091208
1245.091208
1245.091208
1245.090465
1245.090826
1245.090933
1245.091014
1245.090805
1245.091508
1245.091079
1245.090071
1245.090643
)
;
    }
}


// ************************************************************************* //
