/*--------------------------------*- C++ -*----------------------------------*\
| =========                 |                                                 |
| \\      /  F ield         | OpenFOAM: The Open Source CFD Toolbox           |
|  \\    /   O peration     | Version:  4.x                                   |
|   \\  /    A nd           | Web:      www.OpenFOAM.org                      |
|    \\/     M anipulation  |                                                 |
\*---------------------------------------------------------------------------*/
FoamFile
{
    version     2.0;
    format      ascii;
    class       volScalarField;
    location    "5000";
    object      H2;
}
// * * * * * * * * * * * * * * * * * * * * * * * * * * * * * * * * * * * * * //

dimensions      [0 0 0 0 0 0 0];

internalField   nonuniform List<scalar> 
1174
(
0.002172439446
0.002172384479
0.002172306981
0.00217220605
0.002172082825
0.002171940083
0.002171781675
0.002171611952
0.002171435303
0.002171255849
0.002171077381
0.002170903921
0.002170742562
0.002170615952
0.002172387928
0.002172300002
0.002172183101
0.002172040013
0.002171875733
0.002171696276
0.002171507716
0.002171315564
0.002171124445
0.00217093803
0.002170759204
0.002170590746
0.002170438008
0.002170320269
0.002172274266
0.002172119168
0.00217192759
0.002171710424
0.002171479393
0.002171244971
0.002171015417
0.002170796576
0.002170592134
0.002170404067
0.002170233183
0.00217007995
0.002169946769
0.002169847184
0.002172107983
0.002171867422
0.002171591737
0.002171301167
0.002171012501
0.002170737736
0.002170484318
0.002170256028
0.002170053996
0.002169877612
0.00216972528
0.002169595204
0.002169487098
0.002169408978
0.002171989466
0.002171702098
0.002171389144
0.002171072695
0.002170768659
0.002170487135
0.002170233561
0.002170009969
0.002169816087
0.002169650213
0.0021695099
0.002169392622
0.002169297179
0.00216922938
0.002172107986
0.002171867427
0.002171591743
0.002171301174
0.002171012508
0.002170737744
0.002170484326
0.002170256036
0.002170054004
0.00216987762
0.002169725287
0.002169595211
0.002169487105
0.002169408985
0.002172274267
0.002172119171
0.002171927593
0.002171710428
0.002171479397
0.002171244976
0.002171015423
0.002170796582
0.002170592141
0.002170404075
0.002170233191
0.002170079958
0.002169946778
0.002169847193
0.00217238793
0.002172300004
0.002172183104
0.002172040016
0.002171875736
0.00217169628
0.002171507721
0.002171315569
0.002171124451
0.002170938037
0.002170759211
0.002170590754
0.002170438017
0.002170320278
0.002172439448
0.00217238448
0.002172306982
0.002172206052
0.002172082827
0.002171940086
0.002171781678
0.002171611956
0.002171435308
0.002171255855
0.002171077388
0.002170903928
0.002170742571
0.002170615961
0.002172447391
0.002172387928
0.002172300003
0.002172183102
0.002172040014
0.002171875734
0.002171696277
0.002171507718
0.002171315565
0.002171124447
0.002170938032
0.002170759205
0.002170590747
0.002170438009
0.00217032027
0.002172271996
0.002172117977
0.002171930485
0.002171720865
0.00217150045
0.00217127874
0.002171062776
0.002170857233
0.002170664846
0.002170486941
0.002170323977
0.002170176347
0.002170046625
0.002169948743
0.002171980721
0.002171682187
0.002171358328
0.002171036582
0.002170735631
0.002170465567
0.00217022996
0.002170028191
0.002169857366
0.002169713632
0.00216959303
0.002169492149
0.002169409363
0.002169349903
0.002171463952
0.002170968583
0.002170498569
0.002170088902
0.002169751565
0.00216948465
0.002169279576
0.002169125615
0.002169012291
0.002168930435
0.002168872492
0.002168832465
0.002168805809
0.002168790002
0.002170977332
0.002170382135
0.00216987899
0.002169480747
0.002169179125
0.002168958427
0.002168802062
0.0021686952
0.002168625565
0.00216858341
0.002168561166
0.002168552961
0.002168553923
0.002168558792
0.002171463957
0.002170968589
0.002170498575
0.002170088908
0.002169751572
0.002169484656
0.002169279583
0.002169125622
0.002169012298
0.002168930442
0.002168872499
0.002168832472
0.002168805816
0.002168790009
0.002171980725
0.002171682192
0.002171358333
0.002171036587
0.002170735636
0.002170465573
0.002170229967
0.002170028199
0.002169857374
0.002169713641
0.00216959304
0.002169492158
0.002169409373
0.002169349913
0.002172272
0.00217211798
0.002171930488
0.002171720869
0.002171500454
0.002171278745
0.002171062783
0.00217085724
0.002170664854
0.00217048695
0.002170323987
0.002170176358
0.002170046636
0.002169948754
0.002172387929
0.002172300004
0.002172183104
0.002172040016
0.002171875737
0.00217169628
0.002171507722
0.002171315571
0.002171124453
0.002170938039
0.002170759214
0.002170590757
0.00217043802
0.002170320282
0.002172385975
0.002172274267
0.002172119171
0.002171927593
0.002171710428
0.002171479397
0.002171244976
0.002171015421
0.00217079658
0.002170592139
0.002170404072
0.002170233188
0.002170079954
0.002169946773
0.002169847188
0.002172222242
0.002171980723
0.002171682191
0.002171358333
0.002171036586
0.002170735635
0.002170465572
0.002170229964
0.002170028196
0.00216985737
0.002169713636
0.002169593034
0.002169492152
0.002169409366
0.002169349906
0.002171121843
0.002170493835
0.002169926597
0.002169462742
0.002169110646
0.002168859661
0.002168691471
0.002168586752
0.002168528353
0.002168502373
0.002168498144
0.002168507665
0.002168524514
0.002168541257
0.002169215019
0.002168157478
0.002167430824
0.002167004183
0.002166805973
0.002166764492
0.002166822103
0.002166937175
0.002167081552
0.002167237086
0.002167392484
0.002167540519
0.002167674291
0.002167776623
0.00216672245
0.002165673917
0.002165227639
0.002165153532
0.002165287756
0.002165527407
0.002165811649
0.002166105962
0.002166391592
0.002166658989
0.002166903768
0.002167123789
0.002167315017
0.002167457895
0.002169215039
0.002168157497
0.002167430842
0.002167004199
0.002166805988
0.002166764506
0.002166822116
0.002166937187
0.002167081563
0.002167237097
0.002167392494
0.002167540529
0.0021676743
0.002167776632
0.00217112186
0.002170493849
0.00216992661
0.002169462755
0.002169110659
0.002168859675
0.002168691485
0.002168586767
0.002168528368
0.002168502388
0.002168498159
0.002168507679
0.002168524529
0.002168541271
0.002171980726
0.002171682194
0.002171358336
0.002171036591
0.002170735641
0.002170465579
0.002170229973
0.002170028205
0.002169857381
0.002169713647
0.002169593046
0.002169492165
0.00216940938
0.00216934992
0.002172274267
0.002172119171
0.002171927594
0.00217171043
0.0021714794
0.00217124498
0.002171015428
0.002170796588
0.002170592148
0.002170404083
0.0021702332
0.002170079967
0.002169946787
0.002169847203
0.002172293878
0.002172107986
0.002171867428
0.002171591744
0.002171301175
0.00217101251
0.002170737746
0.002170484328
0.002170256037
0.002170054005
0.002169877621
0.002169725288
0.002169595212
0.002169487105
0.002169408986
0.002171920577
0.002171463956
0.002170968589
0.002170498576
0.002170088909
0.002169751572
0.002169484657
0.002169279583
0.002169125622
0.002169012297
0.002168930441
0.002168872498
0.002168832471
0.002168805815
0.002168790007
0.002170509322
0.002169215023
0.002168157484
0.00216743083
0.002167004189
0.002166805978
0.002166764496
0.002166822108
0.002166937179
0.002167081555
0.002167237089
0.002167392487
0.002167540522
0.002167674293
0.002167776625
0.002162688933
0.002161365755
0.002161155224
0.002161545441
0.002162202338
0.002162937931
0.002163657266
0.002164318234
0.002164906532
0.002165421413
0.002165867899
0.002166251992
0.002166574505
0.002166809894
0.002149907965
0.002151595563
0.00215417239
0.002156638502
0.00215873179
0.00216043816
0.002161813828
0.002162924542
0.002163827466
0.002164567832
0.002165179963
0.002165688396
0.002166104655
0.002166403617
0.002162689007
0.002161365803
0.002161155262
0.002161545474
0.002162202366
0.002162937956
0.002163657288
0.002164318253
0.002164906549
0.00216542143
0.002165867914
0.002166252005
0.002166574518
0.002166809906
0.002169215039
0.002168157502
0.002167430851
0.002167004211
0.002166806001
0.00216676452
0.00216682213
0.002166937201
0.002167081577
0.00216723711
0.002167392507
0.002167540541
0.002167674312
0.002167776643
0.002171463957
0.002170968592
0.002170498581
0.002170088917
0.002169751582
0.002169484669
0.002169279597
0.002169125637
0.002169012313
0.002168930458
0.002168872515
0.002168832489
0.002168805833
0.002168790026
0.002172107985
0.002171867428
0.002171591745
0.002171301177
0.002171012514
0.002170737752
0.002170484336
0.002170256047
0.002170054017
0.002169877635
0.002169725303
0.002169595228
0.002169487123
0.002169409004
0.002172224902
0.00217198947
0.002171702104
0.002171389152
0.002171072704
0.002170768669
0.002170487145
0.002170233571
0.002170009979
0.002169816097
0.002169650223
0.00216950991
0.002169392631
0.002169297188
0.002169229389
0.002171606302
0.002170977337
0.002170382145
0.002169879001
0.002169480758
0.002169179136
0.002168958437
0.002168802072
0.002168695209
0.002168625574
0.002168583418
0.002168561174
0.002168552969
0.00216855393
0.002168558799
0.002168591972
0.002166722452
0.002165673931
0.002165227654
0.002165153546
0.002165287767
0.002165527417
0.002165811658
0.002166105971
0.0021663916
0.002166658996
0.002166903774
0.002167123794
0.002167315022
0.0021674579
0.002152159768
0.002149907998
0.002151595594
0.002154172416
0.002156638524
0.002158731807
0.002160438174
0.00216181384
0.002162924552
0.002163827475
0.002164567839
0.002165179969
0.002165688401
0.00216610466
0.002166403621
0.002094947843
0.00212294766
0.002138448043
0.002147520352
0.002153138711
0.002156813653
0.00215934175
0.002161159962
0.00216251789
0.002163563998
0.002164389925
0.002165052912
0.002165582503
0.002165957065
0.002149907947
0.00215159564
0.002154172467
0.002156638568
0.002158731844
0.002160438205
0.002161813867
0.002162924576
0.002163827496
0.002164567858
0.002165179986
0.002165688416
0.002166104674
0.002166403634
0.002166722449
0.002165673942
0.002165227673
0.00216515357
0.002165287793
0.002165527443
0.002165811683
0.002166105994
0.002166391622
0.002166659018
0.002166903795
0.002167123814
0.002167315041
0.002167457918
0.002170977334
0.002170382146
0.002169879007
0.002169480768
0.002169179149
0.002168958452
0.002168802088
0.002168695227
0.002168625593
0.002168583438
0.002168561194
0.002168552989
0.00216855395
0.002168558819
0.002171989469
0.002171702104
0.002171389154
0.002171072709
0.002170768676
0.002170487155
0.002170233583
0.002170009993
0.002169816113
0.002169650241
0.002169509928
0.002169392651
0.002169297208
0.00216922941
0.002172293879
0.002172107989
0.002171867432
0.002171591749
0.002171301181
0.002171012516
0.002170737753
0.002170484335
0.002170256045
0.002170054013
0.002169877629
0.002169725296
0.00216959522
0.002169487114
0.002169408994
0.002171920581
0.002171463964
0.002170968599
0.002170498587
0.00217008892
0.002169751583
0.002169484668
0.002169279594
0.002169125633
0.002169012308
0.002168930452
0.002168872508
0.002168832481
0.002168805825
0.002168790017
0.002170509351
0.002169215051
0.002168157516
0.00216743086
0.002167004216
0.002166806003
0.002166764519
0.002166822129
0.002166937198
0.002167081573
0.002167237106
0.002167392503
0.002167540537
0.002167674308
0.002167776639
0.002165676799
0.002162689043
0.002161365845
0.002161155297
0.002161545502
0.002162202389
0.002162937974
0.002163657303
0.002164318267
0.002164906561
0.00216542144
0.002165867923
0.002166252013
0.002166574525
0.002166809912
0.002152159789
0.002149908028
0.002151595692
0.002154172499
0.002156638587
0.002158731857
0.002160438213
0.002161813872
0.00216292458
0.002163827499
0.00216456786
0.002165179988
0.002165688419
0.002166104676
0.002166403636
0.002165676784
0.002162689056
0.002161365866
0.00216115532
0.002161545524
0.00216220241
0.002162937994
0.002163657321
0.002164318283
0.002164906576
0.002165421453
0.002165867935
0.002166252025
0.002166574536
0.002166809923
0.002169215013
0.002168157501
0.00216743086
0.002167004225
0.002166806017
0.002166764537
0.002166822147
0.002166937218
0.002167081593
0.002167237125
0.002167392522
0.002167540555
0.002167674326
0.002167776656
0.002171463952
0.002170968591
0.002170498584
0.002170088923
0.00216975159
0.002169484678
0.002169279607
0.002169125647
0.002169012324
0.002168930469
0.002168872526
0.002168832499
0.002168805844
0.002168790036
0.002172107984
0.002171867428
0.002171591746
0.00217130118
0.002171012518
0.002170737757
0.002170484343
0.002170256054
0.002170054025
0.002169877643
0.002169725312
0.002169595237
0.002169487132
0.002169409013
0.002172385976
0.002172274269
0.002172119174
0.002171927597
0.002171710433
0.002171479403
0.002171244983
0.00217101543
0.00217079659
0.002170592149
0.002170404083
0.002170233199
0.002170079966
0.002169946786
0.002169847201
0.002172222247
0.002171980729
0.002171682198
0.002171358341
0.002171036596
0.002170735646
0.002170465583
0.002170229976
0.002170028209
0.002169857384
0.00216971365
0.002169593048
0.002169492167
0.002169409382
0.002169349922
0.002171721939
0.002171121866
0.002170493858
0.00216992662
0.002169462765
0.00216911067
0.002168859685
0.002168691495
0.002168586777
0.002168528377
0.002168502396
0.002168498167
0.002168507687
0.002168524537
0.002168541279
0.00217050935
0.002169215056
0.002168157525
0.002167430873
0.002167004231
0.002166806019
0.002166764536
0.002166822145
0.002166937214
0.002167081588
0.00216723712
0.002167392516
0.00216754055
0.00216767432
0.002167776651
0.00216859199
0.002166722496
0.002165673987
0.00216522771
0.002165153599
0.002165287815
0.002165527461
0.002165811697
0.002166106006
0.002166391632
0.002166659026
0.002166903802
0.002167123821
0.002167315047
0.002167457923
0.002170509356
0.002169215065
0.002168157536
0.002167430885
0.002167004243
0.002166806031
0.002166764547
0.002166822156
0.002166937224
0.002167081598
0.00216723713
0.002167392525
0.002167540558
0.002167674328
0.002167776659
0.002171721931
0.00217112186
0.002170493856
0.002169926623
0.002169462772
0.00216911068
0.002168859697
0.002168691508
0.00216858679
0.002168528391
0.00216850241
0.002168498182
0.002168507702
0.002168524551
0.002168541293
0.00217198072
0.002171682193
0.002171358339
0.002171036596
0.002170735649
0.002170465589
0.002170229985
0.002170028219
0.002169857395
0.002169713663
0.002169593062
0.002169492182
0.002169409397
0.002169349938
0.002172274265
0.00217211917
0.002171927594
0.002171710432
0.002171479403
0.002171244985
0.002171015434
0.002170796596
0.002170592157
0.002170404093
0.002170233211
0.002170079979
0.0021699468
0.002169847217
0.002172447392
0.002172387931
0.002172300006
0.002172183106
0.002172040019
0.00217187574
0.002171696284
0.002171507726
0.002171315575
0.002171124458
0.002170938044
0.002170759219
0.002170590762
0.002170438025
0.002170320286
0.002172384408
0.002172272002
0.002172117983
0.002171930493
0.002171720874
0.00217150046
0.002171278752
0.00217106279
0.002170857247
0.002170664862
0.002170486958
0.002170323995
0.002170176366
0.002170046644
0.002169948763
0.002172222247
0.00217198073
0.0021716822
0.002171358344
0.002171036599
0.00217073565
0.002170465588
0.002170229982
0.002170028215
0.00216985739
0.002169713656
0.002169593055
0.002169492174
0.002169409388
0.002169349929
0.002171920581
0.002171463965
0.002170968603
0.002170498594
0.002170088929
0.002169751595
0.002169484681
0.002169279608
0.002169125647
0.002169012323
0.002168930467
0.002168872524
0.002168832497
0.00216880584
0.002168790033
0.002171606306
0.002170977348
0.002170382161
0.002169879022
0.002169480783
0.002169179162
0.002168958465
0.002168802099
0.002168695237
0.002168625602
0.002168583446
0.002168561201
0.002168552995
0.002168553957
0.002168558825
0.002171920582
0.002171463967
0.002170968606
0.002170498598
0.002170088934
0.0021697516
0.002169484686
0.002169279614
0.002169125654
0.002169012329
0.002168930473
0.00216887253
0.002168832503
0.002168805847
0.00216879004
0.002172222246
0.002171980728
0.002171682199
0.002171358344
0.002171036601
0.002170735653
0.002170465592
0.002170229987
0.002170028221
0.002169857397
0.002169713664
0.002169593064
0.002169492183
0.002169409398
0.002169349939
0.002172384406
0.002172271999
0.00217211798
0.00217193049
0.002171720873
0.00217150046
0.002171278753
0.002171062793
0.002170857252
0.002170664868
0.002170486965
0.002170324003
0.002170176375
0.002170046655
0.002169948774
0.002172387928
0.002172300003
0.002172183104
0.002172040017
0.002171875739
0.002171696285
0.002171507728
0.002171315578
0.002171124462
0.00217093805
0.002170759226
0.002170590771
0.002170438035
0.002170320298
0.002172474857
0.002172439448
0.002172384481
0.002172306984
0.002172206054
0.00217208283
0.00217194009
0.002171781683
0.002171611961
0.002171435314
0.002171255862
0.002171077395
0.002170903936
0.002170742579
0.00217061597
0.002172447392
0.002172387931
0.002172300006
0.002172183107
0.00217204002
0.002171875741
0.002171696286
0.002171507728
0.002171315577
0.00217112446
0.002170938046
0.002170759221
0.002170590765
0.002170438028
0.00217032029
0.002172385976
0.002172274269
0.002172119174
0.002171927598
0.002171710435
0.002171479406
0.002171244987
0.002171015434
0.002170796595
0.002170592155
0.00217040409
0.002170233207
0.002170079975
0.002169946794
0.00216984721
0.002172293878
0.002172107989
0.002171867433
0.002171591751
0.002171301185
0.002171012522
0.00217073776
0.002170484344
0.002170256055
0.002170054025
0.002169877642
0.002169725311
0.002169595235
0.00216948713
0.002169409011
0.002172224902
0.002171989473
0.002171702109
0.00217138916
0.002171072715
0.002170768683
0.002170487161
0.002170233589
0.002170009999
0.002169816118
0.002169650246
0.002169509933
0.002169392656
0.002169297213
0.002169229414
0.002172293878
0.002172107989
0.002171867433
0.002171591752
0.002171301185
0.002171012523
0.002170737761
0.002170484346
0.002170256058
0.002170054028
0.002169877645
0.002169725314
0.002169595239
0.002169487134
0.002169409015
0.002172385975
0.002172274269
0.002172119174
0.002171927598
0.002171710435
0.002171479406
0.002171244988
0.002171015436
0.002170796598
0.002170592159
0.002170404094
0.002170233212
0.002170079981
0.002169946801
0.002169847218
0.002172447391
0.00217238793
0.002172300005
0.002172183106
0.00217204002
0.002171875742
0.002171696287
0.00217150773
0.002171315581
0.002171124464
0.002170938052
0.002170759228
0.002170590773
0.002170438037
0.002170320299
0.002172474857
0.002172439447
0.00217238448
0.002172306983
0.002172206053
0.00217208283
0.00217194009
0.002171781684
0.002171611964
0.002171435318
0.002171255866
0.002171077401
0.002170903943
0.002170742588
0.002170615979
)
;

boundaryField
{
    top
    {
        type            zeroGradient;
    }
    bottom
    {
        type            zeroGradient;
    }
    side-walls
    {
        type            zeroGradient;
    }
    inlet
    {
        type            zeroGradient;
    }
    outlet
    {
        type            zeroGradient;
    }
    procBoundary1to0
    {
        type            processor;
        value           nonuniform List<scalar> 
97
(
0.002172474857
0.002172474857
0.002172447391
0.002172385976
0.002172293879
0.002172224904
0.002172293881
0.002172385977
0.002172447392
0.002172474858
0.002172482603
0.002172384406
0.002172384406
0.002172384406
0.002172222246
0.002171920583
0.002171606311
0.002171920586
0.002172222249
0.002172384409
0.002172447392
0.002172454744
0.002172382798
0.002171721929
0.002171721929
0.002171721929
0.002170509352
0.002168592011
0.002170509373
0.002171721948
0.00217222225
0.002172385977
0.002172413987
0.002172256145
0.002171705033
0.002165676725
0.002165676725
0.002165676725
0.002152159944
0.002165676853
0.002170509371
0.002171920586
0.00217229388
0.002172384938
0.002172136883
0.002171094315
0.002166976708
0.002041507683
0.002041507683
0.002041507683
0.002152159886
0.002152159886
0.002168592002
0.00217160631
0.002172224905
0.002172413988
0.002172256146
0.002171705034
0.002170106214
0.002166976707
0.002170106218
0.002170509328
0.002170509328
0.002170509328
0.00217192058
0.002172293879
0.002172454744
0.002172382798
0.002172172305
0.002171705033
0.00217109432
0.002171705036
0.002172172305
0.002172222242
0.002172222242
0.002172222242
0.002172385975
0.002172482604
0.002172454188
0.002172382798
0.002172256145
0.002172136884
0.002172256146
0.002172382798
0.002172454188
0.002172447391
0.002172447391
0.002172447391
0.002172495231
0.002172482604
0.002172454744
0.002172413987
0.002172384938
0.002172413987
0.002172454744
0.002172482603
0.002172495231
)
;
    }
}


// ************************************************************************* //
