/*--------------------------------*- C++ -*----------------------------------*\
| =========                 |                                                 |
| \\      /  F ield         | OpenFOAM: The Open Source CFD Toolbox           |
|  \\    /   O peration     | Version:  4.x                                   |
|   \\  /    A nd           | Web:      www.OpenFOAM.org                      |
|    \\/     M anipulation  |                                                 |
\*---------------------------------------------------------------------------*/
FoamFile
{
    version     2.0;
    format      ascii;
    class       volScalarField;
    location    "5000";
    object      H2O;
}
// * * * * * * * * * * * * * * * * * * * * * * * * * * * * * * * * * * * * * //

dimensions      [0 0 0 0 0 0 0];

internalField   nonuniform List<scalar> 
1174
(
1.622852919e-06
2.086167602e-06
2.73938428e-06
3.590120801e-06
4.628786838e-06
5.831976192e-06
7.167251885e-06
8.597937074e-06
1.008704202e-05
1.159983872e-05
1.310437138e-05
1.456674051e-05
1.592712311e-05
1.69945797e-05
2.057097203e-06
2.798187414e-06
3.783500251e-06
4.989552655e-06
6.374250424e-06
7.886909685e-06
9.476336193e-06
1.109609726e-05
1.270720314e-05
1.427871036e-05
1.578630701e-05
1.720655344e-05
1.849431572e-05
1.948700999e-05
3.015094742e-06
4.322295159e-06
5.936984751e-06
7.767367819e-06
9.714669168e-06
1.169060454e-05
1.36255838e-05
1.547033256e-05
1.71937757e-05
1.877926266e-05
2.02199779e-05
2.151195803e-05
2.263493303e-05
2.347465045e-05
4.416515419e-06
6.443954524e-06
8.767476297e-06
1.12165126e-05
1.364958143e-05
1.596556404e-05
1.810171325e-05
2.002615779e-05
2.172934537e-05
2.321641888e-05
2.450082575e-05
2.559767455e-05
2.650934821e-05
2.716817369e-05
5.415289308e-06
7.837195259e-06
1.047479699e-05
1.314194337e-05
1.570455991e-05
1.807752984e-05
2.021502054e-05
2.209988405e-05
2.373440495e-05
2.513291328e-05
2.631603611e-05
2.730503963e-05
2.810999679e-05
2.8681841e-05
4.41647015e-06
6.443890233e-06
8.767392227e-06
1.121640459e-05
1.364944552e-05
1.596540186e-05
1.810152094e-05
2.002593889e-05
2.172910093e-05
2.321615045e-05
2.450053605e-05
2.559736303e-05
2.650902118e-05
2.716783173e-05
3.015054906e-06
4.322242703e-06
5.936915928e-06
7.767272859e-06
9.714540854e-06
1.169043536e-05
1.362536928e-05
1.547006993e-05
1.719346067e-05
1.877890274e-05
2.021956796e-05
2.151150242e-05
2.263443536e-05
2.347411269e-05
2.057062178e-06
2.798147166e-06
3.783449879e-06
4.989484504e-06
6.374154352e-06
7.886775125e-06
9.476152564e-06
1.109585906e-05
1.270690426e-05
1.427834885e-05
1.578588092e-05
1.720606044e-05
1.8493761e-05
1.94863992e-05
1.622827933e-06
2.086143573e-06
2.7393559e-06
3.590080307e-06
4.628724923e-06
5.831881123e-06
7.167112861e-06
8.5977424e-06
1.008678249e-05
1.15995114e-05
1.310396641e-05
1.456625414e-05
1.592655594e-05
1.699392818e-05
1.55587912e-06
2.05706756e-06
2.798158161e-06
3.783470269e-06
4.989521551e-06
6.374218621e-06
7.886876662e-06
9.476301082e-06
1.10960625e-05
1.270716609e-05
1.42786734e-05
1.578627159e-05
1.720651761e-05
1.849427855e-05
1.948697621e-05
3.034241121e-06
4.332340122e-06
5.912581416e-06
7.679365621e-06
9.537196568e-06
1.140599731e-05
1.32264362e-05
1.495911415e-05
1.658095756e-05
1.80808008e-05
1.945475952e-05
2.069950899e-05
2.179332701e-05
2.261867988e-05
5.489140884e-06
8.005126243e-06
1.073462402e-05
1.344640908e-05
1.598302562e-05
1.825941608e-05
2.024549183e-05
2.194643672e-05
2.338665002e-05
2.459858412e-05
2.561558574e-05
2.6466396e-05
2.716468096e-05
2.766623196e-05
9.844193393e-06
1.401896585e-05
1.798020184e-05
2.143299725e-05
2.427634612e-05
2.652630112e-05
2.825515014e-05
2.955328827e-05
3.050898606e-05
3.119949942e-05
3.168848648e-05
3.202647599e-05
3.225174067e-05
3.238541579e-05
1.394483651e-05
1.896087695e-05
2.320137072e-05
2.655796735e-05
2.910040788e-05
3.096094362e-05
3.227936045e-05
3.318061678e-05
3.376815466e-05
3.412411845e-05
3.431226729e-05
3.438209427e-05
3.437461901e-05
3.433404208e-05
9.844081679e-06
1.401883079e-05
1.798004013e-05
2.143280272e-05
2.427611497e-05
2.65260383e-05
2.825485146e-05
2.955295781e-05
3.050862703e-05
3.11991181e-05
3.168809052e-05
3.202606452e-05
3.225132276e-05
3.238497911e-05
5.489021482e-06
8.005001392e-06
1.073447782e-05
1.344622212e-05
1.598278353e-05
1.825911101e-05
2.024512359e-05
2.194600768e-05
2.338616179e-05
2.459804142e-05
2.56149958e-05
2.646577044e-05
2.716402035e-05
2.766553565e-05
3.034163839e-06
4.332271449e-06
5.912497219e-06
7.679248444e-06
9.537029043e-06
1.140576769e-05
1.322613602e-05
1.495873769e-05
1.658050541e-05
1.808027281e-05
1.945416257e-05
2.069884618e-05
2.179259782e-05
2.261789387e-05
2.057065912e-06
2.798148299e-06
3.783444923e-06
4.989468531e-06
6.3741237e-06
7.886725839e-06
9.47608225e-06
1.109576324e-05
1.270678394e-05
1.427820073e-05
1.578570838e-05
1.72058637e-05
1.84935366e-05
1.948614106e-05
2.073515457e-06
3.015016578e-06
4.322208166e-06
5.936891194e-06
7.767268259e-06
9.714565504e-06
1.169049688e-05
1.362547522e-05
1.54702238e-05
1.719366794e-05
1.877915746e-05
2.021987245e-05
2.151185596e-05
2.263483197e-05
2.347455089e-05
3.453563266e-06
5.489029187e-06
8.005021533e-06
1.073452316e-05
1.344630909e-05
1.598292741e-05
1.825932066e-05
2.024539868e-05
2.194634933e-05
2.33865633e-05
2.459850113e-05
2.561550514e-05
2.646632198e-05
2.716461225e-05
2.766616226e-05
1.272754445e-05
1.801997937e-05
2.280050794e-05
2.670997135e-05
2.967773445e-05
3.179348517e-05
3.321154935e-05
3.409474331e-05
3.458759757e-05
3.480724487e-05
3.484357787e-05
3.476402175e-05
3.46226545e-05
3.448200967e-05
2.879657464e-05
3.77086735e-05
4.383272746e-05
4.742878078e-05
4.909993801e-05
4.945035589e-05
4.896571035e-05
4.799681636e-05
4.678091962e-05
4.54709665e-05
4.416212653e-05
4.291529032e-05
4.17885827e-05
4.092663839e-05
4.979995452e-05
5.863644077e-05
6.239819341e-05
6.302377436e-05
6.189376093e-05
5.987525197e-05
5.748089898e-05
5.500160142e-05
5.259541496e-05
5.034281243e-05
4.828076747e-05
4.642731026e-05
4.481641865e-05
4.361278344e-05
2.879604319e-05
3.770816689e-05
4.383221141e-05
4.742823635e-05
4.90993507e-05
4.944974172e-05
4.896507699e-05
4.799616731e-05
4.678027577e-05
4.547032469e-05
4.416149232e-05
4.291466965e-05
4.178797345e-05
4.09260338e-05
1.272715028e-05
1.801964731e-05
2.280013723e-05
2.670950909e-05
2.967717353e-05
3.1792831e-05
3.321080844e-05
3.409393613e-05
3.458673834e-05
3.480635061e-05
3.484265418e-05
3.476308201e-05
3.462169901e-05
3.448104101e-05
5.489018888e-06
8.004972111e-06
1.073440715e-05
1.34461027e-05
1.598261503e-05
1.82588954e-05
2.024486291e-05
2.194570824e-05
2.338583086e-05
2.459768226e-05
2.561461324e-05
2.646536622e-05
2.716360003e-05
2.766509946e-05
3.015061918e-06
4.322233576e-06
5.936875197e-06
7.767187246e-06
9.714399046e-06
1.169023114e-05
1.362509832e-05
1.546973026e-05
1.719305557e-05
1.877843391e-05
2.021904415e-05
2.15109264e-05
2.263380934e-05
2.347343384e-05
2.84970747e-06
4.416375419e-06
6.443790549e-06
8.767293806e-06
1.121631641e-05
1.36493752e-05
1.596535169e-05
1.810149898e-05
2.002594754e-05
2.172913907e-05
2.321621949e-05
2.450063378e-05
2.559748717e-05
2.65091721e-05
2.716799941e-05
5.99581706e-06
9.843957747e-06
1.401872777e-05
1.797996795e-05
2.143277115e-05
2.427613045e-05
2.652609504e-05
2.825495219e-05
2.955310169e-05
3.05088106e-05
3.119932867e-05
3.168832867e-05
3.202632686e-05
3.225159983e-05
3.238527692e-05
1.788925948e-05
2.879614364e-05
3.770833542e-05
4.383245699e-05
4.742855245e-05
4.909974048e-05
4.945018363e-05
4.896555764e-05
4.79966781e-05
4.678080288e-05
4.547085552e-05
4.416202238e-05
4.291519983e-05
4.178850186e-05
4.092656056e-05
8.37908843e-05
9.494103639e-05
9.671615147e-05
9.342913227e-05
8.789482829e-05
8.169726046e-05
7.563656439e-05
7.006759682e-05
6.511089783e-05
6.077279467e-05
5.701096393e-05
5.377486345e-05
5.105760825e-05
4.907435494e-05
0.0001914854187
0.0001772674301
0.0001555562213
0.0001347773936
0.0001171397016
0.0001027620514
9.117083174e-05
8.181209518e-05
7.420418881e-05
6.79660128e-05
6.280835513e-05
5.852446786e-05
5.501722432e-05
5.249823803e-05
8.378898845e-05
9.493967965e-05
9.671487495e-05
9.342784845e-05
8.789356453e-05
8.169604375e-05
7.563540489e-05
7.006648951e-05
6.510985859e-05
6.077179833e-05
5.701004502e-05
5.377399464e-05
5.105677847e-05
4.907354751e-05
2.87960973e-05
3.770799108e-05
4.383181191e-05
4.742765447e-05
4.909865482e-05
4.944898091e-05
4.896426855e-05
4.799534902e-05
4.6779464e-05
4.546952414e-05
4.416070701e-05
4.291390915e-05
4.178722934e-05
4.092529031e-05
9.844110124e-06
1.401874392e-05
1.79798001e-05
2.143240275e-05
2.427556513e-05
2.65253594e-05
2.825406698e-05
2.955208849e-05
3.050769923e-05
3.119814098e-05
3.168707971e-05
3.202502752e-05
3.225026308e-05
3.23839006e-05
4.41649613e-06
6.443867973e-06
8.767285787e-06
1.121618816e-05
1.364910405e-05
1.596492407e-05
1.810091538e-05
2.00252066e-05
2.172825616e-05
2.321520826e-05
2.449950283e-05
2.559625584e-05
2.650784505e-05
2.716657501e-05
3.430999812e-06
5.415130719e-06
7.837002444e-06
1.047457508e-05
1.314170342e-05
1.570430442e-05
1.807726649e-05
2.021475501e-05
2.2099619e-05
2.373414341e-05
2.513265981e-05
2.63157874e-05
2.73047942e-05
2.810976245e-05
2.868161222e-05
8.644132699e-06
1.394453119e-05
1.89605403e-05
2.320102402e-05
2.65576211e-05
2.910007291e-05
3.096062188e-05
3.227905325e-05
3.318032944e-05
3.376788127e-05
3.412385815e-05
3.431202688e-05
3.438186385e-05
3.437439971e-05
3.433382833e-05
3.404525231e-05
4.9799289e-05
5.863578528e-05
6.239759493e-05
6.302325419e-05
6.189331401e-05
5.987485433e-05
5.748055798e-05
5.500129667e-05
5.259514016e-05
5.034256743e-05
4.828055079e-05
4.642711129e-05
4.481623541e-05
4.361260655e-05
0.0001725086294
0.0001914833387
0.0001772660819
0.0001555552992
0.0001347767087
0.0001171391802
0.0001027616387
9.117050583e-05
8.181182228e-05
7.420396263e-05
6.796581495e-05
6.280819008e-05
5.852432713e-05
5.50170935e-05
5.24981127e-05
0.0006545843051
0.0004186579234
0.0002880519528
0.0002116087839
0.0001642685412
0.0001333034693
0.0001120017153
9.66814538e-05
8.523957189e-05
7.642509711e-05
6.946591062e-05
6.387966858e-05
5.941742538e-05
5.6261358e-05
0.000191485651
0.0001772654016
0.0001555535917
0.0001347747601
0.0001171372824
0.0001027598853
9.116891383e-05
8.181037773e-05
7.420263448e-05
6.796460871e-05
6.280708047e-05
5.85232943e-05
5.501613152e-05
5.249718132e-05
4.980012938e-05
5.863566383e-05
6.239676551e-05
6.302197831e-05
6.189178489e-05
5.987321546e-05
5.747887016e-05
5.499961839e-05
5.259348927e-05
5.034097157e-05
4.827899778e-05
4.64256039e-05
4.481477064e-05
4.361116549e-05
1.394488809e-05
1.896062682e-05
2.32007928e-05
2.655709312e-05
2.909929026e-05
3.095963386e-05
3.227790751e-05
3.317905761e-05
3.376652005e-05
3.412243027e-05
3.431055171e-05
3.438035664e-05
3.437286476e-05
3.43322666e-05
5.415301862e-06
7.837100743e-06
1.047454289e-05
1.314150152e-05
1.570391531e-05
1.80766881e-05
2.021399218e-05
2.209868571e-05
2.373305816e-05
2.51314386e-05
2.631445161e-05
2.730335963e-05
2.810823787e-05
2.867999086e-05
2.849695506e-06
4.416337102e-06
6.443721092e-06
8.767189597e-06
1.121617504e-05
1.364919794e-05
1.59651363e-05
1.810124776e-05
2.002565962e-05
2.172882163e-05
2.321587108e-05
2.450026022e-05
2.559709247e-05
2.650875534e-05
2.716756581e-05
5.995723105e-06
9.843789793e-06
1.401849537e-05
1.79796776e-05
2.14324279e-05
2.427574154e-05
2.652567209e-05
2.825449686e-05
2.955261692e-05
3.050830264e-05
3.119880848e-05
3.168779558e-05
3.202578185e-05
3.225104873e-05
3.238471342e-05
1.788839063e-05
2.879532641e-05
3.77074437e-05
4.383152308e-05
4.742760396e-05
4.909878336e-05
4.944922897e-05
4.896461531e-05
4.799576342e-05
4.677990405e-05
4.546998745e-05
4.416118235e-05
4.291438509e-05
4.17877087e-05
4.092577767e-05
5.861047113e-05
8.378711055e-05
9.493813939e-05
9.671364794e-05
9.342688008e-05
8.789278894e-05
8.169540935e-05
7.563486746e-05
7.006604206e-05
6.510947911e-05
6.077147111e-05
5.700975144e-05
5.377373173e-05
5.105654292e-05
4.90733377e-05
0.0001725081053
0.0001914826048
0.000177263533
0.0001555523849
0.0001347739594
0.000117136712
0.0001027594597
9.116858436e-05
8.181011355e-05
7.420243748e-05
6.796444146e-05
6.280693034e-05
5.852316254e-05
5.501601245e-05
5.249707983e-05
5.861107874e-05
8.378701838e-05
9.493738431e-05
9.671247434e-05
9.342550335e-05
8.789135206e-05
8.169399209e-05
7.563352771e-05
7.006477729e-05
6.510829066e-05
6.077036369e-05
5.700871648e-05
5.377276972e-05
5.105562629e-05
4.907244398e-05
2.879663683e-05
3.770777032e-05
4.383113595e-05
4.742672745e-05
4.909759276e-05
4.944786087e-05
4.896314484e-05
4.799424213e-05
4.677838288e-05
4.54684848e-05
4.415970084e-05
4.291293805e-05
4.178629253e-05
4.092437926e-05
9.844280068e-06
1.401873465e-05
1.797961373e-05
2.143206863e-05
2.427511556e-05
2.652482124e-05
2.825346742e-05
2.955144674e-05
3.050702959e-05
3.119745264e-05
3.168637781e-05
3.202432354e-05
3.224955443e-05
3.238318418e-05
4.416543146e-06
6.443871837e-06
8.767223709e-06
1.121605161e-05
1.364888974e-05
1.596463895e-05
1.810056431e-05
2.002480071e-05
2.172780362e-05
2.321471181e-05
2.449897376e-05
2.559569839e-05
2.650726436e-05
2.716597362e-05
2.073495958e-06
3.014966884e-06
4.322123837e-06
5.93676611e-06
7.76709636e-06
9.714338679e-06
1.169021392e-05
1.362513179e-05
1.546981667e-05
1.719320011e-05
1.87786326e-05
2.021929692e-05
2.151122857e-05
2.263415969e-05
2.347383955e-05
3.453419834e-06
5.488842087e-06
8.004775843e-06
1.073421469e-05
1.344593282e-05
1.598247788e-05
1.825879769e-05
2.024480327e-05
2.194568685e-05
2.33858483e-05
2.459773463e-05
2.561469249e-05
2.646547093e-05
2.716372666e-05
2.766524623e-05
7.669827667e-06
1.272675025e-05
1.801919815e-05
2.279966467e-05
2.670903409e-05
2.967670745e-05
3.179238595e-05
3.321038788e-05
3.409353755e-05
3.458636278e-05
3.48060005e-05
3.484232696e-05
3.476276877e-05
3.462139947e-05
3.448074848e-05
1.788840696e-05
2.879517584e-05
3.770707784e-05
4.38309489e-05
4.742688028e-05
4.909796224e-05
4.944836649e-05
4.8963733e-05
4.799487075e-05
4.677903586e-05
4.546914185e-05
4.416035551e-05
4.291358465e-05
4.178693539e-05
4.092501664e-05
3.404510317e-05
4.979844322e-05
5.863423529e-05
6.239560418e-05
6.302104698e-05
6.189104553e-05
5.98726026e-05
5.747836276e-05
5.499919577e-05
5.259313158e-05
5.034065066e-05
4.827871706e-05
4.642536151e-05
4.481455318e-05
4.361096094e-05
1.788832932e-05
2.879495454e-05
3.770665559e-05
4.383036394e-05
4.742615586e-05
4.909716268e-05
4.944751832e-05
4.896286708e-05
4.799401045e-05
4.677818765e-05
4.546831416e-05
4.415955385e-05
4.291280485e-05
4.178617649e-05
4.09242711e-05
7.670120125e-06
1.27269656e-05
1.801918562e-05
2.279938032e-05
2.670850606e-05
2.967597305e-05
3.179149519e-05
3.320938201e-05
3.409245479e-05
3.458523459e-05
3.480483791e-05
3.484114862e-05
3.476158553e-05
3.462021906e-05
3.447955904e-05
5.489145597e-06
8.004927217e-06
1.073418893e-05
1.344571883e-05
1.598207653e-05
1.825822071e-05
2.024407172e-05
2.194482166e-05
2.338486824e-05
2.459666108e-05
2.56135419e-05
2.646425241e-05
2.716245342e-05
2.766392676e-05
3.015122298e-06
4.322243906e-06
5.936809697e-06
7.767029129e-06
9.714138318e-06
1.168986227e-05
1.362462338e-05
1.546915641e-05
1.719239279e-05
1.877768972e-05
2.021822446e-05
2.151004312e-05
2.263286769e-05
2.347244585e-05
1.555844882e-06
2.057010925e-06
2.798073583e-06
3.783352118e-06
4.989361608e-06
6.374006628e-06
7.886603626e-06
9.475960923e-06
1.109564898e-05
1.270667852e-05
1.427810807e-05
1.578563052e-05
1.720580246e-05
1.849349797e-05
1.948613291e-05
2.086704445e-06
3.034070192e-06
4.33214332e-06
5.912337244e-06
7.679058689e-06
9.536814219e-06
1.140553219e-05
1.322588391e-05
1.495847401e-05
1.658023276e-05
1.807999689e-05
1.945387655e-05
2.069855979e-05
2.179231263e-05
2.261761002e-05
3.453418666e-06
5.488822368e-06
8.004722429e-06
1.073411666e-05
1.344578325e-05
1.598227796e-05
1.825854913e-05
2.024451476e-05
2.194536126e-05
2.338548836e-05
2.459734635e-05
2.561428608e-05
2.646504854e-05
2.716328817e-05
2.766479696e-05
5.995733754e-06
9.843718468e-06
1.401829108e-05
1.797931569e-05
2.143191151e-05
2.427508319e-05
2.652489208e-05
2.825362621e-05
2.955167665e-05
3.050730809e-05
3.119777334e-05
3.168673243e-05
3.202470798e-05
3.224995639e-05
3.238361077e-05
8.644113636e-06
1.394428049e-05
1.895998466e-05
2.320016473e-05
2.655650686e-05
2.909875341e-05
3.095914394e-05
3.227745829e-05
3.317864901e-05
3.37661495e-05
3.412209442e-05
3.431023944e-05
3.438006993e-05
3.437259967e-05
3.433201145e-05
5.995694245e-06
9.843634612e-06
1.401813601e-05
1.797908286e-05
2.143160046e-05
2.427470612e-05
2.652446098e-05
2.825314961e-05
2.955116179e-05
3.050676953e-05
3.119721812e-05
3.168616818e-05
3.202412685e-05
3.22493757e-05
3.23830155e-05
3.453443965e-06
5.488835576e-06
8.004676175e-06
1.073397518e-05
1.344553091e-05
1.598191166e-05
1.825807295e-05
2.024393999e-05
2.194470124e-05
2.338475972e-05
2.459655984e-05
2.561344948e-05
2.646416816e-05
2.716237392e-05
2.766384819e-05
2.086771251e-06
3.034143855e-06
4.332185548e-06
5.91231525e-06
7.678948079e-06
9.536599574e-06
1.140520605e-05
1.322544209e-05
1.495792041e-05
1.657957519e-05
1.807923738e-05
1.945303064e-05
2.069762784e-05
2.179130595e-05
2.261653981e-05
2.057102892e-06
2.798143433e-06
3.783380711e-06
4.989327329e-06
6.373889774e-06
7.886387048e-06
9.475631469e-06
1.109519763e-05
1.27061035e-05
1.427741102e-05
1.578481271e-05
1.720486818e-05
1.849245133e-05
1.948497834e-05
1.324339546e-06
1.622794028e-06
2.086092808e-06
2.739285048e-06
3.589987202e-06
4.628608095e-06
5.831740196e-06
7.166948476e-06
8.597557732e-06
1.008657806e-05
1.159928877e-05
1.310372875e-05
1.456600632e-05
1.592629765e-05
1.69936629e-05
1.555846199e-06
2.057010432e-06
2.798068088e-06
3.783337673e-06
4.989333524e-06
6.373962034e-06
7.886539024e-06
9.475872923e-06
1.109553585e-05
1.270654013e-05
1.427794595e-05
1.578544223e-05
1.720558946e-05
1.849325802e-05
1.948586034e-05
2.073499901e-06
3.014960869e-06
4.322094895e-06
5.936699961e-06
7.76697995e-06
9.714164097e-06
1.168997406e-05
1.362482401e-05
1.546944465e-05
1.719276382e-05
1.877813886e-05
2.021874523e-05
2.151062627e-05
2.263350953e-05
2.347313667e-05
2.849706154e-06
4.416316347e-06
6.443634989e-06
8.767008575e-06
1.121587751e-05
1.364877081e-05
1.596457966e-05
1.810056439e-05
2.002485765e-05
2.172791123e-05
2.321487108e-05
2.449917502e-05
2.55959402e-05
2.650753925e-05
2.71662808e-05
3.430999428e-06
5.41505579e-06
7.836799482e-06
1.047420575e-05
1.314114644e-05
1.57035539e-05
1.807632879e-05
2.021364102e-05
2.209834762e-05
2.373273258e-05
2.513112866e-05
2.631415571e-05
2.730307765e-05
2.810797268e-05
2.867973844e-05
2.84969369e-06
4.416287359e-06
6.44357858e-06
8.766915799e-06
1.121574082e-05
1.364858513e-05
1.596434608e-05
1.810028691e-05
2.002453676e-05
2.172755669e-05
2.321448044e-05
2.449875547e-05
2.55954962e-05
2.650707378e-05
2.716579297e-05
2.07349786e-06
3.014950417e-06
4.322059899e-06
5.936622221e-06
7.766843525e-06
9.713957435e-06
1.168969042e-05
1.362446174e-05
1.546900353e-05
1.719225067e-05
1.877755633e-05
2.021810002e-05
2.150992705e-05
2.26327597e-05
2.347234264e-05
1.555854472e-06
2.05702061e-06
2.79806634e-06
3.783305736e-06
4.989253622e-06
6.373816626e-06
7.886314318e-06
9.475560118e-06
1.109513023e-05
1.270603926e-05
1.427735006e-05
1.578475308e-05
1.720481292e-05
1.849239579e-05
1.948492645e-05
1.324358248e-06
1.622820097e-06
2.086114889e-06
2.739288028e-06
3.589953704e-06
4.628520093e-06
5.831580113e-06
7.166701227e-06
8.597209513e-06
1.008612232e-05
1.159871998e-05
1.310304208e-05
1.456520254e-05
1.592537834e-05
1.699263312e-05
)
;

boundaryField
{
    top
    {
        type            zeroGradient;
    }
    bottom
    {
        type            zeroGradient;
    }
    side-walls
    {
        type            zeroGradient;
    }
    inlet
    {
        type            zeroGradient;
    }
    outlet
    {
        type            zeroGradient;
    }
    procBoundary1to0
    {
        type            processor;
        value           nonuniform List<scalar> 
97
(
1.324356714e-06
1.324356714e-06
1.555848148e-06
2.073470328e-06
2.849625541e-06
3.430866055e-06
2.849592061e-06
2.073436737e-06
1.555815213e-06
1.324323201e-06
1.259026346e-06
2.086767936e-06
2.086767936e-06
2.086767936e-06
3.453409169e-06
5.995528431e-06
8.643620356e-06
5.995419735e-06
3.453278391e-06
2.086644591e-06
1.555817366e-06
1.493849141e-06
2.100210277e-06
7.670110499e-06
7.670110499e-06
7.670110499e-06
1.788790099e-05
3.404247519e-05
1.788721704e-05
7.669395506e-06
3.453277964e-06
2.073441753e-06
1.837356405e-06
3.16761856e-06
7.811917243e-06
5.861101891e-05
5.861101891e-05
5.861101891e-05
0.0001724901112
5.860617335e-05
1.788727188e-05
5.995445036e-06
2.849609774e-06
2.082180463e-06
4.172678233e-06
1.295837086e-05
4.765406124e-05
0.001104733095
0.001104733095
0.001104733095
0.0001724913874
0.0001724913874
3.404274942e-05
8.643677856e-06
3.430879855e-06
1.837361006e-06
3.167640951e-06
7.812096913e-06
2.128513151e-05
4.765483033e-05
2.128460038e-05
1.788897045e-05
1.788897045e-05
1.788897045e-05
5.99569238e-06
2.84965883e-06
1.493855641e-06
2.100241145e-06
3.874249173e-06
7.812120961e-06
1.295842566e-05
7.811995491e-06
3.874190997e-06
3.45355831e-06
3.45355831e-06
3.45355831e-06
2.073508221e-06
1.259031572e-06
1.498535784e-06
2.100240938e-06
3.167651047e-06
4.172690897e-06
3.16762053e-06
2.100227457e-06
1.498531433e-06
1.555882429e-06
1.555882429e-06
1.555882429e-06
1.152588945e-06
1.259032207e-06
1.493858197e-06
1.837368234e-06
2.082185135e-06
1.837359975e-06
1.493852224e-06
1.259029777e-06
1.152588842e-06
)
;
    }
}


// ************************************************************************* //
