/*--------------------------------*- C++ -*----------------------------------*\
| =========                 |                                                 |
| \\      /  F ield         | OpenFOAM: The Open Source CFD Toolbox           |
|  \\    /   O peration     | Version:  4.x                                   |
|   \\  /    A nd           | Web:      www.OpenFOAM.org                      |
|    \\/     M anipulation  |                                                 |
\*---------------------------------------------------------------------------*/
FoamFile
{
    version     2.0;
    format      ascii;
    class       volScalarField;
    location    "5000";
    object      molarConc;
}
// * * * * * * * * * * * * * * * * * * * * * * * * * * * * * * * * * * * * * //

dimensions      [0 -3 0 0 1 0 0];

internalField   nonuniform List<scalar> 
1174
(
9.96327416
9.963272507
9.96327016
9.963266076
9.963263
9.963258517
9.963254172
9.963248872
9.963242007
9.963235849
9.963229602
9.963225149
9.963219712
9.963216431
9.963265601
9.963262971
9.963258265
9.963253701
9.963248083
9.963241854
9.963236206
9.963230781
9.963225361
9.963220175
9.963214255
9.963208801
9.963204477
9.963199384
9.963300015
9.96329621
9.963290392
9.963283754
9.963277185
9.963270097
9.963262459
9.963255653
9.963248599
9.963241996
9.963237127
9.963233355
9.963229346
9.963227565
9.963214755
9.963207315
9.963198549
9.963190403
9.963182702
9.963173695
9.963166461
9.963160306
9.963154122
9.963149037
9.963144252
9.963139689
9.963135036
9.963132506
9.963222907
9.963214404
9.963203446
9.963191622
9.963182842
9.96317451
9.963166704
9.963159034
9.963153464
9.963147928
9.963143642
9.963139031
9.963136203
9.96313465
9.963316891
9.9633104
9.963301906
9.963292532
9.963283036
9.963274347
9.963266907
9.963258633
9.963251794
9.963246777
9.963242139
9.963238043
9.963234588
9.963232958
9.963278667
9.963274213
9.963269704
9.963262523
9.963255706
9.96324873
9.96324235
9.963236209
9.963229728
9.963224223
9.963219632
9.963213177
9.963209594
9.963205517
9.963258311
9.963255708
9.96325107
9.963246812
9.963242683
9.963237913
9.963232901
9.963227
9.963222096
9.963216596
9.96321272
9.963206404
9.963201911
9.963196918
9.963276452
9.963274911
9.96327333
9.963270781
9.963267231
9.963263509
9.963259374
9.9632549
9.963249053
9.963242552
9.963237049
9.963230628
9.963225386
9.963220935
9.96326284
9.963260959
9.96325867
9.963257061
9.963251298
9.963246979
9.963242319
9.963237131
9.963231976
9.963226684
9.963220812
9.963215573
9.963210197
9.963205841
9.963202516
9.963255444
9.963251567
9.963246166
9.963239249
9.963233525
9.963227649
9.963220692
9.963215685
9.963209589
9.963203526
9.963198851
9.96319251
9.963189144
9.963185601
9.96323806
9.963229415
9.963220342
9.96321061
9.963200343
9.963192411
9.96318459
9.963178389
9.963172523
9.963167955
9.963164701
9.963162203
9.963159007
9.963156942
9.963233857
9.963218846
9.963204196
9.963190957
9.963181238
9.963173137
9.963168567
9.9631633
9.963160853
9.96315828
9.963157717
9.963156512
9.963155108
9.9631557
9.963222222
9.963204594
9.963188902
9.963176627
9.963166757
9.96315883
9.963153685
9.963150879
9.963147212
9.963146779
9.963146749
9.963147968
9.963148422
9.963149901
9.963226791
9.963212173
9.963198372
9.963186074
9.963177701
9.963170181
9.963164666
9.963160553
9.96315742
9.963155944
9.963153494
9.963151952
9.963151222
9.963150476
9.963209283
9.963199317
9.963190821
9.963179088
9.96316951
9.963159963
9.963152408
9.963147111
9.96314221
9.963138523
9.963135132
9.963132736
9.963130352
9.963128114
9.963288432
9.963282617
9.963275583
9.963268489
9.963262197
9.963255011
9.963250319
9.963242629
9.963236663
9.963230456
9.963225332
9.963220986
9.963216634
9.963214161
9.963244469
9.963241286
9.963237397
9.963231861
9.96322654
9.963222088
9.963216485
9.963208664
9.963202552
9.963196859
9.963190231
9.96318637
9.963181822
9.963177696
9.963276613
9.96327127
9.963267459
9.963260843
9.963254514
9.963246266
9.963239025
9.963232707
9.963225145
9.963219001
9.963213006
9.963208065
9.963203922
9.963199248
9.963196454
9.963296177
9.963288248
9.963280071
9.963270685
9.963259976
9.963249675
9.963242099
9.963234148
9.963227447
9.963221285
9.963217309
9.963213044
9.963210794
9.963208421
9.963206156
9.963240988
9.963222748
9.963203954
9.963189556
9.963178617
9.963170507
9.963165059
9.963159837
9.963157939
9.96315626
9.96315604
9.963157091
9.963157459
9.963158522
9.963187061
9.963154178
9.963131637
9.963117073
9.96311168
9.963108413
9.963110874
9.963115966
9.963119341
9.96312359
9.963128331
9.963133822
9.96313738
9.963140589
9.963053849
9.963021567
9.963008888
9.963008828
9.963013545
9.963020522
9.963030436
9.963038886
9.963047707
9.963054851
9.963061396
9.963069232
9.963075905
9.963081377
9.963204468
9.963169142
9.963147546
9.963134985
9.963128886
9.963127072
9.963128007
9.963130142
9.96313399
9.963138259
9.963143476
9.963148854
9.96315261
9.963154669
9.963222463
9.9632025
9.963184821
9.963169253
9.963158716
9.963151222
9.963144749
9.963142809
9.963139884
9.963138674
9.963139281
9.96313953
9.963139357
9.96314132
9.963260627
9.963250263
9.963240252
9.963230177
9.963221622
9.96321254
9.963204454
9.963198247
9.963192515
9.963187543
9.963183574
9.963180728
9.963179939
9.963177154
9.963285146
9.963281487
9.963274278
9.963266777
9.963259729
9.963251801
9.963245991
9.963239759
9.96323436
9.963229095
9.963224829
9.96322077
9.963216595
9.963212944
9.963283657
9.96327781
9.963269492
9.963260693
9.963251396
9.963243226
9.963234968
9.963227214
9.963220626
9.963213439
9.963208628
9.963204238
9.963198628
9.963196506
9.963194567
9.963262515
9.963248408
9.963233463
9.96322022
9.96320691
9.963196286
9.963186678
9.963180431
9.9631759
9.963173163
9.963170248
9.963170354
9.963169264
9.963167767
9.963165495
9.963238459
9.963199077
9.96316538
9.963142075
9.96312958
9.963123552
9.963123043
9.963125297
9.96312901
9.963133034
9.963137448
9.963142028
9.963146289
9.963150307
9.963154091
9.962993665
9.962952861
9.962946175
9.962958601
9.962978603
9.963000176
9.963022404
9.963043277
9.963061746
9.963079028
9.963091148
9.963101449
9.963112045
9.963120104
9.96262811
9.962679652
9.962760112
9.962836446
9.962900387
9.962952261
9.96299557
9.963030773
9.963059113
9.963081345
9.963099842
9.963115639
9.963129011
9.963138109
9.962981147
9.962939689
9.962931216
9.962942898
9.96296278
9.962986156
9.963009187
9.963029189
9.963046728
9.963062579
9.963075522
9.963087291
9.963098194
9.963105347
9.963192611
9.963158931
9.963136226
9.963122482
9.963116172
9.963117056
9.963117635
9.963121945
9.963126582
9.963131591
9.963136378
9.963140923
9.96314436
9.963147153
9.963214346
9.963200854
9.963184793
9.963172546
9.963159713
9.963151573
9.963143935
9.963137928
9.963134401
9.963131376
9.963128961
9.963127131
9.96312609
9.963126137
9.963254368
9.96324587
9.963237146
9.963228591
9.963219062
9.963211093
9.963203696
9.96319588
9.963189968
9.963184871
9.963179923
9.963175546
9.963172668
9.963170885
9.963253496
9.963245439
9.963236639
9.963225842
9.96321587
9.963205971
9.963196437
9.963188201
9.963180991
9.96317434
9.963170246
9.963166319
9.963162567
9.963158528
9.963157419
9.963265588
9.963248234
9.963229465
9.963214555
9.963202156
9.96319236
9.963184071
9.963179233
9.963176415
9.963174036
9.963171922
9.963172177
9.963173326
9.963172771
9.963173323
9.963121063
9.963063506
9.963031589
9.963016892
9.96301466
9.963017833
9.963026442
9.963035452
9.963043758
9.96305409
9.963061918
9.963068654
9.963075521
9.963082522
9.96308453
9.962679258
9.962609369
9.962661098
9.96274031
9.962816916
9.962880151
9.962932994
9.962976543
9.963010425
9.963038567
9.963060174
9.963080297
9.963096876
9.963108918
9.96311814
10.01200577
10.01291128
10.01343124
10.01375097
10.01396286
10.01411495
10.01423299
10.01432782
10.01440997
10.01448028
10.01454453
10.01460392
10.01465948
10.01470914
9.96258777
9.962640477
9.962720158
9.962795082
9.962859697
9.96291248
9.96295411
9.962988376
9.963014621
9.963038888
9.963057842
9.963074463
9.963086743
9.963093489
9.963085524
9.963053191
9.963038679
9.963036242
9.96304049
9.963050313
9.963057758
9.963066247
9.963075695
9.96308568
9.963092432
9.963097503
9.963103063
9.963106471
9.963255665
9.963237127
9.963221841
9.963208792
9.963199014
9.963191693
9.963186679
9.963182854
9.963179637
9.963178149
9.963177721
9.963178823
9.96317882
9.963179934
9.963291689
9.963284143
9.963273832
9.963264622
9.963255889
9.963247497
9.963240329
9.963232046
9.963225887
9.963220965
9.963216898
9.963213688
9.963210676
9.963209164
9.963306634
9.963300436
9.963292765
9.963284413
9.963274635
9.963266038
9.963257914
9.963249846
9.963242881
9.963236324
9.963231255
9.963225909
9.963220831
9.963217634
9.963215274
9.963280952
9.963264663
9.96324981
9.9632334
9.963220583
9.963210951
9.963202715
9.963195871
9.963191778
9.963187057
9.96318521
9.963184053
9.963183685
9.963182824
9.963182768
9.96324084
9.963201508
9.963168613
9.963146486
9.963134352
9.963128115
9.963125402
9.963127919
9.963130636
9.963133417
9.963138308
9.963143427
9.963148362
9.963151855
9.963154828
9.963059779
9.962967194
9.962926428
9.962920381
9.962933156
9.962953669
9.962976421
9.962998054
9.963018524
9.96303723
9.963053061
9.963066545
9.963076799
9.963087827
9.963097153
9.962683859
9.962613512
9.962666095
9.962745308
9.962820932
9.962884635
9.962937457
9.962978071
9.963012357
9.96304077
9.963063477
9.963082419
9.963098213
9.963109642
9.963118219
9.9630688
9.962976481
9.962935548
9.962929882
9.962942053
9.962960741
9.962983054
9.963005966
9.963026384
9.963043484
9.963058525
9.963074315
9.963087141
9.963097193
9.963103552
9.963176822
9.963144653
9.963122115
9.963108557
9.963103058
9.963102541
9.963105204
9.963109856
9.963114757
9.963119647
9.963124236
9.963128808
9.963132273
9.96313684
9.963268537
9.96325253
9.963239039
9.963225995
9.963216044
9.963207019
9.963200389
9.963194508
9.963191134
9.96318868
9.963187412
9.963186606
9.96318629
9.963185117
9.963273744
9.963266151
9.963256943
9.963248026
9.96323774
9.963229797
9.963222148
9.963215368
9.963209177
9.963203967
9.963200819
9.963197423
9.963193513
9.963191994
9.963275596
9.963272022
9.963268643
9.963262424
9.963254329
9.963247602
9.963240663
9.963233402
9.963226831
9.963219624
9.963213835
9.963209554
9.963205751
9.963200774
9.963197697
9.963249846
9.963243259
9.963235661
9.963225946
9.963216575
9.963208551
9.963199741
9.963192106
9.963184701
9.963179664
9.963175013
9.963169924
9.963166119
9.963163944
9.963161556
9.963211425
9.963193281
9.963173643
9.963155534
9.963141879
9.963130982
9.96312452
9.963119539
9.963116587
9.963114996
9.963114514
9.963113055
9.963113122
9.963112985
9.963114852
9.963197665
9.963156931
9.963125725
9.963102336
9.963088982
9.963081933
9.963080687
9.963083083
9.963085593
9.963089551
9.963095262
9.963100767
9.963106799
9.963110089
9.963113821
9.963174025
9.963117396
9.963084329
9.963071109
9.963068381
9.963072739
9.963078345
9.963085943
9.963094799
9.963104015
9.963110247
9.963118558
9.96312502
9.963132442
9.963136013
9.9632275
9.963188305
9.963155264
9.963132424
9.963118926
9.963112423
9.963109777
9.963111182
9.963114019
9.96311857
9.963122251
9.963128293
9.963134501
9.963138861
9.963143219
9.963245985
9.963228632
9.963209091
9.963191032
9.96317818
9.963166097
9.963157276
9.963151831
9.963147745
9.963144824
9.963143585
9.963142343
9.963142965
9.963144504
9.963144759
9.963246203
9.963235654
9.963225959
9.963216016
9.963208094
9.963198874
9.963192198
9.963186535
9.963180227
9.963177315
9.963172939
9.963169983
9.963166011
9.96316538
9.963267767
9.963263765
9.963257625
9.963250801
9.963244352
9.963237685
9.963229834
9.963222015
9.963215479
9.963208837
9.963203252
9.963198395
9.963194015
9.963190654
9.963263881
9.963261631
9.963259384
9.963255255
9.963251533
9.963246256
9.963239655
9.963233846
9.963228776
9.963223126
9.963217343
9.963212746
9.963207279
9.963203223
9.963200464
9.963284722
9.96328175
9.963277444
9.96327178
9.963263639
9.963256385
9.963249886
9.963244177
9.963235787
9.96322834
9.96322368
9.963217181
9.963213565
9.963210403
9.963207454
9.963287813
9.963280868
9.963272473
9.9632634
9.963254444
9.963246268
9.963237927
9.963230439
9.963223743
9.963218508
9.963214301
9.963211612
9.963208402
9.963204925
9.963203078
9.963262564
9.963248993
9.963233413
9.963216584
9.963203602
9.963193702
9.963185182
9.963178786
9.963174185
9.963170976
9.963168575
9.963167615
9.963166307
9.96316373
9.963164843
9.963222798
9.963203018
9.963185503
9.96316941
9.963157736
9.963149747
9.963141819
9.963136575
9.963133849
9.963132048
9.9631312
9.963130402
9.96312995
9.96312968
9.963131094
9.96325416
9.963240564
9.963224281
9.963211768
9.963198312
9.96318876
9.963180027
9.963175091
9.963170012
9.963166282
9.963164301
9.963162587
9.963162597
9.963163947
9.963164083
9.963248452
9.963240985
9.963232339
9.963221734
9.96321199
9.963203223
9.963192422
9.963184809
9.963178331
9.963172608
9.963167969
9.96316375
9.963159961
9.963156463
9.963154999
9.96325341
9.963249914
9.963244769
9.963239871
9.963232903
9.963227825
9.963221812
9.963213713
9.963207384
9.963202018
9.963196352
9.963191252
9.963184785
9.963181204
9.963179665
9.963251334
9.96324984
9.963245883
9.963241068
9.963236796
9.96323047
9.963224638
9.963217518
9.963212074
9.963206742
9.963200845
9.963195994
9.963190302
9.963186689
9.963293325
9.963292503
9.963290218
9.963287398
9.963284486
9.963280152
9.963275497
9.963270781
9.963265883
9.963260211
9.963254675
9.963248775
9.963243482
9.963238432
9.963234894
9.963273883
9.963271831
9.963268836
9.963264752
9.963261255
9.963255844
9.963249561
9.96324298
9.963237495
9.963231688
9.963225911
9.963219476
9.963213608
9.963209071
9.963206037
9.963266765
9.963263588
9.96325777
9.963252012
9.963244892
9.963237742
9.963231211
9.963223282
9.963216648
9.963210059
9.963204061
9.963198451
9.963194615
9.963191144
9.963187688
9.96325821
9.963251946
9.963244842
9.963236261
9.963226373
9.963217465
9.963208551
9.963200667
9.963193177
9.963186742
9.963182545
9.963177365
9.963174344
9.963171109
9.963168205
9.963266906
9.963260487
9.963251841
9.963242434
9.963233581
9.963225091
9.9632156
9.96320872
9.963201985
9.963194149
9.963189271
9.963184154
9.963181618
9.963178993
9.963177558
9.963231196
9.963224856
9.963218309
9.963209009
9.963200546
9.963192847
9.963183259
9.963176307
9.963168651
9.963163685
9.96315818
9.963153025
9.963150593
9.963146326
9.963143337
9.963258016
9.963255367
9.963250592
9.963245246
9.963238368
9.963231216
9.9632241
9.963216912
9.963210768
9.963204421
9.963198356
9.963193053
9.96318779
9.963184209
9.963181926
9.963313563
9.963311455
9.963309629
9.963307667
9.96330337
9.963298122
9.963290663
9.96328411
9.963279205
9.963274391
9.963267707
9.963262482
9.963257391
9.963252146
9.963249382
9.963283721
9.96328247
9.96328079
9.963278111
9.963276091
9.963272538
9.963267593
9.963263162
9.963258152
9.96325278
9.963247553
9.963241364
9.963236188
9.963230125
9.963226272
)
;

boundaryField
{
    top
    {
        type            calculated;
        value           nonuniform List<scalar> 
127
(
9.963283721
9.963276452
9.963244469
9.963285146
9.963254368
9.963291689
9.963273744
9.963267767
9.963251334
9.96328247
9.963274911
9.963241286
9.963281487
9.96324587
9.963284143
9.963266151
9.963263765
9.96324984
9.96328079
9.96327333
9.963237397
9.963274278
9.963237146
9.963273832
9.963256943
9.963257625
9.963245883
9.963278111
9.963270781
9.963231861
9.963266777
9.963228591
9.963264622
9.963248026
9.963250801
9.963241068
9.963276091
9.963267231
9.96322654
9.963259729
9.963219062
9.963255889
9.96323774
9.963244352
9.963236796
9.963272538
9.963263509
9.963222088
9.963251801
9.963211093
9.963247497
9.963229797
9.963237685
9.96323047
9.963267593
9.963259374
9.963216485
9.963245991
9.963203696
9.963240329
9.963222148
9.963229834
9.963224638
9.963263162
9.9632549
9.963208664
9.963239759
9.96319588
9.963232046
9.963215368
9.963222015
9.963217518
9.963258152
9.963249053
9.963202552
9.96323436
9.963189968
9.963225887
9.963209177
9.963215479
9.963212074
9.96325278
9.963242552
9.963196859
9.963229095
9.963184871
9.963220965
9.963203967
9.963208837
9.963206742
9.963247553
9.963237049
9.963190231
9.963224829
9.963179923
9.963216898
9.963200819
9.963203252
9.963200845
9.963241364
9.963230628
9.96318637
9.96322077
9.963175546
9.963213688
9.963197423
9.963198395
9.963195994
9.963236188
9.963225386
9.963181822
9.963216595
9.963172668
9.963210676
9.963193513
9.963194015
9.963190302
9.963230125
9.963220935
9.963177696
9.963212944
9.963170885
9.963209164
9.963191994
9.963190654
9.963186689
9.963226272
)
;
    }
    bottom
    {
        type            calculated;
        value           nonuniform List<scalar> 
134
(
9.96326284
9.963276613
9.963283657
9.963253496
9.963306634
9.963275596
9.963263881
9.963293325
9.96327416
9.963260959
9.96327127
9.96327781
9.963245439
9.963300436
9.963272022
9.963261631
9.963292503
9.963272507
9.96325867
9.963267459
9.963269492
9.963236639
9.963292765
9.963268643
9.963259384
9.963290218
9.96327016
9.963257061
9.963260843
9.963260693
9.963225842
9.963284413
9.963262424
9.963255255
9.963287398
9.963266076
9.963251298
9.963254514
9.963251396
9.96321587
9.963274635
9.963254329
9.963251533
9.963284486
9.963263
9.963246979
9.963246266
9.963243226
9.963205971
9.963266038
9.963247602
9.963246256
9.963280152
9.963258517
9.963242319
9.963239025
9.963234968
9.963196437
9.963257914
9.963240663
9.963239655
9.963275497
9.963254172
9.963237131
9.963232707
9.963227214
9.963188201
9.963249846
9.963233402
9.963233846
9.963270781
9.963248872
9.963231976
9.963225145
9.963220626
9.963180991
9.963242881
9.963226831
9.963228776
9.963265883
9.963242007
9.963226684
9.963219001
9.963213439
9.96317434
9.963236324
9.963219624
9.963223126
9.963260211
9.963235849
9.963220812
9.963213006
9.963208628
9.963170246
9.963231255
9.963213835
9.963217343
9.963254675
9.963229602
9.963215573
9.963208065
9.963204238
9.963166319
9.963225909
9.963209554
9.963212746
9.963248775
9.963225149
9.963210197
9.963203922
9.963198628
9.963162567
9.963220831
9.963205751
9.963207279
9.963243482
9.963219712
9.963205841
9.963199248
9.963196506
9.963158528
9.963217634
9.963200774
9.963203223
9.963238432
9.963216431
9.963202516
9.963196454
9.963194567
9.963157419
9.963215274
9.963197697
9.963200464
9.963234894
)
;
    }
    side-walls
    {
        type            calculated;
        value           nonuniform List<scalar> 
261
(
9.96327416
9.963265601
9.963300015
9.963214755
9.963222907
9.963316891
9.963278667
9.963258311
9.963276452
9.963272507
9.963262971
9.96329621
9.963207315
9.963214404
9.9633104
9.963274213
9.963255708
9.963274911
9.96327016
9.963258265
9.963290392
9.963198549
9.963203446
9.963301906
9.963269704
9.96325107
9.96327333
9.963266076
9.963253701
9.963283754
9.963190403
9.963191622
9.963292532
9.963262523
9.963246812
9.963270781
9.963263
9.963248083
9.963277185
9.963182702
9.963182842
9.963283036
9.963255706
9.963242683
9.963267231
9.963258517
9.963241854
9.963270097
9.963173695
9.96317451
9.963274347
9.96324873
9.963237913
9.963263509
9.963254172
9.963236206
9.963262459
9.963166461
9.963166704
9.963266907
9.96324235
9.963232901
9.963259374
9.963248872
9.963230781
9.963255653
9.963160306
9.963159034
9.963258633
9.963236209
9.963227
9.9632549
9.963242007
9.963225361
9.963248599
9.963154122
9.963153464
9.963251794
9.963229728
9.963222096
9.963249053
9.963235849
9.963220175
9.963241996
9.963149037
9.963147928
9.963246777
9.963224223
9.963216596
9.963242552
9.963229602
9.963214255
9.963237127
9.963144252
9.963143642
9.963242139
9.963219632
9.96321272
9.963237049
9.963225149
9.963208801
9.963233355
9.963139689
9.963139031
9.963238043
9.963213177
9.963206404
9.963230628
9.963219712
9.963204477
9.963229346
9.963135036
9.963136203
9.963234588
9.963209594
9.963201911
9.963225386
9.963216431
9.963199384
9.963227565
9.963132506
9.96313465
9.963232958
9.963205517
9.963196918
9.963220935
9.963293325
9.963273883
9.963266765
9.96325821
9.963266906
9.963231196
9.963258016
9.963313563
9.963283721
9.963292503
9.963271831
9.963263588
9.963251946
9.963260487
9.963224856
9.963255367
9.963311455
9.96328247
9.963290218
9.963268836
9.96325777
9.963244842
9.963251841
9.963218309
9.963250592
9.963309629
9.96328079
9.963287398
9.963264752
9.963252012
9.963236261
9.963242434
9.963209009
9.963245246
9.963307667
9.963278111
9.963284486
9.963261255
9.963244892
9.963226373
9.963233581
9.963200546
9.963238368
9.96330337
9.963276091
9.963280152
9.963255844
9.963237742
9.963217465
9.963225091
9.963192847
9.963231216
9.963298122
9.963272538
9.963275497
9.963249561
9.963231211
9.963208551
9.9632156
9.963183259
9.9632241
9.963290663
9.963267593
9.963270781
9.96324298
9.963223282
9.963200667
9.96320872
9.963176307
9.963216912
9.96328411
9.963263162
9.963265883
9.963237495
9.963216648
9.963193177
9.963201985
9.963168651
9.963210768
9.963279205
9.963258152
9.963260211
9.963231688
9.963210059
9.963186742
9.963194149
9.963163685
9.963204421
9.963274391
9.96325278
9.963254675
9.963225911
9.963204061
9.963182545
9.963189271
9.96315818
9.963198356
9.963267707
9.963247553
9.963248775
9.963219476
9.963198451
9.963177365
9.963184154
9.963153025
9.963193053
9.963262482
9.963241364
9.963243482
9.963213608
9.963194615
9.963174344
9.963181618
9.963150593
9.96318779
9.963257391
9.963236188
9.963238432
9.963209071
9.963191144
9.963171109
9.963178993
9.963146326
9.963184209
9.963252146
9.963230125
9.963234894
9.963206037
9.963187688
9.963168205
9.963177558
9.963143337
9.963181926
9.963249382
9.963226272
)
;
    }
    inlet
    {
        type            calculated;
        value           nonuniform 0();
    }
    outlet
    {
        type            calculated;
        value           nonuniform List<scalar> 
81
(
9.963216431
9.963199384
9.963227565
9.963132506
9.96313465
9.963232958
9.963205517
9.963196918
9.963220935
9.963202516
9.963185601
9.963156942
9.9631557
9.963149901
9.963150476
9.963128114
9.963214161
9.963177696
9.963196454
9.963206156
9.963158522
9.963140589
9.963081377
9.963154669
9.96314132
9.963177154
9.963212944
9.963194567
9.963165495
9.963154091
9.963120104
9.963138109
9.963105347
9.963147153
9.963126137
9.963170885
9.963157419
9.963173323
9.96308453
9.96311814
10.01470914
9.963093489
9.963106471
9.963179934
9.963209164
9.963215274
9.963182768
9.963154828
9.963097153
9.963118219
9.963103552
9.96313684
9.963185117
9.963191994
9.963197697
9.963161556
9.963114852
9.963113821
9.963136013
9.963143219
9.963144759
9.96316538
9.963190654
9.963200464
9.963207454
9.963203078
9.963164843
9.963131094
9.963164083
9.963154999
9.963179665
9.963186689
9.963234894
9.963206037
9.963187688
9.963168205
9.963177558
9.963143337
9.963181926
9.963249382
9.963226272
)
;
    }
    procBoundary1to0
    {
        type            processor;
        value           nonuniform List<scalar> 
97
(
9.963275687
9.963275687
9.963267405
9.96330461
9.963220056
9.96322974
9.963322524
9.963281756
9.963260839
9.963277013
9.963264623
9.963258943
9.963258943
9.963258943
9.96324588
9.963248818
9.963242279
9.963241497
9.963217192
9.963289708
9.963247051
9.963278982
9.963301902
9.963260092
9.963260092
9.963260092
9.963226349
9.963110336
9.963244161
9.963239962
9.963267269
9.963287416
9.963287843
9.963272716
9.963274359
9.9630853
9.9630853
9.9630853
9.962696772
9.963072852
9.963232424
9.96322775
9.963261328
9.96325815
9.963283189
9.963198407
9.963095224
10.01036334
10.01036334
10.01036334
9.962657986
9.962657986
9.963143877
9.963275713
9.963298922
9.963310496
9.963290033
9.963276619
9.963195671
9.963100449
9.963206472
9.963216974
9.963216974
9.963216974
9.963281813
9.963278597
9.963277818
9.9632568
9.963225771
9.963233798
9.963249548
9.963265662
9.963257826
9.963254635
9.963254635
9.963254635
9.963272803
9.963264576
9.963286723
9.963293259
9.963271451
9.963240286
9.96326421
9.963252837
9.963255988
9.963253138
9.963253138
9.963253138
9.963294068
9.963274615
9.963267911
9.963262
9.963271834
9.963236072
9.963260234
9.963314239
9.963284694
)
;
    }
}


// ************************************************************************* //
