/*--------------------------------*- C++ -*----------------------------------*\
| =========                 |                                                 |
| \\      /  F ield         | OpenFOAM: The Open Source CFD Toolbox           |
|  \\    /   O peration     | Version:  4.x                                   |
|   \\  /    A nd           | Web:      www.OpenFOAM.org                      |
|    \\/     M anipulation  |                                                 |
\*---------------------------------------------------------------------------*/
FoamFile
{
    version     2.0;
    format      ascii;
    class       surfaceScalarField;
    location    "5000";
    object      phi;
}
// * * * * * * * * * * * * * * * * * * * * * * * * * * * * * * * * * * * * * //

dimensions      [1 0 -1 0 0 0 0];

internalField   nonuniform List<scalar> 
3172
(
9.428514936e-06
-2.449563331e-11
-2.593966769e-11
9.428562191e-06
-2.401605262e-11
-2.333504424e-11
9.428594766e-06
-1.642605755e-11
-1.718724477e-11
9.428614238e-06
-1.289929397e-11
-1.143105732e-11
9.428627605e-06
-7.812655885e-12
-5.822520399e-12
9.428633691e-06
-2.755560332e-12
-1.36778362e-12
9.428633934e-06
1.09586765e-12
1.521944112e-12
9.428628264e-06
2.606474236e-12
2.86182883e-12
9.428620956e-06
4.029576515e-12
4.161334359e-12
9.428611067e-06
5.041953492e-12
6.556836221e-12
9.428601699e-06
6.289146597e-12
7.239704977e-12
9.428590703e-06
7.546593303e-12
6.682525322e-12
9.428581485e-06
7.719126948e-12
6.844930689e-12
5.585708908e-12
5.514906622e-12
9.428521742e-06
-4.544677598e-11
-3.336941273e-11
9.428569627e-06
-3.841174623e-11
-3.104710953e-11
9.428596319e-06
-2.722905251e-11
-2.060203553e-11
9.428614191e-06
-1.566885151e-11
-1.077415411e-11
9.428621455e-06
-7.798962347e-12
-2.738645955e-12
9.428620544e-06
-2.402896601e-12
1.325357076e-12
9.428613653e-06
1.813103078e-12
5.053604687e-12
9.428605918e-06
5.613993495e-12
6.323908456e-12
9.42859727e-06
7.119491341e-12
6.77125305e-12
9.428586625e-06
7.049396037e-12
6.703124213e-12
9.428577943e-06
8.843119399e-12
8.190401909e-12
9.428566052e-06
7.665495482e-12
6.93885079e-12
9.428554371e-06
8.944982109e-12
6.78574312e-12
9.481224457e-12
7.821826335e-12
9.428594188e-06
-4.252267338e-11
-5.983150438e-11
9.428636103e-06
-3.53252266e-11
-5.043459845e-11
9.428656216e-06
-2.102049246e-11
-2.552257313e-11
9.428659769e-06
-1.086698869e-11
-1.057687595e-11
9.428654626e-06
-3.4991215e-12
2.02706656e-12
9.428645255e-06
2.351172331e-12
7.820080102e-12
9.428634288e-06
4.757823706e-12
1.093113681e-11
9.428618564e-06
7.25037349e-12
1.203265706e-11
9.428604823e-06
5.148627893e-12
1.010882972e-11
9.42859705e-06
5.814363562e-12
1.048391733e-11
9.428586805e-06
7.292118177e-12
1.067899141e-11
9.428577709e-06
8.688771137e-12
8.85158042e-12
9.428570316e-06
9.822090218e-12
9.477252292e-12
9.254361522e-12
7.286871471e-12
9.42853878e-06
-2.783814914e-11
-4.459908337e-11
9.428570562e-06
-1.905186757e-11
-5.459285339e-11
9.428580446e-06
-7.767625257e-12
-2.121024568e-11
9.428574743e-06
-6.826980004e-13
2.052813073e-13
9.428561801e-06
2.174151348e-12
9.478108074e-12
9.428544716e-06
3.396374299e-12
1.428903525e-11
9.428531648e-06
4.438838651e-12
1.75720671e-11
9.428514332e-06
2.40589975e-12
1.600732274e-11
9.42850501e-06
1.94460902e-12
1.612066781e-11
9.428497249e-06
3.366634449e-12
1.509647995e-11
9.428488031e-06
3.561774861e-12
1.342431303e-11
9.428481269e-06
4.422961488e-12
9.736286972e-12
9.428475176e-06
4.181690728e-12
1.101474256e-11
2.564433116e-12
7.655774813e-12
9.428609521e-06
2.719805408e-11
-6.543069408e-11
9.428615552e-06
1.870964805e-11
-4.268581683e-11
9.428603092e-06
9.420097293e-12
-1.811542645e-12
9.428581394e-06
3.515754867e-12
1.76870773e-11
9.428562704e-06
1.016045953e-12
2.114823177e-11
9.42854255e-06
-1.359695573e-12
2.207280783e-11
9.428525172e-06
-3.308457043e-12
1.968632629e-11
9.428509752e-06
-3.074642875e-12
1.840623217e-11
9.428500167e-06
-3.238638146e-12
1.878961043e-11
9.428492062e-06
-2.819388524e-12
1.588778138e-11
9.428484972e-06
-4.045340724e-12
1.316192511e-11
9.428478755e-06
-3.118545716e-12
1.052078327e-11
9.428474039e-06
-3.176918996e-12
1.135621979e-11
-1.972694973e-12
1.020086297e-11
9.428637078e-06
4.102397865e-11
-4.202522006e-11
9.428670589e-06
3.43794721e-11
-5.232552933e-11
9.428677656e-06
2.088482195e-11
-2.03354977e-11
9.428670896e-06
1.027887354e-11
-1.291231399e-13
9.428657119e-06
4.007135888e-12
9.587330045e-12
9.428637809e-06
-2.080948122e-12
1.404457099e-11
9.428623952e-06
-3.948073177e-12
1.701187726e-11
9.428607453e-06
-6.74206419e-12
1.888058958e-11
9.428598979e-06
-7.03070646e-12
1.741363149e-11
9.428590437e-06
-6.530582695e-12
1.495824028e-11
9.428584725e-06
-7.997671942e-12
1.316148182e-11
9.428575643e-06
-8.129903473e-12
9.155512305e-12
9.428570007e-06
-7.751736791e-12
1.127351211e-11
-6.685884546e-12
9.267182516e-12
9.428574662e-06
4.645200108e-11
-5.58348177e-11
9.428618153e-06
4.149990417e-11
-4.718051215e-11
9.428637249e-06
2.76126799e-11
-2.426541469e-11
9.428639909e-06
1.563175183e-11
-8.16153015e-12
9.42863526e-06
8.288899512e-12
1.169388147e-12
9.428625785e-06
1.696884947e-12
7.173691948e-12
9.428610632e-06
-3.051838883e-12
1.057099364e-11
9.428598743e-06
-4.397907771e-12
1.210765952e-11
9.428589141e-06
-5.611905833e-12
1.186257881e-11
9.428577919e-06
-7.192698057e-12
1.01284407e-11
9.428570589e-06
-7.462495555e-12
1.087875153e-11
9.428562294e-06
-9.156975661e-12
8.331193531e-12
9.428549863e-06
-1.135034022e-11
8.321003237e-12
-8.644006628e-12
8.100994495e-12
9.428517775e-06
2.68756434e-11
-3.12772566e-11
9.428563135e-06
2.306024353e-11
-2.982154002e-11
9.428591043e-06
1.568849001e-11
-1.934631744e-11
9.428609453e-06
1.121320977e-11
-9.97085821e-12
9.428615575e-06
5.499220215e-12
-5.872848769e-12
9.428615722e-06
2.748425099e-12
1.539129722e-13
9.4286111e-06
8.218276924e-13
4.077879401e-12
9.428602327e-06
-1.24959507e-12
5.355442709e-12
9.428593902e-06
-3.144046337e-12
6.620543181e-12
9.42858685e-06
-3.528037787e-12
7.568942274e-12
9.428575996e-06
-4.664514515e-12
9.350056611e-12
9.428565939e-06
-4.88925123e-12
8.855375251e-12
9.428552181e-06
-7.717570489e-12
7.833774144e-12
-7.148072933e-12
6.828978997e-12
9.428518502e-06
-2.719427043e-11
9.428563326e-06
-2.510100495e-11
9.428598224e-06
-1.636822277e-11
9.428618953e-06
-1.086613269e-11
9.428632978e-06
-7.050303713e-12
9.428639273e-06
-2.652740354e-12
9.428638452e-06
3.310884208e-14
9.428633934e-06
2.470091395e-12
9.428628057e-06
4.707485792e-12
9.428617473e-06
5.549647264e-12
9.428608621e-06
5.613896793e-12
9.428594662e-06
5.753263911e-12
9.42858469e-06
8.305820862e-12
5.962094753e-12
9.42846808e-06
-8.631291376e-11
9.428518799e-06
-3.151682527e-11
-4.395237758e-11
9.428565134e-06
-3.138091371e-11
-3.992531872e-11
9.42859744e-06
-1.971066252e-11
-2.635104633e-11
9.428612525e-06
-1.151169689e-11
-1.576928842e-11
9.42862031e-06
-5.339429359e-12
-6.539173769e-12
9.428620688e-06
-2.201732426e-13
-2.490223513e-12
9.428614167e-06
3.958876918e-12
2.187430387e-12
9.428608459e-06
6.26353161e-12
6.779014372e-12
9.428599604e-06
6.828949045e-12
7.650559241e-12
9.428589743e-06
7.214998689e-12
9.521832448e-12
9.428578818e-06
8.295596803e-12
9.441382906e-12
9.428567164e-06
7.535966406e-12
1.047879209e-11
9.428560188e-06
9.100807038e-12
1.292649324e-11
8.528296133e-12
1.089125393e-11
9.428538754e-06
-5.141035242e-11
-5.413326526e-11
9.428582357e-06
-4.880429694e-11
-5.04406218e-11
9.428602323e-06
-3.030027379e-11
-3.098226163e-11
9.428607754e-06
-1.500889007e-11
-1.32230143e-11
9.42860799e-06
-3.02911298e-12
-1.934467849e-12
9.428600779e-06
5.152008134e-12
5.022844226e-12
9.428590994e-06
8.061394988e-12
8.013637398e-12
9.428580633e-06
1.174861916e-11
1.160370056e-11
9.428571425e-06
1.195296819e-11
1.282113629e-11
9.428560623e-06
1.133286328e-11
1.284129635e-11
9.42854999e-06
1.277910054e-11
1.221613979e-11
9.428541572e-06
1.188903305e-11
9.753681565e-12
9.428534426e-06
1.291511818e-11
1.253174144e-11
9.322866665e-12
1.068961133e-11
9.428582963e-06
-4.21389891e-11
-9.603213512e-11
9.428605039e-06
-4.296742851e-11
-8.033417129e-11
9.428600525e-06
-1.895033317e-11
-3.202205662e-11
9.428587218e-06
-3.330159802e-12
-2.816465517e-12
9.428569105e-06
2.815012845e-12
1.156038482e-11
9.428552036e-06
8.352185419e-12
1.899323853e-11
9.428538469e-06
1.122899436e-11
2.068798833e-11
9.42852349e-06
1.034379649e-11
1.966008764e-11
9.428516611e-06
1.173384378e-11
1.953365292e-11
9.428511738e-06
1.128911888e-11
1.743188306e-11
9.428505347e-06
1.023804695e-11
1.574011236e-11
9.428501439e-06
9.557782855e-12
1.392371602e-11
9.428497434e-06
1.16483999e-11
1.581859213e-11
9.995998688e-12
1.451661716e-11
9.428598223e-06
-1.253152728e-11
-3.2233897e-11
9.428597172e-06
-1.452665187e-11
-7.934626718e-11
9.428576355e-06
-2.066124944e-12
-1.541936247e-11
9.428550362e-06
5.8873128e-12
1.993453089e-11
9.42852949e-06
5.67583282e-12
3.30345279e-11
9.428514835e-06
7.801237103e-12
3.721345624e-11
9.42850462e-06
5.96395113e-12
3.518274806e-11
9.428495008e-06
5.167267484e-12
3.105755317e-11
9.428490641e-06
5.65390567e-12
2.592290596e-11
9.428490263e-06
4.390209726e-12
2.270292643e-11
9.428489743e-06
3.563062304e-12
2.028748051e-11
9.428492212e-06
4.979522251e-12
1.839150116e-11
9.428492992e-06
4.857236631e-12
1.815770442e-11
5.424516709e-12
1.48712473e-11
9.428691666e-06
1.359221692e-11
5.13091243e-11
9.428621091e-06
1.526915316e-11
-2.617529856e-13
9.428567195e-06
2.980177716e-12
4.373052345e-11
9.428527501e-06
-2.712026386e-12
6.374277913e-11
9.428504643e-06
-4.508176438e-12
5.891680512e-11
9.42848792e-06
-5.916197178e-12
5.087516682e-11
9.42848056e-06
-6.065263482e-12
4.289615162e-11
9.428476984e-06
-3.260875251e-12
3.461809575e-11
9.428473042e-06
-6.352830446e-12
2.718401854e-11
9.428476233e-06
-5.793412553e-12
2.331645874e-11
9.428481756e-06
-4.859973444e-12
2.136240701e-11
9.428481961e-06
-5.557583269e-12
1.571974038e-11
9.428486917e-06
-4.888509952e-12
1.873755552e-11
-4.957444398e-12
1.416129307e-11
9.428590254e-06
4.088900754e-11
-3.252316934e-11
9.428590948e-06
4.234099497e-11
-7.981519487e-11
9.428571257e-06
1.826803831e-11
-1.464881232e-11
9.428545723e-06
3.19278042e-12
1.955533047e-11
9.4285259e-06
-3.172151707e-12
3.247422467e-11
9.428507302e-06
-8.934045799e-12
3.570221315e-11
9.428500301e-06
-9.906073246e-12
3.595571537e-11
9.428490395e-06
-1.286839204e-11
3.060819262e-11
9.42848792e-06
-1.225773254e-11
2.713803367e-11
9.428488272e-06
-1.161451479e-11
2.414490267e-11
9.428487384e-06
-1.086720631e-11
2.091807849e-11
9.428489899e-06
-9.88088342e-12
1.819126425e-11
9.42848875e-06
-1.105559531e-11
1.785808519e-11
-8.424056887e-12
1.486965121e-11
9.428554782e-06
5.20660172e-11
-9.404770682e-11
9.428577485e-06
5.200443654e-11
-7.93223791e-11
9.428571964e-06
3.094431827e-11
-3.258860502e-11
9.428556559e-06
1.486384897e-11
-3.99873087e-12
9.428539056e-06
3.008998548e-12
1.068922396e-11
9.428521672e-06
-4.813575451e-12
1.854739688e-11
9.428505595e-06
-9.35578776e-12
2.09295231e-11
9.428494968e-06
-1.221467068e-11
2.046985056e-11
9.428488182e-06
-1.167567798e-11
2.120312772e-11
9.42848514e-06
-1.068986207e-11
1.986506112e-11
9.42848043e-06
-9.856864973e-12
1.728717496e-11
9.428475597e-06
-8.984926222e-12
1.496785002e-11
9.428473236e-06
-1.200955407e-11
1.561303747e-11
-1.09746262e-11
1.290964244e-11
9.428570548e-06
3.215657325e-11
-5.093927451e-11
9.428610325e-06
2.89887531e-11
-5.103912705e-11
9.428630092e-06
1.874365328e-11
-3.138168705e-11
9.428633633e-06
1.017623324e-11
-1.522210228e-11
9.428634963e-06
5.75649455e-12
-3.456072553e-12
9.428627065e-06
-1.633485745e-13
3.672310127e-12
9.42861438e-06
-4.299413039e-12
8.006014207e-12
9.428607338e-06
-4.019431824e-12
1.217658912e-11
9.428597167e-06
-5.550670278e-12
1.385513733e-11
9.428586666e-06
-6.432645418e-12
1.267347759e-11
9.428576219e-06
-7.855730005e-12
1.242336542e-11
9.42856749e-06
-7.89672601e-12
1.147500569e-11
9.428561843e-06
-7.486135036e-12
1.217121945e-11
-7.102756332e-12
9.303023447e-12
9.42850385e-06
-4.528310425e-11
9.428550086e-06
-4.099229172e-11
9.428576886e-06
-2.696072757e-11
9.428593557e-06
-1.643974515e-11
9.428601236e-06
-8.871441193e-12
9.428600033e-06
-3.670374375e-12
9.428593777e-06
6.676493073e-13
9.42858559e-06
3.782260093e-12
9.428575878e-06
5.728881697e-12
9.428566249e-06
6.985420094e-12
9.428555996e-06
6.956508091e-12
9.428545222e-06
7.411270669e-12
9.428535145e-06
8.609866229e-12
8.463361731e-12
9.428515166e-06
-1.466130768e-10
-1.045541754e-10
9.428567542e-06
-5.930729835e-11
-4.293197649e-11
9.428610531e-06
-4.822180991e-11
-3.529566183e-11
9.428629896e-06
-2.457520693e-11
-1.988777741e-11
9.428631183e-06
-7.76874514e-12
-9.000041632e-12
9.428624837e-06
1.174308885e-12
-1.727245205e-12
9.428616595e-06
8.46495709e-12
3.842053284e-12
9.428604463e-06
1.212229166e-11
4.976018029e-12
9.42859059e-06
1.1999495e-11
5.883528453e-12
9.428578779e-06
1.244454779e-11
7.186666965e-12
9.428567485e-06
1.144287256e-11
6.533199365e-12
9.428559789e-06
1.200343904e-11
8.762833635e-12
9.428550354e-06
8.427236592e-12
8.3618024e-12
9.428541803e-06
9.677987868e-12
9.236583717e-12
9.771195791e-12
8.265321851e-12
9.428599819e-06
-1.968255936e-10
9.428632034e-06
-9.351677071e-11
-4.348435787e-11
9.428653198e-06
-7.936254614e-11
-4.34276776e-11
9.428649387e-06
-3.208572368e-11
-1.849410205e-11
9.428632014e-06
-3.992309758e-12
-4.229496414e-12
9.428614426e-06
9.844192562e-12
4.395458676e-12
9.428597628e-06
1.886928096e-11
9.61818511e-12
9.428584126e-06
2.147726256e-11
1.160137558e-11
9.428572556e-06
2.076789199e-11
1.167321686e-11
9.428563629e-06
1.956842792e-11
1.105189146e-11
9.42855705e-06
1.773799454e-11
1.157674679e-11
9.42855018e-06
1.623740289e-11
1.03671585e-11
9.428549767e-06
1.580010551e-11
1.130074859e-11
9.428545486e-06
1.581113398e-11
1.179297594e-11
1.371361086e-11
9.484020538e-12
9.428694301e-06
-7.449836638e-11
-7.634490067e-11
9.428653373e-06
-5.60757472e-11
-5.868386714e-11
9.42859153e-06
-3.234869292e-12
-3.085309058e-12
9.428543376e-06
1.917973918e-11
1.947994181e-11
9.428511946e-06
2.436096815e-11
2.684321723e-11
9.428493732e-06
2.728918547e-11
2.778044272e-11
9.428485452e-06
2.556577239e-11
2.513725111e-11
9.428480469e-06
2.262003391e-11
2.258507148e-11
9.428480845e-06
1.880234182e-11
2.008618348e-11
9.428484464e-06
1.691995022e-11
1.61560919e-11
9.428487577e-06
1.572423507e-11
1.363331416e-11
9.428491706e-06
1.393530011e-11
1.301589568e-11
9.428497564e-06
1.458818606e-11
1.419515555e-11
1.086439203e-11
1.044126887e-11
9.4286427e-06
1.894647707e-11
1.295161648e-10
9.428535206e-06
-2.876294439e-12
-2.880350866e-11
9.42845739e-06
1.811037842e-11
4.326794678e-11
9.428413492e-06
2.340326934e-11
6.532682517e-11
9.428397906e-06
1.884925143e-11
5.787595497e-11
9.42839785e-06
1.542770843e-11
4.751148218e-11
9.428407645e-06
1.244293881e-11
3.768975418e-11
9.428419816e-06
9.160662904e-12
2.910665932e-11
9.428434508e-06
8.159061184e-12
2.4437058e-11
9.428447206e-06
5.518946837e-12
2.039858171e-11
9.428459954e-06
5.478534805e-12
1.697242109e-11
9.428470843e-06
3.328697144e-12
1.446996523e-11
9.428483273e-06
5.548874539e-12
1.634929729e-11
5.219264235e-12
1.360299467e-11
9.42871976e-06
-1.803911322e-11
7.325128389e-10
9.428424166e-06
3.21849986e-12
2.887973402e-10
9.428313407e-06
-1.730343746e-11
1.891621517e-10
9.428280346e-06
-2.146998797e-11
1.430833335e-10
9.428285007e-06
-1.777939775e-11
9.457256169e-11
9.42830336e-06
-1.547220918e-11
6.296318409e-11
9.428326503e-06
-1.187955655e-11
4.44213039e-11
9.428347974e-06
-8.462807885e-12
3.209864336e-11
9.42836717e-06
-7.900420111e-12
2.411452506e-11
9.428385586e-06
-6.658695126e-12
2.025518979e-11
9.428398788e-06
-6.799729564e-12
1.615767901e-11
9.428415227e-06
-4.006215953e-12
1.566243783e-11
9.428429491e-06
-5.628355409e-12
1.603642878e-11
-3.951494628e-12
1.312716093e-11
9.428658007e-06
7.567594106e-11
1.297355816e-10
9.428551132e-06
5.839479999e-11
-2.813423831e-11
9.428471717e-06
3.468535981e-12
4.255017442e-11
9.428428497e-06
-2.018061341e-11
6.434583076e-11
9.42841332e-06
-2.522942203e-11
5.746703299e-11
9.428414954e-06
-2.716875997e-11
4.858370484e-11
9.428422227e-06
-2.599422743e-11
3.828421347e-11
9.428433645e-06
-2.357316406e-11
2.982345059e-11
9.428447009e-06
-1.947969447e-11
2.491712568e-11
9.428461362e-06
-1.650626686e-11
2.155517555e-11
9.428473412e-06
-1.567601592e-11
1.800739535e-11
9.428485844e-06
-1.371834985e-11
1.524214015e-11
9.428497881e-06
-1.405540344e-11
1.570063106e-11
-1.051879241e-11
1.378029949e-11
9.428675803e-06
9.484979418e-11
-7.508896389e-11
9.428633526e-06
7.897621068e-11
-5.845926386e-11
9.428573715e-06
3.238379153e-11
-2.488303192e-12
9.428525877e-06
3.595908471e-12
1.936277687e-11
9.428492072e-06
-1.24266077e-11
2.613260478e-11
9.428473564e-06
-1.957147716e-11
2.716599273e-11
9.428465741e-06
-2.171730509e-11
2.518801337e-11
9.428462811e-06
-2.126326268e-11
2.330640372e-11
9.428463421e-06
-1.958208584e-11
1.966916221e-11
9.42846561e-06
-1.881878541e-11
1.750723332e-11
9.42847165e-06
-1.537983225e-11
1.518871921e-11
9.428476729e-06
-1.29155449e-11
1.593569222e-11
9.428481292e-06
-1.522377205e-11
1.518666198e-11
-1.431463782e-11
1.108981874e-11
9.428602301e-06
5.562291094e-11
-4.473393788e-11
9.428624321e-06
4.684795506e-11
-4.370713857e-11
9.428621067e-06
2.390792511e-11
-1.952990723e-11
9.428605152e-06
7.041102052e-12
-3.907421102e-12
9.428588317e-06
-8.679867023e-13
5.17930015e-12
9.42857148e-06
-8.282455772e-12
9.113288706e-12
9.428556131e-06
-1.199748837e-11
1.050647949e-11
9.428545733e-06
-1.313133973e-11
1.037211658e-11
9.428535235e-06
-1.285581835e-11
1.049742767e-11
9.428529944e-06
-1.204328158e-11
1.084161871e-11
9.428524232e-06
-1.2724677e-11
9.02919895e-12
9.428521446e-06
-1.054406261e-11
1.04664165e-11
9.428516576e-06
-1.057385056e-11
1.107959657e-11
-8.010526883e-12
9.493902787e-12
9.428580719e-06
-4.063396261e-11
9.428624345e-06
-3.54112046e-11
9.428642457e-06
-2.051495759e-11
9.428645158e-06
-8.938420553e-12
9.42863856e-06
-2.267530644e-12
9.428628445e-06
2.725905263e-12
9.428617359e-06
4.139479156e-12
9.428606006e-06
5.614191394e-12
9.428595613e-06
6.851824689e-12
9.428583584e-06
7.386157131e-12
9.428576484e-06
7.97007839e-12
9.428567291e-06
8.018798402e-12
9.428557548e-06
8.814244909e-12
7.485618321e-12
9.428567166e-06
-2.195229454e-10
-9.674360486e-11
9.428598601e-06
-4.476648961e-11
-2.726414259e-11
9.428632015e-06
-5.339779166e-11
-1.744961637e-11
9.42863908e-06
-2.013221779e-11
-7.940813291e-12
9.428632661e-06
2.214143148e-14
-2.450457088e-12
9.428619106e-06
1.03221732e-11
5.4625846e-13
9.428602407e-06
1.552198271e-11
2.311519491e-12
9.428589638e-06
1.800188197e-11
3.948564168e-12
9.428573446e-06
1.713143552e-11
2.936366805e-12
9.428561052e-06
1.626800765e-11
3.924441538e-12
9.428552583e-06
1.561967233e-11
4.286022818e-12
9.428542282e-06
1.169623736e-11
3.170537966e-12
9.42853787e-06
1.171045229e-11
2.015451022e-12
9.428532169e-06
1.146304398e-11
1.663827558e-12
1.067464176e-11
1.749092996e-12
9.428656568e-06
-5.171396632e-10
-1.956222984e-10
9.428613867e-06
-2.957719272e-11
-1.328451477e-11
9.428612262e-06
-7.934964232e-11
-1.499323449e-11
9.428591791e-06
-1.526426283e-11
-2.844949398e-12
9.428564204e-06
1.951770672e-11
3.363900187e-12
9.42854156e-06
3.2489197e-11
5.100267694e-12
9.428524985e-06
3.656958075e-11
5.472778559e-12
9.428513732e-06
3.502949084e-11
5.830781841e-12
9.428507275e-06
3.139175735e-11
5.056005966e-12
9.428503744e-06
2.750244306e-11
4.188834995e-12
9.428500658e-06
2.166941086e-11
4.646512708e-12
9.428502246e-06
1.894867033e-11
4.223013347e-12
9.428502418e-06
1.669584231e-11
2.176582427e-12
9.428504099e-06
1.871928881e-11
2.757063902e-12
1.446783251e-11
1.435154158e-12
9.428902133e-06
-5.733195222e-10
9.428651371e-06
1.30281034e-10
1.784661235e-11
9.428546155e-06
-2.663887527e-11
-3.36691243e-12
9.428468201e-06
4.348464469e-11
1.733637257e-11
9.428424783e-06
6.46920682e-11
2.212182559e-11
9.428408879e-06
5.647592e-11
1.918383581e-11
9.428410362e-06
4.78100508e-11
1.417509962e-11
9.428422287e-06
3.925319426e-11
1.219096088e-11
9.428433584e-06
3.02049191e-11
1.011277929e-11
9.428444632e-06
2.343419778e-11
7.071632512e-12
9.428459609e-06
2.077539275e-11
6.676724177e-12
9.428471745e-06
1.90171058e-11
5.652029072e-12
9.428482393e-06
1.527079915e-11
5.077883074e-12
9.428493794e-06
1.695410855e-11
4.568606505e-12
1.343717797e-11
3.535879007e-12
9.428159135e-06
4.432660206e-10
4.429440002e-10
9.428121472e-06
-6.372503824e-12
-6.201207321e-12
9.42813127e-06
3.790042828e-11
3.917414658e-11
9.428167579e-06
4.611350276e-11
4.570560304e-11
9.428218476e-06
3.215258093e-11
3.241555668e-11
9.428269807e-06
2.329044129e-11
2.327943885e-11
9.428316528e-06
1.682908313e-11
1.679539182e-11
9.428355946e-06
1.210963309e-11
1.332267083e-11
9.428387666e-06
7.945976378e-12
1.020309457e-11
9.428414476e-06
7.875672403e-12
6.561349295e-12
9.428436785e-06
6.588115144e-12
4.609804657e-12
9.428456048e-06
4.884809116e-12
5.376915136e-12
9.428474258e-06
5.38438978e-12
5.396902607e-12
4.566128316e-12
4.028466228e-12
9.42777755e-06
-4.426313708e-10
3.240843847e-09
9.427771777e-06
5.791361154e-12
2.811687126e-10
9.427922134e-06
-3.83756506e-11
1.202046799e-10
9.428060451e-06
-4.559925009e-11
9.708745708e-11
9.428169574e-06
-3.248030025e-11
5.077080961e-11
9.428254749e-06
-2.232078339e-11
2.914937262e-11
9.428317578e-06
-1.647852042e-11
1.932136881e-11
9.428366385e-06
-1.204580824e-11
1.375877509e-11
9.428404724e-06
-8.610151191e-12
1.015804803e-11
9.428432014e-06
-6.920314298e-12
5.96970818e-12
9.428458591e-06
-5.174770094e-12
5.92321706e-12
9.428477106e-06
-4.544938852e-12
4.689900253e-12
9.428500584e-06
-5.803527483e-12
6.678210038e-12
-3.229561582e-12
3.524817541e-12
9.428146294e-06
-1.298888408e-10
4.409596683e-10
9.4281087e-06
2.73906977e-11
-8.389223439e-12
9.428119016e-06
-4.173727303e-11
3.691275559e-11
9.428154464e-06
-6.510244984e-11
4.531236271e-11
9.428205273e-06
-5.601641544e-11
3.280718418e-11
9.428255102e-06
-4.901610201e-11
2.302007441e-11
9.428301825e-06
-3.901863949e-11
1.728647592e-11
9.428341323e-06
-3.0403111e-11
1.306239433e-11
9.428372723e-06
-2.544765495e-11
8.542378737e-12
9.428399518e-06
-2.108394304e-11
5.905642364e-12
9.428420854e-06
-1.864992042e-11
5.533895787e-12
9.428439092e-06
-1.360355909e-11
4.368161251e-12
9.42846262e-06
-1.451984133e-11
6.899276841e-12
-1.307437991e-11
4.024608708e-12
9.428645125e-06
2.940922e-11
1.600311162e-11
9.428541914e-06
7.906302551e-11
-3.690885268e-12
9.428461502e-06
1.496147249e-11
1.548813241e-11
9.428419613e-06
-1.993280362e-11
2.26075113e-11
9.428402199e-06
-3.291936827e-11
1.875593723e-11
9.428403486e-06
-3.67694755e-11
1.458505647e-11
9.428414989e-06
-3.608119658e-11
1.167344388e-11
9.428425532e-06
-3.254421204e-11
8.492334497e-12
9.428441235e-06
-2.773254713e-11
7.538478431e-12
9.428453364e-06
-2.326954648e-11
5.661853416e-12
9.42846803e-06
-2.073236481e-11
5.656509372e-12
9.428475503e-06
-1.817850129e-11
3.030753472e-12
9.428487659e-06
-1.903255545e-11
4.512209669e-12
-1.583833465e-11
3.955677312e-12
9.428580902e-06
4.421410816e-11
-1.471621706e-11
9.428579621e-06
5.263946613e-11
-1.43951821e-11
9.42855811e-06
2.03507466e-11
-3.039059546e-12
9.42852975e-06
-4.138767776e-13
5.47221025e-12
9.42850777e-06
-1.026811225e-11
6.838882019e-12
9.428489411e-06
-1.59707965e-11
6.321794472e-12
9.428479043e-06
-1.863057019e-11
7.55518426e-12
9.428470424e-06
-1.75374092e-11
5.500226021e-12
9.428466035e-06
-1.598539653e-11
5.855238882e-12
9.428463434e-06
-1.473102583e-11
4.245547781e-12
9.428464311e-06
-1.376856649e-11
3.472790209e-12
9.42846277e-06
-1.282972814e-11
3.076887137e-12
9.428462756e-06
-1.253358859e-11
4.016903216e-12
-9.956262556e-12
3.403115258e-12
9.428574209e-06
-2.835900725e-11
9.428608926e-06
-1.752726709e-11
9.428617939e-06
-8.050252798e-12
9.428609489e-06
-1.444554834e-12
9.428596621e-06
1.284701327e-12
9.428579229e-06
1.871756058e-12
9.428566245e-06
3.790262201e-12
9.428552041e-06
4.534222347e-12
9.428539551e-06
3.359421385e-12
9.428528825e-06
4.468353571e-12
9.428523707e-06
4.20990885e-12
9.42851628e-06
3.31325783e-12
9.428509802e-06
4.75321305e-12
2.465268384e-12
9.428618651e-06
-5.404839499e-10
9.525231947e-11
9.428629546e-06
-6.691168016e-11
2.682780854e-11
9.428638476e-06
-4.270618558e-11
1.604184543e-11
9.428624066e-06
-5.539390742e-13
7.387419711e-12
9.428603633e-06
1.817359638e-11
1.70298162e-12
9.428581469e-06
2.285048847e-11
-3.62731474e-13
9.428561655e-06
2.242399451e-11
-1.937291803e-12
9.428544267e-06
2.252395973e-11
-2.572842883e-12
9.428531126e-06
2.070560225e-11
-2.49831145e-12
9.428518138e-06
1.730713118e-11
-2.597771536e-12
9.428509428e-06
1.43436731e-11
-3.811306217e-12
9.428503756e-06
1.291318747e-11
-3.334405721e-12
9.428500574e-06
1.275682547e-11
-3.630525695e-12
9.428495102e-06
1.234699786e-11
-4.234675203e-12
1.077754464e-11
-3.508122467e-12
9.428862761e-06
-1.521951008e-09
1.934796512e-10
9.428716127e-06
5.361764735e-11
1.374641019e-11
9.428643739e-06
-4.866801723e-13
1.419687168e-11
9.428589761e-06
4.358339364e-11
1.98775694e-12
9.428553167e-06
6.396264433e-11
-3.557700739e-12
9.42852565e-06
5.964952328e-11
-7.005178979e-12
9.428512823e-06
5.110563864e-11
-5.215308099e-12
9.428504166e-06
4.275524601e-11
-4.915771051e-12
9.428498826e-06
3.551665867e-11
-4.413515456e-12
9.428499268e-06
2.804671711e-11
-3.434739241e-12
9.428498816e-06
2.354550954e-11
-2.842695149e-12
9.428501091e-06
1.98785059e-11
-2.499567144e-12
9.428504462e-06
1.775646456e-11
-2.879135426e-12
9.428510112e-06
1.940525173e-11
-3.144408654e-12
1.660871979e-11
-3.750765922e-12
9.429370057e-06
-4.055745947e-09
5.720535106e-10
9.428727577e-06
7.323792139e-10
-1.837635966e-11
9.428432943e-06
2.900797806e-10
3.30694158e-12
9.428318882e-06
1.907019319e-10
-1.802973825e-11
9.428286005e-06
1.429819219e-10
-2.119038422e-11
9.428285186e-06
9.157079737e-11
-1.939083209e-11
9.428308642e-06
6.314338543e-11
-1.566863676e-11
9.428331815e-06
4.443054409e-11
-1.279174349e-11
9.428352031e-06
3.324363542e-11
-1.054588999e-11
9.428373858e-06
2.580211847e-11
-8.106888068e-12
9.428389793e-06
1.889844411e-11
-6.373420894e-12
9.428406507e-06
1.670978643e-11
-4.718846646e-12
9.428419536e-06
1.512536451e-11
-4.368777105e-12
9.428434188e-06
1.670351014e-11
-5.207304766e-12
1.203762836e-11
-3.852371443e-12
9.429376018e-06
1.07592325e-09
9.427757282e-06
3.241273265e-09
-4.428951618e-10
9.427755318e-06
2.817032093e-10
7.39193575e-12
9.427901321e-06
1.193952741e-10
-3.896782214e-11
9.428042256e-06
9.768867079e-11
-4.642625536e-11
9.428150065e-06
5.107084504e-11
-3.238314563e-11
9.428236223e-06
2.92824809e-11
-2.268064039e-11
9.428301288e-06
1.89309804e-11
-1.637544352e-11
9.428348849e-06
1.164192494e-11
-1.226979224e-11
9.428384024e-06
8.683299185e-12
-9.980959664e-12
9.428413063e-06
7.698899155e-12
-7.078945114e-12
9.428439918e-06
7.948486311e-12
-6.495080033e-12
9.428459077e-06
5.035171326e-12
-6.931418723e-12
9.428481479e-06
6.941296996e-12
-6.993143377e-12
4.609213919e-12
-4.39383362e-12
9.474249092e-06
-3.242431245e-09
-3.242776216e-09
9.47542477e-06
-2.833097288e-10
-2.829946383e-10
9.475947305e-06
-1.208406332e-10
-1.213968995e-10
9.476382625e-06
-9.800432935e-11
-9.808808856e-11
9.47662418e-06
-5.114610076e-11
-5.037897548e-11
9.476780448e-06
-2.912790575e-11
-2.963661745e-11
9.476888752e-06
-1.875063075e-11
-1.939599454e-11
9.476975705e-06
-1.19249092e-11
-1.227848446e-11
9.477051188e-06
-9.180945991e-12
-8.058501008e-12
9.477116715e-06
-7.43571926e-12
-6.176750805e-12
9.477179115e-06
-5.66968463e-12
-7.583675963e-12
9.477237524e-06
-4.780999358e-12
-5.705405923e-12
9.477297493e-06
-5.952684801e-12
-7.603035248e-12
-3.123142654e-12
-3.756899381e-12
9.42773759e-06
-7.332624079e-10
-4.433418203e-10
9.427736339e-06
-2.884643632e-10
6.338652065e-12
9.427882664e-06
-1.903428763e-10
-3.839326687e-11
9.428022472e-06
-1.428803572e-10
-4.514789406e-11
9.428131352e-06
-9.386279475e-11
-3.279917612e-11
9.428214278e-06
-6.547929605e-11
-2.386311247e-11
9.428277923e-06
-4.551253468e-11
-1.711932916e-11
9.428324003e-06
-3.424046082e-11
-1.245509348e-11
9.4283631e-06
-2.508271437e-11
-8.723210744e-12
9.428392403e-06
-2.057336877e-11
-7.48978225e-12
9.428416022e-06
-1.780950007e-11
-7.509322714e-12
9.428438803e-06
-1.507327017e-11
-6.447767058e-12
9.428460399e-06
-1.566190238e-11
-8.151266332e-12
-1.367028331e-11
-5.571989971e-12
9.428748878e-06
-5.316481005e-11
-1.765987615e-11
9.428451779e-06
1.10248045e-12
4.168249294e-12
9.428340374e-06
-4.248580143e-11
-1.640713429e-11
9.428305256e-06
-6.288214706e-11
-2.252187496e-11
9.428310369e-06
-5.74942733e-11
-1.804753242e-11
9.428331196e-06
-4.933619713e-11
-1.405455608e-11
9.428352171e-06
-4.269747719e-11
-1.17767982e-11
9.428372465e-06
-3.554354037e-11
-9.041676393e-12
9.428394054e-06
-2.824273837e-11
-6.410227378e-12
9.428412447e-06
-2.286484294e-11
-5.163237011e-12
9.428427084e-06
-2.219171293e-11
-4.47452492e-12
9.428442292e-06
-1.752741301e-11
-4.975495664e-12
9.428454855e-06
-1.921258328e-11
-6.342585231e-12
-1.592052999e-11
-4.537794702e-12
9.428723037e-06
6.654968359e-11
1.373302756e-11
9.428649815e-06
4.249176e-11
1.432947243e-11
9.428598548e-06
1.469177112e-12
2.015891445e-12
9.428557374e-06
-1.863471949e-11
-5.116974897e-12
9.428532886e-06
-2.261948564e-11
-6.651733554e-12
9.428518839e-06
-2.349332409e-11
-5.932000488e-12
9.428510274e-06
-2.354055361e-11
-5.120285433e-12
9.428506848e-06
-1.899510291e-11
-4.77665347e-12
9.428503335e-06
-1.778460923e-11
-5.156502134e-12
9.428503828e-06
-1.45886164e-11
-4.334011119e-12
9.428509147e-06
-1.266826924e-11
-2.211875425e-12
9.42851033e-06
-1.184794441e-11
-4.153855427e-12
9.428515079e-06
-1.133454179e-11
-4.295893545e-12
-1.001505475e-11
-3.25956942e-12
9.428674097e-06
2.707235829e-11
9.428682521e-06
1.586154272e-11
9.428670729e-06
7.02662499e-12
9.428648159e-06
1.743316616e-12
9.428628347e-06
-8.866858144e-13
9.428608593e-06
-1.077231052e-12
9.428595618e-06
-1.791750016e-12
9.428579332e-06
-2.846336408e-12
9.428569179e-06
-1.884626015e-12
9.4285582e-06
-2.906603147e-12
9.42855315e-06
-3.021902936e-12
9.428548268e-06
-3.645934501e-12
9.428542716e-06
-4.052111706e-12
-2.405572211e-12