/*--------------------------------*- C++ -*----------------------------------*\
| =========                 |                                                 |
| \\      /  F ield         | OpenFOAM: The Open Source CFD Toolbox           |
|  \\    /   O peration     | Version:  4.x                                   |
|   \\  /    A nd           | Web:      www.OpenFOAM.org                      |
|    \\/     M anipulation  |                                                 |
\*---------------------------------------------------------------------------*/
FoamFile
{
    version     2.0;
    format      ascii;
    class       volScalarField;
    location    "5000";
    object      T;
}
// * * * * * * * * * * * * * * * * * * * * * * * * * * * * * * * * * * * * * //

dimensions      [0 0 0 1 0 0 0];

internalField   nonuniform List<scalar> 
1174
(
1223.150692
1223.150844
1223.151147
1223.151496
1223.152123
1223.1526
1223.153166
1223.153823
1223.15448
1223.155471
1223.156064
1223.156727
1223.157375
1223.157821
1223.15177
1223.152045
1223.152518
1223.153226
1223.153972
1223.154662
1223.155346
1223.156011
1223.156663
1223.157331
1223.158102
1223.158657
1223.159224
1223.159808
1223.147352
1223.147923
1223.148692
1223.149444
1223.150324
1223.151188
1223.152148
1223.15301
1223.153747
1223.154733
1223.155305
1223.155732
1223.156153
1223.156497
1223.15788
1223.158784
1223.159965
1223.161024
1223.161931
1223.162921
1223.163829
1223.164573
1223.165411
1223.166058
1223.166528
1223.167081
1223.167732
1223.167932
1223.157046
1223.158059
1223.159377
1223.160814
1223.161876
1223.163034
1223.163936
1223.164857
1223.165497
1223.166214
1223.166715
1223.167111
1223.167617
1223.167822
1223.14556
1223.146304
1223.147233
1223.14839
1223.149589
1223.150446
1223.151644
1223.152534
1223.153438
1223.154205
1223.15461
1223.155161
1223.155593
1223.155683
1223.150069
1223.150594
1223.151128
1223.152085
1223.152938
1223.153788
1223.15457
1223.155238
1223.156138
1223.156703
1223.15743
1223.158021
1223.158535
1223.15905
1223.152528
1223.152908
1223.153469
1223.153996
1223.154571
1223.155127
1223.155798
1223.15642
1223.157095
1223.157646
1223.158374
1223.159057
1223.15955
1223.160046
1223.150401
1223.150576
1223.150766
1223.151029
1223.151494
1223.151968
1223.152414
1223.153128
1223.153851
1223.154471
1223.155183
1223.156063
1223.156616
1223.157105
1223.152208
1223.152168
1223.152565
1223.152918
1223.153503
1223.154003
1223.154537
1223.155263
1223.155776
1223.156602
1223.157256
1223.157904
1223.15848
1223.159172
1223.159545
1223.153064
1223.15351
1223.15412
1223.154928
1223.155677
1223.156543
1223.157216
1223.157958
1223.158652
1223.15935
1223.159876
1223.160616
1223.161083
1223.161481
1223.155168
1223.156157
1223.15732
1223.158506
1223.159704
1223.160737
1223.16155
1223.162416
1223.163194
1223.163684
1223.164051
1223.164534
1223.164814
1223.165049
1223.155516
1223.15746
1223.159224
1223.160858
1223.162091
1223.163074
1223.163702
1223.164295
1223.164614
1223.164741
1223.16499
1223.165099
1223.165312
1223.165183
1223.157105
1223.159213
1223.161095
1223.16269
1223.163991
1223.164851
1223.165515
1223.165838
1223.166176
1223.166258
1223.166383
1223.166185
1223.166084
1223.165966
1223.156392
1223.158296
1223.159965
1223.161442
1223.162626
1223.163346
1223.163999
1223.164573
1223.165101
1223.165245
1223.165503
1223.165777
1223.165743
1223.165822
1223.158694
1223.159844
1223.16094
1223.162199
1223.163491
1223.164681
1223.165528
1223.166241
1223.166942
1223.16746
1223.167827
1223.16811
1223.168364
1223.168661
1223.148987
1223.149443
1223.150483
1223.151271
1223.152124
1223.152931
1223.153636
1223.154557
1223.15532
1223.156179
1223.156527
1223.157091
1223.157783
1223.158051
1223.154281
1223.154652
1223.1551
1223.155771
1223.156399
1223.157003
1223.157743
1223.158621
1223.159329
1223.1602
1223.160911
1223.161444
1223.162
1223.162473
1223.150446
1223.150966
1223.151598
1223.152291
1223.153129
1223.154067
1223.155018
1223.155874
1223.156655
1223.157349
1223.158176
1223.158921
1223.159391
1223.15993
1223.160392
1223.148017
1223.148987
1223.149963
1223.151035
1223.152401
1223.15357
1223.154615
1223.155497
1223.156245
1223.157183
1223.157693
1223.158175
1223.158498
1223.158637
1223.159029
1223.154703
1223.157131
1223.159345
1223.160972
1223.162396
1223.163511
1223.164187
1223.164708
1223.164971
1223.165231
1223.165178
1223.165154
1223.164959
1223.164869
1223.16142
1223.165378
1223.168228
1223.169977
1223.17069
1223.17097
1223.170655
1223.170071
1223.169676
1223.169166
1223.168444
1223.167969
1223.167546
1223.167192
1223.177714
1223.181713
1223.183188
1223.183359
1223.182712
1223.18173
1223.180703
1223.17958
1223.178467
1223.177551
1223.176748
1223.175851
1223.175071
1223.174388
1223.159283
1223.163463
1223.166193
1223.167709
1223.168554
1223.168796
1223.168579
1223.168345
1223.167864
1223.167403
1223.166724
1223.16616
1223.165673
1223.165195
1223.156937
1223.159473
1223.161638
1223.163481
1223.164789
1223.165751
1223.166495
1223.166871
1223.167178
1223.167273
1223.167374
1223.167258
1223.167151
1223.166867
1223.152371
1223.153551
1223.154864
1223.156115
1223.157175
1223.158231
1223.159224
1223.15995
1223.160684
1223.161303
1223.161743
1223.16211
1223.162272
1223.16254
1223.149385
1223.149881
1223.150681
1223.151656
1223.152596
1223.153384
1223.154161
1223.154904
1223.155699
1223.156285
1223.156761
1223.157226
1223.157674
1223.158011
1223.149513
1223.150333
1223.151181
1223.152299
1223.153466
1223.15447
1223.155507
1223.156512
1223.15721
1223.158121
1223.158757
1223.159204
1223.159852
1223.160174
1223.160496
1223.152198
1223.153951
1223.155669
1223.157353
1223.158948
1223.160284
1223.161463
1223.162265
1223.162741
1223.163038
1223.16338
1223.163463
1223.163564
1223.163751
1223.163844
1223.155118
1223.159959
1223.164127
1223.166816
1223.168465
1223.169092
1223.169329
1223.169039
1223.168532
1223.167986
1223.167551
1223.166966
1223.166339
1223.165791
1223.165403
1223.185054
1223.190161
1223.190918
1223.189423
1223.187033
1223.184345
1223.181676
1223.179115
1223.176933
1223.174601
1223.173221
1223.17186
1223.170553
1223.169629
1223.230114
1223.223658
1223.213853
1223.20444
1223.196563
1223.190166
1223.184903
1223.18058
1223.177108
1223.174371
1223.172108
1223.170121
1223.168548
1223.167315
1223.186725
1223.19182
1223.192699
1223.19143
1223.188913
1223.186031
1223.183176
1223.180808
1223.178565
1223.176749
1223.175009
1223.173597
1223.172276
1223.171428
1223.160743
1223.164883
1223.167721
1223.169367
1223.170093
1223.169947
1223.169924
1223.169464
1223.168809
1223.16824
1223.167655
1223.16693
1223.166491
1223.166285
1223.158015
1223.159883
1223.161686
1223.163143
1223.164645
1223.165703
1223.166603
1223.167412
1223.167774
1223.168174
1223.168395
1223.168706
1223.168798
1223.168809
1223.1531
1223.154143
1223.155286
1223.156392
1223.157366
1223.158502
1223.15936
1223.160328
1223.161169
1223.161687
1223.162299
1223.162727
1223.163118
1223.163471
1223.153161
1223.154194
1223.155311
1223.156703
1223.157835
1223.159053
1223.160244
1223.161138
1223.162078
1223.16281
1223.16335
1223.163909
1223.164412
1223.164803
1223.1651
1223.151565
1223.15376
1223.156143
1223.157959
1223.15959
1223.160756
1223.161633
1223.162304
1223.162553
1223.162888
1223.163174
1223.16317
1223.163085
1223.163109
1223.163134
1223.169362
1223.176563
1223.180431
1223.182246
1223.182597
1223.182058
1223.18117
1223.17996
1223.178954
1223.177854
1223.176843
1223.175885
1223.175098
1223.174288
1223.173844
1223.223858
1223.2324
1223.226072
1223.216267
1223.206919
1223.199067
1223.192669
1223.187345
1223.183214
1223.179738
1223.177004
1223.174528
1223.17238
1223.170988
1223.169941
1217.198013
1217.08801
1217.024755
1216.985972
1216.960008
1216.941537
1216.927302
1216.915641
1216.905791
1216.897253
1216.889347
1216.882131
1216.875266
1216.869263
1223.235081
1223.228583
1223.218732
1223.209472
1223.201583
1223.195191
1223.189951
1223.185737
1223.182484
1223.179598
1223.177135
1223.175115
1223.173672
1223.172946
1223.173842
1223.17786
1223.179555
1223.179962
1223.179454
1223.178325
1223.177225
1223.176146
1223.17516
1223.173847
1223.173019
1223.172468
1223.1718
1223.171302
1223.152948
1223.1552
1223.157147
1223.15875
1223.159953
1223.160912
1223.161464
1223.161862
1223.162215
1223.16245
1223.162476
1223.16235
1223.162422
1223.162312
1223.148568
1223.149396
1223.150672
1223.151814
1223.152965
1223.154019
1223.154929
1223.155921
1223.156552
1223.157199
1223.157616
1223.158112
1223.158457
1223.158796
1223.146658
1223.147487
1223.148314
1223.14944
1223.150686
1223.151601
1223.152716
1223.15365
1223.1545
1223.155249
1223.156054
1223.156545
1223.157166
1223.157661
1223.157966
1223.149916
1223.151785
1223.153634
1223.155523
1223.157256
1223.158486
1223.159429
1223.160283
1223.160818
1223.161312
1223.161464
1223.161619
1223.161836
1223.161924
1223.161941
1223.154683
1223.159568
1223.163678
1223.166365
1223.167824
1223.168643
1223.168946
1223.168777
1223.168152
1223.167902
1223.167463
1223.166761
1223.166121
1223.165633
1223.165373
1223.176943
1223.188321
1223.193425
1223.194135
1223.192575
1223.190014
1223.187139
1223.18461
1223.182086
1223.179772
1223.177911
1223.176213
1223.174962
1223.173605
1223.172472
1223.223316
1223.231816
1223.225405
1223.215733
1223.206378
1223.198517
1223.192209
1223.187024
1223.182918
1223.179352
1223.176545
1223.174243
1223.172283
1223.17088
1223.169893
1223.175773
1223.187212
1223.192297
1223.192948
1223.191498
1223.189098
1223.186373
1223.183542
1223.181165
1223.179022
1223.177116
1223.175307
1223.173677
1223.172448
1223.171596
1223.162568
1223.166542
1223.16941
1223.170964
1223.171702
1223.171661
1223.171452
1223.17089
1223.170292
1223.169611
1223.169131
1223.168454
1223.168021
1223.167546
1223.151355
1223.153336
1223.15505
1223.156508
1223.157777
1223.158885
1223.159703
1223.160493
1223.16081
1223.161167
1223.161396
1223.161449
1223.161516
1223.161545
1223.15086
1223.151611
1223.152762
1223.153851
1223.155049
1223.156141
1223.157037
1223.157816
1223.158547
1223.159244
1223.159703
1223.160086
1223.160514
1223.160914
1223.150565
1223.150848
1223.151354
1223.152104
1223.152935
1223.154019
1223.15475
1223.155559
1223.156559
1223.157361
1223.158148
1223.15862
1223.159118
1223.159695
1223.160044
1223.153717
1223.154466
1223.155441
1223.156626
1223.157671
1223.158746
1223.159774
1223.160829
1223.161652
1223.16223
1223.162809
1223.163444
1223.163967
1223.164242
1223.164544
1223.158299
1223.160706
1223.163013
1223.165195
1223.16698
1223.168255
1223.169109
1223.169707
1223.170094
1223.170347
1223.170303
1223.170387
1223.170466
1223.170521
1223.170361
1223.160086
1223.164954
1223.168832
1223.171812
1223.173431
1223.174297
1223.17442
1223.174141
1223.173872
1223.17327
1223.17261
1223.172144
1223.17139
1223.170749
1223.170477
1223.162948
1223.169916
1223.173895
1223.175611
1223.176017
1223.175346
1223.174671
1223.173763
1223.172627
1223.171585
1223.170701
1223.169809
1223.168876
1223.168093
1223.167595
1223.156232
1223.161317
1223.165373
1223.167996
1223.169785
1223.17051
1223.170788
1223.170759
1223.170337
1223.16984
1223.169262
1223.168682
1223.16795
1223.167303
1223.166816
1223.15428
1223.156321
1223.158589
1223.160932
1223.1625
1223.163952
1223.164916
1223.165695
1223.166219
1223.166489
1223.166705
1223.166773
1223.166798
1223.166576
1223.166531
1223.154026
1223.155328
1223.156649
1223.157725
1223.158796
1223.159888
1223.1608
1223.16152
1223.162178
1223.162525
1223.162969
1223.163572
1223.163936
1223.164013
1223.151303
1223.152071
1223.152815
1223.153552
1223.154282
1223.155171
1223.156188
1223.157117
1223.157927
1223.158658
1223.159473
1223.159969
1223.160586
1223.160848
1223.151907
1223.152162
1223.152537
1223.15294
1223.153426
1223.154131
1223.154911
1223.15564
1223.156232
1223.156886
1223.157692
1223.158271
1223.158917
1223.159307
1223.159673
1223.149402
1223.149755
1223.150174
1223.150951
1223.151853
1223.152729
1223.153602
1223.15439
1223.155316
1223.15616
1223.156806
1223.157678
1223.15813
1223.158589
1223.158811
1223.148969
1223.149732
1223.15079
1223.151931
1223.153143
1223.154118
1223.155091
1223.155961
1223.156746
1223.157435
1223.158068
1223.158414
1223.158782
1223.159172
1223.159458
1223.152066
1223.153861
1223.155727
1223.157682
1223.159225
1223.160597
1223.161706
1223.162369
1223.162878
1223.163312
1223.163644
1223.163808
1223.163771
1223.16409
1223.163939
1223.156957
1223.159406
1223.161686
1223.163607
1223.164989
1223.165976
1223.166858
1223.167573
1223.167933
1223.168131
1223.168182
1223.168369
1223.168284
1223.168316
1223.168395
1223.153162
1223.154797
1223.15673
1223.158351
1223.159949
1223.161137
1223.162112
1223.162703
1223.163411
1223.163879
1223.164165
1223.16419
1223.164395
1223.164295
1223.16435
1223.153907
1223.154816
1223.155727
1223.157085
1223.158291
1223.159363
1223.160632
1223.161644
1223.162529
1223.163169
1223.16374
1223.164179
1223.164725
1223.165134
1223.165371
1223.153161
1223.153705
1223.154242
1223.154943
1223.155769
1223.156471
1223.157139
1223.158044
1223.158963
1223.159486
1223.160286
1223.160888
1223.161616
1223.162145
1223.162304
1223.153517
1223.153581
1223.154067
1223.15473
1223.155346
1223.156033
1223.15673
1223.157561
1223.158295
1223.158967
1223.15962
1223.160275
1223.160822
1223.161322
1223.148337
1223.148463
1223.148738
1223.149073
1223.149375
1223.149902
1223.150486
1223.151074
1223.151669
1223.15239
1223.153098
1223.15383
1223.15442
1223.155025
1223.155538
1223.150677
1223.150898
1223.151334
1223.151743
1223.152358
1223.152987
1223.153719
1223.15453
1223.155251
1223.155978
1223.156612
1223.157382
1223.158065
1223.158631
1223.159014
1223.151671
1223.151999
1223.152594
1223.153394
1223.154265
1223.155153
1223.155869
1223.15681
1223.157665
1223.15852
1223.159209
1223.159897
1223.160466
1223.160966
1223.161319
1223.152622
1223.153369
1223.154251
1223.155322
1223.156513
1223.157577
1223.158699
1223.159726
1223.160595
1223.161515
1223.162008
1223.162601
1223.162911
1223.163359
1223.163699
1223.151564
1223.152414
1223.153354
1223.154542
1223.155558
1223.156754
1223.157824
1223.15873
1223.159622
1223.160395
1223.161065
1223.161601
1223.162114
1223.162351
1223.16263
1223.155878
1223.156707
1223.157624
1223.158593
1223.159634
1223.160726
1223.161769
1223.162659
1223.163653
1223.1643
1223.164962
1223.165559
1223.165862
1223.166387
1223.166716
1223.152607
1223.152966
1223.153537
1223.154196
1223.155052
1223.155953
1223.156764
1223.157631
1223.158523
1223.159184
1223.159918
1223.160657
1223.161157
1223.16165
1223.161918
1223.14585
1223.146228
1223.146384
1223.146614
1223.147055
1223.147731
1223.148643
1223.149497
1223.15012
1223.150767
1223.151395
1223.152137
1223.152658
1223.153435
1223.153843
1223.149445
1223.149665
1223.149858
1223.150184
1223.150473
1223.150903
1223.151442
1223.151989
1223.152723
1223.153283
1223.15386
1223.15468
1223.155333
1223.156022
1223.156481
)
;

boundaryField
{
    top
    {
        type            zeroGradient;
    }
    bottom
    {
        type            zeroGradient;
    }
    side-walls
    {
        type            zeroGradient;
    }
    inlet
    {
        type            zeroGradient;
    }
    outlet
    {
        type            zeroGradient;
    }
    procBoundary1to0
    {
        type            processor;
        value           nonuniform List<scalar> 
97
(
1223.150416
1223.150416
1223.151485
1223.147033
1223.157344
1223.156203
1223.144743
1223.149819
1223.152267
1223.150292
1223.151879
1223.152485
1223.152485
1223.152485
1223.154092
1223.153839
1223.154476
1223.154598
1223.157713
1223.14877
1223.153909
1223.150066
1223.147329
1223.152372
1223.152372
1223.152372
1223.156603
1223.170748
1223.154359
1223.154887
1223.15146
1223.149048
1223.149005
1223.150774
1223.150644
1223.173843
1223.173843
1223.173843
1223.221588
1223.175386
1223.155736
1223.156205
1223.152249
1223.152651
1223.149623
1223.159982
1223.172634
1217.398002
1217.398002
1217.398002
1223.226453
1223.226453
1223.166699
1223.150553
1223.147556
1223.146247
1223.148739
1223.150439
1223.160256
1223.172005
1223.158975
1223.157704
1223.157704
1223.157704
1223.149774
1223.150133
1223.150274
1223.152746
1223.156625
1223.155443
1223.153616
1223.151803
1223.152578
1223.153062
1223.153062
1223.153062
1223.150888
1223.151866
1223.149066
1223.148297
1223.150836
1223.154823
1223.151863
1223.153235
1223.152957
1223.153282
1223.153282
1223.153282
1223.148166
1223.150609
1223.151372
1223.152235
1223.151002
1223.155336
1223.152469
1223.145833
1223.149363
)
;
    }
}


// ************************************************************************* //
