/*--------------------------------*- C++ -*----------------------------------*\
| =========                 |                                                 |
| \\      /  F ield         | OpenFOAM: The Open Source CFD Toolbox           |
|  \\    /   O peration     | Version:  4.x                                   |
|   \\  /    A nd           | Web:      www.OpenFOAM.org                      |
|    \\/     M anipulation  |                                                 |
\*---------------------------------------------------------------------------*/
FoamFile
{
    version     2.0;
    format      ascii;
    class       volVectorField;
    location    "5000";
    object      U;
}
// * * * * * * * * * * * * * * * * * * * * * * * * * * * * * * * * * * * * * //

dimensions      [0 1 -1 0 0 0 0];

internalField   nonuniform List<vector> 
1174
(
(0.01100027948 -1.13099858e-08 -1.062931616e-08)
(0.01100030838 -1.337162474e-08 -1.242352998e-08)
(0.01100034198 -7.620811945e-09 -8.910026636e-09)
(0.01100034516 -7.746287196e-09 -6.073657283e-09)
(0.01100033451 -4.917825689e-09 -3.031789171e-09)
(0.01100031158 -9.492870678e-10 3.013498784e-10)
(0.01100027318 7.569795104e-11 1.41903676e-09)
(0.01100023018 1.009798368e-09 3.217670518e-09)
(0.01100017758 1.362595048e-09 2.983193859e-09)
(0.01100012705 1.871641298e-09 6.881535478e-09)
(0.01100006954 3.720300997e-09 5.831591851e-09)
(0.01100001536 5.334152887e-09 5.999418231e-09)
(0.01099996833 5.18116235e-09 4.6457761e-09)
(0.01099991209 4.029089329e-09 3.483109525e-09)
(0.01100028932 -5.50077048e-08 -1.415413906e-08)
(0.01100030185 -4.833487676e-08 -1.433836044e-08)
(0.01100032744 -3.524440044e-08 -9.923236326e-09)
(0.01100031475 -2.345678126e-08 -5.521064918e-09)
(0.01100028984 -1.334153798e-08 -9.552834242e-10)
(0.01100024856 -5.95674653e-09 -6.380295963e-11)
(0.01100019592 1.960709821e-10 3.542508475e-09)
(0.01100014261 4.006304526e-09 3.643125994e-09)
(0.01100008277 7.401275405e-09 5.369482332e-09)
(0.01100002487 8.108486033e-09 5.337065392e-09)
(0.01099997235 9.385470313e-09 6.707178863e-09)
(0.01099991561 1.074171136e-08 4.7411701e-09)
(0.01099986984 1.113173151e-08 5.016501494e-09)
(0.01099982099 9.969497181e-09 6.483207581e-09)
(0.01100031768 -4.889556785e-08 -2.913942005e-08)
(0.01100029437 -4.529634139e-08 -2.743854076e-08)
(0.01100029725 -3.1304473e-08 -1.497452424e-08)
(0.01100025155 -1.828756521e-08 -8.10645994e-09)
(0.01100019144 -8.679029571e-09 2.772313511e-09)
(0.01100012465 1.627980283e-09 3.377185115e-09)
(0.01100005389 6.236587229e-09 5.557692293e-09)
(0.01099998858 9.477359252e-09 5.538287445e-09)
(0.01099991871 9.301646143e-09 3.18727207e-09)
(0.01099986331 8.809324494e-09 5.824611019e-09)
(0.01099981078 1.163697349e-08 6.02977363e-09)
(0.01099975832 1.074836392e-08 3.588630953e-09)
(0.01099971992 1.431384712e-08 3.908564685e-09)
(0.01099967903 1.357103747e-08 2.928286346e-09)
(0.01100033284 -7.070085671e-08 -1.38632726e-08)
(0.01100024562 -4.629759043e-08 -2.786135705e-08)
(0.0110002223 -2.196345667e-08 -1.257743651e-08)
(0.01100014673 -7.05860401e-09 -1.38403958e-09)
(0.0110000617 4.632838342e-10 2.775002299e-09)
(0.01099997647 4.427566893e-09 7.899101689e-09)
(0.01099989436 6.436337158e-09 1.01421666e-08)
(0.01099982099 7.162882359e-09 8.96106995e-09)
(0.01099975416 7.215823387e-09 1.005000301e-08)
(0.01099970284 7.683105919e-09 1.003841042e-08)
(0.01099965456 8.168215904e-09 7.538065474e-09)
(0.01099961146 1.00823239e-08 5.402360358e-09)
(0.01099958441 9.161703234e-09 7.21992754e-09)
(0.01099955091 9.400792713e-09 4.222340399e-09)
(0.01100042452 -7.737782309e-11 -2.585998649e-08)
(0.01100025645 -3.111734925e-10 -2.460565779e-08)
(0.01100019626 2.135950622e-11 -4.997463604e-09)
(0.01100009617 2.482269407e-09 5.808050307e-09)
(0.01099999443 2.120217321e-09 7.739811585e-09)
(0.01099990463 1.219029216e-09 1.05488391e-08)
(0.01099981905 8.784575064e-10 9.753714092e-09)
(0.01099974619 -9.380341281e-10 8.268494751e-09)
(0.01099968242 -2.147053322e-09 9.671156413e-09)
(0.01099963409 -1.902487742e-10 9.837025576e-09)
(0.01099958942 -1.863406525e-10 7.175766119e-09)
(0.01099955411 5.775207567e-11 4.46817451e-09)
(0.01099952475 5.689995921e-10 6.543038062e-09)
(0.0109995031 -4.742618028e-10 4.815026859e-09)
(0.01100033417 6.86968928e-08 -1.193066238e-08)
(0.01100024802 4.49543195e-08 -2.604389413e-08)
(0.01100022183 2.303350208e-08 -1.253375136e-08)
(0.0110001448 8.803517766e-09 -2.071015878e-09)
(0.01100006328 1.565835211e-09 3.896745919e-09)
(0.01099997327 -3.486959802e-09 8.36570235e-09)
(0.01099989299 -6.890574157e-09 1.017924411e-08)
(0.0109998197 -7.516432779e-09 1.122599436e-08)
(0.0109997554 -6.913676067e-09 1.105985885e-08)
(0.01099970393 -6.875418808e-09 8.999774031e-09)
(0.01099965609 -8.812012008e-09 8.497736449e-09)
(0.01099961582 -7.677785496e-09 4.968688623e-09)
(0.01099958388 -7.195666228e-09 7.474236648e-09)
(0.01099955373 -6.528193998e-09 5.087934802e-09)
(0.01100031825 4.945445768e-08 -2.579183998e-08)
(0.01100029798 4.827403702e-08 -2.415355218e-08)
(0.01100029723 3.275958971e-08 -1.312344899e-08)
(0.01100025312 1.679430294e-08 -4.872043102e-09)
(0.01100019233 7.923086539e-09 1.748982045e-10)
(0.01100012659 -2.281963316e-09 5.236781236e-09)
(0.0110000535 -4.892594487e-09 7.16941908e-09)
(0.01099998333 -7.849849251e-09 7.472589924e-09)
(0.01099992048 -9.566546007e-09 7.158698843e-09)
(0.01099986022 -9.686325154e-09 5.498946718e-09)
(0.01099981006 -1.14263547e-08 6.877370107e-09)
(0.01099976232 -1.269661703e-08 4.438225069e-09)
(0.01099971955 -1.376121121e-08 4.858093487e-09)
(0.01099967995 -1.04477886e-08 4.169370165e-09)
(0.0110002903 5.602392712e-08 -1.343786964e-08)
(0.01100030511 5.003626576e-08 -1.492897763e-08)
(0.01100032808 3.494615264e-08 -1.117892207e-08)
(0.01100031619 2.316369368e-08 -5.430732796e-09)
(0.01100028834 1.229695486e-08 -5.733036924e-09)
(0.01100024761 6.925392204e-09 -4.461168571e-10)
(0.01100019694 -8.585848287e-11 2.383916644e-09)
(0.01100014064 -2.976741412e-09 2.681299424e-09)
(0.01100008344 -5.637469877e-09 3.983850686e-09)
(0.01100002792 -7.395325028e-09 4.822606087e-09)
(0.01099997101 -7.666342944e-09 6.853937774e-09)
(0.01099991889 -1.025200551e-08 6.36636309e-09)
(0.01099986967 -1.220957524e-08 5.931645796e-09)
(0.01099982041 -1.121516136e-08 4.266796807e-09)
(0.01100027842 1.304491425e-08 -1.360448394e-08)
(0.01100030948 1.096820774e-08 -1.397610298e-08)
(0.01100034181 6.070556706e-09 -8.929626153e-09)
(0.01100034489 4.176128179e-09 -7.135374573e-09)
(0.01100033548 3.001607924e-09 -6.128628588e-09)
(0.01100031137 1.439915506e-10 -2.518749516e-09)
(0.01100027282 1.019930327e-09 -4.771353978e-10)
(0.01100022867 -1.294679968e-09 1.500733473e-09)
(0.01100017924 -2.242102088e-09 4.460302982e-09)
(0.01100012581 -2.586241897e-09 2.918032834e-09)
(0.01100006989 -2.898126529e-09 2.445295512e-09)
(0.01100001687 -2.182449531e-09 3.93213313e-09)
(0.01099996604 -5.239081469e-09 4.601522976e-09)
(0.0109999127 -5.131543477e-09 2.741190322e-09)
(0.01100018207 -3.619100043e-08 -9.148553773e-08)
(0.01100028881 -1.424425019e-08 -5.551181334e-08)
(0.01100030302 -1.538301022e-08 -4.871592512e-08)
(0.011000328 -8.601125522e-09 -3.3597587e-08)
(0.01100031748 -5.855326095e-09 -2.25752806e-08)
(0.01100028898 -2.44948851e-09 -1.156077439e-08)
(0.01100024651 7.941004539e-11 -4.105865359e-09)
(0.01100019795 3.717302806e-09 8.790323269e-10)
(0.01100013966 4.262603387e-09 3.773416644e-09)
(0.01100008485 3.915830121e-09 7.250575552e-09)
(0.01100002796 5.28126351e-09 1.013298176e-08)
(0.01099997321 6.472567346e-09 1.174047518e-08)
(0.01099991404 5.595026806e-09 1.131587434e-08)
(0.01099987332 6.823808968e-09 1.213210881e-08)
(0.01099982159 6.328471811e-09 1.146435072e-08)
(0.01100030359 -6.986826546e-08 -7.172232817e-08)
(0.01100027861 -6.346048972e-08 -6.366853556e-08)
(0.01100028309 -4.139802702e-08 -4.211458195e-08)
(0.01100024067 -2.319086269e-08 -2.095498833e-08)
(0.01100018805 -1.11275616e-08 -7.661349635e-09)
(0.01100012937 1.041590748e-10 1.63239963e-09)
(0.01100006315 6.009076896e-09 7.578779477e-09)
(0.01100000107 1.082160249e-08 1.08570265e-08)
(0.01099994243 1.205896834e-08 1.25310807e-08)
(0.01099988647 1.280064706e-08 1.279698998e-08)
(0.01099983472 1.412210436e-08 1.362386286e-08)
(0.01099978816 1.329114596e-08 1.212217565e-08)
(0.01099975127 1.557970469e-08 1.446407105e-08)
(0.01099970971 1.368431741e-08 1.28987384e-08)
(0.01100033579 -4.722251492e-08 -1.264545102e-07)
(0.01100021473 -5.927229731e-08 -1.001013857e-07)
(0.01100016479 -3.423732745e-08 -5.002158026e-08)
(0.01100006849 -1.463347934e-08 -1.767950943e-08)
(0.01099997399 1.169087111e-10 2.429938524e-09)
(0.01099988805 9.388549399e-09 1.332852302e-08)
(0.01099981217 1.326332023e-08 1.934899518e-08)
(0.01099974543 1.592481168e-08 2.119816798e-08)
(0.01099969328 1.789676383e-08 2.139763227e-08)
(0.01099965081 1.694957313e-08 2.064458697e-08)
(0.01099961116 1.583353e-08 1.959327429e-08)
(0.01099958263 1.557344121e-08 1.671930939e-08)
(0.010999559 1.771761891e-08 1.909328605e-08)
(0.01099953956 1.33321748e-08 1.691396009e-08)
(0.01100029332 -7.113609545e-08 -1.084522279e-07)
(0.0110000089 -4.624758615e-08 -1.096802678e-07)
(0.0109999239 -1.150868147e-08 -3.994421848e-08)
(0.01099978751 6.591053032e-09 1.076180299e-09)
(0.01099967536 1.149640202e-08 2.096457177e-08)
(0.01099958826 1.517092028e-08 3.038538196e-08)
(0.01099952089 1.508672986e-08 3.389516483e-08)
(0.01099947398 1.269504539e-08 3.269860948e-08)
(0.01099943788 1.285798491e-08 2.941907083e-08)
(0.01099941373 1.17599248e-08 2.759923808e-08)
(0.01099939886 1.138146038e-08 2.496458475e-08)
(0.01099938904 1.086736478e-08 2.147197027e-08)
(0.01099938749 1.147416286e-08 2.17186708e-08)
(0.01099938035 1.05788949e-08 1.677765925e-08)
(0.0110004397 8.068772952e-10 -1.426594878e-07)
(0.01099990156 1.027511105e-09 -8.556039919e-08)
(0.01099976758 7.270361778e-10 5.872135892e-10)
(0.01099961188 2.559712964e-09 3.801273918e-08)
(0.0109995005 1.170222067e-09 4.544117552e-08)
(0.01099942656 7.517976805e-10 4.650660715e-08)
(0.01099937541 -1.405852116e-10 4.152980439e-08)
(0.01099934332 1.603094505e-09 3.865355382e-08)
(0.01099932381 -7.591965374e-10 3.306723338e-08)
(0.01099931081 -2.41009745e-09 2.904804141e-08)
(0.0109993112 -8.946433111e-10 2.600402372e-08)
(0.01099931103 -4.586746959e-10 2.021776227e-08)
(0.01099931304 -2.323129959e-10 2.211152601e-08)
(0.01099931551 5.025032858e-10 1.846959749e-08)
(0.01100029228 6.969230751e-08 -1.056870854e-07)
(0.01100000838 4.512272538e-08 -1.103602072e-07)
(0.01099992463 1.234534893e-08 -3.893520401e-08)
(0.01099978645 -4.588820288e-09 9.251006634e-10)
(0.01099967583 -1.060688696e-08 2.013022636e-08)
(0.01099958473 -1.464768893e-08 2.93197427e-08)
(0.01099951892 -1.412880491e-08 3.378905492e-08)
(0.01099947108 -1.361194554e-08 3.381109129e-08)
(0.01099943803 -1.402178508e-08 3.124511977e-08)
(0.01099941386 -1.283020856e-08 2.868193078e-08)
(0.01099940039 -1.22153777e-08 2.448581562e-08)
(0.01099939263 -1.191136786e-08 2.065911124e-08)
(0.01099938664 -1.180958596e-08 2.191749114e-08)
(0.01099938136 -9.507265217e-09 1.835668287e-08)
(0.0110003332 4.73005138e-08 -1.221522659e-07)
(0.01100021537 6.224650244e-08 -9.965433341e-08)
(0.01100016635 3.510985412e-08 -4.93217744e-08)
(0.0110000665 1.270494133e-08 -1.733534446e-08)
(0.01099997423 7.958407684e-10 2.14248309e-09)
(0.01099988731 -8.881733428e-09 1.254636867e-08)
(0.01099980944 -1.33941977e-08 1.912779221e-08)
(0.01099974416 -1.728898202e-08 2.246660263e-08)
(0.01099969202 -1.762795677e-08 2.216616957e-08)
(0.01099965078 -1.555515585e-08 2.102379727e-08)
(0.01099961546 -1.429710311e-08 2.038602018e-08)
(0.01099958603 -1.305991153e-08 1.777558382e-08)
(0.01099955988 -1.610560179e-08 1.773441898e-08)
(0.01099953937 -1.321068794e-08 1.499287351e-08)
(0.01100030485 6.978105325e-08 -6.842159783e-08)
(0.01100027728 6.280804092e-08 -6.289891676e-08)
(0.01100028387 4.120890149e-08 -4.060441023e-08)
(0.01100023901 2.217282096e-08 -2.264643328e-08)
(0.01100018949 9.86066939e-09 -8.803909385e-09)
(0.01100012783 -6.93523177e-10 8.31845918e-10)
(0.01100006007 -7.773525728e-09 7.236356664e-09)
(0.01100000198 -1.134712699e-08 1.18663384e-08)
(0.0109999421 -1.142387883e-08 1.353896096e-08)
(0.01099989005 -1.18619599e-08 1.395098647e-08)
(0.01099983481 -1.217199308e-08 1.5243662e-08)
(0.01099978742 -1.143291952e-08 1.428243605e-08)
(0.01099975071 -1.420061301e-08 1.370077884e-08)
(0.01099971145 -1.248055275e-08 1.058110102e-08)
(0.0110002921 1.461325879e-08 -5.758395111e-08)
(0.01100030411 1.386340558e-08 -5.101748338e-08)
(0.01100032749 9.994718447e-09 -3.493041894e-08)
(0.01100031531 6.223752577e-09 -2.257250675e-08)
(0.01100028973 2.704909178e-09 -1.363923853e-08)
(0.01100024686 -4.512281598e-10 -4.129609023e-09)
(0.01100019547 -2.597273698e-09 5.601118586e-10)
(0.01100014309 -1.922592602e-09 4.871044825e-09)
(0.01100008255 -2.682298146e-09 7.156333595e-09)
(0.01100002797 -4.468218347e-09 8.725118955e-09)
(0.01099997278 -6.389622039e-09 9.540055431e-09)
(0.01099991642 -6.30070377e-09 1.048647792e-08)
(0.01099987018 -4.560580771e-09 1.241860242e-08)
(0.0109998214 -5.099281897e-09 1.08404911e-08)
(0.01100016537 -7.448809352e-08 -1.116815006e-07)
(0.01100031847 -2.545389993e-08 -4.826075888e-08)
(0.01100029701 -2.397797308e-08 -4.831816926e-08)
(0.01100030002 -1.109178453e-08 -3.000184173e-08)
(0.0110002511 -2.70067379e-09 -1.639239286e-08)
(0.01100019161 1.095015397e-09 -5.413783672e-09)
(0.01100012554 5.402143452e-09 6.979440398e-10)
(0.01100005541 9.531243959e-09 5.547420124e-09)
(0.01099998825 8.722594652e-09 9.601619123e-09)
(0.01099992013 9.328935452e-09 1.058799722e-08)
(0.01099986133 8.987795208e-09 1.125556796e-08)
(0.01099980999 1.025192757e-08 1.247474599e-08)
(0.01099975758 8.418182857e-09 1.341513221e-08)
(0.01099972255 9.051169907e-09 1.720279595e-08)
(0.01099967865 8.642143686e-09 1.311010276e-08)
(0.01100015209 -3.104549311e-07 -1.857020441e-07)
(0.01100033382 -1.256155558e-07 -5.063470912e-08)
(0.01100021469 -9.935079129e-08 -6.181622442e-08)
(0.01100016729 -4.964104568e-08 -3.336842703e-08)
(0.01100006753 -1.664711191e-08 -1.322951709e-08)
(0.0109999717 3.040294574e-10 8.374723059e-10)
(0.01099988677 1.386404864e-08 9.188937815e-09)
(0.01099981052 1.951395722e-08 1.343522664e-08)
(0.01099974592 2.115436452e-08 1.687476641e-08)
(0.01099969477 2.166326614e-08 1.825166095e-08)
(0.01099964951 2.010726656e-08 1.803617816e-08)
(0.0109996127 1.984361132e-08 1.585151003e-08)
(0.01099958318 1.673347366e-08 1.501883625e-08)
(0.01099955851 1.788630848e-08 1.694172278e-08)
(0.01099953999 1.698496034e-08 1.479660322e-08)
(0.01100033352 -8.803660139e-08 -9.215360149e-08)
(0.01099996251 -9.798798624e-08 -1.006036242e-07)
(0.01099980529 -3.172110165e-08 -3.139026622e-08)
(0.01099961453 5.596564914e-09 8.01801561e-09)
(0.01099948164 2.187795193e-08 2.45656972e-08)
(0.01099939376 3.300588104e-08 3.250350035e-08)
(0.01099933694 3.317002243e-08 3.228775443e-08)
(0.01099930654 3.089140933e-08 3.055971165e-08)
(0.01099929169 2.686380366e-08 2.755508702e-08)
(0.01099928787 2.518114617e-08 2.438950391e-08)
(0.01099928934 2.261484161e-08 2.047942391e-08)
(0.01099929641 2.172285828e-08 1.859235901e-08)
(0.01099930642 2.173726624e-08 2.147973261e-08)
(0.01099931619 1.738211135e-08 1.695285156e-08)
(0.01100000918 -9.466453324e-08 5.138334598e-08)
(0.01099921766 -3.395899273e-08 -1.135556482e-07)
(0.01099903715 2.710689586e-08 -3.694849332e-09)
(0.01099885103 4.691129968e-08 4.741607261e-08)
(0.01099876769 4.393747867e-08 5.819164411e-08)
(0.01099875417 3.900827525e-08 5.738217028e-08)
(0.01099877454 3.317677487e-08 5.127177411e-08)
(0.01099881474 2.528160152e-08 4.161807089e-08)
(0.01099886904 2.12996747e-08 3.617071959e-08)
(0.01099892285 1.784722113e-08 2.971244057e-08)
(0.01099897501 1.60685505e-08 2.515444756e-08)
(0.01099902456 1.205959225e-08 2.254718233e-08)
(0.01099907005 1.461198651e-08 2.357591064e-08)
(0.0109991127 1.121733744e-08 1.958385675e-08)
(0.01100007125 1.435255362e-10 4.159335467e-07)
(0.0109985344 -2.010081998e-10 7.940299352e-09)
(0.01099838672 2.334224121e-10 8.711589743e-08)
(0.01099829103 6.440907123e-10 1.136302199e-07)
(0.01099830641 1.018412243e-09 9.619875922e-08)
(0.01099838532 -1.384694884e-10 7.65397998e-08)
(0.01099848084 2.836039982e-10 6.059144696e-08)
(0.01099858111 5.805170625e-10 4.707303334e-08)
(0.01099867249 4.950802594e-10 3.630921444e-08)
(0.01099876327 -1.319865182e-09 3.114926171e-08)
(0.01099884063 -1.199912387e-09 2.566887077e-08)
(0.01099891191 1.187352702e-10 2.208203601e-08)
(0.01099897302 -1.428244698e-09 2.391430187e-08)
(0.01099903089 1.18944075e-09 1.976492201e-08)
(0.01100001028 9.644218613e-08 4.996354476e-08)
(0.01099922052 3.635812263e-08 -1.117715928e-07)
(0.01099903711 -2.576051254e-08 -2.772830581e-09)
(0.0109988481 -4.563389051e-08 4.682575827e-08)
(0.01099876593 -4.371119433e-08 5.803967838e-08)
(0.01099875468 -3.884277263e-08 5.828823522e-08)
(0.01099877349 -3.233213567e-08 5.217524017e-08)
(0.01099881711 -2.562444399e-08 4.258926755e-08)
(0.01099886712 -2.185062332e-08 3.625017541e-08)
(0.01099892184 -1.67150753e-08 3.089475127e-08)
(0.01099897521 -1.697956164e-08 2.679551022e-08)
(0.01099902576 -1.243738326e-08 2.37888347e-08)
(0.01099907044 -1.339797816e-08 2.283519005e-08)
(0.01099911373 -1.109184181e-08 2.004656288e-08)
(0.0110003353 9.014075497e-08 -9.024863983e-08)
(0.01099996224 9.870347043e-08 -9.935144636e-08)
(0.01099980299 3.210000314e-08 -3.071811819e-08)
(0.01099961787 -6.685019469e-09 6.059572499e-09)
(0.01099948067 -2.272303847e-08 2.287898911e-08)
(0.01099939069 -3.152098992e-08 3.165574426e-08)
(0.01099933667 -3.394882103e-08 3.260168618e-08)
(0.01099930417 -3.158857408e-08 3.018111766e-08)
(0.01099929066 -2.759239089e-08 2.86912228e-08)
(0.01099928546 -2.527663298e-08 2.648023301e-08)
(0.01099928991 -2.137400843e-08 2.293687716e-08)
(0.01099929962 -1.987075987e-08 2.087450002e-08)
(0.01099930645 -2.089447391e-08 2.253251113e-08)
(0.01099931505 -1.80146319e-08 1.759302001e-08)
(0.01100033205 1.236426904e-07 -4.925490287e-08)
(0.01100021382 9.80855501e-08 -6.315511899e-08)
(0.01100016664 4.928767667e-08 -3.494892095e-08)
(0.01100006795 1.602049461e-08 -1.312911077e-08)
(0.01099997368 -2.815605882e-09 6.549899971e-10)
(0.0109998863 -1.462059106e-08 9.30218183e-09)
(0.01099981091 -2.026750551e-08 1.210620889e-08)
(0.01099974737 -2.262941714e-08 1.616156838e-08)
(0.01099969383 -2.283033187e-08 1.755584318e-08)
(0.01099965004 -2.095387116e-08 1.68796131e-08)
(0.01099961408 -2.058775807e-08 1.516903675e-08)
(0.01099958317 -1.633322986e-08 1.468414183e-08)
(0.01099956014 -1.860583569e-08 1.680151489e-08)
(0.01099953588 -1.581294647e-08 1.320014736e-08)
(0.01100031593 2.563103547e-08 -4.818874444e-08)
(0.01100029735 2.374864792e-08 -4.849540108e-08)
(0.01100029851 1.340103637e-08 -3.114141848e-08)
(0.01100025259 4.922799553e-09 -1.713112669e-08)
(0.01100019408 -8.167634741e-10 -6.705793313e-09)
(0.01100012587 -5.327920624e-09 -1.650044277e-09)
(0.01100005299 -6.92097009e-09 2.838758699e-09)
(0.01099998804 -7.595823997e-09 5.942962276e-09)
(0.0109999232 -7.843954542e-09 8.536183308e-09)
(0.01099986209 -7.892994327e-09 1.031172744e-08)
(0.01099980956 -7.47839536e-09 1.075923312e-08)
(0.01099976056 -7.630332596e-09 1.075712815e-08)
(0.01099972109 -6.558270174e-09 1.238250951e-08)
(0.01099967589 -5.401781196e-09 1.12888677e-08)
(0.01100016757 -1.035240384e-07 -1.802511023e-07)
(0.01100033263 -1.263744809e-08 -7.047239271e-08)
(0.01100024809 -2.623345831e-08 -4.43412226e-08)
(0.01100022337 -1.247527352e-08 -2.21528685e-08)
(0.01100014724 -1.043666397e-09 -7.140166024e-09)
(0.01100006123 5.860777483e-09 1.08366768e-10)
(0.01099997546 8.1830729e-09 5.870262769e-09)
(0.01099989572 1.084231008e-08 7.867614677e-09)
(0.01099982245 1.016405961e-08 7.22739482e-09)
(0.01099975596 1.055935489e-08 8.562432299e-09)
(0.01099970005 1.048364713e-08 8.536423435e-09)
(0.01099965232 7.533456644e-09 9.095339966e-09)
(0.01099961252 7.256556186e-09 7.735782419e-09)
(0.01099957965 8.24797915e-09 7.833744799e-09)
(0.01099955133 8.192977028e-09 8.522725044e-09)
(0.01100014601 -4.783598307e-07 -3.708395007e-07)
(0.01100029559 -1.068872081e-07 -7.181696732e-08)
(0.01100001041 -1.103831266e-07 -4.599645288e-08)
(0.01099992326 -3.941486791e-08 -1.372230889e-08)
(0.01099978861 4.858429501e-10 3.863993143e-09)
(0.01099967234 2.093848045e-08 1.183034935e-08)
(0.01099958722 3.09119277e-08 1.491526541e-08)
(0.01099952114 3.407678236e-08 1.563897442e-08)
(0.01099947129 3.276874675e-08 1.372802568e-08)
(0.01099943931 3.020952576e-08 1.193359978e-08)
(0.01099941369 2.660377362e-08 1.097609098e-08)
(0.01099939811 2.260030864e-08 1.126899549e-08)
(0.01099938881 2.135521671e-08 9.882754659e-09)
(0.01099938561 2.202299949e-08 1.033302292e-08)
(0.01099937942 1.765217767e-08 7.83135598e-09)
(0.01099992573 -6.694139796e-07 -1.070201947e-06)
(0.01100000545 5.284858352e-08 -9.74543553e-08)
(0.01099921836 -1.115124393e-07 -3.725251447e-08)
(0.01099903878 -2.277893831e-09 2.601125133e-08)
(0.0109988509 4.737969961e-08 4.575488655e-08)
(0.01099876512 5.726897632e-08 4.549478437e-08)
(0.01099875241 5.773010788e-08 3.825353481e-08)
(0.01099877487 5.205451921e-08 3.112388153e-08)
(0.01099881799 4.31069842e-08 2.552564707e-08)
(0.01099886601 3.591972048e-08 2.185020543e-08)
(0.01099892054 2.988431176e-08 1.765523015e-08)
(0.01099897517 2.613900208e-08 1.452161611e-08)
(0.01099902514 2.225128191e-08 1.423456008e-08)
(0.01099906811 2.48878215e-08 1.388456802e-08)
(0.01099911093 1.81653024e-08 1.125887973e-08)
(0.01099814988 4.345088737e-07 4.329179229e-07)
(0.01099682921 6.263908683e-08 6.060643131e-08)
(0.01099709093 1.08118948e-07 1.085749086e-07)
(0.0109971774 1.16373284e-07 1.163701813e-07)
(0.01099738382 8.684923527e-08 8.766854638e-08)
(0.01099763094 6.467529472e-08 6.385730818e-08)
(0.01099786451 4.684014752e-08 4.577534442e-08)
(0.01099807689 3.518494255e-08 3.506132869e-08)
(0.01099826225 2.654572135e-08 2.590192841e-08)
(0.0109984211 2.09427313e-08 2.224051862e-08)
(0.01099855822 1.986428822e-08 1.728252811e-08)
(0.01099867967 1.550381945e-08 1.548024288e-08)
(0.01099877375 1.645889606e-08 1.625519524e-08)
(0.0109988646 1.483514603e-08 1.359870417e-08)
(0.01099598369 5.559056814e-10 2.84204465e-06)
(0.01099353677 -5.92859109e-10 8.071180953e-07)
(0.0109950384 -2.033727529e-10 3.8282736e-07)
(0.01099578738 3.100402883e-10 2.508864539e-07)
(0.01099641651 4.56553603e-10 1.441070134e-07)
(0.01099695472 4.259249052e-10 8.52918274e-08)
(0.01099737586 -2.074205657e-10 5.43646417e-08)
(0.01099771011 -3.775673013e-10 3.679788242e-08)
(0.01099798084 -1.031754021e-09 2.713804966e-08)
(0.01099819959 3.499872415e-10 1.951296223e-08)
(0.01099838001 6.338807706e-11 1.700489439e-08)
(0.01099853195 1.557748296e-10 1.55145406e-08)
(0.01099865095 -2.690707413e-10 1.668989764e-08)
(0.01099876614 1.165533875e-09 1.178573988e-08)
(0.01099815169 -4.342400912e-07 4.341660858e-07)
(0.01099682981 -6.290935357e-08 5.936039167e-08)
(0.01099709067 -1.079725021e-07 1.062725191e-07)
(0.01099718081 -1.16635617e-07 1.139897995e-07)
(0.01099738462 -8.744426627e-08 8.721375034e-08)
(0.01099763228 -6.423706604e-08 6.356796959e-08)
(0.01099786198 -4.647749149e-08 4.636148854e-08)
(0.01099807645 -3.406111809e-08 3.495573585e-08)
(0.01099825977 -2.572878126e-08 2.651272789e-08)
(0.01099842319 -2.059723684e-08 2.146849336e-08)
(0.01099855639 -1.800685032e-08 1.760818664e-08)
(0.01099867748 -1.331131008e-08 1.440719824e-08)
(0.01099877088 -1.541376901e-08 1.650994552e-08)
(0.01099886854 -1.381691229e-08 1.244074588e-08)
(0.01100000748 -5.327456632e-08 -9.714272177e-08)
(0.01099921883 1.125271657e-07 -3.608074936e-08)
(0.01099903895 3.091410918e-09 2.548659809e-08)
(0.01099885085 -4.679744567e-08 4.534947469e-08)
(0.01099876817 -5.645319403e-08 4.467907208e-08)
(0.01099875159 -5.870270027e-08 3.683991483e-08)
(0.01099877352 -5.255120383e-08 3.135519053e-08)
(0.01099881764 -4.472760051e-08 2.657235393e-08)
(0.01099886489 -3.794575478e-08 2.122663516e-08)
(0.01099892282 -3.172474247e-08 1.781094116e-08)
(0.01099897382 -2.779804104e-08 1.626579722e-08)
(0.01099902668 -2.347561299e-08 1.336256061e-08)
(0.01099906511 -2.460009634e-08 1.396800713e-08)
(0.01099911292 -2.032013861e-08 1.066525526e-08)
(0.01100029367 1.061709486e-07 -7.27008528e-08)
(0.0110000081 1.079287538e-07 -4.607997971e-08)
(0.01099992479 3.960922915e-08 -1.431990096e-08)
(0.01099978768 -9.688021245e-10 5.501387378e-09)
(0.01099967333 -2.127489437e-08 1.376828053e-08)
(0.01099958441 -3.137104624e-08 1.332780101e-08)
(0.01099952001 -3.579795292e-08 1.599075108e-08)
(0.01099947278 -3.361839599e-08 1.345992056e-08)
(0.01099943776 -3.062151954e-08 1.258858893e-08)
(0.01099941417 -2.65889545e-08 1.184804433e-08)
(0.01099939848 -2.394857424e-08 9.434453457e-09)
(0.01099939071 -2.094042131e-08 1.08238522e-08)
(0.01099938348 -2.195627474e-08 1.096479809e-08)
(0.01099937879 -1.846496636e-08 9.686125252e-09)
(0.0110003319 1.331849131e-08 -6.839958076e-08)
(0.01100024715 2.740108657e-08 -4.350923109e-08)
(0.01100022367 1.116269575e-08 -2.238983455e-08)
(0.01100014759 -3.994896981e-10 -6.442317611e-09)
(0.0110000596 -6.124329313e-09 -7.027228548e-10)
(0.01099997459 -8.653559056e-09 4.671953073e-09)
(0.01099989482 -1.048784689e-08 6.786379704e-09)
(0.01099982203 -1.126264088e-08 8.127021608e-09)
(0.01099975871 -9.634542917e-09 7.691076204e-09)
(0.01099969949 -1.032818778e-08 8.394227442e-09)
(0.01099965403 -1.036121507e-08 8.465684642e-09)
(0.01099961625 -8.737256864e-09 8.394520914e-09)
(0.01099957993 -8.314144734e-09 9.511594364e-09)
(0.01099955104 -6.70662351e-09 7.470830139e-09)
(0.01100015213 -2.558862257e-07 -1.320018881e-09)
(0.01100042103 -2.247548299e-08 -6.476378555e-12)
(0.01100025606 -2.21546717e-08 -9.216947477e-10)
(0.01100019851 -3.46281008e-10 -4.184534885e-10)
(0.01100009443 9.337309936e-09 -1.475820531e-09)
(0.01099999386 1.382416075e-08 -2.696524947e-10)
(0.01099990182 1.442159819e-08 -4.678552103e-10)
(0.01099981779 1.487679177e-08 6.930773779e-10)
(0.01099974499 1.375375644e-08 1.075867472e-09)
(0.01099968339 1.170353966e-08 2.021719585e-09)
(0.01099962903 8.585273024e-09 -7.447711574e-11)
(0.01099958558 1.00125089e-08 -9.543509801e-10)
(0.01099955242 1.039528094e-08 -1.154631246e-09)
(0.01099952483 1.047138407e-08 -3.078145025e-09)
(0.0109995012 8.652415593e-09 -1.639560834e-09)
(0.0110001075 -1.17953555e-06 -1.246419652e-10)
(0.011000437 -1.419998997e-07 1.875216047e-11)
(0.01099990158 -8.764409578e-08 5.377965786e-10)
(0.01099976436 1.380882149e-09 2.671585331e-10)
(0.01099961218 3.705138748e-08 7.294113132e-10)
(0.01099949939 4.531623684e-08 -1.327821935e-09)
(0.01099942506 4.46672369e-08 1.486220041e-10)
(0.0109993759 4.198779941e-08 1.130492173e-10)
(0.01099934151 3.927541142e-08 2.912765474e-10)
(0.0109993209 3.321302132e-08 1.052098671e-09)
(0.01099931397 2.816925344e-08 2.016919722e-09)
(0.01099930583 2.41151501e-08 1.384364548e-09)
(0.01099930809 2.271359177e-08 -7.86155868e-11)
(0.01099931174 2.27500411e-08 -1.144433463e-09)
(0.01099931909 1.949624569e-08 -1.488577183e-09)
(0.01099948773 -2.332063633e-06 -1.534151475e-10)
(0.01100007222 4.170136186e-07 1.771674003e-10)
(0.01099853114 9.66932264e-09 7.234372002e-10)
(0.01099838751 8.730205785e-08 -4.016064142e-10)
(0.01099829054 1.142117063e-07 6.594142126e-10)
(0.01099830444 9.494995799e-08 -1.257916062e-09)
(0.0109983852 7.781688234e-08 -9.65259077e-10)
(0.01099848148 6.18503963e-08 5.273434593e-11)
(0.01099858076 4.828489152e-08 4.432433895e-10)
(0.01099867386 3.697666139e-08 -1.014073035e-09)
(0.01099876172 3.094964019e-08 2.159414854e-10)
(0.01099884069 2.602339368e-08 7.817622843e-10)
(0.0109989116 2.334162197e-08 -3.699220603e-10)
(0.01099897219 2.474000111e-08 -1.296125394e-09)
(0.01099902886 2.121922003e-08 -1.18823813e-10)
(0.01099481461 -1.07590178e-05 -2.488827837e-11)
(0.01099597951 2.841772753e-06 1.131022498e-09)
(0.01099353695 8.072557449e-07 1.659840344e-09)
(0.01099503791 3.830817312e-07 -1.644280776e-10)
(0.01099578724 2.511907468e-07 2.216352689e-10)
(0.01099641718 1.420884348e-07 1.226658791e-09)
(0.01099695427 8.446643672e-08 1.007395148e-09)
(0.0109973763 5.292011601e-08 1.7035193e-09)
(0.01099771157 3.596732955e-08 1.228331424e-09)
(0.01099798057 2.70719833e-08 1.22264368e-09)
(0.01099820146 2.01492662e-08 -8.226863693e-10)
(0.01099837914 1.82429217e-08 -5.458810977e-10)
(0.01099853128 1.518825832e-08 -1.588287279e-09)
(0.01099865219 1.825759238e-08 -2.428971588e-10)
(0.0109987688 1.101983184e-08 1.485331811e-10)
(0.01099000685 3.165033624e-10 -1.233727554e-09)
(0.01098350792 -3.647521969e-10 -1.766354599e-09)
(0.01099042777 -9.40092872e-10 -1.348787966e-09)
(0.01099334484 7.093564379e-10 -4.867144601e-10)
(0.01099495685 1.846477066e-10 2.055833647e-10)
(0.01099603647 1.06036774e-10 -1.048816096e-09)
(0.01099676056 5.312412636e-10 6.720200145e-11)
(0.01099727078 -7.739377558e-10 9.974385643e-10)
(0.01099765412 -6.423243263e-10 1.21664249e-09)
(0.01099794903 -2.295130959e-10 -5.063091793e-10)
(0.01099818055 7.420383777e-10 -1.52774548e-09)
(0.01099837213 -8.239277928e-11 -1.267762164e-09)
(0.01099851823 2.746829551e-10 4.652164685e-11)
(0.01099866322 2.127094696e-09 -4.367690228e-10)
(0.01099598125 -2.843554157e-06 -1.252110716e-09)
(0.01099353802 -8.08786767e-07 -8.099342564e-10)
(0.01099503853 -3.839854401e-07 -6.225536533e-10)
(0.01099578707 -2.531996547e-07 8.9517438e-10)
(0.01099641761 -1.435790855e-07 5.929462805e-10)
(0.01099695514 -8.636248809e-08 -7.472388271e-11)
(0.01099737376 -5.332752409e-08 2.779112616e-10)
(0.01099770895 -3.67765835e-08 -2.487530877e-10)
(0.01099798023 -2.619952599e-08 2.868669666e-10)
(0.01099819933 -2.109858089e-08 -1.484852165e-09)
(0.01099837684 -1.785711837e-08 -8.349986329e-10)
(0.01099853067 -1.552526978e-08 -1.903576508e-09)
(0.01099865166 -1.747203849e-08 -3.604263458e-10)
(0.01099876881 -1.18028655e-08 -9.822825098e-10)
(0.01100007086 -4.181704649e-07 -1.639261163e-09)
(0.01099853285 -7.719183731e-09 8.835559319e-11)
(0.01099838583 -8.777805923e-08 2.58688916e-10)