/*--------------------------------*- C++ -*----------------------------------*\
| =========                 |                                                 |
| \\      /  F ield         | OpenFOAM: The Open Source CFD Toolbox           |
|  \\    /   O peration     | Version:  4.x                                   |
|   \\  /    A nd           | Web:      www.OpenFOAM.org                      |
|    \\/     M anipulation  |                                                 |
\*---------------------------------------------------------------------------*/
FoamFile
{
    version     2.0;
    format      ascii;
    class       volScalarField;
    location    "5000";
    object      X_CO;
}
// * * * * * * * * * * * * * * * * * * * * * * * * * * * * * * * * * * * * * //

dimensions      [0 0 0 0 0 0 0];

internalField   nonuniform List<scalar> 
1174
(
0.3299566007
0.3299548864
0.3299524692
0.3299493207
0.3299454762
0.329941022
0.3299360781
0.3299307799
0.3299252642
0.3299196596
0.3299140842
0.3299086637
0.3299036201
0.3298996617
0.3299549948
0.329952253
0.3299486073
0.3299441442
0.3299390192
0.3299334196
0.3299275346
0.329921536
0.329915568
0.3299097452
0.3299041575
0.329898892
0.3298941162
0.3298904339
0.3299514521
0.3299466165
0.3299406425
0.3299338695
0.3299266624
0.3299193477
0.3299121829
0.3299053503
0.3298989649
0.3298930886
0.3298877467
0.3298829543
0.329878787
0.3298756697
0.3299462701
0.3299387706
0.3299301745
0.3299211123
0.3299121071
0.329903533
0.3298956222
0.3298884928
0.3298821806
0.3298766666
0.3298719015
0.3298678297
0.329864443
0.3298619942
0.3299425772
0.3299336188
0.3299238607
0.3299139912
0.329904506
0.3298957202
0.3298878035
0.3298808197
0.3298747606
0.3298695735
0.3298651825
0.3298615091
0.3298585167
0.3298563894
0.3299462702
0.3299387708
0.3299301747
0.3299211125
0.3299121074
0.3299035333
0.3298956225
0.3298884932
0.3298821809
0.329876667
0.3298719019
0.3298678301
0.3298644434
0.3298619946
0.3299514522
0.3299466166
0.3299406427
0.3299338697
0.3299266626
0.329919348
0.3299121832
0.3299053506
0.3298989653
0.329893089
0.3298877472
0.3298829548
0.3298787875
0.3298756702
0.3299549948
0.3299522531
0.3299486074
0.3299441443
0.3299390194
0.3299334198
0.3299275349
0.3299215363
0.3299155684
0.3299097456
0.329904158
0.3298988925
0.3298941168
0.3298904345
0.3299566007
0.3299548864
0.3299524692
0.3299493208
0.3299454763
0.3299410222
0.3299360783
0.3299307801
0.3299252645
0.3299196599
0.3299140846
0.3299086642
0.3299036207
0.3298996624
0.3299568488
0.3299549948
0.329952253
0.3299486073
0.3299441442
0.3299390193
0.3299334197
0.3299275347
0.3299215361
0.3299155681
0.3299097452
0.3299041576
0.3298988921
0.3298941163
0.3298904339
0.3299513815
0.3299465796
0.3299407332
0.3299341955
0.3299273195
0.3299204014
0.3299136605
0.3299072428
0.3299012337
0.3298956746
0.3298905801
0.3298859628
0.3298819037
0.3298788397
0.3299423045
0.3299329983
0.3299229005
0.3299128661
0.3299034773
0.329895049
0.3298876928
0.3298813897
0.3298760499
0.3298715536
0.3298677777
0.3298646161
0.329862019
0.3298601521
0.3299262026
0.3299107614
0.3298961065
0.3298833288
0.3298728024
0.3298644685
0.3298580605
0.3298532446
0.3298496945
0.3298471249
0.3298453005
0.3298440346
0.3298431863
0.3298426797
0.3299110423
0.3298924891
0.3298767997
0.3298643756
0.3298549599
0.3298480644
0.3298431729
0.3298398235
0.3298376341
0.3298363012
0.3298355889
0.3298353146
0.3298353269
0.3298354646
0.3299262028
0.3299107616
0.3298961068
0.3298833291
0.3298728027
0.3298644689
0.3298580609
0.329853245
0.3298496949
0.3298471253
0.3298453009
0.329844035
0.3298431868
0.3298426801
0.3299423047
0.3299329985
0.3299229007
0.3299128663
0.3299034776
0.3298950494
0.3298876932
0.3298813902
0.3298760504
0.3298715542
0.3298677783
0.3298646167
0.3298620196
0.3298601527
0.3299513817
0.3299465798
0.3299407333
0.3299341957
0.3299273198
0.3299204017
0.3299136609
0.3299072432
0.3299012341
0.3298956751
0.3298905807
0.3298859634
0.3298819044
0.3298788405
0.3299549948
0.3299522531
0.3299486074
0.3299441443
0.3299390194
0.3299334198
0.329927535
0.3299215364
0.3299155685
0.3299097457
0.3299041581
0.3298988927
0.329894117
0.3298904347
0.3299549346
0.3299514522
0.3299466166
0.3299406427
0.3299338696
0.3299266626
0.3299193479
0.3299121831
0.3299053505
0.3298989651
0.3298930888
0.3298877469
0.3298829545
0.3298787872
0.3298756699
0.3299498324
0.3299423046
0.3299329984
0.3299229007
0.3299128662
0.3299034775
0.3298950492
0.3298876929
0.3298813899
0.3298760501
0.3298715538
0.3298677778
0.3298646162
0.3298620191
0.3298601522
0.3299155425
0.3298959672
0.3298782809
0.3298638125
0.329852824
0.3298449847
0.3298397246
0.3298364421
0.329834603
0.3298337744
0.329833624
0.3298339024
0.3298344103
0.3298349184
0.3298561326
0.3298231663
0.3298005036
0.3297871858
0.3297809851
0.3297796685
0.3297814408
0.3297850049
0.3297894833
0.3297943105
0.3297991345
0.3298037299
0.3298078822
0.3298110582
0.3297784772
0.3297457811
0.3297318461
0.3297295076
0.3297336622
0.3297411041
0.3297499376
0.3297590867
0.3297679669
0.3297762803
0.32978389
0.3297907292
0.3297966725
0.3298011126
0.3298561336
0.3298231673
0.3298005044
0.3297871866
0.3297809859
0.3297796693
0.3297814416
0.3297850056
0.329789484
0.3297943112
0.3297991351
0.3298037305
0.3298078828
0.3298110588
0.3299155433
0.3298959678
0.3298782816
0.3298638132
0.3298528247
0.3298449855
0.3298397254
0.329836443
0.3298346039
0.3298337754
0.3298336249
0.3298339034
0.3298344113
0.3298349194
0.3299423047
0.3299329986
0.3299229009
0.3299128665
0.3299034778
0.3298950496
0.3298876935
0.3298813905
0.3298760508
0.3298715546
0.3298677787
0.3298646171
0.3298620201
0.3298601532
0.3299514522
0.3299466166
0.3299406427
0.3299338698
0.3299266628
0.3299193482
0.3299121835
0.329905351
0.3298989657
0.3298930895
0.3298877477
0.3298829554
0.3298787881
0.3298756709
0.3299520646
0.3299462702
0.3299387708
0.3299301748
0.3299211126
0.3299121075
0.3299035333
0.3298956226
0.3298884932
0.329882181
0.329876667
0.3298719019
0.32986783
0.3298644433
0.3298619945
0.3299404333
0.3299262028
0.3299107617
0.3298961068
0.3298833291
0.3298728027
0.3298644688
0.3298580608
0.3298532449
0.3298496948
0.3298471252
0.3298453007
0.3298440349
0.3298431866
0.3298426799
0.3298964665
0.3298561329
0.3298231667
0.3298005039
0.3297871861
0.3297809853
0.3297796688
0.329781441
0.3297850051
0.3297894835
0.3297943107
0.3297991346
0.32980373
0.3298078823
0.3298110584
0.3296527855
0.3296115132
0.3296049122
0.3296170363
0.3296374755
0.3296603712
0.3296827636
0.3297033397
0.3297216532
0.3297376806
0.3297515778
0.3297635318
0.3297735681
0.3297808924
0.3292544076
0.3293069577
0.329387237
0.3294640681
0.3295292805
0.3295824355
0.329625286
0.3296598809
0.3296880018
0.3297110581
0.3297301191
0.3297459495
0.3297589086
0.329768215
0.329652789
0.3296115155
0.3296049142
0.329617038
0.3296374771
0.3296603726
0.3296827648
0.3297033408
0.3297216543
0.3297376816
0.3297515787
0.3297635326
0.3297735689
0.3297808932
0.3298561335
0.3298231675
0.3298005049
0.3297871873
0.3297809866
0.3297796701
0.3297814424
0.3297850064
0.3297894848
0.329794312
0.3297991359
0.3298037313
0.3298078835
0.3298110595
0.3299262028
0.3299107618
0.3298961071
0.3298833296
0.3298728033
0.3298644696
0.3298580617
0.3298532458
0.3298496958
0.3298471263
0.3298453019
0.3298440361
0.3298431878
0.3298426812
0.3299462702
0.3299387708
0.3299301748
0.3299211128
0.3299121077
0.3299035338
0.3298956231
0.3298884939
0.3298821818
0.3298766679
0.3298719029
0.3298678311
0.3298644445
0.3298619958
0.3299499155
0.3299425774
0.3299336191
0.3299238611
0.3299139916
0.3299045064
0.3298957206
0.3298878039
0.3298808201
0.329874761
0.3298695739
0.3298651829
0.3298615095
0.3298585171
0.3298563897
0.3299306431
0.3299110426
0.3298924895
0.3298768002
0.3298643761
0.3298549604
0.3298480649
0.3298431733
0.3298398239
0.3298376346
0.3298363016
0.3298355893
0.3298353149
0.3298353272
0.3298354649
0.3298367403
0.3297784776
0.3297457819
0.3297318469
0.3297295083
0.3297336628
0.3297411046
0.329749938
0.3297590872
0.3297679673
0.3297762807
0.3297838903
0.3297907295
0.3297966728
0.3298011128
0.3293246775
0.3292544098
0.3293069593
0.3293872383
0.3294640691
0.3295292812
0.3295824362
0.3296252865
0.3296598814
0.3296880022
0.3297110584
0.3297301194
0.3297459497
0.3297589088
0.3297682152
0.3275385248
0.328413157
0.3288968243
0.3291797434
0.3293548889
0.3294694245
0.3295482042
0.3296048557
0.3296471614
0.3296797493
0.3297054757
0.3297261247
0.3297426173
0.3297542811
0.3292544071
0.3293069613
0.3293872408
0.3294640715
0.3295292834
0.329582438
0.3296252881
0.3296598828
0.3296880035
0.3297110596
0.3297301205
0.3297459507
0.3297589097
0.3297682161
0.3297784771
0.3297457824
0.329731848
0.3297295097
0.3297336644
0.3297411063
0.3297499396
0.3297590887
0.3297679688
0.3297762821
0.3297838917
0.3297907308
0.3297966741
0.3298011141
0.3299110424
0.3298924895
0.3298768005
0.3298643767
0.3298549612
0.3298480659
0.3298431744
0.3298398251
0.3298376358
0.3298363029
0.3298355906
0.3298353163
0.3298353286
0.3298354663
0.3299425773
0.329933619
0.3299238612
0.3299139918
0.3299045068
0.3298957212
0.3298878047
0.329880821
0.3298747621
0.3298695751
0.3298651841
0.3298615108
0.3298585185
0.3298563912
0.3299520647
0.3299462703
0.329938771
0.329930175
0.3299211129
0.3299121077
0.3299035337
0.3298956229
0.3298884936
0.3298821814
0.3298766674
0.3298719023
0.3298678305
0.3298644438
0.3298619949
0.3299404336
0.3299262032
0.3299107621
0.3298961073
0.3298833297
0.3298728033
0.3298644694
0.3298580614
0.3298532455
0.3298496954
0.3298471258
0.3298453013
0.3298440355
0.3298431872
0.3298426805
0.3298964678
0.3298561343
0.3298231682
0.3298005053
0.3297871875
0.3297809866
0.32977967
0.3297814422
0.3297850062
0.3297894845
0.3297943117
0.3297991355
0.3298037309
0.3298078832
0.3298110592
0.3297459156
0.329652791
0.3296115176
0.3296049159
0.3296170394
0.3296374782
0.3296603735
0.3296827656
0.3297033415
0.3297216548
0.329737682
0.3297515791
0.329763533
0.3297735692
0.3297808935
0.3293246784
0.3292544111
0.3293069639
0.3293872424
0.3294640725
0.329529284
0.3295824385
0.3296252885
0.3296598831
0.3296880037
0.3297110598
0.3297301206
0.3297459508
0.3297589098
0.3297682162
0.3297459148
0.3296527916
0.3296115188
0.3296049172
0.3296170408
0.3296374796
0.3296603748
0.3296827668
0.3297033426
0.3297216559
0.329737683
0.32975158
0.3297635338
0.32977357
0.3297808942
0.3298561325
0.3298231676
0.3298005055
0.3297871882
0.3297809877
0.3297796712
0.3297814435
0.3297850075
0.3297894859
0.329794313
0.3297991368
0.3298037322
0.3298078844
0.3298110604
0.3299262026
0.3299107617
0.3298961073
0.3298833299
0.3298728038
0.3298644702
0.3298580623
0.3298532465
0.3298496965
0.3298471269
0.3298453026
0.3298440367
0.3298431885
0.3298426818
0.3299462701
0.3299387708
0.3299301749
0.3299211129
0.329912108
0.3299035341
0.3298956235
0.3298884943
0.3298821822
0.3298766684
0.3298719034
0.3298678317
0.3298644451
0.3298619963
0.3299549347
0.3299514523
0.3299466167
0.3299406429
0.3299338699
0.3299266629
0.3299193483
0.3299121835
0.329905351
0.3298989656
0.3298930894
0.3298877476
0.3298829552
0.3298787879
0.3298756706
0.3299498326
0.3299423049
0.3299329988
0.3299229011
0.3299128668
0.3299034781
0.3298950498
0.3298876936
0.3298813906
0.3298760509
0.3298715546
0.3298677787
0.3298646171
0.32986202
0.3298601532
0.3299342443
0.3299155437
0.3298959683
0.3298782822
0.3298638138
0.3298528253
0.329844986
0.329839726
0.3298364435
0.3298346044
0.3298337758
0.3298336253
0.3298339038
0.3298344117
0.3298349198
0.3298964678
0.3298561346
0.3298231687
0.3298005061
0.3297871883
0.3297809876
0.3297796709
0.3297814431
0.3297850071
0.3297894854
0.3297943125
0.3297991364
0.3298037317
0.3298078839
0.3298110599
0.3298367409
0.3297784794
0.3297457845
0.3297318497
0.3297295111
0.3297336655
0.3297411071
0.3297499404
0.3297590893
0.3297679693
0.3297762826
0.3297838921
0.3297907312
0.3297966744
0.3298011144
0.329896468
0.3298561349
0.3298231692
0.3298005067
0.329787189
0.3297809883
0.3297796717
0.3297814439
0.3297850078
0.3297894861
0.3297943132
0.329799137
0.3298037324
0.3298078845
0.3298110605
0.3299342439
0.3299155434
0.3298959683
0.3298782824
0.3298638142
0.329852826
0.3298449868
0.3298397268
0.3298364444
0.3298346054
0.3298337768
0.3298336263
0.3298339048
0.3298344127
0.3298349208
0.3299423045
0.3299329985
0.329922901
0.3299128669
0.3299034784
0.3298950503
0.3298876942
0.3298813914
0.3298760517
0.3298715555
0.3298677797
0.3298646182
0.3298620211
0.3298601543
0.3299514521
0.3299466166
0.3299406428
0.3299338699
0.329926663
0.3299193485
0.3299121839
0.3299053515
0.3298989663
0.3298930901
0.3298877484
0.3298829562
0.329878789
0.3298756718
0.3299568489
0.3299549949
0.3299522532
0.3299486075
0.3299441445
0.3299390196
0.32993342
0.3299275352
0.3299215366
0.3299155687
0.3299097459
0.3299041583
0.3298988929
0.3298941172
0.3298904349
0.3299548859
0.3299513818
0.3299465799
0.3299407336
0.329934196
0.3299273201
0.329920402
0.3299136613
0.3299072436
0.3299012345
0.3298956755
0.3298905811
0.3298859638
0.3298819048
0.3298788409
0.3299498326
0.329942305
0.3299329989
0.3299229013
0.3299128669
0.3299034783
0.3298950501
0.329887694
0.329881391
0.3298760513
0.329871555
0.3298677791
0.3298646176
0.3298620205
0.3298601536
0.3299404335
0.3299262033
0.3299107623
0.3298961077
0.3298833302
0.329872804
0.3298644702
0.3298580623
0.3298532464
0.3298496964
0.3298471268
0.3298453023
0.3298440365
0.3298431882
0.3298426816
0.3299306432
0.3299110431
0.3298924904
0.3298768013
0.3298643774
0.3298549619
0.3298480665
0.329843175
0.3298398257
0.3298376363
0.3298363033
0.329835591
0.3298353166
0.329835329
0.3298354667
0.3299404336
0.3299262034
0.3299107625
0.329896108
0.3298833305
0.3298728043
0.3298644706
0.3298580627
0.3298532468
0.3298496968
0.3298471272
0.3298453028
0.329844037
0.3298431887
0.329842682
0.3299498326
0.3299423049
0.3299329989
0.3299229013
0.3299128671
0.3299034786
0.3298950505
0.3298876944
0.3298813915
0.3298760518
0.3298715556
0.3298677798
0.3298646183
0.3298620212
0.3298601544
0.3299548858
0.3299513817
0.3299465798
0.3299407335
0.329934196
0.3299273202
0.3299204022
0.3299136616
0.329907244
0.329901235
0.3298956761
0.3298905817
0.3298859646
0.3298819056
0.3298788418
0.3299549947
0.3299522531
0.3299486074
0.3299441445
0.3299390196
0.3299334201
0.3299275354
0.3299215369
0.3299155691
0.3299097464
0.3299041589
0.3298988936
0.329894118
0.3298904358
0.329957705
0.3299566008
0.3299548865
0.3299524693
0.3299493209
0.3299454765
0.3299410224
0.3299360785
0.3299307804
0.3299252648
0.3299196602
0.329914085
0.3299086646
0.329903621
0.3298996628
0.3299568489
0.3299549949
0.3299522532
0.3299486075
0.3299441445
0.3299390196
0.3299334201
0.3299275352
0.3299215367
0.3299155688
0.3299097461
0.3299041585
0.3298988931
0.3298941174
0.3298904351
0.3299549347
0.3299514523
0.3299466168
0.329940643
0.32993387
0.3299266631
0.3299193485
0.3299121838
0.3299053513
0.3298989661
0.3298930898
0.3298877481
0.3298829557
0.3298787885
0.3298756713
0.3299520646
0.3299462704
0.3299387711
0.3299301752
0.3299211132
0.3299121082
0.3299035342
0.3298956236
0.3298884944
0.3298821822
0.3298766684
0.3298719033
0.3298678315
0.3298644449
0.3298619961
0.3299499155
0.3299425775
0.3299336194
0.3299238615
0.3299139922
0.3299045072
0.3298957216
0.3298878051
0.3298808214
0.3298747624
0.3298695754
0.3298651844
0.3298615111
0.3298585188
0.3298563915
0.3299520646
0.3299462704
0.3299387711
0.3299301752
0.3299211133
0.3299121083
0.3299035344
0.3298956238
0.3298884946
0.3298821825
0.3298766686
0.3298719036
0.3298678319
0.3298644453
0.3298619965
0.3299549347
0.3299514523
0.3299466168
0.329940643
0.3299338701
0.3299266632
0.3299193487
0.3299121841
0.3299053516
0.3298989664
0.3298930903
0.3298877486
0.3298829563
0.3298787891
0.3298756719
0.3299568488
0.3299549949
0.3299522532
0.3299486075
0.3299441446
0.3299390197
0.3299334203
0.3299275355
0.329921537
0.3299155692
0.3299097465
0.329904159
0.3298988937
0.3298941181
0.3298904359
0.329957705
0.3299566007
0.3299548864
0.3299524693
0.3299493209
0.3299454765
0.3299410225
0.3299360786
0.3299307806
0.3299252651
0.3299196607
0.3299140855
0.3299086652
0.3299036218
0.3298996636
)
;

boundaryField
{
    top
    {
        type            calculated;
        value           nonuniform List<scalar> 
127
(
0.329957705
0.3299566007
0.3299549948
0.3299514522
0.3299462702
0.3299425773
0.3299462701
0.3299514521
0.3299549947
0.3299566007
0.3299548864
0.3299522531
0.3299466166
0.3299387708
0.329933619
0.3299387708
0.3299466166
0.3299522531
0.3299548864
0.3299524692
0.3299486074
0.3299406427
0.3299301748
0.3299238612
0.3299301749
0.3299406428
0.3299486074
0.3299524693
0.3299493208
0.3299441443
0.3299338698
0.3299211128
0.3299139918
0.3299211129
0.3299338699
0.3299441445
0.3299493209
0.3299454763
0.3299390194
0.3299266628
0.3299121077
0.3299045068
0.329912108
0.329926663
0.3299390196
0.3299454765
0.3299410222
0.3299334198
0.3299193482
0.3299035338
0.3298957212
0.3299035341
0.3299193485
0.3299334201
0.3299410225
0.3299360783
0.329927535
0.3299121835
0.3298956231
0.3298878047
0.3298956235
0.3299121839
0.3299275354
0.3299360786
0.3299307801
0.3299215364
0.329905351
0.3298884939
0.329880821
0.3298884943
0.3299053515
0.3299215369
0.3299307806
0.3299252645
0.3299155685
0.3298989657
0.3298821818
0.3298747621
0.3298821822
0.3298989663
0.3299155691
0.3299252651
0.3299196599
0.3299097457
0.3298930895
0.3298766679
0.3298695751
0.3298766684
0.3298930901
0.3299097464
0.3299196607
0.3299140846
0.3299041581
0.3298877477
0.3298719029
0.3298651841
0.3298719034
0.3298877484
0.3299041589
0.3299140855
0.3299086642
0.3298988927
0.3298829554
0.3298678311
0.3298615108
0.3298678317
0.3298829562
0.3298988936
0.3299086652
0.3299036207
0.329894117
0.3298787881
0.3298644445
0.3298585185
0.3298644451
0.329878789
0.329894118
0.3299036218
0.3298996624
0.3298904347
0.3298756709
0.3298619958
0.3298563912
0.3298619963
0.3298756718
0.3298904358
0.3298996636
)
;
    }
    bottom
    {
        type            calculated;
        value           nonuniform List<scalar> 
134
(
0.3299568488
0.3299549346
0.3299520646
0.3299499155
0.3299520647
0.3299549347
0.3299568489
0.329957705
0.3299566007
0.3299549948
0.3299514522
0.3299462702
0.3299425774
0.3299462703
0.3299514523
0.3299549949
0.3299566008
0.3299548864
0.329952253
0.3299466166
0.3299387708
0.3299336191
0.329938771
0.3299466167
0.3299522532
0.3299548865
0.3299524692
0.3299486073
0.3299406427
0.3299301748
0.3299238611
0.329930175
0.3299406429
0.3299486075
0.3299524693
0.3299493207
0.3299441442
0.3299338696
0.3299211126
0.3299139916
0.3299211129
0.3299338699
0.3299441445
0.3299493209
0.3299454762
0.3299390193
0.3299266626
0.3299121075
0.3299045064
0.3299121077
0.3299266629
0.3299390196
0.3299454765
0.329941022
0.3299334197
0.3299193479
0.3299035333
0.3298957206
0.3299035337
0.3299193483
0.32993342
0.3299410224
0.3299360781
0.3299275347
0.3299121831
0.3298956226
0.3298878039
0.3298956229
0.3299121835
0.3299275352
0.3299360785
0.3299307799
0.3299215361
0.3299053505
0.3298884932
0.3298808201
0.3298884936
0.329905351
0.3299215366
0.3299307804
0.3299252642
0.3299155681
0.3298989651
0.329882181
0.329874761
0.3298821814
0.3298989656
0.3299155687
0.3299252648
0.3299196596
0.3299097452
0.3298930888
0.329876667
0.3298695739
0.3298766674
0.3298930894
0.3299097459
0.3299196602
0.3299140842
0.3299041576
0.3298877469
0.3298719019
0.3298651829
0.3298719023
0.3298877476
0.3299041583
0.329914085
0.3299086637
0.3298988921
0.3298829545
0.32986783
0.3298615095
0.3298678305
0.3298829552
0.3298988929
0.3299086646
0.3299036201
0.3298941163
0.3298787872
0.3298644433
0.3298585171
0.3298644438
0.3298787879
0.3298941172
0.329903621
0.3298996617
0.3298904339
0.3298756699
0.3298619945
0.3298563897
0.3298619949
0.3298756706
0.3298904349
0.3298996628
)
;
    }
    side-walls
    {
        type            calculated;
        value           nonuniform List<scalar> 
261
(
0.3299566007
0.3299549948
0.3299514521
0.3299462701
0.3299425772
0.3299462702
0.3299514522
0.3299549948
0.3299566007
0.3299548864
0.329952253
0.3299466165
0.3299387706
0.3299336188
0.3299387708
0.3299466166
0.3299522531
0.3299548864
0.3299524692
0.3299486073
0.3299406425
0.3299301745
0.3299238607
0.3299301747
0.3299406427
0.3299486074
0.3299524692
0.3299493207
0.3299441442
0.3299338695
0.3299211123
0.3299139912
0.3299211125
0.3299338697
0.3299441443
0.3299493208
0.3299454762
0.3299390192
0.3299266624
0.3299121071
0.329904506
0.3299121074
0.3299266626
0.3299390194
0.3299454763
0.329941022
0.3299334196
0.3299193477
0.329903533
0.3298957202
0.3299035333
0.329919348
0.3299334198
0.3299410222
0.3299360781
0.3299275346
0.3299121829
0.3298956222
0.3298878035
0.3298956225
0.3299121832
0.3299275349
0.3299360783
0.3299307799
0.329921536
0.3299053503
0.3298884928
0.3298808197
0.3298884932
0.3299053506
0.3299215363
0.3299307801
0.3299252642
0.329915568
0.3298989649
0.3298821806
0.3298747606
0.3298821809
0.3298989653
0.3299155684
0.3299252645
0.3299196596
0.3299097452
0.3298930886
0.3298766666
0.3298695735
0.329876667
0.329893089
0.3299097456
0.3299196599
0.3299140842
0.3299041575
0.3298877467
0.3298719015
0.3298651825
0.3298719019
0.3298877472
0.329904158
0.3299140846
0.3299086637
0.329898892
0.3298829543
0.3298678297
0.3298615091
0.3298678301
0.3298829548
0.3298988925
0.3299086642
0.3299036201
0.3298941162
0.329878787
0.329864443
0.3298585167
0.3298644434
0.3298787875
0.3298941168
0.3299036207
0.3298996617
0.3298904339
0.3298756697
0.3298619942
0.3298563894
0.3298619946
0.3298756702
0.3298904345
0.3298996624
0.329957705
0.3299568489
0.3299549347
0.3299520646
0.3299499155
0.3299520646
0.3299549347
0.3299568488
0.329957705
0.3299566008
0.3299549949
0.3299514523
0.3299462704
0.3299425775
0.3299462704
0.3299514523
0.3299549949
0.3299566007
0.3299548865
0.3299522532
0.3299466168
0.3299387711
0.3299336194
0.3299387711
0.3299466168
0.3299522532
0.3299548864
0.3299524693
0.3299486075
0.329940643
0.3299301752
0.3299238615
0.3299301752
0.329940643
0.3299486075
0.3299524693
0.3299493209
0.3299441445
0.32993387
0.3299211132
0.3299139922
0.3299211133
0.3299338701
0.3299441446
0.3299493209
0.3299454765
0.3299390196
0.3299266631
0.3299121082
0.3299045072
0.3299121083
0.3299266632
0.3299390197
0.3299454765
0.3299410224
0.3299334201
0.3299193485
0.3299035342
0.3298957216
0.3299035344
0.3299193487
0.3299334203
0.3299410225
0.3299360785
0.3299275352
0.3299121838
0.3298956236
0.3298878051
0.3298956238
0.3299121841
0.3299275355
0.3299360786
0.3299307804
0.3299215367
0.3299053513
0.3298884944
0.3298808214
0.3298884946
0.3299053516
0.329921537
0.3299307806
0.3299252648
0.3299155688
0.3298989661
0.3298821822
0.3298747624
0.3298821825
0.3298989664
0.3299155692
0.3299252651
0.3299196602
0.3299097461
0.3298930898
0.3298766684
0.3298695754
0.3298766686
0.3298930903
0.3299097465
0.3299196607
0.329914085
0.3299041585
0.3298877481
0.3298719033
0.3298651844
0.3298719036
0.3298877486
0.329904159
0.3299140855
0.3299086646
0.3298988931
0.3298829557
0.3298678315
0.3298615111
0.3298678319
0.3298829563
0.3298988937
0.3299086652
0.329903621
0.3298941174
0.3298787885
0.3298644449
0.3298585188
0.3298644453
0.3298787891
0.3298941181
0.3299036218
0.3298996628
0.3298904351
0.3298756713
0.3298619961
0.3298563915
0.3298619965
0.3298756719
0.3298904359
0.3298996636
)
;
    }
    inlet
    {
        type            calculated;
        value           nonuniform 0();
    }
    outlet
    {
        type            calculated;
        value           nonuniform List<scalar> 
81
(
0.3298996617
0.3298904339
0.3298756697
0.3298619942
0.3298563894
0.3298619946
0.3298756702
0.3298904345
0.3298996624
0.3298904339
0.3298788397
0.3298601521
0.3298426797
0.3298354646
0.3298426801
0.3298601527
0.3298788405
0.3298904347
0.3298756699
0.3298601522
0.3298349184
0.3298110582
0.3298011126
0.3298110588
0.3298349194
0.3298601532
0.3298756709
0.3298619945
0.3298426799
0.3298110584
0.3297808924
0.329768215
0.3297808932
0.3298110595
0.3298426812
0.3298619958
0.3298563897
0.3298354649
0.3298011128
0.3297682152
0.3297542811
0.3297682161
0.3298011141
0.3298354663
0.3298563912
0.3298619949
0.3298426805
0.3298110592
0.3297808935
0.3297682162
0.3297808942
0.3298110604
0.3298426818
0.3298619963
0.3298756706
0.3298601532
0.3298349198
0.3298110599
0.3298011144
0.3298110605
0.3298349208
0.3298601543
0.3298756718
0.3298904349
0.3298788409
0.3298601536
0.3298426816
0.3298354667
0.329842682
0.3298601544
0.3298788418
0.3298904358
0.3298996628
0.3298904351
0.3298756713
0.3298619961
0.3298563915
0.3298619965
0.3298756719
0.3298904359
0.3298996636
)
;
    }
    procBoundary1to0
    {
        type            processor;
        value           nonuniform List<scalar> 
97
(
0.329957705
0.329957705
0.3299568488
0.3299549347
0.3299520647
0.3299499156
0.3299520648
0.3299549347
0.3299568489
0.329957705
0.3299579467
0.3299548858
0.3299548858
0.3299548858
0.3299498326
0.3299404337
0.3299306436
0.3299404339
0.3299498328
0.329954886
0.3299568489
0.3299570784
0.3299548364
0.3299342438
0.3299342438
0.3299342438
0.3298964681
0.3298367428
0.3298964691
0.3299342448
0.3299498328
0.3299549347
0.3299558083
0.3299508901
0.3299337206
0.3297459127
0.3297459127
0.3297459127
0.3293246916
0.3297459193
0.329896469
0.3299404338
0.3299520647
0.3299549031
0.3299471748
0.3299146969
0.3297864301
0.3258658795
0.3258658795
0.3258658795
0.3293246893
0.3293246893
0.3298367424
0.3299306436
0.3299499156
0.3299558083
0.3299508901
0.3299337206
0.3298839152
0.3297864297
0.3298839156
0.3298964668
0.3298964668
0.3298964668
0.3299404335
0.3299520647
0.3299570784
0.3299548364
0.3299482778
0.3299337205
0.329914697
0.3299337207
0.3299482778
0.3299498324
0.3299498324
0.3299498324
0.3299549346
0.3299579467
0.3299570611
0.3299548364
0.3299508901
0.3299471748
0.3299508902
0.3299548364
0.3299570611
0.3299568488
0.3299568488
0.3299568488
0.3299583403
0.3299579467
0.3299570784
0.3299558082
0.3299549031
0.3299558082
0.3299570784
0.3299579467
0.3299583403
)
;
    }
}


// ************************************************************************* //
