/*--------------------------------*- C++ -*----------------------------------*\
| =========                 |                                                 |
| \\      /  F ield         | OpenFOAM: The Open Source CFD Toolbox           |
|  \\    /   O peration     | Version:  4.x                                   |
|   \\  /    A nd           | Web:      www.OpenFOAM.org                      |
|    \\/     M anipulation  |                                                 |
\*---------------------------------------------------------------------------*/
FoamFile
{
    version     2.0;
    format      ascii;
    class       volScalarField;
    location    "5000";
    object      X_CO2;
}
// * * * * * * * * * * * * * * * * * * * * * * * * * * * * * * * * * * * * * //

dimensions      [0 0 0 0 0 0 0];

internalField   nonuniform List<scalar> 
1174
(
0.03999696886
0.03999868309
0.04000110018
0.04000424852
0.04000809284
0.04001254676
0.04001749044
0.04002278831
0.0400283036
0.04003390785
0.04003948275
0.04004490274
0.04004994591
0.04005390389
0.0399985747
0.04000131635
0.04000496192
0.04000942483
0.04001454959
0.04002014891
0.04002603354
0.04003203177
0.04003799936
0.04004382178
0.04004940897
0.04005467398
0.04005944924
0.04006313123
0.04000211725
0.04000695273
0.04001292647
0.04001969927
0.04002690605
0.04003422035
0.04004138479
0.04004821699
0.04005460189
0.04006047773
0.04006581907
0.04007061096
0.04007477777
0.04007789468
0.04000729917
0.04001479846
0.0400233943
0.0400324562
0.04004146103
0.04005003474
0.04005794508
0.04006507391
0.04007138567
0.0400768991
0.04008166367
0.04008573497
0.04008912115
0.04009156959
0.040010992
0.04001995021
0.04002970801
0.04003957723
0.04004906201
0.0400578474
0.04006576361
0.04007274692
0.04007880548
0.04008399201
0.04008838254
0.04009205541
0.04009504722
0.0400971742
0.04000729906
0.0400147983
0.0400233941
0.04003245598
0.04004146079
0.04005003448
0.04005794481
0.04006507365
0.04007138541
0.04007689884
0.04008166342
0.04008573473
0.04008912091
0.04009156936
0.04000211718
0.04000695264
0.04001292635
0.04001969914
0.0400269059
0.04003422018
0.04004138459
0.04004821678
0.04005460166
0.04006047748
0.04006581881
0.04007061069
0.04007477749
0.0400778944
0.03999857465
0.04000131629
0.04000496184
0.04000942473
0.04001454948
0.04002014878
0.04002603339
0.04003203159
0.04003799916
0.04004382155
0.04004940872
0.04005467371
0.04005944895
0.04006313092
0.03999696881
0.03999868304
0.04000110012
0.04000424845
0.04000809276
0.04001254666
0.04001749031
0.04002278816
0.04002830342
0.04003390765
0.04003948252
0.04004490248
0.04004994563
0.04005390358
0.03999672075
0.03999857469
0.04000131633
0.0400049619
0.0400094248
0.04001454956
0.04002014887
0.0400260335
0.04003203173
0.04003799932
0.04004382173
0.04004940893
0.04005467393
0.04005944919
0.04006313119
0.04000218781
0.04000698959
0.04001283583
0.04001937328
0.04002624894
0.04003316674
0.0400399072
0.04004632451
0.0400523332
0.04005789181
0.0400629858
0.04006760259
0.04007166119
0.04007472473
0.04001126463
0.04002057066
0.04003066815
0.04004070226
0.04005009064
0.04005851851
0.04006587428
0.04007217684
0.04007751612
0.04008201191
0.04008578732
0.04008894839
0.04009154501
0.04009341154
0.04002736633
0.04004280732
0.04005746183
0.04007023912
0.04008076507
0.0400890984
0.04009550586
0.04010032129
0.04010387082
0.04010643989
0.04010826378
0.04010952911
0.04011037689
0.04011088319
0.04004252665
0.04006107961
0.04007676862
0.04008919223
0.04009860739
0.04010550232
0.04011039334
0.04011374213
0.04011593095
0.04011726338
0.04011797511
0.04011824894
0.04011823612
0.04011809806
0.04002736617
0.04004280712
0.04005746161
0.04007023888
0.04008076483
0.04008909817
0.04009550562
0.04010032106
0.04010387059
0.04010643966
0.04010826356
0.04010952889
0.04011037668
0.04011088298
0.04001126447
0.04002057048
0.04003066797
0.04004070206
0.04005009043
0.04005851828
0.04006587404
0.04007217657
0.04007751584
0.04008201162
0.04008578701
0.04008894807
0.04009154469
0.04009341122
0.04000218767
0.04000698947
0.0400128357
0.04001937313
0.04002624878
0.04003316655
0.04003990698
0.04004632427
0.04005233294
0.04005789152
0.04006298549
0.04006760226
0.04007166084
0.04007472437
0.03999857465
0.04000131628
0.04000496184
0.04000942472
0.04001454946
0.04002014875
0.04002603335
0.04003203155
0.04003799911
0.04004382149
0.04004940865
0.04005467363
0.04005944886
0.04006313083
0.03999863487
0.04000211721
0.04000695266
0.04001292637
0.04001969916
0.04002690592
0.04003422022
0.04004138464
0.04004821684
0.04005460174
0.04006047758
0.04006581892
0.04007061082
0.04007477763
0.04007789455
0.04000373691
0.04001126456
0.04002057055
0.04003066802
0.04004070212
0.0400500905
0.04005851836
0.04006587414
0.0400721767
0.04007751599
0.04008201179
0.0400857872
0.04008894828
0.0400915449
0.04009341144
0.04003802618
0.04005760128
0.04007528715
0.04008975514
0.04010074314
0.04010858192
0.04011384146
0.04011712339
0.04011896189
0.04011978996
0.0401199399
0.04011966093
0.04011915256
0.04011864413
0.04009743578
0.04013040182
0.04015306412
0.04016638129
0.04017258136
0.04017389724
0.0401721243
0.04016855965
0.04016408064
0.04015925289
0.04015442843
0.04014983253
0.0401456798
0.04014250343
0.04017509201
0.04020778764
0.0402217219
0.04022405958
0.04021990416
0.04021246151
0.04020362737
0.04019447755
0.04018559676
0.04017728283
0.04016967264
0.04016283296
0.04015688921
0.04015244888
0.04009743505
0.04013040111
0.04015306348
0.04016638071
0.04017258083
0.04017389677
0.04017212388
0.04016855926
0.04016408028
0.04015925255
0.04015442812
0.04014983223
0.04014567952
0.04014250316
0.04003802553
0.04005760076
0.04007528666
0.04008975466
0.04010074267
0.04010858145
0.04011384098
0.04011712291
0.04011896142
0.04011978949
0.04011993944
0.04011966048
0.04011915212
0.04011864369
0.04001126443
0.04002057042
0.04003066787
0.04004070194
0.04005009028
0.04005851811
0.04006587385
0.04007217638
0.04007751564
0.04008201141
0.0400857868
0.04008894786
0.04009154447
0.040093411
0.04000211718
0.04000695262
0.04001292631
0.04001969907
0.04002690579
0.04003422005
0.04004138443
0.04004821659
0.04005460144
0.04006047724
0.04006581855
0.04007061042
0.0400747772
0.04007789409
0.04000150482
0.04000729906
0.04001479828
0.04002339407
0.04003245594
0.04004146075
0.04005003444
0.04005794477
0.04006507361
0.04007138537
0.0400768988
0.04008166339
0.04008573471
0.04008912089
0.04009156935
0.04001313587
0.04002736624
0.04004280713
0.04005746161
0.04007023888
0.04008076483
0.04008909817
0.04009550563
0.04010032107
0.04010387061
0.04010643969
0.04010826359
0.04010952894
0.04011037673
0.04011088303
0.04005710221
0.04009743571
0.04013040163
0.04015306392
0.0401663811
0.04017258118
0.04017389709
0.04017212417
0.04016855953
0.04016408053
0.04015925278
0.04015442834
0.04014983244
0.04014567971
0.04014250336
0.04030078333
0.04034205551
0.04034865566
0.04033653059
0.04031609036
0.04029319378
0.04027080064
0.04025022385
0.04023190967
0.04021588177
0.04020198405
0.04019002964
0.04017999293
0.04017266834
0.04069916737
0.04064661496
0.04056633316
0.04048949999
0.04042428602
0.04037112967
0.04032827824
0.04029368245
0.04026556085
0.04024250402
0.04022344247
0.04020761164
0.04019465219
0.04018534546
0.04030078061
0.04034205372
0.04034865428
0.04033652945
0.04031608941
0.04029319296
0.04027079994
0.04025022324
0.04023190912
0.04021588127
0.04020198361
0.04019002923
0.04017999255
0.04017266799
0.04009743507
0.04013040092
0.04015306316
0.04016638031
0.04017258039
0.04017389633
0.04017212344
0.04016855883
0.04016407987
0.04015925215
0.04015442773
0.04014983187
0.04014567916
0.04014250282
0.04002736616
0.04004280701
0.04005746141
0.04007023861
0.04008076448
0.04008909777
0.04009550519
0.0401003206
0.04010387011
0.04010643917
0.04010826306
0.04010952839
0.04011037617
0.04011088247
0.04000729908
0.04001479828
0.04002339403
0.04003245585
0.0400414606
0.04005003423
0.0400579445
0.04006507328
0.040071385
0.04007689839
0.04008166294
0.04008573422
0.04008912038
0.04009156881
0.04000365393
0.04001099188
0.04001995001
0.04002970776
0.04003957694
0.0400490617
0.04005784708
0.04006576328
0.04007274659
0.04007880515
0.04008399169
0.04008838223
0.04009205511
0.04009504694
0.04009717392
0.04002292614
0.0400425265
0.04006107929
0.04007676826
0.04008919187
0.04009860703
0.04010550197
0.04011039301
0.04011374182
0.04011593065
0.0401172631
0.04011797485
0.0401182487
0.04011823588
0.04011809784
0.04011682925
0.04017509205
0.04020778717
0.04022172141
0.04022405914
0.04021990376
0.04021246116
0.04020362705
0.04019447727
0.04018559651
0.0401772826
0.04016967244
0.04016283277
0.04015688903
0.04015244871
0.04062889841
0.04069916631
0.04064661392
0.04056633228
0.04048949928
0.04042428545
0.04037112921
0.04032827785
0.04029368212
0.04026556056
0.04024250378
0.04022344226
0.04020761147
0.04019465203
0.04018534532
0.04241508027
0.04154043038
0.04105675326
0.04077382856
0.04059867957
0.04048414169
0.04040536047
0.04034870781
0.04030640134
0.04027381277
0.04024808581
0.04022743632
0.04021094326
0.04019927928
0.04069916788
0.04064661211
0.04056633047
0.0404894978
0.04042428426
0.04037112822
0.04032827702
0.04029368141
0.04026555995
0.04024250323
0.04022344178
0.04020761103
0.04019465163
0.04018534495
0.04017509201
0.0402077867
0.04022172071
0.04022405834
0.04021990295
0.04021246038
0.04020362631
0.04019447656
0.04018559584
0.04017728197
0.04016967184
0.0401628322
0.04015688848
0.04015244818
0.04004252655
0.04006107924
0.04007676807
0.04008919156
0.04009860664
0.04010550151
0.0401103925
0.04011374128
0.04011593009
0.04011726253
0.04011797426
0.04011824811
0.04011823529
0.04011809724
0.0400109919
0.04001995
0.04002970768
0.04003957679
0.04004906147
0.04005784677
0.04006576291
0.04007274616
0.04007880468
0.04008399118
0.04008838169
0.04009205455
0.04009504635
0.04009717331
0.04000150478
0.04000729897
0.04001479815
0.0400233939
0.04003245574
0.04004146053
0.04005003421
0.04005794452
0.04006507335
0.04007138511
0.04007689854
0.04008166313
0.04008573444
0.04008912063
0.04009156908
0.0400131357
0.04002736594
0.04004280677
0.04005746122
0.04007023849
0.04008076444
0.04008909778
0.04009550525
0.04010032071
0.04010387025
0.04010643934
0.04010826325
0.0401095286
0.0401103764
0.04011088271
0.04005710121
0.04009743468
0.04013040049
0.04015306286
0.04016638014
0.04017258032
0.04017389631
0.04017212346
0.04016855888
0.04016407994
0.04015925223
0.04015442783
0.04014983196
0.04014567926
0.04014250292
0.04020765441
0.04030077947
0.04034205234
0.04034865311
0.04033652851
0.04031608865
0.04029319234
0.04027079941
0.04025022279
0.04023190874
0.04021588094
0.04020198332
0.04019002897
0.04017999231
0.04017266777
0.04062889774
0.04069916523
0.0406466104
0.04056632941
0.04048949715
0.04042428384
0.04037112795
0.04032827683
0.04029368127
0.04026555984
0.04024250314
0.0402234417
0.04020761095
0.04019465156
0.04018534488
0.0402076549
0.04030077892
0.04034205154
0.04034865235
0.04033652781
0.040316088
0.04029319176
0.04027079891
0.04025022233
0.04023190831
0.04021588055
0.04020198296
0.04019002864
0.040179992
0.04017266747
0.04009743597
0.040130401
0.04015306289
0.04016637988
0.0401725799
0.04017389581
0.04017212292
0.04016855833
0.04016407938
0.04015925169
0.0401544273
0.04014983145
0.04014567876
0.04014250243
0.04002736633
0.04004280704
0.04005746132
0.04007023843
0.04008076425
0.0400890975
0.0400955049
0.04010032029
0.0401038698
0.04010643886
0.04010826275
0.04010952808
0.04011037587
0.04011088217
0.04000729911
0.04001479828
0.04002339399
0.04003245577
0.04004146048
0.04005003407
0.04005794432
0.04006507308
0.04007138477
0.04007689815
0.04008166269
0.04008573397
0.04008912012
0.04009156855
0.03999863483
0.04000211712
0.04000695254
0.04001292621
0.04001969897
0.0400269057
0.04003421996
0.04004138435
0.04004821653
0.0400546014
0.04006047722
0.04006581854
0.04007061042
0.04007477722
0.04007789412
0.04000373675
0.04001126433
0.04002057027
0.04003066771
0.04004070178
0.04005009012
0.04005851796
0.04006587372
0.04007217626
0.04007751553
0.04008201132
0.04008578671
0.04008894778
0.0400915444
0.04009341093
0.04001932485
0.04003802535
0.04005760045
0.04007528632
0.04008975431
0.04010074231
0.0401085811
0.04011384064
0.04011712259
0.04011896111
0.0401197892
0.04011993916
0.04011966021
0.04011915185
0.04011864343
0.04005710121
0.0400974345
0.04013040015
0.04015306242
0.04016637963
0.04017257979
0.04017389578
0.04017212295
0.0401685584
0.04016407947
0.0401592518
0.04015442741
0.04014983157
0.04014567889
0.04014250257
0.04011682864
0.04017509048
0.04020778522
0.04022171949
0.04022405739
0.0402199022
0.04021245978
0.04020362582
0.04019447617
0.04018559552
0.04017728169
0.04016967159
0.04016283199
0.0401568883
0.040152448
0.04005710102
0.0400974342
0.04013039981
0.04015306205
0.04016637927
0.04017257945
0.04017389546
0.04017212264
0.04016855811
0.0401640792
0.04015925154
0.04015442716
0.04014983133
0.04014567866
0.04014250234
0.04001932513
0.04003802557
0.04005760053
0.04007528625
0.04008975412
0.04010074204
0.04010858078
0.04011384029
0.04011712221
0.04011896072
0.04011978881
0.04011993876
0.04011965982
0.04011915147
0.04011864304
0.04001126463
0.04002057047
0.04003066781
0.04004070178
0.04005009004
0.0400585178
0.04006587349
0.04007217598
0.04007751522
0.04008201096
0.04008578634
0.04008894738
0.04009154398
0.0400934105
0.04000211725
0.04000695267
0.04001292632
0.04001969903
0.04002690571
0.04003421991
0.04004138425
0.04004821637
0.04005460118
0.04006047695
0.04006581823
0.04007061007
0.04007477683
0.0400778937
0.0399967207
0.03999857461
0.04000131622
0.04000496175
0.04000942461
0.04001454933
0.04002014861
0.0400260332
0.04003203139
0.04003799894
0.04004382132
0.04004940848
0.04005467346
0.04005944869
0.04006313066
0.03999868358
0.04000218761
0.04000698935
0.04001283555
0.04001937295
0.04002624857
0.04003316633
0.04003990674
0.04004632402
0.04005233268
0.04005789126
0.04006298522
0.04006760199
0.04007166057
0.0400747241
0.04000373673
0.0400112643
0.04002057021
0.04003066762
0.04004070166
0.04005008998
0.0400585178
0.04006587354
0.04007217607
0.04007751534
0.04008201111
0.04008578651
0.04008894758
0.0400915442
0.04009341073
0.0400131357
0.04002736588
0.04004280663
0.04005746099
0.04007023818
0.04008076407
0.04008909737
0.04009550481
0.04010032025
0.04010386978
0.04010643887
0.04010826277
0.04010952812
0.04011037592
0.04011088223
0.04002292602
0.04004252613
0.04006107872
0.04007676755
0.04008919107
0.04009860618
0.04010550109
0.04011039213
0.04011374094
0.04011592979
0.04011726225
0.04011797401
0.04011824788
0.04011823508
0.04011809704
0.04001313566
0.04002736581
0.04004280653
0.04005746087
0.04007023804
0.04008076392
0.04008909721
0.04009550465
0.04010032008
0.04010386961
0.04010643869
0.04010826259
0.04010952794
0.04011037574
0.04011088205
0.04000373678
0.04001126436
0.04002057025
0.04003066764
0.04004070163
0.04005008992
0.0400585177
0.04006587341
0.04007217591
0.04007751515
0.04008201091
0.04008578629
0.04008894734
0.04009154394
0.04009341046
0.03999868366
0.04000218771
0.04000698946
0.04001283563
0.04001937301
0.04002624859
0.04003316631
0.04003990668
0.04004632392
0.04005233254
0.04005789108
0.04006298501
0.04006760175
0.0400716603
0.0400747238
0.03999857471
0.04000131632
0.04000496184
0.04000942468
0.04001454938
0.04002014863
0.04002603318
0.04003203133
0.04003799884
0.04004382117
0.04004940829
0.04005467323
0.04005944843
0.04006313036
0.03999586461
0.03999696879
0.03999868299
0.04000110005
0.04000424836
0.04000809264
0.04001254652
0.04001749015
0.04002278798
0.04002830322
0.04003390742
0.04003948229
0.04004490223
0.04004994537
0.04005390331
0.0399967207
0.03999857461
0.04000131621
0.04000496174
0.0400094246
0.04001454931
0.04002014858
0.04002603316
0.04003203134
0.04003799888
0.04004382125
0.0400494084
0.04005467337
0.0400594486
0.04006313056
0.03999863483
0.04000211712
0.04000695252
0.04001292617
0.04001969891
0.04002690561
0.04003421984
0.04004138421
0.04004821636
0.04005460121
0.040060477
0.04006581831
0.04007061017
0.04007477696
0.04007789385
0.04000150479
0.04000729896
0.04001479811
0.04002339382
0.04003245561
0.04004146034
0.04005003396
0.04005794423
0.04006507301
0.04007138473
0.04007689813
0.04008166269
0.04008573398
0.04008912014
0.04009156858
0.0400036539
0.04001099178
0.04001994982
0.04002970747
0.04003957657
0.04004906125
0.04005784656
0.0400657627
0.04007274596
0.04007880449
0.040083991
0.04008838152
0.04009205438
0.04009504618
0.04009717315
0.04000150479
0.04000729897
0.04001479811
0.04002339381
0.0400324556
0.04004146032
0.04005003393
0.04005794419
0.04006507296
0.04007138467
0.04007689805
0.0400816626
0.04008573388
0.04008912004
0.04009156846
0.03999863484
0.04000211714
0.04000695254
0.0400129262
0.04001969892
0.04002690561
0.04003421982
0.04004138417
0.0400482163
0.04005460112
0.0400604769
0.04006581818
0.04007061002
0.04007477679
0.04007789366
0.03999672072
0.03999857464
0.04000131624
0.04000496177
0.04000942461
0.0400145493
0.04002014855
0.0400260331
0.04003203125
0.04003799876
0.0400438211
0.04004940822
0.04005467316
0.04005944836
0.04006313031
0.03999586463
0.03999696883
0.03999868304
0.0400011001
0.0400042484
0.04000809267
0.04001254653
0.04001749013
0.04002278793
0.04002830314
0.04003390731
0.04003948214
0.04004490205
0.04004994515
0.04005390306
)
;

boundaryField
{
    top
    {
        type            calculated;
        value           nonuniform List<scalar> 
127
(
0.03999586463
0.03999696881
0.03999857465
0.04000211718
0.04000729908
0.0400109919
0.04000729911
0.04000211725
0.03999857471
0.03999696883
0.03999868304
0.04000131628
0.04000695262
0.04001479828
0.04001995
0.04001479828
0.04000695267
0.04000131632
0.03999868304
0.04000110012
0.04000496184
0.04001292631
0.04002339403
0.04002970768
0.04002339399
0.04001292632
0.04000496184
0.0400011001
0.04000424845
0.04000942472
0.04001969907
0.04003245585
0.04003957679
0.04003245577
0.04001969903
0.04000942468
0.0400042484
0.04000809276
0.04001454946
0.04002690579
0.0400414606
0.04004906147
0.04004146048
0.04002690571
0.04001454938
0.04000809267
0.04001254666
0.04002014875
0.04003422005
0.04005003423
0.04005784677
0.04005003407
0.04003421991
0.04002014863
0.04001254653
0.04001749031
0.04002603335
0.04004138443
0.0400579445
0.04006576291
0.04005794432
0.04004138425
0.04002603318
0.04001749013
0.04002278816
0.04003203155
0.04004821659
0.04006507328
0.04007274616
0.04006507308
0.04004821637
0.04003203133
0.04002278793
0.04002830342
0.04003799911
0.04005460144
0.040071385
0.04007880468
0.04007138477
0.04005460118
0.04003799884
0.04002830314
0.04003390765
0.04004382149
0.04006047724
0.04007689839
0.04008399118
0.04007689815
0.04006047695
0.04004382117
0.04003390731
0.04003948252
0.04004940865
0.04006581855
0.04008166294
0.04008838169
0.04008166269
0.04006581823
0.04004940829
0.04003948214
0.04004490248
0.04005467363
0.04007061042
0.04008573422
0.04009205455
0.04008573397
0.04007061007
0.04005467323
0.04004490205
0.04004994563
0.04005944886
0.0400747772
0.04008912038
0.04009504635
0.04008912012
0.04007477683
0.04005944843
0.04004994515
0.04005390358
0.04006313083
0.04007789409
0.04009156881
0.04009717331
0.04009156855
0.0400778937
0.04006313036
0.04005390306
)
;
    }
    bottom
    {
        type            calculated;
        value           nonuniform List<scalar> 
134
(
0.03999672075
0.03999863487
0.04000150482
0.04000365393
0.04000150478
0.03999863483
0.0399967207
0.03999586461
0.03999696886
0.03999857469
0.04000211721
0.04000729906
0.04001099188
0.04000729897
0.04000211712
0.03999857461
0.03999696879
0.03999868309
0.04000131633
0.04000695266
0.04001479828
0.04001995001
0.04001479815
0.04000695254
0.04000131622
0.03999868299
0.04000110018
0.0400049619
0.04001292637
0.04002339407
0.04002970776
0.0400233939
0.04001292621
0.04000496175
0.04000110005
0.04000424852
0.0400094248
0.04001969916
0.04003245594
0.04003957694
0.04003245574
0.04001969897
0.04000942461
0.04000424836
0.04000809284
0.04001454956
0.04002690592
0.04004146075
0.0400490617
0.04004146053
0.0400269057
0.04001454933
0.04000809264
0.04001254676
0.04002014887
0.04003422022
0.04005003444
0.04005784708
0.04005003421
0.04003421996
0.04002014861
0.04001254652
0.04001749044
0.0400260335
0.04004138464
0.04005794477
0.04006576328
0.04005794452
0.04004138435
0.0400260332
0.04001749015
0.04002278831
0.04003203173
0.04004821684
0.04006507361
0.04007274659
0.04006507335
0.04004821653
0.04003203139
0.04002278798
0.0400283036
0.04003799932
0.04005460174
0.04007138537
0.04007880515
0.04007138511
0.0400546014
0.04003799894
0.04002830322
0.04003390785
0.04004382173
0.04006047758
0.0400768988
0.04008399169
0.04007689854
0.04006047722
0.04004382132
0.04003390742
0.04003948275
0.04004940893
0.04006581892
0.04008166339
0.04008838223
0.04008166313
0.04006581854
0.04004940848
0.04003948229
0.04004490274
0.04005467393
0.04007061082
0.04008573471
0.04009205511
0.04008573444
0.04007061042
0.04005467346
0.04004490223
0.04004994591
0.04005944919
0.04007477763
0.04008912089
0.04009504694
0.04008912063
0.04007477722
0.04005944869
0.04004994537
0.04005390389
0.04006313119
0.04007789455
0.04009156935
0.04009717392
0.04009156908
0.04007789412
0.04006313066
0.04005390331
)
;
    }
    side-walls
    {
        type            calculated;
        value           nonuniform List<scalar> 
261
(
0.03999696886
0.0399985747
0.04000211725
0.04000729917
0.040010992
0.04000729906
0.04000211718
0.03999857465
0.03999696881
0.03999868309
0.04000131635
0.04000695273
0.04001479846
0.04001995021
0.0400147983
0.04000695264
0.04000131629
0.03999868304
0.04000110018
0.04000496192
0.04001292647
0.0400233943
0.04002970801
0.0400233941
0.04001292635
0.04000496184
0.04000110012
0.04000424852
0.04000942483
0.04001969927
0.0400324562
0.04003957723
0.04003245598
0.04001969914
0.04000942473
0.04000424845
0.04000809284
0.04001454959
0.04002690605
0.04004146103
0.04004906201
0.04004146079
0.0400269059
0.04001454948
0.04000809276
0.04001254676
0.04002014891
0.04003422035
0.04005003474
0.0400578474
0.04005003448
0.04003422018
0.04002014878
0.04001254666
0.04001749044
0.04002603354
0.04004138479
0.04005794508
0.04006576361
0.04005794481
0.04004138459
0.04002603339
0.04001749031
0.04002278831
0.04003203177
0.04004821699
0.04006507391
0.04007274692
0.04006507365
0.04004821678
0.04003203159
0.04002278816
0.0400283036
0.04003799936
0.04005460189
0.04007138567
0.04007880548
0.04007138541
0.04005460166
0.04003799916
0.04002830342
0.04003390785
0.04004382178
0.04006047773
0.0400768991
0.04008399201
0.04007689884
0.04006047748
0.04004382155
0.04003390765
0.04003948275
0.04004940897
0.04006581907
0.04008166367
0.04008838254
0.04008166342
0.04006581881
0.04004940872
0.04003948252
0.04004490274
0.04005467398
0.04007061096
0.04008573497
0.04009205541
0.04008573473
0.04007061069
0.04005467371
0.04004490248
0.04004994591
0.04005944924
0.04007477777
0.04008912115
0.04009504722
0.04008912091
0.04007477749
0.04005944895
0.04004994563
0.04005390389
0.04006313123
0.04007789468
0.04009156959
0.0400971742
0.04009156936
0.0400778944
0.04006313092
0.04005390358
0.03999586461
0.0399967207
0.03999863483
0.04000150479
0.0400036539
0.04000150479
0.03999863484
0.03999672072
0.03999586463
0.03999696879
0.03999857461
0.04000211712
0.04000729896
0.04001099178
0.04000729897
0.04000211714
0.03999857464
0.03999696883
0.03999868299
0.04000131621
0.04000695252
0.04001479811
0.04001994982
0.04001479811
0.04000695254
0.04000131624
0.03999868304
0.04000110005
0.04000496174
0.04001292617
0.04002339382
0.04002970747
0.04002339381
0.0400129262
0.04000496177
0.0400011001
0.04000424836
0.0400094246
0.04001969891
0.04003245561
0.04003957657
0.0400324556
0.04001969892
0.04000942461
0.0400042484
0.04000809264
0.04001454931
0.04002690561
0.04004146034
0.04004906125
0.04004146032
0.04002690561
0.0400145493
0.04000809267
0.04001254652
0.04002014858
0.04003421984
0.04005003396
0.04005784656
0.04005003393
0.04003421982
0.04002014855
0.04001254653
0.04001749015
0.04002603316
0.04004138421
0.04005794423
0.0400657627
0.04005794419
0.04004138417
0.0400260331
0.04001749013
0.04002278798
0.04003203134
0.04004821636
0.04006507301
0.04007274596
0.04006507296
0.0400482163
0.04003203125
0.04002278793
0.04002830322
0.04003799888
0.04005460121
0.04007138473
0.04007880449
0.04007138467
0.04005460112
0.04003799876
0.04002830314
0.04003390742
0.04004382125
0.040060477
0.04007689813
0.040083991
0.04007689805
0.0400604769
0.0400438211
0.04003390731
0.04003948229
0.0400494084
0.04006581831
0.04008166269
0.04008838152
0.0400816626
0.04006581818
0.04004940822
0.04003948214
0.04004490223
0.04005467337
0.04007061017
0.04008573398
0.04009205438
0.04008573388
0.04007061002
0.04005467316
0.04004490205
0.04004994537
0.0400594486
0.04007477696
0.04008912014
0.04009504618
0.04008912004
0.04007477679
0.04005944836
0.04004994515
0.04005390331
0.04006313056
0.04007789385
0.04009156858
0.04009717315
0.04009156846
0.04007789366
0.04006313031
0.04005390306
)
;
    }
    inlet
    {
        type            calculated;
        value           nonuniform 0();
    }
    outlet
    {
        type            calculated;
        value           nonuniform List<scalar> 
81
(
0.04005390389
0.04006313123
0.04007789468
0.04009156959
0.0400971742
0.04009156936
0.0400778944
0.04006313092
0.04005390358
0.04006313119
0.04007472473
0.04009341154
0.04011088319
0.04011809806
0.04011088298
0.04009341122
0.04007472437
0.04006313083
0.04007789455
0.04009341144
0.04011864413
0.04014250343
0.04015244888
0.04014250316
0.04011864369
0.040093411
0.04007789409
0.04009156935
0.04011088303
0.04014250336
0.04017266834
0.04018534546
0.04017266799
0.04014250282
0.04011088247
0.04009156881
0.04009717392
0.04011809784
0.04015244871
0.04018534532
0.04019927928
0.04018534495
0.04015244818
0.04011809724
0.04009717331
0.04009156908
0.04011088271
0.04014250292
0.04017266777
0.04018534488
0.04017266747
0.04014250243
0.04011088217
0.04009156855
0.04007789412
0.04009341093
0.04011864343
0.04014250257
0.040152448
0.04014250234
0.04011864304
0.0400934105
0.0400778937
0.04006313066
0.0400747241
0.04009341073
0.04011088223
0.04011809704
0.04011088205
0.04009341046
0.0400747238
0.04006313036
0.04005390331
0.04006313056
0.04007789385
0.04009156858
0.04009717315
0.04009156846
0.04007789366
0.04006313031
0.04005390306
)
;
    }
    procBoundary1to0
    {
        type            processor;
        value           nonuniform List<scalar> 
97
(
0.03999586463
0.03999586463
0.03999672072
0.03999863483
0.04000150479
0.04000365387
0.04000150472
0.03999863479
0.03999672068
0.0399958646
0.03999562291
0.03999868366
0.03999868366
0.03999868366
0.04000373679
0.04001313566
0.04002292588
0.04001313554
0.04000373667
0.03999868355
0.03999672069
0.03999649122
0.03999873315
0.0400193252
0.0400193252
0.0400193252
0.04005710123
0.04011682812
0.04005710051
0.04001932455
0.04000373665
0.0399986348
0.0399977613
0.04000267934
0.04001984882
0.04020765735
0.04020765735
0.04020765735
0.04062889427
0.04020765292
0.04005710058
0.04001313556
0.04000150474
0.03999866642
0.04000639467
0.04003887253
0.04016714123
0.04408784039
0.04408784039
0.04408784039
0.04062889607
0.04062889607
0.04011682841
0.04002292589
0.04000365383
0.03999776129
0.0400026793
0.04001984872
0.04006965417
0.04016714118
0.04006965406
0.04005710198
0.04005710198
0.04005710198
0.04001313576
0.04000150477
0.03999649121
0.03999873314
0.04000529157
0.04001984875
0.04003887235
0.04001984867
0.04000529159
0.04000373689
0.04000373689
0.04000373689
0.03999863486
0.03999562291
0.03999650847
0.03999873314
0.04000267932
0.04000639465
0.0400026793
0.03999873315
0.03999650849
0.03999672075
0.03999672075
0.03999672075
0.03999522929
0.03999562291
0.03999649121
0.0399977613
0.03999866642
0.0399977613
0.03999649122
0.03999562291
0.0399952293
)
;
    }
}


// ************************************************************************* //
