/*--------------------------------*- C++ -*----------------------------------*\
| =========                 |                                                 |
| \\      /  F ield         | OpenFOAM: The Open Source CFD Toolbox           |
|  \\    /   O peration     | Version:  4.x                                   |
|   \\  /    A nd           | Web:      www.OpenFOAM.org                      |
|    \\/     M anipulation  |                                                 |
\*---------------------------------------------------------------------------*/
FoamFile
{
    version     2.0;
    format      ascii;
    class       volScalarField;
    location    "5000";
    object      X_H2;
}
// * * * * * * * * * * * * * * * * * * * * * * * * * * * * * * * * * * * * * //

dimensions      [0 0 0 0 0 0 0];

internalField   nonuniform List<scalar> 
1174
(
0.02997631125
0.02997559449
0.02997458396
0.02997326788
0.02997166108
0.0299697998
0.02996773424
0.02996552113
0.02996321772
0.02996087772
0.02995855059
0.02995628875
0.02995418472
0.02995253379
0.02997563946
0.02997449294
0.0299729686
0.02997110278
0.02996896063
0.02996662056
0.02996416181
0.0299616562
0.02995916407
0.02995673328
0.02995440145
0.02995220482
0.02995021319
0.02994867793
0.02997415732
0.02997213488
0.02996963674
0.02996680492
0.02996379229
0.02996073545
0.02995774206
0.02995488838
0.02995222247
0.0299497701
0.02994754181
0.0299455437
0.02994380708
0.02994250855
0.02997198899
0.02996885209
0.02996525714
0.02996146807
0.0299577038
0.0299541208
0.02995081616
0.0299478392
0.02994520467
0.02994290463
0.02994091824
0.02993922211
0.02993781248
0.02993679388
0.02997044352
0.02996669621
0.02996261524
0.02995848865
0.02995452392
0.02995085274
0.02994754603
0.02994463032
0.02994210206
0.02993993907
0.02993810943
0.02993658019
0.0299353357
0.0299344517
0.02997198903
0.02996885215
0.02996525722
0.02996146815
0.02995770389
0.0299541209
0.02995081627
0.02994783931
0.02994520478
0.02994290473
0.02994091835
0.02993922221
0.02993781258
0.02993679398
0.02997415734
0.02997213491
0.02996963678
0.02996680497
0.02996379235
0.02996073551
0.02995774214
0.02995488846
0.02995222257
0.0299497702
0.02994754192
0.02994554381
0.0299438072
0.02994250868
0.02997563948
0.02997449297
0.02997296863
0.02997110281
0.02996896067
0.02996662061
0.02996416187
0.02996165627
0.02995916415
0.02995673337
0.02995440155
0.02995220494
0.02995021332
0.02994867807
0.02997631126
0.02997559451
0.02997458398
0.0299732679
0.02997166111
0.02996979984
0.02996773428
0.02996552119
0.02996321779
0.0299608778
0.02995855068
0.02995628886
0.02995418485
0.02995253392
0.02997641483
0.02997563947
0.02997449295
0.02997296861
0.02997110279
0.02996896064
0.02996662058
0.02996416183
0.02996165622
0.02995916409
0.0299567333
0.02995440147
0.02995220484
0.02995021321
0.02994867795
0.02997412772
0.02997211934
0.02996967448
0.02996694107
0.02996406687
0.02996117579
0.02995835964
0.02995567937
0.02995317067
0.02995085082
0.02994872582
0.02994680078
0.02994510928
0.02994383295
0.02997032947
0.02996643657
0.02996221338
0.0299580177
0.02995409318
0.02995057145
0.02994749904
0.02994486794
0.02994264036
0.02994076609
0.02993919351
0.02993787811
0.02993679869
0.02993602344
0.0299635906
0.02995713072
0.02995100138
0.02994565896
0.02994125977
0.02993777897
0.02993510468
0.029933097
0.02993161929
0.029930552
0.02992979658
0.02992927483
0.02992892745
0.02992872151
0.02995724468
0.02994948277
0.02994292121
0.02993772764
0.02993379414
0.02993091604
0.02992887697
0.02992748354
0.02992657563
0.02992602612
0.0299257363
0.02992562958
0.0299256424
0.02992570612
0.02996359066
0.02995713079
0.02995100146
0.02994565905
0.02994125986
0.02993777906
0.02993510478
0.02993309709
0.02993161939
0.02993055209
0.02992979668
0.02992927493
0.02992892755
0.0299287216
0.02997032952
0.02996643663
0.02996221344
0.02995801777
0.02995409326
0.02995057153
0.02994749914
0.02994486804
0.02994264048
0.02994076622
0.02993919364
0.02993787824
0.02993679883
0.02993602359
0.02997412777
0.02997211938
0.02996967452
0.02996694112
0.02996406693
0.02996117586
0.02995835972
0.02995567946
0.02995317078
0.02995085094
0.02994872595
0.02994680093
0.02994510943
0.02994383312
0.02997563948
0.02997449297
0.02997296863
0.02997110282
0.02996896067
0.02996662062
0.02996416188
0.02996165629
0.02995916417
0.0299567334
0.02995440159
0.02995220498
0.02995021336
0.02994867812
0.02997561398
0.02997415734
0.02997213491
0.02996963678
0.02996680497
0.02996379235
0.0299607355
0.02995774212
0.02995488844
0.02995222254
0.02994977016
0.02994754187
0.02994554376
0.02994380714
0.02994250861
0.02997347891
0.0299703295
0.02996643661
0.02996221343
0.02995801776
0.02995409324
0.02995057151
0.0299474991
0.029944868
0.02994264042
0.02994076614
0.02993919356
0.02993787815
0.02993679873
0.02993602348
0.02995912925
0.02995093951
0.0299435421
0.02993749284
0.02993290105
0.02992962793
0.02992743463
0.02992606914
0.02992530777
0.02992496921
0.02992491435
0.0299250388
0.02992525883
0.02992547741
0.02993426142
0.02992046869
0.02991099122
0.0299054267
0.02990284169
0.029902301
0.02990305282
0.02990455412
0.02990643762
0.02990846663
0.02991049384
0.02991242497
0.02991417004
0.02991550496
0.02990175079
0.02988807392
0.02988225282
0.02988128656
0.0298830379
0.02988616448
0.02988987265
0.0298937121
0.0298974382
0.02990092641
0.02990411952
0.02990698964
0.02990948416
0.02991134795
0.02993426169
0.02992046895
0.02991099146
0.02990542692
0.0299028419
0.02990230118
0.029903053
0.02990455428
0.02990643778
0.02990846678
0.02991049398
0.02991242511
0.02991417016
0.02991550509
0.02995912948
0.0299509397
0.02994354227
0.02993749302
0.02993290124
0.02992962812
0.02992743483
0.02992606934
0.02992530797
0.02992496942
0.02992491455
0.02992503901
0.02992525903
0.02992547761
0.02997032954
0.02996643665
0.02996221348
0.02995801782
0.02995409332
0.02995057161
0.02994749922
0.02994486813
0.02994264057
0.02994076631
0.02993919374
0.02993787834
0.02993679893
0.02993602368
0.02997415734
0.02997213492
0.02996963679
0.029966805
0.02996379239
0.02996073557
0.02995774221
0.02995488855
0.02995222267
0.02994977031
0.02994754203
0.02994554394
0.02994380734
0.02994250882
0.02997441304
0.02997198904
0.02996885217
0.02996525724
0.02996146817
0.02995770392
0.02995412093
0.02995081629
0.02994783932
0.0299452048
0.02994290475
0.02994091836
0.02993922222
0.02993781258
0.02993679398
0.02996954514
0.02996359065
0.0299571308
0.02995100148
0.02994565906
0.02994125987
0.02993777907
0.02993510478
0.02993309709
0.02993161938
0.02993055208
0.02992979666
0.0299292749
0.02992892752
0.02992872157
0.02995114122
0.02993426147
0.02992046878
0.0299109913
0.02990542678
0.02990284176
0.02990230106
0.02990305288
0.02990455417
0.02990643767
0.02990846668
0.02991049388
0.02991242501
0.02991417007
0.02991550499
0.02984913288
0.02983187003
0.02982912374
0.02983421564
0.02984278672
0.02985238413
0.02986176903
0.02987039211
0.02987806688
0.0298847837
0.02989060814
0.02989561857
0.02989982565
0.02990289618
0.02968233103
0.02970436274
0.02973799904
0.02977018587
0.0297975035
0.02981976965
0.02983771911
0.02985221059
0.02986399046
0.02987364914
0.02988163463
0.02988826717
0.02989369719
0.02989759703
0.02984913386
0.02983187067
0.02982912425
0.02983421608
0.0298427871
0.02985238447
0.02986176933
0.02987039238
0.02987806712
0.02988478393
0.02989060835
0.02989561876
0.02989982583
0.02990289634
0.02993426167
0.02992046902
0.02991099158
0.02990542709
0.02990284208
0.02990230138
0.02990305319
0.02990455448
0.02990643797
0.02990846696
0.02991049415
0.02991242527
0.02991417033
0.02991550525
0.02996359066
0.02995713083
0.02995100154
0.02994565916
0.02994126001
0.02993777923
0.02993510497
0.0299330973
0.0299316196
0.02993055232
0.02992979691
0.02992927516
0.02992892778
0.02992872184
0.02997198902
0.02996885216
0.02996525724
0.02996146821
0.02995770398
0.02995412101
0.02995081641
0.02994783947
0.02994520497
0.02994290494
0.02994091857
0.02993922245
0.02993781283
0.02993679424
0.02997351359
0.02997044357
0.02996669629
0.02996261534
0.02995848877
0.02995452405
0.02995085287
0.02994754617
0.02994463046
0.0299421022
0.0299399392
0.02993810955
0.02993658031
0.02993533582
0.02993445181
0.02996544685
0.02995724476
0.02994948291
0.02994292135
0.02993772779
0.02993379429
0.02993091618
0.0299288771
0.02992748366
0.02992657575
0.02992602623
0.02992573641
0.02992562968
0.02992564249
0.02992570621
0.02992613512
0.02990175082
0.02988807411
0.02988225301
0.02988128674
0.02988303806
0.02988616462
0.02988987277
0.02989371221
0.0298974383
0.0299009265
0.0299041196
0.02990698972
0.02990948423
0.02991134802
0.02971172576
0.0296823315
0.02970436317
0.0297379994
0.02977018615
0.02979750373
0.02981976983
0.02983771926
0.02985221073
0.02986399057
0.02987364923
0.02988163471
0.02988826724
0.02989369726
0.02989759709
0.02896382035
0.02933012313
0.02953268016
0.02965116195
0.02972450876
0.02977247324
0.02980546417
0.02982918872
0.02984690593
0.02986055395
0.02987132888
0.02987997782
0.02988688636
0.02989177244
0.02968233078
0.02970436377
0.02973800008
0.02977018675
0.02979750424
0.02981977027
0.02983771964
0.02985221106
0.02986399086
0.02987364949
0.02988163494
0.02988826746
0.02989369745
0.02989759727
0.02990175076
0.02988807426
0.02988225328
0.02988128707
0.02988303842
0.02988616497
0.02988987311
0.02989371255
0.02989743862
0.0299009268
0.02990411989
0.02990699
0.0299094845
0.02991134828
0.02995724471
0.02994948291
0.02994292142
0.02993772792
0.02993379446
0.02993091639
0.02992887734
0.02992748392
0.02992657602
0.02992602651
0.02992573669
0.02992562997
0.02992564278
0.0299257065
0.02997044355
0.02996669629
0.02996261537
0.02995848884
0.02995452415
0.02995085301
0.02994754634
0.02994463066
0.02994210242
0.02993993945
0.02993810981
0.02993658059
0.02993533611
0.02993445211
0.02997441306
0.02997198907
0.02996885222
0.0299652573
0.02996146825
0.029957704
0.02995412102
0.02995081639
0.02994783943
0.0299452049
0.02994290485
0.02994091847
0.02993922233
0.0299378127
0.0299367941
0.0299695452
0.02996359076
0.02995713093
0.02995100162
0.02994565921
0.02994126002
0.02993777922
0.02993510493
0.02993309723
0.02993161952
0.02993055222
0.0299297968
0.02992927505
0.02992892766
0.02992872171
0.02995114159
0.02993426185
0.0299204692
0.0299109917
0.02990542715
0.0299028421
0.02990230137
0.02990305316
0.02990455443
0.02990643792
0.02990846691
0.0299104941
0.02991242521
0.02991417027
0.02991550518
0.02988811083
0.02984913435
0.02983187122
0.02982912472
0.02983421645
0.0298427874
0.02985238472
0.02986176954
0.02987039256
0.02987806728
0.02988478406
0.02989060846
0.02989561886
0.02989982592
0.02990289643
0.02971172602
0.02968233189
0.02970436447
0.02973800051
0.02977018702
0.02979750441
0.02981977037
0.02983771971
0.02985221111
0.0298639909
0.02987364953
0.02988163497
0.02988826748
0.02989369748
0.0298975973
0.02988811062
0.02984913453
0.02983187152
0.02982912503
0.02983421676
0.0298427877
0.029852385
0.02986176979
0.02987039279
0.02987806749
0.02988478426
0.02989060864
0.02989561903
0.02989982608
0.02990289658
0.02993426134
0.029920469
0.0299109917
0.02990542728
0.02990284231
0.02990230162
0.02990305343
0.02990455471
0.02990643819
0.02990846718
0.02991049436
0.02991242547
0.02991417052
0.02991550543
0.0299635906
0.02995713082
0.02995100159
0.02994565924
0.02994126012
0.02993777936
0.02993510511
0.02993309744
0.02993161975
0.02993055247
0.02992979705
0.02992927531
0.02992892793
0.02992872198
0.02997198901
0.02996885216
0.02996525726
0.02996146825
0.02995770403
0.02995412109
0.02995081649
0.02994783957
0.02994520507
0.02994290505
0.02994091869
0.02993922257
0.02993781296
0.02993679437
0.02997561399
0.02997415737
0.02997213496
0.02996963683
0.02996680504
0.02996379243
0.0299607356
0.02995774223
0.02995488856
0.02995222267
0.02994977031
0.02994754202
0.02994554392
0.02994380731
0.02994250879
0.02997347897
0.02997032958
0.02996643671
0.02996221354
0.02995801788
0.02995409338
0.02995057166
0.02994749927
0.02994486817
0.0299426406
0.02994076634
0.02993919376
0.02993787836
0.02993679895
0.0299360237
0.02996695482
0.02995912956
0.02995093982
0.02994354241
0.02993749316
0.02993290138
0.02992962826
0.02992743496
0.02992606947
0.02992530809
0.02992496953
0.02992491467
0.02992503912
0.02992525914
0.02992547772
0.02995114159
0.02993426191
0.02992046933
0.02991099188
0.02990542735
0.02990284232
0.02990230159
0.02990305339
0.02990455465
0.02990643813
0.02990846711
0.02991049428
0.02991242539
0.02991417044
0.02991550535
0.02992613536
0.02990175141
0.02988807486
0.02988225378
0.02988128745
0.02988303872
0.02988616521
0.02988987331
0.0298937127
0.02989743875
0.02990092692
0.02990411999
0.02990699008
0.02990948457
0.02991134835
0.02995114166
0.02993426203
0.02992046947
0.02991099204
0.02990542752
0.02990284249
0.02990230176
0.02990305354
0.0299045548
0.02990643827
0.02990846724
0.02991049441
0.02991242552
0.02991417056
0.02991550547
0.02996695472
0.02995912948
0.0299509398
0.02994354246
0.02993749326
0.02993290152
0.02992962843
0.02992743514
0.02992606967
0.02992530829
0.02992496974
0.02992491487
0.02992503932
0.02992525934
0.02992547792
0.02997032947
0.02996643664
0.02996221352
0.0299580179
0.02995409344
0.02995057175
0.02994749939
0.02994486832
0.02994264077
0.02994076652
0.02993919396
0.02993787857
0.02993679917
0.02993602392
0.02997415731
0.02997213491
0.02996963679
0.02996680503
0.02996379244
0.02996073564
0.0299577423
0.02995488866
0.02995222279
0.02994977046
0.02994754219
0.02994554411
0.02994380752
0.02994250901
0.02997641485
0.02997563949
0.02997449299
0.02997296866
0.02997110286
0.02996896072
0.02996662068
0.02996416194
0.02996165635
0.02995916424
0.02995673347
0.02995440165
0.02995220504
0.02995021342
0.02994867817
0.02997559355
0.0299741278
0.02997211943
0.02996967458
0.02996694119
0.02996406701
0.02996117595
0.02995835982
0.02995567956
0.02995317089
0.02995085105
0.02994872606
0.02994680104
0.02994510954
0.02994383323
0.02997347897
0.02997032959
0.02996643674
0.02996221358
0.02995801793
0.02995409344
0.02995057173
0.02994749934
0.02994486825
0.02994264069
0.02994076643
0.02993919385
0.02993787845
0.02993679904
0.02993602379
0.02996954519
0.02996359078
0.02995713098
0.02995100171
0.02994565933
0.02994126018
0.0299377794
0.02993510512
0.02993309744
0.02993161973
0.02993055244
0.02992979702
0.02992927526
0.02992892788
0.02992872193
0.02996544689
0.02995724489
0.02994948313
0.02994292164
0.02993772812
0.02993379465
0.02993091655
0.02992887749
0.02992748405
0.02992657614
0.02992602661
0.02992573679
0.02992563006
0.02992564287
0.02992570658
0.02996954521
0.02996359081
0.02995713103
0.02995100177
0.0299456594
0.02994126025
0.02993777948
0.0299351052
0.02993309753
0.02993161983
0.02993055253
0.02992979711
0.02992927536
0.02992892798
0.02992872203
0.02997347896
0.02997032957
0.02996643673
0.02996221358
0.02995801796
0.02995409349
0.02995057179
0.02994749942
0.02994486835
0.0299426408
0.02994076655
0.02993919398
0.02993787859
0.02993679918
0.02993602394
0.02997559352
0.02997412776
0.02997211939
0.02996967456
0.02996694117
0.02996406701
0.02996117598
0.02995835986
0.02995567963
0.02995317097
0.02995085115
0.02994872618
0.02994680117
0.02994510969
0.02994383339
0.02997563946
0.02997449296
0.02997296863
0.02997110284
0.02996896071
0.02996662069
0.02996416197
0.0299616564
0.02995916431
0.02995673356
0.02995440176
0.02995220517
0.02995021357
0.02994867834
0.02997677299
0.02997631127
0.02997559453
0.02997458401
0.02997326794
0.02997166116
0.0299697999
0.02996773435
0.02996552126
0.02996321787
0.02996087789
0.02995855078
0.02995628896
0.02995418495
0.02995253403
0.02997641485
0.0299756395
0.02997449299
0.02997296867
0.02997110287
0.02996896073
0.02996662069
0.02996416196
0.02996165638
0.02995916427
0.0299567335
0.02995440169
0.02995220508
0.02995021347
0.02994867822
0.02997561399
0.02997415737
0.02997213496
0.02996963685
0.02996680507
0.02996379247
0.02996073565
0.02995774229
0.02995488864
0.02995222276
0.02994977041
0.02994754213
0.02994554404
0.02994380743
0.02994250892
0.02997441305
0.02997198907
0.02996885223
0.02996525733
0.0299614683
0.02995770408
0.02995412112
0.02995081652
0.02994783958
0.02994520507
0.02994290504
0.02994091867
0.02993922255
0.02993781293
0.02993679433
0.0299735136
0.02997044361
0.02996669636
0.02996261545
0.02995848892
0.02995452424
0.0299508531
0.02994754642
0.02994463073
0.0299421025
0.02993993952
0.02993810988
0.02993658065
0.02993533617
0.02993445217
0.02997441305
0.02997198907
0.02996885223
0.02996525733
0.02996146831
0.0299577041
0.02995412114
0.02995081654
0.02994783961
0.02994520511
0.02994290509
0.02994091872
0.0299392226
0.02993781299
0.0299367944
0.02997561398
0.02997415736
0.02997213496
0.02996963684
0.02996680507
0.02996379248
0.02996073567
0.02995774233
0.02995488868
0.02995222282
0.02994977048
0.02994754221
0.02994554413
0.02994380753
0.02994250902
0.02997641484
0.02997563949
0.02997449298
0.02997296866
0.02997110287
0.02996896075
0.02996662072
0.029964162
0.02996165643
0.02995916434
0.02995673359
0.02995440179
0.0299522052
0.0299502136
0.02994867837
0.02997677298
0.02997631126
0.02997559451
0.02997458399
0.02997326792
0.02997166115
0.0299697999
0.02996773437
0.0299655213
0.02996321792
0.02996087796
0.02995855087
0.02995628907
0.02995418508
0.02995253418
)
;

boundaryField
{
    top
    {
        type            calculated;
        value           nonuniform List<scalar> 
127
(
0.02997677298
0.02997631126
0.02997563948
0.02997415734
0.02997198902
0.02997044355
0.02997198901
0.02997415731
0.02997563946
0.02997631126
0.02997559451
0.02997449297
0.02997213492
0.02996885216
0.02996669629
0.02996885216
0.02997213491
0.02997449296
0.02997559451
0.02997458398
0.02997296863
0.02996963679
0.02996525724
0.02996261537
0.02996525726
0.02996963679
0.02997296863
0.02997458399
0.0299732679
0.02997110282
0.029966805
0.02996146821
0.02995848884
0.02996146825
0.02996680503
0.02997110284
0.02997326792
0.02997166111
0.02996896067
0.02996379239
0.02995770398
0.02995452415
0.02995770403
0.02996379244
0.02996896071
0.02997166115
0.02996979984
0.02996662062
0.02996073557
0.02995412101
0.02995085301
0.02995412109
0.02996073564
0.02996662069
0.0299697999
0.02996773428
0.02996416188
0.02995774221
0.02995081641
0.02994754634
0.02995081649
0.0299577423
0.02996416197
0.02996773437
0.02996552119
0.02996165629
0.02995488855
0.02994783947
0.02994463066
0.02994783957
0.02995488866
0.0299616564
0.0299655213
0.02996321779
0.02995916417
0.02995222267
0.02994520497
0.02994210242
0.02994520507
0.02995222279
0.02995916431
0.02996321792
0.0299608778
0.0299567334
0.02994977031
0.02994290494
0.02993993945
0.02994290505
0.02994977046
0.02995673356
0.02996087796
0.02995855068
0.02995440159
0.02994754203
0.02994091857
0.02993810981
0.02994091869
0.02994754219
0.02995440176
0.02995855087
0.02995628886
0.02995220498
0.02994554394
0.02993922245
0.02993658059
0.02993922257
0.02994554411
0.02995220517
0.02995628907
0.02995418485
0.02995021336
0.02994380734
0.02993781283
0.02993533611
0.02993781296
0.02994380752
0.02995021357
0.02995418508
0.02995253392
0.02994867812
0.02994250882
0.02993679424
0.02993445211
0.02993679437
0.02994250901
0.02994867834
0.02995253418
)
;
    }
    bottom
    {
        type            calculated;
        value           nonuniform List<scalar> 
134
(
0.02997641483
0.02997561398
0.02997441304
0.02997351359
0.02997441306
0.02997561399
0.02997641485
0.02997677299
0.02997631125
0.02997563947
0.02997415734
0.02997198904
0.02997044357
0.02997198907
0.02997415737
0.02997563949
0.02997631127
0.02997559449
0.02997449295
0.02997213491
0.02996885217
0.02996669629
0.02996885222
0.02997213496
0.02997449299
0.02997559453
0.02997458396
0.02997296861
0.02996963678
0.02996525724
0.02996261534
0.0299652573
0.02996963683
0.02997296866
0.02997458401
0.02997326788
0.02997110279
0.02996680497
0.02996146817
0.02995848877
0.02996146825
0.02996680504
0.02997110286
0.02997326794
0.02997166108
0.02996896064
0.02996379235
0.02995770392
0.02995452405
0.029957704
0.02996379243
0.02996896072
0.02997166116
0.0299697998
0.02996662058
0.0299607355
0.02995412093
0.02995085287
0.02995412102
0.0299607356
0.02996662068
0.0299697999
0.02996773424
0.02996416183
0.02995774212
0.02995081629
0.02994754617
0.02995081639
0.02995774223
0.02996416194
0.02996773435
0.02996552113
0.02996165622
0.02995488844
0.02994783932
0.02994463046
0.02994783943
0.02995488856
0.02996165635
0.02996552126
0.02996321772
0.02995916409
0.02995222254
0.0299452048
0.0299421022
0.0299452049
0.02995222267
0.02995916424
0.02996321787
0.02996087772
0.0299567333
0.02994977016
0.02994290475
0.0299399392
0.02994290485
0.02994977031
0.02995673347
0.02996087789
0.02995855059
0.02995440147
0.02994754187
0.02994091836
0.02993810955
0.02994091847
0.02994754202
0.02995440165
0.02995855078
0.02995628875
0.02995220484
0.02994554376
0.02993922222
0.02993658031
0.02993922233
0.02994554392
0.02995220504
0.02995628896
0.02995418472
0.02995021321
0.02994380714
0.02993781258
0.02993533582
0.0299378127
0.02994380731
0.02995021342
0.02995418495
0.02995253379
0.02994867795
0.02994250861
0.02993679398
0.02993445181
0.0299367941
0.02994250879
0.02994867817
0.02995253403
)
;
    }
    side-walls
    {
        type            calculated;
        value           nonuniform List<scalar> 
261
(
0.02997631125
0.02997563946
0.02997415732
0.02997198899
0.02997044352
0.02997198903
0.02997415734
0.02997563948
0.02997631126
0.02997559449
0.02997449294
0.02997213488
0.02996885209
0.02996669621
0.02996885215
0.02997213491
0.02997449297
0.02997559451
0.02997458396
0.0299729686
0.02996963674
0.02996525714
0.02996261524
0.02996525722
0.02996963678
0.02997296863
0.02997458398
0.02997326788
0.02997110278
0.02996680492
0.02996146807
0.02995848865
0.02996146815
0.02996680497
0.02997110281
0.0299732679
0.02997166108
0.02996896063
0.02996379229
0.0299577038
0.02995452392
0.02995770389
0.02996379235
0.02996896067
0.02997166111
0.0299697998
0.02996662056
0.02996073545
0.0299541208
0.02995085274
0.0299541209
0.02996073551
0.02996662061
0.02996979984
0.02996773424
0.02996416181
0.02995774206
0.02995081616
0.02994754603
0.02995081627
0.02995774214
0.02996416187
0.02996773428
0.02996552113
0.0299616562
0.02995488838
0.0299478392
0.02994463032
0.02994783931
0.02995488846
0.02996165627
0.02996552119
0.02996321772
0.02995916407
0.02995222247
0.02994520467
0.02994210206
0.02994520478
0.02995222257
0.02995916415
0.02996321779
0.02996087772
0.02995673328
0.0299497701
0.02994290463
0.02993993907
0.02994290473
0.0299497702
0.02995673337
0.0299608778
0.02995855059
0.02995440145
0.02994754181
0.02994091824
0.02993810943
0.02994091835
0.02994754192
0.02995440155
0.02995855068
0.02995628875
0.02995220482
0.0299455437
0.02993922211
0.02993658019
0.02993922221
0.02994554381
0.02995220494
0.02995628886
0.02995418472
0.02995021319
0.02994380708
0.02993781248
0.0299353357
0.02993781258
0.0299438072
0.02995021332
0.02995418485
0.02995253379
0.02994867793
0.02994250855
0.02993679388
0.0299344517
0.02993679398
0.02994250868
0.02994867807
0.02995253392
0.02997677299
0.02997641485
0.02997561399
0.02997441305
0.0299735136
0.02997441305
0.02997561398
0.02997641484
0.02997677298
0.02997631127
0.0299756395
0.02997415737
0.02997198907
0.02997044361
0.02997198907
0.02997415736
0.02997563949
0.02997631126
0.02997559453
0.02997449299
0.02997213496
0.02996885223
0.02996669636
0.02996885223
0.02997213496
0.02997449298
0.02997559451
0.02997458401
0.02997296867
0.02996963685
0.02996525733
0.02996261545
0.02996525733
0.02996963684
0.02997296866
0.02997458399
0.02997326794
0.02997110287
0.02996680507
0.0299614683
0.02995848892
0.02996146831
0.02996680507
0.02997110287
0.02997326792
0.02997166116
0.02996896073
0.02996379247
0.02995770408
0.02995452424
0.0299577041
0.02996379248
0.02996896075
0.02997166115
0.0299697999
0.02996662069
0.02996073565
0.02995412112
0.0299508531
0.02995412114
0.02996073567
0.02996662072
0.0299697999
0.02996773435
0.02996416196
0.02995774229
0.02995081652
0.02994754642
0.02995081654
0.02995774233
0.029964162
0.02996773437
0.02996552126
0.02996165638
0.02995488864
0.02994783958
0.02994463073
0.02994783961
0.02995488868
0.02996165643
0.0299655213
0.02996321787
0.02995916427
0.02995222276
0.02994520507
0.0299421025
0.02994520511
0.02995222282
0.02995916434
0.02996321792
0.02996087789
0.0299567335
0.02994977041
0.02994290504
0.02993993952
0.02994290509
0.02994977048
0.02995673359
0.02996087796
0.02995855078
0.02995440169
0.02994754213
0.02994091867
0.02993810988
0.02994091872
0.02994754221
0.02995440179
0.02995855087
0.02995628896
0.02995220508
0.02994554404
0.02993922255
0.02993658065
0.0299392226
0.02994554413
0.0299522052
0.02995628907
0.02995418495
0.02995021347
0.02994380743
0.02993781293
0.02993533617
0.02993781299
0.02994380753
0.0299502136
0.02995418508
0.02995253403
0.02994867822
0.02994250892
0.02993679433
0.02993445217
0.0299367944
0.02994250902
0.02994867837
0.02995253418
)
;
    }
    inlet
    {
        type            calculated;
        value           nonuniform 0();
    }
    outlet
    {
        type            calculated;
        value           nonuniform List<scalar> 
81
(
0.02995253379
0.02994867793
0.02994250855
0.02993679388
0.0299344517
0.02993679398
0.02994250868
0.02994867807
0.02995253392
0.02994867795
0.02994383295
0.02993602344
0.02992872151
0.02992570612
0.0299287216
0.02993602359
0.02994383312
0.02994867812
0.02994250861
0.02993602348
0.02992547741
0.02991550496
0.02991134795
0.02991550509
0.02992547761
0.02993602368
0.02994250882
0.02993679398
0.02992872157
0.02991550499
0.02990289618
0.02989759703
0.02990289634
0.02991550525
0.02992872184
0.02993679424
0.02993445181
0.02992570621
0.02991134802
0.02989759709
0.02989177244
0.02989759727
0.02991134828
0.0299257065
0.02993445211
0.0299367941
0.02992872171
0.02991550518
0.02990289643
0.0298975973
0.02990289658
0.02991550543
0.02992872198
0.02993679437
0.02994250879
0.0299360237
0.02992547772
0.02991550535
0.02991134835
0.02991550547
0.02992547792
0.02993602392
0.02994250901
0.02994867817
0.02994383323
0.02993602379
0.02992872193
0.02992570658
0.02992872203
0.02993602394
0.02994383339
0.02994867834
0.02995253403
0.02994867822
0.02994250892
0.02993679433
0.02993445217
0.0299367944
0.02994250902
0.02994867837
0.02995253418
)
;
    }
    procBoundary1to0
    {
        type            processor;
        value           nonuniform List<scalar> 
97
(
0.02997677298
0.02997677298
0.02997641484
0.02997561399
0.02997441305
0.02997351362
0.02997441308
0.029975614
0.02997641485
0.02997677299
0.02997687399
0.02997559352
0.02997559352
0.02997559352
0.02997347896
0.02996954522
0.02996544697
0.02996954527
0.029973479
0.02997559357
0.02997641485
0.02997651071
0.02997557254
0.0299669547
0.0299669547
0.0299669547
0.02995114162
0.02992613568
0.0299511419
0.02996695496
0.02997347901
0.029975614
0.02997597925
0.02997392099
0.02996673433
0.02988810987
0.02988810987
0.02988810987
0.02971172836
0.02988811159
0.02995114187
0.02996954525
0.02997441307
0.02997560045
0.0299723658
0.0299587701
0.02990506687
0.02826325165
0.02826325165
0.02826325165
0.0297117276
0.0297117276
0.02992613555
0.02996544696
0.02997351363
0.02997597925
0.029973921
0.02996673434
0.02994588401
0.02990506683
0.02994588408
0.0299511413
0.0299511413
0.0299511413
0.02996954518
0.02997441306
0.02997651071
0.02997557254
0.02997282771
0.02996673433
0.02995877017
0.02996673437
0.02997282771
0.02997347891
0.02997347891
0.02997347891
0.02997561398
0.02997687399
0.02997650347
0.02997557254
0.02997392099
0.0299723658
0.029973921
0.02997557254
0.02997650346
0.02997641483
0.02997641483
0.02997641483
0.02997703866
0.02997687399
0.02997651071
0.02997597925
0.02997560045
0.02997597925
0.0299765107
0.02997687399
0.02997703865
)
;
    }
}


// ************************************************************************* //
