/*--------------------------------*- C++ -*----------------------------------*\
| =========                 |                                                 |
| \\      /  F ield         | OpenFOAM: The Open Source CFD Toolbox           |
|  \\    /   O peration     | Version:  4.x                                   |
|   \\  /    A nd           | Web:      www.OpenFOAM.org                      |
|    \\/     M anipulation  |                                                 |
\*---------------------------------------------------------------------------*/
FoamFile
{
    version     2.0;
    format      ascii;
    class       volScalarField;
    location    "3000";
    object      CO;
}
// * * * * * * * * * * * * * * * * * * * * * * * * * * * * * * * * * * * * * //

dimensions      [0 0 0 0 0 0 0];

internalField   nonuniform List<scalar> 
1174
(
0.3719586672
0.3719547647
0.3719492481
0.3719420455
0.3719332305
0.3719229954
0.3719116112
0.3718993869
0.3718866358
0.3718736548
0.3718607179
0.3718481173
0.3718363703
0.3718271315
0.3719549958
0.3719487295
0.3719403764
0.3719301268
0.371918332
0.3719054179
0.3718918194
0.3718779323
0.3718640906
0.3718505626
0.3718375586
0.3718252831
0.3718141301
0.3718055131
0.3719468777
0.3719357811
0.3719220385
0.3719064206
0.3718897646
0.3718728245
0.3718561972
0.3718403096
0.3718254345
0.3718117203
0.3717992314
0.3717880071
0.3717782289
0.3717708996
0.3719349648
0.3719177033
0.3718978679
0.3718769068
0.3718560303
0.3718361088
0.3718176883
0.3718010518
0.3717862903
0.3717733681
0.3717621769
0.3717525924
0.3717446022
0.371738811
0.371926444
0.3719057913
0.3718832424
0.3718603841
0.3718383672
0.3718179282
0.3717994705
0.3717831506
0.3717689593
0.3717567814
0.3717464466
0.3717377788
0.3717306985
0.371725651
0.3719349649
0.3719177034
0.3718978685
0.3718769077
0.3718560311
0.3718361095
0.3718176891
0.3718010528
0.3717862917
0.3717733697
0.3717621781
0.3717525939
0.3717446042
0.3717388132
0.3719468776
0.3719357814
0.3719220392
0.3719064213
0.3718897654
0.3718728251
0.3718561984
0.3718403114
0.3718254367
0.3718117227
0.371799234
0.3717880099
0.3717782324
0.3717709039
0.3719549962
0.3719487297
0.3719403768
0.3719301276
0.3719183327
0.3719054191
0.3718918207
0.3718779337
0.3718640928
0.3718505649
0.3718375615
0.3718252868
0.3718141339
0.3718055168
0.3719586676
0.3719547649
0.3719492481
0.3719420457
0.371933231
0.3719229961
0.3719116123
0.3718993883
0.3718866381
0.3718736573
0.3718607208
0.3718481207
0.3718363742
0.3718271358
0.3719592224
0.3719549961
0.3719487298
0.3719403765
0.3719301272
0.3719183321
0.3719054182
0.3718918194
0.3718779322
0.371864091
0.3718505626
0.3718375587
0.3718252833
0.3718141302
0.3718055131
0.3719467058
0.3719356803
0.3719222236
0.3719071418
0.3718912455
0.37187522
0.3718595761
0.3718446564
0.371830663
0.3718176976
0.3718057973
0.3717949945
0.3717854826
0.371778289
0.3719258215
0.3719043586
0.371881007
0.3718577421
0.3718359209
0.371816286
0.3717991099
0.3717843616
0.3717718417
0.371761278
0.3717523895
0.3717449326
0.3717387947
0.3717343725
0.3718886474
0.3718529031
0.3718188776
0.3717891215
0.3717645331
0.3717450046
0.3717299381
0.3717185722
0.3717101573
0.3717040352
0.3716996597
0.3716965977
0.3716945232
0.3716932683
0.3718535087
0.3718104594
0.3717739442
0.3717449363
0.3717228757
0.3717066561
0.3716950951
0.3716871293
0.3716818759
0.3716786306
0.3716768454
0.3716760952
0.3716760294
0.3716762813
0.3718886481
0.371852904
0.3718188785
0.3717891228
0.3717645348
0.3717450067
0.3717299404
0.3717185743
0.37171016
0.3717040375
0.3716996622
0.3716966003
0.3716945258
0.3716932718
0.3719258226
0.3719043596
0.3718810085
0.371857744
0.3718359228
0.3718162882
0.3717991126
0.3717843648
0.3717718454
0.3717612821
0.3717523936
0.3717449369
0.3717387989
0.3717343772
0.3719467065
0.3719356812
0.3719222245
0.3719071427
0.3718912467
0.3718752217
0.3718595785
0.371844659
0.3718306663
0.3718177012
0.3718058015
0.3717949995
0.3717854879
0.3717782947
0.3719549965
0.37194873
0.3719403767
0.3719301275
0.3719183327
0.3719054195
0.3718918213
0.3718779345
0.3718640937
0.3718505659
0.3718375624
0.3718252879
0.3718141353
0.3718055186
0.3719548476
0.3719468777
0.3719357816
0.3719220387
0.371906421
0.3718897651
0.3718728246
0.3718561971
0.3718403098
0.3718254346
0.3718117204
0.3717992315
0.3717880075
0.3717782295
0.3717709001
0.3719431341
0.371925822
0.371904359
0.3718810074
0.3718577427
0.3718359212
0.3718162862
0.3717991101
0.3717843621
0.3717718417
0.3717612784
0.3717523897
0.3717449326
0.3717387944
0.3717343727
0.3718640338
0.3718186616
0.3717775246
0.3717437465
0.3717179856
0.3716995175
0.3716870483
0.3716791969
0.3716747296
0.3716726413
0.3716721584
0.3716726975
0.3716737931
0.3716749163
0.3717263914
0.3716496037
0.3715965255
0.3715650775
0.371550185
0.37154671
0.3715504982
0.3715585312
0.3715687594
0.3715798539
0.3715909846
0.3716016168
0.3716112447
0.3716186249
0.3715457938
0.371469207
0.3714361257
0.371430072
0.3714392393
0.3714561766
0.3714764585
0.3714975603
0.3715181016
0.3715373727
0.3715550418
0.371570944
0.3715847816
0.3715951361
0.3717263956
0.3716496078
0.3715965297
0.371565082
0.3715501894
0.3715467148
0.3715505026
0.3715585359
0.3715687641
0.3715798586
0.371590989
0.3716016213
0.3716112496
0.3716186292
0.3718640371
0.3718186644
0.3717775278
0.3717437499
0.3717179897
0.3716995223
0.3716870532
0.3716792024
0.3716747357
0.3716726476
0.3716721646
0.3716727037
0.3716737993
0.3716749227
0.3719258226
0.3719043595
0.3718810088
0.3718577446
0.3718359239
0.3718162895
0.3717991146
0.3717843666
0.3717718471
0.3717612843
0.3717523963
0.3717449395
0.3717388018
0.3717343799
0.3719468779
0.3719357817
0.3719220393
0.3719064217
0.3718897666
0.3718728268
0.3718562
0.3718403138
0.3718254395
0.371811726
0.3717992375
0.3717880141
0.3717782367
0.3717709077
0.371948267
0.3719349656
0.371917704
0.3718978685
0.3718769077
0.3718560311
0.3718361095
0.3718176891
0.3718010526
0.371786291
0.3717733688
0.3717621775
0.3717525928
0.3717446029
0.3717388116
0.3719214905
0.3718886483
0.3718529043
0.3718188787
0.3717891225
0.371764534
0.3717450058
0.3717299391
0.3717185729
0.3717101581
0.3717040359
0.3716996603
0.3716965985
0.3716945238
0.3716932689
0.3718199317
0.3717263936
0.3716496055
0.3715965272
0.3715650789
0.3715501862
0.3715467112
0.3715504993
0.3715585325
0.3715687605
0.3715798552
0.3715909859
0.3716016177
0.3716112454
0.3716186254
0.3712538831
0.3711566415
0.3711399836
0.3711671427
0.3712139699
0.3712667924
0.3713186525
0.371366429
0.3714090337
0.3714463749
0.3714787926
0.3715067064
0.3715301673
0.3715473135
0.3703251506
0.3704446493
0.3706298027
0.3708078377
0.3709593795
0.3710831485
0.3711830704
0.3712638319
0.371329538
0.3713834491
0.3714280467
0.3714651074
0.3714954688
0.3715172992
0.3712539001
0.3711566538
0.3711399943
0.3711671527
0.3712139795
0.3712668011
0.3713186605
0.3713664366
0.3714090403
0.3714463814
0.3714787986
0.3715067123
0.3715301732
0.371547319
0.3717263952
0.3716496089
0.3715965322
0.3715650857
0.3715501942
0.37154672
0.3715505082
0.3715585412
0.3715687694
0.3715798641
0.3715909945
0.3716016263
0.3716112541
0.3716186342
0.3718886478
0.3718529045
0.3718188801
0.3717891254
0.3717645385
0.3717450111
0.3717299451
0.37171858
0.371710166
0.3717040444
0.3716996691
0.3716966079
0.3716945329
0.3716932788
0.3719349652
0.3719177038
0.371897869
0.3718769093
0.3718560334
0.3718361128
0.3718176932
0.3718010577
0.3717862973
0.3717733758
0.3717621856
0.3717526018
0.3717446123
0.3717388216
0.3719433203
0.3719264448
0.3719057924
0.3718832434
0.3718603852
0.3718383681
0.3718179296
0.3717994719
0.3717831522
0.3717689609
0.3717567827
0.3717464482
0.3717377803
0.3717307001
0.3717256527
0.3718988535
0.3718535101
0.3718104611
0.3717739461
0.3717449382
0.371722878
0.3717066586
0.3716950971
0.3716871314
0.3716818778
0.3716786324
0.3716768472
0.371676097
0.3716760309
0.3716762825
0.3716813661
0.3715457972
0.3714692113
0.37143613
0.3714300756
0.3714392427
0.3714561796
0.371476461
0.371497563
0.3715181041
0.3715373749
0.3715550437
0.3715709458
0.3715847831
0.3715951371
0.3704915931
0.3703251661
0.3704446591
0.3706298098
0.370807843
0.3709593834
0.3710831513
0.3711830727
0.3712638339
0.3713295397
0.3713834506
0.3714280479
0.3714651088
0.3714954698
0.3715173004
0.3663181987
0.3683487616
0.3694759902
0.3701371614
0.3705472288
0.3708157054
0.3710004934
0.3711334239
0.3712327091
0.3713091957
0.3713695833
0.3714180616
0.3714567984
0.3714842253
0.3703251507
0.370444667
0.3706298233
0.3708078571
0.3709593969
0.3710831639
0.3711830839
0.3712638439
0.3713295488
0.3713834591
0.3714280552
0.3714651156
0.3714954762
0.3715173064
0.3715457922
0.3714692129
0.3714361364
0.3714300852
0.3714392534
0.3714561913
0.371476473
0.3714975744
0.3715181152
0.3715373858
0.3715550543
0.3715709561
0.3715847932
0.3715951471
0.3718535081
0.3718104609
0.3717739482
0.3717449422
0.3717228837
0.3717066653
0.3716951051
0.3716871401
0.3716818866
0.371678642
0.3716768571
0.3716761072
0.3716760412
0.3716762932
0.3719264438
0.3719057916
0.3718832438
0.3718603867
0.3718383711
0.3718179336
0.3717994771
0.3717831583
0.3717689682
0.3717567912
0.3717464574
0.3717377899
0.3717307105
0.3717256633
0.3719482671
0.3719349658
0.3719177044
0.3718978694
0.371876909
0.3718560326
0.3718361114
0.3718176912
0.3718010546
0.3717862935
0.3717733711
0.3717621801
0.3717525959
0.3717446061
0.371738815
0.3719214913
0.3718886499
0.3718529062
0.371818881
0.3717891253
0.3717645373
0.3717450089
0.3717299423
0.3717185765
0.371710162
0.3717040397
0.3716996644
0.3716966026
0.371694528
0.3716932736
0.3718199388
0.3717264005
0.371649613
0.3715965347
0.3715650865
0.3715501935
0.3715467187
0.3715505063
0.3715585389
0.3715687668
0.3715798613
0.3715909913
0.3716016233
0.3716112511
0.3716186312
0.3714709821
0.3712539139
0.3711566652
0.3711400034
0.3711671597
0.3712139851
0.3712668058
0.3713186644
0.3713664402
0.3714090432
0.3714463837
0.3714788007
0.371506714
0.3715301746
0.3715473202
0.3704915965
0.3703251715
0.3704446796
0.370629832
0.370807863
0.3709594014
0.371083167
0.3711830864
0.3712638459
0.3713295503
0.3713834603
0.3714280563
0.3714651166
0.371495477
0.3715173071
0.371470977
0.3712539145
0.3711566704
0.3711400117
0.3711671695
0.3712139949
0.3712668155
0.3713186733
0.371366449
0.3714090515
0.3714463913
0.3714788076
0.3715067206
0.371530181
0.3715473266
0.371726391
0.3716496107
0.3715965375
0.3715650925
0.3715502016
0.3715467281
0.3715505158
0.371558549
0.371568777
0.3715798711
0.3715910012
0.371601633
0.3716112607
0.3716186402
0.3718886464
0.3718529042
0.3718188816
0.3717891278
0.3717645415
0.3717450145
0.3717299494
0.3717185843
0.3717101704
0.3717040486
0.3716996738
0.3716966123
0.3716945377
0.3716932836
0.3719349643
0.3719177033
0.3718978692
0.3718769098
0.3718560346
0.3718361145
0.3718176957
0.3718010605
0.3717863
0.371773379
0.3717621884
0.3717526051
0.3717446158
0.3717388253
0.3719548474
0.3719468781
0.3719357824
0.37192204
0.3719064223
0.3718897665
0.3718728268
0.3718562
0.3718403129
0.3718254384
0.3718117246
0.3717992359
0.3717880119
0.3717782342
0.3717709054
0.3719431354
0.3719258235
0.3719043611
0.3718810099
0.3718577456
0.3718359244
0.37181629
0.3717991146
0.3717843669
0.3717718473
0.3717612842
0.371752396
0.3717449392
0.3717388013
0.3717343797
0.3719072399
0.3718640399
0.3718186675
0.3717775309
0.3717437534
0.371717993
0.3716995256
0.3716870561
0.3716792052
0.3716747381
0.3716726501
0.371672167
0.3716727059
0.371673801
0.3716749246
0.371819939
0.3717264019
0.3716496162
0.3715965391
0.3715650917
0.3715501995
0.3715467245
0.3715505122
0.371558545
0.3715687724
0.3715798666
0.371590997
0.3716016288
0.3716112564
0.371618636
0.3716813671
0.3715458037
0.3714692227
0.3714361446
0.3714300917
0.3714392589
0.3714561956
0.3714764765
0.3714975771
0.3715181177
0.3715373881
0.3715550565
0.3715709578
0.3715847947
0.3715951488
0.3718199392
0.3717264034
0.3716496185
0.3715965426
0.3715650963
0.3715502045
0.3715467303
0.3715505178
0.3715585508
0.3715687783
0.3715798724
0.3715910026
0.3716016345
0.3716112615
0.3716186404
0.3719072374
0.3718640381
0.3718186676
0.3717775327
0.3717437565
0.3717179975
0.3716995312
0.371687063
0.3716792123
0.3716747455
0.3716726576
0.3716721747
0.3716727135
0.3716738091
0.3716749326
0.3719258213
0.3719043597
0.37188101
0.371857747
0.3718359273
0.371816294
0.3717991197
0.3717843728
0.3717718538
0.3717612912
0.3717524033
0.371744947
0.3717388094
0.3717343877
0.371946877
0.3719357812
0.3719220394
0.3719064229
0.3718897681
0.3718728289
0.3718562031
0.3718403171
0.3718254434
0.3718117306
0.3717992432
0.37178802
0.3717782429
0.3717709143
0.3719592227
0.3719549961
0.3719487301
0.3719403772
0.3719301282
0.3719183334
0.3719054199
0.3718918218
0.3718779348
0.3718640944
0.3718505666
0.3718375629
0.3718252883
0.3718141356
0.3718055185
0.3719547311
0.3719467072
0.371935682
0.3719222257
0.3719071439
0.3718912482
0.371875223
0.3718595799
0.3718446606
0.3718306686
0.3718177031
0.3718058034
0.3717950012
0.3717854897
0.3717782966
0.3719431352
0.3719258237
0.3719043611
0.3718810103
0.3718577466
0.3718359262
0.3718162919
0.3717991166
0.3717843691
0.3717718496
0.3717612867
0.3717523986
0.3717449418
0.3717388038
0.3717343823
0.3719214917
0.3718886505
0.3718529078
0.3718188837
0.3717891294
0.3717645421
0.3717450146
0.3717299486
0.3717185832
0.3717101689
0.3717040467
0.3716996716
0.3716966102
0.3716945356
0.3716932811
0.3718988539
0.3718535126
0.3718104654
0.3717739525
0.3717449464
0.3717228877
0.3717066692
0.3716951083
0.3716871429
0.3716818896
0.3716786446
0.3716768597
0.3716761094
0.3716760435
0.371676295
0.3719214917
0.3718886512
0.3718529089
0.3718188854
0.3717891311
0.3717645445
0.3717450175
0.371729952
0.3717185867
0.3717101726
0.3717040509
0.3716996757
0.371696614
0.3716945396
0.3716932849
0.3719431351
0.3719258236
0.3719043613
0.3718810116
0.3718577484
0.3718359287
0.3718162953
0.3717991207
0.3717843735
0.3717718545
0.3717612919
0.3717524041
0.3717449477
0.3717388102
0.3717343888
0.3719547303
0.3719467063
0.3719356816
0.3719222258
0.3719071446
0.37189125
0.3718752257
0.3718595832
0.3718446645
0.3718306729
0.3718177085
0.3718058091
0.3717950077
0.3717854966
0.3717783037
0.3719549957
0.3719487296
0.3719403771
0.3719301286
0.3719183343
0.3719054214
0.3718918239
0.3718779379
0.371864098
0.3718505712
0.3718375683
0.3718252944
0.3718141425
0.3718055267
0.3719611743
0.3719586673
0.3719547647
0.3719492485
0.3719420461
0.3719332315
0.3719229967
0.3719116131
0.371899389
0.3718866389
0.3718736585
0.3718607221
0.371848122
0.3718363756
0.3718271372
0.3719592226
0.3719549965
0.3719487301
0.3719403774
0.3719301281
0.3719183338
0.3719054203
0.3718918223
0.3718779359
0.3718640954
0.3718505676
0.3718375641
0.3718252896
0.371814137
0.3718055207
0.371954848
0.3719468784
0.3719357825
0.3719220402
0.371906423
0.3718897681
0.3718728282
0.371856202
0.3718403157
0.3718254416
0.3718117279
0.3717992398
0.3717880162
0.3717782389
0.3717709102
0.3719482672
0.3719349662
0.3719177052
0.371897871
0.3718769117
0.3718560359
0.3718361154
0.3718176962
0.3718010609
0.3717862999
0.3717733786
0.3717621878
0.3717526042
0.3717446151
0.371738824
0.3719433207
0.3719264459
0.3719057938
0.3718832463
0.3718603894
0.3718383742
0.3718179369
0.3717994799
0.3717831611
0.3717689708
0.3717567935
0.3717464596
0.3717377925
0.3717307128
0.3717256659
0.3719482673
0.3719349662
0.3719177056
0.3718978718
0.3718769125
0.3718560375
0.3718361171
0.3718176979
0.3718010628
0.3717863027
0.3717733815
0.371762191
0.3717526072
0.371744618
0.3717388273
0.3719548476
0.3719468782
0.3719357827
0.3719220411
0.3719064242
0.3718897695
0.3718728306
0.3718562047
0.3718403189
0.3718254452
0.371811732
0.3717992444
0.3717880212
0.371778244
0.3717709155
0.3719592223
0.3719549963
0.3719487302
0.3719403775
0.3719301287
0.3719183349
0.3719054221
0.3718918246
0.3718779386
0.3718640988
0.3718505719
0.3718375692
0.3718252949
0.3718141428
0.3718055271
0.3719611741
0.3719586674
0.3719547649
0.3719492485
0.3719420465
0.3719332322
0.3719229981
0.3719116151
0.3718993918
0.3718866419
0.3718736624
0.3718607269
0.3718481275
0.3718363818
0.3718271444
)
;

boundaryField
{
    top
    {
        type            zeroGradient;
    }
    bottom
    {
        type            zeroGradient;
    }
    side-walls
    {
        type            zeroGradient;
    }
    inlet
    {
        type            zeroGradient;
    }
    outlet
    {
        type            zeroGradient;
    }
    procBoundary1to0
    {
        type            processor;
        value           nonuniform List<scalar> 
97
(
0.3719611742
0.3719611742
0.3719592227
0.3719548481
0.3719482679
0.3719433217
0.3719482679
0.3719548482
0.3719592231
0.3719611747
0.3719617181
0.3719547306
0.3719547306
0.3719547306
0.3719431355
0.3719214932
0.3718988574
0.3719214938
0.3719431367
0.3719547317
0.371959223
0.3719597393
0.3719546086
0.3719072374
0.3719072374
0.3719072374
0.3718199418
0.371681385
0.3718199471
0.3719072429
0.3719431367
0.3719548484
0.3719568363
0.3719455506
0.371906023
0.3714709726
0.3714709726
0.3714709726
0.370491711
0.3714710101
0.3718199464
0.3719214935
0.371948268
0.3719547603
0.3719369902
0.3718620442
0.3715649895
0.3624568038
0.3624568038
0.3624568038
0.3704917038
0.3704917038
0.3716813825
0.3718988567
0.3719433216
0.3719568363
0.3719455503
0.3719060223
0.3717909578
0.3715649846
0.3717909613
0.3718199344
0.3718199344
0.3718199344
0.3719214914
0.3719482671
0.3719597395
0.3719546083
0.3719395541
0.3719060222
0.3718620438
0.3719060232
0.3719395541
0.3719431343
0.3719431343
0.3719431343
0.3719548476
0.371961718
0.3719596978
0.3719546088
0.3719455505
0.3719369899
0.3719455505
0.3719546086
0.3719596978
0.3719592223
0.3719592223
0.3719592223
0.3719626128
0.3719617182
0.3719597394
0.3719568363
0.3719547601
0.3719568362
0.3719597394
0.3719617178
0.3719626124
)
;
    }
}


// ************************************************************************* //
