/*--------------------------------*- C++ -*----------------------------------*\
| =========                 |                                                 |
| \\      /  F ield         | OpenFOAM: The Open Source CFD Toolbox           |
|  \\    /   O peration     | Version:  4.x                                   |
|   \\  /    A nd           | Web:      www.OpenFOAM.org                      |
|    \\/     M anipulation  |                                                 |
\*---------------------------------------------------------------------------*/
FoamFile
{
    version     2.0;
    format      ascii;
    class       volScalarField;
    location    "3000";
    object      CO2;
}
// * * * * * * * * * * * * * * * * * * * * * * * * * * * * * * * * * * * * * //

dimensions      [0 0 0 0 0 0 0];

internalField   nonuniform List<scalar> 
1174
(
0.006513467333
0.006518514543
0.006525649712
0.006534965112
0.006546366394
0.006559604931
0.006574329862
0.006590141496
0.006606635352
0.006623426834
0.006640161926
0.006656462318
0.006671659422
0.006683611839
0.006518215914
0.006526320023
0.006537123515
0.006550379936
0.006565634822
0.006582338177
0.006599926916
0.006617889445
0.00663579442
0.006653293542
0.006670115925
0.006685996773
0.006700425726
0.006711573886
0.006528714449
0.006543065831
0.006560838982
0.006581037968
0.006602580229
0.006624490035
0.006645996362
0.006666547246
0.006685788998
0.006703529847
0.006719686747
0.006734208415
0.006746860299
0.006756343676
0.006544120742
0.006566443874
0.006592096588
0.006619206286
0.00664620645
0.00667197259
0.006695798775
0.006717318158
0.006736413634
0.006753130961
0.00676760973
0.006780011459
0.006790351465
0.006797845872
0.006555139637
0.006581847889
0.00661100931
0.006640572179
0.006669047874
0.006695483868
0.006719358112
0.006740468797
0.006758826942
0.006774581943
0.006787953815
0.006799169728
0.006808333205
0.006814865759
0.006544120584
0.006566443923
0.00659209512
0.006619204195
0.006646204703
0.006671971154
0.006695796928
0.006717315796
0.006736410342
0.006753127265
0.006767607052
0.006780008171
0.006790346868
0.006797840693
0.006528714883
0.006543065323
0.006560837616
0.006581036588
0.006602578581
0.00662448888
0.0066459937
0.006666543264
0.00668578384
0.006703524385
0.006719680559
0.00673420202
0.006746852105
0.006756333357
0.006518215037
0.006526319772
0.006537122631
0.006550378392
0.006565633279
0.006582335556
0.006599924099
0.006617886401
0.006635789482
0.006653288267
0.006670109236
0.006685988296
0.006700416762
0.006711565267
0.006513466495
0.006518514333
0.006525649875
0.006534964955
0.006546365524
0.006559603319
0.00657432715
0.006590138207
0.006606630099
0.00662342102
0.006640155129
0.00665645437
0.006671649939
0.006683601415
0.006512749166
0.006518215269
0.006526319371
0.006537123162
0.006550379009
0.00656563448
0.00658233758
0.006599926867
0.006617889737
0.006635793557
0.006653293737
0.006670115719
0.006685996449
0.006700425489
0.006711574018
0.006528937327
0.006543196463
0.006560599863
0.006580105193
0.006600664691
0.006621392093
0.00664162688
0.00666092544
0.00667902705
0.006695799443
0.006711194838
0.006725171936
0.006737478871
0.006746786662
0.006555945732
0.006583701782
0.006613901415
0.006643989907
0.006672212308
0.006697608022
0.006719825543
0.006738903449
0.006755100189
0.006768767702
0.006780269021
0.006789919219
0.006797863122
0.006803587445
0.006604017547
0.006650241568
0.006694244565
0.006732728342
0.006764530321
0.006789789947
0.006809279838
0.00682398475
0.006834874202
0.006842798458
0.006848464389
0.006852431669
0.006855121222
0.006856749972
0.006649454839
0.00670512505
0.006752348319
0.006789865146
0.006818399614
0.006839381043
0.006854338253
0.006864646899
0.006871447894
0.006875652432
0.006877968935
0.006878946982
0.006879038945
0.006878718309
0.00660401633
0.00665024019
0.006694243275
0.006732725751
0.006764526838
0.00678978536
0.006809274647
0.006823980082
0.006834867976
0.006842793177
0.006848458554
0.006852425594
0.006855115121
0.006856741512
0.006555943476
0.006583699765
0.006613898318
0.00664398572
0.006672208259
0.006697603237
0.006719819396
0.006738896268
0.006755091483
0.006768758181
0.006780259554
0.006789908921
0.006797853311
0.006803576095
0.006528935946
0.006543194548
0.006560598163
0.0065801034
0.006600662297
0.006621388567
0.006641621705
0.006660919731
0.00667901959
0.006695791148
0.006711185053
0.006725160053
0.006737466252
0.006746773027
0.00651821443
0.006526318944
0.006537123093
0.006550378664
0.006565633411
0.006582334617
0.006599922587
0.006617884513
0.006635787128
0.006653285824
0.006670106936
0.006685985497
0.00670041333
0.006711560768
0.006518406957
0.006528714554
0.00654306477
0.006560838547
0.006581037039
0.006602579045
0.006624489884
0.006645996658
0.006666546801
0.006685788681
0.006703529694
0.006719686424
0.006734207515
0.006746858944
0.00675634248
0.006533556367
0.006555944299
0.006583700677
0.006613900451
0.006643988324
0.006672211406
0.006697607646
0.006719825082
0.006738902309
0.006755100153
0.006768766884
0.006780268641
0.00678991918
0.006797864069
0.006803586955
0.006635849155
0.006694522455
0.006747721359
0.006791406026
0.00682472461
0.006848613611
0.006864745309
0.006874906063
0.006880690755
0.00688339936
0.006884031145
0.006883341591
0.006881931755
0.006880484697
0.006813836047
0.00691313298
0.006981774971
0.007022449264
0.007041716035
0.00704621959
0.007041330058
0.007030951663
0.007017734034
0.00700339655
0.006989010948
0.006975269873
0.006962826838
0.006953287826
0.007047352291
0.007146392801
0.00718918168
0.007197021578
0.007185179371
0.007163289334
0.007137073116
0.007109796039
0.007083243234
0.00705833221
0.007035492257
0.007014936287
0.006997049399
0.006983664623
0.006813827795
0.006913125139
0.00698176656
0.007022439731
0.007041706363
0.007046208788
0.007041320162
0.007030940927
0.00701772313
0.007003385274
0.006989000595
0.006975259266
0.006962815083
0.006953277608
0.00663584274
0.006694517184
0.006747714973
0.006791398853
0.006824715761
0.006848602832
0.006864734191
0.006874893355
0.006880676539
0.0068833846
0.006884016637
0.006883326819
0.006881917082
0.006880469372
0.006555943405
0.006583700005
0.00661389772
0.006643984421
0.006672205606
0.006697600244
0.006719814617
0.006738891859
0.006755087392
0.006768752892
0.006780253129
0.006789902868
0.006797846352
0.006803569841
0.006528714208
0.006543064721
0.006560837324
0.00658103564
0.006602575922
0.006624484827
0.006645990199
0.006666537572
0.00668577731
0.006703516444
0.006719672254
0.006734191971
0.006746841783
0.006756324447
0.006526917198
0.00654411879
0.006566442216
0.006592095058
0.006619203865
0.006646204673
0.006671970998
0.006695796667
0.006717316298
0.006736411995
0.006753129295
0.006767608451
0.006780010807
0.006790350033
0.00679784449
0.00656154494
0.006604015085
0.006650238643
0.006694241983
0.00673272593
0.006764528197
0.006789786932
0.006809277513
0.00682398326
0.006834872452
0.006842796897
0.006848463197
0.006852429953
0.006855120046
0.006856748512
0.006692877027
0.006813830173
0.00691312881
0.006981770963
0.007022445998
0.007041713133
0.007046216875
0.007041327607
0.007030948681
0.00701773144
0.007003393342
0.006989007752
0.006975267832
0.006962825231
0.006953286967
0.00742482505
0.007550568117
0.007572120509
0.007537016189
0.007476479245
0.007408188495
0.007341140366
0.007279371849
0.007224289212
0.007176012
0.007134100302
0.007098012435
0.007067681801
0.007045514249
0.008625665819
0.008471178552
0.008231796078
0.008001611588
0.007805678642
0.007645653069
0.007516460289
0.007412040985
0.007327087373
0.007257384437
0.007199723191
0.007151807779
0.007112553738
0.007084329002
0.00742479218
0.00755054389
0.007572098271
0.007536994726
0.007476457707
0.007408168586
0.007341121989
0.007279354082
0.007224273477
0.007175996371
0.00713408595
0.007097998286
0.007067667458
0.007045500846
0.006813828325
0.006913122513
0.006981760726
0.007022430878
0.007041695101
0.007046196619
0.00704130691
0.007030928439
0.00701771052
0.007003372162
0.006988987423
0.006975247429
0.006962804295
0.006953265632
0.006604016846
0.006650238775
0.00669423919
0.00673271939
0.006764517925
0.006789774629
0.006809263471
0.006823966434
0.006834853649
0.006842776488
0.006848442054
0.006852407448
0.006855098067
0.006856724754
0.006544119882
0.006566442789
0.00659209413
0.006619200309
0.006646199436
0.006671963217
0.006695787061
0.006717304235
0.006736397168
0.006753112647
0.00676758907
0.006779988895
0.006790327141
0.006797820265
0.006533314428
0.006555137697
0.006581845342
0.006611007259
0.006640569922
0.006669046016
0.006695480728
0.006719354866
0.00674046519
0.006758823348
0.006774579122
0.006787950299
0.006799166479
0.006808329513
0.006814861973
0.006590816234
0.006649451536
0.006705121239
0.006752344406
0.006789861
0.006818394336
0.006839375239
0.006854333709
0.006864642023
0.00687144366
0.006875648291
0.006877964892
0.006878942734
0.0068790357
0.006878715771
0.006872041678
0.00704734292
0.007146382911
0.007189171751
0.007197013529
0.007185171554
0.007163282487
0.007137067461
0.007109790119
0.007083237699
0.007058327313
0.007035487837
0.007014932453
0.006997046239
0.006983662609
0.008410428844
0.008625630348
0.00847115698
0.00823178059
0.008001600007
0.007805670149
0.007645647346
0.007516455302
0.007412036536
0.007327083513
0.007257381007
0.007199720566
0.007151804773
0.007112551505
0.007084326291
0.01380656192
0.0111811261
0.009723664576
0.008868796877
0.008338595777
0.007991465443
0.007752541133
0.007580666723
0.0074522949
0.00735340105
0.007275323552
0.007212643783
0.007162560114
0.007127098773
0.008625666056
0.008471143388
0.008231752112
0.008001568394
0.007805639067
0.00764561772
0.007516428843
0.007412012738
0.0073270619
0.007257360618
0.007199703163
0.007151788201
0.007112536052
0.007084312008
0.007047356028
0.007146380441
0.007189157615
0.007196991106
0.007185146478
0.007163254728
0.007137038763
0.007109762738
0.007083210877
0.007058301071
0.007035462272
0.00701490752
0.006997021895
0.006983638175
0.006649456168
0.006705121771
0.006752339287
0.006789851313
0.006818380481
0.006839358896
0.006854314227
0.006864621032
0.006871422443
0.006875625164
0.006877941036
0.006878918145
0.006879010758
0.006878689858
0.006555140016
0.006581847135
0.00661100624
0.006640566226
0.00666903847
0.006695471057
0.006719342209
0.006740450244
0.006758805541
0.006774558363
0.006787927848
0.00679914317
0.006808304133
0.006814836251
0.006526917241
0.006544118504
0.006566441498
0.00659209345
0.00661920141
0.006646201404
0.006671966895
0.006695792125
0.006717311891
0.006736406557
0.006753124245
0.006767602617
0.006780003486
0.006790342565
0.006797836607
0.00656154334
0.006604012132
0.006650235025
0.006694237528
0.006732720073
0.006764521197
0.006789780463
0.006809270637
0.006823975219
0.006834863594
0.006842788214
0.006848453753
0.006852420542
0.006855110292
0.006856737411
0.006692862258
0.006813816144
0.006913113312
0.006981755376
0.007022429643
0.0070416975
0.007046200167
0.007041311918
0.007030934227
0.007017717277
0.007003379438
0.006988995446
0.006975254912
0.006962811998
0.006953273172
0.007144079377
0.007424760451
0.007550519159
0.007572078786
0.007536979557
0.007476445646
0.007408158493
0.007341113518
0.007279346229
0.007224267091
0.00717599135
0.007134081467
0.007097994551
0.007067664502
0.007045498553
0.008410421663
0.008625619417
0.008471115875
0.008231732856
0.008001555414
0.007805629049
0.007645610729
0.007516423388
0.007412008434
0.007327058583
0.007257358122
0.007199700866
0.007151786096
0.007112534313
0.007084310363
0.007144090304
0.007424760107
0.007550507789
0.007572059275
0.007536956296
0.00747642209
0.007408135125
0.007341091891
0.007279324787
0.007224247088
0.007175972965
0.007134064527
0.007097978636
0.007067648979
0.007045482928
0.006813836723
0.006913118144
0.006981748432
0.00702241498
0.007041677774
0.007046177237
0.007041288754
0.007030909754
0.007017692465
0.007003355574
0.006988971319
0.006975231238
0.006962788436
0.006953251424
0.006604019818
0.006650239374
0.006694235477
0.006732713691
0.006764510734
0.006789766592
0.006809253126
0.006823956084
0.006834843148
0.006842766373
0.006848430785
0.006852396745
0.006855086573
0.006856713144
0.006544121904
0.006566443984
0.00659209346
0.006619199023
0.006646196287
0.006671959081
0.006695780909
0.006717297193
0.006736390333
0.006753104864
0.006767582179
0.006779981015
0.006790318751
0.006797811473
0.006518407557
0.00652871392
0.006543063019
0.006560835909
0.006581034526
0.006602576346
0.006624484976
0.006645990288
0.006666539903
0.006685780026
0.006703520181
0.006719676307
0.00673419743
0.006746847955
0.006756330084
0.006533553677
0.00655594133
0.006583696581
0.006613895249
0.006643982448
0.006672204791
0.006697599362
0.006719815034
0.006738891695
0.006755087332
0.006768753569
0.006780254045
0.006789903846
0.006797847878
0.006803570518
0.006579972608
0.006635836197
0.006694510064
0.006747708016
0.006791390993
0.006824708394
0.006848595356
0.006864727758
0.006874887267
0.00688067136
0.006883378992
0.006884011219
0.006883322107
0.006881913609
0.006880465402
0.006692861923
0.006813813306
0.006913106524
0.006981745618
0.007022417835
0.007041683629
0.007046186839
0.007041298068
0.007030920133
0.007017704219
0.007003366919
0.006988982069
0.00697524174
0.006962799464
0.006953261971
0.006872040446
0.007047330327
0.007146359193
0.00718913988
0.007196977172
0.007185134632
0.007163245339
0.007137031257
0.007109757032
0.007083205789
0.007058296019
0.007035457495
0.007014903721
0.006997018585
0.006983634654
0.006692861578
0.006813809966
0.006913100974
0.006981737177
0.007022406702
0.007041671471
0.007046172591
0.007041284287
0.00703090575
0.007017689684
0.007003352578
0.006988968297
0.006975227794
0.006962786897
0.006953251261
0.006579977845
0.00663583983
0.006694509261
0.006747703268
0.006791383061
0.006824697112
0.006848581481
0.006864710884
0.006874869786
0.006880653186
0.006883360644
0.006883992489
0.006883303492
0.006881893732
0.006880445772
0.006555946093
0.006583699448
0.006613894658
0.00664397858
0.006672197485
0.006697589424
0.006719802386
0.006738877019
0.006755071252
0.00676873648
0.006780236242
0.006789884794
0.00679782792
0.006803550939
0.006528716358
0.006543065805
0.006560836905
0.006581032596
0.006602572138
0.006624479768
0.006645982453
0.00666652943
0.00668576784
0.006703505255
0.006719658476
0.006734177608
0.006746826599
0.006756308453
0.006512748627
0.00651821545
0.006526319069
0.006537122018
0.006550377213
0.006565632056
0.006582334063
0.006599921852
0.006617884184
0.006635785938
0.006653284745
0.006670106107
0.00668598498
0.006700413143
0.006711561809
0.006518557813
0.00652893449
0.006543192945
0.006560595572
0.006580100777
0.00660065912
0.00662138584
0.006641618841
0.006660916335
0.006679014563
0.006695786918
0.00671118109
0.006725156568
0.006737462643
0.006746768929
0.006533554209
0.006555940892
0.006583696808
0.006613894698
0.006643980255
0.006672200631
0.006697595219
0.00671981065
0.006738886669
0.006755081988
0.006768747718
0.006780248206
0.006789897984
0.00679784223
0.006803564549
0.006561542539
0.006604011012
0.006650231747
0.006694231489
0.006732710616
0.006764510152
0.006789767232
0.006809255958
0.00682395957
0.006834847472
0.006842771878
0.006848436792
0.00685240253
0.006855092257
0.006856719774
0.006590815252
0.006649445948
0.006705111906
0.006752329876
0.006789842259
0.006818371915
0.006839350602
0.006854307622
0.006864615251
0.006871416028
0.006875619515
0.006877935231
0.006878913382
0.0068790058
0.006878686005
0.006561542503
0.006604009338
0.006650228953
0.006694227412
0.006732706712
0.006764504217
0.006789759991
0.006809247564
0.006823950813
0.006834838309
0.006842761282
0.006848426527
0.006852393165
0.006855082326
0.006856710546
0.006533554418
0.006555941001
0.006583696016
0.006613891238
0.006643975675
0.006672194381
0.006697586672
0.006719800237
0.006738875737
0.006755070114
0.006768734933
0.006780234493
0.006789883412
0.006797826205
0.006803548433
0.006518559442
0.006528936567
0.006543193703
0.006560595092
0.006580098852
0.006600654352
0.006621378975
0.006641610359
0.006660906441
0.006679003897
0.0066957736
0.006711166911
0.006725140415
0.006737445436
0.006746751593
0.006518216245
0.006526319912
0.006537121926
0.006550375744
0.006565629564
0.006582329939
0.006599916518
0.006617876268
0.006635776886
0.00665327322
0.006670092885
0.006685970007
0.006700396071
0.006711541364
0.006510224612
0.006513467286
0.00651851483
0.006525648858
0.00653496415
0.006546364454
0.006559602307
0.006574325766
0.006590137026
0.00660662853
0.006623418719
0.006640152444
0.006656451739
0.006671647103
0.006683598819
0.006512748674
0.006518214338
0.006526319067
0.006537121428
0.006550377437
0.006565630955
0.006582333018
0.006599920585
0.006617881367
0.006635783582
0.006653282152
0.006670103419
0.006685981998
0.006700409764
0.006711556318
0.006518406194
0.006528713196
0.006543063091
0.006560835653
0.006581032946
0.006602572643
0.006624481939
0.006645985865
0.006666533414
0.00668577265
0.0067035124
0.006719667347
0.006734187522
0.006746836863
0.006756318882
0.006526917153
0.006544117946
0.006566440012
0.006592090068
0.006619195157
0.006646194209
0.006671957884
0.006695780904
0.006717297373
0.006736391658
0.006753106878
0.006767584628
0.006779983975
0.006790321292
0.006797815227
0.006533313676
0.00655513531
0.006581842625
0.006611000894
0.006640560428
0.006669031852
0.00669546392
0.006719336526
0.006740444538
0.006758800192
0.006774553805
0.006787923545
0.00679913759
0.006808299523
0.006814830703
0.006526916851
0.00654411782
0.006566439099
0.006592087949
0.006619193173
0.006646190171
0.006671953737
0.006695776442
0.006717292583
0.00673638468
0.00675309944
0.006767576784
0.006779976606
0.006790314129
0.006797807113
0.006518407244
0.006528713679
0.006543062363
0.006560833294
0.006581030109
0.006602569083
0.006624476007
0.006645979131
0.006666525593
0.006685763933
0.006703502447
0.006719656065
0.006734175038
0.006746824309
0.006756305799
0.006512749684
0.006518214888
0.006526318538
0.006537121056
0.006550375798
0.006565628219
0.006582328546
0.006599914953
0.00661787474
0.006635775255
0.006653271621
0.006670090875
0.006685968849
0.006700395583
0.006711540562
0.006510225145
0.006513466931
0.006518514278
0.006525648734
0.006534962932
0.006546362544
0.006559598658
0.006574320676
0.0065901301
0.006606621067
0.006623408957
0.006640140622
0.006656438193
0.006671632061
0.00668358096
)
;

boundaryField
{
    top
    {
        type            zeroGradient;
    }
    bottom
    {
        type            zeroGradient;
    }
    side-walls
    {
        type            zeroGradient;
    }
    inlet
    {
        type            zeroGradient;
    }
    outlet
    {
        type            zeroGradient;
    }
    procBoundary1to0
    {
        type            processor;
        value           nonuniform List<scalar> 
97
(
0.00651022493
0.00651022493
0.006512748471
0.006518405965
0.006526915421
0.006533311251
0.006526915321
0.006518405795
0.006512747677
0.006510223673
0.006509520834
0.006518558777
0.006518558777
0.006518558777
0.006533553435
0.006561538643
0.006590807045
0.006561537597
0.006533550774
0.006518556207
0.006512747892
0.006512080505
0.006518715291
0.006579977772
0.006579977772
0.006579977772
0.00669285417
0.006871996536
0.006692843012
0.00657996569
0.00653355069
0.006518405277
0.006515834487
0.00653042919
0.006581543307
0.007144091046
0.007144091046
0.007144091046
0.008410131197
0.007144010447
0.006692844144
0.006561538096
0.006526915043
0.006518519006
0.006541499161
0.006638410952
0.007022500721
0.01879800619
0.01879800619
0.01879800619
0.00841014704
0.00841014704
0.006872001448
0.006590808543
0.006533311299
0.006515834711
0.006530429994
0.006581545748
0.006730332989
0.007022513491
0.006730323708
0.006692871265
0.006692871265
0.006692871265
0.00656154277
0.006526917154
0.006512079931
0.006518716204
0.006538183904
0.006581545993
0.006638412239
0.006581543457
0.006538183664
0.006533556188
0.006533556188
0.006533556188
0.006518406921
0.006509521231
0.00651213388
0.006518715091
0.006530429601
0.006541499866
0.006530429698
0.00651871547
0.00651213394
0.006512749463
0.006512749463
0.006512749463
0.006508363862
0.006509520636
0.006512080267
0.006515834726
0.006518519534
0.006515835075
0.006512080301
0.006509521776
0.006508364932
)
;
    }
}


// ************************************************************************* //
