/*--------------------------------*- C++ -*----------------------------------*\
| =========                 |                                                 |
| \\      /  F ield         | OpenFOAM: The Open Source CFD Toolbox           |
|  \\    /   O peration     | Version:  4.x                                   |
|   \\  /    A nd           | Web:      www.OpenFOAM.org                      |
|    \\/     M anipulation  |                                                 |
\*---------------------------------------------------------------------------*/
FoamFile
{
    version     2.0;
    format      ascii;
    class       volScalarField;
    location    "3000";
    object      Cpv;
}
// * * * * * * * * * * * * * * * * * * * * * * * * * * * * * * * * * * * * * //

dimensions      [0 2 -2 -1 0 0 0];

internalField   nonuniform List<scalar> 
1174
(
1210.519364
1210.519708
1210.520167
1210.520755
1210.521478
1210.522302
1210.52323
1210.524238
1210.525269
1210.526346
1210.5274
1210.528427
1210.529393
1210.530139
1210.519476
1210.520002
1210.520674
1210.521506
1210.522466
1210.523534
1210.524645
1210.52578
1210.52693
1210.52804
1210.529112
1210.530118
1210.531024
1210.531734
1210.52041
1210.52131
1210.522426
1210.523707
1210.525082
1210.526478
1210.527845
1210.529152
1210.530361
1210.531491
1210.532527
1210.533456
1210.534258
1210.534884
1210.520975
1210.522403
1210.524018
1210.525709
1210.527432
1210.529049
1210.530553
1210.531947
1210.533157
1210.53422
1210.535149
1210.535915
1210.536546
1210.537026
1210.522108
1210.523817
1210.525682
1210.527535
1210.529338
1210.531019
1210.532523
1210.53387
1210.535013
1210.535999
1210.536874
1210.537589
1210.538143
1210.538554
1210.521759
1210.52317
1210.5248
1210.526504
1210.528226
1210.529829
1210.531333
1210.532709
1210.533944
1210.53499
1210.535887
1210.536666
1210.537322
1210.537805
1210.520167
1210.521077
1210.522225
1210.523491
1210.524839
1210.526243
1210.527617
1210.52894
1210.53015
1210.531261
1210.532289
1210.533203
1210.53402
1210.534639
1210.519475
1210.519983
1210.520655
1210.521522
1210.522478
1210.523533
1210.524644
1210.52579
1210.526938
1210.528053
1210.529126
1210.530153
1210.531058
1210.531764
1210.519836
1210.52016
1210.520604
1210.521195
1210.521924
1210.522761
1210.523702
1210.524696
1210.525747
1210.526818
1210.527879
1210.528913
1210.529875
1210.53062
1210.518976
1210.519344
1210.519845
1210.520544
1210.521376
1210.522351
1210.523394
1210.524516
1210.525644
1210.526789
1210.527903
1210.528974
1210.52997
1210.530899
1210.531578
1210.520591
1210.521496
1210.522588
1210.523829
1210.525168
1210.526478
1210.527748
1210.528973
1210.530121
1210.531195
1210.532154
1210.53303
1210.53381
1210.534394
1210.522358
1210.524127
1210.526032
1210.527947
1210.529709
1210.531325
1210.532728
1210.533927
1210.534972
1210.535842
1210.536585
1210.537204
1210.537705
1210.538062
1210.525011
1210.527939
1210.530738
1210.53317
1210.535216
1210.536829
1210.538061
1210.538975
1210.539656
1210.540131
1210.540489
1210.540733
1210.540926
1210.541016
1210.528148
1210.531706
1210.534679
1210.53706
1210.538828
1210.540137
1210.541089
1210.541737
1210.542184
1210.542467
1210.542622
1210.542656
1210.542673
1210.542637
1210.524676
1210.527606
1210.530403
1210.532869
1210.534862
1210.536482
1210.537739
1210.538663
1210.53935
1210.53985
1210.540188
1210.540434
1210.540622
1210.540725
1210.522668
1210.524409
1210.526334
1210.52824
1210.530012
1210.531623
1210.53301
1210.534219
1210.535269
1210.53614
1210.536873
1210.537487
1210.537976
1210.538329
1210.519847
1210.520762
1210.521895
1210.52315
1210.524435
1210.525765
1210.527071
1210.528301
1210.52945
1210.530513
1210.531485
1210.532361
1210.533154
1210.533752
1210.520188
1210.520662
1210.521309
1210.522145
1210.523122
1210.524201
1210.525311
1210.52645
1210.527573
1210.528687
1210.529735
1210.530749
1210.531668
1210.532369
1210.519607
1210.520232
1210.521122
1210.522255
1210.523556
1210.524941
1210.526329
1210.527696
1210.529021
1210.530234
1210.531343
1210.532365
1210.533311
1210.534109
1210.534701
1210.52093
1210.522373
1210.524156
1210.526059
1210.527956
1210.529753
1210.531377
1210.532778
1210.534005
1210.535046
1210.535944
1210.53667
1210.537273
1210.53778
1210.538157
1210.52648
1210.530195
1210.533548
1210.536341
1210.538422
1210.539961
1210.540992
1210.541624
1210.541984
1210.542164
1210.542191
1210.542175
1210.54209
1210.542018
1210.538036
1210.544334
1210.548699
1210.551265
1210.552484
1210.552789
1210.552497
1210.551829
1210.550987
1210.550078
1210.549168
1210.548322
1210.547521
1210.546927
1210.55276
1210.55902
1210.561703
1210.562183
1210.561427
1210.560023
1210.558358
1210.556596
1210.554926
1210.553347
1210.551889
1210.550605
1210.549448
1210.548619
1210.538234
1210.544518
1210.548846
1210.551419
1210.552651
1210.55291
1210.55261
1210.551959
1210.551116
1210.550209
1210.549277
1210.548408
1210.547632
1210.547023
1210.526558
1210.530271
1210.533658
1210.536426
1210.538522
1210.540045
1210.541088
1210.541725
1210.542111
1210.542274
1210.542296
1210.542253
1210.54218
1210.542094
1210.522569
1210.524305
1210.526224
1210.528134
1210.529909
1210.531512
1210.532914
1210.534109
1210.535129
1210.536012
1210.536717
1210.537344
1210.537875
1210.538218
1210.519944
1210.520835
1210.521966
1210.523245
1210.524598
1210.525984
1210.527335
1210.528645
1210.529879
1210.530981
1210.532003
1210.532935
1210.533738
1210.534333
1210.520375
1210.521464
1210.522886
1210.524508
1210.526206
1210.527906
1210.529538
1210.531058
1210.532399
1210.533607
1210.534671
1210.535595
1210.536354
1210.537021
1210.537493
1210.522858
1210.525562
1210.528502
1210.531314
1210.533744
1210.535742
1210.537354
1210.538596
1210.539511
1210.540197
1210.540666
1210.541025
1210.541287
1210.54144
1210.541534
1210.530356
1210.538019
1210.544312
1210.548652
1210.551225
1210.55244
1210.55271
1210.55241
1210.551795
1210.550958
1210.550052
1210.549165
1210.548275
1210.547482
1210.546876
1210.577614
1210.585581
1210.586947
1210.584687
1210.580835
1210.576497
1210.572276
1210.568365
1210.564875
1210.561803
1210.559178
1210.556875
1210.554931
1210.553537
1210.652005
1210.642196
1210.627014
1210.612419
1210.599996
1210.58983
1210.581626
1210.575017
1210.569631
1210.565211
1210.561566
1210.558497
1210.556027
1210.554252
1210.57703
1210.585024
1210.58639
1210.584174
1210.580323
1210.575983
1210.571718
1210.5678
1210.564285
1210.561233
1210.558575
1210.556293
1210.554356
1210.552944
1210.538728
1210.545016
1210.54936
1210.551933
1210.553195
1210.553474
1210.553151
1210.552501
1210.551691
1210.55078
1210.549878
1210.549004
1210.548229
1210.547637
1210.5251
1210.528025
1210.530809
1210.533258
1210.53526
1210.536871
1210.538085
1210.539006
1210.539718
1210.540209
1210.540534
1210.540795
1210.540943
1210.54102
1210.521343
1210.522753
1210.524352
1210.526071
1210.527761
1210.529397
1210.530927
1210.532278
1210.533481
1210.534551
1210.535479
1210.536235
1210.536891
1210.537369
1210.520721
1210.522106
1210.523838
1210.525672
1210.527534
1210.529318
1210.530998
1210.532522
1210.533848
1210.534986
1210.535987
1210.536845
1210.537552
1210.538127
1210.538528
1210.523857
1210.527545
1210.531075
1210.534053
1210.536428
1210.538235
1210.539567
1210.540538
1210.541203
1210.541623
1210.54191
1210.542049
1210.542102
1210.542105
1210.542056
1210.542205
1210.553307
1210.559603
1210.562278
1210.562788
1210.562056
1210.560666
1210.559008
1210.557265
1210.555594
1210.55398
1210.552551
1210.551245
1210.550094
1210.549238
1210.63839
1210.652016
1210.642214
1210.627042
1210.612474
1210.600042
1210.589888
1210.581691
1210.575071
1210.569693
1210.565266
1210.561591
1210.558551
1210.556062
1210.554276
1209.726651
1209.559688
1209.466446
1209.41128
1209.376605
1209.353495
1209.337225
1209.325189
1209.315903
1209.30846
1209.302319
1209.297165
1209.292792
1209.289348
1210.652237
1210.642419
1210.627241
1210.612628
1210.600181
1210.59005
1210.581887
1210.575269
1210.5699
1210.565473
1210.561815
1210.558804
1210.556285
1210.55451
1210.55344
1210.55972
1210.562439
1210.562953
1210.562179
1210.560776
1210.559148
1210.557428
1210.555747
1210.554159
1210.552715
1210.551382
1210.550266
1210.549389
1210.527856
1210.5314
1210.534367
1210.536726
1210.53852
1210.539847
1210.540783
1210.541423
1210.541834
1210.542101
1210.542215
1210.542244
1210.542263
1210.54222
1210.522199
1210.523884
1210.525736
1210.527623
1210.529435
1210.531109
1210.532623
1210.533969
1210.535138
1210.536118
1210.537
1210.537702
1210.538283
1210.538678
1210.5203
1210.521406
1210.522823
1210.524445
1210.526173
1210.5279
1210.529548
1210.531059
1210.532437
1210.533653
1210.5347
1210.535647
1210.536434
1210.537101
1210.537584
1210.521953
1210.524625
1210.527567
1210.530374
1210.532808
1210.534839
1210.536429
1210.537663
1210.538596
1210.539298
1210.539797
1210.540188
1210.540469
1210.540631
1210.540724
1210.530961
1210.538636
1210.544941
1210.549303
1210.55188
1210.553084
1210.553385
1210.553082
1210.552444
1210.551611
1210.550674
1210.549735
1210.548846
1210.548067
1210.547473
1210.559082
1210.576896
1210.584854
1210.58622
1210.583993
1210.580154
1210.575822
1210.571583
1210.567656
1210.564182
1210.561137
1210.558501
1210.556211
1210.554303
1210.552888
1210.638579
1210.652193
1210.64238
1210.627207
1210.6126
1210.60019
1210.590046
1210.581827
1210.575232
1210.569824
1210.565382
1210.561714
1210.558659
1210.556156
1210.554379
1210.559454
1210.577272
1210.585224
1210.586601
1210.584377
1210.580562
1210.57623
1210.57199
1210.568102
1210.564585
1210.561539
1210.558867
1210.556585
1210.554636
1210.553229
1210.537969
1210.54427
1210.548616
1210.551181
1210.552395
1210.552684
1210.552352
1210.551694
1210.550847
1210.549922
1210.549006
1210.548146
1210.54737
1210.546773
1210.525458
1210.528378
1210.531218
1210.533648
1210.535684
1210.537267
1210.538476
1210.539389
1210.540064
1210.540545
1210.540922
1210.541179
1210.541352
1210.541444
1210.521639
1210.523057
1210.524678
1210.526368
1210.528104
1210.529731
1210.531251
1210.532623
1210.533834
1210.53487
1210.535775
1210.536543
1210.537185
1210.53767
1210.519917
1210.520565
1210.521469
1210.522604
1210.523883
1210.525239
1210.526653
1210.528023
1210.529312
1210.53055
1210.531669
1210.532676
1210.5336
1210.534397
1210.535018
1210.520765
1210.522208
1210.523974
1210.525881
1210.527794
1210.529573
1210.531181
1210.532617
1210.533842
1210.534872
1210.535756
1210.536486
1210.537097
1210.537611
1210.537956
1210.523793
1210.52731
1210.531014
1210.534374
1210.53714
1210.539221
1210.540764
1210.541761
1210.542403
1210.542789
1210.542949
1210.542999
1210.542956
1210.54283
1210.542753
1210.531096
1210.538761
1210.545059
1210.54938
1210.551945
1210.553169
1210.553437
1210.553112
1210.552426
1210.551574
1210.550678
1210.549765
1210.548901
1210.548126
1210.547493
1210.541824
1210.55292
1210.559202
1210.561905
1210.562399
1210.561638
1210.560271
1210.558598
1210.556856
1210.555171
1210.553604
1210.552154
1210.55086
1210.549741
1210.548898
1210.530862
1210.538538
1210.544824
1210.549189
1210.551794
1210.552996
1210.553293
1210.552957
1210.552301
1210.551464
1210.550565
1210.549649
1210.548801
1210.548009
1210.547352
1210.523899
1210.527457
1210.53117
1210.534526
1210.53729
1210.539391
1210.540941
1210.541977
1210.542611
1210.543
1210.543166
1210.543221
1210.543188
1210.543107
1210.543009
1210.521549
1210.52332
1210.525206
1210.527113
1210.528886
1210.530488
1210.531917
1210.533136
1210.534157
1210.535016
1210.535734
1210.536361
1210.536853
1210.537244
1210.520528
1210.521444
1210.522588
1210.523875
1210.525219
1210.526612
1210.527972
1210.529265
1210.530482
1210.531616
1210.532663
1210.533592
1210.534374
1210.534959
1210.518947
1210.519282
1210.519815
1210.520511
1210.521352
1210.522325
1210.52337
1210.52448
1210.525621
1210.526784
1210.527887
1210.528983
1210.529993
1210.530892
1210.531573
1210.519471
1210.520173
1210.521068
1210.522166
1210.523371
1210.52466
1210.525957
1210.527226
1210.528432
1210.529575
1210.530621
1210.5316
1210.532461
1210.533205
1210.533794
1210.520585
1210.52198
1210.523721
1210.525644
1210.527543
1210.529333
1210.530961
1210.532355
1210.533565
1210.534602
1210.53548
1210.536245
1210.536871
1210.537383
1210.537748
1210.52203
1210.524725
1210.527676
1210.53044
1210.532892
1210.534885
1210.536483
1210.537716
1210.538662
1210.539351
1210.539857
1210.540202
1210.54046
1210.540635
1210.540722
1210.524599
1210.528297
1210.53181
1210.5348
1210.537187
1210.539009
1210.540324
1210.541275
1210.541922
1210.542355
1210.54262
1210.542761
1210.542783
1210.54278
1210.542729
1210.521795
1210.524477
1210.527387
1210.530171
1210.532581
1210.534619
1210.536233
1210.537448
1210.538361
1210.539038
1210.539578
1210.539894
1210.540115
1210.540291
1210.540375
1210.520657
1210.522055
1210.52381
1210.525721
1210.527629
1210.529439
1210.531053
1210.532479
1210.533683
1210.534718
1210.535565
1210.53628
1210.5369
1210.537383
1210.537741
1210.519618
1210.520295
1210.521222
1210.522353
1210.523592
1210.524901
1210.526208
1210.527489
1210.528703
1210.529848
1210.530957
1210.531935
1210.532824
1210.533624
1210.534197
1210.519888
1210.520381
1210.521089
1210.521918
1210.522879
1210.52392
1210.525034
1210.526173
1210.527293
1210.528412
1210.529487
1210.530499
1210.531425
1210.532146
1210.519471
1210.519678
1210.519992
1210.520455
1210.521071
1210.52181
1210.522625
1210.52356
1210.524565
1210.525614
1210.526694
1210.527754
1210.528776
1210.529732
1210.530466
1210.519624
1210.519931
1210.520442
1210.521141
1210.521952
1210.522926
1210.523983
1210.525099
1210.526261
1210.527392
1210.528521
1210.529575
1210.530585
1210.531507
1210.532217
1210.520044
1210.520658
1210.521565
1210.522663
1210.523945
1210.525324
1210.526698
1210.528074
1210.529394
1210.530609
1210.53173
1210.532759
1210.533682
1210.534498
1210.535122
1210.519524
1210.520616
1210.522067
1210.523674
1210.525404
1210.52709
1210.528729
1210.530246
1210.531612
1210.532838
1210.533884
1210.534824
1210.535618
1210.536291
1210.536761
1210.520209
1210.521598
1210.523283
1210.52514
1210.52701
1210.528825
1210.530493
1210.531997
1210.533318
1210.534464
1210.535468
1210.536338
1210.537055
1210.537632
1210.538049
1210.519893
1210.520979
1210.522402
1210.524049
1210.525768
1210.5275
1210.52909
1210.530613
1210.531977
1210.533213
1210.534269
1210.535188
1210.535973
1210.53661
1210.53707
1210.5194
1210.520056
1210.520968
1210.522103
1210.523381
1210.524741
1210.526162
1210.527522
1210.528849
1210.530068
1210.531185
1210.532208
1210.53313
1210.533935
1210.534531
1210.518836
1210.519202
1210.519719
1210.520394
1210.521225
1210.522213
1210.523273
1210.524395
1210.52554
1210.526693
1210.527804
1210.528885
1210.529862
1210.530779
1210.531478
1210.519013
1210.519238
1210.519555
1210.520007
1210.520603
1210.521307
1210.52215
1210.523077
1210.524078
1210.525121
1210.526182
1210.52726
1210.528291
1210.529251
1210.52999
)
;

boundaryField
{
    top
    {
        type            calculated;
        value           nonuniform List<scalar> 
127
(
1210.519013
1210.519836
1210.520188
1210.519944
1210.521343
1210.522199
1210.521639
1210.520528
1210.519888
1210.519238
1210.52016
1210.520662
1210.520835
1210.522753
1210.523884
1210.523057
1210.521444
1210.520381
1210.519555
1210.520604
1210.521309
1210.521966
1210.524352
1210.525736
1210.524678
1210.522588
1210.521089
1210.520007
1210.521195
1210.522145
1210.523245
1210.526071
1210.527623
1210.526368
1210.523875
1210.521918
1210.520603
1210.521924
1210.523122
1210.524598
1210.527761
1210.529435
1210.528104
1210.525219
1210.522879
1210.521307
1210.522761
1210.524201
1210.525984
1210.529397
1210.531109
1210.529731
1210.526612
1210.52392
1210.52215
1210.523702
1210.525311
1210.527335
1210.530927
1210.532623
1210.531251
1210.527972
1210.525034
1210.523077
1210.524696
1210.52645
1210.528645
1210.532278
1210.533969
1210.532623
1210.529265
1210.526173
1210.524078
1210.525747
1210.527573
1210.529879
1210.533481
1210.535138
1210.533834
1210.530482
1210.527293
1210.525121
1210.526818
1210.528687
1210.530981
1210.534551
1210.536118
1210.53487
1210.531616
1210.528412
1210.526182
1210.527879
1210.529735
1210.532003
1210.535479
1210.537
1210.535775
1210.532663
1210.529487
1210.52726
1210.528913
1210.530749
1210.532935
1210.536235
1210.537702
1210.536543
1210.533592
1210.530499
1210.528291
1210.529875
1210.531668
1210.533738
1210.536891
1210.538283
1210.537185
1210.534374
1210.531425
1210.529251
1210.53062
1210.532369
1210.534333
1210.537369
1210.538678
1210.53767
1210.534959
1210.532146
1210.52999
)
;
    }
    bottom
    {
        type            calculated;
        value           nonuniform List<scalar> 
134
(
1210.518976
1210.519607
1210.520375
1210.520721
1210.5203
1210.519917
1210.518947
1210.519471
1210.519364
1210.519344
1210.520232
1210.521464
1210.522106
1210.521406
1210.520565
1210.519282
1210.519678
1210.519708
1210.519845
1210.521122
1210.522886
1210.523838
1210.522823
1210.521469
1210.519815
1210.519992
1210.520167
1210.520544
1210.522255
1210.524508
1210.525672
1210.524445
1210.522604
1210.520511
1210.520455
1210.520755
1210.521376
1210.523556
1210.526206
1210.527534
1210.526173
1210.523883
1210.521352
1210.521071
1210.521478
1210.522351
1210.524941
1210.527906
1210.529318
1210.5279
1210.525239
1210.522325
1210.52181
1210.522302
1210.523394
1210.526329
1210.529538
1210.530998
1210.529548
1210.526653
1210.52337
1210.522625
1210.52323
1210.524516
1210.527696
1210.531058
1210.532522
1210.531059
1210.528023
1210.52448
1210.52356
1210.524238
1210.525644
1210.529021
1210.532399
1210.533848
1210.532437
1210.529312
1210.525621
1210.524565
1210.525269
1210.526789
1210.530234
1210.533607
1210.534986
1210.533653
1210.53055
1210.526784
1210.525614
1210.526346
1210.527903
1210.531343
1210.534671
1210.535987
1210.5347
1210.531669
1210.527887
1210.526694
1210.5274
1210.528974
1210.532365
1210.535595
1210.536845
1210.535647
1210.532676
1210.528983
1210.527754
1210.528427
1210.52997
1210.533311
1210.536354
1210.537552
1210.536434
1210.5336
1210.529993
1210.528776
1210.529393
1210.530899
1210.534109
1210.537021
1210.538127
1210.537101
1210.534397
1210.530892
1210.529732
1210.530139
1210.531578
1210.534701
1210.537493
1210.538528
1210.537584
1210.535018
1210.531573
1210.530466
)
;
    }
    side-walls
    {
        type            calculated;
        value           nonuniform List<scalar> 
261
(
1210.519364
1210.519476
1210.52041
1210.520975
1210.522108
1210.521759
1210.520167
1210.519475
1210.519836
1210.519708
1210.520002
1210.52131
1210.522403
1210.523817
1210.52317
1210.521077
1210.519983
1210.52016
1210.520167
1210.520674
1210.522426
1210.524018
1210.525682
1210.5248
1210.522225
1210.520655
1210.520604
1210.520755
1210.521506
1210.523707
1210.525709
1210.527535
1210.526504
1210.523491
1210.521522
1210.521195
1210.521478
1210.522466
1210.525082
1210.527432
1210.529338
1210.528226
1210.524839
1210.522478
1210.521924
1210.522302
1210.523534
1210.526478
1210.529049
1210.531019
1210.529829
1210.526243
1210.523533
1210.522761
1210.52323
1210.524645
1210.527845
1210.530553
1210.532523
1210.531333
1210.527617
1210.524644
1210.523702
1210.524238
1210.52578
1210.529152
1210.531947
1210.53387
1210.532709
1210.52894
1210.52579
1210.524696
1210.525269
1210.52693
1210.530361
1210.533157
1210.535013
1210.533944
1210.53015
1210.526938
1210.525747
1210.526346
1210.52804
1210.531491
1210.53422
1210.535999
1210.53499
1210.531261
1210.528053
1210.526818
1210.5274
1210.529112
1210.532527
1210.535149
1210.536874
1210.535887
1210.532289
1210.529126
1210.527879
1210.528427
1210.530118
1210.533456
1210.535915
1210.537589
1210.536666
1210.533203
1210.530153
1210.528913
1210.529393
1210.531024
1210.534258
1210.536546
1210.538143
1210.537322
1210.53402
1210.531058
1210.529875
1210.530139
1210.531734
1210.534884
1210.537026
1210.538554
1210.537805
1210.534639
1210.531764
1210.53062
1210.519471
1210.519624
1210.520044
1210.519524
1210.520209
1210.519893
1210.5194
1210.518836
1210.519013
1210.519678
1210.519931
1210.520658
1210.520616
1210.521598
1210.520979
1210.520056
1210.519202
1210.519238
1210.519992
1210.520442
1210.521565
1210.522067
1210.523283
1210.522402
1210.520968
1210.519719
1210.519555
1210.520455
1210.521141
1210.522663
1210.523674
1210.52514
1210.524049
1210.522103
1210.520394
1210.520007
1210.521071
1210.521952
1210.523945
1210.525404
1210.52701
1210.525768
1210.523381
1210.521225
1210.520603
1210.52181
1210.522926
1210.525324
1210.52709
1210.528825
1210.5275
1210.524741
1210.522213
1210.521307
1210.522625
1210.523983
1210.526698
1210.528729
1210.530493
1210.52909
1210.526162
1210.523273
1210.52215
1210.52356
1210.525099
1210.528074
1210.530246
1210.531997
1210.530613
1210.527522
1210.524395
1210.523077
1210.524565
1210.526261
1210.529394
1210.531612
1210.533318
1210.531977
1210.528849
1210.52554
1210.524078
1210.525614
1210.527392
1210.530609
1210.532838
1210.534464
1210.533213
1210.530068
1210.526693
1210.525121
1210.526694
1210.528521
1210.53173
1210.533884
1210.535468
1210.534269
1210.531185
1210.527804
1210.526182
1210.527754
1210.529575
1210.532759
1210.534824
1210.536338
1210.535188
1210.532208
1210.528885
1210.52726
1210.528776
1210.530585
1210.533682
1210.535618
1210.537055
1210.535973
1210.53313
1210.529862
1210.528291
1210.529732
1210.531507
1210.534498
1210.536291
1210.537632
1210.53661
1210.533935
1210.530779
1210.529251
1210.530466
1210.532217
1210.535122
1210.536761
1210.538049
1210.53707
1210.534531
1210.531478
1210.52999
)
;
    }
    inlet
    {
        type            calculated;
        value           nonuniform 0();
    }
    outlet
    {
        type            calculated;
        value           nonuniform List<scalar> 
81
(
1210.530139
1210.531734
1210.534884
1210.537026
1210.538554
1210.537805
1210.534639
1210.531764
1210.53062
1210.531578
1210.534394
1210.538062
1210.541016
1210.542637
1210.540725
1210.538329
1210.533752
1210.532369
1210.534701
1210.538157
1210.542018
1210.546927
1210.548619
1210.547023
1210.542094
1210.538218
1210.534333
1210.537493
1210.541534
1210.546876
1210.553537
1210.554252
1210.552944
1210.547637
1210.54102
1210.537369
1210.538528
1210.542056
1210.549238
1210.554276
1209.289348
1210.55451
1210.549389
1210.54222
1210.538678
1210.537584
1210.540724
1210.547473
1210.552888
1210.554379
1210.553229
1210.546773
1210.541444
1210.53767
1210.535018
1210.537956
1210.542753
1210.547493
1210.548898
1210.547352
1210.543009
1210.537244
1210.534959
1210.531573
1210.533794
1210.537748
1210.540722
1210.542729
1210.540375
1210.537741
1210.534197
1210.532146
1210.530466
1210.532217
1210.535122
1210.536761
1210.538049
1210.53707
1210.534531
1210.531478
1210.52999
)
;
    }
    procBoundary1to0
    {
        type            processor;
        value           nonuniform List<scalar> 
97
(
1210.519134
1210.519134
1210.519139
1210.519793
1210.519866
1210.520752
1210.52065
1210.519489
1210.519149
1210.519631
1210.518796
1210.519949
1210.519949
1210.519949
1210.520896
1210.522352
1210.524431
1210.522002
1210.521244
1210.519225
1210.519826
1210.519175
1210.519979
1210.52294
1210.52294
1210.52294
1210.530374
1210.541599
1210.530554
1210.523021
1210.521134
1210.519279
1210.519689
1210.520879
1210.523302
1210.559798
1210.559798
1210.559798
1210.638368
1210.559241
1210.531038
1210.522383
1210.520254
1210.51981
1210.520746
1210.527399
1210.551737
1210.041724
1210.041724
1210.041724
1210.638563
1210.638563
1210.542294
1210.524149
1210.520801
1210.519596
1210.519993
1210.52389
1210.532839
1210.551912
1210.533235
1210.530289
1210.530289
1210.530289
1210.522762
1210.520544
1210.519552
1210.519841
1210.521189
1210.524045
1210.527012
1210.523796
1210.52123
1210.520148
1210.520148
1210.520148
1210.519876
1210.518753
1210.519107
1210.519637
1210.520038
1210.521496
1210.519788
1210.519712
1210.519208
1210.519551
1210.519551
1210.519551
1210.519371
1210.519442
1210.519632
1210.518838
1210.519269
1210.519213
1210.518981
1210.518645
1210.518884
)
;
    }
}


// ************************************************************************* //
