/*--------------------------------*- C++ -*----------------------------------*\
| =========                 |                                                 |
| \\      /  F ield         | OpenFOAM: The Open Source CFD Toolbox           |
|  \\    /   O peration     | Version:  4.x                                   |
|   \\  /    A nd           | Web:      www.OpenFOAM.org                      |
|    \\/     M anipulation  |                                                 |
\*---------------------------------------------------------------------------*/
FoamFile
{
    version     2.0;
    format      ascii;
    class       volScalarField;
    location    "3000";
    object      molarConc;
}
// * * * * * * * * * * * * * * * * * * * * * * * * * * * * * * * * * * * * * //

dimensions      [0 -3 0 0 1 0 0];

internalField   nonuniform List<scalar> 
1174
(
9.963277655
9.963276341
9.963275943
9.963276053
9.963276045
9.963276838
9.963277048
9.963276712
9.96327748
9.963276743
9.963277057
9.963277362
9.963277162
9.963277769
9.963287994
9.963287323
9.963287991
9.963288402
9.963288747
9.96328818
9.963288348
9.963288497
9.96328766
9.963287569
9.963287223
9.963287219
9.963287631
9.963287418
9.963273272
9.963273752
9.963274327
9.963274233
9.963273637
9.963273211
9.963272944
9.963272636
9.963273192
9.963272804
9.963272161
9.963271651
9.963271624
9.963270224
9.963295767
9.963295006
9.963295526
9.963296989
9.963296247
9.96329711
9.963297402
9.963295695
9.963295634
9.963295442
9.963294756
9.963295844
9.963297181
9.963296866
9.963271964
9.963270993
9.963270014
9.963271108
9.963271112
9.96327078
9.963271189
9.96327066
9.963271759
9.963272414
9.963270898
9.963270652
9.963272064
9.963272219
9.963252818
9.963253003
9.963252681
9.96325343
9.963252761
9.963254349
9.963254639
9.963253923
9.96325254
9.963253266
9.963254362
9.963254711
9.963254636
9.963254199
9.963286591
9.963286516
9.963285326
9.963286059
9.963286958
9.96328603
9.963285409
9.963284252
9.963284721
9.96328543
9.963285125
9.963285457
9.963284635
9.963283614
9.963288042
9.963288346
9.963289013
9.963287533
9.963288095
9.963288222
9.963288399
9.963287941
9.96328718
9.963286856
9.963286429
9.963285273
9.963285744
9.963285782
9.963251815
9.963251562
9.963252044
9.963251942
9.963251596
9.963251644
9.963251234
9.963251602
9.963251256
9.963250878
9.96325081
9.963250695
9.963250773
9.963251406
9.96329645
9.963295255
9.96329593
9.96329511
9.963295518
9.963295039
9.963295871
9.963295419
9.963295992
9.963295391
9.963295046
9.96329478
9.963295337
9.963294495
9.963296001
9.963264133
9.963264029
9.9632646
9.963264275
9.963262299
9.963262462
9.963263088
9.963262926
9.963262883
9.96326222
9.963263102
9.963263647
9.963263603
9.96326389
9.963261046
9.963260448
9.963260856
9.963260387
9.963261775
9.96326138
9.963261627
9.963262108
9.963261073
9.963260856
9.963260069
9.96325965
9.963259745
9.963260084
9.963282513
9.963282485
9.963281835
9.963282132
9.963280386
9.963279697
9.963279847
9.963280784
9.963281251
9.963282749
9.963282795
9.963283196
9.963281961
9.96328268
9.963268297
9.963266551
9.963267575
9.963267318
9.96326943
9.96327054
9.963270321
9.963270556
9.9632697
9.963268798
9.963268346
9.96326984
9.963269238
9.963270124
9.963300866
9.96330075
9.963300166
9.963298612
9.963299798
9.963298698
9.963297432
9.963297866
9.963298017
9.963298099
9.963299263
9.963299536
9.963298601
9.963298621
9.963244091
9.963245004
9.963244339
9.963244284
9.963245169
9.963245044
9.96324612
9.963246115
9.963244789
9.963244504
9.963244258
9.963244093
9.963244895
9.963245392
9.963304869
9.963304227
9.963302572
9.96330146
9.963302427
9.963301454
9.963300135
9.963299717
9.963299605
9.963299525
9.963299712
9.963300235
9.963299482
9.963299001
9.963249036
9.963251148
9.963253195
9.963253427
9.963252808
9.963251646
9.963251897
9.96325183
9.963252419
9.963252073
9.963253034
9.963252627
9.963252317
9.963252624
9.963281472
9.963283029
9.963284061
9.963283692
9.963282461
9.963281349
9.963281344
9.963281111
9.963279803
9.963280101
9.963280954
9.963281033
9.963279555
9.96327976
9.96328026
9.963261567
9.963260228
9.963258842
9.963259422
9.963259871
9.963259369
9.963258493
9.963258879
9.96325783
9.963257044
9.963255266
9.96325539
9.963255838
9.963255628
9.963254874
9.963312477
9.963312567
9.963313426
9.963312018
9.963313635
9.963312232
9.963311714
9.963312346
9.963312723
9.963312264
9.963312963
9.963311434
9.963311213
9.963310167
9.963296976
9.963296495
9.96329554
9.963296148
9.963296194
9.963295128
9.963294134
9.963294728
9.963295024
9.96329508
9.963294996
9.963293681
9.963294388
9.963293858
9.963300625
9.963301328
9.963302785
9.963303712
9.963304058
9.963305011
9.963305308
9.963307151
9.963306556
9.963306589
9.96330725
9.963306245
9.96330759
9.963306526
9.96328613
9.96328641
9.963287458
9.963287628
9.963287031
9.963288455
9.96328792
9.963287573
9.963287897
9.963287869
9.963288992
9.963288914
9.963288308
9.963288546
9.963308189
9.963308375
9.963307423
9.96330733
9.963308132
9.963307597
9.963306385
9.963306758
9.963305672
9.963306166
9.963307172
9.963307153
9.963306266
9.963305943
9.96324948
9.963250713
9.963250367
9.963250105
9.963250817
9.963251107
9.963251361
9.963252101
9.963252404
9.963251474
9.963252787
9.963251887
9.9632504
9.963251425
9.963298807
9.963299782
9.963299501
9.963299482
9.963300129
9.963300238
9.963300837
9.963300382
9.963299514
9.963300693
9.963300781
9.963300092
9.963300028
9.963300313
9.963268984
9.963268964
9.963268518
9.963268688
9.963269724
9.963270314
9.963270329
9.963269727
9.963270904
9.963271002
9.963270699
9.96327037
9.963271812
9.963271153
9.963271272
9.96325309
9.963252344
9.963251622
9.963250308
9.963250681
9.963251574
9.963250918
9.963250513
9.963251424
9.963251656
9.963253451
9.963253458
9.963252843
9.963253803
9.963254338
9.963298009
9.963297921
9.963297712
9.9632981
9.963298324
9.963298595
9.963299427
9.963298938
9.963296592
9.963296582
9.96329651
9.963295146
9.963296278
9.963296551
9.963296661
9.963248825
9.963248634
9.963248622
9.963250644
9.9632516
9.963252297
9.96325093
9.963250856
9.96325093
9.963251689
9.963250115
9.963251067
9.963252321
9.963251762
9.963339996
9.963341362
9.963342507
9.963343354
9.96334414
9.963345821
9.963346986
9.963346719
9.963347013
9.96334732
9.963346943
9.96334881
9.963347917
9.963347263
9.963280689
9.963279084
9.96327901
9.963278617
9.963279573
9.963280393
9.963281414
9.963281735
9.963283162
9.96328289
9.963283079
9.963282875
9.963283758
9.963284188
9.96325907
9.96325912
9.963259287
9.963259445
9.963257166
9.963257546
9.963258284
9.963257878
9.963256378
9.963256549
9.963256073
9.963256269
9.963255533
9.963254857
9.96327761
9.96327779
9.963277945
9.963277279
9.963277941
9.963277349
9.963278472
9.963278996
9.963277791
9.963278374
9.963280228
9.963279742
9.963280968
9.963282376
9.963275611
9.963275823
9.963277216
9.963277145
9.963278241
9.963277993
9.963276864
9.963277523
9.963277831
9.963277207
9.963276643
9.963278227
9.963278166
9.963278012
9.96327218
9.963272024
9.963269841
9.963270527
9.963271109
9.963272202
9.963271913
9.963271233
9.963271837
9.963273232
9.963273069
9.963272474
9.963272661
9.963272924
9.963273661
9.963299919
9.963301321
9.96330112
9.963301809
9.963301865
9.963301891
9.96330172
9.963300442
9.963299818
9.963300385
9.963299264
9.963299685
9.96330019
9.963300377
9.963301939
9.963270558
9.963270623
9.963269373
9.963271269
9.963270561
9.96326958
9.963269779
9.963269667
9.963270539
9.963269924
9.963271929
9.963270937
9.963271197
9.963272193
9.963272668
9.963339024
9.963339261
9.963340302
9.963340919
9.963340317
9.963341584
9.963342573
9.963343398
9.96334375
9.963343594
9.9633443
9.963345541
9.963345845
9.963345979
9.963345916
10.03206531
10.03214619
10.03222172
10.03229223
10.03236126
10.03242895
10.03249556
10.03256177
10.03262757
10.03269417
10.03276131
10.03282763
10.03289458
10.03296116
9.963327333
9.96332903
9.963329921
9.96333177
9.963333834
9.963333644
9.963332553
9.963332824
9.963332208
9.963332864
9.963333228
9.96333192
9.963333748
9.963333071
9.963263365
9.96326292
9.963262405
9.963261453
9.96326276
9.963263675
9.963261905
9.96326151
9.963261431
9.963262
9.963261865
9.963263589
9.963262692
9.963264261
9.963284296
9.96328329
9.963284627
9.963285555
9.963286264
9.963286375
9.963286961
9.963287659
9.963288734
9.963288716
9.963290505
9.963292302
9.963291607
9.963292832
9.963266974
9.96326734
9.963267052
9.963266238
9.963265782
9.963265802
9.963265655
9.963265168
9.963264831
9.96326579
9.963263882
9.963264349
9.963264325
9.963265317
9.963273059
9.96327214
9.963271982
9.963272142
9.963271513
9.963270593
9.963269759
9.96326966
9.963268817
9.963268484
9.963269125
9.963267476
9.963267411
9.963266747
9.963266282
9.963302642
9.963303613
9.96330286
9.963301743
9.963301942
9.963301004
9.963301584
9.96330162
9.963301524
9.963300833
9.963301001
9.963299258
9.963297642
9.963298103
9.96329864
9.963264839
9.963264077
9.963263192
9.963262419
9.963262387
9.963263264
9.963262391
9.963262069
9.963261016
9.963260764
9.963262391
9.963263924
9.963264952
9.963264439
9.963263895
9.963289893
9.963287862
9.963288307
9.963288257
9.963288514
9.963288756
9.963289176
9.963288768
9.963289608
9.963288788
9.963288123
9.963287102
9.963287355
9.96328662
9.963287263
9.963328688
9.963329555
9.963331066
9.963331706
9.963333242
9.963333291
9.963333806
9.963335809
9.963334812
9.963336359
9.963337864
9.963338733
9.963339885
9.963340768
9.963340202
9.963269533
9.96326728
9.963267977
9.963267309
9.963267362
9.963266361
9.963266711
9.963266382
9.963265105
9.963266664
9.963266039
9.963266981
9.963266823
9.963268346
9.963268494
9.963300658
9.96329994
9.963300018
9.963300569
9.963300911
9.963300742
9.963301968
9.963302008
9.963302544
9.963303486
9.963303718
9.963303191
9.963302512
9.963302137
9.963258052
9.963258469
9.96325552
9.963255887
9.963254727
9.963255645
9.963256996
9.963258011
9.963258837
9.963259943
9.963258988
9.963258647
9.963258522
9.96325911
9.963259411
9.963259192
9.963259405
9.963260835
9.963259432
9.963259679
9.963259061
9.963258582
9.963258508
9.963259737
9.963260369
9.963261353
9.963262034
9.963261462
9.963264515
9.963264782
9.963265028
9.963264518
9.963264564
9.963264997
9.963263559
9.963263147
9.963263859
9.96326281
9.963263039
9.963263959
9.963263687
9.963263932
9.963262847
9.963270595
9.963269228
9.963268799
9.963269099
9.963268748
9.963269193
9.963269193
9.963267622
9.963266704
9.963266525
9.963265491
9.963265422
9.963265406
9.963264858
9.96326581
9.963265827
9.963266974
9.963267632
9.963268161
9.963268193
9.96326981
9.963268145
9.963269503
9.963269631
9.963268555
9.963269182
9.963268661
9.9632686
9.963270632
9.963269821
9.963257428
9.963257194
9.963256714
9.963258154
9.96325879
9.963258573
9.963259532
9.963260354
9.963261962
9.963262741
9.963262121
9.963262198
9.963261854
9.96326119
9.963262733
9.963291431
9.963291772
9.96329125
9.96329159
9.963291754
9.963292322
9.963291256
9.96329198
9.963292761
9.963292994
9.96329237
9.963292607
9.963292144
9.963291401
9.963291179
9.96327022
9.963269405
9.963269565
9.963268579
9.963266974
9.963267975
9.963267356
9.963268793
9.963268708
9.96326874
9.963268259
9.963268505
9.963267306
9.963267528
9.963270426
9.963260045
9.963258952
9.963259111
9.963259811
9.963259968
9.963260465
9.963258439
9.963257612
9.963258167
9.963256906
9.96325725
9.963256388
9.963255835
9.963255361
9.963255726
9.963305374
9.963304636
9.963306073
9.963306014
9.963306779
9.963307154
9.963305918
9.963305324
9.963305585
9.96330596
9.963306547
9.963305677
9.963306305
9.963304712
9.963266832
9.963266408
9.963265441
9.963265018
9.963266097
9.963265822
9.963265916
9.963266389
9.963266439
9.963265888
9.963264569
9.963264068
9.963265106
9.963265982
9.963298013
9.963298632
9.96329755
9.963296901
9.963296808
9.963296452
9.963297157
9.963297395
9.963297192
9.963295591
9.963295927
9.963294235
9.963293996
9.963294819
9.963296229
9.963289487
9.963286993
9.963287445
9.96328771
9.963289351
9.963290076
9.963290964
9.963291625
9.963292526
9.9632927
9.963293606
9.963293426
9.963294712
9.963296696
9.963296695
9.963280501
9.963281727
9.963282652
9.963282102
9.963282486
9.963282345
9.963281267
9.963281992
9.963281887
9.963281275
9.963280579
9.963278585
9.963277812
9.9632773
9.963277158
9.963298428
9.96329817
9.963296852
9.963298112
9.963297302
9.96329848
9.963298553
9.963298629
9.963297852
9.963297891
9.963297663
9.963298422
9.963298075
9.963297807
9.963298703
9.963259249
9.96326013
9.96326084
9.963260869
9.963260275
9.963259445
9.963260197
9.963260001
9.963260333
9.963260182
9.96326028
9.963260569
9.963262798
9.963263259
9.963264967
9.963311323
9.963311738
9.963312689
9.963312818
9.963314306
9.963312989
9.963312226
9.963313302
9.963314305
9.96331496
9.963312871
9.96331525
9.963316919
9.963316612
9.963317656
9.963276558
9.963277632
9.963277778
9.963277878
9.963277739
9.963276481
9.963276171
9.963275154
9.963275374
9.963274846
9.963275875
9.963276619
9.963276123
9.963277267
9.963277517
9.963281407
9.963280345
9.963279042
9.963277434
9.963277274
9.963276855
9.963277183
9.96327719
9.963277654
9.963277734
9.963275163
9.963275014
9.963274779
9.963273653
9.963274541
9.963265471
9.963266574
9.963265265
9.96326583
9.963266108
9.963267014
9.963267049
9.963266935
9.963267687
9.963267103
9.963266602
9.963266247
9.963265554
9.963264751
9.963260545
9.963260497
9.96326079
9.963260181
9.963258774
9.963257846
9.963259107
9.963259004
9.963258791
9.963258541
9.963257633
9.963257661
9.963258204
9.963258561
9.963259812
9.963260964
9.96326311
9.963263202
9.963262421
9.963263958
9.963263535
9.963263586
9.963263491
9.963262144
9.963262284
9.963261177
9.963261822
9.963261591
9.963261137
9.963260897
9.963257578
9.963259663
9.963259786
9.963261335
9.963261165
9.963260361
9.963261128
9.963260359
9.963259331
9.963259526
9.963259659
9.963259364
9.963259159
9.96325839
9.963257104
9.96331558
9.963315402
9.963313396
9.963314342
9.96331362
9.96331493
9.963314564
9.963314134
9.963313935
9.963313052
9.963313731
9.963312502
9.963312033
9.963311046
9.963311291
9.963300231
9.963299872
9.963300233
9.963299691
9.963299776
9.963299139
9.963299478
9.963299913
9.963300783
9.963301748
9.963301393
9.963300132
9.963299767
9.963299944
9.963299785
9.963295334
9.963295531
9.963295023
9.963293828
9.963293713
9.963292488
9.963294795
9.963293983
9.963293924
9.963292456
9.963292652
9.963292495
9.963292563
9.96329352
9.963294319
9.963292851
9.963292653
9.963292496
9.963291974
9.963292023
9.963292261
9.963290426
9.963290557
9.963289169
9.96328912
9.963289507
9.963289475
9.963289384
9.96328918
9.963289402
9.963304104
9.963303031
9.963302816
9.963303329
9.96330376
9.963302578
9.96330244
9.963301993
9.963301585
9.963300585
9.963300383
9.963299544
9.963301146
9.963300942
9.963301326
9.963285669
9.963284579
9.963284711
9.963284723
9.963284405
9.963285381
9.963285121
9.963285421
9.963285417
9.963285531
9.963285661
9.963284647
9.963284699
9.963284846
9.963285854
)
;

boundaryField
{
    top
    {
        type            calculated;
        value           nonuniform List<scalar> 
127
(
9.963285669
9.963251815
9.963249036
9.963298807
9.963275611
9.963266974
9.963259411
9.963266832
9.963265471
9.963284579
9.963251562
9.963251148
9.963299782
9.963275823
9.96326734
9.963259192
9.963266408
9.963266574
9.963284711
9.963252044
9.963253195
9.963299501
9.963277216
9.963267052
9.963259405
9.963265441
9.963265265
9.963284723
9.963251942
9.963253427
9.963299482
9.963277145
9.963266238
9.963260835
9.963265018
9.96326583
9.963284405
9.963251596
9.963252808
9.963300129
9.963278241
9.963265782
9.963259432
9.963266097
9.963266108
9.963285381
9.963251644
9.963251646
9.963300238
9.963277993
9.963265802
9.963259679
9.963265822
9.963267014
9.963285121
9.963251234
9.963251897
9.963300837
9.963276864
9.963265655
9.963259061
9.963265916
9.963267049
9.963285421
9.963251602
9.96325183
9.963300382
9.963277523
9.963265168
9.963258582
9.963266389
9.963266935
9.963285417
9.963251256
9.963252419
9.963299514
9.963277831
9.963264831
9.963258508
9.963266439
9.963267687
9.963285531
9.963250878
9.963252073
9.963300693
9.963277207
9.96326579
9.963259737
9.963265888
9.963267103
9.963285661
9.96325081
9.963253034
9.963300781
9.963276643
9.963263882
9.963260369
9.963264569
9.963266602
9.963284647
9.963250695
9.963252627
9.963300092
9.963278227
9.963264349
9.963261353
9.963264068
9.963266247
9.963284699
9.963250773
9.963252317
9.963300028
9.963278166
9.963264325
9.963262034
9.963265106
9.963265554
9.963284846
9.963251406
9.963252624
9.963300313
9.963278012
9.963265317
9.963261462
9.963265982
9.963264751
9.963285854
)
;
    }
    bottom
    {
        type            calculated;
        value           nonuniform List<scalar> 
134
(
9.96329645
9.963281472
9.963268984
9.96327218
9.963273059
9.963264515
9.963298013
9.963260545
9.963277655
9.963295255
9.963283029
9.963268964
9.963272024
9.96327214
9.963264782
9.963298632
9.963260497
9.963276341
9.96329593
9.963284061
9.963268518
9.963269841
9.963271982
9.963265028
9.96329755
9.96326079
9.963275943
9.96329511
9.963283692
9.963268688
9.963270527
9.963272142
9.963264518
9.963296901
9.963260181
9.963276053
9.963295518
9.963282461
9.963269724
9.963271109
9.963271513
9.963264564
9.963296808
9.963258774
9.963276045
9.963295039
9.963281349
9.963270314
9.963272202
9.963270593
9.963264997
9.963296452
9.963257846
9.963276838
9.963295871
9.963281344
9.963270329
9.963271913
9.963269759
9.963263559
9.963297157
9.963259107
9.963277048
9.963295419
9.963281111
9.963269727
9.963271233
9.96326966
9.963263147
9.963297395
9.963259004
9.963276712
9.963295992
9.963279803
9.963270904
9.963271837
9.963268817
9.963263859
9.963297192
9.963258791
9.96327748
9.963295391
9.963280101
9.963271002
9.963273232
9.963268484
9.96326281
9.963295591
9.963258541
9.963276743
9.963295046
9.963280954
9.963270699
9.963273069
9.963269125
9.963263039
9.963295927
9.963257633
9.963277057
9.96329478
9.963281033
9.96327037
9.963272474
9.963267476
9.963263959
9.963294235
9.963257661
9.963277362
9.963295337
9.963279555
9.963271812
9.963272661
9.963267411
9.963263687
9.963293996
9.963258204
9.963277162
9.963294495
9.96327976
9.963271153
9.963272924
9.963266747
9.963263932
9.963294819
9.963258561
9.963277769
9.963296001
9.96328026
9.963271272
9.963273661
9.963266282
9.963262847
9.963296229
9.963259812
)
;
    }
    side-walls
    {
        type            calculated;
        value           nonuniform List<scalar> 
261
(
9.963277655
9.963287994
9.963273272
9.963295767
9.963271964
9.963252818
9.963286591
9.963288042
9.963251815
9.963276341
9.963287323
9.963273752
9.963295006
9.963270993
9.963253003
9.963286516
9.963288346
9.963251562
9.963275943
9.963287991
9.963274327
9.963295526
9.963270014
9.963252681
9.963285326
9.963289013
9.963252044
9.963276053
9.963288402
9.963274233
9.963296989
9.963271108
9.96325343
9.963286059
9.963287533
9.963251942
9.963276045
9.963288747
9.963273637
9.963296247
9.963271112
9.963252761
9.963286958
9.963288095
9.963251596
9.963276838
9.96328818
9.963273211
9.96329711
9.96327078
9.963254349
9.96328603
9.963288222
9.963251644
9.963277048
9.963288348
9.963272944
9.963297402
9.963271189
9.963254639
9.963285409
9.963288399
9.963251234
9.963276712
9.963288497
9.963272636
9.963295695
9.96327066
9.963253923
9.963284252
9.963287941
9.963251602
9.96327748
9.96328766
9.963273192
9.963295634
9.963271759
9.96325254
9.963284721
9.96328718
9.963251256
9.963276743
9.963287569
9.963272804
9.963295442
9.963272414
9.963253266
9.96328543
9.963286856
9.963250878
9.963277057
9.963287223
9.963272161
9.963294756
9.963270898
9.963254362
9.963285125
9.963286429
9.96325081
9.963277362
9.963287219
9.963271651
9.963295844
9.963270652
9.963254711
9.963285457
9.963285273
9.963250695
9.963277162
9.963287631
9.963271624
9.963297181
9.963272064
9.963254636
9.963284635
9.963285744
9.963250773
9.963277769
9.963287418
9.963270224
9.963296866
9.963272219
9.963254199
9.963283614
9.963285782
9.963251406
9.963260545
9.963260964
9.963257578
9.96331558
9.963300231
9.963295334
9.963292851
9.963304104
9.963285669
9.963260497
9.96326311
9.963259663
9.963315402
9.963299872
9.963295531
9.963292653
9.963303031
9.963284579
9.96326079
9.963263202
9.963259786
9.963313396
9.963300233
9.963295023
9.963292496
9.963302816
9.963284711
9.963260181
9.963262421
9.963261335
9.963314342
9.963299691
9.963293828
9.963291974
9.963303329
9.963284723
9.963258774
9.963263958
9.963261165
9.96331362
9.963299776
9.963293713
9.963292023
9.96330376
9.963284405
9.963257846
9.963263535
9.963260361
9.96331493
9.963299139
9.963292488
9.963292261
9.963302578
9.963285381
9.963259107
9.963263586
9.963261128
9.963314564
9.963299478
9.963294795
9.963290426
9.96330244
9.963285121
9.963259004
9.963263491
9.963260359
9.963314134
9.963299913
9.963293983
9.963290557
9.963301993
9.963285421
9.963258791
9.963262144
9.963259331
9.963313935
9.963300783
9.963293924
9.963289169
9.963301585
9.963285417
9.963258541
9.963262284
9.963259526
9.963313052
9.963301748
9.963292456
9.96328912
9.963300585
9.963285531
9.963257633
9.963261177
9.963259659
9.963313731
9.963301393
9.963292652
9.963289507
9.963300383
9.963285661
9.963257661
9.963261822
9.963259364
9.963312502
9.963300132
9.963292495
9.963289475
9.963299544
9.963284647
9.963258204
9.963261591
9.963259159
9.963312033
9.963299767
9.963292563
9.963289384
9.963301146
9.963284699
9.963258561
9.963261137
9.96325839
9.963311046
9.963299944
9.96329352
9.96328918
9.963300942
9.963284846
9.963259812
9.963260897
9.963257104
9.963311291
9.963299785
9.963294319
9.963289402
9.963301326
9.963285854
)
;
    }
    inlet
    {
        type            calculated;
        value           nonuniform 0();
    }
    outlet
    {
        type            calculated;
        value           nonuniform List<scalar> 
81
(
9.963277769
9.963287418
9.963270224
9.963296866
9.963272219
9.963254199
9.963283614
9.963285782
9.963251406
9.963296001
9.96326389
9.963260084
9.96328268
9.963270124
9.963298621
9.963245392
9.963299001
9.963252624
9.96328026
9.963254874
9.963310167
9.963293858
9.963306526
9.963288546
9.963305943
9.963251425
9.963300313
9.963271272
9.963254338
9.963296661
9.963251762
9.963347263
9.963284188
9.963254857
9.963282376
9.963278012
9.963273661
9.963301939
9.963272668
9.963345916
10.03296116
9.963333071
9.963264261
9.963292832
9.963265317
9.963266282
9.96329864
9.963263895
9.963287263
9.963340202
9.963268494
9.963302137
9.96325911
9.963261462
9.963262847
9.96326581
9.963269821
9.963262733
9.963291179
9.963270426
9.963255726
9.963304712
9.963265982
9.963296229
9.963296695
9.963277158
9.963298703
9.963264967
9.963317656
9.963277517
9.963274541
9.963264751
9.963259812
9.963260897
9.963257104
9.963311291
9.963299785
9.963294319
9.963289402
9.963301326
9.963285854
)
;
    }
    procBoundary1to0
    {
        type            processor;
        value           nonuniform List<scalar> 
97
(
9.963279033
9.963279033
9.963287519
9.963271281
9.963296803
9.963270514
9.96325388
9.963287985
9.96328695
9.963251791
9.963295078
9.96326332
9.96326332
9.96326332
9.963263464
9.963280797
9.96326846
9.96329995
9.963244395
9.96330292
9.963249878
9.963283223
9.963262172
9.963312537
9.963312537
9.963312537
9.963296946
9.963303585
9.963287055
9.963308034
9.963250395
9.963299438
9.96326808
9.963253536
9.963298159
9.963250731
9.963250731
9.963250731
9.963339107
9.96328093
9.963260557
9.963279058
9.963275602
9.963270793
9.963299226
9.963271039
9.963270432
10.03204035
10.03204035
10.03204035
9.963328507
9.963328507
9.963265552
9.963283876
9.963267784
9.963273172
9.963302083
9.963265925
9.963291936
9.963260881
9.963270232
9.963301668
9.963301668
9.963301668
9.963258313
9.963259698
9.963262561
9.963269755
9.963263483
9.963257432
9.963292232
9.963271074
9.963261192
9.963304432
9.963304432
9.963304432
9.963266758
9.963297457
9.963287113
9.963280927
9.963299577
9.96325814
9.963313288
9.963276843
9.963281566
9.963264959
9.963264959
9.963264959
9.963259586
9.963259682
9.963258156
9.96331467
9.963300389
9.963294134
9.963293843
9.963303382
9.963286244
)
;
    }
}


// ************************************************************************* //
