/*--------------------------------*- C++ -*----------------------------------*\
| =========                 |                                                 |
| \\      /  F ield         | OpenFOAM: The Open Source CFD Toolbox           |
|  \\    /   O peration     | Version:  4.x                                   |
|   \\  /    A nd           | Web:      www.OpenFOAM.org                      |
|    \\/     M anipulation  |                                                 |
\*---------------------------------------------------------------------------*/
FoamFile
{
    version     2.0;
    format      ascii;
    class       volScalarField;
    location    "3000";
    object      N2;
}
// * * * * * * * * * * * * * * * * * * * * * * * * * * * * * * * * * * * * * //

dimensions      [0 0 0 0 0 0 0];

internalField   nonuniform List<scalar> 
1174
(
0.6215278655
0.6215267207
0.6215251022
0.6215229894
0.6215204031
0.6215173997
0.621514059
0.6215104716
0.6215067288
0.6215029183
0.6214991202
0.6214954204
0.6214919703
0.6214892567
0.6215267883
0.6215249505
0.6215225001
0.6215194932
0.6215160332
0.6215122439
0.6215082537
0.6215041783
0.621500115
0.6214961439
0.6214923255
0.6214887201
0.6214854442
0.621482913
0.6215244078
0.621521153
0.6215171225
0.6215125414
0.6215076552
0.6215026855
0.6214978064
0.6214931432
0.6214887765
0.6214847498
0.6214810819
0.6214777845
0.6214749108
0.6214727567
0.6215209144
0.6215158528
0.6215100355
0.6215038869
0.6214977632
0.6214919186
0.621486513
0.62148163
0.6214772961
0.6214735009
0.6214702134
0.6214673961
0.6214650463
0.6214633431
0.6215184164
0.6215123608
0.6215057483
0.6214990437
0.621492585
0.6214865879
0.6214811714
0.6214763806
0.6214722138
0.6214686367
0.6214655995
0.6214630514
0.6214609683
0.6214594832
0.6215209145
0.6215158527
0.6215100363
0.6215038882
0.6214977642
0.6214919193
0.621486514
0.6214816314
0.6214772979
0.621473503
0.6214702148
0.621467398
0.621465049
0.6214633461
0.6215244075
0.6215211532
0.6215171232
0.6215125421
0.621507656
0.621502686
0.6214978079
0.6214931454
0.6214887795
0.6214847529
0.6214810854
0.6214777881
0.6214749155
0.6214727628
0.6215267887
0.6215249505
0.6215225005
0.621519494
0.621516034
0.6215122453
0.6215082552
0.6215041799
0.6215001177
0.6214961468
0.6214923293
0.6214887249
0.6214854493
0.6214829179
0.621527866
0.6215267208
0.621525102
0.6215229894
0.6215204035
0.6215174005
0.6215140605
0.6215104735
0.6215067318
0.6215029217
0.6214991241
0.6214954249
0.6214919758
0.6214892627
0.6215280284
0.6215267887
0.6215249508
0.6215225003
0.6215194938
0.6215160334
0.6215122443
0.6215082537
0.6215041781
0.6215001155
0.6214961437
0.6214923256
0.6214887203
0.6214854443
0.6214829129
0.6215243569
0.6215211233
0.6215171765
0.621512753
0.6215080898
0.6215033879
0.621498797
0.6214944182
0.6214903099
0.621486503
0.6214830079
0.6214798336
0.6214770385
0.6214749244
0.6215182328
0.6215119397
0.6215050916
0.621498268
0.6214918668
0.6214861059
0.6214810646
0.6214767349
0.6214730582
0.6214699543
0.6214673414
0.6214651482
0.6214633422
0.6214620401
0.6215073351
0.6214968553
0.6214868778
0.6214781502
0.6214709366
0.6214652055
0.6214607821
0.6214574431
0.6214549685
0.6214531664
0.6214518759
0.6214509706
0.6214503556
0.6214499818
0.6214970365
0.6214844156
0.6214737074
0.6214651986
0.6214587247
0.6214539629
0.6214505667
0.6214482238
0.6214466762
0.621445717
0.6214451856
0.6214449578
0.6214449316
0.6214450004
0.6215073356
0.6214968559
0.6214868782
0.6214781514
0.6214709384
0.621465208
0.621460785
0.6214574456
0.621454972
0.6214531693
0.6214518792
0.6214509741
0.621450359
0.6214499867
0.6215182339
0.6215119406
0.6215050932
0.6214982702
0.621491869
0.6214861085
0.621481068
0.6214767389
0.6214730631
0.6214699597
0.6214673469
0.6214651541
0.6214633478
0.6214620467
0.6215243575
0.6215211242
0.6215171773
0.6215127539
0.621508091
0.6215033897
0.6214987998
0.6214944213
0.6214903141
0.6214865077
0.6214830135
0.6214798404
0.6214770458
0.6214749323
0.6215267891
0.621524951
0.6215225002
0.6215194939
0.6215160339
0.6215122459
0.6215082561
0.621504181
0.6215001191
0.6214961482
0.6214923306
0.6214887266
0.6214854514
0.6214829206
0.6215267454
0.6215244078
0.6215211537
0.6215171227
0.621512542
0.6215076559
0.6215026856
0.6214978062
0.6214931434
0.6214887767
0.6214847499
0.621481082
0.621477785
0.6214749116
0.6214727574
0.6215233095
0.6215182337
0.6215119403
0.6215050922
0.6214982689
0.6214918674
0.6214861062
0.6214810648
0.6214767356
0.6214730582
0.6214699547
0.6214673416
0.6214651482
0.6214633416
0.6214620404
0.6215001171
0.621486816
0.621474754
0.6214648475
0.6214572898
0.6214518689
0.6214482064
0.6214458971
0.6214445797
0.6214439593
0.6214438105
0.6214439609
0.6214442752
0.621444599
0.6214597726
0.6214372633
0.6214216995
0.6214124733
0.621408099
0.6214070704
0.6214081718
0.6214105171
0.6214135066
0.6214167496
0.6214200045
0.6214231133
0.6214259285
0.6214280872
0.6214068539
0.6213844002
0.6213746926
0.6213729064
0.6213755813
0.6213805341
0.6213864684
0.6213926436
0.6213986552
0.6214042951
0.621409466
0.6214141197
0.621418169
0.6214211993
0.6214597766
0.6214372671
0.6214217037
0.6214124783
0.6214081042
0.6214070764
0.6214081772
0.6214105232
0.6214135128
0.6214167561
0.6214200104
0.6214231195
0.6214259354
0.6214280932
0.6215001201
0.6214868185
0.6214747573
0.6214648512
0.6214572945
0.6214518749
0.6214482126
0.6214459043
0.6214445878
0.6214439678
0.6214438188
0.6214439695
0.6214442836
0.6214446079
0.621518234
0.6215119405
0.6215050935
0.621498271
0.6214918705
0.6214861103
0.6214810708
0.6214767415
0.6214730655
0.6214699628
0.6214673506
0.6214651577
0.6214633519
0.6214620503
0.6215244079
0.6215211536
0.6215171234
0.6215125426
0.6215076575
0.6215026884
0.6214978098
0.6214931487
0.6214887832
0.6214847575
0.6214810902
0.621477794
0.6214749216
0.6214727679
0.6215248158
0.6215209156
0.6215158538
0.6215100364
0.6215038884
0.6214977643
0.6214919195
0.6214865142
0.6214816311
0.621477297
0.6214735019
0.621470214
0.6214673964
0.6214650471
0.6214633439
0.6215169646
0.6215073366
0.6214968571
0.6214868793
0.6214781516
0.6214709378
0.6214652072
0.6214607834
0.6214574439
0.6214549694
0.6214531672
0.6214518765
0.6214509715
0.6214503562
0.6214499825
0.6214871913
0.6214597762
0.6214372657
0.6214217018
0.6214124751
0.6214081006
0.6214070719
0.6214081731
0.6214105188
0.621413508
0.6214167515
0.6214200063
0.6214231145
0.6214259294
0.6214280877
0.6213212919
0.6212927904
0.6212878959
0.6212958411
0.6213095508
0.6213250191
0.6213402071
0.6213541991
0.6213666771
0.6213776131
0.6213871071
0.6213952812
0.6214021509
0.6214071723
0.6210491836
0.6210841721
0.6211384012
0.6211905507
0.6212349418
0.6212711984
0.6213004693
0.6213241272
0.6213433747
0.6213591665
0.6213722301
0.6213830848
0.6213919775
0.6213983718
0.6213213078
0.6212928023
0.6212879074
0.6212958526
0.6213095628
0.6213250303
0.6213402175
0.6213542093
0.6213666862
0.6213776222
0.6213871154
0.6213952894
0.6214021593
0.6214071801
0.6214597765
0.6214372686
0.621421707
0.6214124834
0.6214081107
0.6214070834
0.6214081849
0.6214105304
0.6214135201
0.6214167637
0.6214200181
0.6214231263
0.6214259416
0.6214281001
0.6215073353
0.6214968567
0.6214868807
0.6214781552
0.6214709436
0.6214652142
0.6214607914
0.6214574536
0.6214549803
0.6214531791
0.6214518889
0.6214509847
0.621450369
0.6214499965
0.6215209149
0.6215158534
0.6215100369
0.6215038904
0.6214977672
0.6214919239
0.6214865197
0.6214816381
0.6214773056
0.6214735115
0.6214702254
0.6214674093
0.6214650605
0.6214633581
0.6215233652
0.6215184175
0.6215123623
0.6215057494
0.6214990449
0.6214925859
0.6214865897
0.6214811732
0.6214763826
0.6214722158
0.6214686382
0.6214656015
0.6214630532
0.6214609704
0.6214594853
0.6215103303
0.6214970384
0.6214844176
0.6214737095
0.6214652008
0.6214587277
0.6214539662
0.6214505692
0.6214482265
0.6214466786
0.6214457193
0.6214451879
0.6214449602
0.6214449334
0.6214450017
0.6214465922
0.6214068599
0.6213844058
0.6213746982
0.6213729109
0.6213755857
0.6213805379
0.6213864715
0.6213926469
0.6213986582
0.6214042978
0.6214094684
0.6214141218
0.6214181707
0.6214212003
0.621097978
0.6210492036
0.6210841839
0.6211384096
0.621190557
0.6212349464
0.6212712014
0.621300472
0.6213241295
0.6213433768
0.6213591684
0.6213722315
0.6213830865
0.6213919787
0.6213983733
0.6198752394
0.6204701123
0.6208003452
0.6209940417
0.6211141754
0.6211928292
0.6212469655
0.6212859094
0.621314996
0.6213374032
0.6213550932
0.6213692946
0.6213806415
0.6213886759
0.6210491832
0.6210841896
0.6211384246
0.6211905745
0.621234964
0.6212712184
0.6213004873
0.6213241433
0.6213433893
0.6213591803
0.6213722416
0.6213830962
0.6213919877
0.6213983816
0.6214068518
0.6213844067
0.621374706
0.6213729237
0.6213756001
0.621380554
0.6213864882
0.6213926629
0.6213986739
0.6214043131
0.6214094834
0.6214141364
0.6214181849
0.6214212147
0.6214970357
0.6214844173
0.6214737125
0.6214652065
0.6214587358
0.6214539758
0.6214505806
0.6214482388
0.621446691
0.6214457329
0.6214452019
0.6214449747
0.621444948
0.621445017
0.6215184162
0.6215123612
0.62150575
0.6214990471
0.6214925904
0.6214865954
0.6214811807
0.6214763914
0.6214722262
0.6214686504
0.6214656147
0.6214630669
0.6214609853
0.6214595005
0.6215248157
0.6215209157
0.6215158541
0.6215100372
0.6215038896
0.621497766
0.6214919217
0.6214865167
0.6214816335
0.6214773
0.6214735046
0.6214702173
0.6214674006
0.6214650514
0.6214633484
0.6215169653
0.621507338
0.6214968588
0.6214868815
0.6214781546
0.6214709415
0.6214652107
0.6214607871
0.6214574483
0.6214549744
0.6214531721
0.6214518819
0.6214509769
0.6214503617
0.621449989
0.621487199
0.6214597834
0.6214372737
0.6214217099
0.6214124839
0.621408109
0.6214070811
0.6214081818
0.6214105268
0.6214135159
0.6214167593
0.6214200132
0.6214231218
0.6214259369
0.6214280956
0.6213849385
0.6213213257
0.6212928156
0.6212879178
0.6212958607
0.6213095692
0.6213250357
0.6213402221
0.6213542136
0.6213666897
0.6213776249
0.6213871179
0.6213952914
0.6214021609
0.6214071813
0.6210979819
0.6210492091
0.6210842046
0.6211384352
0.6211905816
0.6212349695
0.6212712222
0.6213004902
0.6213241457
0.6213433911
0.6213591816
0.6213722429
0.6213830973
0.6213919887
0.6213983825
0.6213849327
0.6213213254
0.6212928218
0.621287929
0.6212958742
0.621309583
0.6213250494
0.6213402348
0.6213542262
0.6213667014
0.6213776357
0.6213871278
0.6213953008
0.62140217
0.6214071905
0.6214597722
0.6214372712
0.6214217141
0.6214124925
0.6214081207
0.6214070946
0.6214081954
0.6214105413
0.6214135306
0.6214167733
0.6214200274
0.6214231358
0.6214259508
0.6214281084
0.6215073338
0.6214968565
0.6214868829
0.6214781586
0.6214709478
0.6214652189
0.6214607975
0.6214574596
0.6214549865
0.621453185
0.6214518955
0.6214509909
0.6214503757
0.6214500033
0.6215209138
0.6215158527
0.6215100373
0.6215038912
0.6214977691
0.6214919264
0.6214865234
0.6214816423
0.6214773096
0.6214735161
0.6214702294
0.6214674139
0.6214650654
0.6214633633
0.621526745
0.621524408
0.6215211546
0.6215171241
0.6215125432
0.6215076572
0.6215026882
0.6214978097
0.6214931472
0.6214887816
0.6214847553
0.6214810878
0.6214777906
0.6214749178
0.6214727645
0.6215233109
0.6215182351
0.6215119424
0.6215050948
0.621498272
0.6214918708
0.6214861106
0.6214810703
0.6214767414
0.6214730654
0.6214699622
0.6214673499
0.6214651569
0.6214633508
0.6214620498
0.6215127875
0.6215001239
0.6214868224
0.6214747611
0.6214648556
0.6214572986
0.621451879
0.6214482161
0.6214459076
0.6214445906
0.6214439709
0.6214438218
0.621443972
0.6214442854
0.62144461
0.6214871991
0.6214597848
0.6214372773
0.6214217153
0.6214124904
0.6214081169
0.6214070886
0.6214081897
0.6214105349
0.6214135234
0.6214167664
0.6214200209
0.6214231294
0.6214259442
0.621428102
0.6214465925
0.621406866
0.6213844182
0.6213747156
0.6213729311
0.6213756065
0.621380559
0.6213864922
0.6213926658
0.6213986766
0.6214043159
0.621409486
0.6214141384
0.6214181867
0.6214212166
0.6214871992
0.6214597867
0.6214372805
0.6214217202
0.621412497
0.6214081241
0.6214070971
0.6214081979
0.6214105435
0.621413532
0.621416775
0.6214200291
0.6214231377
0.6214259516
0.6214281083
0.6215127847
0.6215001221
0.6214868232
0.6214747641
0.6214648604
0.6214573054
0.6214518873
0.6214482262
0.621445918
0.6214446014
0.6214439818
0.6214438328
0.621443983
0.6214442972
0.6214446216
0.6215182326
0.6215119409
0.6215050953
0.6214982744
0.6214918752
0.6214861166
0.6214810779
0.6214767502
0.6214730749
0.6214699724
0.6214673604
0.6214651682
0.6214633626
0.6214620613
0.6215244067
0.621521153
0.6215171237
0.6215125445
0.6215076598
0.6215026914
0.6214978144
0.6214931535
0.6214887888
0.6214847641
0.6214810984
0.6214778024
0.6214749305
0.6214727773
0.6215280287
0.6215267884
0.6215249509
0.6215225008
0.6215194946
0.6215160346
0.6215122461
0.6215082564
0.621504181
0.6215001197
0.6214961487
0.6214923309
0.6214887267
0.6214854513
0.6214829197
0.6215267111
0.6215243584
0.6215211251
0.6215171788
0.6215127553
0.6215080927
0.6215033911
0.6214988013
0.6214944231
0.6214903169
0.6214865099
0.6214830156
0.6214798422
0.6214770477
0.6214749344
0.6215233106
0.6215182354
0.6215119421
0.621505095
0.6214982731
0.6214918732
0.6214861129
0.6214810728
0.6214767443
0.6214730684
0.6214699656
0.6214673532
0.6214651603
0.621463354
0.6214620532
0.6215169658
0.6215073385
0.6214968605
0.6214868848
0.6214781599
0.6214709477
0.6214652182
0.6214607955
0.6214574573
0.6214549836
0.6214531814
0.6214518916
0.6214509873
0.6214503721
0.6214499991
0.6215103308
0.6214970414
0.6214844227
0.6214737176
0.6214652113
0.6214587404
0.6214539802
0.6214505841
0.6214482418
0.6214466944
0.6214457359
0.621445205
0.6214449772
0.6214449507
0.621445019
0.6215169658
0.6215073395
0.6214968621
0.6214868872
0.6214781622
0.6214709512
0.6214652225
0.6214608005
0.6214574625
0.621454989
0.6214531878
0.6214518977
0.6214509928
0.6214503781
0.6214500046
0.6215233105
0.6215182354
0.6215119427
0.6215050972
0.6214982759
0.6214918769
0.6214861181
0.621481079
0.6214767508
0.6214730754
0.6214699732
0.6214673614
0.6214651689
0.6214633636
0.6214620627
0.6215267102
0.6215243572
0.6215211247
0.6215171792
0.6215127565
0.6215080956
0.6215033953
0.6214988064
0.621494429
0.6214903232
0.6214865179
0.621483024
0.6214798519
0.6214770579
0.6214749447
0.6215267881
0.6215249505
0.621522501
0.6215194956
0.6215160362
0.6215122486
0.6215082596
0.6215041858
0.6215001251
0.6214961556
0.6214923388
0.6214887356
0.6214854614
0.6214829319
0.6215286011
0.6215278654
0.6215267204
0.6215251026
0.6215229898
0.621520404
0.621517401
0.6215140612
0.621510474
0.6215067326
0.6215029228
0.6214991255
0.6214954263
0.6214919773
0.621489264
0.6215280287
0.6215267891
0.6215249509
0.6215225012
0.6215194945
0.6215160352
0.6215122467
0.6215082571
0.6215041827
0.621500121
0.6214961502
0.6214923325
0.6214887284
0.6214854532
0.621482923
0.6215267458
0.6215244084
0.6215211545
0.6215171242
0.621512544
0.6215076592
0.6215026898
0.6214978122
0.6214931509
0.6214887857
0.6214847596
0.6214810929
0.6214777963
0.6214749242
0.6214727709
0.6215248157
0.6215209159
0.6215158548
0.621510039
0.6215038931
0.6214977699
0.6214919267
0.6214865229
0.6214816417
0.6214773084
0.6214735145
0.6214702276
0.6214674118
0.6214650636
0.6214633607
0.6215233656
0.6215184188
0.6215123636
0.6215057528
0.6214990501
0.6214925939
0.6214865992
0.6214811836
0.6214763943
0.621472229
0.6214686527
0.6214656169
0.6214630699
0.6214609877
0.6214595034
0.6215248159
0.621520916
0.6215158553
0.6215100402
0.6215038943
0.6214977724
0.6214919292
0.6214865256
0.6214816446
0.6214773126
0.621473519
0.6214702323
0.6214674162
0.6214650679
0.6214633656
0.6215267452
0.6215244081
0.6215211549
0.6215171256
0.6215125457
0.6215076614
0.6215026934
0.6214978162
0.6214931555
0.6214887909
0.6214847656
0.6214810996
0.6214778037
0.6214749316
0.6214727787
0.6215280281
0.6215267888
0.6215249512
0.6215225014
0.6215194955
0.6215160369
0.6215122494
0.6215082605
0.6215041866
0.621500126
0.6214961565
0.62149234
0.6214887362
0.6214854616
0.6214829323
0.6215286007
0.6215278657
0.6215267208
0.6215251027
0.6215229906
0.6215204052
0.6215174032
0.6215140642
0.6215104781
0.621506737
0.6215029286
0.6214991325
0.6214954343
0.6214919862
0.6214892747
)
;

boundaryField
{
    top
    {
        type            zeroGradient;
    }
    bottom
    {
        type            zeroGradient;
    }
    side-walls
    {
        type            zeroGradient;
    }
    inlet
    {
        type            zeroGradient;
    }
    outlet
    {
        type            zeroGradient;
    }
    procBoundary1to0
    {
        type            processor;
        value           nonuniform List<scalar> 
97
(
0.6215286009
0.6215286009
0.6215280288
0.621526746
0.6215248167
0.6215233671
0.6215248168
0.621526746
0.6215280293
0.6215286016
0.621528761
0.6215267107
0.6215267107
0.6215267107
0.6215233111
0.6215169681
0.6215103356
0.6215169686
0.6215233126
0.6215267121
0.6215280291
0.6215281802
0.6215266761
0.6215127848
0.6215127848
0.6215127848
0.621487204
0.6214466185
0.6214872099
0.6215127914
0.6215233126
0.6215267464
0.6215273292
0.6215240202
0.6215124337
0.6213849363
0.6213849363
0.6213849363
0.6210981578
0.6213849795
0.6214872094
0.6215169684
0.621524817
0.6215267207
0.6215215107
0.6214995448
0.6214125098
0.61874519
0.61874519
0.61874519
0.6210981491
0.6210981491
0.621446616
0.6215103348
0.6215233671
0.621527329
0.6215240197
0.621512432
0.6214787092
0.621412502
0.621478715
0.6214871943
0.6214871943
0.6214871943
0.6215169658
0.6215248157
0.6215281806
0.6215266755
0.621522262
0.6215124318
0.621499544
0.6215124334
0.6215222622
0.6215233096
0.6215233096
0.6215233096
0.6215267454
0.6215287608
0.6215281683
0.6215266761
0.6215240199
0.6215215102
0.6215240198
0.6215266759
0.6215281683
0.6215280282
0.6215280282
0.6215280282
0.6215290234
0.6215287612
0.6215281804
0.621527329
0.6215267204
0.6215273288
0.6215281803
0.6215287604
0.6215290227
)
;
    }
}


// ************************************************************************* //
