/*--------------------------------*- C++ -*----------------------------------*\
| =========                 |                                                 |
| \\      /  F ield         | OpenFOAM: The Open Source CFD Toolbox           |
|  \\    /   O peration     | Version:  4.x                                   |
|   \\  /    A nd           | Web:      www.OpenFOAM.org                      |
|    \\/     M anipulation  |                                                 |
\*---------------------------------------------------------------------------*/
FoamFile
{
    version     2.0;
    format      ascii;
    class       surfaceScalarField;
    location    "3000";
    object      phi;
}
// * * * * * * * * * * * * * * * * * * * * * * * * * * * * * * * * * * * * * //

dimensions      [1 0 -1 0 0 0 0];

internalField   nonuniform List<scalar> 
3172
(
9.498070081e-06
-3.100061958e-11
-3.153115079e-11
9.498129826e-06
-2.879502525e-11
-3.039326221e-11
9.498172771e-06
-2.205567405e-11
-2.345053492e-11
9.498208268e-06
-1.370197431e-11
-1.521560936e-11
9.498231282e-06
-8.548055733e-12
-1.046960895e-11
9.498244685e-06
-6.875292339e-12
-6.644986002e-12
9.498251374e-06
-3.302043111e-12
-3.592714352e-12
9.498252828e-06
-2.182982302e-12
-1.946862035e-13
9.498250447e-06
1.463125545e-12
1.065564874e-12
9.498245602e-06
1.227557373e-12
3.44297709e-12
9.498239082e-06
1.490473212e-12
4.15832461e-12
9.498228491e-06
3.230525867e-12
4.532350232e-12
9.498220657e-06
5.359742833e-12
6.271741767e-12
5.212710193e-12
5.807581733e-12
9.498100151e-06
-5.900925925e-11
-4.000752647e-11
9.49816232e-06
-5.391778123e-11
-3.858043327e-11
9.498204297e-06
-3.959837911e-11
-2.765431438e-11
9.498232703e-06
-2.714702618e-11
-1.846020198e-11
9.498247339e-06
-1.698035739e-11
-1.064030223e-11
9.498256416e-06
-9.025963144e-12
-5.099236943e-12
9.498256468e-06
-2.942340426e-12
-1.397925836e-12
9.498254124e-06
-9.677544682e-14
2.771707131e-12
9.498249082e-06
2.85781566e-12
3.650169485e-12
9.498241358e-06
3.361028839e-12
4.402577134e-12
9.498235284e-06
5.146333793e-12
6.042877179e-12
9.498224718e-06
5.327354187e-12
4.64590267e-12
9.498217468e-06
7.400477994e-12
7.48856446e-12
8.906242552e-12
7.785345392e-12
9.498131944e-06
-5.514486322e-11
-7.686689646e-11
9.498195517e-06
-4.831434222e-11
-6.818832476e-11
9.498227482e-06
-3.069427593e-11
-4.197208316e-11
9.498241738e-06
-1.831271279e-11
-2.096136889e-11
9.498242979e-06
-1.085872573e-11
-7.546034508e-12
9.498241609e-06
-4.644759642e-12
-1.833989832e-13
9.49823261e-06
-3.906377713e-13
4.471093239e-12
9.4982256e-06
2.367425102e-12
5.980866813e-12
9.498216132e-06
2.394813045e-12
4.71473328e-12
9.498209266e-06
3.372014631e-12
5.967147446e-12
9.49820375e-06
5.63532588e-12
6.278648592e-12
9.498194657e-06
4.716047791e-12
5.811209944e-12
9.498189059e-06
7.739546504e-12
7.639117786e-12
8.111717365e-12
6.356265227e-12
9.498188241e-06
-4.268235497e-11
-6.613918405e-11
9.498240922e-06
-3.008935143e-11
-7.360163624e-11
9.498261826e-06
-1.651201937e-11
-3.828335426e-11
9.498263393e-06
-8.668436291e-12
-1.138958312e-11
9.498258946e-06
-4.890636841e-12
1.63540361e-12
9.498250604e-06
-1.322240715e-12
1.055599759e-11
9.498240095e-06
7.884438132e-13
1.152443928e-11
9.498228947e-06
1.091517575e-12
1.033739369e-11
9.498220477e-06
6.603214836e-13
8.495818645e-12
9.498217089e-06
8.744474408e-13
9.140517374e-12
9.498210726e-06
1.847178888e-12
7.149512502e-12
9.498208625e-06
2.638115336e-12
8.446408741e-12
9.498206041e-06
3.64925433e-12
9.764428003e-12
3.533576941e-12
9.916874926e-12
9.498235289e-06
4.205891932e-11
-1.329597978e-10
9.498265286e-06
2.977211074e-11
-8.954105212e-11
9.498264901e-06
1.537198564e-11
-3.48364332e-11
9.498250693e-06
8.685408049e-12
-4.649646409e-12
9.498238297e-06
6.124872178e-12
8.315615528e-12
9.49822408e-06
3.280120139e-12
1.181275206e-11
9.498208525e-06
1.217019247e-12
1.277882618e-11
9.498198226e-06
-1.836500762e-13
1.14274959e-11
9.498192067e-06
-5.182487249e-13
1.039158802e-11
9.498188907e-06
-1.212488281e-12
9.050312132e-12
9.498182009e-06
-1.951474937e-12
7.278945878e-12
9.498181058e-06
-1.484753803e-12
6.34638802e-12
9.498179827e-06
-1.109769175e-12
8.825398647e-12
-1.431104422e-12
7.53754536e-12
9.498145373e-06
5.591801502e-11
-6.37978907e-11
9.498198601e-06
4.98226197e-11
-7.213479173e-11
9.498222905e-06
3.139322358e-11
-3.517301819e-11
9.498223997e-06
1.916345728e-11
-9.744022066e-12
9.498218599e-06
1.063465604e-11
2.589590456e-12
9.498208832e-06
6.23224517e-12
8.80868576e-12
9.498197206e-06
3.552258913e-14
1.136320478e-11
9.498188224e-06
-1.494022223e-12
1.216600061e-11
9.498179067e-06
-3.83299291e-12
9.901089016e-12
9.498175917e-06
-5.818462188e-12
9.523923165e-12
9.498171502e-06
-5.775253751e-12
8.910264035e-12
9.498169365e-06
-5.168063475e-12
7.992116205e-12
9.498165348e-06
-6.432347067e-12
7.967197128e-12
-8.242067134e-12
6.438144162e-12
9.498143055e-06
5.61019285e-11
-7.68397338e-11
9.49820452e-06
5.174787723e-11
-6.740652403e-11
9.49823921e-06
3.776230222e-11
-4.113490206e-11
9.498252275e-06
2.622154131e-11
-2.026105617e-11
9.498256121e-06
1.717062196e-11
-6.969118772e-12
9.4982488e-06
8.835421782e-12
-2.628138242e-14
9.498243107e-06
4.082544012e-12
6.755471967e-12
9.498234654e-06
1.769002276e-13
8.412235619e-12
9.498226889e-06
-2.269230299e-12
7.839159633e-12
9.498222628e-06
-3.08412365e-12
7.405900282e-12
9.498216567e-06
-4.601999619e-12
8.480543907e-12
9.49820951e-06
-5.400935344e-12
6.316762986e-12
9.498201522e-06
-1.004394319e-11
6.700030362e-12
-8.384243285e-12
7.090644996e-12
9.498099733e-06
3.080180479e-11
-3.96435908e-11
9.498159914e-06
2.849705524e-11
-3.983909319e-11
9.498204442e-06
2.266180735e-11
-2.767849736e-11
9.498232342e-06
1.689740386e-11
-1.725128177e-11
9.498248391e-06
1.167876851e-11
-1.020597746e-11
9.498254517e-06
6.992838521e-12
-4.612277044e-12
9.498254227e-06
3.799694912e-12
-6.506673057e-13
9.498249832e-06
4.008698008e-13
2.335227178e-12
9.498245037e-06
-3.019066682e-12
3.510829508e-12
9.498241545e-06
-2.429914958e-12
4.261376666e-12
9.498234609e-06
-4.4264361e-12
3.942018145e-12
9.498224812e-06
-5.718005258e-12
3.599366196e-12
9.498215306e-06
-7.046601829e-12
6.124946178e-12
-5.505332336e-12
5.856944738e-12
9.498046092e-06
-3.202695523e-11
9.498105529e-06
-3.081048218e-11
9.498151692e-06
-2.30775805e-11
9.498185016e-06
-1.522538296e-11
9.498205832e-06
-1.182928256e-11
9.498219603e-06
-7.606532012e-12
9.498224711e-06
-4.813465052e-12
9.498224762e-06
-1.021861012e-12
9.498225453e-06
3.146663969e-12
9.498219605e-06
3.567804576e-12
9.498214843e-06
4.078213813e-12
9.498205098e-06
4.138773743e-12
9.498198096e-06
6.495735242e-12
5.699506691e-12
9.498043112e-06
-1.025219125e-10
9.498107715e-06
-3.874728938e-11
-5.70334577e-11
9.498169689e-06
-3.653464087e-11
-5.341272393e-11
9.498211089e-06
-2.602267696e-11
-3.851563164e-11
9.498238321e-06
-1.60647003e-11
-2.580114339e-11
9.498255287e-06
-9.172366975e-12
-1.602558917e-11
9.498262701e-06
-4.413216618e-12
-9.204682417e-12
9.498264227e-06
-2.688702735e-13
-3.456045821e-12
9.498259795e-06
1.12380605e-12
-3.112721936e-13
9.498256826e-06
4.152208708e-12
3.220071297e-12
9.498248131e-06
4.718850289e-12
3.982959658e-12
9.498242161e-06
4.700746043e-12
6.02634943e-12
9.498233153e-06
4.023440761e-12
7.089778366e-12
9.498224783e-06
6.765869191e-12
9.648104247e-12
7.39234536e-12
9.600871419e-12
9.498109649e-06
-6.955181041e-11
-7.032256458e-11
9.498166123e-06
-6.781596919e-11
-6.844626937e-11
9.498199563e-06
-4.555055935e-11
-4.697859619e-11
9.498215452e-06
-2.594500387e-11
-2.746085944e-11
9.498220655e-06
-1.271078757e-11
-1.341223389e-11
9.498222353e-06
-3.746616838e-12
-3.654365237e-12
9.498217746e-06
2.965506149e-12
8.015967825e-13
9.498213418e-06
5.298250698e-12
4.340769164e-12
9.498207641e-06
5.127683627e-12
5.783562787e-12
9.498200665e-06
5.718312589e-12
5.439481253e-12
9.498195441e-06
7.361007606e-12
8.291830119e-12
9.49819011e-06
8.154411657e-12
9.041728765e-12
9.498183614e-06
9.046644861e-12
1.162069849e-11
8.83343859e-12
9.60518443e-12
9.49817961e-06
-6.482389091e-11
-1.364843724e-10
9.498221285e-06
-6.120058364e-11
-1.168959745e-10
9.498230093e-06
-3.342794121e-11
-6.128559916e-11
9.498222598e-06
-1.35161729e-11
-2.524402383e-11
9.498211153e-06
-2.878686772e-12
-4.746299652e-12
9.498202371e-06
5.473458262e-12
8.288346808e-12
9.498191175e-06
5.792669429e-12
1.064169376e-11
9.49818387e-06
6.571917874e-12
1.167417503e-11
9.498181329e-06
6.942291639e-12
1.221329333e-11
9.498175391e-06
6.349092879e-12
1.126445145e-11
9.498173929e-06
6.574220514e-12
1.097419618e-11
9.498172285e-06
6.84351335e-12
1.036569305e-11
9.498171301e-06
9.488460279e-12
1.348950593e-11
1.097238737e-11
1.156460375e-11
9.498236153e-06
-3.760202378e-11
-6.686044218e-11
9.498246872e-06
-3.186370333e-11
-1.139765261e-10
9.4982368e-06
-1.479381483e-11
-4.091608635e-11
9.4982151e-06
-6.319097132e-12
2.114319883e-12
9.498197263e-06
-4.488620042e-13
1.616650505e-11
9.49818526e-06
6.541872314e-13
2.13349917e-11
9.498180759e-06
2.904231229e-12
2.149918726e-11
9.498177836e-06
3.832192876e-12
1.860955661e-11
9.498180053e-06
2.826788113e-12
1.697825707e-11
9.498179847e-06
2.366912904e-12
1.393653263e-11
9.498183205e-06
3.343316854e-12
1.365335032e-11
9.498186029e-06
2.744654871e-12
1.213974363e-11
9.498190703e-06
4.808712236e-12
1.560822093e-11
2.237536777e-12
1.325875627e-11
9.498342449e-06
3.700546086e-11
-9.37552173e-11
9.498281625e-06
3.240084579e-11
-9.11553591e-11
9.498232157e-06
1.594289281e-11
-1.914907993e-11
9.49819878e-06
6.588133686e-12
2.292503672e-11
9.498176758e-06
1.921722393e-12
2.662310399e-11
9.498168169e-06
-4.290322245e-13
2.503893048e-11
9.498160546e-06
-3.03898057e-12
2.02082181e-11
9.498159401e-06
-2.492109243e-12
1.648171793e-11
9.498161116e-06
-2.42723065e-12
1.500443127e-11
9.498165111e-06
-2.232901666e-12
1.232644173e-11
9.49816472e-06
-2.007123013e-12
1.011014002e-11
9.498171333e-06
-1.89628643e-12
1.115721673e-11
9.498176724e-06
-4.302506409e-12
1.496728249e-11
-3.503161817e-12
1.391864911e-11
9.498250616e-06
6.393503594e-11
-6.779562288e-11
9.49826236e-06
6.130162084e-11
-1.127008217e-10
9.498250798e-06
3.26718854e-11
-4.0038666e-11
9.498230268e-06
1.345228213e-11
1.002147723e-12
9.498213666e-06
4.266492725e-12
1.676781184e-11
9.498203611e-06
-3.228653061e-13
2.178199378e-11
9.498195488e-06
-3.901427671e-12
2.128068988e-11
9.498192803e-06
-4.736206461e-12
1.902036118e-11
9.498193505e-06
-7.140713526e-12
1.60782245e-11
9.498195908e-06
-9.172853631e-12
1.393606885e-11
9.498197866e-06
-7.160494403e-12
1.269504283e-11
9.498199572e-06
-7.395187155e-12
1.158671171e-11
9.498205272e-06
-8.350054948e-12
1.52599756e-11
-7.707107463e-12
1.384405756e-11
9.498162939e-06
6.850284429e-11
-1.357043685e-10
9.498203163e-06
6.573223027e-11
-1.155817562e-10
9.498215218e-06
4.440422794e-11
-5.889215685e-11
9.498209043e-06
2.650440273e-11
-2.412297767e-11
9.498196412e-06
1.285239348e-11
-4.735210067e-12
9.498184609e-06
3.440153349e-12
5.152423364e-12
9.498175465e-06
-2.654097929e-12
1.135750765e-11
9.498166292e-06
-6.135330023e-12
1.182861711e-11
9.498161872e-06
-6.867208543e-12
1.194265942e-11
9.498163743e-06
-6.314752977e-12
1.253411865e-11
9.498158276e-06
-9.606404848e-12
1.044992527e-11
9.498157493e-06
-8.838765988e-12
1.061269757e-11
9.498156638e-06
-1.049664652e-11
1.261520917e-11
-9.713102446e-12
1.049628113e-11
9.498147219e-06
3.855610967e-11
-6.894397008e-11
9.498204486e-06
3.836750565e-11
-6.700404618e-11
9.498236535e-06
2.753414745e-11
-4.350795671e-11
9.498253196e-06
1.860842102e-11
-2.603727663e-11
9.498258418e-06
9.901759522e-12
-1.371698969e-11
9.498255964e-06
3.477066516e-12
-3.422120816e-12
9.498250799e-06
-9.783426505e-13
1.315532731e-12
9.498244047e-06
-2.575791452e-12
4.090169606e-12
9.498238449e-06
-3.66648589e-12
7.394117037e-12
9.498235827e-06
-3.300334585e-12
8.596857332e-12
9.49823101e-06
-4.681446185e-12
8.059553948e-12
9.498226354e-06
-5.597651478e-12
8.639963095e-12
9.498219157e-06
-6.960534771e-12
1.050671939e-11
-6.326122585e-12
8.721190959e-12
9.498064982e-06
-5.865060311e-11
9.498127735e-06
-5.251923311e-11
9.498172231e-06
-3.712479081e-11
9.498198012e-06
-2.62661227e-11
9.498212642e-06
-1.689210363e-11
9.498219389e-06
-9.439736331e-12
9.498220571e-06
-2.767466776e-12
9.498216992e-06
9.28470142e-13
9.498212602e-06
3.66511393e-12
9.498207782e-06
4.265805817e-12
9.498199743e-06
5.666697695e-12
9.498193888e-06
7.115263922e-12
9.498185836e-06
8.287155299e-12
6.410829112e-12
9.498065687e-06
-1.717821351e-10
-1.251723128e-10
9.498138459e-06
-7.504277099e-11
-5.718274352e-11
9.498202023e-06
-6.591960348e-11
-4.883531619e-11
9.498236565e-06
-3.98221453e-11
-3.238809152e-11
9.498249439e-06
-1.879315681e-11
-1.867582065e-11
9.498250616e-06
-6.91953855e-12
-9.374064624e-12
9.498247172e-06
8.81694447e-13
-2.944659735e-12
9.498240986e-06
4.665021933e-12
-9.269149842e-13
9.498231022e-06
6.314803707e-12
-1.993622254e-12
9.498222447e-06
6.085698478e-12
-1.051115048e-13
9.498214675e-06
6.941664092e-12
2.331582494e-12
9.498209534e-06
7.757653446e-12
4.07273543e-12
9.498202778e-06
6.480104683e-12
5.753563271e-12
9.498196675e-06
9.404043763e-12
6.758094819e-12
9.061988665e-12
7.920027403e-12
9.498122492e-06
-2.384258195e-10
9.498177031e-06
-1.34729988e-10
-6.538606178e-11
9.498216264e-06
-1.156064105e-10
-6.347076713e-11
9.498228877e-06
-5.85862395e-11
-3.436246168e-11
9.498221762e-06
-2.351271507e-11
-1.467204309e-11
9.498207252e-06
-4.780474661e-12
-4.638071424e-12
9.498197188e-06
8.051544475e-12
2.460063057e-12
9.498188623e-06
1.229660387e-11
5.431876523e-12
9.498180966e-06
1.221055229e-11
4.783842774e-12
9.498175926e-06
1.107082151e-11
6.699018501e-12
9.498170351e-06
1.076396987e-11
5.418666101e-12
9.498168307e-06
1.074718211e-11
6.546653374e-12
9.498168225e-06
1.011679132e-11
6.148554217e-12
9.498163723e-06
1.109479477e-11
8.595225029e-12
1.179725723e-11
9.297977027e-12
9.4983573e-06
-1.351649912e-10
-1.378635657e-10
9.498336933e-06
-1.03958039e-10
-1.051393799e-10
9.498286963e-06
-3.409349688e-11
-3.657596254e-11
9.498242934e-06
2.67982531e-13
-1.289700562e-12
9.498214466e-06
1.189296303e-11
1.066193173e-11
9.498197249e-06
1.513112252e-11
1.400769992e-11
9.498192372e-06
1.506506483e-11
1.359318909e-11
9.498193942e-06
1.264138413e-11
1.128978115e-11
9.498198973e-06
1.258762992e-11
1.102507622e-11
9.498201936e-06
1.012085772e-11
8.297380355e-12
9.498208661e-06
9.408429406e-12
7.230293908e-12
9.498213906e-06
8.974567986e-12
7.388454262e-12
9.498219824e-06
1.240843801e-11
1.261872043e-11
1.173706568e-11
1.159097672e-11
9.498349287e-06
-4.39478017e-11
7.728612857e-11
9.498251698e-06
-4.49539478e-11
-6.920052248e-11
9.498176792e-06
-1.196961148e-11
1.272883925e-11
9.498133929e-06
2.521850287e-12
4.085108877e-11
9.498121464e-06
6.713714121e-12
3.699372254e-11
9.498124554e-06
4.496537354e-12
3.002455586e-11
9.498133854e-06
4.47345202e-12
2.153330511e-11
9.498150456e-06
4.98067358e-12
1.631894756e-11
9.498163365e-06
3.30864569e-12
1.108157931e-11
9.498175973e-06
2.148531236e-12
8.280582523e-12
9.498186555e-06
2.706254088e-12
7.724000653e-12
9.49819645e-06
3.290986889e-12
7.239884997e-12
9.498208667e-06
3.720425395e-12
1.150478492e-11
3.601757619e-12
1.081310734e-11
9.498588669e-06
4.466477969e-11
4.047851553e-10
9.498284614e-06
4.733362332e-11
1.195808644e-10
9.498161216e-06
1.225120311e-11
8.4871459e-11
9.498119013e-06
-2.130644348e-12
7.670294061e-11
9.498113839e-06
-3.906186403e-12
4.485915832e-11
9.498129705e-06
-5.470618359e-12
2.703812271e-11
9.498146e-06
-5.191531152e-12
1.56435781e-11
9.498164173e-06
-3.489131415e-12
1.005693425e-11
9.498179554e-06
-3.099113851e-12
5.28604255e-12
9.498191717e-06
-2.848073414e-12
5.335911518e-12
9.498203625e-06
-1.693851904e-12
5.435891695e-12
9.498214339e-06
-3.235052265e-12
5.448936995e-12
9.498228392e-06
-4.970437088e-12
1.058683309e-11
-4.02831424e-12
1.231678233e-11
9.498341684e-06
1.361164849e-10
7.616770235e-11
9.498240047e-06
1.0420925e-10
-7.177467925e-11
9.498167659e-06
3.478499874e-11
1.089202846e-11
9.498126559e-06
7.802994843e-13
4.191082986e-11
9.498111713e-06
-1.073493034e-11
3.650210417e-11
9.498117401e-06
-1.404771762e-11
3.209908362e-11
9.498127881e-06
-1.339551953e-11
2.365565294e-11
9.498142805e-06
-1.153127245e-11
1.667477738e-11
9.498157905e-06
-1.171648626e-11
1.322657215e-11
9.498170519e-06
-9.926132234e-12
9.430463007e-12
9.498180226e-06
-1.007051982e-11
7.382250694e-12
9.498191672e-06
-8.512873146e-12
6.894550948e-12
9.498205555e-06
-1.136346758e-11
1.199287115e-11
-1.111529762e-11
1.329759447e-11
9.498354567e-06
1.343389332e-10
-1.362465749e-10
9.498331332e-06
1.143518057e-10
-1.047569452e-10
9.498281058e-06
6.010575477e-11
-3.642374837e-11
9.498238496e-06
2.411832489e-11
-7.419666968e-13
9.498207076e-06
3.775476943e-12
9.328341998e-12
9.498192805e-06
-4.97125329e-12
1.463426066e-11
9.498185881e-06
-1.095712477e-11
1.460367877e-11
9.49818419e-06
-1.310191945e-11
1.239035898e-11
9.498189965e-06
-1.191144237e-11
1.27610198e-11
9.498198516e-06
-1.023959932e-11
9.416513224e-12
9.498202606e-06
-1.17421976e-11
7.758586225e-12
9.498207718e-06
-1.038821051e-11
8.822360463e-12
9.498213345e-06
-1.207203027e-11
1.141501449e-11
-1.185735179e-11
1.094095112e-11
9.498169003e-06
7.551913824e-11
-6.229053746e-11
9.498210727e-06
6.745178942e-11
-6.064193145e-11
9.498219873e-06
4.02729993e-11
-3.423946292e-11
9.498213676e-06
2.059408619e-11
-1.417660371e-11
9.498201846e-06
7.677648669e-12
-4.076757027e-12
9.498190014e-06
-9.129920405e-13
2.442002753e-12
9.498180988e-06
-4.44653845e-12
5.706317634e-12
9.498173349e-06
-5.243530994e-12
6.721251484e-12
9.49816971e-06
-5.640282065e-12
6.679181914e-12
9.498167617e-06
-7.54124263e-12
6.731683006e-12
9.498165936e-06
-6.5534516e-12
6.973001089e-12
9.498164658e-06
-7.00492059e-12
5.727769501e-12
9.498159633e-06
-8.99145445e-12
7.778175009e-12
-7.929310606e-12
8.544280781e-12
9.498157653e-06
-5.411916452e-11
9.49821846e-06
-4.934160396e-11
9.498252586e-06
-3.255343772e-11
9.498266212e-06
-1.82589262e-11
9.498268632e-06
-1.029934374e-11
9.498264641e-06
-3.914348091e-12
9.498256782e-06
4.977449905e-13
9.498248767e-06
1.569035649e-12
9.498241623e-06
3.124042422e-12
9.498236217e-06
4.823339439e-12
9.4982296e-06
4.538386299e-12
9.498223292e-06
4.475110478e-12
9.498214552e-06
7.366143248e-12
7.071458337e-12
9.498109916e-06
-2.644145699e-10
-1.191850817e-10
9.498161193e-06
-6.416687073e-11
-4.272437607e-11
9.498214143e-06
-7.277902187e-11
-3.051203428e-11
9.498237457e-06
-3.536972014e-11
-1.771220903e-11
9.498239402e-06
-1.01793593e-11
-9.189745172e-12
9.498233725e-06
3.434343603e-12
-4.216586571e-12
9.498223264e-06
9.917034305e-12
-2.089254913e-12
9.498213568e-06
1.205180325e-11
-7.166450705e-13
9.498205806e-06
1.155422848e-11
7.851632573e-13
9.498198161e-06
1.200486273e-11
1.087282069e-12
9.498190744e-06
9.538832266e-12
1.334100223e-12
9.498187806e-06
8.727587914e-12
2.908014931e-12
9.498182315e-06
7.316220968e-12
8.832562038e-13
9.498178059e-06
1.033237003e-11
2.090624821e-12
9.837934099e-12
1.7546135e-12
9.498229528e-06
-6.426501245e-10
-2.448191061e-10
9.498203098e-06
-6.684598552e-11
-3.807579324e-11
9.498215777e-06
-1.113230413e-10
-3.301163263e-11
9.498205799e-06
-3.95132634e-11
-1.613333221e-11
9.498184079e-06
2.581688133e-12
-6.259336565e-12
9.498167253e-06
1.753731444e-11
-1.987691748e-12
9.498157199e-06
2.321442741e-11
8.449804432e-13
9.498150954e-06
2.253214112e-11
2.186122295e-12
9.498151561e-06
2.006231811e-11
2.55979704e-12
9.498151243e-06
1.55804164e-11
1.320115295e-12
9.498150553e-06
1.280068595e-11
1.110756523e-12
9.498153377e-06
1.127670831e-11
3.019708321e-12
9.498158522e-06
1.111666923e-11
2.186818544e-12
9.498160599e-06
1.519660512e-11
2.625692673e-12
1.460231454e-11
2.242375708e-12
9.49858493e-06
-7.305798573e-10
9.498349773e-06
7.807568492e-11
-4.623749871e-11
9.498249723e-06
-6.841594619e-11
-4.722662283e-11
9.498177817e-06
1.328864575e-11
-1.172145705e-11
9.498136105e-06
4.188349982e-11
4.24033506e-12
9.498123645e-06
3.709445397e-11
4.790562908e-12
9.498126232e-06
3.066770203e-11
5.283242489e-12
9.498138283e-06
2.40460954e-11
4.540792236e-12
9.498153732e-06
1.779211209e-11
3.607381963e-12
9.498166143e-06
1.305196778e-11
2.320858798e-12
9.498178618e-06
9.646805071e-12
1.4307916e-12
9.498190082e-06
9.045084482e-12
3.726295624e-12
9.498201972e-06
8.761262606e-12
2.15796403e-12
9.498211231e-06
1.083300631e-11
1.570154875e-12
1.121166492e-11
1.669707498e-12
9.497916712e-06
4.270506134e-10
4.251173049e-10
9.49787146e-06
-4.633410309e-11
-4.642360027e-11
9.497891055e-06
4.667571434e-12
2.957421427e-12
9.497933628e-06
2.410509215e-11
2.13988445e-11
9.497987537e-06
1.485937134e-11
1.41950585e-11
9.498035038e-06
8.210866063e-12
8.745171164e-12
9.498073329e-06
4.719222944e-12
4.988990893e-12
9.498105085e-06
3.395519773e-12
2.60194604e-12
9.498128542e-06
2.388417601e-12
3.168710414e-12
9.498146785e-06
2.108079333e-12
1.442889056e-13
9.498162538e-06
1.596054696e-12
7.969124736e-13
9.498176217e-06
1.826387892e-12
8.853123927e-14
9.49819133e-06
3.632141042e-12
2.281825046e-12
5.616085547e-12
4.093887259e-12
9.497897957e-06
-4.28192851e-10
2.933077559e-09
9.497843307e-06
4.561364215e-11
9.249230593e-11
9.497951502e-06
-5.245564028e-12
-7.239198299e-12
9.498049544e-06
-2.223202304e-11
2.229103086e-11
9.498122763e-06
-1.345427502e-11
2.934693582e-12
9.49817427e-06
-5.969550785e-12
-2.85268605e-12
9.498210034e-06
-3.496569031e-12
-2.114549138e-12
9.498231815e-06
-8.605709274e-13
-2.835852197e-12
9.498249818e-06
1.996922507e-13
-2.91593245e-13
9.498260433e-06
-1.943525678e-13
-1.141631059e-12
9.498272315e-06
-1.892844477e-12
-3.926350413e-13
9.498282765e-06
-3.311431011e-12
-1.127366905e-12
9.498300188e-06
-4.180455938e-12
1.379098149e-12
-4.541501962e-12
-8.660486223e-13
9.497947312e-06
-7.695638998e-11
4.261597529e-10
9.497901475e-06
7.068222778e-11
-4.54993649e-11
9.497921834e-06
-1.391023231e-11
3.749906089e-12
9.497960624e-06
-4.286546554e-11
2.06113179e-11
9.498014527e-06
-3.658887169e-11
1.252430692e-11
9.498062025e-06
-3.08570137e-11
8.156618868e-12
9.498102659e-06
-2.290877663e-11
5.399409373e-12
9.498132991e-06
-1.662433839e-11
2.644806322e-12
9.498157755e-06
-1.224945047e-11
1.488716396e-12
9.498175961e-06
-1.07543437e-11
5.769678586e-13
9.498190355e-06
-9.1667698e-12
1.846741437e-13
9.498207284e-06
-6.981701997e-12
2.066013569e-12
9.498224587e-06
-1.196567414e-11
2.833273737e-12
-1.30598243e-11
3.292906295e-12
9.49831695e-06
6.719177112e-11
-4.529083616e-11
9.498211303e-06
1.113811076e-10
-4.676921947e-11
9.498141569e-06
4.091654368e-11
-1.044716526e-11
9.498099035e-06
-1.148477372e-12
2.792759172e-12
9.498083393e-06
-1.667088318e-11
4.073750976e-12
9.498087701e-06
-2.123924586e-11
4.877263611e-12
9.498099781e-06
-2.143168225e-11
5.146093154e-12
9.49811322e-06
-1.954929716e-11
3.223307257e-12
9.498124099e-06
-1.777602451e-11
2.048671756e-12
9.498138537e-06
-1.255778805e-11
2.249421055e-12
9.498151121e-06
-1.161029242e-11
3.144908122e-12
9.498159497e-06
-1.252297666e-11
1.499943328e-12
9.498171813e-06
-1.606005372e-11
3.597543492e-12
-1.475696868e-11
3.019943317e-12
9.498229246e-06
6.313486375e-11
-3.791264973e-11
9.498240241e-06
7.158267993e-11
-3.171704669e-11
9.498230296e-06
3.548746661e-11
-1.669906128e-11
9.498210356e-06
1.080099813e-11
-7.62674961e-12
9.498194198e-06
-2.476330246e-12
-1.565480781e-12
9.498183423e-06
-8.706260522e-12
4.817462442e-13
9.498177335e-06
-1.116137673e-11
1.232442539e-12
9.498172492e-06
-1.123722659e-11
8.818050649e-13
9.498175174e-06
-8.963551639e-12
2.208933758e-12
9.49817633e-06
-8.618766302e-12
6.643615937e-13
9.498178932e-06
-9.322625573e-12
1.86333617e-12
9.498183905e-06
-7.739388921e-12
2.982327873e-12
9.498187041e-06
-9.008944956e-12
3.941622341e-12
-8.986806791e-12
3.006581487e-12
9.49816947e-06
-4.207278969e-11
9.498222858e-06
-2.91102788e-11
9.498246515e-06
-1.853105735e-11
9.498247904e-06
-9.33310531e-12
9.498242479e-06
-3.838268915e-12
9.498230878e-06
-1.4198071e-12
9.498218351e-06
-7.246942495e-13
9.498210908e-06
1.127116983e-12
9.498202163e-06
-5.07170828e-15
9.498194297e-06
-3.763721509e-13
9.498194234e-06
1.720932107e-12
9.498192743e-06
2.807778052e-12
9.498186013e-06
1.41904701e-12
2.620488383e-12
9.498189504e-06
-6.649623917e-10
1.180536742e-10
9.49823291e-06
-1.297204784e-10
4.157737596e-11
9.498264643e-06
-8.810929119e-11
2.874202824e-11
9.498264961e-06
-3.266719553e-11
1.605781337e-11
9.498251535e-06
-3.666390995e-12
8.845990172e-12
9.498235677e-06
7.32379895e-12
5.348099519e-12
9.498221905e-06
1.281008187e-11
2.444710349e-12
9.498209862e-06
1.451926157e-11
1.524941415e-12
9.498200144e-06
1.242036917e-11
-9.620607587e-14
9.49819431e-06
1.138602099e-11
-5.978787047e-13
9.498188999e-06
8.498179523e-12
-2.396045811e-12
9.498184182e-06
8.052895587e-12
-3.835328768e-12
9.49818276e-06
7.616987461e-12
-3.715578953e-12
9.498179293e-06
1.057800952e-11
-3.040400758e-12
9.958223713e-12
-2.227499018e-12
9.498481988e-06
-1.919345589e-09
2.433304542e-10
9.498370653e-06
-9.321320108e-11
3.593119983e-11
9.498312233e-06
-9.054168155e-11
3.163009551e-11
9.498264515e-06
-1.698564796e-11
1.465129384e-11
9.498228371e-06
2.432725486e-11
6.244352827e-12
9.498208056e-06
2.795543344e-11
3.039937523e-12
9.498197103e-06
2.689372437e-11
5.03517493e-13
9.498189119e-06
2.20959738e-11
-1.452732314e-12
9.498189663e-06
1.77900418e-11
-8.683156242e-13
9.498191012e-06
1.429754018e-11
-1.093965549e-12
9.498194979e-06
1.18177592e-11
-2.122487258e-12
9.49819561e-06
1.073331797e-11
-4.32102914e-12
9.498202271e-06
1.040748266e-11
-4.469850736e-12
9.498205204e-06
1.464904071e-11
-3.929389584e-12
1.394167951e-11
-2.942121994e-12
9.499143053e-06
-5.189192929e-09
7.281129761e-10
9.498556792e-06
4.046898406e-10
4.421339363e-11
9.498253869e-06
1.212958709e-10
4.613917224e-11
9.498131815e-06
8.443682315e-11
1.17067171e-11
9.498084368e-06
7.470445304e-11
-5.414708489e-12
9.498082911e-06
4.585495351e-11
-6.182942003e-12
9.498092981e-06
2.829618635e-11
-5.945937955e-12
9.498111995e-06
1.737889061e-11
-4.529390925e-12
9.498130297e-06
1.228681087e-11
-2.30773954e-12
9.498146313e-06
9.698311132e-12
-1.307953267e-12
9.498161262e-06
5.348730151e-12
-1.855094418e-12
9.498170415e-06
5.184184283e-12
-3.822109198e-12
9.498182269e-06
6.523226053e-12
-2.818081562e-12
9.498194842e-06
1.174719988e-11
-3.083510306e-12
1.263008674e-11
-2.455706543e-12
9.499565514e-06
1.431824732e-09
9.497895992e-06
2.935692834e-09
-4.279344245e-10
9.497838551e-06
9.259169422e-11
4.480085503e-11
9.497948352e-06
-5.717096459e-12
-4.460415693e-12
9.498050216e-06
2.479728108e-11
-2.249417496e-11
9.498120382e-06
3.20380559e-12
-1.453953448e-11
9.498170247e-06
-3.163704882e-12
-8.264573635e-12
9.498207057e-06
-2.018205526e-12
-4.580462005e-12
9.498230457e-06
-2.857063285e-12
-2.931412808e-12
9.498245663e-06
-1.266564656e-12
-2.305071551e-12
9.498260187e-06
5.899768185e-13
-2.322208557e-12
9.498271965e-06
8.844279326e-13
-2.982983266e-12
9.498281219e-06
-3.951479727e-13
-8.457215176e-13
9.498298553e-06
3.019864122e-12
-2.695023947e-12
9.138466524e-13
-4.004865543e-12
9.563406958e-06
-2.934793814e-09
-2.935488618e-09
9.563855288e-06
-9.264460961e-11
-9.317301787e-11
9.563906791e-06
6.1859826e-12
6.360709687e-12
9.564073243e-06
-2.40370757e-11
-2.448751261e-11
9.564157021e-06
-4.705032862e-12
-3.816403801e-12
9.564214959e-06
3.343266476e-12
1.793267572e-12
9.564268159e-06
3.460414109e-12
3.122783134e-12
9.564323641e-06
4.189905192e-12
3.340646209e-12
9.564379505e-06
1.412767086e-12
4.812142271e-13
9.564440123e-06
7.670017576e-13
-2.130728397e-13
9.564505731e-06
-9.013749219e-13
-1.388633507e-13
9.564574286e-06
-7.306139194e-13
3.546383872e-13
9.564652276e-06
-3.053775746e-12
-2.009518504e-12
-9.574551017e-13
-7.927386617e-13
9.497887777e-06
-4.047762665e-10
-4.267457918e-10
9.49782887e-06
-1.197488274e-10
4.516146534e-11
9.497940134e-06
-8.474591763e-11
-3.86142612e-12
9.498039412e-06
-7.763169946e-11
-2.170110736e-11
9.498114324e-06
-4.451762311e-11
-1.281420993e-11
9.498161903e-06
-2.835236676e-11
-7.704677088e-12
9.498196225e-06
-1.721005352e-11
-3.277085751e-12
9.498218122e-06
-1.149820776e-11
-3.9606506e-12
9.498235542e-06
-7.329502402e-12
-2.486755816e-12
9.49824551e-06
-5.892548186e-12
-1.968656213e-12
9.49825661e-06
-5.721705254e-12
-1.405000998e-12
9.498268911e-06
-5.936504505e-12
-2.264276124e-12
9.498285692e-06
-1.066405602e-11
-4.368753704e-12
-1.200619778e-11
-4.984362878e-12
9.498551819e-06
9.31904887e-11
4.494884619e-11
9.498245466e-06
9.082314968e-11
4.6573496e-11
9.498120636e-06
1.574581405e-11
1.23459873e-11
9.498079618e-06
-2.400895143e-11
-2.186513109e-12
9.498075065e-06
-2.645492998e-11
-3.853082838e-12
9.498088676e-06
-2.426329465e-11
-4.063418989e-12
9.498104878e-06
-2.124096134e-11
-2.344655822e-12
9.498121159e-06
-1.826123405e-11
-2.788368732e-12
9.49813563e-06
-1.499991124e-11
-3.422177561e-12
9.498149194e-06
-1.230910962e-11
-2.04741969e-12
9.498161997e-06
-1.183330384e-11
-1.834592531e-12
9.498175186e-06
-1.029081414e-11
-2.918448396e-12
9.498185889e-06
-1.39635026e-11
-5.254681168e-12
-1.353306726e-11
-4.673668352e-12
9.498356087e-06
1.316457055e-10
3.73970345e-11
9.498294369e-06
8.888460257e-11
3.240792058e-11
9.498249179e-06
3.340914873e-11
1.694365e-11
9.498216709e-06
6.600866741e-12
8.143906164e-12
9.498195761e-06
-5.159063645e-12
2.383382954e-12
9.49818261e-06
-1.01735766e-11
-1.120050355e-12
9.498176927e-06
-1.19050566e-11
-1.686112407e-12
9.4981781e-06
-9.128092022e-12
-7.752204977e-13
9.498177957e-06
-1.000482676e-11
-3.511577626e-12
9.498182257e-06
-9.321308548e-12
-1.271020659e-12
9.498188311e-06
-8.933933708e-12
-1.359505286e-12
9.498194635e-06
-7.21847087e-12
-3.078424485e-12
9.498197405e-06
-1.106362862e-11
-5.264660846e-12
-8.723378336e-12
-4.756928022e-12
9.498229345e-06
4.311018981e-11
9.498259727e-06
3.138618328e-11
9.498263003e-06
2.042354538e-11
9.4982486e-06
9.420787773e-12
9.498233051e-06
4.960525918e-12
9.498215099e-06
1.227125251e-12
9.498203468e-06
5.541057405e-13
9.498191369e-06
-1.490836642e-12
9.498185097e-06
-1.722165318e-12
9.498179719e-06
-4.696447887e-13
9.498176989e-06
-1.395738401e-12
9.498174174e-06
-3.514118377e-12