/*--------------------------------*- C++ -*----------------------------------*\
| =========                 |                                                 |
| \\      /  F ield         | OpenFOAM: The Open Source CFD Toolbox           |
|  \\    /   O peration     | Version:  4.x                                   |
|   \\  /    A nd           | Web:      www.OpenFOAM.org                      |
|    \\/     M anipulation  |                                                 |
\*---------------------------------------------------------------------------*/
FoamFile
{
    version     2.0;
    format      ascii;
    class       volScalarField;
    location    "3000";
    object      rhoeps;
}
// * * * * * * * * * * * * * * * * * * * * * * * * * * * * * * * * * * * * * //

dimensions      [1 -3 0 0 0 0 0];

internalField   nonuniform List<scalar> 
1174
(
0.2797549697
0.2797554635
0.2797561861
0.2797571147
0.2797582727
0.2797596458
0.2797611533
0.2797627572
0.2797644575
0.2797661636
0.2797678716
0.2797695268
0.2797710877
0.2797723158
0.2797557486
0.2797565571
0.2797576681
0.2797590419
0.2797605872
0.2797623067
0.2797640716
0.2797658787
0.2797677438
0.2797695035
0.279771207
0.2797728378
0.2797743004
0.2797754242
0.2797563666
0.279757884
0.279759701
0.2797617562
0.2797639583
0.279766145
0.2797683212
0.2797704392
0.2797723928
0.2797741925
0.2797758356
0.2797773032
0.279778606
0.2797795669
0.2797586221
0.2797608599
0.2797634971
0.2797663103
0.2797690393
0.279771665
0.279774112
0.2797762701
0.2797782051
0.2797799077
0.2797813473
0.2797826304
0.279783728
0.2797844851
0.2797590576
0.2797617453
0.2797646915
0.2797677274
0.2797706363
0.2797733416
0.2797757522
0.2797779363
0.2797798168
0.2797814251
0.2797827916
0.2797839057
0.2797848813
0.2797855524
0.279757426
0.279759701
0.2797622739
0.2797650664
0.2797678149
0.2797704709
0.2797729178
0.2797750802
0.2797770083
0.2797787149
0.2797802321
0.2797815136
0.2797825692
0.2797833232
0.2797568043
0.2797582533
0.2797600243
0.2797621067
0.2797643168
0.2797665405
0.279768689
0.2797707809
0.2797727316
0.2797745621
0.2797762092
0.2797777137
0.2797789631
0.2797798547
0.2797557259
0.2797565728
0.2797576669
0.2797590085
0.2797605605
0.279762257
0.2797640642
0.2797659045
0.2797677206
0.2797694961
0.2797711817
0.2797727747
0.2797742586
0.2797754331
0.2797542376
0.2797547615
0.2797555117
0.2797564403
0.2797575841
0.2797589423
0.2797604268
0.2797620394
0.2797637056
0.2797654255
0.2797671376
0.279768792
0.2797703406
0.2797715795
0.2797554076
0.2797559684
0.2797567618
0.2797578768
0.2797592231
0.2797607743
0.2797624839
0.2797642867
0.2797661229
0.2797679286
0.2797697166
0.2797714146
0.279773058
0.2797745207
0.2797756645
0.2797561545
0.2797576355
0.2797594142
0.2797613617
0.2797634416
0.2797655496
0.2797676323
0.2797695713
0.2797714251
0.2797731073
0.2797746853
0.2797761666
0.2797774135
0.2797783823
0.2797588397
0.2797616352
0.2797647176
0.2797678022
0.2797706926
0.2797732708
0.2797755714
0.2797775158
0.2797791341
0.2797805207
0.2797816709
0.279782631
0.2797834191
0.2797840336
0.2797643181
0.2797690291
0.2797734978
0.2797774214
0.2797806462
0.2797832127
0.2797851808
0.2797866856
0.2797878512
0.2797886615
0.2797892581
0.2797896809
0.2797899168
0.2797901322
0.2797685634
0.2797742021
0.2797790342
0.279782872
0.2797858365
0.2797880069
0.2797895205
0.2797905732
0.2797912326
0.279791643
0.2797918834
0.2797920123
0.2797920146
0.2797919712
0.2797648504
0.2797695498
0.279774043
0.2797779415
0.2797811846
0.2797837332
0.2797856808
0.2797872126
0.2797882941
0.2797891393
0.2797897239
0.2797901454
0.2797904094
0.2797905354
0.279758354
0.2797611881
0.2797642581
0.2797673212
0.2797702461
0.279772827
0.2797751187
0.2797770556
0.2797786575
0.2797800471
0.2797812347
0.2797822059
0.2797830612
0.279783656
0.2797572894
0.2797587267
0.2797605044
0.2797624554
0.2797645457
0.2797666412
0.2797686729
0.2797706336
0.2797724653
0.2797741621
0.2797756955
0.2797771397
0.2797783991
0.2797793397
0.2797546774
0.2797555188
0.279756682
0.2797580378
0.2797595936
0.2797612487
0.2797630522
0.2797648977
0.2797667164
0.2797685074
0.2797702439
0.2797718541
0.2797733222
0.2797744881
0.2797555945
0.279756675
0.2797581454
0.2797599716
0.279761998
0.2797641769
0.2797663975
0.2797685865
0.2797706653
0.279772628
0.279774456
0.2797761007
0.2797775393
0.2797788213
0.2797798
0.279756583
0.2797588231
0.2797616126
0.2797647082
0.2797677461
0.2797706225
0.2797732027
0.279775488
0.2797773802
0.2797790372
0.2797803769
0.2797815601
0.2797825527
0.2797833697
0.2797839117
0.2797684334
0.279774412
0.2797798296
0.2797842593
0.2797876649
0.2797900977
0.2797917194
0.2797927656
0.2797933709
0.2797936777
0.2797937101
0.2797936097
0.2797934378
0.2797932846
0.2797861179
0.2797962198
0.2798032121
0.2798073881
0.2798093429
0.2798098235
0.2798092727
0.279808215
0.279806839
0.2798054289
0.2798039436
0.2798025334
0.2798012786
0.2798002693
0.2798100498
0.2798201634
0.2798246011
0.2798254025
0.2798241936
0.2798219973
0.2798193224
0.2798165648
0.2798138851
0.2798113541
0.2798090347
0.2798069224
0.2798051009
0.2798037041
0.2797858399
0.2797959579
0.2798029732
0.2798071251
0.2798090963
0.2798095766
0.2798090901
0.2798080105
0.2798066465
0.2798052143
0.2798037681
0.2798023565
0.2798010379
0.2798000983
0.2797683189
0.2797742986
0.27977969
0.2797841652
0.2797875617
0.2797899775
0.2797916219
0.2797926259
0.2797931726
0.2797934872
0.2797935534
0.2797934855
0.2797933324
0.2797931749
0.2797585272
0.2797613873
0.2797644398
0.2797674957
0.2797703918
0.279773002
0.2797752358
0.2797772234
0.2797788958
0.2797802686
0.2797814397
0.2797824352
0.2797832136
0.2797838238
0.2797571348
0.2797586145
0.2797604126
0.279762489
0.2797646778
0.2797669075
0.2797691381
0.2797711901
0.2797731379
0.2797749606
0.2797766387
0.2797781028
0.2797793931
0.2797803943
0.2797560877
0.2797578335
0.2797600976
0.2797627344
0.2797655196
0.2797682916
0.2797709249
0.2797733414
0.2797755324
0.2797775007
0.2797791954
0.2797806589
0.2797819748
0.2797830248
0.2797837858
0.2797591954
0.2797634995
0.2797681611
0.2797726288
0.2797765846
0.2797798523
0.279782372
0.2797843525
0.2797858926
0.2797870372
0.2797878552
0.2797884697
0.279788861
0.279789129
0.2797893183
0.2797738164
0.2797861606
0.2797962982
0.2798032761
0.2798074447
0.2798093893
0.2798098993
0.2798093664
0.279808264
0.2798068966
0.2798054363
0.279803936
0.2798025782
0.2798013224
0.2798003381
0.2798471233
0.2798599117
0.2798621325
0.2798585907
0.2798524385
0.2798454729
0.2798386032
0.2798323155
0.2798266755
0.2798217533
0.2798174603
0.2798138108
0.2798107571
0.2798085079
0.2799721906
0.2799564445
0.2799320522
0.2799086037
0.2798886375
0.2798723341
0.279859174
0.2798485416
0.279839876
0.2798327792
0.2798268743
0.279822033
0.2798180199
0.2798151546
0.2798479869
0.279860754
0.2798629608
0.2798593836
0.2798532079
0.2798462832
0.2798394645
0.2798331936
0.2798276175
0.2798226622
0.2798183873
0.2798147077
0.2798116163
0.2798093723
0.2797850717
0.2797951886
0.2798022048
0.2798063424
0.2798082655
0.2798087402
0.2798082291
0.2798071811
0.2798057934
0.2798043284
0.2798028457
0.2798014683
0.2798001664
0.2797991598
0.2797642238
0.2797689188
0.27977342
0.2797773382
0.2797805714
0.2797831305
0.2797851581
0.279786644
0.2797877479
0.2797885353
0.2797891676
0.2797895397
0.2797898946
0.2797900822
0.2797580207
0.2797603056
0.2797629626
0.2797657168
0.2797685108
0.2797711221
0.2797735606
0.279775755
0.2797777016
0.2797794216
0.2797808392
0.2797821244
0.2797831952
0.2797839579
0.2797568283
0.2797590451
0.2797617179
0.2797647062
0.279767734
0.2797706792
0.2797733561
0.2797757779
0.2797779521
0.2797798205
0.2797814614
0.2797828099
0.279783941
0.2797848959
0.2797855612
0.2797634891
0.2797695129
0.2797751741
0.2797800152
0.2797838395
0.279786743
0.2797888444
0.2797903767
0.2797914011
0.2797920897
0.2797924916
0.2797927445
0.2797928537
0.2797928898
0.2797928775
0.279791329
0.2798091943
0.2798192759
0.2798236598
0.2798244704
0.2798232209
0.2798210002
0.2798183373
0.2798155316
0.2798128375
0.2798103334
0.2798080012
0.2798059156
0.2798040956
0.2798027813
0.2799501961
0.2799721487
0.2799564353
0.2799319914
0.2799085018
0.2798885355
0.2798722496
0.2798590687
0.2798484325
0.2798397733
0.279832689
0.2798268341
0.2798219515
0.279817967
0.2798150773
0.2824367442
0.2821683239
0.282020415
0.2819344673
0.2818819201
0.2818481478
0.2818254747
0.2818096705
0.2817983538
0.2817900402
0.2817839132
0.2817793339
0.2817760858
0.2817743334
0.2799718537
0.2799560768
0.2799316875
0.2799082502
0.2798882949
0.2798719629
0.2798587813
0.2798481394
0.2798394638
0.2798323458
0.2798265171
0.2798216048
0.2798176222
0.2798147563
0.2798090128
0.2798190704
0.2798234225
0.2798241909
0.279823014
0.2798207945
0.2798181059
0.2798153161
0.2798126044
0.2798100654
0.2798077305
0.2798056603
0.2798038494
0.2798025138
0.2797690234
0.2797746811
0.2797794967
0.2797833437
0.2797862574
0.2797884249
0.2797899619
0.2797910253
0.2797917832
0.2797921885
0.2797924744
0.2797926074
0.2797926368
0.2797926017
0.2797589377
0.2797616336
0.2797645844
0.2797676046
0.2797704969
0.2797731928
0.2797756073
0.2797777733
0.2797796107
0.2797812271
0.2797825699
0.2797837177
0.279784631
0.2797853308
0.2797561916
0.2797579198
0.2797602
0.2797628223
0.2797655697
0.2797683098
0.2797709091
0.2797733266
0.2797755239
0.2797774428
0.2797791743
0.2797806133
0.2797818561
0.2797829024
0.2797836405
0.2797605639
0.2797648901
0.2797695891
0.2797740778
0.2797780008
0.2797812198
0.2797838099
0.2797858125
0.2797872958
0.2797883869
0.2797891903
0.2797897345
0.2797901025
0.279790355
0.2797905141
0.2797728941
0.2797852107
0.2797952973
0.2798022647
0.279806418
0.2798084103
0.2798088519
0.2798083252
0.2798072749
0.2798059157
0.2798044714
0.279803062
0.2798016901
0.2798004334
0.27979943
0.2798196161
0.2798481946
0.2798610168
0.2798632315
0.2798596622
0.2798534698
0.2798465177
0.2798396719
0.2798333518
0.279827754
0.2798228094
0.2798185108
0.2798148222
0.2798117294
0.2798094999
0.2799499149
0.2799718833
0.2799561775
0.2799317213
0.2799082862
0.2798882842
0.2798720053
0.2798588519
0.2798482294
0.2798395955
0.2798324963
0.2798266697
0.279821788
0.2798178144
0.2798149459
0.2798190503
0.2798476293
0.279860452
0.2798626173
0.2798590343
0.2798528502
0.2798458979
0.2798390849
0.2798327014
0.2798271212
0.2798222012
0.2798179435
0.2798142762
0.2798111896
0.2798089383
0.2797862443
0.2797963508
0.2798033308
0.2798074936
0.2798094956
0.2798099304
0.2798094842
0.279808425
0.2798070626
0.2798056435
0.2798041726
0.2798027734
0.2798014644
0.2798005053
0.2797636434
0.2797683639
0.2797727679
0.2797766949
0.2797799306
0.2797825273
0.2797845189
0.2797860649
0.2797872045
0.2797880217
0.2797885834
0.2797889635
0.2797892487
0.2797894055
0.2797575768
0.279759868
0.2797624755
0.279765261
0.2797680112
0.2797706234
0.2797730173
0.279775193
0.2797771746
0.2797788948
0.2797803993
0.2797816681
0.2797827614
0.2797835262
0.2797551054
0.2797561619
0.2797575958
0.2797594104
0.2797614923
0.2797637078
0.279765875
0.2797680565
0.2797701786
0.2797721187
0.2797739416
0.279775599
0.2797770882
0.2797783692
0.2797793002
0.2797567887
0.2797590629
0.2797618732
0.2797649677
0.2797680254
0.2797709472
0.2797735169
0.2797757621
0.2797776753
0.2797792835
0.2797806457
0.2797818066
0.279782794
0.2797836039
0.2797841848
0.2797613805
0.2797671218
0.2797731376
0.2797785842
0.2797830395
0.279786463
0.2797888665
0.2797905713
0.2797915839
0.2797921573
0.2797924393
0.279792485
0.2797924272
0.2797923465
0.2797921789
0.2797726687
0.2797850093
0.2797950993
0.2798021197
0.2798062994
0.2798082777
0.2798087832
0.2798082838
0.2798072598
0.2798059623
0.2798045134
0.2798030231
0.2798016045
0.279800337
0.2797993889
0.279791934
0.2798098001
0.2798199
0.2798242467
0.2798250363
0.2798238315
0.2798216053
0.2798189411
0.2798162042
0.2798134869
0.279810924
0.27980858
0.2798064951
0.2798046674
0.2798032756
0.2797730556
0.2797853474
0.2797954662
0.2798024624
0.2798065824
0.2798085626
0.2798090024
0.2798085292
0.2798074617
0.2798061264
0.2798046735
0.2798031819
0.2798017374
0.2798005091
0.2797996385
0.279761254
0.2797669353
0.2797728831
0.2797783336
0.2797828035
0.279786218
0.2797886117
0.2797902341
0.2797912708
0.2797918461
0.2797921145
0.2797921363
0.2797920759
0.2797919192
0.2797917513
0.2797600634
0.2797629037
0.2797659996
0.2797690692
0.2797719751
0.2797745567
0.2797768048
0.2797787087
0.2797803592
0.279781775
0.2797829789
0.2797839347
0.2797847337
0.2797853374
0.2797562234
0.2797576842
0.279759472
0.2797614949
0.279763722
0.2797659682
0.2797681539
0.2797702708
0.2797722181
0.279774002
0.2797755997
0.2797770891
0.279778393
0.2797794112
0.279755442
0.2797560472
0.2797568469
0.2797579468
0.279759281
0.2797608441
0.2797625408
0.2797643215
0.2797661687
0.2797679339
0.2797697166
0.2797714188
0.2797730283
0.2797744949
0.2797756915
0.2797557855
0.2797568183
0.2797582768
0.2797600641
0.2797620875
0.2797642007
0.2797663578
0.2797684379
0.2797704267
0.2797722233
0.279773997
0.279775574
0.2797770407
0.2797783288
0.2797792696
0.2797571374
0.2797594065
0.2797622731
0.2797653557
0.2797683993
0.2797712587
0.2797738625
0.2797761482
0.2797780752
0.2797797059
0.2797810561
0.2797822002
0.2797831725
0.2797839869
0.2797845455
0.2797604463
0.2797647973
0.2797694676
0.2797739584
0.2797778484
0.2797811344
0.2797837122
0.2797857068
0.2797871936
0.2797883068
0.2797891291
0.2797897016
0.2797900803
0.2797903585
0.2797905393
0.2797623245
0.2797683072
0.2797740187
0.2797788426
0.27978267
0.2797855516
0.2797876823
0.2797892368
0.2797902948
0.2797909881
0.2797913983
0.2797916568
0.2797918027
0.2797918366
0.2797918558
0.27976084
0.2797651649
0.2797698739
0.2797743849
0.2797783499
0.2797815768
0.2797841167
0.2797861182
0.2797876329
0.2797887638
0.2797895456
0.2797901632
0.2797906137
0.2797908792
0.2797910848
0.2797570135
0.2797592831
0.2797621546
0.2797651918
0.2797682511
0.2797711171
0.2797736911
0.2797759476
0.279777897
0.2797795372
0.2797809312
0.2797821213
0.2797831141
0.2797839288
0.2797845124
0.279755606
0.2797566449
0.2797580513
0.2797597887
0.2797617656
0.279763807
0.2797659479
0.2797680144
0.2797699987
0.2797718108
0.2797734703
0.2797750314
0.2797764391
0.2797776765
0.2797786459
0.2797551104
0.279755953
0.2797570635
0.279758401
0.2797599754
0.2797616874
0.2797635021
0.2797653297
0.2797671498
0.2797689242
0.2797706414
0.2797722488
0.2797736937
0.2797747888
0.27975414
0.2797544751
0.2797550025
0.2797557045
0.2797566358
0.279757778
0.279759156
0.2797606402
0.2797622753
0.2797639306
0.2797656327
0.2797673384
0.2797690029
0.2797705564
0.2797718209
0.279754434
0.2797550066
0.2797558696
0.2797569487
0.2797583475
0.279759867
0.2797615854
0.2797633828
0.2797651766
0.279766994
0.279768768
0.2797705003
0.2797721078
0.2797735726
0.2797746916
0.2797548987
0.2797559975
0.2797574786
0.2797593284
0.2797613981
0.2797635758
0.2797658259
0.2797679919
0.2797700623
0.2797719968
0.2797738384
0.2797754785
0.2797769678
0.2797782221
0.2797791771
0.279757401
0.2797591341
0.2797614026
0.2797640161
0.2797667441
0.2797695559
0.2797721822
0.2797745831
0.2797767319
0.2797787142
0.2797804152
0.279781878
0.2797831136
0.2797841196
0.279784907
0.2797576222
0.2797598183
0.2797625811
0.2797655393
0.2797685671
0.2797714368
0.2797741126
0.2797765858
0.2797787722
0.2797806403
0.2797822636
0.2797836101
0.2797846996
0.2797856497
0.2797862928
0.2797568101
0.2797585876
0.279760856
0.2797634339
0.2797661881
0.2797689385
0.2797716173
0.2797740395
0.2797762081
0.2797781251
0.2797798139
0.279781293
0.2797825715
0.2797836225
0.2797844129
0.2797559036
0.2797569576
0.2797583943
0.2797601876
0.2797622597
0.2797644649
0.2797666512
0.2797688356
0.2797709058
0.2797728558
0.2797746909
0.2797763171
0.2797777825
0.2797790802
0.2797800624
0.2797556317
0.2797561702
0.279756985
0.2797581064
0.2797594812
0.279760988
0.2797626831
0.2797644775
0.279766299
0.2797680924
0.2797698569
0.2797715672
0.2797732305
0.2797747136
0.2797758167
0.2797548556
0.2797551556
0.2797556807
0.2797564192
0.2797573489
0.2797585206
0.2797598813
0.2797613753
0.2797629983
0.279764704
0.2797663918
0.279768081
0.2797697497
0.2797713133
0.2797725384
)
;

boundaryField
{
    top
    {
        type            calculated;
        value           nonuniform List<scalar> 
127
(
0.2797548556
0.2797542376
0.2797546774
0.2797571348
0.2797580207
0.2797589377
0.2797575768
0.2797562234
0.2797551104
0.2797551556
0.2797547615
0.2797555188
0.2797586145
0.2797603056
0.2797616336
0.279759868
0.2797576842
0.279755953
0.2797556807
0.2797555117
0.279756682
0.2797604126
0.2797629626
0.2797645844
0.2797624755
0.279759472
0.2797570635
0.2797564192
0.2797564403
0.2797580378
0.279762489
0.2797657168
0.2797676046
0.279765261
0.2797614949
0.279758401
0.2797573489
0.2797575841
0.2797595936
0.2797646778
0.2797685108
0.2797704969
0.2797680112
0.279763722
0.2797599754
0.2797585206
0.2797589423
0.2797612487
0.2797669075
0.2797711221
0.2797731928
0.2797706234
0.2797659682
0.2797616874
0.2797598813
0.2797604268
0.2797630522
0.2797691381
0.2797735606
0.2797756073
0.2797730173
0.2797681539
0.2797635021
0.2797613753
0.2797620394
0.2797648977
0.2797711901
0.279775755
0.2797777733
0.279775193
0.2797702708
0.2797653297
0.2797629983
0.2797637056
0.2797667164
0.2797731379
0.2797777016
0.2797796107
0.2797771746
0.2797722181
0.2797671498
0.279764704
0.2797654255
0.2797685074
0.2797749606
0.2797794216
0.2797812271
0.2797788948
0.279774002
0.2797689242
0.2797663918
0.2797671376
0.2797702439
0.2797766387
0.2797808392
0.2797825699
0.2797803993
0.2797755997
0.2797706414
0.279768081
0.279768792
0.2797718541
0.2797781028
0.2797821244
0.2797837177
0.2797816681
0.2797770891
0.2797722488
0.2797697497
0.2797703406
0.2797733222
0.2797793931
0.2797831952
0.279784631
0.2797827614
0.279778393
0.2797736937
0.2797713133
0.2797715795
0.2797744881
0.2797803943
0.2797839579
0.2797853308
0.2797835262
0.2797794112
0.2797747888
0.2797725384
)
;
    }
    bottom
    {
        type            calculated;
        value           nonuniform List<scalar> 
134
(
0.2797554076
0.2797555945
0.2797560877
0.2797568283
0.2797561916
0.2797551054
0.279755442
0.27975414
0.2797549697
0.2797559684
0.279756675
0.2797578335
0.2797590451
0.2797579198
0.2797561619
0.2797560472
0.2797544751
0.2797554635
0.2797567618
0.2797581454
0.2797600976
0.2797617179
0.2797602
0.2797575958
0.2797568469
0.2797550025
0.2797561861
0.2797578768
0.2797599716
0.2797627344
0.2797647062
0.2797628223
0.2797594104
0.2797579468
0.2797557045
0.2797571147
0.2797592231
0.279761998
0.2797655196
0.279767734
0.2797655697
0.2797614923
0.279759281
0.2797566358
0.2797582727
0.2797607743
0.2797641769
0.2797682916
0.2797706792
0.2797683098
0.2797637078
0.2797608441
0.279757778
0.2797596458
0.2797624839
0.2797663975
0.2797709249
0.2797733561
0.2797709091
0.279765875
0.2797625408
0.279759156
0.2797611533
0.2797642867
0.2797685865
0.2797733414
0.2797757779
0.2797733266
0.2797680565
0.2797643215
0.2797606402
0.2797627572
0.2797661229
0.2797706653
0.2797755324
0.2797779521
0.2797755239
0.2797701786
0.2797661687
0.2797622753
0.2797644575
0.2797679286
0.279772628
0.2797775007
0.2797798205
0.2797774428
0.2797721187
0.2797679339
0.2797639306
0.2797661636
0.2797697166
0.279774456
0.2797791954
0.2797814614
0.2797791743
0.2797739416
0.2797697166
0.2797656327
0.2797678716
0.2797714146
0.2797761007
0.2797806589
0.2797828099
0.2797806133
0.279775599
0.2797714188
0.2797673384
0.2797695268
0.279773058
0.2797775393
0.2797819748
0.279783941
0.2797818561
0.2797770882
0.2797730283
0.2797690029
0.2797710877
0.2797745207
0.2797788213
0.2797830248
0.2797848959
0.2797829024
0.2797783692
0.2797744949
0.2797705564
0.2797723158
0.2797756645
0.2797798
0.2797837858
0.2797855612
0.2797836405
0.2797793002
0.2797756915
0.2797718209
)
;
    }
    side-walls
    {
        type            calculated;
        value           nonuniform List<scalar> 
261
(
0.2797549697
0.2797557486
0.2797563666
0.2797586221
0.2797590576
0.279757426
0.2797568043
0.2797557259
0.2797542376
0.2797554635
0.2797565571
0.279757884
0.2797608599
0.2797617453
0.279759701
0.2797582533
0.2797565728
0.2797547615
0.2797561861
0.2797576681
0.279759701
0.2797634971
0.2797646915
0.2797622739
0.2797600243
0.2797576669
0.2797555117
0.2797571147
0.2797590419
0.2797617562
0.2797663103
0.2797677274
0.2797650664
0.2797621067
0.2797590085
0.2797564403
0.2797582727
0.2797605872
0.2797639583
0.2797690393
0.2797706363
0.2797678149
0.2797643168
0.2797605605
0.2797575841
0.2797596458
0.2797623067
0.279766145
0.279771665
0.2797733416
0.2797704709
0.2797665405
0.279762257
0.2797589423
0.2797611533
0.2797640716
0.2797683212
0.279774112
0.2797757522
0.2797729178
0.279768689
0.2797640642
0.2797604268
0.2797627572
0.2797658787
0.2797704392
0.2797762701
0.2797779363
0.2797750802
0.2797707809
0.2797659045
0.2797620394
0.2797644575
0.2797677438
0.2797723928
0.2797782051
0.2797798168
0.2797770083
0.2797727316
0.2797677206
0.2797637056
0.2797661636
0.2797695035
0.2797741925
0.2797799077
0.2797814251
0.2797787149
0.2797745621
0.2797694961
0.2797654255
0.2797678716
0.279771207
0.2797758356
0.2797813473
0.2797827916
0.2797802321
0.2797762092
0.2797711817
0.2797671376
0.2797695268
0.2797728378
0.2797773032
0.2797826304
0.2797839057
0.2797815136
0.2797777137
0.2797727747
0.279768792
0.2797710877
0.2797743004
0.279778606
0.279783728
0.2797848813
0.2797825692
0.2797789631
0.2797742586
0.2797703406
0.2797723158
0.2797754242
0.2797795669
0.2797844851
0.2797855524
0.2797833232
0.2797798547
0.2797754331
0.2797715795
0.27975414
0.279754434
0.2797548987
0.279757401
0.2797576222
0.2797568101
0.2797559036
0.2797556317
0.2797548556
0.2797544751
0.2797550066
0.2797559975
0.2797591341
0.2797598183
0.2797585876
0.2797569576
0.2797561702
0.2797551556
0.2797550025
0.2797558696
0.2797574786
0.2797614026
0.2797625811
0.279760856
0.2797583943
0.279756985
0.2797556807
0.2797557045
0.2797569487
0.2797593284
0.2797640161
0.2797655393
0.2797634339
0.2797601876
0.2797581064
0.2797564192
0.2797566358
0.2797583475
0.2797613981
0.2797667441
0.2797685671
0.2797661881
0.2797622597
0.2797594812
0.2797573489
0.279757778
0.279759867
0.2797635758
0.2797695559
0.2797714368
0.2797689385
0.2797644649
0.279760988
0.2797585206
0.279759156
0.2797615854
0.2797658259
0.2797721822
0.2797741126
0.2797716173
0.2797666512
0.2797626831
0.2797598813
0.2797606402
0.2797633828
0.2797679919
0.2797745831
0.2797765858
0.2797740395
0.2797688356
0.2797644775
0.2797613753
0.2797622753
0.2797651766
0.2797700623
0.2797767319
0.2797787722
0.2797762081
0.2797709058
0.279766299
0.2797629983
0.2797639306
0.279766994
0.2797719968
0.2797787142
0.2797806403
0.2797781251
0.2797728558
0.2797680924
0.279764704
0.2797656327
0.279768768
0.2797738384
0.2797804152
0.2797822636
0.2797798139
0.2797746909
0.2797698569
0.2797663918
0.2797673384
0.2797705003
0.2797754785
0.279781878
0.2797836101
0.279781293
0.2797763171
0.2797715672
0.279768081
0.2797690029
0.2797721078
0.2797769678
0.2797831136
0.2797846996
0.2797825715
0.2797777825
0.2797732305
0.2797697497
0.2797705564
0.2797735726
0.2797782221
0.2797841196
0.2797856497
0.2797836225
0.2797790802
0.2797747136
0.2797713133
0.2797718209
0.2797746916
0.2797791771
0.279784907
0.2797862928
0.2797844129
0.2797800624
0.2797758167
0.2797725384
)
;
    }
    inlet
    {
        type            calculated;
        value           nonuniform 0();
    }
    outlet
    {
        type            calculated;
        value           nonuniform List<scalar> 
81
(
0.2797723158
0.2797754242
0.2797795669
0.2797844851
0.2797855524
0.2797833232
0.2797798547
0.2797754331
0.2797715795
0.2797756645
0.2797783823
0.2797840336
0.2797901322
0.2797919712
0.2797905354
0.279783656
0.2797793397
0.2797744881
0.2797798
0.2797839117
0.2797932846
0.2798002693
0.2798037041
0.2798000983
0.2797931749
0.2797838238
0.2797803943
0.2797837858
0.2797893183
0.2798003381
0.2798085079
0.2798151546
0.2798093723
0.2797991598
0.2797900822
0.2797839579
0.2797855612
0.2797928775
0.2798027813
0.2798150773
0.2817743334
0.2798147563
0.2798025138
0.2797926017
0.2797853308
0.2797836405
0.2797905141
0.27979943
0.2798094999
0.2798149459
0.2798089383
0.2798005053
0.2797894055
0.2797835262
0.2797793002
0.2797841848
0.2797921789
0.2797993889
0.2798032756
0.2797996385
0.2797917513
0.2797853374
0.2797794112
0.2797756915
0.2797792696
0.2797845455
0.2797905393
0.2797918558
0.2797910848
0.2797845124
0.2797786459
0.2797747888
0.2797718209
0.2797746916
0.2797791771
0.279784907
0.2797862928
0.2797844129
0.2797800624
0.2797758167
0.2797725384
)
;
    }
    procBoundary1to0
    {
        type            processor;
        value           nonuniform List<scalar> 
97
(
0.2797546708
0.2797546708
0.2797551845
0.2797553133
0.2797568704
0.2797567937
0.2797556711
0.2797557604
0.2797551628
0.2797539127
0.2797550534
0.2797550918
0.2797550918
0.2797550918
0.2797566229
0.2797599524
0.2797625929
0.2797605113
0.279756089
0.279756212
0.2797541201
0.2797549927
0.279755071
0.2797627407
0.2797627407
0.2797627407
0.2797737732
0.2797922389
0.2797735029
0.2797625998
0.2797562341
0.2797560752
0.2797549507
0.2797559989
0.2797624903
0.2798185105
0.2798185105
0.2798185105
0.2799501753
0.2798193368
0.2797727514
0.2797599056
0.2797562974
0.2797552588
0.2797584518
0.2797675089
0.2798066665
0.2816409556
0.2816409556
0.2816409556
0.2799498761
0.2799498761
0.2797911829
0.2797630316
0.279756691
0.2797550826
0.2797573775
0.2797615863
0.2797774947
0.2798064308
0.2797768715
0.279773931
0.279773931
0.279773931
0.2797593266
0.2797558605
0.2797544014
0.2797552852
0.2797570761
0.2797613685
0.2797680995
0.2797617164
0.2797570222
0.2797577772
0.2797577772
0.2797577772
0.2797551519
0.2797551269
0.279755114
0.2797555656
0.2797572981
0.2797573214
0.2797577126
0.2797554655
0.2797549193
0.2797545241
0.2797545241
0.2797545241
0.2797539263
0.2797540704
0.2797542861
0.2797562624
0.27975613
0.2797556731
0.279755278
0.2797552911
0.2797547017
)
;
    }
}


// ************************************************************************* //
