/*--------------------------------*- C++ -*----------------------------------*\
| =========                 |                                                 |
| \\      /  F ield         | OpenFOAM: The Open Source CFD Toolbox           |
|  \\    /   O peration     | Version:  4.x                                   |
|   \\  /    A nd           | Web:      www.OpenFOAM.org                      |
|    \\/     M anipulation  |                                                 |
\*---------------------------------------------------------------------------*/
FoamFile
{
    version     2.0;
    format      ascii;
    class       volVectorField;
    location    "3000";
    object      U;
}
// * * * * * * * * * * * * * * * * * * * * * * * * * * * * * * * * * * * * * //

dimensions      [0 1 -1 0 0 0 0];

internalField   nonuniform List<vector> 
1174
(
(0.0110002287 -1.555168121e-08 -1.482447023e-08)
(0.01100026659 -1.388021893e-08 -1.523985448e-08)
(0.01100030179 -1.115470591e-08 -1.186432049e-08)
(0.01100030906 -6.705531624e-09 -7.339681638e-09)
(0.01100029663 -3.880440598e-09 -5.735750093e-09)
(0.01100026368 -2.895502603e-09 -4.172123626e-09)
(0.01100021447 -2.054711349e-09 -1.473319058e-09)
(0.0110001569 -2.767904273e-09 -2.57192273e-10)
(0.01100008786 8.237458958e-10 3.430671671e-10)
(0.01100001677 -1.163882717e-09 5.725127152e-09)
(0.0109999427 1.34126844e-09 4.442677393e-09)
(0.01099986664 2.264764793e-09 3.289807651e-09)
(0.01099980117 3.890185272e-09 6.223292846e-09)
(0.010999731 3.40861939e-09 4.413775792e-09)
(0.0110002402 -6.908900324e-08 -1.679565768e-08)
(0.01100025663 -6.357931753e-08 -1.841280361e-08)
(0.01100028193 -4.785145064e-08 -1.438618648e-08)
(0.01100026581 -3.301908966e-08 -1.025215993e-08)
(0.01100023095 -2.339877727e-08 -4.771784928e-09)
(0.01100017396 -1.420905843e-08 -3.526970434e-09)
(0.01100010746 -6.160167518e-09 6.651904351e-10)
(0.0110000373 -2.484803433e-09 2.474173329e-09)
(0.01099995878 1.506753426e-09 2.240480541e-09)
(0.01099988168 3.264565213e-09 3.566212055e-09)
(0.01099980706 4.999445716e-09 3.423415545e-09)
(0.01099973151 7.081360157e-09 3.400423328e-09)
(0.01099966906 8.504166239e-09 5.473312853e-09)
(0.01099960788 9.559126875e-09 5.169117676e-09)
(0.01100026342 -6.173024296e-08 -3.502183192e-08)
(0.01100024265 -6.170245382e-08 -3.438760728e-08)
(0.01100023715 -4.351260939e-08 -2.374048378e-08)
(0.01100017892 -2.830666759e-08 -1.324888779e-08)
(0.01100009913 -1.658278185e-08 -3.516816023e-09)
(0.01100001178 -8.053789902e-09 -8.004786267e-10)
(0.01099991918 -9.67736758e-10 1.880932159e-09)
(0.01099982508 2.43606994e-09 1.003916459e-09)
(0.01099973988 4.66352918e-09 8.274943401e-10)
(0.01099965986 4.349613668e-09 2.445129849e-09)
(0.01099958829 7.803205763e-09 2.72328609e-09)
(0.01099952022 5.42440099e-09 1.526954678e-09)
(0.01099946615 1.122931268e-08 2.244040606e-09)
(0.01099941274 1.259683279e-08 2.153202722e-09)
(0.01100027968 -9.740604259e-08 -1.980752918e-08)
(0.01100017692 -6.812344966e-08 -3.379958408e-08)
(0.01100013609 -3.927460889e-08 -1.862898007e-08)
(0.01100003225 -2.103007026e-08 -6.552301826e-09)
(0.01099992152 -1.156279832e-08 -1.119872319e-09)
(0.01099980889 -4.44056815e-09 6.191593787e-09)
(0.01099969979 1.879782798e-10 7.357311105e-09)
(0.01099960317 2.514209419e-09 6.466938215e-09)
(0.01099951615 2.809476248e-09 4.785219223e-09)
(0.0109994412 4.615079135e-09 5.204023647e-09)
(0.01099937884 5.0844444e-09 4.156033505e-09)
(0.01099932154 5.75243863e-09 6.177806207e-09)
(0.01099928107 6.89281951e-09 6.54940482e-09)
(0.0109992419 7.582333494e-09 5.067180759e-09)
(0.01100036526 -1.267491371e-09 -5.451025538e-08)
(0.01100017882 5.401334648e-11 -4.239891286e-08)
(0.01100010231 -6.729233874e-10 -1.864617075e-08)
(0.0109999691 -5.351848395e-10 -4.039327951e-09)
(0.01099983643 1.658636822e-09 2.282209785e-09)
(0.0109997129 1.898342937e-09 4.953497695e-09)
(0.01099960034 1.389336134e-09 6.115882724e-09)
(0.010999503 1.140380774e-09 5.522190119e-09)
(0.0109994167 1.56510368e-10 5.119682855e-09)
(0.01099934982 1.482469221e-11 5.540938008e-09)
(0.01099928913 -1.052122128e-10 2.870863898e-09)
(0.01099924143 2.133537772e-09 1.369229656e-09)
(0.01099920372 3.124390073e-09 4.612259252e-09)
(0.01099917101 1.904122465e-09 1.871951446e-09)
(0.01100027811 9.821949375e-08 -1.92730365e-08)
(0.01100017321 6.893403425e-08 -3.33046402e-08)
(0.01100013756 3.893686232e-08 -1.702711687e-08)
(0.01100003464 2.177971101e-08 -5.50983148e-09)
(0.01099992237 1.225528982e-08 1.66204695e-09)
(0.01099980749 6.62483199e-09 5.342657261e-09)
(0.01099969888 1.254159887e-09 6.264016832e-09)
(0.01099960136 -1.789311336e-09 6.909532617e-09)
(0.01099951547 -3.708302996e-09 6.76877511e-09)
(0.01099944037 -5.101592709e-09 5.855234205e-09)
(0.01099937667 -4.55736374e-09 5.484551711e-09)
(0.01099932266 -5.827112099e-09 4.765044824e-09)
(0.01099928097 -5.330000377e-09 4.371288135e-09)
(0.0109992398 -7.03046641e-09 3.458259464e-09)
(0.01100026311 5.98307432e-08 -3.330518982e-08)
(0.01100023874 6.03111436e-08 -3.268997057e-08)
(0.01100023803 4.277155699e-08 -2.104495122e-08)
(0.01100017674 2.873432617e-08 -1.097049121e-08)
(0.01100009939 1.6272125e-08 -3.744158293e-09)
(0.01100000845 7.364142427e-09 1.007321305e-10)
(0.01099991571 1.096806343e-09 4.378797704e-09)
(0.01099982349 -9.88177695e-10 5.944538703e-09)
(0.01099973738 -4.695815115e-09 5.14013786e-09)
(0.01099965994 -5.979175015e-09 3.969879389e-09)
(0.01099958768 -7.739183362e-09 5.472189036e-09)
(0.0109995215 -7.413442684e-09 3.005138656e-09)
(0.01099946599 -1.218689294e-08 5.387527393e-09)
(0.01099941601 -1.121046689e-08 4.685492175e-09)
(0.0110002397 6.65942864e-08 -1.746183387e-08)
(0.01100025477 6.108761394e-08 -1.89487825e-08)
(0.01100028114 4.835786229e-08 -1.326835873e-08)
(0.01100026541 3.443014757e-08 -8.623941821e-09)
(0.01100023154 2.399069043e-08 -6.248334158e-09)
(0.01100017488 1.46167415e-08 -3.005672497e-09)
(0.01100010534 7.736376141e-09 -1.015152628e-10)
(0.01100003411 1.236223322e-09 2.228471882e-09)
(0.01099995367 -2.08075266e-09 1.287386371e-09)
(0.01099988112 -4.147947003e-09 1.845464644e-09)
(0.01099980838 -7.295233632e-09 1.469458091e-09)
(0.01099973361 -7.537907018e-09 1.569367673e-09)
(0.01099967033 -1.1284028e-08 3.624274195e-09)
(0.0109996035 -9.646917103e-09 2.896871735e-09)
(0.01100022934 1.567326135e-08 -1.522450912e-08)
(0.01100026396 1.488345396e-08 -1.715700271e-08)
(0.01100030357 1.064078216e-08 -1.261450335e-08)
(0.01100030968 8.739578168e-09 -7.527810323e-09)
(0.01100029535 6.003563243e-09 -7.496637443e-09)
(0.01100026177 3.911605899e-09 -3.676997377e-09)
(0.0110002127 1.524494601e-09 -2.699829747e-09)
(0.01100015164 -2.389450356e-10 9.314352501e-10)
(0.01100008751 -2.811169704e-09 2.220212153e-09)
(0.01100001696 -7.658118017e-10 2.809321098e-09)
(0.01099994197 -2.407231712e-09 2.494750535e-09)
(0.0109998695 -4.068192199e-09 2.404918397e-09)
(0.01099980141 -4.552493027e-09 5.147327324e-09)
(0.01099973237 -4.048807507e-09 5.007607662e-09)
(0.01100011025 -4.136634455e-08 -1.049834848e-07)
(0.01100023907 -1.685027802e-08 -6.869519732e-08)
(0.01100025566 -1.659668496e-08 -6.394707386e-08)
(0.01100028284 -1.263070566e-08 -4.778702758e-08)
(0.01100026515 -7.319215146e-09 -3.219428998e-08)
(0.01100022983 -4.309909559e-09 -2.144234964e-08)
(0.01100017666 -1.287250986e-09 -1.312059818e-08)
(0.01100010794 3.706824256e-10 -5.963153014e-09)
(0.01100003543 2.160685165e-10 -1.166399965e-09)
(0.01099995908 3.444910548e-09 2.307823954e-09)
(0.01099988136 2.76478083e-09 3.615292553e-09)
(0.01099980835 3.007781926e-09 7.033526473e-09)
(0.01099973096 2.660991689e-09 8.163623843e-09)
(0.01099967051 5.913417482e-09 1.014021467e-08)
(0.01099960333 5.847476778e-09 9.61198229e-09)
(0.01100025449 -8.800259289e-08 -8.966348952e-08)
(0.01100021991 -8.166107477e-08 -8.340559239e-08)
(0.01100021448 -5.669703654e-08 -5.91311991e-08)
(0.0110001627 -3.702860875e-08 -3.79365239e-08)
(0.01100009069 -2.024390681e-08 -2.169937989e-08)
(0.0110000131 -9.691951889e-09 -8.966868606e-09)
(0.01099992482 -1.039567803e-09 -2.600404273e-09)
(0.01099984529 3.903062681e-09 4.421205281e-09)
(0.01099976484 5.767004758e-09 5.914537214e-09)
(0.01099969196 8.04877937e-09 6.268499452e-09)
(0.01099962092 1.000971212e-08 9.347024278e-09)
(0.01099955843 9.069131957e-09 9.686158322e-09)
(0.01099950636 1.091804186e-08 1.29504062e-08)
(0.01099945353 1.164145608e-08 1.283681378e-08)
(0.01100027409 -6.487175939e-08 -1.668875905e-07)
(0.01100012634 -7.728404691e-08 -1.410891795e-07)
(0.01100005848 -5.086503058e-08 -8.46755325e-08)
(0.01099992872 -2.381479848e-08 -4.270374581e-08)
(0.01099980316 -8.600799467e-09 -1.678488522e-08)
(0.01099968802 3.353803207e-09 5.227456884e-10)
(0.01099958528 8.211267263e-09 8.302672162e-09)
(0.01099949996 9.483040735e-09 1.200975319e-08)
(0.01099942875 1.007402703e-08 1.209415325e-08)
(0.01099937219 9.261509215e-09 1.206318037e-08)
(0.01099932035 8.918903466e-09 1.329349904e-08)
(0.01099928114 1.049626626e-08 1.238771896e-08)
(0.0109992494 1.312936473e-08 1.468890917e-08)
(0.01099922363 1.395719033e-08 1.387639585e-08)
(0.01100021782 -1.190194997e-07 -1.569776579e-07)
(0.01099985908 -8.072955575e-08 -1.569915591e-07)
(0.01099973047 -3.805483875e-08 -7.708305195e-08)
(0.01099954876 -1.289498245e-08 -2.391386484e-08)
(0.01099939568 -1.234388823e-09 1.588807287e-09)
(0.01099927903 5.120583012e-09 1.629034405e-08)
(0.01099919094 7.12465308e-09 1.926805097e-08)
(0.01099912822 7.276777022e-09 1.872064292e-08)
(0.0109990828 6.886981575e-09 1.939328385e-08)
(0.01099905315 5.298102173e-09 1.813718094e-08)
(0.01099902943 6.920767316e-09 1.761242214e-08)
(0.01099901853 6.938934726e-09 1.523108802e-08)
(0.01099901391 9.754163717e-09 1.885823535e-08)
(0.01099900661 8.812912121e-09 1.710918179e-08)
(0.01100034557 -6.468499412e-10 -2.859327653e-07)
(0.01099970977 6.377137854e-10 -1.900442263e-07)
(0.01099952212 1.560774475e-09 -7.044298924e-08)
(0.01099931999 3.632372371e-10 -1.03932525e-08)
(0.01099916914 1.043433111e-09 1.255574526e-08)
(0.01099906853 -3.050244615e-10 2.052391906e-08)
(0.01099899855 -1.031245263e-09 2.195666582e-08)
(0.01099895404 2.050632356e-09 2.03198795e-08)
(0.010998928 1.449354621e-10 1.946864128e-08)
(0.01099891718 1.00092772e-09 1.757566078e-08)
(0.01099890906 1.190450574e-09 1.490004248e-08)
(0.01099890638 9.418295084e-11 1.387625741e-08)
(0.01099891464 1.076667002e-09 1.73415857e-08)
(0.01099892165 -7.541108756e-10 1.618198809e-08)
(0.01100021472 1.192400437e-07 -1.55081227e-07)
(0.01099985645 8.007012645e-08 -1.546460411e-07)
(0.01099972766 3.820292405e-08 -7.288725022e-08)
(0.01099954558 1.32489063e-08 -2.333075663e-08)
(0.01099939414 2.605882225e-09 1.927850099e-09)
(0.01099927922 -2.099064454e-09 1.471904945e-08)
(0.01099919079 -5.602895436e-09 2.034429573e-08)
(0.01099912518 -6.60427001e-09 2.169568307e-08)
(0.01099908318 -7.725257451e-09 1.847809147e-08)
(0.01099905087 -8.817923568e-09 1.917336557e-08)
(0.01099903053 -6.594466044e-09 1.668065023e-08)
(0.01099901731 -7.27934641e-09 1.511612036e-08)
(0.01099901156 -8.385830534e-09 1.809435615e-08)
(0.01099900887 -7.729956574e-09 1.5715251e-08)
(0.01100027115 6.398232136e-08 -1.675976207e-07)
(0.01100012553 7.768030533e-08 -1.408419797e-07)
(0.01100005801 4.873270942e-08 -8.249770105e-08)
(0.01099993052 2.463884344e-08 -4.230068642e-08)
(0.01099980416 9.34490192e-09 -1.62536461e-08)
(0.01099968759 -2.465163118e-10 -1.091810535e-09)
(0.01099958399 -5.644966232e-09 8.854601669e-09)
(0.01099949784 -8.982702952e-09 1.25280708e-08)
(0.01099942636 -9.318177182e-09 1.25099256e-08)
(0.01099937128 -1.081260481e-08 1.464567172e-08)
(0.0109993233 -1.255501849e-08 1.317004229e-08)
(0.01099928178 -1.039696902e-08 1.290084593e-08)
(0.01099924933 -1.279704214e-08 1.414551489e-08)
(0.01099921943 -1.167265423e-08 1.363166748e-08)
(0.01100025129 8.710455503e-08 -8.829713069e-08)
(0.01100022013 8.122278163e-08 -8.262013998e-08)
(0.01100021658 5.751991089e-08 -5.732615309e-08)
(0.01100016252 3.852185573e-08 -3.695468173e-08)
(0.01100009102 2.077772783e-08 -2.140489529e-08)
(0.0110000103 8.804898029e-09 -8.468740272e-09)
(0.01099992485 1.736241611e-10 -1.517196815e-09)
(0.01099984086 -4.017668349e-09 3.581032419e-09)
(0.01099975988 -6.839710757e-09 7.638713056e-09)
(0.01099968806 -7.570248188e-09 8.947739487e-09)
(0.01099962331 -1.0211375e-08 9.660484484e-09)
(0.01099956049 -1.06652948e-08 1.00314294e-08)
(0.01099950835 -1.259496134e-08 1.180475492e-08)
(0.01099945651 -1.272052888e-08 1.189085929e-08)
(0.01100024107 1.674436264e-08 -6.839766542e-08)
(0.01100025701 1.728840009e-08 -6.289010528e-08)
(0.01100028144 1.271552258e-08 -4.630129575e-08)
(0.01100026744 7.964842685e-09 -3.296990478e-08)
(0.01100022892 6.324293107e-09 -2.269402417e-08)
(0.01100017237 1.374317379e-09 -1.411549698e-08)
(0.01100010809 -1.078565642e-09 -6.656292995e-09)
(0.01100003239 -3.123966912e-09 -1.210971081e-09)
(0.0109999564 -2.473650631e-09 3.914461274e-09)
(0.01099987981 -1.229793944e-09 3.447715302e-09)
(0.01099980697 -1.626778845e-09 7.280687953e-09)
(0.0109997316 -3.260010752e-09 7.891306324e-09)
(0.01099967342 -4.72072828e-09 1.064217278e-08)
(0.01099960543 -3.234380341e-09 9.171210011e-09)
(0.01100007867 -8.679233477e-08 -1.311459018e-07)
(0.01100026037 -3.033828763e-08 -6.192588653e-08)
(0.01100023888 -3.17332749e-08 -6.214868686e-08)
(0.01100023778 -1.841685047e-08 -4.483238045e-08)
(0.01100017897 -7.902262563e-09 -2.898500823e-08)
(0.01100010027 -5.619905449e-09 -1.616387657e-08)
(0.01100000967 1.424342139e-09 -6.192882886e-09)
(0.01099991617 4.33623365e-09 -2.058594887e-09)
(0.01099982612 5.63731876e-09 -1.102341501e-09)
(0.01099973868 5.575704929e-09 3.632372612e-09)
(0.01099965485 6.327832101e-09 5.546074512e-09)
(0.01099958797 6.877087847e-09 6.0799115e-09)
(0.01099951824 7.227637908e-09 9.473683497e-09)
(0.01099946691 9.009811971e-09 1.140674978e-08)
(0.01099940896 8.88710591e-09 1.292318692e-08)
(0.01100003896 -3.634714107e-07 -2.206110258e-07)
(0.01100027132 -1.658880338e-07 -6.492279646e-08)
(0.01100012608 -1.392306023e-07 -7.988482457e-08)
(0.01100005494 -8.205182472e-08 -5.023545137e-08)
(0.01099992949 -4.117540798e-08 -2.513549828e-08)
(0.01099980132 -1.672276882e-08 -1.166749244e-08)
(0.01099968785 1.658688731e-10 1.006839957e-09)
(0.01099958414 8.400370018e-09 6.34252166e-09)
(0.01099950177 1.140895831e-08 7.199745646e-09)
(0.01099942887 1.150373567e-08 9.295589618e-09)
(0.010999369 1.248325601e-08 8.085591151e-09)
(0.01099932111 1.283256463e-08 1.056031491e-08)
(0.01099928069 1.156634964e-08 1.188101497e-08)
(0.01099924591 1.347205579e-08 1.441557401e-08)
(0.01099921927 1.501750132e-08 1.285947034e-08)
(0.01100022461 -1.323670115e-07 -1.366577024e-07)
(0.0109997756 -1.37779252e-07 -1.391288094e-07)
(0.01099956299 -6.071212538e-08 -6.28500616e-08)
(0.01099931741 -1.423204404e-08 -1.567382147e-08)
(0.01099914402 7.606799603e-09 6.828281691e-09)
(0.01099902258 1.924627836e-08 1.855284479e-08)
(0.01099894584 2.10575004e-08 1.878638385e-08)
(0.01099890458 1.845156739e-08 1.805885515e-08)
(0.01099888511 1.798954581e-08 1.705304442e-08)
(0.01099887966 1.532102536e-08 1.451807871e-08)
(0.01099888253 1.472435665e-08 1.23601664e-08)
(0.01099889335 1.421679749e-08 1.267783878e-08)
(0.0109989078 1.793202818e-08 2.051316947e-08)
(0.01099892116 1.592109915e-08 1.579250374e-08)
(0.01099977103 -2.262825804e-07 4.0743165e-08)
(0.01099878435 -1.241197903e-07 -1.37549958e-07)
(0.01099852613 -3.098710515e-08 -2.367200528e-08)
(0.01099828091 1.006518954e-08 2.999400573e-08)
(0.01099817197 1.971413512e-08 3.996069406e-08)
(0.01099815198 1.88033319e-08 3.873320709e-08)
(0.01099818243 1.662232296e-08 3.431295634e-08)
(0.01099824098 1.381601102e-08 2.695254236e-08)
(0.01099831095 1.054532573e-08 1.934333904e-08)
(0.01099838187 8.620071686e-09 1.642678714e-08)
(0.01099845506 8.16470469e-09 1.377928627e-08)
(0.01099852253 9.444330013e-09 1.311559763e-08)
(0.01099858336 1.180303527e-08 1.74997607e-08)
(0.01099863937 1.011187573e-08 1.700361466e-08)
(0.01099967438 6.565831406e-10 2.803127848e-07)
(0.01099788679 2.732780581e-09 -9.091748453e-08)
(0.01099767225 6.999401277e-10 1.488621391e-08)
(0.01099755236 -8.098554031e-10 6.453357626e-08)
(0.01099757266 5.845357082e-10 5.417794253e-08)
(0.01099767197 -1.346277636e-09 4.288739601e-08)
(0.01099779681 -5.593775214e-10 2.985061833e-08)
(0.01099792667 1.15213221e-10 2.20128773e-08)
(0.01099805397 3.580619275e-10 1.631086316e-08)
(0.01099816777 -6.023210704e-10 1.318830854e-08)
(0.01099827161 -9.631217741e-11 1.035101283e-08)
(0.01099837154 -1.269310573e-10 1.202605042e-08)
(0.01099845108 -2.13744344e-09 1.762720872e-08)
(0.01099853064 2.089193379e-10 1.95719094e-08)
(0.01099976928 2.255184317e-07 3.898886415e-08)
(0.01099878602 1.239568235e-07 -1.393953178e-07)
(0.0109985218 3.141876095e-08 -2.609585772e-08)
(0.01099828156 -7.26678427e-09 2.962693612e-08)
(0.01099817056 -1.636763193e-08 3.906066076e-08)
(0.01099815258 -1.740246377e-08 4.141627427e-08)
(0.01099818076 -1.50274274e-08 3.402996984e-08)
(0.01099824062 -1.074742769e-08 2.798193303e-08)
(0.01099831154 -1.07402799e-08 2.182424431e-08)
(0.01099838337 -8.949945538e-09 1.518394095e-08)
(0.01099845443 -7.92164294e-09 1.325285439e-08)
(0.01099852165 -9.051332643e-09 1.206042118e-08)
(0.01099858456 -1.09464919e-08 1.760288992e-08)
(0.01099864448 -9.999025736e-09 1.805166137e-08)
(0.01100022476 1.343673406e-07 -1.342131874e-07)
(0.01099977524 1.380528184e-07 -1.387806105e-07)
(0.01099956194 6.200072995e-08 -6.308440682e-08)
(0.01099931968 1.517241361e-08 -1.555067321e-08)
(0.01099914136 -7.147174708e-09 5.398972179e-09)
(0.01099902151 -1.517523346e-08 1.678795152e-08)
(0.01099894534 -1.95271776e-08 2.022071956e-08)
(0.01099890101 -1.937551943e-08 1.885041889e-08)
(0.0109988837 -1.69643525e-08 1.894660799e-08)
(0.01099887839 -1.409566411e-08 1.560861427e-08)
(0.01099888373 -1.548320832e-08 1.323634257e-08)
(0.01099889332 -1.233012365e-08 1.37048336e-08)
(0.01099890314 -1.618919503e-08 1.651589765e-08)
(0.01099892009 -1.651939595e-08 1.520187843e-08)
(0.01100027256 1.655889324e-07 -6.234459508e-08)
(0.01100012685 1.389210293e-07 -7.697869778e-08)
(0.01100005773 8.228087872e-08 -4.895933157e-08)
(0.0109999297 4.174164047e-08 -2.504387138e-08)
(0.01099980333 1.695124418e-08 -1.045745181e-08)
(0.01099968719 1.352864343e-10 1.608212026e-10)
(0.01099958473 -7.420862324e-09 6.12669236e-09)
(0.01099949966 -1.064544603e-08 7.930995408e-09)
(0.01099942634 -1.235765075e-08 1.003554521e-08)
(0.01099936893 -1.240424362e-08 1.130730996e-08)
(0.01099932111 -1.393223215e-08 9.463430379e-09)
(0.01099928072 -1.371715564e-08 9.610586165e-09)
(0.01099924908 -1.517790995e-08 1.433238678e-08)
(0.01099921816 -1.523930476e-08 1.229728054e-08)
(0.01100026636 3.470221254e-08 -6.191355106e-08)
(0.01100024093 3.400330327e-08 -6.230637958e-08)
(0.01100023853 2.044083182e-08 -4.324218299e-08)
(0.01100017768 1.028743614e-08 -2.898213112e-08)
(0.01100010136 3.6778926e-09 -1.706799934e-08)
(0.01100000944 -1.083238378e-09 -8.237511022e-09)
(0.01099991332 -2.715205956e-09 -4.207219411e-10)
(0.01099982555 -4.867083482e-09 2.197387571e-09)
(0.01099973672 -3.600161795e-09 4.81931823e-09)
(0.01099965948 -5.841437628e-09 7.164466951e-09)
(0.01099958576 -3.693865162e-09 6.816509072e-09)
(0.01099952162 -3.900721145e-09 8.678142028e-09)
(0.01099946611 -6.264006301e-09 1.185223054e-08)
(0.01099941068 -4.703492838e-09 1.017076075e-08)
(0.01100006993 -1.244341766e-07 -2.161527384e-07)
(0.0110002784 -1.693551333e-08 -9.888653077e-08)
(0.01100017463 -3.28043621e-08 -6.839720806e-08)
(0.01100013641 -1.680318759e-08 -4.084542445e-08)
(0.01100003196 -5.184128598e-09 -2.1447184e-08)
(0.01099992266 3.455892164e-09 -1.093495832e-08)
(0.01099980661 5.437231569e-09 -4.526686076e-09)
(0.01099969817 8.543381565e-09 1.367667158e-10)
(0.01099960339 8.192083943e-09 3.048289479e-10)
(0.01099951457 8.719702385e-09 2.682193278e-10)
(0.01099944212 5.326043048e-09 2.153699535e-09)
(0.01099937725 5.225431171e-09 5.567135092e-09)
(0.01099932211 4.797567354e-09 5.031368339e-09)
(0.01099927765 6.849904552e-09 6.536390697e-09)
(0.01099923687 6.652609604e-09 7.910381634e-09)
(0.01100001439 -5.754061488e-07 -4.512440567e-07)
(0.01100021495 -1.560612665e-07 -1.203674528e-07)
(0.01099985634 -1.540894271e-07 -8.223429382e-08)
(0.01099972917 -7.320320666e-08 -4.19350715e-08)
(0.0109995457 -2.24769941e-08 -1.537551662e-08)
(0.01099939437 3.161234783e-09 -3.264668201e-09)
(0.01099927772 1.676500123e-08 3.776137408e-09)
(0.01099919076 2.031966389e-08 6.244515449e-09)
(0.01099912814 2.207955871e-08 5.934282617e-09)
(0.01099908332 1.929263805e-08 5.929022702e-09)
(0.01099905185 1.674362433e-08 6.2163762e-09)
(0.01099902762 1.595734894e-08 6.342066296e-09)
(0.01099901901 1.41975137e-08 5.882350543e-09)
(0.01099901196 1.885292148e-08 8.097318583e-09)
(0.01099900366 1.782022962e-08 8.007844712e-09)
(0.0109996248 -8.368984802e-07 -1.322506057e-06)
(0.01099976856 4.212475957e-08 -2.294252285e-07)
(0.01099878257 -1.365251991e-07 -1.266345815e-07)
(0.01099852248 -2.447333614e-08 -3.235092326e-08)
(0.01099827963 2.951418989e-08 7.837758853e-09)
(0.01099817209 4.046148905e-08 1.743051165e-08)
(0.01099815165 4.026017722e-08 1.762791401e-08)
(0.01099818109 3.449416156e-08 1.512868793e-08)
(0.01099824245 2.751657073e-08 1.166885253e-08)
(0.01099831119 2.06971638e-08 9.137269998e-09)
(0.01099838453 1.633165022e-08 7.149493341e-09)
(0.01099845774 1.404719886e-08 7.578659374e-09)
(0.01099852475 1.29410238e-08 6.317742425e-09)
(0.01099858422 1.709787794e-08 9.333930129e-09)
(0.01099863808 1.783295772e-08 8.515588209e-09)
(0.01099728975 2.944427134e-07 2.920093489e-07)
(0.01099558595 -3.109657274e-08 -3.202327476e-08)
(0.01099585422 4.055365008e-08 3.877116461e-08)
(0.01099599866 6.951391656e-08 6.667206914e-08)
(0.01099628704 5.025587214e-08 4.937511024e-08)
(0.01099662696 3.447452263e-08 3.347626239e-08)
(0.01099694467 2.284646726e-08 2.037654378e-08)
(0.01099723519 1.498926061e-08 1.363677691e-08)
(0.01099748494 1.022422547e-08 1.007031745e-08)
(0.01099770453 7.971310971e-09 4.683475712e-09)
(0.0109978903 7.011514784e-09 5.535590729e-09)
(0.01099805227 8.131913626e-09 5.509771077e-09)
(0.01099818369 1.159640571e-08 1.132331036e-08)
(0.01099830478 1.187762133e-08 1.035413704e-08)
(0.01099404422 -1.343952071e-09 2.016924185e-06)
(0.01099130744 -7.638405248e-10 4.225308385e-07)
(0.01099313266 6.6374386e-10 1.516091228e-07)
(0.01099416249 6.132402177e-10 1.120177821e-07)
(0.01099501468 5.785449762e-10 5.110747931e-08)
(0.01099573362 7.513194929e-10 2.137303203e-08)
(0.010996298 1.228603229e-09 9.054084293e-09)
(0.01099675023 2.195379355e-09 2.381136301e-09)
(0.01099711218 2.193738052e-09 1.770572029e-09)
(0.01099740465 1.076458935e-09 8.021990107e-10)
(0.01099765043 -3.68326149e-10 3.477320909e-09)
(0.01099785375 -9.157883684e-10 2.554925695e-09)
(0.01099802274 -9.403182843e-11 9.322846385e-09)
(0.01099816992 9.608368648e-10 8.132127092e-09)
(0.01099728935 -2.926418764e-07 2.923176804e-07)
(0.0109955884 3.309451479e-08 -3.277648383e-08)
(0.01099585498 -4.19824013e-08 3.888823706e-08)
(0.01099599954 -6.854922983e-08 6.607612866e-08)
(0.01099628802 -4.904942613e-08 4.833222184e-08)
(0.01099662675 -3.287032507e-08 3.441099163e-08)
(0.01099694497 -2.061705199e-08 2.254499535e-08)
(0.01099723405 -1.256052019e-08 1.328693437e-08)
(0.0109974821 -8.790895779e-09 1.045706219e-08)
(0.01099770302 -6.906198926e-09 7.244218074e-09)
(0.01099788707 -7.013028158e-09 5.417453484e-09)
(0.01099805207 -7.321002998e-09 6.322503265e-09)
(0.01099818588 -1.143551268e-08 1.130308572e-08)
(0.01099830686 -1.135646815e-08 1.163204755e-08)
(0.01099977108 -4.134669538e-08 -2.280538173e-07)
(0.01099878391 1.363601152e-07 -1.257230426e-07)
(0.01099852096 2.456194236e-08 -3.101807912e-08)
(0.01099828214 -2.911706409e-08 9.077091739e-09)
(0.01099817133 -3.835379772e-08 1.595368094e-08)
(0.01099815223 -3.8222008e-08 1.724888657e-08)
(0.01099818112 -3.430594552e-08 1.528241047e-08)
(0.01099823961 -2.878857362e-08 1.13526977e-08)
(0.01099830961 -2.147111606e-08 1.001966056e-08)
(0.01099838095 -1.655279915e-08 8.226207207e-09)
(0.01099845405 -1.455394713e-08 8.016661703e-09)
(0.01099852382 -1.385007761e-08 7.726446992e-09)
(0.01099858204 -1.925414177e-08 1.07480557e-08)
(0.01099864234 -1.976793291e-08 9.751678953e-09)
(0.01100021657 1.55011646e-07 -1.192550649e-07)
(0.01099985615 1.536789605e-07 -8.026201871e-08)
(0.01099972783 7.434289819e-08 -4.012801965e-08)
(0.01099954606 2.451374377e-08 -1.423462272e-08)
(0.01099939622 -2.393781392e-09 -1.947046253e-09)
(0.01099927959 -1.676913752e-08 4.062670135e-09)
(0.0109991871 -1.95183864e-08 6.21736046e-09)
(0.01099912753 -2.035354882e-08 6.937797353e-09)
(0.01099907919 -1.945554968e-08 6.991052849e-09)
(0.01099905152 -1.59182736e-08 5.644275494e-09)
(0.01099902866 -1.628039665e-08 7.162688424e-09)
(0.01099901861 -1.544995735e-08 6.385888362e-09)
(0.01099901124 -1.843340194e-08 8.410458369e-09)
(0.01099900755 -1.694056116e-08 8.056664597e-09)
(0.01100028153 1.788551815e-08 -9.657064242e-08)
(0.01100017524 3.310406284e-08 -6.781248107e-08)
(0.01100013732 1.727956222e-08 -4.171552396e-08)
(0.01100003607 4.488145771e-09 -2.116002714e-08)
(0.0109999218 -2.237701456e-09 -1.007007931e-08)
(0.01099980895 -5.28676387e-09 -3.955175754e-09)
(0.01099969789 -6.793471421e-09 3.35622775e-10)
(0.0109996008 -6.14680249e-09 2.645171066e-09)
(0.01099951562 -5.900067367e-09 2.952407104e-09)
(0.01099943735 -5.199383429e-09 3.895326013e-09)
(0.01099937485 -5.984964745e-09 5.988909853e-09)
(0.01099932483 -4.200130509e-09 4.909036768e-09)
(0.01099928115 -6.637275201e-09 5.340995222e-09)
(0.01099923863 -6.776508542e-09 6.289322666e-09)
(0.01100001176 -3.125349382e-07 -5.097859092e-10)
(0.01100036492 -4.743893168e-08 -1.215245909e-09)
(0.01100017932 -4.10289935e-08 -5.319003951e-10)
(0.01100010221 -1.474888147e-08 -9.567417487e-10)
(0.01099996738 -7.715776734e-11 -4.757885812e-10)
(0.0109998333 6.692701374e-09 2.131458093e-09)
(0.01099971198 9.028772393e-09 2.683810398e-10)
(0.01099959869 1.143402133e-08 -7.882901684e-10)
(0.01099950221 1.002620913e-08 7.091955082e-10)
(0.01099941857 9.540867277e-09 5.581563368e-10)
(0.01099934942 4.512159058e-09 -5.212771991e-10)
(0.01099929012 6.500239799e-09 -4.03445254e-10)
(0.01099924038 7.127209541e-09 -2.257996353e-09)
(0.01099920253 8.871876781e-09 -2.044144634e-10)
(0.01099917175 8.060660732e-09 -1.518057053e-10)
(0.01099987239 -1.448849028e-06 -1.091481648e-09)
(0.01100034273 -2.853147226e-07 -1.814853765e-09)
(0.01099970781 -1.882627854e-07 -1.639254193e-09)
(0.01099952023 -6.972522118e-08 5.156242334e-11)
(0.01099931671 -9.516261827e-09 7.298403253e-10)
(0.0109991682 1.133438186e-08 1.71368859e-09)
(0.0109990699 2.172025295e-08 3.827951019e-10)
(0.0109990001 2.358017235e-08 3.249843987e-10)
(0.010998955 2.148745804e-08 1.359168521e-09)
(0.0109989293 1.939964928e-08 -3.826181326e-10)
(0.01099891739 1.649726378e-08 -7.796619749e-10)
(0.01099890983 1.414868732e-08 -8.87133647e-10)
(0.01099891002 1.336301139e-08 -2.088178114e-09)
(0.01099891362 1.764730687e-08 -1.154539199e-09)
(0.01099892035 1.784238019e-08 -8.378914595e-10)
(0.01099877237 -2.965068634e-06 -1.957319875e-09)
(0.01099967117 2.80324458e-07 -1.176341616e-09)
(0.01099788491 -8.932069249e-08 -9.200230243e-10)
(0.01099767282 1.574561187e-08 -7.12353657e-10)
(0.0109975507 6.334030173e-08 3.638772705e-11)
(0.0109975742 5.418884141e-08 -5.787870295e-10)
(0.01099767185 4.363146085e-08 -4.763445285e-10)
(0.01099779581 3.117511513e-08 1.761234546e-10)
(0.01099792779 2.348313258e-08 1.108699969e-09)
(0.01099805412 1.801493437e-08 1.365826142e-09)
(0.01099817032 1.34124081e-08 -7.115439119e-10)
(0.01099827667 1.193235682e-08 -1.609111292e-10)
(0.01099837049 1.242213034e-08 -5.387869862e-10)
(0.01099845263 1.827768569e-08 -1.623578205e-09)
(0.01099852877 1.933033339e-08 3.927906756e-10)
(0.01099197174 -1.387465678e-05 1.429483637e-09)
(0.01099404033 2.01801198e-06 -2.381943592e-09)
(0.01099130504 4.238626022e-07 -1.190504848e-09)
(0.01099313041 1.528560001e-07 -1.39540673e-09)
(0.01099416477 1.133806283e-07 -6.02398581e-10)
(0.01099501667 5.244222118e-08 -1.927559713e-10)
(0.01099573325 2.262700122e-08 -3.14443189e-10)
(0.01099629664 1.029829407e-08 2.563148875e-10)
(0.01099675104 5.429739719e-09 4.431357748e-10)
(0.01099711134 4.974769766e-09 1.100670979e-09)
(0.01099740746 3.797896869e-09 -8.29408084e-10)
(0.01099764892 2.606657169e-09 -4.69195439e-10)
(0.01099785718 3.905522347e-09 -3.540088316e-10)
(0.01099802116 1.176431119e-08 8.266373624e-12)
(0.01099817224 9.383336237e-09 5.933687318e-11)
(0.01098457329 1.180433687e-09 -1.94487785e-09)
(0.01097906968 -8.046786342e-10 4.750223157e-10)
(0.01098732543 2.416448445e-10 -1.154868523e-09)
(0.01099105708 8.239408976e-11 -1.388714526e-09)
(0.01099315111 -3.769393151e-10 -1.760329378e-09)
(0.01099454993 -6.742059945e-11 -1.221602187e-09)
(0.0109954957 1.632244271e-09 5.876660305e-10)
(0.01099617581 4.145417623e-10 1.454432e-09)
(0.01099668103 -3.096405018e-10 7.246002405e-11)
(0.01099707136 -5.791916794e-10 -3.500954364e-10)
(0.01099738142 2.079271765e-10 -4.413593257e-10)
(0.01099764347 2.505067555e-10 -1.287786227e-11)
(0.01099783875 -4.456105307e-10 1.750085218e-10)
(0.01099803551 -7.605981922e-10 -1.66803234e-09)
(0.01099404242 -2.017755592e-06 -5.094990925e-10)
(0.01099130683 -4.237083632e-07 -4.006974638e-10)
(0.01099313187 -1.521772935e-07 4.716211649e-11)
(0.01099416306 -1.127822503e-07 -6.289343363e-10)
(0.01099501489 -5.202366098e-08 2.930898704e-10)
(0.01099573544 -2.20446896e-08 -2.45709228e-10)
(0.0109962981 -9.073435733e-09 2.090639688e-09)
(0.01099674965 -2.229557583e-09 1.793833353e-10)
(0.01099711201 -3.061908747e-09 -1.202530829e-09)
(0.01099740662 -1.929241763e-09 -1.388468918e-09)
(0.01099764662 -4.198649952e-09 -5.372943211e-10)
(0.01099785539 -4.742546845e-09 -3.615826536e-10)
(0.01099802042 -1.074578699e-08 -4.512677488e-10)
(0.0109981719 -8.634311155e-09 -4.782102559e-11)
(0.01099967147 -2.796662337e-07 -1.939247612e-10)
(0.01099788254 9.054637278e-08 2.575796932e-11)