/*--------------------------------*- C++ -*----------------------------------*\
| =========                 |                                                 |
| \\      /  F ield         | OpenFOAM: The Open Source CFD Toolbox           |
|  \\    /   O peration     | Version:  4.x                                   |
|   \\  /    A nd           | Web:      www.OpenFOAM.org                      |
|    \\/     M anipulation  |                                                 |
\*---------------------------------------------------------------------------*/
FoamFile
{
    version     2.0;
    format      ascii;
    class       volScalarField;
    location    "3000";
    object      X_CO2;
}
// * * * * * * * * * * * * * * * * * * * * * * * * * * * * * * * * * * * * * //

dimensions      [0 0 0 0 0 0 0];

internalField   nonuniform List<scalar> 
1174
(
0.004155626679
0.004158855289
0.004163419167
0.004169378112
0.004176670837
0.004185139146
0.004194558281
0.00420467305
0.004215223668
0.004225965071
0.004236670605
0.004247098306
0.004256820252
0.004264466601
0.004158663744
0.004163848044
0.00417075853
0.004179237975
0.004188996428
0.004199681145
0.004210932347
0.004222422965
0.004233876475
0.004245071363
0.00425583293
0.004265992057
0.004275222967
0.00428235482
0.00416537997
0.004174559686
0.004185928703
0.004198849152
0.004212629478
0.004226645412
0.004240403359
0.004253549826
0.004265859376
0.004277208523
0.004287544942
0.004296835157
0.004304929231
0.004310996406
0.004175234392
0.004189513651
0.004205923329
0.004223264991
0.004240537171
0.004257020902
0.004272263158
0.004286029513
0.004298246048
0.00430894096
0.004318203944
0.004326138284
0.004332753946
0.00433754887
0.004182283016
0.004199367466
0.004218021476
0.004236933264
0.004255149573
0.004272061415
0.004287334714
0.004300839914
0.004312584921
0.004322664738
0.004331219201
0.004338395383
0.004344258129
0.004348437548
0.004175234176
0.004189513704
0.004205922568
0.004223263982
0.004240536274
0.004257019507
0.004272261595
0.004286027851
0.00429824367
0.004308938742
0.004318202265
0.004326136206
0.0043327505
0.004337544867
0.004165379542
0.004174559023
0.004185927686
0.004198848591
0.00421262868
0.004226644035
0.004240401446
0.004253546912
0.004265856032
0.00427720535
0.004287541103
0.00429683117
0.004304924109
0.004310989978
0.004158663576
0.004163848109
0.004170758211
0.004179237311
0.004188995414
0.004199679727
0.004210930738
0.004222420852
0.00423387337
0.004245067585
0.004255828568
0.004265986309
0.004275217279
0.004282348997
0.004155626282
0.004158855083
0.004163419336
0.004169378002
0.004176670152
0.004185138067
0.004194556485
0.00420467072
0.004215220548
0.004225961523
0.004236666417
0.004247093016
0.004256814326
0.004264459783
0.004155167554
0.004158663957
0.004163847632
0.004170758191
0.004179237846
0.004188996032
0.004199680719
0.004210932233
0.004222422964
0.004233876364
0.004245071079
0.00425583273
0.004265991802
0.004275222834
0.004282354844
0.004165522212
0.004174643094
0.004185775427
0.004198252724
0.004211404018
0.004224663301
0.004237608134
0.004249953478
0.004261533159
0.004272263146
0.004282112876
0.004291054316
0.004298927326
0.004304882347
0.004182798269
0.004200553432
0.004219871482
0.004239119286
0.004257174013
0.004273420251
0.004287633352
0.00429983837
0.004310200874
0.004318945009
0.004326303387
0.004332477197
0.004337559802
0.004341222084
0.004213549263
0.004243118906
0.004271268502
0.004295888368
0.004316233485
0.004332394006
0.004344863554
0.004354271952
0.004361238799
0.004366309069
0.004369933944
0.004372472261
0.004374192993
0.004375234743
0.004242615408
0.004278229039
0.004308440203
0.004332442407
0.004350697789
0.004364121952
0.004373691676
0.004380287366
0.004384639004
0.004387329207
0.004388811025
0.00438943686
0.004389496012
0.004389290817
0.004213548351
0.004243118066
0.004271267468
0.004295886169
0.004316231462
0.004332391262
0.004344860332
0.004354268604
0.004361234588
0.004366304976
0.004369930099
0.004372468088
0.004374188986
0.00437522981
0.004182797135
0.004200552318
0.004219870069
0.004239116708
0.004257171309
0.004273417025
0.004287629399
0.004299834088
0.004310195439
0.004318939028
0.004326296818
0.004332470436
0.004337553501
0.004341214552
0.00416552149
0.004174642588
0.004185774473
0.004198251444
0.004211402843
0.004224661318
0.004237604309
0.004249949784
0.00426152893
0.004272257839
0.004282106384
0.00429104682
0.004298919565
0.004304873532
0.004158663519
0.004163847707
0.004170758287
0.004179237334
0.004188995571
0.004199678875
0.004210929893
0.004222419962
0.004233872029
0.004245065949
0.004255827096
0.004265985058
0.004275214937
0.004282346106
0.004158786401
0.0041653795
0.004174558957
0.004185928249
0.004198848884
0.004212629009
0.004226645315
0.004240403311
0.004253549457
0.004265858898
0.004277208518
0.004287544589
0.004296834595
0.004304928328
0.004310995657
0.004168476655
0.004182797522
0.004200552455
0.004219871461
0.004239118712
0.004257173189
0.004273420137
0.004287633593
0.004299838127
0.004310200667
0.004318943867
0.004326302652
0.004332477021
0.004337559999
0.004341221465
0.004233911539
0.004271446132
0.004305480014
0.004333428102
0.00435474506
0.004370029033
0.004380350313
0.004386851453
0.004390552657
0.004392285452
0.004392690186
0.004392248847
0.004391347159
0.004390421214
0.004347778497
0.00441130996
0.004455230142
0.004481257167
0.004493585951
0.00449646724
0.004493338654
0.00448669784
0.004478240255
0.00446906609
0.004459860946
0.004451068175
0.004443106566
0.004437002936
0.004497192017
0.004560570086
0.004587953376
0.004592971083
0.004585392243
0.004571383751
0.004554606335
0.004537151023
0.004520159528
0.004504218772
0.004489603369
0.004476449812
0.004465004885
0.004456440157
0.004347772774
0.004411304473
0.004455225211
0.004481251016
0.004493579436
0.004496460567
0.004493332406
0.004486690902
0.004478233315
0.004469058712
0.004459854472
0.00445106179
0.004443099572
0.004436996777
0.004233907248
0.004271442658
0.00430547575
0.004333423216
0.004354739208
0.004370022462
0.004380342968
0.00438684333
0.004390543659
0.004392276319
0.004392680675
0.004392239468
0.004391337457
0.00439041139
0.004182796921
0.004200551938
0.004219869439
0.00423911595
0.00425716953
0.004273414872
0.004287626753
0.004299831315
0.004310192873
0.004318935295
0.004326293057
0.004332466552
0.004337548207
0.004341210438
0.004165379474
0.004174558967
0.004185927546
0.004198847807
0.004212627104
0.004226642054
0.004240399121
0.004253543642
0.004265851815
0.004277200409
0.004287535519
0.004296824508
0.004304917598
0.004310984061
0.004164230189
0.004175233517
0.00418951267
0.004205922178
0.004223263644
0.004240536134
0.004257019598
0.004272261603
0.004286028383
0.004298245045
0.004308939937
0.004318203547
0.00432613773
0.004332752752
0.004337547487
0.004186380255
0.004213547511
0.004243116994
0.004271266782
0.004295886499
0.004316232258
0.004332392348
0.004344861792
0.004354270736
0.004361237452
0.00436630754
0.004369932839
0.004372471099
0.004374192176
0.004375233993
0.004270393495
0.004347774379
0.004411307148
0.004455228125
0.004481254662
0.004493584002
0.004496465979
0.004493337432
0.00448669613
0.004478238689
0.004469063648
0.004459859166
0.004451067151
0.004443105597
0.004437002699
0.004738768525
0.004819257878
0.00483305438
0.00481058336
0.004771832764
0.004728121377
0.004685207129
0.004645673886
0.004610421786
0.004579525633
0.004552704445
0.004529610781
0.004510201592
0.004496016671
0.005507732166
0.005408768205
0.005255442658
0.005108033008
0.004982577843
0.004880127828
0.004797425671
0.004730587468
0.004676213172
0.00463160209
0.004594700065
0.004564036071
0.004538915932
0.004520854224
0.004738748164
0.004819242242
0.004833040363
0.00481056916
0.00477181911
0.004728108217
0.004685195503
0.004645662553
0.004610411467
0.004579515428
0.004552694839
0.004529601871
0.004510192947
0.004496008236
0.004347773325
0.004411302767
0.00445522139
0.004481245386
0.004493571991
0.004496452952
0.004493324156
0.00448668285
0.004478224996
0.004469050525
0.004459845771
0.004451053985
0.004443092107
0.004436989143
0.004213548362
0.004243116551
0.004271264933
0.004295882226
0.004316225917
0.0043323846
0.004344852808
0.004354259821
0.004361225524
0.004366294837
0.004369919385
0.00437245692
0.004374178222
0.004375219129
0.004175234053
0.004189513199
0.004205922121
0.004223261688
0.004240532888
0.004257014229
0.004272255016
0.004286020511
0.004298235299
0.004308929107
0.00431819102
0.00432612424
0.004332738199
0.004337532275
0.004168322106
0.004182281765
0.004199365995
0.004218020454
0.004236931636
0.004255148124
0.004272059159
0.004287332508
0.004300837945
0.00431258295
0.004322662683
0.004331217202
0.004338393196
0.004344255539
0.004348435479
0.004205104135
0.004242612919
0.004278226468
0.004308437486
0.004332439496
0.004350694783
0.004364118141
0.004373688843
0.004380284565
0.004384636134
0.004387326316
0.004388808479
0.00438943423
0.004389493749
0.004389289029
0.00438501829
0.004497185985
0.004560564209
0.004587947119
0.004592965025
0.004585386909
0.004571379171
0.004554602844
0.00453714759
0.004520155934
0.004504215915
0.004489600386
0.004476447744
0.004465002607
0.004456438817
0.005369854969
0.005507709812
0.005408754542
0.005255432982
0.005108026147
0.004982572826
0.004880123742
0.004797422007
0.00473058457
0.004676210552
0.004631600032
0.004594698734
0.004564034334
0.004538914954
0.004520853065
0.008833077566
0.007146377732
0.006211432516
0.00566350654
0.005323846133
0.005101537467
0.004948558024
0.00483852615
0.004756353165
0.004693054978
0.004643083141
0.00460296926
0.004570917505
0.004548223966
0.005507732957
0.005408746147
0.005255414688
0.005108006115
0.004982553504
0.004880105028
0.004797405272
0.004730569222
0.004676196864
0.004631587312
0.004594687014
0.004564023727
0.004538904934
0.004520843505
0.004497194361
0.004560562118
0.004587937833
0.00459295116
0.004585370797
0.004571361693
0.00455458477
0.004537129723
0.004520138734
0.004504198906
0.004489584248
0.00447643221
0.004464987269
0.004456423229
0.004242616304
0.004278226985
0.004308434709
0.004332434084
0.004350686159
0.004364108066
0.004373676482
0.004380271188
0.004384622354
0.004387311793
0.004388793348
0.004389418995
0.00438947762
0.004389272822
0.004182283025
0.004199367162
0.004218020003
0.00423692942
0.00425514355
0.004272052828
0.004287324702
0.004300827854
0.004312571227
0.004322649742
0.004331202931
0.00433837811
0.004344239714
0.004348418353
0.004164229886
0.00417523314
0.004189512376
0.004205921393
0.00422326188
0.004240534132
0.004257016889
0.004272258928
0.004286025263
0.00429824131
0.004308936763
0.004318199547
0.004326133137
0.004332747777
0.004337542399
0.004186379202
0.004213545731
0.004243114565
0.00427126383
0.004295882828
0.004316227837
0.004332388115
0.004344857757
0.004354265451
0.004361231798
0.004366302323
0.004369926909
0.00437246507
0.004374185848
0.004375227257
0.004270384197
0.004347765271
0.004411297226
0.004455217721
0.004481244783
0.004493573849
0.004496455404
0.004493327347
0.004486686603
0.004478229083
0.004469054728
0.004459851007
0.004451058819
0.004443097203
0.004436993908
0.004559089308
0.004738727631
0.004819226487
0.004833027569
0.004810559434
0.004771811429
0.004728102048
0.004685189983
0.004645658079
0.004610407282
0.004579512566
0.004552692618
0.004529599046
0.004510190628
0.004496006633
0.00536984991
0.005507702662
0.00540872821
0.005255402185
0.00510799764
0.004982546397
0.004880100782
0.004797402005
0.004730566261
0.004676194646
0.004631585384
0.004594685304
0.004564022423
0.004538903357
0.004520842327
0.004559096221
0.004738727414
0.004819218998
0.004833015241
0.004810544893
0.004771796071
0.004728086737
0.004685175812
0.004645644157
0.004610394723
0.004579500637
0.004552681695
0.004529588836
0.004510181105
0.004495996851
0.004347778591
0.00441130001
0.004455213758
0.00448123519
0.00449356131
0.004496440592
0.004493312454
0.004486670944
0.004478213663
0.004469039631
0.004459835292
0.004451043885
0.004443082361
0.004436980262
0.004213550675
0.004243117497
0.004271262817
0.004295878936
0.004316221282
0.004332379119
0.00434484669
0.00435425358
0.00436121884
0.004366288144
0.004369912369
0.004372449625
0.004374170729
0.004375211647
0.004175235033
0.004189513828
0.00420592104
0.004223260627
0.004240530815
0.004257011799
0.004272251611
0.004286016388
0.004298230913
0.004308924473
0.00431818632
0.004326119268
0.004332733082
0.004337526436
0.004158786711
0.004165379144
0.004174558031
0.004185926723
0.004198847112
0.004212626747
0.004226642022
0.004240399315
0.004253545101
0.004265853542
0.004277202454
0.00428753834
0.004296828128
0.004304921493
0.004310987903
0.004168475403
0.004182795467
0.00420055016
0.004219868134
0.004239114895
0.00425716904
0.004273414472
0.004287626393
0.004299831002
0.004310192635
0.004318935795
0.004326293667
0.004332467361
0.004337549686
0.004341211449
0.004198167929
0.004233903485
0.004271438411
0.004305471294
0.004333418479
0.004354734623
0.004370017433
0.004380338923
0.004386839362
0.004390539852
0.004392272648
0.004392677441
0.004392236416
0.004391335122
0.004390408301
0.004270384039
0.004347763776
0.004411292797
0.004455211564
0.004481236817
0.004493565319
0.004496446514
0.004493318424
0.004486677893
0.004478221285
0.004469046667
0.004459842252
0.004451050281
0.004443089056
0.004436986361
0.004385017492
0.004497177976
0.004560548671
0.004587926169
0.004592942192
0.004585363641
0.004571355327
0.004554579853
0.004537125876
0.004520135099
0.004504195554
0.004489581503
0.004476429198
0.004464984636
0.004456420607
0.004270383441
0.004347761481
0.004411289359
0.00445520599
0.0044812294
0.004493557143
0.004496437388
0.00449330948
0.004486668498
0.004478212023
0.004469037869
0.00445983382
0.004451041589
0.0044430813
0.004436979351
0.004198171266
0.004233905594
0.004271437949
0.004305468574
0.00433341316
0.00435472716
0.004370008349
0.004380328252
0.004386828162
0.004390528386
0.004392261161
0.004392665567
0.004392224167
0.004391322628
0.004390396674
0.004182798544
0.004200551384
0.004219867504
0.004239112413
0.004257164296
0.004273408382
0.004287618949
0.004299821553
0.004310182498
0.004318924893
0.004326282174
0.004332455169
0.00433753731
0.004341198561
0.004165380849
0.004174559849
0.004185927093
0.004198845982
0.004212624534
0.004226638587
0.004240393871
0.004253538328
0.004265845673
0.004277193032
0.004287526891
0.004296815373
0.004304907919
0.004310973769
0.004155167357
0.004158663786
0.004163847615
0.004170757683
0.00417923643
0.004188994474
0.004199678139
0.00421092922
0.004222419447
0.004233871489
0.004245065982
0.004255826548
0.004265984596
0.004275214817
0.004282347118
0.004158883054
0.00416552041
0.004174641022
0.004185772907
0.004198249756
0.004211400752
0.004224659324
0.004237602369
0.004249947278
0.004261525369
0.004272255132
0.004282103478
0.004291044093
0.004298917409
0.004304871264
0.004168475062
0.004182795548
0.004200550278
0.00421986707
0.004239113597
0.004257166495
0.004273412081
0.004287623963
0.004299827965
0.004310189165
0.004318932261
0.004326289579
0.004332463179
0.004337545726
0.004341207249
0.0041863785
0.004213544817
0.004243112491
0.004271259914
0.004295876959
0.004316221094
0.004332379826
0.004344848182
0.004354255242
0.00436122177
0.004366291488
0.004369915764
0.004372453608
0.004374174514
0.004375215711
0.004205103633
0.004242609743
0.004278220932
0.00430842838
0.004332427366
0.004350680267
0.004364102737
0.004373672264
0.004380267104
0.004384618069
0.00438730764
0.004388789881
0.00438941559
0.004389474865
0.004389269742
0.004186378324
0.004213543702
0.004243110646
0.004271257523
0.004295874406
0.004316216923
0.004332374931
0.004344843112
0.004354250092
0.004361215609
0.004366284791
0.004369909754
0.004372447821
0.004374168453
0.004375209447
0.004168475325
0.004182795644
0.004200549474
0.004219865246
0.004239110561
0.004257162031
0.004273406349
0.004287617183
0.004299820724
0.004310181379
0.004318923612
0.004326281349
0.004332453987
0.004337536162
0.004341197173
0.004158884057
0.004165521703
0.004174641386
0.00418577248
0.004198248325
0.004211397794
0.004224655365
0.004237597119
0.004249941557
0.00426151875
0.00427224695
0.004282094235
0.004291034139
0.004298906482
0.004304860357
0.004158664264
0.00416384808
0.004170757589
0.004179235782
0.004188992875
0.004199675898
0.004210925637
0.004222414224
0.004233865556
0.004245058523
0.004255817982
0.004265975046
0.004275204146
0.004282334257
0.004153552952
0.004155627132
0.004158855408
0.004163418847
0.004169377056
0.004176669652
0.004185137518
0.004194556004
0.004204669801
0.004215219234
0.004225959759
0.004236664687
0.004247091436
0.004256812386
0.004264458328
0.004155167348
0.004158663662
0.004163847388
0.004170757172
0.004179236629
0.004188993769
0.004199677779
0.004210928311
0.004222417755
0.004233870238
0.004245063758
0.004255824764
0.004265982695
0.004275212733
0.004282343464
0.004158786055
0.004165379143
0.004174557745
0.004185926534
0.004198845969
0.004212624885
0.004226640096
0.00424039636
0.004253540907
0.004265848891
0.004277197612
0.004287532574
0.004296821901
0.004304914303
0.004310980625
0.00416423031
0.004175232687
0.004189511383
0.00420591914
0.00422325821
0.004240529589
0.004257011056
0.004272251236
0.004286016543
0.004298231624
0.004308925669
0.004318187777
0.004326120911
0.004332734372
0.004337528766
0.004168321645
0.004182280136
0.004199364012
0.004218016297
0.004236925264
0.004255139227
0.004272048673
0.004287320748
0.004300824471
0.004312568162
0.004322646459
0.004331200112
0.004338374908
0.004344236489
0.004348415154
0.004164230128
0.004175232694
0.004189510984
0.004205918006
0.004223256831
0.004240526909
0.004257008379
0.004272248414
0.004286013359
0.004298227696
0.004308920602
0.004318182878
0.004326115946
0.004332729539
0.004337523944
0.004158786488
0.004165379052
0.004174557429
0.004185925133
0.004198844245
0.004212622686
0.004226636045
0.004240391941
0.004253535893
0.004265843073
0.00427719113
0.004287525494
0.004296814033
0.004304906407
0.004310972244
0.00415516779
0.004158663546
0.00416384707
0.004170756955
0.004179235639
0.004188992
0.004199674918
0.004210924593
0.004222413416
0.004233864633
0.004245057038
0.004255816605
0.004265974319
0.004275203426
0.004282333596
0.004153552939
0.004155626658
0.004158855091
0.004163418464
0.004169376442
0.00417666837
0.004185135193
0.004194552866
0.004204665558
0.004215214458
0.004225953783
0.004236657065
0.004247082825
0.004256802467
0.004264446674
)
;

boundaryField
{
    top
    {
        type            calculated;
        value           nonuniform List<scalar> 
127
(
0.004153552939
0.004155626282
0.004158663519
0.004165379474
0.004175234053
0.004182283025
0.004175235033
0.004165380849
0.004158664264
0.004155626658
0.004158855083
0.004163847707
0.004174558967
0.004189513199
0.004199367162
0.004189513828
0.004174559849
0.00416384808
0.004158855091
0.004163419336
0.004170758287
0.004185927546
0.004205922121
0.004218020003
0.00420592104
0.004185927093
0.004170757589
0.004163418464
0.004169378002
0.004179237334
0.004198847807
0.004223261688
0.00423692942
0.004223260627
0.004198845982
0.004179235782
0.004169376442
0.004176670152
0.004188995571
0.004212627104
0.004240532888
0.00425514355
0.004240530815
0.004212624534
0.004188992875
0.00417666837
0.004185138067
0.004199678875
0.004226642054
0.004257014229
0.004272052828
0.004257011799
0.004226638587
0.004199675898
0.004185135193
0.004194556485
0.004210929893
0.004240399121
0.004272255016
0.004287324702
0.004272251611
0.004240393871
0.004210925637
0.004194552866
0.00420467072
0.004222419962
0.004253543642
0.004286020511
0.004300827854
0.004286016388
0.004253538328
0.004222414224
0.004204665558
0.004215220548
0.004233872029
0.004265851815
0.004298235299
0.004312571227
0.004298230913
0.004265845673
0.004233865556
0.004215214458
0.004225961523
0.004245065949
0.004277200409
0.004308929107
0.004322649742
0.004308924473
0.004277193032
0.004245058523
0.004225953783
0.004236666417
0.004255827096
0.004287535519
0.00431819102
0.004331202931
0.00431818632
0.004287526891
0.004255817982
0.004236657065
0.004247093016
0.004265985058
0.004296824508
0.00432612424
0.00433837811
0.004326119268
0.004296815373
0.004265975046
0.004247082825
0.004256814326
0.004275214937
0.004304917598
0.004332738199
0.004344239714
0.004332733082
0.004304907919
0.004275204146
0.004256802467
0.004264459783
0.004282346106
0.004310984061
0.004337532275
0.004348418353
0.004337526436
0.004310973769
0.004282334257
0.004264446674
)
;
    }
    bottom
    {
        type            calculated;
        value           nonuniform List<scalar> 
134
(
0.004155167554
0.004158786401
0.004164230189
0.004168322106
0.004164229886
0.004158786711
0.004155167357
0.004153552952
0.004155626679
0.004158663957
0.0041653795
0.004175233517
0.004182281765
0.00417523314
0.004165379144
0.004158663786
0.004155627132
0.004158855289
0.004163847632
0.004174558957
0.00418951267
0.004199365995
0.004189512376
0.004174558031
0.004163847615
0.004158855408
0.004163419167
0.004170758191
0.004185928249
0.004205922178
0.004218020454
0.004205921393
0.004185926723
0.004170757683
0.004163418847
0.004169378112
0.004179237846
0.004198848884
0.004223263644
0.004236931636
0.00422326188
0.004198847112
0.00417923643
0.004169377056
0.004176670837
0.004188996032
0.004212629009
0.004240536134
0.004255148124
0.004240534132
0.004212626747
0.004188994474
0.004176669652
0.004185139146
0.004199680719
0.004226645315
0.004257019598
0.004272059159
0.004257016889
0.004226642022
0.004199678139
0.004185137518
0.004194558281
0.004210932233
0.004240403311
0.004272261603
0.004287332508
0.004272258928
0.004240399315
0.00421092922
0.004194556004
0.00420467305
0.004222422964
0.004253549457
0.004286028383
0.004300837945
0.004286025263
0.004253545101
0.004222419447
0.004204669801
0.004215223668
0.004233876364
0.004265858898
0.004298245045
0.00431258295
0.00429824131
0.004265853542
0.004233871489
0.004215219234
0.004225965071
0.004245071079
0.004277208518
0.004308939937
0.004322662683
0.004308936763
0.004277202454
0.004245065982
0.004225959759
0.004236670605
0.00425583273
0.004287544589
0.004318203547
0.004331217202
0.004318199547
0.00428753834
0.004255826548
0.004236664687
0.004247098306
0.004265991802
0.004296834595
0.00432613773
0.004338393196
0.004326133137
0.004296828128
0.004265984596
0.004247091436
0.004256820252
0.004275222834
0.004304928328
0.004332752752
0.004344255539
0.004332747777
0.004304921493
0.004275214817
0.004256812386
0.004264466601
0.004282354844
0.004310995657
0.004337547487
0.004348435479
0.004337542399
0.004310987903
0.004282347118
0.004264458328
)
;
    }
    side-walls
    {
        type            calculated;
        value           nonuniform List<scalar> 
261
(
0.004155626679
0.004158663744
0.00416537997
0.004175234392
0.004182283016
0.004175234176
0.004165379542
0.004158663576
0.004155626282
0.004158855289
0.004163848044
0.004174559686
0.004189513651
0.004199367466
0.004189513704
0.004174559023
0.004163848109
0.004158855083
0.004163419167
0.00417075853
0.004185928703
0.004205923329
0.004218021476
0.004205922568
0.004185927686
0.004170758211
0.004163419336
0.004169378112
0.004179237975
0.004198849152
0.004223264991
0.004236933264
0.004223263982
0.004198848591
0.004179237311
0.004169378002
0.004176670837
0.004188996428
0.004212629478
0.004240537171
0.004255149573
0.004240536274
0.00421262868
0.004188995414
0.004176670152
0.004185139146
0.004199681145
0.004226645412
0.004257020902
0.004272061415
0.004257019507
0.004226644035
0.004199679727
0.004185138067
0.004194558281
0.004210932347
0.004240403359
0.004272263158
0.004287334714
0.004272261595
0.004240401446
0.004210930738
0.004194556485
0.00420467305
0.004222422965
0.004253549826
0.004286029513
0.004300839914
0.004286027851
0.004253546912
0.004222420852
0.00420467072
0.004215223668
0.004233876475
0.004265859376
0.004298246048
0.004312584921
0.00429824367
0.004265856032
0.00423387337
0.004215220548
0.004225965071
0.004245071363
0.004277208523
0.00430894096
0.004322664738
0.004308938742
0.00427720535
0.004245067585
0.004225961523
0.004236670605
0.00425583293
0.004287544942
0.004318203944
0.004331219201
0.004318202265
0.004287541103
0.004255828568
0.004236666417
0.004247098306
0.004265992057
0.004296835157
0.004326138284
0.004338395383
0.004326136206
0.00429683117
0.004265986309
0.004247093016
0.004256820252
0.004275222967
0.004304929231
0.004332753946
0.004344258129
0.0043327505
0.004304924109
0.004275217279
0.004256814326
0.004264466601
0.00428235482
0.004310996406
0.00433754887
0.004348437548
0.004337544867
0.004310989978
0.004282348997
0.004264459783
0.004153552952
0.004155167348
0.004158786055
0.00416423031
0.004168321645
0.004164230128
0.004158786488
0.00415516779
0.004153552939
0.004155627132
0.004158663662
0.004165379143
0.004175232687
0.004182280136
0.004175232694
0.004165379052
0.004158663546
0.004155626658
0.004158855408
0.004163847388
0.004174557745
0.004189511383
0.004199364012
0.004189510984
0.004174557429
0.00416384707
0.004158855091
0.004163418847
0.004170757172
0.004185926534
0.00420591914
0.004218016297
0.004205918006
0.004185925133
0.004170756955
0.004163418464
0.004169377056
0.004179236629
0.004198845969
0.00422325821
0.004236925264
0.004223256831
0.004198844245
0.004179235639
0.004169376442
0.004176669652
0.004188993769
0.004212624885
0.004240529589
0.004255139227
0.004240526909
0.004212622686
0.004188992
0.00417666837
0.004185137518
0.004199677779
0.004226640096
0.004257011056
0.004272048673
0.004257008379
0.004226636045
0.004199674918
0.004185135193
0.004194556004
0.004210928311
0.00424039636
0.004272251236
0.004287320748
0.004272248414
0.004240391941
0.004210924593
0.004194552866
0.004204669801
0.004222417755
0.004253540907
0.004286016543
0.004300824471
0.004286013359
0.004253535893
0.004222413416
0.004204665558
0.004215219234
0.004233870238
0.004265848891
0.004298231624
0.004312568162
0.004298227696
0.004265843073
0.004233864633
0.004215214458
0.004225959759
0.004245063758
0.004277197612
0.004308925669
0.004322646459
0.004308920602
0.00427719113
0.004245057038
0.004225953783
0.004236664687
0.004255824764
0.004287532574
0.004318187777
0.004331200112
0.004318182878
0.004287525494
0.004255816605
0.004236657065
0.004247091436
0.004265982695
0.004296821901
0.004326120911
0.004338374908
0.004326115946
0.004296814033
0.004265974319
0.004247082825
0.004256812386
0.004275212733
0.004304914303
0.004332734372
0.004344236489
0.004332729539
0.004304906407
0.004275203426
0.004256802467
0.004264458328
0.004282343464
0.004310980625
0.004337528766
0.004348415154
0.004337523944
0.004310972244
0.004282333596
0.004264446674
)
;
    }
    inlet
    {
        type            calculated;
        value           nonuniform 0();
    }
    outlet
    {
        type            calculated;
        value           nonuniform List<scalar> 
81
(
0.004264466601
0.00428235482
0.004310996406
0.00433754887
0.004348437548
0.004337544867
0.004310989978
0.004282348997
0.004264459783
0.004282354844
0.004304882347
0.004341222084
0.004375234743
0.004389290817
0.00437522981
0.004341214552
0.004304873532
0.004282346106
0.004310995657
0.004341221465
0.004390421214
0.004437002936
0.004456440157
0.004436996777
0.00439041139
0.004341210438
0.004310984061
0.004337547487
0.004375233993
0.004437002699
0.004496016671
0.004520854224
0.004496008236
0.004436989143
0.004375219129
0.004337532275
0.004348435479
0.004389289029
0.004456438817
0.004520853065
0.004548223966
0.004520843505
0.004456423229
0.004389272822
0.004348418353
0.004337542399
0.004375227257
0.004436993908
0.004496006633
0.004520842327
0.004495996851
0.004436980262
0.004375211647
0.004337526436
0.004310987903
0.004341211449
0.004390408301
0.004436986361
0.004456420607
0.004436979351
0.004390396674
0.004341198561
0.004310973769
0.004282347118
0.004304871264
0.004341207249
0.004375215711
0.004389269742
0.004375209447
0.004341197173
0.004304860357
0.004282334257
0.004264458328
0.004282343464
0.004310980625
0.004337528766
0.004348415154
0.004337523944
0.004310972244
0.004282333596
0.004264446674
)
;
    }
    procBoundary1to0
    {
        type            processor;
        value           nonuniform List<scalar> 
97
(
0.004153552763
0.004153552763
0.004155167041
0.004158785661
0.004164228819
0.004168319894
0.004164228684
0.004158785979
0.004155166846
0.004153551986
0.004153102302
0.004158883365
0.004158883365
0.004158883365
0.004168475274
0.004186376157
0.004205098672
0.004186375319
0.004168473505
0.004158881916
0.004155166144
0.004154739656
0.004158983451
0.004198171241
0.004198171241
0.004198171241
0.004270378752
0.004384989418
0.004270371958
0.004198163665
0.004168473109
0.004158785602
0.004157140929
0.004166476485
0.004199172659
0.004559097025
0.004559097025
0.004559097025
0.005369664012
0.004559045747
0.004270372556
0.004186375656
0.004164228572
0.004158858559
0.004173557551
0.004235550511
0.004481289044
0.01204875114
0.01204875114
0.01204875114
0.005369673924
0.005369673924
0.004384992743
0.004205099464
0.004168319951
0.004157141281
0.004166477016
0.004199174208
0.004294355333
0.004481297592
0.004294349846
0.004270389902
0.004270389902
0.004270389902
0.004186378483
0.0041642299
0.004154739305
0.004158984489
0.004171436912
0.004199174034
0.004235551193
0.004199173007
0.004171436849
0.004168476654
0.004168476654
0.004168476654
0.004158786543
0.004153102501
0.004154774005
0.004158983773
0.004166476736
0.004173557624
0.004166476775
0.004158983824
0.004154773912
0.004155167649
0.004155167649
0.004155167649
0.00415236248
0.004153102089
0.004154739111
0.004157140672
0.0041588585
0.004157141198
0.004154739604
0.004153103296
0.004152363147
)
;
    }
}


// ************************************************************************* //
