/*--------------------------------*- C++ -*----------------------------------*\
| =========                 |                                                 |
| \\      /  F ield         | OpenFOAM: The Open Source CFD Toolbox           |
|  \\    /   O peration     | Version:  4.x                                   |
|   \\  /    A nd           | Web:      www.OpenFOAM.org                      |
|    \\/     M anipulation  |                                                 |
\*---------------------------------------------------------------------------*/
FoamFile
{
    version     2.0;
    format      ascii;
    class       volScalarField;
    location    "3000";
    object      X_N2;
}
// * * * * * * * * * * * * * * * * * * * * * * * * * * * * * * * * * * * * * //

dimensions      [0 0 0 0 0 0 0];

internalField   nonuniform List<scalar> 
1174
(
0.6229746256
0.622974624
0.6229746216
0.6229746185
0.6229746147
0.6229746097
0.6229746041
0.6229745978
0.6229745909
0.6229745837
0.6229745759
0.622974568
0.62297456
0.6229745534
0.6229746242
0.6229746216
0.6229746182
0.622974614
0.6229746089
0.6229746028
0.6229745964
0.6229745893
0.6229745816
0.6229745736
0.6229745655
0.6229745572
0.6229745492
0.6229745431
0.6229746211
0.622974617
0.6229746119
0.622974606
0.6229745989
0.6229745915
0.6229745834
0.6229745749
0.6229745664
0.6229745581
0.6229745495
0.6229745411
0.6229745331
0.6229745269
0.6229746173
0.6229746119
0.6229746047
0.6229745965
0.6229745881
0.6229745789
0.6229745698
0.6229745612
0.6229745521
0.6229745434
0.6229745352
0.6229745269
0.6229745188
0.622974513
0.6229746149
0.6229746087
0.6229746012
0.6229745922
0.6229745831
0.6229745736
0.6229745645
0.6229745554
0.6229745464
0.6229745376
0.6229745295
0.6229745214
0.6229745137
0.6229745082
0.6229746174
0.6229746118
0.6229746051
0.622974597
0.6229745885
0.6229745797
0.6229745707
0.6229745621
0.6229745534
0.6229745446
0.6229745361
0.622974528
0.6229745208
0.6229745153
0.6229746213
0.6229746173
0.6229746124
0.6229746062
0.6229745992
0.6229745921
0.6229745843
0.6229745765
0.6229745682
0.6229745597
0.6229745515
0.6229745432
0.6229745359
0.6229745305
0.6229746242
0.6229746214
0.6229746183
0.6229746142
0.6229746093
0.6229746035
0.6229745971
0.6229745904
0.6229745832
0.6229745756
0.6229745678
0.6229745603
0.6229745523
0.6229745462
0.6229746258
0.622974624
0.6229746214
0.6229746185
0.622974615
0.6229746102
0.6229746051
0.622974599
0.6229745926
0.6229745856
0.6229745782
0.6229745709
0.6229745632
0.6229745572
0.6229746258
0.622974624
0.6229746218
0.6229746184
0.622974614
0.6229746091
0.6229746031
0.6229745964
0.6229745893
0.6229745816
0.6229745738
0.6229745656
0.6229745573
0.6229745493
0.622974543
0.6229746208
0.6229746169
0.622974612
0.6229746062
0.6229745997
0.6229745924
0.6229745843
0.6229745766
0.6229745685
0.6229745603
0.6229745517
0.6229745434
0.622974536
0.6229745298
0.6229746141
0.6229746074
0.6229745996
0.6229745908
0.6229745816
0.6229745728
0.6229745638
0.6229745552
0.6229745466
0.6229745383
0.6229745303
0.6229745229
0.622974516
0.6229745105
0.6229746041
0.6229745939
0.6229745829
0.6229745715
0.6229745612
0.6229745512
0.622974542
0.6229745334
0.6229745253
0.6229745178
0.6229745108
0.622974504
0.6229744982
0.6229744935
0.6229745969
0.6229745851
0.6229745727
0.6229745611
0.6229745505
0.6229745407
0.6229745322
0.6229745241
0.6229745167
0.6229745098
0.6229745033
0.622974497
0.6229744914
0.6229744876
0.6229746044
0.6229745941
0.6229745831
0.6229745725
0.622974562
0.6229745525
0.6229745436
0.6229745351
0.6229745275
0.62297452
0.6229745129
0.6229745063
0.6229745004
0.6229744963
0.6229746146
0.6229746078
0.6229746001
0.622974592
0.6229745829
0.6229745744
0.6229745658
0.6229745574
0.6229745496
0.6229745415
0.6229745339
0.6229745267
0.6229745194
0.6229745147
0.6229746211
0.622974617
0.6229746123
0.6229746067
0.6229746002
0.6229745933
0.6229745863
0.6229745785
0.6229745706
0.6229745631
0.6229745552
0.6229745475
0.6229745403
0.6229745347
0.6229746242
0.6229746217
0.6229746182
0.6229746142
0.6229746092
0.622974604
0.6229745976
0.6229745909
0.622974584
0.6229745766
0.6229745687
0.622974561
0.6229745537
0.6229745479
0.6229746243
0.6229746214
0.6229746174
0.6229746122
0.6229746061
0.6229745992
0.6229745915
0.6229745834
0.6229745751
0.6229745666
0.622974558
0.6229745496
0.6229745414
0.6229745336
0.6229745273
0.6229746197
0.6229746146
0.622974608
0.6229745996
0.6229745911
0.6229745821
0.6229745729
0.6229745636
0.6229745553
0.6229745467
0.622974539
0.6229745308
0.622974523
0.6229745159
0.6229745108
0.622974596
0.622974584
0.6229745713
0.6229745591
0.6229745477
0.6229745377
0.6229745289
0.6229745209
0.6229745137
0.622974507
0.6229745009
0.6229744953
0.62297449
0.6229744862
0.6229745644
0.6229745453
0.6229745288
0.6229745149
0.6229745043
0.6229744961
0.6229744899
0.6229744845
0.6229744801
0.6229744757
0.6229744724
0.6229744692
0.6229744659
0.6229744642
0.622974536
0.6229745145
0.6229744982
0.6229744874
0.6229744804
0.622974475
0.6229744718
0.6229744688
0.6229744662
0.6229744639
0.6229744618
0.6229744597
0.6229744574
0.6229744563
0.6229745668
0.6229745476
0.6229745309
0.6229745178
0.6229745075
0.6229744995
0.6229744931
0.6229744882
0.6229744838
0.6229744797
0.6229744759
0.6229744727
0.6229744699
0.6229744676
0.6229745978
0.6229745854
0.6229745732
0.6229745614
0.6229745506
0.6229745411
0.6229745328
0.6229745252
0.6229745186
0.622974512
0.6229745061
0.6229745005
0.6229744954
0.6229744916
0.6229746147
0.622974608
0.6229746005
0.6229745924
0.6229745839
0.6229745756
0.6229745673
0.622974559
0.6229745509
0.6229745436
0.622974536
0.6229745288
0.6229745225
0.6229745169
0.6229746213
0.6229746173
0.6229746124
0.6229746066
0.6229746001
0.6229745932
0.6229745856
0.6229745782
0.6229745705
0.6229745625
0.6229745546
0.622974547
0.6229745395
0.6229745337
0.6229746221
0.6229746179
0.6229746125
0.6229746054
0.6229745972
0.6229745887
0.6229745797
0.6229745707
0.6229745618
0.6229745526
0.622974544
0.6229745354
0.6229745272
0.6229745195
0.6229745138
0.6229746139
0.6229746052
0.622974595
0.6229745838
0.6229745726
0.6229745618
0.6229745521
0.622974543
0.622974534
0.622974526
0.6229745186
0.6229745114
0.6229745046
0.6229744986
0.6229744939
0.6229745867
0.622974567
0.6229745469
0.6229745299
0.6229745162
0.6229745054
0.6229744967
0.6229744905
0.6229744854
0.6229744809
0.6229744771
0.6229744734
0.6229744697
0.6229744664
0.6229744642
0.62297447
0.6229744481
0.6229744352
0.6229744292
0.6229744278
0.6229744285
0.6229744305
0.6229744323
0.6229744342
0.6229744358
0.622974437
0.6229744373
0.6229744374
0.6229744379
0.6229743454
0.6229743434
0.6229743534
0.6229743675
0.6229743809
0.6229743921
0.6229744015
0.622974409
0.622974415
0.6229744197
0.6229744232
0.6229744254
0.6229744273
0.6229744289
0.622974478
0.6229744547
0.6229744416
0.6229744362
0.6229744348
0.6229744354
0.6229744367
0.6229744385
0.6229744399
0.6229744415
0.6229744423
0.6229744423
0.6229744423
0.6229744426
0.6229745667
0.6229745486
0.622974533
0.6229745208
0.6229745116
0.6229745037
0.6229744976
0.6229744926
0.6229744884
0.6229744843
0.6229744808
0.622974477
0.622974474
0.6229744718
0.6229746045
0.622974595
0.6229745846
0.6229745747
0.6229745652
0.6229745562
0.6229745478
0.62297454
0.6229745326
0.6229745257
0.6229745189
0.6229745126
0.6229745064
0.6229745022
0.6229746175
0.6229746121
0.6229746053
0.6229745982
0.6229745904
0.6229745826
0.6229745743
0.6229745661
0.622974558
0.62297455
0.6229745424
0.6229745347
0.6229745277
0.6229745223
0.6229746206
0.6229746156
0.6229746095
0.6229746016
0.622974593
0.6229745837
0.6229745748
0.6229745657
0.6229745564
0.6229745474
0.6229745387
0.6229745305
0.6229745225
0.6229745151
0.6229745093
0.6229746096
0.6229745984
0.6229745863
0.622974574
0.6229745626
0.622974552
0.6229745427
0.6229745336
0.6229745255
0.6229745182
0.6229745113
0.6229745046
0.6229744984
0.6229744926
0.6229744885
0.6229745675
0.62297454
0.6229745176
0.6229745015
0.6229744906
0.6229744832
0.6229744774
0.6229744736
0.6229744706
0.622974468
0.6229744653
0.6229744633
0.6229744607
0.6229744585
0.6229744569
0.6229743896
0.6229743572
0.6229743502
0.6229743582
0.6229743709
0.6229743833
0.6229743941
0.6229744033
0.6229744105
0.6229744163
0.6229744207
0.6229744238
0.6229744263
0.6229744277
0.6229744294
0.6229738461
0.622974072
0.6229741974
0.622974271
0.6229743173
0.6229743476
0.6229743689
0.6229743842
0.6229743952
0.6229744034
0.6229744096
0.622974414
0.6229744172
0.62297442
0.6229743447
0.6229743526
0.6229743668
0.6229743811
0.6229743936
0.6229744043
0.6229744125
0.622974419
0.6229744239
0.6229744278
0.6229744304
0.6229744322
0.6229744333
0.6229744348
0.6229745348
0.6229745183
0.6229745063
0.6229744981
0.6229744919
0.6229744871
0.6229744836
0.6229744805
0.6229744777
0.6229744749
0.6229744724
0.6229744694
0.6229744672
0.6229744657
0.6229745964
0.622974586
0.6229745756
0.6229745656
0.6229745569
0.6229745483
0.6229745406
0.622974533
0.622974526
0.6229745195
0.6229745132
0.622974507
0.6229745017
0.6229744976
0.6229746149
0.6229746088
0.6229746019
0.6229745943
0.6229745864
0.6229745784
0.6229745701
0.6229745621
0.6229745541
0.622974546
0.6229745386
0.6229745311
0.6229745241
0.622974519
0.6229746222
0.622974618
0.6229746125
0.6229746056
0.622974598
0.6229745896
0.622974581
0.622974572
0.6229745634
0.6229745546
0.6229745456
0.6229745375
0.6229745296
0.6229745222
0.6229745165
0.6229746143
0.6229746059
0.6229745959
0.622974585
0.6229745742
0.6229745639
0.6229745541
0.6229745449
0.6229745367
0.6229745289
0.6229745213
0.6229745145
0.6229745078
0.622974502
0.6229744976
0.6229745909
0.622974571
0.6229745513
0.6229745347
0.6229745209
0.6229745103
0.6229745021
0.6229744957
0.6229744903
0.622974486
0.6229744818
0.6229744777
0.6229744741
0.622974471
0.622974469
0.6229745291
0.6229744889
0.6229744624
0.6229744478
0.6229744409
0.6229744385
0.6229744384
0.6229744394
0.6229744407
0.622974442
0.6229744428
0.6229744433
0.6229744437
0.6229744434
0.6229744433
0.6229743923
0.6229743604
0.6229743616
0.6229743731
0.6229743854
0.6229743972
0.6229744064
0.6229744141
0.6229744205
0.622974425
0.6229744288
0.6229744312
0.6229744329
0.6229744342
0.6229744354
0.6229745257
0.6229744885
0.6229744661
0.6229744545
0.622974449
0.6229744471
0.622974447
0.6229744474
0.6229744486
0.6229744491
0.6229744496
0.6229744495
0.6229744495
0.6229744488
0.6229744489
0.6229745644
0.6229745501
0.6229745371
0.6229745264
0.6229745174
0.6229745105
0.6229745041
0.6229744992
0.6229744947
0.6229744903
0.6229744866
0.6229744826
0.6229744794
0.6229744767
0.6229746034
0.6229745945
0.6229745859
0.6229745766
0.6229745678
0.6229745593
0.6229745513
0.6229745435
0.6229745363
0.6229745294
0.6229745228
0.6229745167
0.6229745106
0.6229745064
0.622974617
0.6229746118
0.622974606
0.6229745989
0.6229745916
0.622974584
0.6229745763
0.6229745685
0.6229745606
0.6229745526
0.6229745451
0.6229745375
0.6229745305
0.6229745256
0.6229746241
0.6229746215
0.6229746178
0.6229746129
0.6229746069
0.6229746002
0.6229745932
0.6229745854
0.6229745773
0.6229745694
0.6229745612
0.6229745529
0.6229745448
0.6229745372
0.6229745314
0.6229746202
0.6229746155
0.6229746089
0.622974601
0.6229745928
0.622974584
0.6229745757
0.6229745673
0.622974559
0.6229745509
0.6229745432
0.6229745355
0.6229745282
0.6229745215
0.6229745162
0.6229746106
0.6229745998
0.6229745876
0.6229745755
0.6229745638
0.622974553
0.6229745437
0.6229745348
0.6229745272
0.6229745205
0.6229745138
0.6229745077
0.6229745019
0.6229744964
0.6229744931
0.6229745909
0.6229745716
0.6229745535
0.6229745379
0.6229745251
0.6229745148
0.6229745068
0.6229745005
0.622974495
0.6229744901
0.6229744861
0.6229744825
0.6229744789
0.6229744755
0.6229744732
0.6229745675
0.6229745432
0.6229745249
0.622974512
0.6229745024
0.6229744954
0.6229744902
0.622974486
0.6229744824
0.6229744794
0.6229744766
0.6229744737
0.622974471
0.6229744685
0.622974467
0.6229745912
0.6229745728
0.6229745553
0.622974541
0.6229745293
0.6229745195
0.6229745121
0.6229745056
0.6229745004
0.6229744955
0.6229744912
0.6229744873
0.6229744839
0.6229744799
0.6229744771
0.622974609
0.6229745989
0.6229745881
0.6229745772
0.622974567
0.6229745573
0.622974549
0.622974541
0.6229745337
0.6229745271
0.6229745204
0.6229745145
0.622974509
0.6229745036
0.6229744998
0.622974614
0.6229746084
0.6229746016
0.6229745944
0.6229745868
0.6229745792
0.6229745717
0.6229745645
0.6229745568
0.6229745494
0.6229745421
0.6229745352
0.6229745285
0.6229745236
0.6229746206
0.6229746169
0.6229746128
0.6229746077
0.6229746016
0.6229745952
0.6229745886
0.6229745813
0.622974574
0.6229745667
0.6229745595
0.6229745522
0.622974545
0.6229745396
0.6229746258
0.622974624
0.6229746217
0.6229746185
0.6229746146
0.6229746097
0.6229746043
0.6229745979
0.622974591
0.6229745841
0.6229745763
0.6229745688
0.6229745611
0.6229745535
0.622974547
0.6229746241
0.6229746217
0.6229746178
0.6229746131
0.6229746076
0.6229746012
0.6229745943
0.6229745872
0.6229745797
0.6229745725
0.6229745644
0.6229745567
0.6229745488
0.6229745412
0.6229745357
0.6229746204
0.6229746154
0.6229746087
0.6229746016
0.6229745935
0.6229745853
0.6229745769
0.6229745686
0.6229745606
0.6229745528
0.622974545
0.6229745377
0.6229745305
0.6229745236
0.6229745185
0.6229746147
0.6229746063
0.6229745969
0.622974587
0.6229745773
0.6229745675
0.6229745585
0.62297455
0.6229745422
0.6229745343
0.6229745272
0.6229745206
0.6229745141
0.6229745082
0.6229745039
0.6229746098
0.6229745999
0.622974589
0.6229745787
0.622974569
0.6229745598
0.622974551
0.6229745426
0.622974535
0.6229745281
0.6229745216
0.6229745148
0.6229745086
0.622974503
0.6229744991
0.6229746147
0.6229746069
0.6229745979
0.6229745884
0.6229745787
0.6229745699
0.6229745614
0.622974553
0.6229745452
0.6229745379
0.6229745311
0.6229745241
0.6229745175
0.6229745117
0.6229745075
0.6229746203
0.6229746154
0.6229746093
0.6229746027
0.6229745953
0.622974588
0.6229745803
0.6229745725
0.6229745648
0.6229745573
0.6229745501
0.6229745425
0.6229745357
0.6229745291
0.6229745243
0.6229746236
0.622974621
0.6229746177
0.6229746135
0.6229746085
0.622974603
0.6229745966
0.6229745903
0.622974583
0.6229745763
0.6229745692
0.622974562
0.6229745546
0.6229745475
0.622974542
0.6229746239
0.6229746215
0.6229746187
0.6229746151
0.6229746108
0.6229746057
0.6229746
0.6229745941
0.6229745876
0.6229745807
0.6229745738
0.6229745666
0.6229745597
0.6229745545
0.6229746265
0.6229746253
0.6229746238
0.6229746217
0.6229746189
0.6229746151
0.6229746104
0.6229746052
0.6229745994
0.6229745932
0.6229745864
0.622974579
0.6229745716
0.6229745641
0.6229745578
0.6229746258
0.6229746241
0.6229746218
0.6229746188
0.6229746145
0.6229746101
0.6229746045
0.6229745984
0.622974592
0.6229745848
0.6229745776
0.6229745698
0.6229745621
0.6229745547
0.6229745492
0.6229746245
0.6229746214
0.6229746179
0.6229746129
0.6229746075
0.6229746011
0.6229745941
0.6229745869
0.6229745795
0.6229745719
0.6229745638
0.622974556
0.6229745482
0.6229745412
0.6229745354
0.6229746219
0.6229746182
0.6229746129
0.6229746067
0.6229745999
0.6229745919
0.622974584
0.6229745761
0.622974568
0.6229745597
0.6229745516
0.6229745439
0.6229745362
0.6229745295
0.622974524
0.6229746208
0.6229746164
0.6229746103
0.6229746037
0.6229745963
0.6229745885
0.6229745804
0.6229745719
0.6229745636
0.6229745554
0.6229745475
0.6229745398
0.6229745326
0.6229745256
0.6229745205
0.622974622
0.6229746181
0.6229746131
0.6229746074
0.6229746007
0.6229745935
0.6229745855
0.6229745777
0.6229745699
0.622974562
0.6229745545
0.6229745467
0.6229745391
0.6229745323
0.6229745268
0.6229746242
0.6229746215
0.6229746181
0.6229746137
0.6229746085
0.6229746024
0.6229745965
0.6229745895
0.6229745825
0.6229745753
0.6229745675
0.6229745601
0.6229745527
0.6229745457
0.6229745402
0.6229746256
0.6229746242
0.622974622
0.622974619
0.6229746151
0.6229746112
0.6229746061
0.6229746005
0.6229745944
0.622974588
0.6229745815
0.6229745745
0.6229745669
0.62297456
0.6229745548
0.6229746265
0.6229746256
0.622974624
0.6229746219
0.6229746193
0.6229746159
0.6229746118
0.622974607
0.6229746019
0.622974596
0.6229745899
0.6229745834
0.6229745765
0.6229745698
0.6229745645
)
;

boundaryField
{
    top
    {
        type            calculated;
        value           nonuniform List<scalar> 
127
(
0.6229746265
0.6229746258
0.6229746242
0.6229746213
0.6229746175
0.6229746149
0.622974617
0.6229746206
0.6229746239
0.6229746256
0.622974624
0.6229746217
0.6229746173
0.6229746121
0.6229746088
0.6229746118
0.6229746169
0.6229746215
0.622974624
0.6229746214
0.6229746182
0.6229746124
0.6229746053
0.6229746019
0.622974606
0.6229746128
0.6229746187
0.6229746219
0.6229746185
0.6229746142
0.6229746066
0.6229745982
0.6229745943
0.6229745989
0.6229746077
0.6229746151
0.6229746193
0.622974615
0.6229746092
0.6229746001
0.6229745904
0.6229745864
0.6229745916
0.6229746016
0.6229746108
0.6229746159
0.6229746102
0.622974604
0.6229745932
0.6229745826
0.6229745784
0.622974584
0.6229745952
0.6229746057
0.6229746118
0.6229746051
0.6229745976
0.6229745856
0.6229745743
0.6229745701
0.6229745763
0.6229745886
0.6229746
0.622974607
0.622974599
0.6229745909
0.6229745782
0.6229745661
0.6229745621
0.6229745685
0.6229745813
0.6229745941
0.6229746019
0.6229745926
0.622974584
0.6229745705
0.622974558
0.6229745541
0.6229745606
0.622974574
0.6229745876
0.622974596
0.6229745856
0.6229745766
0.6229745625
0.62297455
0.622974546
0.6229745526
0.6229745667
0.6229745807
0.6229745899
0.6229745782
0.6229745687
0.6229745546
0.6229745424
0.6229745386
0.6229745451
0.6229745595
0.6229745738
0.6229745834
0.6229745709
0.622974561
0.622974547
0.6229745347
0.6229745311
0.6229745375
0.6229745522
0.6229745666
0.6229745765
0.6229745632
0.6229745537
0.6229745395
0.6229745277
0.6229745241
0.6229745305
0.622974545
0.6229745597
0.6229745698
0.6229745572
0.6229745479
0.6229745337
0.6229745223
0.622974519
0.6229745256
0.6229745396
0.6229745545
0.6229745645
)
;
    }
    bottom
    {
        type            calculated;
        value           nonuniform List<scalar> 
134
(
0.6229746258
0.6229746243
0.6229746221
0.6229746206
0.6229746222
0.6229746241
0.6229746258
0.6229746265
0.6229746256
0.622974624
0.6229746214
0.6229746179
0.6229746156
0.622974618
0.6229746215
0.622974624
0.6229746253
0.622974624
0.6229746218
0.6229746174
0.6229746125
0.6229746095
0.6229746125
0.6229746178
0.6229746217
0.6229746238
0.6229746216
0.6229746184
0.6229746122
0.6229746054
0.6229746016
0.6229746056
0.6229746129
0.6229746185
0.6229746217
0.6229746185
0.622974614
0.6229746061
0.6229745972
0.622974593
0.622974598
0.6229746069
0.6229746146
0.6229746189
0.6229746147
0.6229746091
0.6229745992
0.6229745887
0.6229745837
0.6229745896
0.6229746002
0.6229746097
0.6229746151
0.6229746097
0.6229746031
0.6229745915
0.6229745797
0.6229745748
0.622974581
0.6229745932
0.6229746043
0.6229746104
0.6229746041
0.6229745964
0.6229745834
0.6229745707
0.6229745657
0.622974572
0.6229745854
0.6229745979
0.6229746052
0.6229745978
0.6229745893
0.6229745751
0.6229745618
0.6229745564
0.6229745634
0.6229745773
0.622974591
0.6229745994
0.6229745909
0.6229745816
0.6229745666
0.6229745526
0.6229745474
0.6229745546
0.6229745694
0.6229745841
0.6229745932
0.6229745837
0.6229745738
0.622974558
0.622974544
0.6229745387
0.6229745456
0.6229745612
0.6229745763
0.6229745864
0.6229745759
0.6229745656
0.6229745496
0.6229745354
0.6229745305
0.6229745375
0.6229745529
0.6229745688
0.622974579
0.622974568
0.6229745573
0.6229745414
0.6229745272
0.6229745225
0.6229745296
0.6229745448
0.6229745611
0.6229745716
0.62297456
0.6229745493
0.6229745336
0.6229745195
0.6229745151
0.6229745222
0.6229745372
0.6229745535
0.6229745641
0.6229745534
0.622974543
0.6229745273
0.6229745138
0.6229745093
0.6229745165
0.6229745314
0.622974547
0.6229745578
)
;
    }
    side-walls
    {
        type            calculated;
        value           nonuniform List<scalar> 
261
(
0.6229746256
0.6229746242
0.6229746211
0.6229746173
0.6229746149
0.6229746174
0.6229746213
0.6229746242
0.6229746258
0.622974624
0.6229746216
0.622974617
0.6229746119
0.6229746087
0.6229746118
0.6229746173
0.6229746214
0.622974624
0.6229746216
0.6229746182
0.6229746119
0.6229746047
0.6229746012
0.6229746051
0.6229746124
0.6229746183
0.6229746214
0.6229746185
0.622974614
0.622974606
0.6229745965
0.6229745922
0.622974597
0.6229746062
0.6229746142
0.6229746185
0.6229746147
0.6229746089
0.6229745989
0.6229745881
0.6229745831
0.6229745885
0.6229745992
0.6229746093
0.622974615
0.6229746097
0.6229746028
0.6229745915
0.6229745789
0.6229745736
0.6229745797
0.6229745921
0.6229746035
0.6229746102
0.6229746041
0.6229745964
0.6229745834
0.6229745698
0.6229745645
0.6229745707
0.6229745843
0.6229745971
0.6229746051
0.6229745978
0.6229745893
0.6229745749
0.6229745612
0.6229745554
0.6229745621
0.6229745765
0.6229745904
0.622974599
0.6229745909
0.6229745816
0.6229745664
0.6229745521
0.6229745464
0.6229745534
0.6229745682
0.6229745832
0.6229745926
0.6229745837
0.6229745736
0.6229745581
0.6229745434
0.6229745376
0.6229745446
0.6229745597
0.6229745756
0.6229745856
0.6229745759
0.6229745655
0.6229745495
0.6229745352
0.6229745295
0.6229745361
0.6229745515
0.6229745678
0.6229745782
0.622974568
0.6229745572
0.6229745411
0.6229745269
0.6229745214
0.622974528
0.6229745432
0.6229745603
0.6229745709
0.62297456
0.6229745492
0.6229745331
0.6229745188
0.6229745137
0.6229745208
0.6229745359
0.6229745523
0.6229745632
0.6229745534
0.6229745431
0.6229745269
0.622974513
0.6229745082
0.6229745153
0.6229745305
0.6229745462
0.6229745572
0.6229746265
0.6229746258
0.6229746245
0.6229746219
0.6229746208
0.622974622
0.6229746242
0.6229746256
0.6229746265
0.6229746253
0.6229746241
0.6229746214
0.6229746182
0.6229746164
0.6229746181
0.6229746215
0.6229746242
0.6229746256
0.6229746238
0.6229746218
0.6229746179
0.6229746129
0.6229746103
0.6229746131
0.6229746181
0.622974622
0.622974624
0.6229746217
0.6229746188
0.6229746129
0.6229746067
0.6229746037
0.6229746074
0.6229746137
0.622974619
0.6229746219
0.6229746189
0.6229746145
0.6229746075
0.6229745999
0.6229745963
0.6229746007
0.6229746085
0.6229746151
0.6229746193
0.6229746151
0.6229746101
0.6229746011
0.6229745919
0.6229745885
0.6229745935
0.6229746024
0.6229746112
0.6229746159
0.6229746104
0.6229746045
0.6229745941
0.622974584
0.6229745804
0.6229745855
0.6229745965
0.6229746061
0.6229746118
0.6229746052
0.6229745984
0.6229745869
0.6229745761
0.6229745719
0.6229745777
0.6229745895
0.6229746005
0.622974607
0.6229745994
0.622974592
0.6229745795
0.622974568
0.6229745636
0.6229745699
0.6229745825
0.6229745944
0.6229746019
0.6229745932
0.6229745848
0.6229745719
0.6229745597
0.6229745554
0.622974562
0.6229745753
0.622974588
0.622974596
0.6229745864
0.6229745776
0.6229745638
0.6229745516
0.6229745475
0.6229745545
0.6229745675
0.6229745815
0.6229745899
0.622974579
0.6229745698
0.622974556
0.6229745439
0.6229745398
0.6229745467
0.6229745601
0.6229745745
0.6229745834
0.6229745716
0.6229745621
0.6229745482
0.6229745362
0.6229745326
0.6229745391
0.6229745527
0.6229745669
0.6229745765
0.6229745641
0.6229745547
0.6229745412
0.6229745295
0.6229745256
0.6229745323
0.6229745457
0.62297456
0.6229745698
0.6229745578
0.6229745492
0.6229745354
0.622974524
0.6229745205
0.6229745268
0.6229745402
0.6229745548
0.6229745645
)
;
    }
    inlet
    {
        type            calculated;
        value           nonuniform 0();
    }
    outlet
    {
        type            calculated;
        value           nonuniform List<scalar> 
81
(
0.6229745534
0.6229745431
0.6229745269
0.622974513
0.6229745082
0.6229745153
0.6229745305
0.6229745462
0.6229745572
0.622974543
0.6229745298
0.6229745105
0.6229744935
0.6229744876
0.6229744963
0.6229745147
0.6229745347
0.6229745479
0.6229745273
0.6229745108
0.6229744862
0.6229744642
0.6229744563
0.6229744676
0.6229744916
0.6229745169
0.6229745337
0.6229745138
0.6229744939
0.6229744642
0.6229744379
0.6229744289
0.6229744426
0.6229744718
0.6229745022
0.6229745223
0.6229745093
0.6229744885
0.6229744569
0.6229744294
0.62297442
0.6229744348
0.6229744657
0.6229744976
0.622974519
0.6229745165
0.6229744976
0.622974469
0.6229744433
0.6229744354
0.6229744489
0.6229744767
0.6229745064
0.6229745256
0.6229745314
0.6229745162
0.6229744931
0.6229744732
0.622974467
0.6229744771
0.6229744998
0.6229745236
0.6229745396
0.622974547
0.6229745357
0.6229745185
0.6229745039
0.6229744991
0.6229745075
0.6229745243
0.622974542
0.6229745545
0.6229745578
0.6229745492
0.6229745354
0.622974524
0.6229745205
0.6229745268
0.6229745402
0.6229745548
0.6229745645
)
;
    }
    procBoundary1to0
    {
        type            processor;
        value           nonuniform List<scalar> 
97
(
0.6229746266
0.6229746266
0.622974626
0.6229746247
0.6229746228
0.6229746218
0.6229746228
0.6229746245
0.6229746261
0.622974627
0.6229746273
0.622974624
0.622974624
0.622974624
0.6229746204
0.6229746161
0.6229746125
0.6229746164
0.6229746213
0.6229746247
0.6229746266
0.6229746262
0.6229746249
0.6229746091
0.6229746091
0.6229746091
0.6229745943
0.6229745836
0.6229745974
0.6229746128
0.6229746215
0.6229746247
0.6229746254
0.6229746221
0.6229746125
0.6229745293
0.6229745293
0.6229745293
0.6229745026
0.6229745541
0.6229745973
0.6229746163
0.6229746229
0.6229746247
0.6229746198
0.6229746039
0.6229745635
0.6229743356
0.6229743356
0.6229743356
0.6229744976
0.6229744976
0.6229745821
0.6229746122
0.6229746218
0.6229746252
0.6229746217
0.6229746114
0.6229745883
0.6229745584
0.6229745917
0.6229745883
0.6229745883
0.6229745883
0.6229746148
0.6229746222
0.6229746264
0.6229746242
0.6229746202
0.6229746115
0.6229746034
0.6229746121
0.6229746203
0.6229746197
0.6229746197
0.6229746197
0.6229746242
0.6229746272
0.6229746263
0.6229746247
0.6229746219
0.6229746197
0.6229746218
0.6229746246
0.6229746264
0.6229746257
0.6229746257
0.6229746257
0.6229746275
0.6229746275
0.6229746266
0.6229746255
0.6229746247
0.6229746252
0.6229746263
0.6229746267
0.6229746271
)
;
    }
}


// ************************************************************************* //
