/*--------------------------------*- C++ -*----------------------------------*\
| =========                 |                                                 |
| \\      /  F ield         | OpenFOAM: The Open Source CFD Toolbox           |
|  \\    /   O peration     | Version:  4.x                                   |
|   \\  /    A nd           | Web:      www.OpenFOAM.org                      |
|    \\/     M anipulation  |                                                 |
\*---------------------------------------------------------------------------*/
FoamFile
{
    version     2.0;
    format      ascii;
    class       volScalarField;
    location    "1000";
    object      CO2;
}
// * * * * * * * * * * * * * * * * * * * * * * * * * * * * * * * * * * * * * //

dimensions      [0 0 0 0 0 0 0];

internalField   nonuniform List<scalar> 
1174
(
0.006518114362
0.006526642817
0.006538705161
0.006554464277
0.006573766045
0.006596196313
0.006621169443
0.006648013859
0.006676046931
0.006704621733
0.006733138126
0.006760951873
0.006786916674
0.006807358757
0.006526117403
0.006539802698
0.006558056264
0.006580471287
0.006606289963
0.006634587211
0.006664419036
0.006694922592
0.006725367826
0.006755169188
0.0067838624
0.006810993276
0.00683568511
0.006854787637
0.006543807427
0.006568024822
0.006598040048
0.006632182789
0.006668635069
0.006705757486
0.006742245889
0.006777166672
0.006809921695
0.006840181285
0.006867798964
0.006892679027
0.006914405208
0.006930722138
0.006569751008
0.006607407886
0.006650717516
0.006696536059
0.006742231423
0.006785903892
0.006826357907
0.006862968831
0.006895529804
0.006924111269
0.006948941846
0.006970280846
0.006988135132
0.007001116886
0.006588300995
0.006633347936
0.006682581075
0.006732552516
0.006780756634
0.006825582529
0.006866144408
0.006902089422
0.006933430241
0.006960408196
0.006983386416
0.007002740461
0.007018620613
0.007029986956
0.006569750549
0.006607407165
0.006650716536
0.006696534641
0.00674222998
0.006785902079
0.006826355786
0.00686296679
0.006895527663
0.006924108914
0.006948938978
0.006970278215
0.006988132495
0.007001113868
0.006543806994
0.006568024074
0.006598038813
0.006632181282
0.006668633109
0.006705754985
0.006742242971
0.006777163282
0.006809918313
0.006840177597
0.006867794752
0.006892674644
0.006914400685
0.006930717214
0.006526116729
0.006539801886
0.006558055259
0.006580470022
0.006606288373
0.006634585245
0.006664416594
0.006694919639
0.006725364378
0.006755165315
0.006783857988
0.00681098854
0.006835680339
0.006854782233
0.006518113944
0.006526642512
0.006538704603
0.006554463564
0.006573764865
0.006596194725
0.006621167198
0.006648011097
0.006676043587
0.006704618192
0.0067331341
0.006760947626
0.006786911698
0.006807353193
0.006516891734
0.006526117052
0.006539802052
0.006558055844
0.006580471012
0.006606289891
0.006634586951
0.006664418797
0.006694922454
0.006725367531
0.006755168933
0.006783862051
0.006810993045
0.006835684878
0.006854787303
0.006544176885
0.006568236705
0.006597626042
0.006630597587
0.006665389406
0.006700510708
0.006734846806
0.006767648515
0.006798469779
0.00682708514
0.006853406851
0.00687735499
0.006898489982
0.006914502491
0.006589647346
0.006636455226
0.006687432874
0.00673828708
0.006786061718
0.006829131582
0.006866892666
0.00689940297
0.006927087934
0.006950531039
0.006970339264
0.006987034749
0.007000843323
0.007010831328
0.006670535286
0.006748459675
0.006822738645
0.006887815477
0.006941717669
0.006984658075
0.007017919165
0.007043143191
0.007061950876
0.007075769999
0.007085783333
0.007092928312
0.007097899028
0.007100993113
0.006746965555
0.006840810591
0.006920560363
0.006984072384
0.007032532782
0.007068321581
0.007093991189
0.007111841618
0.007123787442
0.007131355831
0.007135736374
0.007137850784
0.00713844685
0.00713825946
0.006670533463
0.006748457556
0.006822736043
0.006887812685
0.006941714362
0.00698465442
0.007017915255
0.007043139124
0.007061946724
0.007075766061
0.007085779378
0.007092924568
0.007097895205
0.007100989332
0.006589645387
0.006636452956
0.006687429921
0.006738283374
0.006786057493
0.006829127146
0.006866887614
0.006899397679
0.006927082473
0.006950525194
0.006970333354
0.006987028808
0.007000837356
0.007010824947
0.006544175176
0.006568235317
0.006597624382
0.00663059542
0.006665386496
0.00670050714
0.006734842699
0.006767644083
0.006798464611
0.00682707973
0.006853400944
0.006877348578
0.006898483149
0.006914495481
0.006526116712
0.006539801928
0.006558055167
0.006580469887
0.00660628805
0.006634584538
0.006664415673
0.006694918856
0.006725363014
0.006755163791
0.006783856456
0.006810986901
0.006835678064
0.006854779549
0.006526422509
0.006543806707
0.006568023659
0.006598038859
0.006632181652
0.006668634099
0.006705756395
0.006742244857
0.006777165797
0.006809921176
0.006840180939
0.006867798373
0.00689267836
0.006914404218
0.006930720929
0.006551917741
0.00658964619
0.006636453823
0.006687431652
0.006738285842
0.006786060492
0.006829130747
0.006866892152
0.006899402524
0.006927087662
0.006950530632
0.006970338741
0.006987034375
0.007000843024
0.007010830938
0.006724079104
0.006822976691
0.00691277624
0.006986666457
0.007043183971
0.007083875088
0.007111531519
0.007129140954
0.007139378827
0.007144426949
0.007145968463
0.007145268384
0.007143326645
0.007141232795
0.007023331583
0.007190710052
0.007306728566
0.007375817109
0.007408929024
0.007417186096
0.007409602202
0.007392732186
0.00737103756
0.007347413668
0.007323675246
0.007300988664
0.007280448054
0.007264709351
0.007415788954
0.007582949864
0.007655764738
0.007669852569
0.007650777665
0.007614710064
0.007571274352
0.00752597355
0.007481825388
0.007440388727
0.007402396267
0.007368214518
0.007338486976
0.007316254397
0.007023321949
0.007190701536
0.007306720732
0.007375809072
0.007408920574
0.007417177744
0.007409594325
0.007392724423
0.007371030044
0.007347406538
0.007323668541
0.007300982115
0.007280441915
0.007264703902
0.00672407119
0.006822970651
0.00691277012
0.006986659318
0.007043175844
0.007083866265
0.007111522178
0.007129131424
0.007139369217
0.007144417401
0.00714595931
0.007145259465
0.00714331808
0.007141224317
0.006589645278
0.006636452502
0.006687429125
0.006738282295
0.006786056149
0.006829125056
0.006866885072
0.006899394746
0.006927079004
0.006950521896
0.00697032997
0.006987025386
0.007000833893
0.007010821656
0.006543806855
0.006568023731
0.006598038393
0.006632180156
0.006668631212
0.006705752443
0.006742240016
0.006777159957
0.006809914201
0.006840173161
0.006867790032
0.006892669682
0.006914395402
0.00693071165
0.006540750735
0.006569749227
0.006607405425
0.006650715093
0.006696533454
0.006742229135
0.006785902122
0.006826356527
0.006862967666
0.006895528803
0.006924110027
0.006948940383
0.006970279646
0.006988134071
0.007001115671
0.006599004174
0.006670532594
0.006748455968
0.00682273521
0.006887812288
0.006941714807
0.006984655867
0.007017917577
0.007043141576
0.00706194937
0.007075768855
0.007085782174
0.007092927111
0.007097897825
0.00710099219
0.006819782248
0.007023328355
0.007190704874
0.007306724194
0.007375813487
0.007408925904
0.00741718362
0.007409600384
0.007392730936
0.007371036738
0.007347412921
0.007323674458
0.00730098771
0.007280447401
0.007264708984
0.008049853014
0.008262425604
0.008300087474
0.008242400144
0.008141732019
0.008027797604
0.007915761524
0.007812455449
0.007720289088
0.007639493068
0.007569352939
0.007508970981
0.007458239046
0.007421175439
0.01006616473
0.009809977685
0.009410412505
0.009025352873
0.008697161557
0.008428880014
0.008212164062
0.008036944548
0.007894368989
0.007777389841
0.007680636577
0.007600256978
0.007534431447
0.007487114142
0.008049808486
0.008262397556
0.00830006477
0.00824237983
0.008141713609
0.008027781201
0.007915746707
0.007812442021
0.007720276986
0.007639482047
0.007569343148
0.007508962351
0.007458231629
0.007421168844
0.007023322232
0.007190698223
0.007306714196
0.007375800347
0.007408910998
0.007417168182
0.007409584803
0.007392715357
0.007371021514
0.007347398536
0.00732366128
0.007300975738
0.007280435921
0.007264697885
0.006670533534
0.006748455948
0.006822732214
0.006887806725
0.006941707133
0.00698464644
0.007017906387
0.007043129836
0.007061937229
0.007075756607
0.007085770385
0.007092915686
0.007097886768
0.007100980874
0.006569750877
0.006607406717
0.006650714891
0.006696531381
0.006742225155
0.00678589663
0.006826349267
0.00686295915
0.006895519369
0.006924100085
0.006948930003
0.006970268776
0.006988122625
0.007001103685
0.006551518065
0.006588298268
0.006633344222
0.006682577251
0.006732548848
0.006780753327
0.006825579934
0.006866142113
0.006902087307
0.006933427896
0.006960406051
0.006983384483
0.007002738778
0.007018619079
0.007029985016
0.006648244131
0.006746961107
0.006840803945
0.006920553654
0.006984066286
0.007032527292
0.007068316996
0.007093987559
0.007111838661
0.007123785103
0.007131353606
0.007135734241
0.007137848729
0.007138444955
0.007138257447
0.007120946589
0.007415784914
0.007582936752
0.007655751997
0.007669841597
0.007650769013
0.007614703302
0.00757126959
0.007525970091
0.007481822697
0.007440386042
0.007402394056
0.007368212646
0.007338485055
0.007316252423
0.009702966235
0.01006615891
0.009809955794
0.009410394458
0.009025339525
0.00869715157
0.008428872836
0.008212158724
0.008036940574
0.00789436593
0.007777387457
0.007680634679
0.007600255419
0.00753442998
0.007487112845
0.01877361602
0.01437674942
0.01193061169
0.0104934209
0.009600966719
0.009016218362
0.008613595635
0.008323942474
0.008107633925
0.007941045356
0.007809571646
0.007704073622
0.007619804599
0.00756013122
0.01006616586
0.009809936362
0.009410367366
0.009025311864
0.008697126157
0.008428850202
0.008212139243
0.008036923857
0.007894351245
0.007777374742
0.007680623743
0.007600245654
0.007534421604
0.00748710521
0.007415790754
0.007582935425
0.007655741606
0.007669825405
0.007650749839
0.007614683068
0.007571249656
0.007525951067
0.007481804663
0.007440369806
0.007402379269
0.007368198999
0.007338472647
0.007316240785
0.006746965923
0.006840806207
0.006920551607
0.006984060368
0.00703251814
0.007068305316
0.007093974526
0.007111824935
0.007123771108
0.007131339778
0.007135720687
0.007137835644
0.007138432424
0.007138245086
0.006588301123
0.006633346482
0.006682577542
0.006732546977
0.006780748971
0.006825573312
0.00686613375
0.006902077585
0.006933417417
0.006960394713
0.006983372532
0.007002726206
0.007018606166
0.007029971734
0.00654075025
0.006569748204
0.006607403664
0.006650712897
0.006696530876
0.006742226225
0.006785899025
0.006826352857
0.006862963913
0.006895525162
0.006924106483
0.006948936808
0.006970275753
0.006988130059
0.00700111154
0.006599001632
0.006670528522
0.006748450883
0.006822729165
0.006887806016
0.00694170823
0.006984649414
0.007017911126
0.007043135538
0.007061943525
0.007075763234
0.007085776868
0.007092922002
0.007097892581
0.007100986739
0.006819766419
0.00702331067
0.007190685722
0.007306705583
0.007375796167
0.00740891003
0.007417169321
0.007409587705
0.007392719408
0.007371025868
0.007347402881
0.00732366548
0.007300979634
0.007280439731
0.007264701483
0.007577610531
0.008049785977
0.008262368332
0.00830004017
0.008242360885
0.008141699536
0.008027770909
0.007915738918
0.007812436276
0.007720272557
0.007639478597
0.007569340319
0.00750895973
0.007458229133
0.007421166526
0.009702958308
0.01006614275
0.009809905422
0.009410344659
0.009025296377
0.008697115443
0.008428842876
0.008212134249
0.008036920067
0.007894348514
0.00777737248
0.007680621858
0.00760024431
0.00753442013
0.007487103828
0.007577615879
0.008049783525
0.008262358022
0.008300024871
0.008242343341
0.008141681325
0.00802775352
0.007915723166
0.007812421983
0.007720259647
0.007639467575
0.007569330553
0.007508951024
0.007458221369
0.007421159087
0.007023332514
0.007190693881
0.007306703111
0.007375786689
0.007408896482
0.007417153683
0.007409571052
0.007392702919
0.007371010298
0.007347388285
0.007323651698
0.007300966843
0.007280427883
0.007264690316
0.006670536262
0.006748455833
0.006822730084
0.006887802936
0.006941702018
0.006984640345
0.007017900429
0.0070431237
0.00706193096
0.007075750734
0.007085764231
0.007092909677
0.007097880683
0.007100974908
0.00656975159
0.006607406982
0.006650714463
0.006696530257
0.006742223286
0.006785893925
0.006826346051
0.006862955708
0.00689551553
0.006924095803
0.006948925566
0.006970264464
0.006988118433
0.007001099311
0.006526421935
0.0065438053
0.006568021535
0.006598036305
0.006632178251
0.006668630153
0.006705752212
0.006742240104
0.006777160468
0.006809915525
0.006840174718
0.006867792055
0.006892671947
0.00691439807
0.006930714691
0.006551914737
0.006589641946
0.006636448513
0.00668742505
0.006738278443
0.006786052723
0.006829122921
0.006866883864
0.00689939422
0.006927079167
0.006950522173
0.006970330356
0.006987026101
0.00700083482
0.007010822615
0.006629996477
0.006724063663
0.006822960616
0.006912759607
0.006986649576
0.007043167437
0.007083859147
0.007111516112
0.007129126363
0.007139364769
0.00714441358
0.007145955948
0.007145256611
0.007143315164
0.007141221863
0.006819765519
0.007023307067
0.007190679486
0.007306696628
0.007375785162
0.007408898585
0.007417158323
0.007409576905
0.007392709001
0.007371016313
0.007347394152
0.007323657155
0.007300972052
0.007280432735
0.007264695224
0.007120943941
0.007415769067
0.007582911035
0.007655721461
0.007669809491
0.007650737509
0.007614673684
0.007571242344
0.007525945395
0.007481800804
0.007440366572
0.007402376134
0.007368196317
0.007338470034
0.007316238424
0.006819765128
0.007023304955
0.007190674727
0.007306689907
0.007375776972
0.007408889423
0.007417148825
0.007409567438
0.007392700139
0.007371008135
0.007347386756
0.007323650549
0.007300965962
0.007280426908
0.007264689423
0.006630002121
0.006724068921
0.006822962636
0.00691275823
0.006986644764
0.00704315995
0.007083850104
0.007111505943
0.007129115587
0.007139354161
0.007144403477
0.007145945864
0.007145246618
0.007143305923
0.007141212473
0.006589647398
0.006636451762
0.006687426063
0.006738277137
0.006786049299
0.006829117409
0.006866876688
0.006899385858
0.006927070149
0.006950512883
0.006970320677
0.006987016107
0.00700082497
0.007010812921
0.006543807814
0.006568023975
0.006598037688
0.006632178615
0.00666862871
0.006705749055
0.006742235432
0.006777154738
0.006809908732
0.006840167023
0.0068677834
0.006892662741
0.006914388454
0.006930704358
0.006516890761
0.006526115633
0.006539800471
0.006558053651
0.006580468091
0.006606286467
0.006634583198
0.006664414549
0.006694917546
0.00672536215
0.006755162928
0.006783855423
0.006810985975
0.006835677713
0.006854779652
0.006526673199
0.006544173688
0.006568233211
0.00659762157
0.006630592561
0.006665383535
0.006700504274
0.006734839846
0.006767641403
0.006798461886
0.006827076783
0.006853398033
0.006877345829
0.006898480195
0.006914492326
0.006551914373
0.006589641398
0.006636447388
0.006687423642
0.006738276803
0.006786050543
0.006829119963
0.006866880372
0.006899390507
0.006927075064
0.006950518097
0.006970326706
0.006987022336
0.007000830973
0.007010818858
0.006599001267
0.006670526838
0.006748446923
0.006822723165
0.006887798427
0.006941699767
0.006984639791
0.007017900793
0.007043124977
0.007061932858
0.007075752434
0.007085766132
0.007092911817
0.007097883054
0.007100977434
0.00664824366
0.006746956664
0.006840794813
0.006920540693
0.006984050439
0.007032509795
0.007068298613
0.007093968718
0.007111819951
0.007123766689
0.007131335964
0.007135717189
0.007137832355
0.007138429407
0.007138242305
0.006599001074
0.006670526065
0.006748445524
0.006822720733
0.00688779492
0.006941695747
0.006984635292
0.007017896122
0.007043120049
0.007061927975
0.007075747552
0.007085761596
0.007092907209
0.007097878441
0.007100972977
0.006551915523
0.006589642329
0.006636447523
0.006687422305
0.006738274109
0.006786046783
0.006829115323
0.006866875016
0.006899384723
0.006927069116
0.006950511739
0.006970319675
0.006987015239
0.007000824243
0.007010811866
0.006526674486
0.006544174883
0.006568233689
0.006597621333
0.006630591156
0.006665381134
0.006700501043
0.006734835874
0.00676763675
0.006798456294
0.006827070413
0.006853391126
0.006877338732
0.006898473442
0.006914485135
0.006526117682
0.006539801839
0.006558054168
0.006580468123
0.006606285439
0.006634581406
0.006664411903
0.006694914151
0.006725357533
0.006755157327
0.006783849256
0.00681097922
0.006835670284
0.006854771307
0.00651263676
0.006518113186
0.006526641459
0.006538703478
0.006554462434
0.006573763399
0.006596193167
0.006621165674
0.006648009583
0.006676042149
0.00670461631
0.006733131916
0.006760945116
0.006786909038
0.006807350428
0.006516891065
0.006526115911
0.006539800648
0.006558053579
0.00658046795
0.006606286077
0.00663458234
0.006664413482
0.006694916219
0.006725360675
0.006755161255
0.006783853552
0.006810983951
0.006835675429
0.006854776991
0.006526421899
0.006543804803
0.006568020795
0.006598035085
0.006632176751
0.006668627796
0.006705749186
0.006742236631
0.006777156689
0.00680991144
0.006840170069
0.00686778685
0.006892666455
0.006914392305
0.00693070827
0.006540750092
0.006569747554
0.006607402135
0.006650709862
0.006696526551
0.006742220347
0.006785891868
0.006826344733
0.006862954961
0.006895515215
0.006924096059
0.006948926039
0.006970265202
0.006988119479
0.00700110045
0.006551517805
0.006588296664
0.006633340642
0.006682571543
0.00673254097
0.006780743325
0.006825568408
0.006866129268
0.00690207327
0.006933413528
0.006960391058
0.006983369171
0.007002723099
0.007018603223
0.007029968898
0.006540749923
0.00656974698
0.006607401131
0.006650708571
0.006696524737
0.006742218458
0.006785889388
0.006826342065
0.006862952108
0.006895512376
0.006924093101
0.006948923078
0.006970261924
0.006988116072
0.007001097012
0.006526421872
0.006543804948
0.006568020593
0.006598034328
0.006632175446
0.006668626188
0.006705746612
0.006742233533
0.00677715304
0.006809906957
0.006840165675
0.006867782222
0.006892661601
0.006914387163
0.00693070303
0.006516891253
0.006526116036
0.006539800459
0.006558052946
0.00658046699
0.006606284666
0.006634580348
0.006664410694
0.006694913027
0.006725356753
0.006755156973
0.006783848819
0.006810978816
0.006835669773
0.006854770758
0.006512637456
0.006518113755
0.00652664209
0.006538703651
0.006554462216
0.00657376304
0.006596192168
0.006621163681
0.006648006849
0.006676038322
0.006704611792
0.006733126772
0.006760939386
0.00678690277
0.006807343514
)
;

boundaryField
{
    top
    {
        type            zeroGradient;
    }
    bottom
    {
        type            zeroGradient;
    }
    side-walls
    {
        type            zeroGradient;
    }
    inlet
    {
        type            zeroGradient;
    }
    outlet
    {
        type            zeroGradient;
    }
    procBoundary1to0
    {
        type            processor;
        value           nonuniform List<scalar> 
97
(
0.006512637242
0.006512637242
0.006516891053
0.006526421864
0.0065407494
0.006551516327
0.006540748976
0.00652642116
0.006516890568
0.006512636648
0.006511445808
0.006526674556
0.006526674556
0.006526674556
0.00655191526
0.00659899924
0.006648237236
0.006598997657
0.006551912968
0.006526672714
0.006516890761
0.006515755427
0.0065269207
0.006630002632
0.006630002632
0.006630002632
0.006819761625
0.007120908374
0.00681975027
0.006629991716
0.006551913255
0.006526421616
0.006522075214
0.006546620043
0.006632511754
0.007577635449
0.007577635449
0.007577635449
0.009702770755
0.007577552318
0.006819751181
0.006598998108
0.006540749378
0.00652659261
0.006565224152
0.006727989027
0.007372167052
0.02711432786
0.02711432786
0.02711432786
0.009702789116
0.009702789116
0.007120913745
0.006648238635
0.006551516982
0.006522075214
0.006546619512
0.00663251234
0.006882270314
0.007372173631
0.006882264767
0.006819776102
0.006819776102
0.006819776102
0.006599002065
0.006540750064
0.006515755134
0.006526920397
0.006559657778
0.006632512265
0.006727990182
0.006632511227
0.006559657756
0.006551917152
0.006551917152
0.006551917152
0.006526422197
0.00651144544
0.006515844698
0.006526920599
0.00654661976
0.006565224192
0.0065466196
0.006526920532
0.00651584516
0.006516891686
0.006516891686
0.006516891686
0.006509495663
0.006511445606
0.006515755527
0.00652207518
0.006526592378
0.00652207513
0.006515755354
0.006511445731
0.006509495734
)
;
    }
}


// ************************************************************************* //
