/*--------------------------------*- C++ -*----------------------------------*\
| =========                 |                                                 |
| \\      /  F ield         | OpenFOAM: The Open Source CFD Toolbox           |
|  \\    /   O peration     | Version:  4.x                                   |
|   \\  /    A nd           | Web:      www.OpenFOAM.org                      |
|    \\/     M anipulation  |                                                 |
\*---------------------------------------------------------------------------*/
FoamFile
{
    version     2.0;
    format      ascii;
    class       volScalarField;
    location    "1000";
    object      Cpv;
}
// * * * * * * * * * * * * * * * * * * * * * * * * * * * * * * * * * * * * * //

dimensions      [0 2 -2 -1 0 0 0];

internalField   nonuniform List<scalar> 
1174
(
1210.51968
1210.520224
1210.520989
1210.522006
1210.523202
1210.524646
1210.526221
1210.527931
1210.529703
1210.531508
1210.533301
1210.53507
1210.536707
1210.538015
1210.520204
1210.521086
1210.522257
1210.523666
1210.525343
1210.527116
1210.528998
1210.530945
1210.532852
1210.534759
1210.536578
1210.538318
1210.539869
1210.541089
1210.521243
1210.522771
1210.52468
1210.526849
1210.529151
1210.531503
1210.533811
1210.536023
1210.538097
1210.539999
1210.54174
1210.543324
1210.544696
1210.545737
1210.522925
1210.525299
1210.528033
1210.530941
1210.533826
1210.536581
1210.539139
1210.541477
1210.54356
1210.545361
1210.546921
1210.548299
1210.549431
1210.550246
1210.524043
1210.526914
1210.530055
1210.533229
1210.53629
1210.539143
1210.541691
1210.54396
1210.545937
1210.547644
1210.549118
1210.550331
1210.551351
1210.552057
1210.523165
1210.525541
1210.528289
1210.531204
1210.534082
1210.536862
1210.539426
1210.541744
1210.54383
1210.545643
1210.54721
1210.548571
1210.549723
1210.55055
1210.521428
1210.522952
1210.52486
1210.527008
1210.529322
1210.531669
1210.533979
1210.536225
1210.538297
1210.540212
1210.54198
1210.543582
1210.544946
1210.545977
1210.520083
1210.520952
1210.522132
1210.523564
1210.525194
1210.526987
1210.528877
1210.53082
1210.532752
1210.534639
1210.536459
1210.538194
1210.539729
1210.540936
1210.519818
1210.520362
1210.521116
1210.522123
1210.523344
1210.524753
1210.526329
1210.528037
1210.529819
1210.531623
1210.533428
1210.535192
1210.536844
1210.538147
1210.519483
1210.520051
1210.520932
1210.522087
1210.523505
1210.525129
1210.52693
1210.52881
1210.530747
1210.532679
1210.534578
1210.536405
1210.538143
1210.539715
1210.540928
1210.5212
1210.522738
1210.52459
1210.526671
1210.528856
1210.531091
1210.533266
1210.535344
1210.537282
1210.539098
1210.540744
1210.542258
1210.543611
1210.544613
1210.524511
1210.527488
1210.530714
1210.533927
1210.536954
1210.539681
1210.54205
1210.544099
1210.545848
1210.547344
1210.548604
1210.549646
1210.550513
1210.551132
1210.529253
1210.534204
1210.538901
1210.543006
1210.546397
1210.549129
1210.551234
1210.552841
1210.55403
1210.554883
1210.555499
1210.555913
1210.556223
1210.556424
1210.534127
1210.540088
1210.545139
1210.549164
1210.552247
1210.5545
1210.556135
1210.557258
1210.558011
1210.558516
1210.55877
1210.558892
1210.558924
1210.55891
1210.528925
1210.533873
1210.538589
1210.542727
1210.546151
1210.548899
1210.550986
1210.552581
1210.553775
1210.554637
1210.555302
1210.555731
1210.556045
1210.5562
1210.524507
1210.527475
1210.530705
1210.533931
1210.53695
1210.53969
1210.542081
1210.54415
1210.545873
1210.547352
1210.548604
1210.549675
1210.550561
1210.551226
1210.52103
1210.522558
1210.524405
1210.526498
1210.528707
1210.530942
1210.533113
1210.53521
1210.537154
1210.539
1210.540672
1210.542223
1210.543568
1210.544571
1210.520265
1210.52112
1210.522279
1210.523693
1210.525347
1210.527141
1210.529072
1210.531012
1210.532944
1210.534834
1210.536657
1210.538382
1210.539966
1210.541196
1210.52021
1210.521296
1210.522829
1210.524737
1210.526902
1210.529188
1210.531544
1210.533882
1210.536104
1210.538182
1210.54008
1210.541856
1210.543437
1210.544837
1210.545877
1210.522336
1210.524741
1210.527713
1210.53093
1210.534143
1210.537184
1210.539908
1210.542295
1210.544369
1210.546106
1210.5476
1210.548857
1210.549923
1210.550807
1210.551435
1210.532603
1210.538851
1210.544554
1210.549251
1210.552845
1210.555436
1210.557176
1210.558284
1210.558899
1210.559217
1210.559343
1210.559308
1210.559205
1210.559057
1210.551076
1210.561683
1210.569049
1210.573453
1210.575546
1210.576082
1210.575614
1210.574558
1210.573166
1210.571698
1210.570203
1210.568783
1210.567473
1210.566458
1210.576541
1210.587114
1210.591726
1210.592614
1210.591405
1210.58913
1210.586424
1210.583525
1210.580743
1210.578106
1210.575681
1210.573526
1210.571632
1210.570215
1210.551859
1210.562467
1210.569796
1210.57416
1210.576262
1210.576781
1210.576255
1210.57518
1210.573805
1210.572303
1210.570787
1210.569372
1210.568066
1210.567062
1210.532602
1210.538895
1210.544569
1210.549276
1210.552851
1210.555449
1210.557182
1210.558295
1210.558952
1210.559284
1210.559412
1210.559343
1210.559213
1210.559054
1210.524535
1210.527493
1210.530715
1210.533934
1210.536948
1210.539702
1210.542091
1210.544128
1210.54591
1210.547376
1210.548603
1210.549658
1210.550559
1210.551181
1210.521
1210.522525
1210.524431
1210.526593
1210.528905
1210.531245
1210.533525
1210.535746
1210.537836
1210.539745
1210.541523
1210.543112
1210.544452
1210.545453
1210.521278
1210.523102
1210.525497
1210.528244
1210.53115
1210.534073
1210.536832
1210.53938
1210.541724
1210.543778
1210.545596
1210.547175
1210.548515
1210.549644
1210.550465
1210.524888
1210.529438
1210.534364
1210.539045
1210.543189
1210.546592
1210.549334
1210.55144
1210.553039
1210.554247
1210.555129
1210.55574
1210.556193
1210.556531
1210.556704
1210.538789
1210.551721
1210.562338
1210.569694
1210.574051
1210.57613
1210.576642
1210.576175
1210.575099
1210.573724
1210.572228
1210.570715
1210.569292
1210.56799
1210.566993
1210.616981
1210.630498
1210.63288
1210.629211
1210.62282
1210.61562
1210.608504
1210.601944
1210.596094
1210.59097
1210.586545
1210.582697
1210.579497
1210.577207
1210.740455
1210.724187
1210.698818
1210.67439
1210.653555
1210.63656
1210.622831
1210.61172
1210.60266
1210.595251
1210.589124
1210.584031
1210.579822
1210.576819
1210.616726
1210.630196
1210.632554
1210.628899
1210.622498
1210.615268
1210.608175
1210.601621
1210.595781
1210.590674
1210.586227
1210.582388
1210.579157
1210.576812
1210.55193
1210.562544
1210.569897
1210.574282
1210.576386
1210.576922
1210.576429
1210.57536
1210.573982
1210.572473
1210.570951
1210.569478
1210.568198
1210.567186
1210.529051
1210.53401
1210.538734
1210.542859
1210.546276
1210.549004
1210.551134
1210.552725
1210.553949
1210.554827
1210.555445
1210.555895
1210.556193
1210.556374
1210.522906
1210.525281
1210.528017
1210.530928
1210.533823
1210.536585
1210.539167
1210.541474
1210.543538
1210.545326
1210.546907
1210.548265
1210.54941
1210.550234
1210.521749
1210.524081
1210.52695
1210.530065
1210.533243
1210.53629
1210.539118
1210.541683
1210.543957
1210.545937
1210.547639
1210.54911
1210.550331
1210.551323
1210.552064
1210.527685
1210.533944
1210.539851
1210.544916
1210.548964
1210.552072
1210.554336
1210.555938
1210.557076
1210.557826
1210.558313
1210.558569
1210.558703
1210.558753
1210.55876
1210.557876
1210.576544
1210.587159
1210.591783
1210.592663
1210.591445
1210.589175
1210.586415
1210.583535
1210.580737
1210.57813
1210.575756
1210.573569
1210.571687
1210.570273
1210.717992
1210.740975
1210.724709
1210.699327
1210.674928
1210.65413
1210.637131
1210.623392
1210.612267
1210.603219
1210.595776
1210.589632
1210.58452
1210.580336
1210.577312
1209.191314
1208.910742
1208.75311
1208.65904
1208.599248
1208.558854
1208.529923
1208.508102
1208.490878
1208.476768
1208.464871
1208.454642
1208.445707
1208.438305
1210.74092
1210.724645
1210.699293
1210.674872
1210.654085
1210.637064
1210.623309
1210.612188
1210.603162
1210.595744
1210.58958
1210.584488
1210.580283
1210.577273
1210.576755
1210.587342
1210.591961
1210.592849
1210.591626
1210.589348
1210.586605
1210.583723
1210.580935
1210.578297
1210.575917
1210.573746
1210.571868
1210.570475
1210.533784
1210.539708
1210.54474
1210.548763
1210.551838
1210.554122
1210.555742
1210.556876
1210.557628
1210.558123
1210.558402
1210.55855
1210.558572
1210.558553
1210.52387
1210.526744
1210.529884
1210.533054
1210.53612
1210.538973
1210.541561
1210.543858
1210.545851
1210.54756
1210.549035
1210.550279
1210.551265
1210.551977
1210.521047
1210.522881
1210.525259
1210.528001
1210.530904
1210.533797
1210.536549
1210.539107
1210.541414
1210.543484
1210.545298
1210.546892
1210.548253
1210.549416
1210.55026
1210.524608
1210.529175
1210.534084
1210.538796
1210.542907
1210.546341
1210.549047
1210.551158
1210.552763
1210.553955
1210.554818
1210.555436
1210.555916
1210.556277
1210.556466
1210.538858
1210.551755
1210.562388
1210.569749
1210.574129
1210.576255
1210.576793
1210.576291
1210.575214
1210.573823
1210.572321
1210.570814
1210.569388
1210.568103
1210.567123
1210.586611
1210.616529
1210.629992
1210.632387
1210.628727
1210.622339
1210.615124
1210.608068
1210.601511
1210.59567
1210.590552
1210.586083
1210.582261
1210.579036
1210.576676
1210.71792
1210.740903
1210.724622
1210.699252
1210.674841
1210.654026
1210.637009
1210.623241
1210.612147
1210.603085
1210.595673
1210.589514
1210.584397
1210.58022
1210.577209
1210.586939
1210.616839
1210.630304
1210.632677
1210.629019
1210.622666
1210.615452
1210.608382
1210.601829
1210.596023
1210.590893
1210.586429
1210.582623
1210.579366
1210.577018
1210.551483
1210.5621
1210.569456
1210.57383
1210.575915
1210.576424
1210.575957
1210.574885
1210.573506
1210.572011
1210.570535
1210.569113
1210.567809
1210.566782
1210.52927
1210.534222
1210.538925
1210.54303
1210.546451
1210.549203
1210.551315
1210.552902
1210.554101
1210.554973
1210.555624
1210.556076
1210.556403
1210.556612
1210.523155
1210.525564
1210.528292
1210.531224
1210.534116
1210.536882
1210.53943
1210.541752
1210.543799
1210.545602
1210.54719
1210.548529
1210.549665
1210.55048
1210.52017
1210.521256
1210.522788
1210.524674
1210.526851
1210.529159
1210.531507
1210.53383
1210.536037
1210.538117
1210.54004
1210.541771
1210.543319
1210.544686
1210.545718
1210.521991
1210.52437
1210.527323
1210.53056
1210.53379
1210.536826
1210.539535
1210.541939
1210.543985
1210.545752
1210.547231
1210.548475
1210.549506
1210.550376
1210.550999
1210.526564
1210.532502
1210.538793
1210.544492
1210.549177
1210.552765
1210.555361
1210.557118
1210.558216
1210.558878
1210.559211
1210.559304
1210.559256
1210.559143
1210.559002
1210.538824
1210.551736
1210.56232
1210.56969
1210.574084
1210.576199
1210.576707
1210.576221
1210.575169
1210.573777
1210.572285
1210.570783
1210.569351
1210.568058
1210.567077
1210.557961
1210.57664
1210.587228
1210.591836
1210.592723
1210.591505
1210.589227
1210.586487
1210.583633
1210.580831
1210.578186
1210.575796
1210.57363
1210.571751
1210.570308
1210.538545
1210.551445
1210.562039
1210.569389
1210.5738
1210.575902
1210.576423
1210.575937
1210.57485
1210.573466
1210.571969
1210.570442
1210.568975
1210.567691
1210.566682
1210.526769
1210.532719
1210.538979
1210.544656
1210.549336
1210.552912
1210.555472
1210.557228
1210.558349
1210.55904
1210.559352
1210.559447
1210.559423
1210.559291
1210.559163
1210.524105
1210.527064
1210.530306
1210.533533
1210.536541
1210.539278
1210.541668
1210.543727
1210.545465
1210.546962
1210.548226
1210.549286
1210.550133
1210.550753
1210.521157
1210.522688
1210.52459
1210.526739
1210.529044
1210.531399
1210.533724
1210.535954
1210.538008
1210.539937
1210.54169
1210.543251
1210.544601
1210.54565
1210.519686
1210.520267
1210.521129
1210.522292
1210.523734
1210.525368
1210.527134
1210.529008
1210.530953
1210.532877
1210.534761
1210.536584
1210.538305
1210.53987
1210.54109
1210.520156
1210.521229
1210.522772
1210.524645
1210.526723
1210.528928
1210.531148
1210.533316
1210.53537
1210.537321
1210.539139
1210.540819
1210.542337
1210.543699
1210.544693
1210.521942
1210.524319
1210.527292
1210.530512
1210.533721
1210.536729
1210.539464
1210.541857
1210.543933
1210.545708
1210.547204
1210.54843
1210.549494
1210.550349
1210.550963
1210.524611
1210.529141
1210.534071
1210.538771
1210.542907
1210.546324
1210.549055
1210.551163
1210.552764
1210.553959
1210.554849
1210.555485
1210.555936
1210.556235
1210.556443
1210.527951
1210.534209
1210.540153
1210.545207
1210.549235
1210.552299
1210.554558
1210.556192
1210.557297
1210.558037
1210.558533
1210.558811
1210.558942
1210.558993
1210.558982
1210.524654
1210.529186
1210.534117
1210.538828
1210.542935
1210.54633
1210.549051
1210.551162
1210.552772
1210.55399
1210.55488
1210.555523
1210.555993
1210.556298
1210.556471
1210.521829
1210.524243
1210.527229
1210.530482
1210.533705
1210.536735
1210.539457
1210.541842
1210.543893
1210.545656
1210.547176
1210.54843
1210.549475
1210.550356
1210.550997
1210.520264
1210.521374
1210.522897
1210.524747
1210.526874
1210.529096
1210.5313
1210.533445
1210.535514
1210.537497
1210.539319
1210.541009
1210.542541
1210.543883
1210.544896
1210.520397
1210.521282
1210.522447
1210.523862
1210.525494
1210.52729
1210.529188
1210.531096
1210.533031
1210.534923
1210.536735
1210.538455
1210.54003
1210.541247
1210.519401
1210.519757
1210.520295
1210.52104
1210.522032
1210.52328
1210.524685
1210.526261
1210.527964
1210.529727
1210.531531
1210.533331
1210.535093
1210.536736
1210.538013
1210.51942
1210.520024
1210.520884
1210.522043
1210.523457
1210.525069
1210.526884
1210.528793
1210.53076
1210.532658
1210.534554
1210.536371
1210.538091
1210.539685
1210.540902
1210.520369
1210.521498
1210.52301
1210.524934
1210.527089
1210.529406
1210.531773
1210.534067
1210.536279
1210.538347
1210.540283
1210.542039
1210.543599
1210.544971
1210.546002
1210.520993
1210.522799
1210.525198
1210.527953
1210.530825
1210.533716
1210.536483
1210.539054
1210.54137
1210.54346
1210.545244
1210.546814
1210.548157
1210.549301
1210.550126
1210.52146
1210.523796
1210.526671
1210.529802
1210.532947
1210.536026
1210.538857
1210.541418
1210.543716
1210.545682
1210.547399
1210.548863
1210.550093
1210.551094
1210.551845
1210.520933
1210.522792
1210.5252
1210.527923
1210.530834
1210.533725
1210.536501
1210.539069
1210.541399
1210.543471
1210.545277
1210.546856
1210.548205
1210.549344
1210.550185
1210.520363
1210.521455
1210.523
1210.524909
1210.527068
1210.529359
1210.531735
1210.534041
1210.536253
1210.538322
1210.540219
1210.541973
1210.543548
1210.54493
1210.545941
1210.519299
1210.519879
1210.520755
1210.521931
1210.523334
1210.524958
1210.526776
1210.52867
1210.53063
1210.53256
1210.534439
1210.536268
1210.537984
1210.539556
1210.540772
1210.519192
1210.51957
1210.520116
1210.520908
1210.521896
1210.523125
1210.524544
1210.526128
1210.527816
1210.529607
1210.531402
1210.533204
1210.534999
1210.536655
1210.537943
)
;

boundaryField
{
    top
    {
        type            calculated;
        value           nonuniform List<scalar> 
127
(
1210.519192
1210.519818
1210.520265
1210.521
1210.522906
1210.52387
1210.523155
1210.521157
1210.520397
1210.51957
1210.520362
1210.52112
1210.522525
1210.525281
1210.526744
1210.525564
1210.522688
1210.521282
1210.520116
1210.521116
1210.522279
1210.524431
1210.528017
1210.529884
1210.528292
1210.52459
1210.522447
1210.520908
1210.522123
1210.523693
1210.526593
1210.530928
1210.533054
1210.531224
1210.526739
1210.523862
1210.521896
1210.523344
1210.525347
1210.528905
1210.533823
1210.53612
1210.534116
1210.529044
1210.525494
1210.523125
1210.524753
1210.527141
1210.531245
1210.536585
1210.538973
1210.536882
1210.531399
1210.52729
1210.524544
1210.526329
1210.529072
1210.533525
1210.539167
1210.541561
1210.53943
1210.533724
1210.529188
1210.526128
1210.528037
1210.531012
1210.535746
1210.541474
1210.543858
1210.541752
1210.535954
1210.531096
1210.527816
1210.529819
1210.532944
1210.537836
1210.543538
1210.545851
1210.543799
1210.538008
1210.533031
1210.529607
1210.531623
1210.534834
1210.539745
1210.545326
1210.54756
1210.545602
1210.539937
1210.534923
1210.531402
1210.533428
1210.536657
1210.541523
1210.546907
1210.549035
1210.54719
1210.54169
1210.536735
1210.533204
1210.535192
1210.538382
1210.543112
1210.548265
1210.550279
1210.548529
1210.543251
1210.538455
1210.534999
1210.536844
1210.539966
1210.544452
1210.54941
1210.551265
1210.549665
1210.544601
1210.54003
1210.536655
1210.538147
1210.541196
1210.545453
1210.550234
1210.551977
1210.55048
1210.54565
1210.541247
1210.537943
)
;
    }
    bottom
    {
        type            calculated;
        value           nonuniform List<scalar> 
134
(
1210.519483
1210.52021
1210.521278
1210.521749
1210.521047
1210.52017
1210.519686
1210.519401
1210.51968
1210.520051
1210.521296
1210.523102
1210.524081
1210.522881
1210.521256
1210.520267
1210.519757
1210.520224
1210.520932
1210.522829
1210.525497
1210.52695
1210.525259
1210.522788
1210.521129
1210.520295
1210.520989
1210.522087
1210.524737
1210.528244
1210.530065
1210.528001
1210.524674
1210.522292
1210.52104
1210.522006
1210.523505
1210.526902
1210.53115
1210.533243
1210.530904
1210.526851
1210.523734
1210.522032
1210.523202
1210.525129
1210.529188
1210.534073
1210.53629
1210.533797
1210.529159
1210.525368
1210.52328
1210.524646
1210.52693
1210.531544
1210.536832
1210.539118
1210.536549
1210.531507
1210.527134
1210.524685
1210.526221
1210.52881
1210.533882
1210.53938
1210.541683
1210.539107
1210.53383
1210.529008
1210.526261
1210.527931
1210.530747
1210.536104
1210.541724
1210.543957
1210.541414
1210.536037
1210.530953
1210.527964
1210.529703
1210.532679
1210.538182
1210.543778
1210.545937
1210.543484
1210.538117
1210.532877
1210.529727
1210.531508
1210.534578
1210.54008
1210.545596
1210.547639
1210.545298
1210.54004
1210.534761
1210.531531
1210.533301
1210.536405
1210.541856
1210.547175
1210.54911
1210.546892
1210.541771
1210.536584
1210.533331
1210.53507
1210.538143
1210.543437
1210.548515
1210.550331
1210.548253
1210.543319
1210.538305
1210.535093
1210.536707
1210.539715
1210.544837
1210.549644
1210.551323
1210.549416
1210.544686
1210.53987
1210.536736
1210.538015
1210.540928
1210.545877
1210.550465
1210.552064
1210.55026
1210.545718
1210.54109
1210.538013
)
;
    }
    side-walls
    {
        type            calculated;
        value           nonuniform List<scalar> 
261
(
1210.51968
1210.520204
1210.521243
1210.522925
1210.524043
1210.523165
1210.521428
1210.520083
1210.519818
1210.520224
1210.521086
1210.522771
1210.525299
1210.526914
1210.525541
1210.522952
1210.520952
1210.520362
1210.520989
1210.522257
1210.52468
1210.528033
1210.530055
1210.528289
1210.52486
1210.522132
1210.521116
1210.522006
1210.523666
1210.526849
1210.530941
1210.533229
1210.531204
1210.527008
1210.523564
1210.522123
1210.523202
1210.525343
1210.529151
1210.533826
1210.53629
1210.534082
1210.529322
1210.525194
1210.523344
1210.524646
1210.527116
1210.531503
1210.536581
1210.539143
1210.536862
1210.531669
1210.526987
1210.524753
1210.526221
1210.528998
1210.533811
1210.539139
1210.541691
1210.539426
1210.533979
1210.528877
1210.526329
1210.527931
1210.530945
1210.536023
1210.541477
1210.54396
1210.541744
1210.536225
1210.53082
1210.528037
1210.529703
1210.532852
1210.538097
1210.54356
1210.545937
1210.54383
1210.538297
1210.532752
1210.529819
1210.531508
1210.534759
1210.539999
1210.545361
1210.547644
1210.545643
1210.540212
1210.534639
1210.531623
1210.533301
1210.536578
1210.54174
1210.546921
1210.549118
1210.54721
1210.54198
1210.536459
1210.533428
1210.53507
1210.538318
1210.543324
1210.548299
1210.550331
1210.548571
1210.543582
1210.538194
1210.535192
1210.536707
1210.539869
1210.544696
1210.549431
1210.551351
1210.549723
1210.544946
1210.539729
1210.536844
1210.538015
1210.541089
1210.545737
1210.550246
1210.552057
1210.55055
1210.545977
1210.540936
1210.538147
1210.519401
1210.51942
1210.520369
1210.520993
1210.52146
1210.520933
1210.520363
1210.519299
1210.519192
1210.519757
1210.520024
1210.521498
1210.522799
1210.523796
1210.522792
1210.521455
1210.519879
1210.51957
1210.520295
1210.520884
1210.52301
1210.525198
1210.526671
1210.5252
1210.523
1210.520755
1210.520116
1210.52104
1210.522043
1210.524934
1210.527953
1210.529802
1210.527923
1210.524909
1210.521931
1210.520908
1210.522032
1210.523457
1210.527089
1210.530825
1210.532947
1210.530834
1210.527068
1210.523334
1210.521896
1210.52328
1210.525069
1210.529406
1210.533716
1210.536026
1210.533725
1210.529359
1210.524958
1210.523125
1210.524685
1210.526884
1210.531773
1210.536483
1210.538857
1210.536501
1210.531735
1210.526776
1210.524544
1210.526261
1210.528793
1210.534067
1210.539054
1210.541418
1210.539069
1210.534041
1210.52867
1210.526128
1210.527964
1210.53076
1210.536279
1210.54137
1210.543716
1210.541399
1210.536253
1210.53063
1210.527816
1210.529727
1210.532658
1210.538347
1210.54346
1210.545682
1210.543471
1210.538322
1210.53256
1210.529607
1210.531531
1210.534554
1210.540283
1210.545244
1210.547399
1210.545277
1210.540219
1210.534439
1210.531402
1210.533331
1210.536371
1210.542039
1210.546814
1210.548863
1210.546856
1210.541973
1210.536268
1210.533204
1210.535093
1210.538091
1210.543599
1210.548157
1210.550093
1210.548205
1210.543548
1210.537984
1210.534999
1210.536736
1210.539685
1210.544971
1210.549301
1210.551094
1210.549344
1210.54493
1210.539556
1210.536655
1210.538013
1210.540902
1210.546002
1210.550126
1210.551845
1210.550185
1210.545941
1210.540772
1210.537943
)
;
    }
    inlet
    {
        type            calculated;
        value           nonuniform 0();
    }
    outlet
    {
        type            calculated;
        value           nonuniform List<scalar> 
81
(
1210.538015
1210.541089
1210.545737
1210.550246
1210.552057
1210.55055
1210.545977
1210.540936
1210.538147
1210.540928
1210.544613
1210.551132
1210.556424
1210.55891
1210.5562
1210.551226
1210.544571
1210.541196
1210.545877
1210.551435
1210.559057
1210.566458
1210.570215
1210.567062
1210.559054
1210.551181
1210.545453
1210.550465
1210.556704
1210.566993
1210.577207
1210.576819
1210.576812
1210.567186
1210.556374
1210.550234
1210.552064
1210.55876
1210.570273
1210.577312
1208.438305
1210.577273
1210.570475
1210.558553
1210.551977
1210.55026
1210.556466
1210.567123
1210.576676
1210.577209
1210.577018
1210.566782
1210.556612
1210.55048
1210.545718
1210.550999
1210.559002
1210.567077
1210.570308
1210.566682
1210.559163
1210.550753
1210.54565
1210.54109
1210.544693
1210.550963
1210.556443
1210.558982
1210.556471
1210.550997
1210.544896
1210.541247
1210.538013
1210.540902
1210.546002
1210.550126
1210.551845
1210.550185
1210.545941
1210.540772
1210.537943
)
;
    }
    procBoundary1to0
    {
        type            processor;
        value           nonuniform List<scalar> 
97
(
1210.519333
1210.519333
1210.51964
1210.520128
1210.521081
1210.521737
1210.521343
1210.52032
1210.519521
1210.519502
1210.519133
1210.520108
1210.520108
1210.520108
1210.5221
1210.524723
1210.527852
1210.524408
1210.522133
1210.519917
1210.519674
1210.519533
1210.520738
1210.526663
1210.526663
1210.526663
1210.538177
1210.557837
1210.538955
1210.526615
1210.522126
1210.519893
1210.520102
1210.521559
1210.526919
1210.587067
1210.587067
1210.587067
1210.717463
1210.586816
1210.539023
1210.524502
1210.521081
1210.520156
1210.522436
1210.53298
1210.573953
1209.7186
1209.7186
1209.7186
1210.717919
1210.717919
1210.558072
1210.527528
1210.521538
1210.519869
1210.521293
1210.527013
1210.5425
1210.573889
1210.542881
1210.538578
1210.538578
1210.538578
1210.524726
1210.521339
1210.519495
1210.520423
1210.522065
1210.52698
1210.533028
1210.526717
1210.522317
1210.521685
1210.521685
1210.521685
1210.520063
1210.519344
1210.519474
1210.520369
1210.521288
1210.522705
1210.521315
1210.520245
1210.519572
1210.519827
1210.519827
1210.519827
1210.519215
1210.519072
1210.519685
1210.519797
1210.519879
1210.519731
1210.5197
1210.518931
1210.519036
)
;
    }
}


// ************************************************************************* //
