/*--------------------------------*- C++ -*----------------------------------*\
| =========                 |                                                 |
| \\      /  F ield         | OpenFOAM: The Open Source CFD Toolbox           |
|  \\    /   O peration     | Version:  4.x                                   |
|   \\  /    A nd           | Web:      www.OpenFOAM.org                      |
|    \\/     M anipulation  |                                                 |
\*---------------------------------------------------------------------------*/
FoamFile
{
    version     2.0;
    format      ascii;
    class       volScalarField;
    location    "1000";
    object      molarConc;
}
// * * * * * * * * * * * * * * * * * * * * * * * * * * * * * * * * * * * * * //

dimensions      [0 -3 0 0 1 0 0];

internalField   nonuniform List<scalar> 
1174
(
9.963276487
9.963276277
9.963276219
9.963275203
9.963276621
9.963275336
9.963275722
9.9632752
9.963275374
9.963275659
9.96327638
9.963275951
9.963276345
9.963275629
9.963275574
9.963274689
9.96327391
9.963274498
9.963272217
9.963273253
9.963273663
9.963272846
9.963273976
9.963272945
9.963272824
9.963271672
9.963272343
9.963271785
9.963280034
9.963280343
9.963279893
9.963279511
9.963279914
9.963279838
9.963280014
9.963279986
9.963280055
9.963280815
9.963281308
9.963280856
9.963281059
9.96328063
9.963277858
9.963278508
9.963278971
9.963278636
9.963279155
9.963279777
9.963279977
9.96327895
9.963277813
9.963278319
9.963279024
9.96327757
9.963277475
9.963277888
9.96328099
9.963280042
9.963278755
9.96327827
9.963277825
9.963277099
9.963278202
9.963278647
9.963279083
9.963279197
9.963278145
9.963278854
9.963278066
9.963278856
9.96326476
9.963265245
9.963264956
9.963264247
9.96326511
9.963264333
9.963264253
9.963264283
9.963263026
9.963262863
9.963263136
9.963262632
9.963261471
9.963261237
9.96326989
9.963270408
9.963270007
9.963270795
9.963270521
9.963270775
9.963270792
9.963268954
9.963269079
9.963269135
9.963268114
9.963266711
9.963267361
9.96326748
9.963282188
9.963282029
9.963280721
9.963280085
9.963280352
9.963280294
9.963280281
9.963279655
9.963279466
9.963279466
9.963279321
9.963278422
9.963280009
9.963280149
9.96326891
9.963268721
9.963269279
9.963268766
9.963268863
9.963269484
9.96326979
9.963269342
9.963269016
9.963269351
9.963269364
9.963269258
9.963268831
9.963268402
9.963283011
9.96328391
9.963283148
9.963283201
9.963283308
9.963283893
9.963283458
9.963283966
9.963283672
9.963283492
9.963282824
9.96328231
9.963281221
9.963280815
9.963280624
9.963283631
9.963282854
9.963283408
9.963283791
9.963284821
9.963284243
9.963284183
9.963284155
9.963284932
9.963284732
9.963285918
9.963286037
9.963285254
9.963285926
9.96326005
9.963259336
9.963259496
9.963259958
9.963259902
9.963259941
9.963261189
9.963261741
9.96326196
9.963261354
9.963261029
9.963261901
9.963262313
9.963263064
9.963280947
9.963280052
9.963280455
9.963281366
9.963282621
9.963281995
9.963282053
9.963281515
9.963281674
9.963282877
9.963283859
9.963285989
9.963286274
9.96328597
9.963279109
9.963278143
9.963278139
9.963278005
9.963277272
9.963278017
9.963277538
9.963277948
9.963278125
9.963276735
9.963278003
9.963278663
9.963278962
9.963279109
9.963298894
9.963298176
9.963297578
9.963296675
9.963296115
9.963294527
9.963295644
9.963295778
9.963295607
9.963296338
9.963294665
9.963295933
9.963296005
9.963298222
9.963260253
9.963260083
9.963259995
9.963259712
9.963260099
9.963259397
9.96325945
9.963258927
9.963260574
9.963260906
9.963261012
9.963260271
9.963259665
9.963257897
9.963292944
9.96329272
9.963293483
9.963293274
9.963292925
9.963292373
9.963292549
9.963291517
9.96329195
9.963290119
9.963289814
9.96328796
9.963287605
9.96328823
9.963272179
9.963272866
9.963272714
9.963273
9.963271943
9.963271864
9.963269607
9.963269167
9.963268937
9.963268807
9.963268482
9.963268135
9.963267045
9.963265901
9.963276268
9.963277088
9.96327716
9.963276761
9.963276623
9.963277892
9.963277601
9.963276118
9.963275596
9.963275409
9.963276416
9.963274934
9.963274633
9.963273337
9.963272943
9.963248285
9.963247452
9.963247056
9.963247667
9.963248093
9.963247269
9.96324747
9.963247751
9.963246958
9.963247824
9.963247351
9.963247184
9.963246702
9.963246188
9.963246464
9.963283186
9.963284033
9.963283173
9.963282271
9.963281488
9.963280708
9.963281337
9.963281755
9.963283554
9.963283678
9.963282097
9.963281597
9.963280514
9.96328136
9.963309566
9.963309196
9.963308217
9.963306667
9.96330686
9.963306163
9.963305505
9.963304787
9.96330575
9.963304232
9.963303788
9.963302812
9.963303343
9.96330431
9.963276343
9.963277008
9.963276974
9.963277175
9.963277223
9.963276707
9.963274227
9.963275875
9.963275097
9.963275807
9.963276812
9.963276291
9.963276905
9.963277335
9.963266669
9.963266215
9.963267288
9.963267907
9.963267633
9.963267838
9.963270369
9.96327068
9.963270736
9.963271092
9.963271755
9.96327057
9.963270811
9.963271241
9.96328324
9.963281602
9.963282353
9.96328086
9.96328111
9.963279964
9.963281002
9.963281113
9.963280647
9.963279969
9.963278305
9.963279641
9.963280053
9.963281491
9.9632587
9.963259058
9.963259427
9.963259559
9.963260176
9.963258745
9.963258887
9.963260075
9.963258529
9.963259581
9.963261044
9.963261227
9.963259732
9.963260314
9.963293326
9.963293782
9.9632935
9.963293525
9.963293382
9.963293943
9.963295636
9.963295148
9.963294312
9.96329469
9.96329311
9.963292435
9.963294368
9.963296144
9.963267489
9.963268151
9.963267637
9.963267428
9.9632672
9.963265634
9.963265986
9.963266808
9.963265414
9.963265834
9.96326544
9.963265056
9.963265691
9.963265798
9.96326586
9.963271828
9.963270763
9.963271271
9.963272594
9.963271344
9.963271982
9.963270751
9.963270782
9.963270671
9.963269774
9.963269387
9.963270674
9.963270627
9.963269356
9.96327061
9.96327641
9.963274192
9.963273311
9.963272865
9.963273913
9.963274889
9.963275506
9.963274761
9.963275163
9.963275224
9.963275222
9.963275717
9.963274967
9.963275008
9.96327503
9.963261038
9.963257948
9.963258079
9.963258935
9.963259722
9.963258866
9.963259922
9.963260888
9.963261572
9.963261916
9.963260967
9.963262238
9.963261552
9.96325837
9.963493135
9.963494876
9.963498198
9.963500358
9.963503015
9.963503146
9.963503324
9.963504092
9.963505712
9.96350573
9.963505672
9.963505801
9.963507975
9.963508281
9.963274878
9.963274397
9.963275865
9.963275948
9.96327731
9.963278035
9.963277901
9.963278484
9.96327864
9.963278087
9.963278319
9.963279122
9.963280101
9.96327997
9.96326276
9.963262001
9.963261703
9.963261213
9.963260809
9.96326011
9.963260756
9.963260797
9.963261032
9.963261741
9.963262745
9.963264746
9.963263581
9.963264431
9.963291994
9.963290652
9.963289617
9.963289415
9.963289202
9.963288779
9.963287481
9.963287855
9.963286029
9.963285874
9.963286785
9.963286902
9.96328787
9.963288648
9.963278902
9.963279488
9.963279848
9.96327937
9.963279296
9.963279509
9.963278435
9.963279046
9.963278979
9.963280197
9.963279734
9.963279375
9.963278591
9.963278497
9.963279039
9.963278922
9.963278008
9.96327823
9.963277481
9.963277814
9.963278456
9.963278655
9.963278813
9.963279086
9.963279442
9.963278605
9.96327886
9.963279607
9.963278468
9.963289457
9.963289106
9.96329109
9.963290323
9.96328895
9.963286818
9.963286985
9.963288314
9.963287867
9.963288267
9.963287833
9.963289007
9.963288987
9.963288328
9.963287285
9.963275727
9.96327603
9.963274503
9.963273794
9.963274452
9.963275029
9.963274237
9.9632747
9.963275309
9.963275443
9.963274473
9.963272693
9.963273923
9.963273879
9.963274197
9.963463875
9.963464209
9.963466177
9.963470241
9.963470843
9.963471493
9.963471867
9.963472627
9.963474091
9.963475074
9.963476962
9.963477868
9.963479022
9.963479828
9.963481288
10.07875118
10.07898573
10.07920283
10.07941115
10.07961678
10.07981881
10.08001976
10.08022001
10.08042093
10.0806224
10.08082346
10.08102257
10.08122387
10.08142584
9.963467679
9.963469606
9.963471968
9.963473784
9.96347381
9.963475463
9.963477071
9.96347835
9.963478153
9.963478651
9.963480654
9.963480724
9.963482695
9.963483429
9.963264621
9.963264468
9.963264001
9.963264236
9.963265006
9.963264645
9.963264258
9.963264963
9.963264491
9.963265269
9.963263797
9.963264136
9.963263912
9.963263075
9.963297935
9.963298955
9.963299965
9.963299935
9.963299589
9.96329867
9.96329899
9.963298781
9.963299044
9.963298197
9.963298087
9.963297355
9.963298168
9.963298606
9.963290484
9.963289338
9.963288137
9.963287858
9.963287101
9.963286369
9.96328528
9.963284202
9.963283764
9.963283734
9.963282646
9.963281658
9.963282708
9.96328316
9.963280157
9.963280277
9.963280648
9.96328072
9.963280642
9.963280699
9.963281465
9.963281704
9.963282367
9.963281934
9.96328175
9.963280572
9.96328005
9.963278298
9.963277113
9.963287194
9.96328518
9.963286593
9.963286184
9.963286789
9.963285655
9.963286455
9.963286214
9.963285784
9.963285731
9.963286415
9.963287305
9.963285807
9.963283294
9.96328366
9.963272562
9.96327224
9.963270492
9.963269759
9.96326955
9.963267972
9.963267146
9.96326837
9.963268803
9.963269769
9.963270074
9.963270266
9.963269682
9.963268783
9.963267877
9.963286151
9.963285395
9.963285398
9.96328493
9.963285271
9.963285952
9.963285914
9.963283691
9.963284494
9.963284696
9.963284746
9.963286204
9.963286072
9.963286706
9.963287419
9.96346775
9.963468115
9.963470699
9.9634741
9.963475412
9.963477039
9.963478456
9.963480769
9.963480604
9.963482361
9.963482563
9.96348425
9.963485666
9.963486148
9.96348688
9.963268267
9.963268437
9.963268277
9.963268919
9.96326918
9.963267938
9.963267846
9.963266433
9.963267012
9.963265341
9.963266042
9.963267193
9.963266199
9.963268623
9.96326868
9.963287281
9.963286302
9.963285808
9.963285893
9.963286521
9.963287277
9.963286561
9.963286764
9.963287025
9.963287005
9.963285479
9.963284699
9.963284837
9.963286488
9.963279984
9.963279035
9.963279147
9.963280001
9.963279648
9.963277819
9.963277552
9.963278099
9.96327767
9.963277857
9.963276929
9.963277004
9.963276349
9.963275588
9.963265279
9.963263947
9.963264804
9.963263114
9.963263254
9.963263222
9.963264004
9.96326384
9.963264649
9.963265068
9.963264226
9.963264883
9.96326461
9.963264997
9.963278489
9.963279264
9.963279406
9.963280191
9.96327943
9.963279461
9.963279643
9.963278949
9.963279199
9.963278933
9.963278557
9.963279537
9.963281062
9.963281558
9.963281629
9.963267166
9.963267745
9.963268379
9.963267935
9.963267402
9.963266834
9.963267892
9.96326724
9.963267909
9.963267214
9.963267522
9.963268095
9.963269517
9.963269775
9.963270315
9.963287567
9.963288678
9.963287184
9.96328653
9.963286259
9.963285762
9.963284765
9.963284483
9.963285415
9.963284668
9.963283962
9.96328422
9.963284428
9.963283882
9.963284296
9.9632744
9.963273295
9.96327416
9.963272977
9.963271967
9.963270997
9.96327181
9.963272138
9.963271254
9.963272211
9.96327201
9.963271925
9.963271682
9.963271237
9.963270353
9.963271067
9.963270694
9.963270563
9.963270787
9.963271066
9.96327159
9.963271287
9.963270693
9.963269875
9.963270189
9.963271311
9.963270436
9.963270527
9.963270309
9.963272182
9.963289692
9.963289198
9.963289523
9.963289429
9.963287487
9.963287215
9.963287347
9.963287647
9.96328866
9.963289253
9.96328929
9.963290582
9.963292222
9.963291296
9.963292006
9.963276368
9.96327678
9.963276968
9.963277538
9.963277519
9.963277715
9.963278619
9.963278377
9.963278076
9.963275738
9.963276183
9.963276326
9.96327523
9.963275737
9.963275464
9.963282264
9.963282579
9.963281837
9.963281499
9.963282422
9.963281918
9.963282037
9.963282043
9.963282876
9.963282209
9.963281703
9.963281559
9.96328304
9.963283766
9.963284731
9.963284847
9.963284789
9.963285525
9.963285716
9.963285502
9.963284742
9.963283756
9.963284839
9.963284173
9.963283959
9.963284763
9.963286218
9.96328535
9.963271931
9.96327208
9.963272358
9.96327197
9.963270731
9.963270833
9.963272252
9.963273109
9.963272376
9.963272581
9.963272779
9.963272497
9.963272321
9.963272286
9.963271726
9.963280106
9.96328204
9.963281004
9.963280357
9.963280922
9.963280813
9.963281051
9.963281452
9.963282729
9.963282804
9.963282465
9.963281799
9.963281717
9.9632804
9.963281502
9.963269861
9.963270508
9.963270066
9.96327052
9.963271184
9.963272179
9.963271777
9.96327169
9.963270783
9.963269589
9.963268978
9.963270512
9.963270186
9.963271227
9.963272267
9.963287016
9.963287036
9.963287308
9.963287558
9.963286766
9.963286557
9.963285927
9.963285854
9.963285679
9.963285464
9.96328468
9.963284605
9.963284687
9.96328553
9.963284875
9.963274878
9.963274566
9.963274523
9.963274338
9.963274031
9.963274357
9.963274735
9.963274296
9.963275706
9.963276598
9.963275723
9.963275691
9.963275867
9.963275146
9.96327506
9.963284657
9.963284555
9.963284793
9.963284408
9.963285193
9.963286227
9.963286177
9.963285936
9.963285207
9.963283787
9.963282977
9.963282455
9.963281498
9.963282089
9.963283323
9.963276017
9.963274708
9.963273535
9.963272183
9.963272072
9.963271813
9.963272155
9.963272513
9.963272924
9.963272424
9.963270469
9.963270486
9.963271172
9.963270847
9.963270347
9.963274197
9.963274124
9.96327415
9.963274782
9.96327262
9.963271624
9.963272722
9.963274359
9.963274844
9.963273136
9.963272596
9.963271352
9.963270487
9.963270309
9.963270386
9.963264981
9.96326399
9.963263467
9.963263721
9.963263894
9.963263697
9.96326324
9.963264536
9.96326418
9.963263898
9.963264184
9.9632641
9.96326349
9.963263083
9.963272778
9.963272275
9.963272378
9.963273417
9.963273726
9.963272354
9.963273229
9.963273526
9.963273354
9.963274019
9.963274341
9.963274719
9.963274643
9.96327476
9.963275706
9.96328649
9.963285419
9.963285743
9.963285582
9.963285918
9.963287209
9.963285926
9.963284882
9.963282966
9.963284616
9.963284153
9.963284165
9.963284058
9.963282389
9.963282021
9.963267548
9.963266043
9.963267218
9.963265966
9.963266371
9.963265924
9.963265018
9.96326599
9.963265948
9.963266326
9.963265258
9.963264859
9.963265725
9.963265973
9.963266067
9.963283113
9.963284749
9.963284012
9.963283354
9.963284954
9.96328515
9.963285098
9.963284582
9.963284721
9.96328323
9.963284678
9.963284818
9.963285242
9.963284536
9.963284372
9.963294866
9.963294494
9.963293277
9.963292612
9.963293684
9.963292255
9.963292673
9.9632931
9.963291953
9.963292973
9.963292533
9.963292044
9.963291834
9.963292105
9.963290383
9.963286404
9.963285161
9.963283894
9.963284952
9.963284453
9.96328461
9.963284092
9.963283748
9.963283125
9.963282629
9.96328281
9.963282498
9.963282639
9.963282184
9.963281121
9.963267921
9.963268375
9.963267762
9.963267321
9.963267499
9.963268477
9.963267102
9.963267399
9.963267356
9.963267646
9.963268709
9.963268443
9.963268498
9.96326818
9.963269382
9.963293117
9.963293358
9.963292837
9.96329173
9.963292675
9.963293282
9.963291831
9.963291579
9.963290043
9.963289925
9.963290383
9.963289786
9.963289881
9.963289459
9.963289087
9.963284236
9.963282492
9.963282169
9.963280641
9.963281217
9.963280852
9.963280919
9.963280769
9.963281463
9.963280592
9.963281422
9.963281623
9.963279799
9.963279139
9.963279541
)
;

boundaryField
{
    top
    {
        type            calculated;
        value           nonuniform List<scalar> 
127
(
9.963284236
9.96326891
9.963272179
9.963293326
9.963278902
9.963290484
9.963265279
9.963284731
9.963264981
9.963282492
9.963268721
9.963272866
9.963293782
9.963279488
9.963289338
9.963263947
9.963284847
9.96326399
9.963282169
9.963269279
9.963272714
9.9632935
9.963279848
9.963288137
9.963264804
9.963284789
9.963263467
9.963280641
9.963268766
9.963273
9.963293525
9.96327937
9.963287858
9.963263114
9.963285525
9.963263721
9.963281217
9.963268863
9.963271943
9.963293382
9.963279296
9.963287101
9.963263254
9.963285716
9.963263894
9.963280852
9.963269484
9.963271864
9.963293943
9.963279509
9.963286369
9.963263222
9.963285502
9.963263697
9.963280919
9.96326979
9.963269607
9.963295636
9.963278435
9.96328528
9.963264004
9.963284742
9.96326324
9.963280769
9.963269342
9.963269167
9.963295148
9.963279046
9.963284202
9.96326384
9.963283756
9.963264536
9.963281463
9.963269016
9.963268937
9.963294312
9.963278979
9.963283764
9.963264649
9.963284839
9.96326418
9.963280592
9.963269351
9.963268807
9.96329469
9.963280197
9.963283734
9.963265068
9.963284173
9.963263898
9.963281422
9.963269364
9.963268482
9.96329311
9.963279734
9.963282646
9.963264226
9.963283959
9.963264184
9.963281623
9.963269258
9.963268135
9.963292435
9.963279375
9.963281658
9.963264883
9.963284763
9.9632641
9.963279799
9.963268831
9.963267045
9.963294368
9.963278591
9.963282708
9.96326461
9.963286218
9.96326349
9.963279139
9.963268402
9.963265901
9.963296144
9.963278497
9.96328316
9.963264997
9.96328535
9.963263083
9.963279541
)
;
    }
    bottom
    {
        type            calculated;
        value           nonuniform List<scalar> 
134
(
9.963283011
9.963276268
9.963267489
9.963279039
9.963280157
9.963278489
9.963271931
9.963272778
9.963276487
9.96328391
9.963277088
9.963268151
9.963278922
9.963280277
9.963279264
9.96327208
9.963272275
9.963276277
9.963283148
9.96327716
9.963267637
9.963278008
9.963280648
9.963279406
9.963272358
9.963272378
9.963276219
9.963283201
9.963276761
9.963267428
9.96327823
9.96328072
9.963280191
9.96327197
9.963273417
9.963275203
9.963283308
9.963276623
9.9632672
9.963277481
9.963280642
9.96327943
9.963270731
9.963273726
9.963276621
9.963283893
9.963277892
9.963265634
9.963277814
9.963280699
9.963279461
9.963270833
9.963272354
9.963275336
9.963283458
9.963277601
9.963265986
9.963278456
9.963281465
9.963279643
9.963272252
9.963273229
9.963275722
9.963283966
9.963276118
9.963266808
9.963278655
9.963281704
9.963278949
9.963273109
9.963273526
9.9632752
9.963283672
9.963275596
9.963265414
9.963278813
9.963282367
9.963279199
9.963272376
9.963273354
9.963275374
9.963283492
9.963275409
9.963265834
9.963279086
9.963281934
9.963278933
9.963272581
9.963274019
9.963275659
9.963282824
9.963276416
9.96326544
9.963279442
9.96328175
9.963278557
9.963272779
9.963274341
9.96327638
9.96328231
9.963274934
9.963265056
9.963278605
9.963280572
9.963279537
9.963272497
9.963274719
9.963275951
9.963281221
9.963274633
9.963265691
9.96327886
9.96328005
9.963281062
9.963272321
9.963274643
9.963276345
9.963280815
9.963273337
9.963265798
9.963279607
9.963278298
9.963281558
9.963272286
9.96327476
9.963275629
9.963280624
9.963272943
9.96326586
9.963278468
9.963277113
9.963281629
9.963271726
9.963275706
)
;
    }
    side-walls
    {
        type            calculated;
        value           nonuniform List<scalar> 
261
(
9.963276487
9.963275574
9.963280034
9.963277858
9.96328099
9.96326476
9.96326989
9.963282188
9.96326891
9.963276277
9.963274689
9.963280343
9.963278508
9.963280042
9.963265245
9.963270408
9.963282029
9.963268721
9.963276219
9.96327391
9.963279893
9.963278971
9.963278755
9.963264956
9.963270007
9.963280721
9.963269279
9.963275203
9.963274498
9.963279511
9.963278636
9.96327827
9.963264247
9.963270795
9.963280085
9.963268766
9.963276621
9.963272217
9.963279914
9.963279155
9.963277825
9.96326511
9.963270521
9.963280352
9.963268863
9.963275336
9.963273253
9.963279838
9.963279777
9.963277099
9.963264333
9.963270775
9.963280294
9.963269484
9.963275722
9.963273663
9.963280014
9.963279977
9.963278202
9.963264253
9.963270792
9.963280281
9.96326979
9.9632752
9.963272846
9.963279986
9.96327895
9.963278647
9.963264283
9.963268954
9.963279655
9.963269342
9.963275374
9.963273976
9.963280055
9.963277813
9.963279083
9.963263026
9.963269079
9.963279466
9.963269016
9.963275659
9.963272945
9.963280815
9.963278319
9.963279197
9.963262863
9.963269135
9.963279466
9.963269351
9.96327638
9.963272824
9.963281308
9.963279024
9.963278145
9.963263136
9.963268114
9.963279321
9.963269364
9.963275951
9.963271672
9.963280856
9.96327757
9.963278854
9.963262632
9.963266711
9.963278422
9.963269258
9.963276345
9.963272343
9.963281059
9.963277475
9.963278066
9.963261471
9.963267361
9.963280009
9.963268831
9.963275629
9.963271785
9.96328063
9.963277888
9.963278856
9.963261237
9.96326748
9.963280149
9.963268402
9.963272778
9.96328649
9.963267548
9.963283113
9.963294866
9.963286404
9.963267921
9.963293117
9.963284236
9.963272275
9.963285419
9.963266043
9.963284749
9.963294494
9.963285161
9.963268375
9.963293358
9.963282492
9.963272378
9.963285743
9.963267218
9.963284012
9.963293277
9.963283894
9.963267762
9.963292837
9.963282169
9.963273417
9.963285582
9.963265966
9.963283354
9.963292612
9.963284952
9.963267321
9.96329173
9.963280641
9.963273726
9.963285918
9.963266371
9.963284954
9.963293684
9.963284453
9.963267499
9.963292675
9.963281217
9.963272354
9.963287209
9.963265924
9.96328515
9.963292255
9.96328461
9.963268477
9.963293282
9.963280852
9.963273229
9.963285926
9.963265018
9.963285098
9.963292673
9.963284092
9.963267102
9.963291831
9.963280919
9.963273526
9.963284882
9.96326599
9.963284582
9.9632931
9.963283748
9.963267399
9.963291579
9.963280769
9.963273354
9.963282966
9.963265948
9.963284721
9.963291953
9.963283125
9.963267356
9.963290043
9.963281463
9.963274019
9.963284616
9.963266326
9.96328323
9.963292973
9.963282629
9.963267646
9.963289925
9.963280592
9.963274341
9.963284153
9.963265258
9.963284678
9.963292533
9.96328281
9.963268709
9.963290383
9.963281422
9.963274719
9.963284165
9.963264859
9.963284818
9.963292044
9.963282498
9.963268443
9.963289786
9.963281623
9.963274643
9.963284058
9.963265725
9.963285242
9.963291834
9.963282639
9.963268498
9.963289881
9.963279799
9.96327476
9.963282389
9.963265973
9.963284536
9.963292105
9.963282184
9.96326818
9.963289459
9.963279139
9.963275706
9.963282021
9.963266067
9.963284372
9.963290383
9.963281121
9.963269382
9.963289087
9.963279541
)
;
    }
    inlet
    {
        type            calculated;
        value           nonuniform 0();
    }
    outlet
    {
        type            calculated;
        value           nonuniform List<scalar> 
81
(
9.963275629
9.963271785
9.96328063
9.963277888
9.963278856
9.963261237
9.96326748
9.963280149
9.963268402
9.963280624
9.963285926
9.963263064
9.96328597
9.963279109
9.963298222
9.963257897
9.96328823
9.963265901
9.963272943
9.963246464
9.96328136
9.96330431
9.963277335
9.963271241
9.963281491
9.963260314
9.963296144
9.96326586
9.96327061
9.96327503
9.96325837
9.963508281
9.96327997
9.963264431
9.963288648
9.963278497
9.963278468
9.963287285
9.963274197
9.963481288
10.08142584
9.963483429
9.963263075
9.963298606
9.96328316
9.963277113
9.96328366
9.963267877
9.963287419
9.96348688
9.96326868
9.963286488
9.963275588
9.963264997
9.963281629
9.963270315
9.963284296
9.963270353
9.963272182
9.963292006
9.963275464
9.963283766
9.96328535
9.963271726
9.963281502
9.963272267
9.963284875
9.96327506
9.963283323
9.963270347
9.963270386
9.963263083
9.963275706
9.963282021
9.963266067
9.963284372
9.963290383
9.963281121
9.963269382
9.963289087
9.963279541
)
;
    }
    procBoundary1to0
    {
        type            processor;
        value           nonuniform List<scalar> 
97
(
9.963276496
9.963276496
9.963274431
9.963280766
9.963278296
9.963279681
9.963263906
9.963270244
9.963280938
9.963267205
9.963283298
9.963282734
9.963282734
9.963282734
9.963261209
9.963280898
9.963280311
9.96329811
9.963259381
9.963293191
9.963272588
9.963276326
9.963249078
9.96328219
9.96328219
9.96328219
9.963309838
9.963277699
9.963267161
9.963284755
9.96325974
9.963293613
9.963267092
9.963272445
9.963276859
9.963261284
9.963261284
9.963261284
9.963491188
9.963274646
9.963263473
9.963292954
9.963278269
9.963279833
9.96328899
9.963276113
9.963266735
10.07856856
10.07856856
10.07856856
9.963466337
9.963466337
9.96326486
9.963298073
9.963290613
9.963279854
9.963287011
9.963271705
9.963289947
9.963270284
9.963269007
9.963287935
9.963287935
9.963287935
9.963280744
9.963264122
9.963278431
9.963266354
9.963289996
9.963273524
9.963273466
9.963287897
9.963276184
9.963283954
9.963283954
9.963283954
9.963284333
9.963271778
9.963279887
9.963269303
9.963287289
9.963274242
9.963285824
9.963276086
9.963274554
9.963264204
9.963264204
9.963264204
9.963272032
9.963286645
9.963268034
9.963283797
9.963295016
9.963287438
9.963267184
9.963294375
9.963281878
)
;
    }
}


// ************************************************************************* //
