/*--------------------------------*- C++ -*----------------------------------*\
| =========                 |                                                 |
| \\      /  F ield         | OpenFOAM: The Open Source CFD Toolbox           |
|  \\    /   O peration     | Version:  4.x                                   |
|   \\  /    A nd           | Web:      www.OpenFOAM.org                      |
|    \\/     M anipulation  |                                                 |
\*---------------------------------------------------------------------------*/
FoamFile
{
    version     2.0;
    format      ascii;
    class       volScalarField;
    location    "1000";
    object      rhoeps;
}
// * * * * * * * * * * * * * * * * * * * * * * * * * * * * * * * * * * * * * //

dimensions      [1 -3 0 0 0 0 0];

internalField   nonuniform List<scalar> 
1174
(
0.2797554175
0.2797562733
0.279757493
0.2797590584
0.2797610472
0.2797633272
0.279765884
0.2797686255
0.279771483
0.2797743975
0.2797773264
0.2797801618
0.2797828105
0.2797848723
0.2797561892
0.2797575777
0.2797594034
0.2797617173
0.2797643003
0.2797672025
0.2797702622
0.2797733299
0.279776474
0.2797794669
0.2797823795
0.2797851107
0.279787625
0.2797896213
0.279758131
0.2797605836
0.2797636576
0.2797671256
0.2797708554
0.2797746501
0.279778365
0.2797819187
0.2797852503
0.2797883548
0.2797911994
0.2797937122
0.2797959464
0.2797975995
0.2797607322
0.2797645608
0.2797689963
0.2797736768
0.2797783094
0.2797827713
0.2797869227
0.279790636
0.2797939165
0.2797968504
0.2797993964
0.2798015317
0.2798033313
0.2798046709
0.2797626739
0.2797672382
0.2797722425
0.2797773133
0.2797822321
0.27978679
0.2797909531
0.2797946345
0.2797978327
0.279800561
0.2798028751
0.2798048621
0.2798064915
0.2798076373
0.2797603328
0.2797641926
0.2797685697
0.2797732638
0.2797779212
0.2797823577
0.2797864684
0.2797902264
0.2797935081
0.279796393
0.2797989359
0.279801104
0.2798029102
0.2798042519
0.2797578741
0.2797603268
0.2797633681
0.279766864
0.2797705839
0.2797743775
0.2797780743
0.2797816236
0.2797849424
0.2797880197
0.2797908294
0.2797933402
0.279795544
0.2797972203
0.2797563894
0.2797577863
0.2797596225
0.2797618634
0.2797644928
0.2797674044
0.2797704187
0.2797735142
0.2797766143
0.2797796616
0.2797825748
0.2797853275
0.2797878797
0.2797898187
0.2797552036
0.2797560533
0.2797572919
0.279758916
0.2797608639
0.2797631805
0.2797657157
0.279768442
0.2797712858
0.2797742179
0.2797771189
0.2797799678
0.2797825912
0.2797846763
0.2797554643
0.2797564239
0.2797577985
0.2797596819
0.2797619865
0.2797646156
0.2797674651
0.279770544
0.2797736242
0.2797767386
0.2797797474
0.2797826611
0.2797853761
0.2797878964
0.2797898546
0.2797582709
0.279760702
0.279763692
0.2797670768
0.2797706634
0.2797742124
0.2797776998
0.2797810566
0.2797842122
0.2797871358
0.2797898431
0.2797922978
0.2797944116
0.2797960737
0.2797622515
0.2797670191
0.2797722329
0.2797773825
0.279782272
0.2797866581
0.2797905114
0.2797938514
0.2797966833
0.2797990614
0.2798010867
0.2798027935
0.2798042162
0.2798052826
0.2797710428
0.2797790103
0.2797865766
0.2797932079
0.279798746
0.2798031095
0.2798065211
0.2798090796
0.2798110019
0.2798124188
0.2798134944
0.2798142409
0.2798147644
0.2798150829
0.2797787778
0.2797883569
0.2797964503
0.2798029307
0.2798078843
0.2798115356
0.2798141162
0.2798159866
0.2798171731
0.2798179316
0.2798183911
0.279818645
0.2798186932
0.2798187076
0.2797715555
0.2797794946
0.2797870585
0.2797936829
0.2797991202
0.2798034744
0.2798068888
0.2798094569
0.2798113823
0.2798128138
0.2798138296
0.2798145476
0.2798150626
0.2798154398
0.2797622479
0.2797670019
0.279772193
0.2797773772
0.2797822537
0.2797866399
0.2797904668
0.2797938147
0.2797966481
0.2797990311
0.2798010713
0.2798027409
0.2798041396
0.2798051193
0.279758523
0.2797609898
0.2797639756
0.2797673532
0.2797708699
0.2797744402
0.2797779567
0.2797812903
0.2797844365
0.2797873252
0.2797899651
0.2797923499
0.2797944952
0.2797961596
0.279756106
0.2797575004
0.2797593694
0.2797616686
0.2797642784
0.2797671682
0.2797701648
0.2797732544
0.2797763345
0.2797793586
0.2797822502
0.2797850214
0.2797875217
0.2797894307
0.2797562557
0.2797580503
0.2797605346
0.2797635884
0.2797670293
0.2797707649
0.2797745746
0.2797782606
0.2797817949
0.2797851238
0.2797882177
0.2797910202
0.2797935555
0.2797957472
0.2797973894
0.2797580407
0.2797618726
0.279766623
0.2797718529
0.2797770278
0.2797819085
0.2797863053
0.2797901758
0.2797934534
0.2797963158
0.2797986683
0.2798006828
0.279802376
0.2798037873
0.2798047714
0.2797765622
0.2797867167
0.2797958372
0.2798033324
0.2798091036
0.2798132078
0.2798160652
0.2798178601
0.2798189377
0.2798194577
0.2798195618
0.2798194569
0.2798192565
0.2798190837
0.2798078401
0.2798248935
0.2798366803
0.279843697
0.2798470872
0.2798478986
0.2798471062
0.2798453696
0.2798431678
0.2798407374
0.2798382893
0.2798359687
0.2798338863
0.2798322887
0.2798469215
0.2798639858
0.2798714229
0.2798728682
0.2798709121
0.2798672282
0.2798627665
0.2798581476
0.2798536442
0.2798494383
0.279845526
0.2798420939
0.2798390853
0.2798368004
0.279806651
0.2798237041
0.2798355304
0.2798426115
0.279845978
0.2798468379
0.279846123
0.2798443986
0.2798422027
0.2798397619
0.2798373709
0.2798350586
0.2798329588
0.2798313542
0.2797766047
0.2797866431
0.279795813
0.2798032864
0.2798090618
0.2798131913
0.2798160337
0.2798178441
0.2798188397
0.2798193448
0.2798194798
0.2798194203
0.2798192671
0.2798190387
0.2797622162
0.279766988
0.2797721696
0.2797773711
0.2797822521
0.2797866183
0.2797904513
0.2797937868
0.2797966073
0.2797990187
0.2798010822
0.2798027704
0.2798041211
0.2798051634
0.2797585189
0.2797609728
0.2797640367
0.2797675044
0.2797712098
0.2797750516
0.279778788
0.2797823422
0.2797856578
0.2797887289
0.2797915359
0.2797940481
0.2797962811
0.2797980181
0.2797574613
0.2797604187
0.2797642573
0.279768678
0.2797733486
0.2797779905
0.2797824134
0.2797865636
0.2797902482
0.2797935808
0.2797964842
0.2797990085
0.2798011946
0.2798030115
0.2798043422
0.2797635255
0.2797707914
0.2797787313
0.27978635
0.2797929719
0.2797984425
0.2798028161
0.2798061988
0.2798087706
0.2798106562
0.2798120674
0.2798131128
0.2798138666
0.279814364
0.2798146566
0.2797861632
0.2798068471
0.2798239032
0.2798357093
0.2798427951
0.2798461688
0.2798470193
0.279846257
0.2798445361
0.2798423371
0.2798399352
0.2798375019
0.2798351895
0.2798330984
0.2798314671
0.2799111568
0.2799327979
0.2799366136
0.2799307558
0.2799205127
0.2799088763
0.2798974738
0.2798869438
0.2798775454
0.2798693374
0.2798621809
0.2798559979
0.2798508309
0.2798469915
0.2801235939
0.280097448
0.2800567485
0.2800174572
0.279984031
0.2799566656
0.2799345279
0.2799166975
0.2799021544
0.2798902312
0.2798803801
0.2798722138
0.2798655328
0.2798607257
0.2799115671
0.2799332348
0.2799371392
0.279931242
0.2799209901
0.2799094006
0.2798979589
0.2798874673
0.2798780414
0.2798697966
0.2798626672
0.2798564917
0.2798513507
0.2798475308
0.279806523
0.2798235729
0.2798353877
0.2798424436
0.2798458092
0.2798466512
0.2798458464
0.2798441169
0.2798419376
0.2798395405
0.2798371465
0.2798348764
0.2798327661
0.2798311643
0.2797714119
0.2797793112
0.2797868548
0.2797934701
0.2797989354
0.2798033174
0.2798066864
0.2798092326
0.2798111186
0.2798125006
0.2798135369
0.279814305
0.2798148055
0.2798151382
0.2797607348
0.2797645694
0.2797690264
0.2797736776
0.2797783222
0.2797827868
0.2797869089
0.2797906107
0.2797939543
0.2797969088
0.2797994166
0.2798015904
0.2798033809
0.2798047221
0.2797588693
0.2797626192
0.2797672117
0.2797722399
0.2797773087
0.279782213
0.2797868303
0.2797909595
0.2797946354
0.27979778
0.2798005655
0.2798029351
0.2798049105
0.2798065097
0.2798076302
0.2797690742
0.2797790808
0.2797887298
0.2797968432
0.2798032639
0.2798081691
0.2798117958
0.2798144211
0.2798162564
0.2798175066
0.2798182726
0.2798187052
0.2798189328
0.2798189685
0.2798189631
0.2798168342
0.2798469374
0.2798639248
0.2798713011
0.2798727658
0.2798708734
0.279867141
0.2798627194
0.2798581532
0.2798536356
0.2798493978
0.2798454612
0.2798420056
0.2798389928
0.2798367398
0.2800856576
0.2801227754
0.2800966257
0.2800559467
0.2800166452
0.2799831607
0.279955779
0.279933678
0.2799158258
0.2799013133
0.2798894462
0.2798796066
0.2798714518
0.2798647587
0.2798599351
0.2842662673
0.2838161453
0.2835688147
0.2834259937
0.2833395032
0.2832847666
0.2832488099
0.283224535
0.2832078358
0.2831962751
0.2831883617
0.2831830404
0.2831800189
0.2831795375
0.2801228825
0.2800967457
0.2800559901
0.2800167105
0.2799832222
0.2799558837
0.2799338227
0.2799159702
0.2799014141
0.2798894882
0.2798796374
0.2798714924
0.279864825
0.2798600298
0.2798465904
0.2798636296
0.2798710318
0.279872507
0.2798705789
0.2798668566
0.2798624311
0.2798578244
0.2798533352
0.2798491221
0.279845258
0.2798417355
0.279838691
0.2798364319
0.2797793551
0.2797889184
0.2797970593
0.2798035635
0.2798085031
0.2798121114
0.2798147547
0.2798165423
0.2798177788
0.2798185107
0.2798189714
0.2798192004
0.2798192541
0.2798192532
0.2797629493
0.2797675256
0.279772512
0.2797775703
0.2797824814
0.279787029
0.2797911307
0.279794768
0.2797979192
0.2798007044
0.279803003
0.2798049412
0.2798066109
0.2798077774
0.279757837
0.2797607964
0.2797646401
0.2797690247
0.279773713
0.279778386
0.2797828293
0.2797869632
0.279790732
0.2797940492
0.2797969489
0.2797994298
0.2798016165
0.2798033803
0.2798047029
0.2797639364
0.2797711938
0.279779135
0.279786727
0.279793357
0.2797988498
0.2798032398
0.2798066266
0.2798091925
0.2798110971
0.2798125282
0.2798135414
0.2798142584
0.2798147453
0.2798150517
0.2797860385
0.2798067806
0.2798238492
0.2798356304
0.2798426768
0.2798459991
0.2798468278
0.2798460815
0.2798443746
0.2798421702
0.279839767
0.2798373373
0.2798350039
0.2798329098
0.2798312778
0.2798637107
0.279911823
0.279933543
0.2799373844
0.2799315119
0.2799212799
0.2799096131
0.2798981628
0.2798876054
0.2798782015
0.2798699877
0.2798628783
0.2798566915
0.2798515426
0.2798477916
0.2800857765
0.2801228648
0.2800967501
0.28005603
0.2800167494
0.2799832889
0.2799559526
0.2799338757
0.2799160441
0.2799015314
0.2798896085
0.2798797647
0.27987162
0.2798649346
0.2798601011
0.2798632081
0.279911359
0.2799330868
0.2799369564
0.2799310511
0.279920748
0.2799090977
0.2798976561
0.2798870962
0.2798776937
0.2798694658
0.2798623114
0.2798561722
0.2798510277
0.2798472584
0.2798072241
0.2798242463
0.2798360756
0.279843125
0.2798465193
0.2798473853
0.2798465716
0.2798448355
0.279842636
0.2798402358
0.279837795
0.2798354609
0.2798333555
0.279831775
0.2797710778
0.2797789654
0.2797865394
0.2797931582
0.2797986774
0.279803022
0.2798063863
0.2798089771
0.2798108657
0.279812299
0.279813289
0.279814021
0.2798145297
0.2798148092
0.2797603403
0.2797641792
0.2797686246
0.2797732545
0.2797778814
0.2797823335
0.2797864765
0.2797902136
0.2797935462
0.2797964666
0.2797989828
0.2798011665
0.2798029747
0.2798043134
0.2797563332
0.2797581079
0.2797605676
0.2797636489
0.279767141
0.2797708271
0.2797746268
0.2797783305
0.2797818704
0.2797852349
0.2797883158
0.2797911257
0.2797937054
0.2797959565
0.2797976083
0.2797585788
0.2797624488
0.2797672479
0.2797724463
0.2797775939
0.2797824594
0.2797868792
0.2797906948
0.2797940316
0.2797968488
0.2797992284
0.2798012838
0.2798029971
0.2798044502
0.2798054375
0.2797671291
0.2797767293
0.2797868036
0.279795937
0.2798034474
0.2798091758
0.2798133117
0.2798160999
0.2798179241
0.2798189507
0.2798194762
0.2798196166
0.27981954
0.2798193307
0.2798191537
0.2797861013
0.2798068384
0.2798238792
0.2798356793
0.2798427335
0.2798460509
0.2798469135
0.2798461719
0.2798444371
0.2798422203
0.2798398148
0.2798374041
0.2798350904
0.2798329691
0.2798313872
0.279816724
0.2798467866
0.2798637929
0.2798712506
0.279872705
0.2798707645
0.2798670868
0.2798626482
0.2798579764
0.2798534833
0.2798492902
0.279845401
0.2798419087
0.2798388825
0.2798366943
0.2797865524
0.2798072746
0.2798243398
0.2798361622
0.2798431781
0.2798465056
0.2798473784
0.2798465983
0.27984491
0.2798427208
0.2798403195
0.2798379265
0.2798356339
0.2798335246
0.2798319246
0.2797668211
0.2797764056
0.2797864712
0.2797956772
0.2798031935
0.2798089653
0.2798131047
0.2798159161
0.2798177436
0.2798187049
0.2798192203
0.2798194165
0.2798193243
0.2798191058
0.279818841
0.2797628624
0.279767625
0.2797728012
0.2797779815
0.2797828772
0.2797872806
0.2797911137
0.2797944395
0.2797972736
0.2797996745
0.2798016529
0.2798033391
0.2798048056
0.2798058289
0.2797582746
0.2797607151
0.2797637883
0.2797672763
0.2797710056
0.2797747817
0.2797784663
0.2797820198
0.2797853758
0.279788458
0.2797912638
0.2797938331
0.2797960693
0.2797977076
0.2797551495
0.2797561068
0.2797575369
0.2797593629
0.2797616229
0.2797642234
0.27976714
0.2797702314
0.2797733372
0.2797764269
0.2797794538
0.2797823792
0.2797851325
0.2797876488
0.279789584
0.2797563767
0.279758196
0.279760614
0.2797636291
0.2797670125
0.279770554
0.2797741481
0.2797776614
0.2797810203
0.279784158
0.2797870574
0.2797897295
0.2797921806
0.2797943126
0.2797959497
0.2797586436
0.2797625051
0.2797672945
0.2797725016
0.2797777321
0.2797825613
0.279787002
0.2797908206
0.2797940935
0.2797968937
0.2797992995
0.279801347
0.2798030317
0.2798044677
0.2798054997
0.2797639573
0.2797712657
0.2797792043
0.2797867631
0.2797933726
0.2797988678
0.2798032357
0.2798066165
0.2798091986
0.2798111056
0.2798124704
0.2798134861
0.2798142284
0.2798147211
0.2798150284
0.279768647
0.279778703
0.2797882222
0.279796352
0.2798028467
0.2798077578
0.2798114383
0.2798140449
0.2798159039
0.2798171389
0.2798179063
0.2798183553
0.2798185453
0.2798186208
0.2798185894
0.2797638887
0.2797711754
0.2797791109
0.2797866676
0.2797933236
0.2797988603
0.2798032333
0.2798066278
0.2798091614
0.2798110386
0.2798124276
0.2798134407
0.2798141322
0.2798146567
0.2798150097
0.2797588254
0.2797626616
0.2797673493
0.2797725469
0.2797777344
0.2797825968
0.2797869927
0.2797908425
0.2797941616
0.2797969864
0.2797993296
0.2798013676
0.2798030349
0.2798044445
0.2798054664
0.2797561902
0.2797579918
0.2797604483
0.2797634293
0.2797667653
0.2797703121
0.2797739119
0.2797774085
0.2797808083
0.2797839113
0.279786808
0.2797894308
0.2797918763
0.2797939984
0.2797956534
0.2797558896
0.2797572579
0.2797591148
0.2797614043
0.2797640255
0.2797669253
0.2797699546
0.2797730804
0.2797762078
0.2797792227
0.2797821389
0.2797849057
0.2797874157
0.2797893569
0.2797547419
0.2797552847
0.2797561566
0.2797574204
0.2797590249
0.2797609832
0.2797632541
0.2797658336
0.2797685554
0.2797714478
0.2797743654
0.2797772786
0.2797801049
0.2797827662
0.2797848625
0.2797555826
0.2797564787
0.279757876
0.2797597408
0.2797620241
0.2797646811
0.2797675284
0.2797705663
0.2797736409
0.2797767758
0.2797797887
0.2797826994
0.2797854549
0.2797879534
0.2797899054
0.2797560001
0.2797577209
0.2797602006
0.2797632696
0.2797667314
0.2797704517
0.2797742203
0.2797779467
0.2797815129
0.2797848696
0.2797879212
0.2797907353
0.2797932721
0.2797955008
0.2797971749
0.2797579101
0.2797608862
0.2797647326
0.2797691401
0.2797738312
0.279778504
0.2797829345
0.2797870558
0.2797907729
0.2797940749
0.2797969991
0.279799556
0.2798017165
0.2798035539
0.2798048686
0.279759344
0.2797630668
0.2797676492
0.2797726541
0.2797777322
0.2797826182
0.2797872161
0.2797913561
0.2797949992
0.2797981841
0.2798009386
0.2798032852
0.2798052593
0.2798068538
0.2798079952
0.2797580108
0.2797609338
0.279764739
0.2797691688
0.2797738237
0.2797784648
0.2797829214
0.2797870204
0.2797907442
0.2797940515
0.2797969649
0.2797995055
0.2798016902
0.2798034999
0.2798047819
0.2797560204
0.2797577872
0.2797602343
0.2797632792
0.2797667876
0.2797705311
0.2797742616
0.2797780042
0.2797815707
0.2797849201
0.2797880382
0.279790826
0.2797933611
0.2797955883
0.2797972571
0.2797557661
0.2797566923
0.2797580765
0.2797599175
0.2797622266
0.2797648612
0.2797677195
0.279770754
0.2797738353
0.2797769249
0.2797799453
0.2797828738
0.2797856633
0.2797881696
0.2797900928
0.2797550257
0.2797555897
0.2797564224
0.2797576418
0.2797592442
0.2797612
0.2797634839
0.279766031
0.279768796
0.2797716385
0.2797745474
0.2797774591
0.2797802702
0.2797828926
0.279784966
)
;

boundaryField
{
    top
    {
        type            calculated;
        value           nonuniform List<scalar> 
127
(
0.2797550257
0.2797552036
0.279756106
0.2797585189
0.2797607348
0.2797629493
0.2797603403
0.2797582746
0.2797558896
0.2797555897
0.2797560533
0.2797575004
0.2797609728
0.2797645694
0.2797675256
0.2797641792
0.2797607151
0.2797572579
0.2797564224
0.2797572919
0.2797593694
0.2797640367
0.2797690264
0.279772512
0.2797686246
0.2797637883
0.2797591148
0.2797576418
0.279758916
0.2797616686
0.2797675044
0.2797736776
0.2797775703
0.2797732545
0.2797672763
0.2797614043
0.2797592442
0.2797608639
0.2797642784
0.2797712098
0.2797783222
0.2797824814
0.2797778814
0.2797710056
0.2797640255
0.2797612
0.2797631805
0.2797671682
0.2797750516
0.2797827868
0.279787029
0.2797823335
0.2797747817
0.2797669253
0.2797634839
0.2797657157
0.2797701648
0.279778788
0.2797869089
0.2797911307
0.2797864765
0.2797784663
0.2797699546
0.279766031
0.279768442
0.2797732544
0.2797823422
0.2797906107
0.279794768
0.2797902136
0.2797820198
0.2797730804
0.279768796
0.2797712858
0.2797763345
0.2797856578
0.2797939543
0.2797979192
0.2797935462
0.2797853758
0.2797762078
0.2797716385
0.2797742179
0.2797793586
0.2797887289
0.2797969088
0.2798007044
0.2797964666
0.279788458
0.2797792227
0.2797745474
0.2797771189
0.2797822502
0.2797915359
0.2797994166
0.279803003
0.2797989828
0.2797912638
0.2797821389
0.2797774591
0.2797799678
0.2797850214
0.2797940481
0.2798015904
0.2798049412
0.2798011665
0.2797938331
0.2797849057
0.2797802702
0.2797825912
0.2797875217
0.2797962811
0.2798033809
0.2798066109
0.2798029747
0.2797960693
0.2797874157
0.2797828926
0.2797846763
0.2797894307
0.2797980181
0.2798047221
0.2798077774
0.2798043134
0.2797977076
0.2797893569
0.279784966
)
;
    }
    bottom
    {
        type            calculated;
        value           nonuniform List<scalar> 
134
(
0.2797554643
0.2797562557
0.2797574613
0.2797588693
0.279757837
0.2797563332
0.2797551495
0.2797547419
0.2797554175
0.2797564239
0.2797580503
0.2797604187
0.2797626192
0.2797607964
0.2797581079
0.2797561068
0.2797552847
0.2797562733
0.2797577985
0.2797605346
0.2797642573
0.2797672117
0.2797646401
0.2797605676
0.2797575369
0.2797561566
0.279757493
0.2797596819
0.2797635884
0.279768678
0.2797722399
0.2797690247
0.2797636489
0.2797593629
0.2797574204
0.2797590584
0.2797619865
0.2797670293
0.2797733486
0.2797773087
0.279773713
0.279767141
0.2797616229
0.2797590249
0.2797610472
0.2797646156
0.2797707649
0.2797779905
0.279782213
0.279778386
0.2797708271
0.2797642234
0.2797609832
0.2797633272
0.2797674651
0.2797745746
0.2797824134
0.2797868303
0.2797828293
0.2797746268
0.27976714
0.2797632541
0.279765884
0.279770544
0.2797782606
0.2797865636
0.2797909595
0.2797869632
0.2797783305
0.2797702314
0.2797658336
0.2797686255
0.2797736242
0.2797817949
0.2797902482
0.2797946354
0.279790732
0.2797818704
0.2797733372
0.2797685554
0.279771483
0.2797767386
0.2797851238
0.2797935808
0.27979778
0.2797940492
0.2797852349
0.2797764269
0.2797714478
0.2797743975
0.2797797474
0.2797882177
0.2797964842
0.2798005655
0.2797969489
0.2797883158
0.2797794538
0.2797743654
0.2797773264
0.2797826611
0.2797910202
0.2797990085
0.2798029351
0.2797994298
0.2797911257
0.2797823792
0.2797772786
0.2797801618
0.2797853761
0.2797935555
0.2798011946
0.2798049105
0.2798016165
0.2797937054
0.2797851325
0.2797801049
0.2797828105
0.2797878964
0.2797957472
0.2798030115
0.2798065097
0.2798033803
0.2797959565
0.2797876488
0.2797827662
0.2797848723
0.2797898546
0.2797973894
0.2798043422
0.2798076302
0.2798047029
0.2797976083
0.279789584
0.2797848625
)
;
    }
    side-walls
    {
        type            calculated;
        value           nonuniform List<scalar> 
261
(
0.2797554175
0.2797561892
0.279758131
0.2797607322
0.2797626739
0.2797603328
0.2797578741
0.2797563894
0.2797552036
0.2797562733
0.2797575777
0.2797605836
0.2797645608
0.2797672382
0.2797641926
0.2797603268
0.2797577863
0.2797560533
0.279757493
0.2797594034
0.2797636576
0.2797689963
0.2797722425
0.2797685697
0.2797633681
0.2797596225
0.2797572919
0.2797590584
0.2797617173
0.2797671256
0.2797736768
0.2797773133
0.2797732638
0.279766864
0.2797618634
0.279758916
0.2797610472
0.2797643003
0.2797708554
0.2797783094
0.2797822321
0.2797779212
0.2797705839
0.2797644928
0.2797608639
0.2797633272
0.2797672025
0.2797746501
0.2797827713
0.27978679
0.2797823577
0.2797743775
0.2797674044
0.2797631805
0.279765884
0.2797702622
0.279778365
0.2797869227
0.2797909531
0.2797864684
0.2797780743
0.2797704187
0.2797657157
0.2797686255
0.2797733299
0.2797819187
0.279790636
0.2797946345
0.2797902264
0.2797816236
0.2797735142
0.279768442
0.279771483
0.279776474
0.2797852503
0.2797939165
0.2797978327
0.2797935081
0.2797849424
0.2797766143
0.2797712858
0.2797743975
0.2797794669
0.2797883548
0.2797968504
0.279800561
0.279796393
0.2797880197
0.2797796616
0.2797742179
0.2797773264
0.2797823795
0.2797911994
0.2797993964
0.2798028751
0.2797989359
0.2797908294
0.2797825748
0.2797771189
0.2797801618
0.2797851107
0.2797937122
0.2798015317
0.2798048621
0.279801104
0.2797933402
0.2797853275
0.2797799678
0.2797828105
0.279787625
0.2797959464
0.2798033313
0.2798064915
0.2798029102
0.279795544
0.2797878797
0.2797825912
0.2797848723
0.2797896213
0.2797975995
0.2798046709
0.2798076373
0.2798042519
0.2797972203
0.2797898187
0.2797846763
0.2797547419
0.2797555826
0.2797560001
0.2797579101
0.279759344
0.2797580108
0.2797560204
0.2797557661
0.2797550257
0.2797552847
0.2797564787
0.2797577209
0.2797608862
0.2797630668
0.2797609338
0.2797577872
0.2797566923
0.2797555897
0.2797561566
0.279757876
0.2797602006
0.2797647326
0.2797676492
0.279764739
0.2797602343
0.2797580765
0.2797564224
0.2797574204
0.2797597408
0.2797632696
0.2797691401
0.2797726541
0.2797691688
0.2797632792
0.2797599175
0.2797576418
0.2797590249
0.2797620241
0.2797667314
0.2797738312
0.2797777322
0.2797738237
0.2797667876
0.2797622266
0.2797592442
0.2797609832
0.2797646811
0.2797704517
0.279778504
0.2797826182
0.2797784648
0.2797705311
0.2797648612
0.2797612
0.2797632541
0.2797675284
0.2797742203
0.2797829345
0.2797872161
0.2797829214
0.2797742616
0.2797677195
0.2797634839
0.2797658336
0.2797705663
0.2797779467
0.2797870558
0.2797913561
0.2797870204
0.2797780042
0.279770754
0.279766031
0.2797685554
0.2797736409
0.2797815129
0.2797907729
0.2797949992
0.2797907442
0.2797815707
0.2797738353
0.279768796
0.2797714478
0.2797767758
0.2797848696
0.2797940749
0.2797981841
0.2797940515
0.2797849201
0.2797769249
0.2797716385
0.2797743654
0.2797797887
0.2797879212
0.2797969991
0.2798009386
0.2797969649
0.2797880382
0.2797799453
0.2797745474
0.2797772786
0.2797826994
0.2797907353
0.279799556
0.2798032852
0.2797995055
0.279790826
0.2797828738
0.2797774591
0.2797801049
0.2797854549
0.2797932721
0.2798017165
0.2798052593
0.2798016902
0.2797933611
0.2797856633
0.2797802702
0.2797827662
0.2797879534
0.2797955008
0.2798035539
0.2798068538
0.2798034999
0.2797955883
0.2797881696
0.2797828926
0.2797848625
0.2797899054
0.2797971749
0.2798048686
0.2798079952
0.2798047819
0.2797972571
0.2797900928
0.279784966
)
;
    }
    inlet
    {
        type            calculated;
        value           nonuniform 0();
    }
    outlet
    {
        type            calculated;
        value           nonuniform List<scalar> 
81
(
0.2797848723
0.2797896213
0.2797975995
0.2798046709
0.2798076373
0.2798042519
0.2797972203
0.2797898187
0.2797846763
0.2797898546
0.2797960737
0.2798052826
0.2798150829
0.2798187076
0.2798154398
0.2798051193
0.2797961596
0.2797894307
0.2797973894
0.2798047714
0.2798190837
0.2798322887
0.2798368004
0.2798313542
0.2798190387
0.2798051634
0.2797980181
0.2798043422
0.2798146566
0.2798314671
0.2798469915
0.2798607257
0.2798475308
0.2798311643
0.2798151382
0.2798047221
0.2798076302
0.2798189631
0.2798367398
0.2798599351
0.2831795375
0.2798600298
0.2798364319
0.2798192532
0.2798077774
0.2798047029
0.2798150517
0.2798312778
0.2798477916
0.2798601011
0.2798472584
0.279831775
0.2798148092
0.2798043134
0.2797976083
0.2798054375
0.2798191537
0.2798313872
0.2798366943
0.2798319246
0.279818841
0.2798058289
0.2797977076
0.279789584
0.2797959497
0.2798054997
0.2798150284
0.2798185894
0.2798150097
0.2798054664
0.2797956534
0.2797893569
0.2797848625
0.2797899054
0.2797971749
0.2798048686
0.2798079952
0.2798047819
0.2797972571
0.2797900928
0.279784966
)
;
    }
    procBoundary1to0
    {
        type            processor;
        value           nonuniform List<scalar> 
97
(
0.2797548486
0.2797548486
0.279755246
0.2797563859
0.2797577694
0.2797589243
0.2797573881
0.2797560719
0.2797554053
0.2797545752
0.2797549031
0.279756467
0.279756467
0.279756467
0.2797584189
0.2797637355
0.279768785
0.2797642442
0.2797583702
0.2797567552
0.2797551853
0.2797551524
0.2797555509
0.2797670189
0.2797670189
0.2797670189
0.2797870905
0.2798168795
0.2797858861
0.2797670464
0.2797583836
0.2797567436
0.2797555582
0.2797582067
0.2797670802
0.2798630057
0.2798630057
0.2798630057
0.2800863913
0.2798633927
0.2797857731
0.2797640998
0.2797577872
0.2797563896
0.2797605865
0.2797768072
0.2798422241
0.2838441718
0.2838441718
0.2838441718
0.2800856835
0.2800856835
0.2798165214
0.2797692653
0.2797591974
0.2797559133
0.279758603
0.2797669633
0.2797928914
0.2798422825
0.2797923458
0.2797864839
0.2797864839
0.2797864839
0.279763797
0.2797573837
0.2797551989
0.279756016
0.2797600462
0.2797669854
0.2797766998
0.2797673811
0.2797596505
0.2797590668
0.2797590668
0.2797590668
0.2797564562
0.2797546026
0.2797553029
0.2797561193
0.2797586051
0.2797601551
0.2797585957
0.2797563059
0.2797551186
0.2797549437
0.2797549437
0.2797549437
0.2797543998
0.2797550306
0.2797549262
0.2797560193
0.2797567975
0.2797560999
0.2797549223
0.2797552277
0.2797546825
)
;
    }
}


// ************************************************************************* //
