/*--------------------------------*- C++ -*----------------------------------*\
| =========                 |                                                 |
| \\      /  F ield         | OpenFOAM: The Open Source CFD Toolbox           |
|  \\    /   O peration     | Version:  4.x                                   |
|   \\  /    A nd           | Web:      www.OpenFOAM.org                      |
|    \\/     M anipulation  |                                                 |
\*---------------------------------------------------------------------------*/
FoamFile
{
    version     2.0;
    format      ascii;
    class       volScalarField;
    location    "1000";
    object      T;
}
// * * * * * * * * * * * * * * * * * * * * * * * * * * * * * * * * * * * * * //

dimensions      [0 0 0 1 0 0 0];

internalField   nonuniform List<scalar> 
1174
(
1223.15035
1223.15041
1223.150454
1223.150634
1223.150543
1223.150572
1223.150526
1223.150506
1223.150509
1223.150505
1223.150411
1223.150414
1223.150409
1223.150508
1223.150544
1223.150573
1223.150727
1223.150602
1223.150817
1223.150743
1223.150663
1223.150849
1223.150675
1223.150875
1223.150932
1223.151086
1223.151102
1223.15089
1223.149939
1223.15001
1223.14995
1223.150007
1223.149949
1223.149907
1223.149931
1223.149962
1223.149998
1223.149916
1223.149792
1223.149898
1223.149817
1223.149864
1223.15013
1223.150177
1223.15009
1223.150051
1223.150168
1223.150129
1223.150014
1223.150101
1223.150276
1223.150191
1223.150131
1223.15031
1223.150403
1223.150334
1223.149909
1223.150034
1223.150101
1223.150208
1223.150192
1223.150249
1223.150131
1223.150061
1223.150052
1223.150152
1223.15028
1223.150222
1223.150179
1223.150237
1223.151876
1223.151786
1223.151955
1223.151856
1223.151864
1223.151937
1223.151999
1223.151891
1223.15206
1223.15219
1223.152143
1223.152178
1223.152243
1223.152165
1223.151062
1223.151133
1223.151215
1223.15115
1223.151135
1223.151098
1223.1512
1223.15125
1223.151343
1223.151379
1223.151407
1223.151522
1223.151574
1223.151519
1223.149668
1223.149661
1223.149769
1223.149962
1223.149975
1223.149859
1223.149978
1223.150041
1223.15006
1223.150022
1223.150076
1223.150136
1223.149986
1223.150025
1223.151286
1223.151372
1223.151333
1223.151257
1223.151344
1223.151213
1223.151261
1223.151307
1223.15137
1223.151288
1223.151317
1223.151261
1223.151366
1223.151363
1223.149601
1223.149517
1223.149607
1223.149509
1223.149425
1223.149439
1223.149594
1223.149431
1223.149562
1223.149517
1223.149648
1223.149701
1223.149926
1223.149915
1223.14987
1223.149492
1223.149587
1223.149615
1223.149513
1223.149342
1223.149481
1223.149541
1223.149488
1223.149431
1223.149407
1223.149305
1223.14925
1223.149431
1223.149303
1223.152356
1223.152377
1223.152306
1223.152462
1223.152383
1223.152407
1223.152396
1223.152287
1223.152249
1223.152304
1223.152281
1223.152263
1223.1522
1223.151991
1223.149977
1223.14988
1223.149914
1223.149934
1223.149754
1223.149822
1223.149737
1223.149798
1223.14978
1223.149747
1223.149509
1223.149432
1223.149359
1223.149347
1223.15023
1223.150187
1223.150358
1223.150343
1223.150293
1223.150287
1223.150451
1223.150233
1223.150372
1223.150431
1223.150376
1223.150208
1223.150263
1223.150117
1223.147734
1223.147762
1223.147806
1223.147857
1223.148117
1223.148225
1223.148128
1223.148147
1223.148115
1223.148019
1223.148042
1223.148089
1223.148054
1223.147785
1223.152371
1223.152451
1223.152479
1223.152483
1223.152461
1223.152485
1223.152588
1223.152445
1223.152401
1223.152434
1223.152346
1223.15249
1223.152532
1223.152702
1223.148389
1223.148328
1223.148374
1223.148304
1223.148437
1223.148484
1223.148416
1223.148464
1223.148449
1223.148576
1223.148769
1223.149019
1223.149063
1223.148925
1223.150907
1223.15091
1223.150875
1223.150814
1223.150912
1223.150891
1223.151088
1223.151177
1223.151282
1223.151346
1223.151495
1223.151474
1223.15155
1223.15172
1223.150389
1223.150292
1223.150224
1223.150252
1223.150427
1223.150344
1223.150236
1223.150387
1223.150503
1223.150551
1223.150515
1223.150575
1223.150583
1223.150687
1223.150782
1223.153949
1223.154012
1223.154108
1223.153967
1223.154012
1223.153971
1223.153949
1223.153862
1223.154027
1223.153855
1223.154023
1223.154047
1223.154088
1223.154075
1223.154225
1223.149715
1223.149407
1223.149568
1223.149743
1223.149712
1223.149912
1223.149751
1223.149756
1223.14961
1223.149588
1223.14982
1223.149967
1223.149977
1223.149798
1223.146384
1223.146462
1223.146669
1223.146804
1223.14675
1223.146886
1223.146968
1223.147036
1223.146986
1223.147076
1223.147192
1223.14722
1223.147164
1223.14713
1223.150533
1223.150487
1223.150453
1223.150419
1223.150462
1223.150479
1223.150611
1223.150598
1223.150595
1223.150502
1223.150661
1223.150421
1223.150317
1223.150391
1223.151578
1223.151657
1223.151691
1223.151545
1223.151595
1223.151518
1223.151261
1223.151276
1223.151201
1223.151336
1223.151203
1223.151195
1223.151215
1223.151212
1223.149525
1223.149726
1223.149671
1223.149941
1223.149891
1223.14998
1223.149885
1223.149822
1223.150034
1223.150077
1223.150174
1223.150122
1223.149927
1223.149992
1223.15251
1223.152512
1223.152581
1223.15251
1223.152467
1223.152578
1223.152655
1223.152566
1223.152578
1223.152487
1223.152297
1223.15236
1223.152611
1223.152508
1223.148243
1223.148308
1223.148292
1223.148349
1223.148398
1223.148149
1223.148079
1223.148107
1223.148213
1223.148277
1223.148317
1223.148426
1223.148349
1223.148029
1223.151505
1223.1515
1223.151503
1223.151481
1223.151485
1223.151561
1223.151693
1223.151583
1223.151796
1223.151743
1223.151792
1223.151826
1223.151783
1223.1518
1223.151771
1223.150957
1223.151075
1223.151098
1223.150903
1223.150965
1223.15108
1223.151104
1223.151145
1223.151148
1223.15129
1223.151283
1223.151177
1223.151067
1223.151109
1223.15121
1223.150403
1223.150723
1223.150788
1223.150911
1223.150745
1223.150763
1223.150728
1223.150678
1223.150678
1223.150617
1223.150582
1223.150633
1223.150626
1223.150607
1223.150721
1223.152558
1223.152803
1223.152928
1223.152794
1223.152653
1223.152687
1223.15255
1223.152497
1223.152469
1223.152312
1223.152313
1223.152412
1223.152374
1223.152629
1223.124184
1223.12402
1223.123461
1223.123274
1223.12288
1223.122763
1223.122827
1223.12259
1223.122556
1223.122493
1223.122399
1223.122245
1223.122092
1223.122003
1223.150745
1223.150881
1223.150622
1223.15066
1223.150558
1223.150388
1223.150423
1223.150203
1223.150296
1223.1503
1223.150183
1223.15025
1223.150099
1223.150269
1223.152138
1223.152229
1223.152312
1223.152275
1223.152328
1223.15233
1223.152466
1223.152504
1223.152356
1223.152301
1223.152181
1223.151989
1223.152055
1223.152039
1223.148363
1223.148563
1223.148694
1223.148785
1223.148921
1223.148908
1223.149008
1223.149123
1223.149264
1223.149383
1223.149318
1223.149146
1223.149174
1223.1491
1223.150119
1223.150139
1223.149957
1223.150046
1223.150109
1223.150058
1223.150071
1223.150208
1223.150106
1223.149931
1223.150038
1223.150048
1223.15018
1223.150104
1223.150148
1223.150147
1223.150148
1223.150111
1223.150226
1223.150274
1223.150071
1223.150102
1223.150057
1223.150281
1223.150131
1223.150017
1223.15001
1223.150099
1223.150268
1223.148647
1223.148904
1223.148554
1223.148637
1223.148884
1223.149045
1223.149148
1223.149117
1223.149052
1223.148914
1223.14894
1223.149002
1223.148949
1223.149059
1223.148999
1223.150587
1223.150462
1223.150748
1223.15098
1223.150861
1223.150627
1223.150857
1223.150814
1223.150572
1223.150631
1223.150677
1223.150943
1223.150807
1223.15072
1223.150655
1223.127753
1223.127756
1223.127602
1223.126955
1223.126815
1223.126677
1223.126634
1223.126538
1223.126397
1223.12623
1223.125923
1223.125778
1223.125575
1223.125474
1223.125458
1209.141081
1209.112689
1209.086392
1209.06118
1209.03647
1209.012161
1208.98809
1208.964002
1208.939928
1208.915847
1208.891679
1208.867898
1208.843659
1208.819416
1223.127291
1223.127069
1223.126753
1223.126517
1223.126397
1223.126166
1223.125897
1223.125759
1223.125783
1223.125733
1223.125639
1223.125393
1223.125181
1223.12504
1223.151981
1223.152038
1223.152152
1223.151985
1223.151906
1223.152091
1223.152065
1223.152
1223.151936
1223.151875
1223.151825
1223.151981
1223.152034
1223.151996
1223.147707
1223.14773
1223.147691
1223.147571
1223.147581
1223.147763
1223.147652
1223.147797
1223.147718
1223.147893
1223.147832
1223.147774
1223.147805
1223.147725
1223.148706
1223.148777
1223.148921
1223.149082
1223.149099
1223.1492
1223.14935
1223.149472
1223.149668
1223.149519
1223.149715
1223.14987
1223.149651
1223.149618
1223.149862
1223.149848
1223.149828
1223.149964
1223.149891
1223.149831
1223.149874
1223.149835
1223.149679
1223.149694
1223.149759
1223.149983
1223.149937
1223.150186
1223.150192
1223.14916
1223.149313
1223.149331
1223.149252
1223.149278
1223.149296
1223.149249
1223.149272
1223.149301
1223.14936
1223.149266
1223.149301
1223.149353
1223.14944
1223.14948
1223.150941
1223.151006
1223.151016
1223.151248
1223.151254
1223.151498
1223.151558
1223.15144
1223.151379
1223.151341
1223.151313
1223.151349
1223.151433
1223.151428
1223.151545
1223.149309
1223.149617
1223.149522
1223.14954
1223.149473
1223.149286
1223.149455
1223.149529
1223.149597
1223.149594
1223.149464
1223.149259
1223.149376
1223.149259
1223.149128
1223.127231
1223.127358
1223.127036
1223.126569
1223.12634
1223.126101
1223.125862
1223.125663
1223.125434
1223.125269
1223.125207
1223.125082
1223.124835
1223.124701
1223.124728
1223.151508
1223.151643
1223.15151
1223.151403
1223.151479
1223.151602
1223.1517
1223.151736
1223.151816
1223.151808
1223.151739
1223.151733
1223.151641
1223.151506
1223.151455
1223.149077
1223.149284
1223.149301
1223.149291
1223.149218
1223.149115
1223.14929
1223.149357
1223.149298
1223.149257
1223.149342
1223.14943
1223.149475
1223.149367
1223.149824
1223.150074
1223.150073
1223.150146
1223.150047
1223.150197
1223.150318
1223.150237
1223.150366
1223.150262
1223.150399
1223.150385
1223.150377
1223.150535
1223.151844
1223.151845
1223.151714
1223.151895
1223.152035
1223.152039
1223.151959
1223.151942
1223.151888
1223.151863
1223.151932
1223.151899
1223.151954
1223.151889
1223.15005
1223.150039
1223.150079
1223.149986
1223.149938
1223.15007
1223.150006
1223.150079
1223.15017
1223.150063
1223.150083
1223.150111
1223.149925
1223.149769
1223.149822
1223.151595
1223.151491
1223.151373
1223.15137
1223.151534
1223.151559
1223.151437
1223.15159
1223.151495
1223.151522
1223.15157
1223.151416
1223.151369
1223.151173
1223.15131
1223.149017
1223.148977
1223.14902
1223.149124
1223.149233
1223.149389
1223.14945
1223.149593
1223.14947
1223.149547
1223.149501
1223.149575
1223.149598
1223.149647
1223.149488
1223.150666
1223.150752
1223.150882
1223.15103
1223.151001
1223.151266
1223.151179
1223.15104
1223.151101
1223.151118
1223.1511
1223.151053
1223.151052
1223.151166
1223.151064
1223.151068
1223.151114
1223.151314
1223.151187
1223.151113
1223.151089
1223.151081
1223.151113
1223.151333
1223.151287
1223.151139
1223.151198
1223.151223
1223.151196
1223.150848
1223.148694
1223.148844
1223.148866
1223.148916
1223.149055
1223.149275
1223.149142
1223.149172
1223.14903
1223.148927
1223.148891
1223.148767
1223.148673
1223.148736
1223.148712
1223.150366
1223.150394
1223.150474
1223.150259
1223.150341
1223.150305
1223.150351
1223.150391
1223.150254
1223.150617
1223.150615
1223.150445
1223.150536
1223.150626
1223.15085
1223.149686
1223.149726
1223.149819
1223.149839
1223.149731
1223.149679
1223.149755
1223.149708
1223.149661
1223.149616
1223.149798
1223.14987
1223.149615
1223.149595
1223.149311
1223.149435
1223.149378
1223.149346
1223.149289
1223.149328
1223.149484
1223.149514
1223.149444
1223.149458
1223.149503
1223.149362
1223.149272
1223.149384
1223.150977
1223.150903
1223.15075
1223.150903
1223.151013
1223.151152
1223.151014
1223.150796
1223.150815
1223.150878
1223.150929
1223.15093
1223.150988
1223.150994
1223.15105
1223.149972
1223.149818
1223.14997
1223.149888
1223.149792
1223.149817
1223.14976
1223.149705
1223.149643
1223.149665
1223.149745
1223.149798
1223.149758
1223.14986
1223.149841
1223.151311
1223.151245
1223.15117
1223.151127
1223.150928
1223.151113
1223.150898
1223.151038
1223.151223
1223.151323
1223.151258
1223.151138
1223.151216
1223.151095
1223.151037
1223.149068
1223.148999
1223.149026
1223.149092
1223.149207
1223.149214
1223.149262
1223.149311
1223.14927
1223.149318
1223.149514
1223.149538
1223.149479
1223.149542
1223.149578
1223.150515
1223.150553
1223.150769
1223.150779
1223.1507
1223.150835
1223.150702
1223.150753
1223.150585
1223.150513
1223.150533
1223.150523
1223.150636
1223.150572
1223.150626
1223.149368
1223.149393
1223.149434
1223.149508
1223.14942
1223.149244
1223.149271
1223.14926
1223.14943
1223.149609
1223.149698
1223.149735
1223.149898
1223.149821
1223.149658
1223.150517
1223.150561
1223.15093
1223.150929
1223.150918
1223.150956
1223.150937
1223.15094
1223.150923
1223.150916
1223.151123
1223.151044
1223.151199
1223.151193
1223.151179
1223.150788
1223.150711
1223.150695
1223.150761
1223.150873
1223.150874
1223.150791
1223.15081
1223.150568
1223.150741
1223.150833
1223.151101
1223.151085
1223.15123
1223.151133
1223.151854
1223.151971
1223.151988
1223.151969
1223.152017
1223.151952
1223.152005
1223.151936
1223.151834
1223.151937
1223.151978
1223.151976
1223.15201
1223.152039
1223.150863
1223.15093
1223.15092
1223.150771
1223.15078
1223.150821
1223.150891
1223.150745
1223.150811
1223.150661
1223.150642
1223.150618
1223.15066
1223.150599
1223.150547
1223.149083
1223.149277
1223.149268
1223.149251
1223.149259
1223.149151
1223.149315
1223.149331
1223.149486
1223.149352
1223.149464
1223.14953
1223.149577
1223.149662
1223.149643
1223.151506
1223.151731
1223.151683
1223.151644
1223.151728
1223.151711
1223.151782
1223.151756
1223.151731
1223.151658
1223.151806
1223.151815
1223.151816
1223.151759
1223.151714
1223.149542
1223.149455
1223.149423
1223.149458
1223.149372
1223.149312
1223.149411
1223.149426
1223.149497
1223.149577
1223.149535
1223.149427
1223.149495
1223.149423
1223.149463
1223.148073
1223.14819
1223.148234
1223.148298
1223.148371
1223.148498
1223.148379
1223.148362
1223.14846
1223.148508
1223.148494
1223.14848
1223.148478
1223.148587
1223.148665
1223.149102
1223.149247
1223.149395
1223.149332
1223.149404
1223.149483
1223.149466
1223.14958
1223.149621
1223.149678
1223.149683
1223.149646
1223.149609
1223.149657
1223.14984
1223.151417
1223.151441
1223.151536
1223.151602
1223.151481
1223.151363
1223.1516
1223.151503
1223.151477
1223.151436
1223.151293
1223.151417
1223.151425
1223.151374
1223.151352
1223.148281
1223.148344
1223.148391
1223.148478
1223.148373
1223.148363
1223.148479
1223.148509
1223.148635
1223.148698
1223.148778
1223.148765
1223.148664
1223.148714
1223.148822
1223.149622
1223.149597
1223.149758
1223.149803
1223.149821
1223.149873
1223.149885
1223.149881
1223.149758
1223.149825
1223.149845
1223.149826
1223.149935
1223.150044
1223.150092
)
;

boundaryField
{
    top
    {
        type            zeroGradient;
    }
    bottom
    {
        type            zeroGradient;
    }
    side-walls
    {
        type            zeroGradient;
    }
    inlet
    {
        type            zeroGradient;
    }
    outlet
    {
        type            zeroGradient;
    }
    procBoundary1to0
    {
        type            processor;
        value           nonuniform List<scalar> 
97
(
1223.150396
1223.150396
1223.150555
1223.149819
1223.150157
1223.149907
1223.151824
1223.151192
1223.149858
1223.151591
1223.149627
1223.149578
1223.149578
1223.149578
1223.152294
1223.150037
1223.149908
1223.147812
1223.152506
1223.148316
1223.15082
1223.150458
1223.153693
1223.149501
1223.149501
1223.149501
1223.14634
1223.150372
1223.1516
1223.149376
1223.152448
1223.148255
1223.151501
1223.150862
1223.150352
1223.152401
1223.152401
1223.152401
1223.124462
1223.150673
1223.152095
1223.148444
1223.150079
1223.149879
1223.148749
1223.150386
1223.151614
1209.164112
1209.164112
1209.164112
1223.127561
1223.127561
1223.15194
1223.147809
1223.148713
1223.149948
1223.149129
1223.150863
1223.148846
1223.151362
1223.151229
1223.148998
1223.148998
1223.148998
1223.149769
1223.151843
1223.150255
1223.151659
1223.148631
1223.150767
1223.150856
1223.149036
1223.150361
1223.149462
1223.149462
1223.149462
1223.149512
1223.150941
1223.14984
1223.151207
1223.14912
1223.150636
1223.149161
1223.150391
1223.150646
1223.151877
1223.151877
1223.151877
1223.150958
1223.14907
1223.151447
1223.149485
1223.148096
1223.149132
1223.151464
1223.148208
1223.149722
)
;
    }
}


// ************************************************************************* //
