/*--------------------------------*- C++ -*----------------------------------*\
| =========                 |                                                 |
| \\      /  F ield         | OpenFOAM: The Open Source CFD Toolbox           |
|  \\    /   O peration     | Version:  4.x                                   |
|   \\  /    A nd           | Web:      www.OpenFOAM.org                      |
|    \\/     M anipulation  |                                                 |
\*---------------------------------------------------------------------------*/
FoamFile
{
    version     2.0;
    format      ascii;
    class       volVectorField;
    location    "1000";
    object      U;
}
// * * * * * * * * * * * * * * * * * * * * * * * * * * * * * * * * * * * * * //

dimensions      [0 1 -1 0 0 0 0];

internalField   nonuniform List<vector> 
1174
(
(0.01100032505 -3.15645311e-08 -2.965303091e-08)
(0.01100040604 -2.90260571e-08 -2.977691229e-08)
(0.01100048369 -2.376289127e-08 -2.321553153e-08)
(0.01100050289 -1.643605369e-08 -1.596469003e-08)
(0.01100048831 -1.147959871e-08 -1.014675182e-08)
(0.01100044238 -8.493029971e-09 -6.126387274e-09)
(0.01100036376 -3.182901375e-09 -3.142836085e-09)
(0.01100026693 -2.800966749e-09 -1.959501774e-09)
(0.01100015661 4.423755194e-10 -8.520649967e-12)
(0.01100004191 -1.263023857e-09 3.488197281e-09)
(0.01099992055 1.40003606e-09 5.037548956e-09)
(0.01099979081 3.12749394e-09 4.029988846e-09)
(0.01099968334 4.203592307e-09 7.086777419e-09)
(0.01099956333 6.018196638e-09 6.719343704e-09)
(0.01100034026 -1.24728084e-07 -3.562696716e-08)
(0.01100039292 -1.177937091e-07 -3.488475036e-08)
(0.01100044753 -9.12882307e-08 -2.559885603e-08)
(0.01100042959 -6.678339798e-08 -1.817400374e-08)
(0.01100037689 -4.354646753e-08 -9.954929243e-09)
(0.01100029062 -2.721617458e-08 -4.45928624e-09)
(0.01100017947 -1.688731954e-08 -8.017323609e-10)
(0.01100006197 -7.856804629e-09 1.769519299e-09)
(0.01099993282 -2.36451382e-09 3.596214918e-09)
(0.01099980876 5.307029746e-09 5.250991987e-09)
(0.01099968649 7.209229808e-09 6.067127278e-09)
(0.01099956062 9.519461779e-09 6.641451622e-09)
(0.01099945727 1.360921576e-08 8.792251139e-09)
(0.01099934645 1.598477776e-08 6.086124976e-09)
(0.01100036266 -1.231340313e-07 -7.309752094e-08)
(0.0110003649 -1.154708471e-07 -6.41352821e-08)
(0.01100037007 -8.561586963e-08 -4.374918189e-08)
(0.01100028736 -5.645795854e-08 -2.608914863e-08)
(0.01100016141 -3.33324321e-08 -9.378543394e-09)
(0.01100001121 -1.687774072e-08 -2.832681454e-09)
(0.01099985716 -6.665224995e-09 1.127251396e-09)
(0.0109997054 -1.791803786e-10 3.06230227e-09)
(0.01099956309 5.168573313e-09 5.861852081e-09)
(0.01099943056 7.82813878e-09 5.063276715e-09)
(0.01099931261 9.362872911e-09 6.154521528e-09)
(0.01099920049 9.960208347e-09 4.493253447e-09)
(0.01099910912 1.673751364e-08 6.677486949e-09)
(0.01099901846 1.665168936e-08 6.896303907e-09)
(0.01100039344 -1.912980166e-07 -5.52158981e-08)
(0.01100026078 -1.364262376e-07 -6.124992558e-08)
(0.01100020202 -8.693403123e-08 -3.434128765e-08)
(0.01100004594 -4.887238436e-08 -1.314134716e-08)
(0.01099986257 -2.71892179e-08 -2.24645719e-09)
(0.01099967237 -1.229428059e-08 5.998782908e-09)
(0.01099949128 -4.85506964e-09 1.116693331e-08)
(0.01099932797 7.315475981e-10 9.93490832e-09)
(0.01099918759 5.530186408e-09 1.048748453e-08)
(0.01099906176 6.785304482e-09 7.94987791e-09)
(0.0109989532 7.373199587e-09 7.641398963e-09)
(0.0109988611 8.149068653e-09 6.564391387e-09)
(0.01099879224 1.170515451e-08 1.049784414e-08)
(0.01099872477 1.276076307e-08 9.976969203e-09)
(0.01100049863 4.835903784e-10 -1.420388063e-07)
(0.0110002704 4.867257377e-10 -9.495368546e-08)
(0.01100015055 7.753178295e-10 -4.743726979e-08)
(0.01099994347 6.118667956e-11 -1.497607672e-08)
(0.01099972509 -3.266362742e-10 -2.349249154e-10)
(0.01099951793 -1.800389442e-09 5.465926547e-09)
(0.01099932608 -1.876213678e-09 8.07920517e-09)
(0.01099916456 -4.553838722e-10 9.568463764e-09)
(0.01099902294 1.274202051e-09 7.191668031e-09)
(0.01099890413 -8.583203604e-10 8.679137651e-09)
(0.01099880941 -9.184356307e-10 5.910564582e-09)
(0.01099872388 -7.925272914e-10 6.38705234e-09)
(0.01099866334 2.710738571e-09 8.773511632e-09)
(0.01099860833 2.752258364e-09 9.107030231e-09)
(0.01100039481 1.894067745e-07 -5.50640472e-08)
(0.01100026036 1.366071651e-07 -6.101455416e-08)
(0.01100020401 8.545146344e-08 -3.393572145e-08)
(0.01100004606 5.048570168e-08 -1.097831476e-08)
(0.01099986123 2.649858491e-08 1.331548569e-10)
(0.01099967182 1.378962509e-08 9.148054484e-09)
(0.01099949323 5.389934863e-09 1.101388695e-08)
(0.01099932908 1.469745027e-10 1.04922948e-08)
(0.0109991856 -4.479597741e-09 1.009598088e-08)
(0.01099905933 -6.390968786e-09 9.235286926e-09)
(0.01099895515 -6.295472937e-09 1.034260357e-08)
(0.0109988632 -7.256771923e-09 8.395889518e-09)
(0.01099879494 -1.173965298e-08 1.113986622e-08)
(0.01099872449 -1.216678619e-08 9.584351415e-09)
(0.01100036244 1.237100717e-07 -6.984208224e-08)
(0.01100036213 1.141876477e-07 -6.461338983e-08)
(0.01100037105 8.513068576e-08 -4.244223527e-08)
(0.01100028567 5.613301787e-08 -2.315170125e-08)
(0.01100016099 3.329855273e-08 -9.977933886e-09)
(0.01100001236 1.712566589e-08 -1.275453332e-09)
(0.01099985919 6.208430367e-09 3.447058465e-09)
(0.01099970775 -1.85770314e-09 5.456429518e-09)
(0.01099956213 -6.472397871e-09 6.857804544e-09)
(0.01099943229 -9.087665459e-09 7.076289157e-09)
(0.01099931155 -1.10594878e-08 7.575186931e-09)
(0.01099920226 -1.228222994e-08 5.391181521e-09)
(0.01099911207 -1.746813391e-08 8.578256204e-09)
(0.01099901987 -1.817244984e-08 8.268437234e-09)
(0.01100034087 1.257832498e-07 -3.54425308e-08)
(0.01100039129 1.174191831e-07 -3.524448916e-08)
(0.01100044472 9.183090483e-08 -2.806223899e-08)
(0.0110004309 6.517233982e-08 -1.839091197e-08)
(0.01100037759 4.412531478e-08 -1.35161096e-08)
(0.0110002874 2.788351035e-08 -7.02545763e-09)
(0.01100018112 1.600072093e-08 -1.393124602e-09)
(0.0110000615 5.576005393e-09 1.700185817e-09)
(0.01099993513 -1.179723415e-09 4.461471536e-09)
(0.01099980773 -4.566581524e-09 4.057258843e-09)
(0.01099968634 -8.546080494e-09 5.076588859e-09)
(0.01099956232 -1.09696914e-08 6.934377177e-09)
(0.01099945809 -1.498443074e-08 6.888669667e-09)
(0.01099934497 -1.626845727e-08 8.802193019e-09)
(0.01100032644 3.050381397e-08 -2.985441957e-08)
(0.01100040609 2.850203088e-08 -3.136137652e-08)
(0.01100048143 2.078429818e-08 -2.464844032e-08)
(0.01100050358 1.744929474e-08 -1.763356215e-08)
(0.01100048778 1.262070124e-08 -1.344107006e-08)
(0.01100043698 7.804622437e-09 -9.240433585e-09)
(0.01100036142 2.998104076e-09 -2.556764366e-09)
(0.01100026998 4.741858214e-10 -6.5549935e-10)
(0.01100015887 2.920228453e-10 1.214982134e-09)
(0.01100004068 -1.114515031e-09 9.490537491e-10)
(0.01099992115 -1.893441928e-09 1.125675898e-09)
(0.0109997957 -2.177198835e-09 2.746749684e-09)
(0.01099968358 -5.578068037e-09 4.73167519e-09)
(0.01099956248 -5.07316475e-09 6.473344298e-09)
(0.01100010889 -7.115358022e-08 -1.700384835e-07)
(0.01100034045 -3.51880009e-08 -1.245631502e-07)
(0.01100039358 -3.489711163e-08 -1.15801429e-07)
(0.01100044714 -2.694642307e-08 -9.004557968e-08)
(0.01100042945 -1.797426753e-08 -6.513070509e-08)
(0.01100037597 -1.138823967e-08 -4.505204422e-08)
(0.01100029235 -5.292154086e-09 -2.755130797e-08)
(0.01100018016 -2.192139993e-09 -1.401567201e-08)
(0.01100006198 8.632922788e-10 -5.562505493e-09)
(0.01099993367 3.671243839e-09 6.654528689e-10)
(0.01099980803 5.073147765e-09 6.462599535e-09)
(0.01099968646 4.042350528e-09 8.829284747e-09)
(0.01099956238 5.753799292e-09 1.137478394e-08)
(0.01099945791 6.486616886e-09 1.626689843e-08)
(0.01099934397 7.043590529e-09 1.652803598e-08)
(0.01100035986 -1.687076335e-07 -1.671882727e-07)
(0.01100033394 -1.544957817e-07 -1.55311571e-07)
(0.01100033712 -1.106438988e-07 -1.131814018e-07)
(0.01100025614 -7.393491998e-08 -7.440150002e-08)
(0.01100014221 -4.334840938e-08 -4.367990848e-08)
(0.01100001166 -2.109325878e-08 -2.010820581e-08)
(0.01099987168 -5.472539852e-09 -7.227692673e-09)
(0.01099973443 2.231669256e-09 2.224036509e-09)
(0.01099960317 9.325755005e-09 1.062547947e-08)
(0.01099947944 1.214068407e-08 1.107522796e-08)
(0.01099936787 1.433245629e-08 1.505732179e-08)
(0.01099926217 1.340811471e-08 1.471885953e-08)
(0.01099917442 1.994831838e-08 2.060305104e-08)
(0.01099908291 2.063225831e-08 1.875645085e-08)
(0.01100036906 -1.438047348e-07 -3.268678878e-07)
(0.01100017833 -1.42594851e-07 -2.714067648e-07)
(0.01100006701 -9.4957058e-08 -1.690578855e-07)
(0.01099986807 -5.023857608e-08 -9.310059484e-08)
(0.01099966057 -2.148966664e-08 -4.189219376e-08)
(0.01099946668 -2.037599489e-09 -1.077759731e-08)
(0.01099929829 8.849060967e-09 7.226296036e-09)
(0.01099915513 1.352229877e-08 1.644509622e-08)
(0.01099903443 1.588517091e-08 1.971492364e-08)
(0.01099893826 1.581728637e-08 2.072067827e-08)
(0.0109988572 1.513040682e-08 2.13241404e-08)
(0.0109987865 1.570457536e-08 2.035169272e-08)
(0.01099873479 2.010516053e-08 2.605101217e-08)
(0.0109986858 2.233562105e-08 2.496545307e-08)
(0.01100028984 -2.702423751e-07 -3.422194484e-07)
(0.01099974734 -1.741332212e-07 -2.959638242e-07)
(0.01099951866 -9.391380928e-08 -1.557168752e-07)
(0.01099922589 -3.93550812e-08 -6.161639221e-08)
(0.01099897447 -1.321821835e-08 -1.169393003e-08)
(0.01099878161 6.541340675e-10 1.477819039e-08)
(0.01099863056 6.89636983e-09 2.666832429e-08)
(0.01099852487 9.059964091e-09 2.929369238e-08)
(0.0109984485 9.936147532e-09 2.954540711e-08)
(0.01099839799 9.79836557e-09 2.553938121e-08)
(0.01099836227 9.46668806e-09 2.49874838e-08)
(0.01099834048 1.066308512e-08 2.292294085e-08)
(0.01099833097 1.40602679e-08 3.051523625e-08)
(0.01099832341 1.480241497e-08 2.923674882e-08)
(0.01100043409 4.757268899e-10 -7.025670691e-07)
(0.01099952173 -7.882262777e-10 -4.380212351e-07)
(0.01099919234 -3.212220778e-10 -1.98334935e-07)
(0.01099885976 4.646788354e-10 -6.880081601e-08)
(0.010998607 3.771418642e-10 -1.169483118e-08)
(0.01099843392 -6.369712956e-10 1.657059323e-08)
(0.01099831508 -3.347677691e-09 2.561998408e-08)
(0.01099823851 -1.541115535e-09 2.826829066e-08)
(0.01099819354 -9.288723255e-10 2.633849299e-08)
(0.01099816857 -1.184282822e-09 2.43740048e-08)
(0.01099816055 1.40584598e-09 2.464504076e-08)
(0.01099815697 1.437145508e-09 2.27870428e-08)
(0.01099816838 2.331915133e-09 2.878852406e-08)
(0.01099817686 1.034731479e-09 2.865339703e-08)
(0.01100028741 2.694615969e-07 -3.400408753e-07)
(0.01099974806 1.752953111e-07 -2.961028506e-07)
(0.01099951852 9.240597142e-08 -1.543951364e-07)
(0.01099922393 3.929792995e-08 -6.269154859e-08)
(0.0109989744 1.20871831e-08 -1.126646639e-08)
(0.01099877888 -3.392965999e-10 1.609818138e-08)
(0.01099862964 -6.583841893e-09 2.868220609e-08)
(0.01099852522 -9.016836e-09 2.816471278e-08)
(0.01099844866 -1.109354516e-08 2.673611596e-08)
(0.0109983974 -1.164127357e-08 2.632370289e-08)
(0.01099836511 -1.155527436e-08 2.558431918e-08)
(0.01099834157 -1.088584171e-08 2.399850559e-08)
(0.01099833307 -1.49273071e-08 2.984025131e-08)
(0.01099832099 -1.435176808e-08 2.805347083e-08)
(0.01100036597 1.447815047e-07 -3.247353134e-07)
(0.01100017689 1.423825484e-07 -2.693585007e-07)
(0.01100007024 9.40068727e-08 -1.697246698e-07)
(0.01099986724 4.896795852e-08 -9.308677101e-08)
(0.01099965978 2.083058957e-08 -4.329763587e-08)
(0.01099946765 6.348482609e-11 -9.940117502e-09)
(0.01099929869 -7.447374318e-09 8.136577504e-09)
(0.01099915655 -1.231657715e-08 1.508463686e-08)
(0.01099903308 -1.404406067e-08 1.802874306e-08)
(0.01099893805 -1.419702339e-08 1.903773802e-08)
(0.01099885699 -1.64953465e-08 2.278535482e-08)
(0.01099878945 -1.651169799e-08 2.046225841e-08)
(0.01099873726 -2.268036062e-08 2.613155674e-08)
(0.01099868728 -2.268168497e-08 2.331178167e-08)
(0.01100035812 1.686247751e-07 -1.669318954e-07)
(0.01100033298 1.534078585e-07 -1.540018214e-07)
(0.01100033487 1.106891784e-07 -1.130214263e-07)
(0.01100025482 7.38577389e-08 -7.521887801e-08)
(0.0110001444 4.568531577e-08 -4.338526296e-08)
(0.01100001097 2.203227226e-08 -2.096889729e-08)
(0.01099987107 6.062561003e-09 -7.18970975e-09)
(0.01099973399 -3.512706426e-09 3.432898179e-09)
(0.01099960019 -9.736967316e-09 1.032051777e-08)
(0.01099947892 -1.222754924e-08 1.31060101e-08)
(0.01099936658 -1.526935544e-08 1.551749065e-08)
(0.01099926127 -1.645046094e-08 1.59851403e-08)
(0.01099917559 -2.006155914e-08 2.116261419e-08)
(0.0109990854 -1.880831835e-08 1.980158427e-08)
(0.01100034151 3.634406835e-08 -1.243192567e-07)
(0.01100039053 3.523933951e-08 -1.171383899e-07)
(0.01100044554 2.526531652e-08 -9.243244707e-08)
(0.01100043357 1.808644415e-08 -6.716645111e-08)
(0.01100037668 1.032818475e-08 -4.385761667e-08)
(0.01100028767 6.194025167e-09 -2.751626141e-08)
(0.01100018178 1.166235458e-09 -1.605238297e-08)
(0.01100005836 -1.830604444e-09 -6.080928692e-09)
(0.01099993315 -4.014796059e-09 7.870472457e-10)
(0.01099980629 -4.878123278e-09 5.55787838e-09)
(0.01099968872 -6.178901688e-09 9.962386295e-09)
(0.01099956089 -5.472561515e-09 1.196181012e-08)
(0.01099946023 -7.267606055e-09 1.584687889e-08)
(0.01099934822 -7.507751961e-09 1.574792217e-08)
(0.01100003407 -1.47750498e-07 -2.210374024e-07)
(0.01100036053 -6.679814352e-08 -1.243059983e-07)
(0.01100036374 -6.534774391e-08 -1.15998476e-07)
(0.01100036983 -3.967722231e-08 -8.510248278e-08)
(0.01100028515 -2.147619234e-08 -5.497218415e-08)
(0.01100016203 -1.157624142e-08 -3.252645791e-08)
(0.0110000134 -1.456939812e-09 -1.65036512e-08)
(0.0109998577 5.006251236e-09 -5.386847966e-09)
(0.01099970718 6.533386009e-09 9.538123417e-10)
(0.01099956402 8.743282554e-09 7.230949849e-09)
(0.01099943004 8.240691422e-09 9.124822708e-09)
(0.01099931396 1.026050569e-08 1.121013793e-08)
(0.01099919936 8.222853983e-09 1.254482379e-08)
(0.01099910963 1.106149814e-08 1.757342542e-08)
(0.0109990164 1.119825532e-08 1.759743758e-08)
(0.01099995023 -5.944978726e-07 -3.730327502e-07)
(0.01100036623 -3.272710616e-07 -1.448669546e-07)
(0.01100017796 -2.695719306e-07 -1.457918824e-07)
(0.01100006842 -1.684970207e-07 -9.445121699e-08)
(0.01099986716 -9.294003704e-08 -4.990364506e-08)
(0.01099966195 -4.191835347e-08 -2.320512581e-08)
(0.01099946883 -1.05642386e-08 -2.702649799e-09)
(0.01099929538 8.033048103e-09 6.952562652e-09)
(0.01099915582 1.638488329e-08 1.279135488e-08)
(0.01099903438 1.889853208e-08 1.493355174e-08)
(0.01099893807 1.9621773e-08 1.67601083e-08)
(0.01099885672 1.829609369e-08 1.650930443e-08)
(0.01099878757 1.906069604e-08 1.657645e-08)
(0.01099873439 2.523550682e-08 2.267206425e-08)
(0.01099868687 2.549116864e-08 2.247822301e-08)
(0.01100023875 -3.029031586e-07 -3.081172721e-07)
(0.01099959293 -2.653476463e-07 -2.668146795e-07)
(0.01099924331 -1.342673485e-07 -1.362792459e-07)
(0.01099885375 -4.549131237e-08 -4.676297336e-08)
(0.01099855634 -1.309150819e-09 -2.174988225e-09)
(0.01099835304 2.089048999e-08 1.982914336e-08)
(0.01099822307 2.705397747e-08 2.827204544e-08)
(0.01099814847 2.874375314e-08 2.904448862e-08)
(0.01099811413 2.486470321e-08 2.541770494e-08)
(0.0109981048 2.257585084e-08 2.235320587e-08)
(0.01099811148 2.040454308e-08 2.182651495e-08)
(0.01099812994 2.078732793e-08 1.98774734e-08)
(0.01099815006 2.652323338e-08 2.855740926e-08)
(0.01099817116 2.801652461e-08 2.542985177e-08)
(0.01099948566 -5.885640021e-07 -4.756390423e-08)
(0.01099797333 -3.181555268e-07 -2.186723975e-07)
(0.01099750247 -1.234719642e-07 -5.283361095e-08)
(0.01099710809 -2.609302287e-08 3.892617961e-08)
(0.01099692239 5.426916083e-09 6.168137433e-08)
(0.01099688605 1.671118181e-08 6.50547393e-08)
(0.01099693353 2.048162806e-08 5.494156916e-08)
(0.01099702917 1.797043807e-08 4.430948174e-08)
(0.01099714217 1.485239928e-08 3.259545695e-08)
(0.01099726688 1.290711104e-08 2.775655648e-08)
(0.01099738773 1.193851473e-08 2.224966021e-08)
(0.01099750188 1.183766213e-08 2.020050853e-08)
(0.01099760297 1.790526371e-08 2.944866324e-08)
(0.01099770128 1.879232176e-08 3.007920965e-08)
(0.01099911466 9.803581677e-10 -4.616170551e-08)
(0.01099655909 1.316122423e-09 -2.475522966e-07)
(0.01099613917 7.69534815e-10 -4.110153009e-08)
(0.01099592763 9.137264386e-10 6.446691709e-08)
(0.01099594553 1.951989088e-10 6.81515336e-08)
(0.01099609765 6.17734074e-10 6.061280531e-08)
(0.01099629374 -5.415429664e-10 4.837111168e-08)
(0.01099650558 -1.534850407e-09 3.608814765e-08)
(0.01099671245 -2.204778389e-10 2.808831012e-08)
(0.01099690552 6.505746665e-10 2.015315786e-08)
(0.01099708247 2.734244308e-10 2.000181906e-08)
(0.01099724504 1.682583635e-10 1.900970364e-08)
(0.01099738108 -3.772776262e-11 3.133188944e-08)
(0.0109975139 -1.103881078e-09 3.021959959e-08)
(0.01099948454 5.878752971e-07 -4.625835205e-08)
(0.01099797348 3.199807925e-07 -2.173976698e-07)
(0.01099750117 1.236471914e-07 -5.064472181e-08)
(0.01099710593 2.605715196e-08 3.99162309e-08)
(0.01099692121 -6.117611537e-09 6.064831064e-08)
(0.01099688631 -1.7157033e-08 6.392830091e-08)
(0.0109969315 -2.059988254e-08 5.56200499e-08)
(0.01099702733 -1.801142378e-08 4.54882676e-08)
(0.01099714457 -1.525186827e-08 3.498947944e-08)
(0.0109972693 -1.430358549e-08 2.732190198e-08)
(0.0109973881 -1.092892916e-08 2.221242162e-08)
(0.01099750228 -1.205659124e-08 2.025717869e-08)
(0.01099760457 -1.761176832e-08 2.969873493e-08)
(0.01099770334 -1.782762819e-08 3.055381749e-08)
(0.01100023973 3.061737431e-07 -3.066858729e-07)
(0.0109995952 2.649066333e-07 -2.658583218e-07)
(0.01099924035 1.327159647e-07 -1.3249038e-07)
(0.01099885263 4.485691776e-08 -4.534252397e-08)
(0.01099855659 6.297165852e-11 -2.101295351e-09)
(0.01099835372 -2.187034721e-08 2.194703195e-08)
(0.01099822213 -2.816478866e-08 2.821470199e-08)
(0.01099814873 -2.808269555e-08 2.73655358e-08)
(0.01099811374 -2.531349204e-08 2.626931466e-08)
(0.01099810853 -2.349078932e-08 2.461535807e-08)
(0.0109981131 -2.233378638e-08 2.311124177e-08)
(0.01099812974 -2.005991401e-08 2.036196708e-08)
(0.01099814774 -2.824778073e-08 2.704622457e-08)
(0.01099817204 -2.736395475e-08 2.772426782e-08)
(0.01100036729 3.253403966e-07 -1.437676416e-07)
(0.01100017631 2.689255266e-07 -1.432632415e-07)
(0.01100006732 1.681343554e-07 -9.365720364e-08)
(0.01099986681 9.283377266e-08 -4.914046209e-08)
(0.0109996593 4.379289559e-08 -2.326333963e-08)
(0.01099946822 1.12877793e-08 -2.896218483e-09)
(0.01099929783 -7.782902664e-09 8.110131475e-09)
(0.01099915516 -1.637218242e-08 1.249246471e-08)
(0.01099903651 -1.904565818e-08 1.575091495e-08)
(0.01099893735 -2.061789736e-08 1.606519861e-08)
(0.01099885516 -2.022624944e-08 1.658982158e-08)
(0.01099878684 -1.990904677e-08 1.742083238e-08)
(0.01099873808 -2.583427898e-08 2.281931779e-08)
(0.0109986835 -2.51826418e-08 1.960763608e-08)
(0.01100036152 7.149841681e-08 -1.236071836e-07)
(0.01100036085 6.325960206e-08 -1.144024226e-07)
(0.01100037001 4.198948258e-08 -8.375083419e-08)
(0.01100028689 2.393164711e-08 -5.502940413e-08)
(0.0110001613 1.027932885e-08 -3.566443826e-08)
(0.01100001207 1.74885443e-09 -1.789010928e-08)
(0.0109998559 -2.050890697e-09 -6.803703101e-09)
(0.01099970701 -5.095117539e-09 1.17867044e-09)
(0.01099956247 -6.656700241e-09 6.759185635e-09)
(0.01099943276 -7.168153273e-09 8.881102397e-09)
(0.01099931338 -7.219685948e-09 1.470063473e-08)
(0.01099920054 -6.404453053e-09 1.405485893e-08)
(0.01099911125 -9.639648851e-09 1.652458762e-08)
(0.01099901634 -9.389022529e-09 1.561345713e-08)
(0.01100000734 -2.200179251e-07 -3.491403832e-07)
(0.01100039308 -5.360881585e-08 -1.921216447e-07)
(0.01100026233 -6.174816386e-08 -1.360371736e-07)
(0.01100020348 -3.399546822e-08 -8.520051706e-08)
(0.01100004499 -1.311500119e-08 -4.747405917e-08)
(0.01099986102 2.151512843e-09 -2.387247066e-08)
(0.01099967213 8.339437999e-09 -1.17145858e-08)
(0.01099949127 1.025191543e-08 -4.226408415e-09)
(0.01099933082 1.134183929e-08 -2.468548713e-10)
(0.0109991845 1.092683163e-08 2.415658574e-09)
(0.01099906129 1.047491285e-08 4.658298421e-09)
(0.01099895551 9.712569282e-09 7.607943155e-09)
(0.01099886295 8.912703742e-09 9.218463279e-09)
(0.01099879127 1.27231931e-08 1.084170279e-08)
(0.010998723 1.094794074e-08 1.34758692e-08)
(0.01099988085 -9.599830748e-07 -7.397226751e-07)
(0.01100028696 -3.427713233e-07 -2.711190948e-07)
(0.01099974828 -2.949416603e-07 -1.747059493e-07)
(0.0109995186 -1.578274291e-07 -9.299585058e-08)
(0.01099922304 -6.23917037e-08 -3.926561294e-08)
(0.01099897488 -1.253825679e-08 -1.304491792e-08)
(0.01099877957 1.56589539e-08 1.1268135e-09)
(0.01099862848 2.649433554e-08 4.539700384e-09)
(0.0109985243 2.919978243e-08 8.529619435e-09)
(0.01099845137 2.841907691e-08 1.015181891e-08)
(0.01099839858 2.604418801e-08 1.027929942e-08)
(0.01099836417 2.412468327e-08 9.423861111e-09)
(0.01099834001 2.222293922e-08 1.048917244e-08)
(0.01099832949 2.84972884e-08 1.497867284e-08)
(0.01099832267 2.738093842e-08 1.601923972e-08)
(0.01099910466 -1.459213704e-06 -2.151228002e-06)
(0.01099948708 -4.659126072e-08 -5.907991465e-07)
(0.01099797401 -2.168333363e-07 -3.197308639e-07)
(0.01099750255 -5.062022642e-08 -1.267660586e-07)
(0.01099710621 3.866101237e-08 -2.766454039e-08)
(0.01099692049 6.199695691e-08 4.653749125e-09)
(0.01099688671 6.363371574e-08 1.690726706e-08)
(0.01099693324 5.63961515e-08 1.776592581e-08)
(0.01099702954 4.455996523e-08 1.666976299e-08)
(0.01099714195 3.27580663e-08 1.608797156e-08)
(0.01099726735 2.505609321e-08 1.298476379e-08)
(0.01099738552 2.168419293e-08 1.120286778e-08)
(0.0109975014 1.887286179e-08 1.287671726e-08)
(0.01099760192 2.934241314e-08 1.820722879e-08)
(0.01099770017 3.102001645e-08 1.813806113e-08)
(0.010995444 -1.306472071e-08 -1.533622506e-08)
(0.01099268205 -1.546467151e-07 -1.547195771e-07)
(0.01099297666 1.728063711e-09 1.333588637e-09)
(0.01099325094 7.14427132e-08 7.314830256e-08)
(0.01099373513 5.972985863e-08 5.969008856e-08)
(0.01099430539 4.260967487e-08 4.28095548e-08)
(0.01099483987 2.919931454e-08 2.884871303e-08)
(0.01099532597 1.918640406e-08 1.837107062e-08)
(0.01099574581 1.374763162e-08 1.378096607e-08)
(0.01099611278 9.849856158e-09 9.355767318e-09)
(0.01099642187 1.002604909e-08 1.081093792e-08)
(0.01099670186 1.060488956e-08 9.742670753e-09)
(0.01099692479 1.787948107e-08 2.076715244e-08)
(0.01099713595 2.028853958e-08 1.938692745e-08)
(0.01098973862 1.323960737e-09 4.385277212e-07)
(0.01098587533 -5.339681646e-10 -5.412270422e-08)
(0.01098848864 -1.283643462e-10 -5.316657516e-08)
(0.01099021538 -6.68022959e-10 3.899491465e-08)
(0.01099163313 -1.062978543e-09 2.164334294e-08)
(0.01099282168 1.830199383e-11 4.360412216e-09)
(0.01099376156 -1.201026715e-09 -1.449794385e-09)
(0.0109945124 -2.581520206e-10 -1.993449337e-09)
(0.01099511686 -4.656939191e-11 -5.426229923e-10)
(0.01099561412 5.064765576e-10 -1.536724542e-10)
(0.01099602178 -2.1109363e-10 4.719550147e-09)
(0.01099636923 5.926686583e-10 5.264699295e-09)
(0.01099664655 -5.862838248e-11 1.815971975e-08)
(0.01099690942 3.862508509e-10 7.442780127e-09)
(0.01099544264 1.380981084e-08 -1.489027391e-08)
(0.01099268277 1.548944776e-07 -1.556348988e-07)
(0.01099297397 -8.519500014e-11 -5.09625956e-10)
(0.01099324952 -7.094056918e-08 7.055712482e-08)
(0.01099373732 -5.909969061e-08 6.07900936e-08)
(0.01099430562 -4.337716527e-08 4.197433293e-08)
(0.0109948417 -3.029523698e-08 2.928980836e-08)
(0.01099532412 -2.002549237e-08 1.935573671e-08)
(0.01099574837 -1.300296016e-08 1.45283554e-08)
(0.01099611574 -1.072717792e-08 9.580958759e-09)
(0.01099642441 -9.877666984e-09 1.046644603e-08)
(0.01099670192 -1.207780432e-08 9.651705427e-09)
(0.01099692364 -1.910272559e-08 1.834081197e-08)
(0.01099713779 -2.116917436e-08 1.85992937e-08)
(0.01099948606 4.672017839e-08 -5.888200924e-07)
(0.01099797538 2.18594877e-07 -3.205689111e-07)
(0.01099750028 5.106142664e-08 -1.243733212e-07)
(0.01099710567 -3.96810421e-08 -2.682754792e-08)
(0.01099692126 -6.289139819e-08 7.224537867e-09)
(0.01099688547 -6.402881067e-08 1.64124212e-08)
(0.01099693278 -5.416070966e-08 1.733232874e-08)
(0.01099702916 -4.424741662e-08 1.796185168e-08)
(0.01099714334 -3.481668697e-08 1.627317185e-08)
(0.01099726715 -2.820489504e-08 1.307320148e-08)
(0.01099738551 -2.397455144e-08 1.349362718e-08)
(0.01099750231 -1.887403353e-08 1.290510311e-08)
(0.0109976026 -2.856969491e-08 1.870059095e-08)
(0.01099770163 -3.017660313e-08 1.795107196e-08)
(0.01100028717 3.409803337e-07 -2.694336685e-07)
(0.01099974534 2.9491409e-07 -1.740672431e-07)
(0.010999517 1.556074218e-07 -9.114037517e-08)
(0.01099921954 6.241603277e-08 -3.851470248e-08)
(0.0109989728 1.142633281e-08 -1.292101568e-08)
(0.01099877853 -1.662174961e-08 -6.079711709e-11)
(0.01099862874 -2.767431628e-08 6.883337086e-09)
(0.01099852552 -3.082661839e-08 1.003099184e-08)
(0.01099844831 -2.816765674e-08 1.031955729e-08)
(0.01099839905 -2.597694654e-08 1.122364364e-08)
(0.01099836297 -2.540347269e-08 1.253203824e-08)
(0.01099834142 -2.278446744e-08 1.10131733e-08)
(0.01099833183 -3.076320403e-08 1.556624361e-08)
(0.01099832012 -2.835443635e-08 1.629340387e-08)
(0.01100039134 5.46987518e-08 -1.896183635e-07)
(0.0110002612 6.056320435e-08 -1.34655212e-07)
(0.01100020224 3.477183915e-08 -8.402204307e-08)
(0.01100004464 1.274923461e-08 -4.822233675e-08)
(0.01099986245 5.479464732e-10 -2.6096218e-08)
(0.0109996712 -6.001364018e-09 -1.265025339e-08)
(0.01099949025 -9.712218405e-09 -4.52837449e-09)
(0.01099933113 -1.122688131e-08 2.2876921e-09)
(0.01099918614 -1.18446896e-08 3.111262029e-09)
(0.01099905944 -8.821894951e-09 8.314794693e-09)
(0.01099895407 -7.144024826e-09 7.185122893e-09)
(0.01099886277 -7.872045286e-09 8.816764378e-09)
(0.01099878987 -1.033270798e-08 1.306595755e-08)
(0.01099872053 -1.001002976e-08 1.322689551e-08)
(0.01099986387 -5.217523935e-07 -1.621599455e-09)
(0.01100050148 -1.377953605e-07 -1.186023696e-09)
(0.01100027038 -9.413905547e-08 9.717486075e-10)
(0.01100014962 -4.187390491e-08 -1.222604508e-09)
(0.01099994118 -1.123674078e-08 5.703208795e-11)
(0.01099972404 4.731285249e-09 -1.931645898e-09)
(0.01099951595 1.173727735e-08 -1.937200095e-09)
(0.01099932675 1.145883883e-08 -2.323730522e-09)
(0.01099916153 1.276434715e-08 -6.246975699e-10)
(0.01099902337 1.345604297e-08 -5.304230906e-10)
(0.01099890523 1.050088628e-08 -5.525338137e-11)
(0.01099880732 9.459877813e-09 -2.250678938e-09)
(0.0109987236 8.931665514e-09 -1.66820198e-09)
(0.01099866008 1.413993318e-08 -1.192596911e-09)
(0.01099860576 1.37881449e-08 -1.484942914e-10)
(0.01099952426 -2.362782155e-06 -2.523983367e-09)
(0.0110004325 -7.007668427e-07 -1.017391902e-09)
(0.01099952002 -4.388284876e-07 1.973321463e-10)
(0.01099919 -2.025372748e-07 7.388177078e-10)
(0.01099885796 -6.915158287e-08 -3.026470977e-10)
(0.01099860511 -1.065906526e-08 2.176612612e-09)
(0.01099843206 1.64197601e-08 -8.678069404e-10)
(0.01099831433 2.601812859e-08 6.247473438e-10)
(0.01099824097 2.853280725e-08 3.728633106e-10)
(0.01099819151 2.800330046e-08 -1.209986882e-10)
(0.01099816702 2.532064524e-08 -5.654001881e-10)
(0.0109981569 2.207121667e-08 -2.563234547e-09)
(0.01099815858 2.054783611e-08 -1.052462334e-09)
(0.01099816682 3.044123696e-08 -6.657802324e-10)
(0.01099817621 2.892440546e-08 2.875586315e-10)
(0.01099728924 -4.982143616e-06 -1.854726162e-09)
(0.01099911388 -4.665105702e-08 -4.783533937e-10)
(0.0109965581 -2.460769668e-07 -4.373776683e-10)
(0.01099613974 -4.016880511e-08 1.5825703e-09)
(0.01099592971 6.489525534e-08 -1.740794583e-10)
(0.01099594399 6.860417908e-08 3.615508192e-11)
(0.01099609867 6.039929133e-08 -1.205256269e-10)
(0.01099629438 4.920724952e-08 -4.659196187e-11)
(0.01099650487 3.722231579e-08 -4.137397909e-10)
(0.01099671065 2.779305374e-08 -2.435539523e-10)
(0.01099690567 2.121391681e-08 -7.368270625e-10)
(0.01099708109 2.084730892e-08 -2.32876443e-10)
(0.01099724513 1.780682698e-08 -1.675518778e-09)
(0.01099738016 2.96662249e-08 -8.41516862e-10)
(0.01099751169 3.083817323e-08 2.259572758e-10)
(0.01098524179 -2.285445254e-05 -3.968025099e-10)
(0.01098973451 4.378828908e-07 -1.021953511e-09)
(0.01098587518 -5.448332256e-08 -1.333543541e-09)
(0.01098848942 -5.043943077e-08 -6.315006931e-10)
(0.01099021525 4.110325911e-08 6.862142131e-13)
(0.01099163183 2.084687926e-08 -4.274850572e-10)
(0.01099281967 5.20431884e-09 -4.064519125e-10)
(0.01099376152 6.020740706e-11 1.289675603e-10)
(0.01099451168 -3.045429305e-09 -5.962153446e-10)
(0.01099511844 -6.645738492e-10 -5.758744416e-10)
(0.01099561254 -2.425731489e-10 -1.06831033e-09)
(0.01099601923 2.729321234e-09 -8.079798232e-10)
(0.01099636931 6.282550953e-09 1.585519984e-09)
(0.01099664374 1.73623876e-08 6.950908908e-10)
(0.01099691052 7.987419228e-09 2.114562322e-11)
(0.0109723767 1.95252656e-09 -2.158346719e-09)
(0.01096773118 4.703530189e-10 -2.223374141e-09)
(0.0109793518 -5.317392542e-10 -1.849348211e-10)
(0.01098521938 -1.282137739e-09 8.394740174e-10)
(0.01098859642 -1.068693687e-09 2.983616364e-10)
(0.01099086737 6.551566668e-11 7.931212847e-10)
(0.01099242366 3.268208793e-10 -9.155519709e-10)
(0.01099354864 -1.261323225e-10 2.325508849e-10)
(0.01099438971 4.034532337e-10 1.561203607e-10)
(0.01099504637 2.161253451e-10 5.419489228e-10)
(0.01099556531 2.89667221e-10 -7.317443358e-10)
(0.01099600676 8.82217921e-10 -8.545640936e-10)
(0.01099633063 -4.856889827e-10 2.26389043e-10)
(0.01099668591 5.55400805e-10 -3.451781326e-10)
(0.01098973616 -4.383903192e-07 -1.19224835e-09)
(0.01098587189 5.529270683e-08 -4.905689831e-10)
(0.01098848808 5.266347574e-08 -1.80554884e-10)
(0.01099021538 -3.955286e-08 -6.531654096e-10)
(0.01099163275 -1.914653691e-08 -1.240853826e-10)
(0.0109928195 -7.010458866e-09 5.073551233e-10)
(0.01099375824 -1.412212704e-09 2.384743785e-10)
(0.01099451029 1.146032496e-09 1.692109076e-10)
(0.01099512046 8.16987666e-11 1.096028522e-10)
(0.01099561276 -4.051201983e-10 6.214396348e-10)
(0.01099602005 -2.315202489e-09 -4.506812429e-10)
(0.01099637139 -5.173121475e-09 8.878108399e-10)
(0.01099664714 -1.813611741e-08 1.126302035e-10)
(0.0109969082 -7.788198077e-09 2.835433856e-10)
(0.01099911328 4.674942435e-08 2.683447114e-10)