/*--------------------------------*- C++ -*----------------------------------*\
| =========                 |                                                 |
| \\      /  F ield         | OpenFOAM: The Open Source CFD Toolbox           |
|  \\    /   O peration     | Version:  4.x                                   |
|   \\  /    A nd           | Web:      www.OpenFOAM.org                      |
|    \\/     M anipulation  |                                                 |
\*---------------------------------------------------------------------------*/
FoamFile
{
    version     2.0;
    format      ascii;
    class       volScalarField;
    location    "1000";
    object      X_CO2;
}
// * * * * * * * * * * * * * * * * * * * * * * * * * * * * * * * * * * * * * //

dimensions      [0 0 0 0 0 0 0];

internalField   nonuniform List<scalar> 
1174
(
0.00415860046
0.004164056502
0.004171773561
0.004181855649
0.004194204552
0.004208555099
0.004224532969
0.004241708297
0.004259644602
0.004277927846
0.004296174223
0.004313971277
0.004330585799
0.004343666491
0.004163720475
0.00417247568
0.004184153684
0.004198494338
0.004215012825
0.004233117585
0.004252204532
0.004271721719
0.004291202162
0.004310270923
0.00432863114
0.004345991963
0.004361792362
0.004374016505
0.004175037825
0.004190531266
0.004209734415
0.004231578933
0.004254901757
0.004278654048
0.004302001278
0.004324346081
0.004345305592
0.004364668884
0.004382342061
0.004398263635
0.004412167223
0.004422609362
0.004191635838
0.004215727871
0.004243437461
0.004272753463
0.004301991553
0.004329936268
0.004355822574
0.004379250344
0.004400087096
0.004418377765
0.004434268431
0.004447924742
0.004459351248
0.004467659581
0.004203503876
0.00423232425
0.004263824437
0.004295798212
0.004326642438
0.004355326054
0.004381282204
0.004404284576
0.004424341179
0.004441606092
0.004456311638
0.004468698104
0.004478861436
0.004486136075
0.00419163556
0.004215727397
0.004243436829
0.004272752466
0.004301990672
0.00432993508
0.004355821177
0.00437924911
0.004400085765
0.004418376272
0.004434266487
0.00444792312
0.004459349601
0.00446765758
0.004175037663
0.004190530811
0.00420973359
0.004231578002
0.004254900491
0.004278652393
0.004301999389
0.004324343834
0.004345303484
0.004364666541
0.004382339311
0.004398260821
0.004412164327
0.004422606156
0.004163720034
0.004172475146
0.004184153037
0.004198493521
0.004215011822
0.004233116356
0.004252202992
0.00427171984
0.004291199962
0.004310268447
0.004328628287
0.004345988927
0.004361789428
0.004374013008
0.004158600241
0.004164056347
0.004171773183
0.00418185522
0.004194203772
0.004208554084
0.00422453148
0.004241706502
0.00425964242
0.004277925646
0.004296171653
0.004313968654
0.004330582588
0.004343662931
0.004157818297
0.004163720142
0.004172475182
0.004184153452
0.004198494197
0.004215012856
0.004233117398
0.004252204395
0.00427172168
0.004291201936
0.00431027076
0.004328630881
0.00434599184
0.004361792231
0.004374016284
0.004175274242
0.004190666738
0.004209469676
0.004230564792
0.004252825205
0.004275296981
0.004297266955
0.004318255627
0.004337977818
0.004356288735
0.004373132404
0.004388457449
0.004401982578
0.004412229727
0.004204365126
0.00423431229
0.004266928806
0.00429946761
0.004330037129
0.004357597186
0.004381761105
0.004402565489
0.004420282496
0.004435285212
0.004447962003
0.004458646888
0.004467484298
0.004473876647
0.004256117929
0.004305976341
0.004353505692
0.004395148981
0.004429643269
0.004457123757
0.004478410555
0.004494554181
0.004506591604
0.004515436282
0.004521845408
0.004526418692
0.004529600478
0.004531580912
0.004305021518
0.004365069951
0.004416103328
0.004456748152
0.004487762185
0.004510667503
0.004527096885
0.004538522099
0.00454616829
0.004551012771
0.004553816977
0.00455517069
0.004555552431
0.004555432755
0.004256116832
0.004305975064
0.004353504004
0.004395147273
0.004429641129
0.004457121384
0.004478408013
0.004494551538
0.004506588889
0.004515433802
0.004521842868
0.00452641636
0.004529598013
0.004531578509
0.004204364075
0.004234310854
0.004266926814
0.004299465088
0.004330034342
0.004357594397
0.00438175781
0.004402562113
0.004420279045
0.004435281417
0.004447958236
0.004458643108
0.004467480523
0.004473872479
0.004175273125
0.004190665877
0.004209468615
0.004230563398
0.004252823275
0.004275294641
0.004297264321
0.004318252869
0.004337974477
0.004356285361
0.004373128634
0.004388453318
0.004401978148
0.004412225278
0.004163719985
0.004172475207
0.00418415296
0.004198493463
0.004215011637
0.004233115863
0.004252202371
0.004271719431
0.004291198999
0.004310267448
0.004328627327
0.004345987904
0.004361787835
0.004374011152
0.004163915612
0.004175037301
0.00419053051
0.004209733672
0.004231578232
0.004254901185
0.004278653301
0.004302000578
0.004324345494
0.00434530531
0.004364668732
0.004382341658
0.004398263194
0.004412166483
0.004422608481
0.004180226695
0.004204364033
0.004234311325
0.004266928031
0.004299466771
0.004330036272
0.004357596696
0.004381760834
0.004402565225
0.004420282383
0.004435284919
0.004447961622
0.00445864668
0.004467484156
0.004473876404
0.004290376992
0.004353657912
0.0044111219
0.00445840833
0.004494578877
0.004520621871
0.004538323185
0.004549594279
0.004556147433
0.004559378863
0.004560365886
0.00455991823
0.004558675769
0.004557335751
0.004481875449
0.004588999658
0.004663261821
0.004707488036
0.004728685427
0.004733971964
0.004729117746
0.004718318905
0.00470443162
0.004689309492
0.004674114198
0.004659592423
0.004646444432
0.00463637014
0.004733082167
0.004840095228
0.004886715153
0.004895735472
0.00488352252
0.004860430221
0.004832621072
0.004803618911
0.004775355411
0.004748828705
0.004724507346
0.004702626095
0.004683596679
0.0046693651
0.004481869629
0.004588994407
0.004663256939
0.004707482849
0.004728679863
0.004733966525
0.004729112731
0.004718313872
0.00470442675
0.004689304903
0.004674109894
0.004659588114
0.004646440421
0.004636366711
0.00429037231
0.004353654117
0.004411117973
0.004458403634
0.004494573558
0.004520616126
0.004538317113
0.004549588146
0.004556141269
0.004559372724
0.004560360057
0.004559912503
0.004558670324
0.004557330322
0.004204363935
0.00423431054
0.004266926307
0.004299464477
0.004330033622
0.004357593046
0.004381756199
0.004402560247
0.004420276726
0.00443527938
0.004447956075
0.004458640932
0.004467478303
0.004473870449
0.004175037459
0.004190530571
0.004209733408
0.004231577257
0.004254899228
0.004278650727
0.004301997522
0.004324341771
0.004345300799
0.004364663713
0.004382336284
0.004398257649
0.004412160941
0.004422602584
0.004173082218
0.004191634412
0.004215726259
0.004243435969
0.004272751745
0.004301990123
0.004329935223
0.00435582177
0.004379249664
0.004400086538
0.004418376924
0.004434267409
0.004447924008
0.004459350616
0.00446765879
0.004210351513
0.00425611538
0.004305973911
0.004353503569
0.004395146991
0.00442964148
0.004457122448
0.004478409675
0.0044945531
0.004506590574
0.004515435606
0.004521844668
0.004526417898
0.004529599651
0.004531580379
0.004351616555
0.004481871039
0.004588995949
0.004663259058
0.004707485793
0.004728683451
0.004733970448
0.004729116655
0.004718318206
0.004704431215
0.004689309075
0.004674113715
0.004659591762
0.004646444094
0.004636370021
0.005139086744
0.005275236086
0.005299360365
0.00526240753
0.005197926837
0.005124954635
0.005053204554
0.004987050519
0.00492803406
0.004876301546
0.004831394143
0.004792736356
0.004760257917
0.00473653054
0.006431441098
0.006267108532
0.006010904926
0.005764076402
0.005553756836
0.005381868103
0.005243042636
0.00513081547
0.005039507098
0.004964598211
0.004902645949
0.004851181271
0.004809037376
0.004778744158
0.005139060477
0.005275218307
0.005299345386
0.005262394015
0.005197914647
0.005124943916
0.005053194832
0.004987041698
0.004928026175
0.004876294324
0.004831387786
0.004792730795
0.004760253249
0.004736526427
0.004481869838
0.004588992163
0.004663252473
0.004707476985
0.004728673572
0.004733960383
0.004729106549
0.004718308041
0.004704421283
0.004689299752
0.004674105268
0.004659584175
0.004646436645
0.004636362813
0.004256116885
0.004305974017
0.004353501413
0.004395143249
0.004429636434
0.004457116306
0.004478402253
0.004494545554
0.004506582776
0.004515427736
0.004521837223
0.004526410676
0.004529592735
0.004531573138
0.004191635829
0.004215727139
0.004243435777
0.00427275031
0.004301987469
0.004329931712
0.00435581703
0.00437924417
0.00440008048
0.004418370623
0.004434260821
0.004447917063
0.004459343224
0.004467651029
0.00417997079
0.004203501683
0.004232321827
0.00426382203
0.004295795941
0.004326640421
0.004355324573
0.004381280825
0.004404283293
0.004424339588
0.004441604726
0.004456310427
0.004468697092
0.004478860531
0.004486134752
0.00424185527
0.00430501747
0.004365065626
0.004416099087
0.004456744355
0.004487758717
0.004510664633
0.004527094647
0.004538520271
0.004546166907
0.004551011359
0.0045538156
0.004555169354
0.004555551243
0.004555431425
0.004544350653
0.004733074255
0.004840086042
0.00488670684
0.004895728379
0.004883517086
0.004860425974
0.004832618266
0.004803616858
0.004775353814
0.004748826901
0.004724505953
0.00470262494
0.004683595388
0.004669363752
0.006198530153
0.006431416771
0.006267090398
0.006010892889
0.005764067884
0.00555375045
0.005381863641
0.00524303927
0.00513081299
0.005039505162
0.004964596711
0.004902644764
0.004851180303
0.004809036425
0.004778743355
0.01203445328
0.009200650509
0.007628103471
0.006705501035
0.006133080182
0.005758224858
0.005500215553
0.005314646715
0.005176092487
0.005069400625
0.004985207194
0.004917653918
0.004863697955
0.00482549178
0.006431441916
0.006267080487
0.006010873787
0.005764048526
0.005553733109
0.005381848368
0.005243026367
0.005130802055
0.005039495553
0.004964588468
0.004902637769
0.00485117397
0.004809031109
0.004778738461
0.004733083593
0.004840085276
0.004886699299
0.004895717158
0.004883504128
0.004860412503
0.004832605181
0.004803604476
0.004775342034
0.004748816529
0.004724496506
0.004702616183
0.004683587512
0.004669356356
0.004305021811
0.004365066973
0.004416097448
0.004456740291
0.004487752578
0.004510656857
0.004527086147
0.004538511398
0.004546157904
0.004551002519
0.004553806924
0.004555161021
0.004555543313
0.004555423563
0.004203503915
0.004232323266
0.004263822065
0.004295794642
0.004326637476
0.004355320176
0.00438127538
0.004404276993
0.004424332928
0.004441597442
0.004456302755
0.004468688938
0.004478852184
0.004486126157
0.004173081909
0.004191633795
0.004215725099
0.004243434586
0.004272750128
0.004301988295
0.004329933305
0.004355819353
0.004379247268
0.004400084269
0.004418374744
0.004434265186
0.004447921475
0.004459348023
0.004467656113
0.004210349889
0.004256112877
0.004305970744
0.004353499662
0.004395143044
0.004429637239
0.004457118341
0.004478405507
0.004494549309
0.004506586869
0.004515432045
0.004521841337
0.004526414687
0.00452959626
0.004531576802
0.004351604685
0.004481859709
0.004588983812
0.004663247152
0.00470747472
0.004728673274
0.004733961269
0.004729108607
0.004718310828
0.004704424138
0.004689302556
0.004674107963
0.004659586625
0.004646439137
0.004636365112
0.00483668113
0.005139036342
0.005275198071
0.005299329441
0.005262381956
0.005197905799
0.00512493753
0.005053189927
0.004987038175
0.004928023416
0.004876292208
0.004831386048
0.004792729081
0.004760251592
0.004736524907
0.006198523443
0.006431406474
0.006267056596
0.006010858705
0.005764038678
0.00555372631
0.005381843821
0.00524302338
0.005130799642
0.005039493853
0.004964586988
0.004902636524
0.004851173197
0.004809030104
0.004778737561
0.00483668977
0.005139036055
0.005275190412
0.00529931837
0.005262369723
0.005197893319
0.00512492586
0.005053179584
0.004987028795
0.004928014931
0.004876285176
0.004831379776
0.004792723493
0.004760246644
0.004736520058
0.004481875653
0.0045889887
0.004663244895
0.004707467992
0.004728664075
0.004733950875
0.004729097553
0.004718300039
0.004704414106
0.004689293132
0.004674099031
0.004659578398
0.004646431527
0.00463635798
0.004256118493
0.004305973772
0.00435350003
0.004395140804
0.004429633121
0.004457112287
0.00447839858
0.004494541657
0.004506578726
0.004515424099
0.004521833211
0.004526406834
0.004529588727
0.004531569247
0.004191636267
0.0042157273
0.004243435478
0.004272749581
0.004301986256
0.004329929912
0.004355814933
0.00437924199
0.004400077991
0.004418367792
0.004434257942
0.004447914337
0.004459340604
0.004467648219
0.004163915327
0.004175036388
0.004190529126
0.004209732123
0.004231576036
0.004254898673
0.004278650703
0.004301997552
0.004324342055
0.004345301704
0.00436466465
0.004382337612
0.004398259087
0.004412162661
0.004422604554
0.004180224639
0.004204361399
0.004234308048
0.004266923764
0.004299462021
0.004330031358
0.004357591813
0.00438175552
0.004402559962
0.004420276943
0.004435279548
0.004447956289
0.004458641423
0.004467478957
0.004473871076
0.004230180295
0.004290366482
0.004353647578
0.004411111203
0.004458397486
0.004494568357
0.00452061173
0.004538313343
0.004549585024
0.004556138458
0.004559370349
0.004560357966
0.004559910792
0.004558668398
0.004557328843
0.00435160407
0.004481857305
0.004588979753
0.004663241191
0.004707467312
0.004728665768
0.004733954243
0.004729101589
0.004718304037
0.004704417987
0.004689296973
0.004674102538
0.004659581766
0.00464643463
0.004636361196
0.004544349116
0.004733063875
0.004840068643
0.004886686442
0.004895707096
0.004883496346
0.004860406585
0.004832600529
0.00480360088
0.004775339831
0.004748814538
0.004724494438
0.004702614487
0.00468358577
0.004669354821
0.0043516041
0.004481855703
0.004588976184
0.004663236491
0.004707461721
0.00472865959
0.004733947914
0.004729095317
0.004718298301
0.004704412727
0.004689292255
0.004674098398
0.00465957795
0.004646430917
0.004636357451
0.004230184442
0.004290369821
0.004353648555
0.004411110115
0.004458394112
0.004494563274
0.004520605808
0.004538306692
0.004549577971
0.004556131628
0.004559363962
0.004560351459
0.004559904292
0.004558662583
0.004557322726
0.004204365211
0.004234309989
0.004266924295
0.004299461078
0.0043300291
0.004357588158
0.004381750795
0.004402554492
0.004420271125
0.004435273622
0.004447950092
0.004458634976
0.004467472661
0.004473864957
0.004175038145
0.004190530707
0.004209732928
0.004231576309
0.004254897658
0.004278648598
0.004301994487
0.004324338406
0.004345297379
0.004364659763
0.004382332031
0.004398253195
0.004412156535
0.004422597864
0.004157817625
0.004163719214
0.004172474256
0.004184152047
0.00419849227
0.00421501067
0.004233115054
0.004252201724
0.004271718522
0.004291198526
0.004310266919
0.004328626616
0.004345987297
0.004361787746
0.00437401139
0.00416407603
0.00417527212
0.00419066461
0.004209466777
0.00423056167
0.004252821448
0.0042752929
0.004297262535
0.004318251253
0.00433797277
0.004356283433
0.004373126773
0.004388451604
0.004401976187
0.004412223136
0.004180224273
0.004204361046
0.004234307259
0.004266922901
0.004299461082
0.00433003
0.00435758986
0.004381753221
0.004402557575
0.004420274209
0.004435276912
0.004447954105
0.004458639038
0.004467476495
0.004473868733
0.004210349618
0.0042561118
0.004305968052
0.004353495699
0.004395138121
0.004429631924
0.004457112126
0.00447839885
0.00449454256
0.004506580063
0.004515425076
0.004521834386
0.00452640819
0.004529590277
0.004531570896
0.004241855185
0.004305014557
0.004365059479
0.004416090523
0.004456733971
0.004487747371
0.004510652781
0.004527082492
0.004538508269
0.004546155049
0.004551000128
0.00455380471
0.004555158909
0.004555541401
0.004555421808
0.004210349511
0.004256111232
0.004305967133
0.004353494034
0.004395135705
0.004429629282
0.004457109171
0.004478395846
0.004494539331
0.004506576901
0.004515421873
0.004521831529
0.004526405194
0.004529587255
0.004531568044
0.004180225184
0.004204361589
0.004234307286
0.00426692186
0.004299459213
0.004330027517
0.004357586849
0.004381749756
0.004402553892
0.004420270512
0.004435272864
0.00444794946
0.004458634446
0.004467472264
0.004473864186
0.004164076893
0.004175272767
0.004190664733
0.004209466549
0.004230560603
0.004252819804
0.004275290793
0.004297260012
0.004318248316
0.004337969142
0.004356279284
0.004373122307
0.004388447078
0.004401972091
0.004412218593
0.004163720712
0.004172475069
0.004184152262
0.004198492313
0.004215009914
0.004233113906
0.00425220004
0.004271716408
0.004291195515
0.004310263285
0.004328622717
0.004345983007
0.004361782972
0.004374005923
0.004155096117
0.004158599671
0.004164055651
0.004171772489
0.004181854573
0.004194202815
0.004208553115
0.004224530557
0.004241705599
0.0042596416
0.004277924424
0.004296170262
0.004313967019
0.004330580864
0.004343661131
0.004157817881
0.004163719444
0.004172474413
0.004184152002
0.004198492225
0.00421501045
0.004233114457
0.004252201037
0.004271717638
0.004291197566
0.004310265822
0.004328625392
0.004345985984
0.004361786236
0.004374009591
0.004163915248
0.004175035975
0.004190528636
0.004209731301
0.004231575123
0.004254897099
0.004278648745
0.00430199536
0.004324339711
0.004345299204
0.004364661705
0.004382334243
0.004398255555
0.004412158961
0.004422600304
0.004173081811
0.004191633413
0.004215724187
0.00424343261
0.004272747388
0.004301984479
0.00432992869
0.004355814157
0.00437924155
0.004400077776
0.004418368031
0.004434258241
0.004447914814
0.004459341308
0.004467648946
0.004179970706
0.004203500632
0.004232319479
0.004263818351
0.004295790866
0.004326633933
0.0043553172
0.004381272612
0.004404274235
0.004424330506
0.004441595116
0.004456300639
0.004468686989
0.004478850313
0.004486124353
0.0041730817
0.004191632964
0.004215723442
0.004243431745
0.004272746129
0.004301983298
0.004329927011
0.004355812436
0.004379239711
0.004400076019
0.004418366151
0.004434256388
0.004447912667
0.004459339107
0.004467646735
0.00416391521
0.004175036122
0.0041905285
0.004209730794
0.004231574286
0.004254896168
0.004278647026
0.004301993394
0.004324337376
0.004345296183
0.004364658963
0.004382331313
0.004398252488
0.004412155667
0.004422596999
0.004157817968
0.004163719474
0.004172474207
0.004184151504
0.004198491591
0.004215009518
0.00423311317
0.004252199181
0.004271715639
0.004291195052
0.004310263163
0.004328622426
0.004345982766
0.004361782627
0.004374005559
0.004155096668
0.004158599974
0.004164056094
0.004171772559
0.0041818544
0.004194202668
0.004208552489
0.004224529215
0.004241703835
0.004259639049
0.004277921502
0.004296166943
0.004313963326
0.00433057685
0.004343656674
)
;

boundaryField
{
    top
    {
        type            calculated;
        value           nonuniform List<scalar> 
127
(
0.004155096668
0.004158600241
0.004163719985
0.004175037459
0.004191635829
0.004203503915
0.004191636267
0.004175038145
0.004163720712
0.004158599974
0.004164056347
0.004172475207
0.004190530571
0.004215727139
0.004232323266
0.0042157273
0.004190530707
0.004172475069
0.004164056094
0.004171773183
0.00418415296
0.004209733408
0.004243435777
0.004263822065
0.004243435478
0.004209732928
0.004184152262
0.004171772559
0.00418185522
0.004198493463
0.004231577257
0.00427275031
0.004295794642
0.004272749581
0.004231576309
0.004198492313
0.0041818544
0.004194203772
0.004215011637
0.004254899228
0.004301987469
0.004326637476
0.004301986256
0.004254897658
0.004215009914
0.004194202668
0.004208554084
0.004233115863
0.004278650727
0.004329931712
0.004355320176
0.004329929912
0.004278648598
0.004233113906
0.004208552489
0.00422453148
0.004252202371
0.004301997522
0.00435581703
0.00438127538
0.004355814933
0.004301994487
0.00425220004
0.004224529215
0.004241706502
0.004271719431
0.004324341771
0.00437924417
0.004404276993
0.00437924199
0.004324338406
0.004271716408
0.004241703835
0.00425964242
0.004291198999
0.004345300799
0.00440008048
0.004424332928
0.004400077991
0.004345297379
0.004291195515
0.004259639049
0.004277925646
0.004310267448
0.004364663713
0.004418370623
0.004441597442
0.004418367792
0.004364659763
0.004310263285
0.004277921502
0.004296171653
0.004328627327
0.004382336284
0.004434260821
0.004456302755
0.004434257942
0.004382332031
0.004328622717
0.004296166943
0.004313968654
0.004345987904
0.004398257649
0.004447917063
0.004468688938
0.004447914337
0.004398253195
0.004345983007
0.004313963326
0.004330582588
0.004361787835
0.004412160941
0.004459343224
0.004478852184
0.004459340604
0.004412156535
0.004361782972
0.00433057685
0.004343662931
0.004374011152
0.004422602584
0.004467651029
0.004486126157
0.004467648219
0.004422597864
0.004374005923
0.004343656674
)
;
    }
    bottom
    {
        type            calculated;
        value           nonuniform List<scalar> 
134
(
0.004157818297
0.004163915612
0.004173082218
0.00417997079
0.004173081909
0.004163915327
0.004157817625
0.004155096117
0.00415860046
0.004163720142
0.004175037301
0.004191634412
0.004203501683
0.004191633795
0.004175036388
0.004163719214
0.004158599671
0.004164056502
0.004172475182
0.00419053051
0.004215726259
0.004232321827
0.004215725099
0.004190529126
0.004172474256
0.004164055651
0.004171773561
0.004184153452
0.004209733672
0.004243435969
0.00426382203
0.004243434586
0.004209732123
0.004184152047
0.004171772489
0.004181855649
0.004198494197
0.004231578232
0.004272751745
0.004295795941
0.004272750128
0.004231576036
0.00419849227
0.004181854573
0.004194204552
0.004215012856
0.004254901185
0.004301990123
0.004326640421
0.004301988295
0.004254898673
0.00421501067
0.004194202815
0.004208555099
0.004233117398
0.004278653301
0.004329935223
0.004355324573
0.004329933305
0.004278650703
0.004233115054
0.004208553115
0.004224532969
0.004252204395
0.004302000578
0.00435582177
0.004381280825
0.004355819353
0.004301997552
0.004252201724
0.004224530557
0.004241708297
0.00427172168
0.004324345494
0.004379249664
0.004404283293
0.004379247268
0.004324342055
0.004271718522
0.004241705599
0.004259644602
0.004291201936
0.00434530531
0.004400086538
0.004424339588
0.004400084269
0.004345301704
0.004291198526
0.0042596416
0.004277927846
0.00431027076
0.004364668732
0.004418376924
0.004441604726
0.004418374744
0.00436466465
0.004310266919
0.004277924424
0.004296174223
0.004328630881
0.004382341658
0.004434267409
0.004456310427
0.004434265186
0.004382337612
0.004328626616
0.004296170262
0.004313971277
0.00434599184
0.004398263194
0.004447924008
0.004468697092
0.004447921475
0.004398259087
0.004345987297
0.004313967019
0.004330585799
0.004361792231
0.004412166483
0.004459350616
0.004478860531
0.004459348023
0.004412162661
0.004361787746
0.004330580864
0.004343666491
0.004374016284
0.004422608481
0.00446765879
0.004486134752
0.004467656113
0.004422604554
0.00437401139
0.004343661131
)
;
    }
    side-walls
    {
        type            calculated;
        value           nonuniform List<scalar> 
261
(
0.00415860046
0.004163720475
0.004175037825
0.004191635838
0.004203503876
0.00419163556
0.004175037663
0.004163720034
0.004158600241
0.004164056502
0.00417247568
0.004190531266
0.004215727871
0.00423232425
0.004215727397
0.004190530811
0.004172475146
0.004164056347
0.004171773561
0.004184153684
0.004209734415
0.004243437461
0.004263824437
0.004243436829
0.00420973359
0.004184153037
0.004171773183
0.004181855649
0.004198494338
0.004231578933
0.004272753463
0.004295798212
0.004272752466
0.004231578002
0.004198493521
0.00418185522
0.004194204552
0.004215012825
0.004254901757
0.004301991553
0.004326642438
0.004301990672
0.004254900491
0.004215011822
0.004194203772
0.004208555099
0.004233117585
0.004278654048
0.004329936268
0.004355326054
0.00432993508
0.004278652393
0.004233116356
0.004208554084
0.004224532969
0.004252204532
0.004302001278
0.004355822574
0.004381282204
0.004355821177
0.004301999389
0.004252202992
0.00422453148
0.004241708297
0.004271721719
0.004324346081
0.004379250344
0.004404284576
0.00437924911
0.004324343834
0.00427171984
0.004241706502
0.004259644602
0.004291202162
0.004345305592
0.004400087096
0.004424341179
0.004400085765
0.004345303484
0.004291199962
0.00425964242
0.004277927846
0.004310270923
0.004364668884
0.004418377765
0.004441606092
0.004418376272
0.004364666541
0.004310268447
0.004277925646
0.004296174223
0.00432863114
0.004382342061
0.004434268431
0.004456311638
0.004434266487
0.004382339311
0.004328628287
0.004296171653
0.004313971277
0.004345991963
0.004398263635
0.004447924742
0.004468698104
0.00444792312
0.004398260821
0.004345988927
0.004313968654
0.004330585799
0.004361792362
0.004412167223
0.004459351248
0.004478861436
0.004459349601
0.004412164327
0.004361789428
0.004330582588
0.004343666491
0.004374016505
0.004422609362
0.004467659581
0.004486136075
0.00446765758
0.004422606156
0.004374013008
0.004343662931
0.004155096117
0.004157817881
0.004163915248
0.004173081811
0.004179970706
0.0041730817
0.00416391521
0.004157817968
0.004155096668
0.004158599671
0.004163719444
0.004175035975
0.004191633413
0.004203500632
0.004191632964
0.004175036122
0.004163719474
0.004158599974
0.004164055651
0.004172474413
0.004190528636
0.004215724187
0.004232319479
0.004215723442
0.0041905285
0.004172474207
0.004164056094
0.004171772489
0.004184152002
0.004209731301
0.00424343261
0.004263818351
0.004243431745
0.004209730794
0.004184151504
0.004171772559
0.004181854573
0.004198492225
0.004231575123
0.004272747388
0.004295790866
0.004272746129
0.004231574286
0.004198491591
0.0041818544
0.004194202815
0.00421501045
0.004254897099
0.004301984479
0.004326633933
0.004301983298
0.004254896168
0.004215009518
0.004194202668
0.004208553115
0.004233114457
0.004278648745
0.00432992869
0.0043553172
0.004329927011
0.004278647026
0.00423311317
0.004208552489
0.004224530557
0.004252201037
0.00430199536
0.004355814157
0.004381272612
0.004355812436
0.004301993394
0.004252199181
0.004224529215
0.004241705599
0.004271717638
0.004324339711
0.00437924155
0.004404274235
0.004379239711
0.004324337376
0.004271715639
0.004241703835
0.0042596416
0.004291197566
0.004345299204
0.004400077776
0.004424330506
0.004400076019
0.004345296183
0.004291195052
0.004259639049
0.004277924424
0.004310265822
0.004364661705
0.004418368031
0.004441595116
0.004418366151
0.004364658963
0.004310263163
0.004277921502
0.004296170262
0.004328625392
0.004382334243
0.004434258241
0.004456300639
0.004434256388
0.004382331313
0.004328622426
0.004296166943
0.004313967019
0.004345985984
0.004398255555
0.004447914814
0.004468686989
0.004447912667
0.004398252488
0.004345982766
0.004313963326
0.004330580864
0.004361786236
0.004412158961
0.004459341308
0.004478850313
0.004459339107
0.004412155667
0.004361782627
0.00433057685
0.004343661131
0.004374009591
0.004422600304
0.004467648946
0.004486124353
0.004467646735
0.004422596999
0.004374005559
0.004343656674
)
;
    }
    inlet
    {
        type            calculated;
        value           nonuniform 0();
    }
    outlet
    {
        type            calculated;
        value           nonuniform List<scalar> 
81
(
0.004343666491
0.004374016505
0.004422609362
0.004467659581
0.004486136075
0.00446765758
0.004422606156
0.004374013008
0.004343662931
0.004374016284
0.004412229727
0.004473876647
0.004531580912
0.004555432755
0.004531578509
0.004473872479
0.004412225278
0.004374011152
0.004422608481
0.004473876404
0.004557335751
0.00463637014
0.0046693651
0.004636366711
0.004557330322
0.004473870449
0.004422602584
0.00446765879
0.004531580379
0.004636370021
0.00473653054
0.004778744158
0.004736526427
0.004636362813
0.004531573138
0.004467651029
0.004486134752
0.004555431425
0.004669363752
0.004778743355
0.00482549178
0.004778738461
0.004669356356
0.004555423563
0.004486126157
0.004467656113
0.004531576802
0.004636365112
0.004736524907
0.004778737561
0.004736520058
0.00463635798
0.004531569247
0.004467648219
0.004422604554
0.004473871076
0.004557328843
0.004636361196
0.004669354821
0.004636357451
0.004557322726
0.004473864957
0.004422597864
0.00437401139
0.004412223136
0.004473868733
0.004531570896
0.004555421808
0.004531568044
0.004473864186
0.004412218593
0.004374005923
0.004343661131
0.004374009591
0.004422600304
0.004467648946
0.004486124353
0.004467646735
0.004422596999
0.004374005559
0.004343656674
)
;
    }
    procBoundary1to0
    {
        type            processor;
        value           nonuniform List<scalar> 
97
(
0.004155096437
0.004155096437
0.004157817805
0.004163915276
0.004173081454
0.004179969787
0.004173081139
0.00416391479
0.004157817496
0.004155096049
0.00415433425
0.004164076982
0.004164076982
0.004164076982
0.004180224982
0.004210348399
0.004241851155
0.004210347471
0.004180223508
0.004164075713
0.004157817634
0.004157091299
0.004164234367
0.004230184849
0.004230184849
0.004230184849
0.004351601948
0.004544325413
0.004351594796
0.004230177471
0.004180223678
0.004163915147
0.004161134389
0.00417683735
0.004231789779
0.004836699935
0.004836699935
0.004836699935
0.006198362446
0.004836643422
0.004351595275
0.004210347729
0.004173081406
0.004164024508
0.004188739723
0.004292879326
0.004705155978
0.01743471887
0.01743471887
0.01743471887
0.006198375006
0.006198375006
0.004544328556
0.00424185196
0.004179970187
0.004161134459
0.004176836943
0.004231790292
0.004391602778
0.00470516197
0.004391598999
0.004351612618
0.004351612618
0.004351612618
0.00421035025
0.00417308182
0.004157091075
0.004164234108
0.004185178478
0.004231790161
0.004292880186
0.004231789443
0.004185178379
0.00418022633
0.00418022633
0.00418022633
0.004163915396
0.004154334006
0.00415714837
0.004164234325
0.004176837133
0.004188739625
0.00417683702
0.004164234185
0.004157148776
0.004157818266
0.004157818266
0.004157818266
0.004153086639
0.004154334101
0.004157091385
0.004161134378
0.004164024267
0.00416113442
0.004157091241
0.004154334201
0.004153086604
)
;
    }
}


// ************************************************************************* //
