/*--------------------------------*- C++ -*----------------------------------*\
| =========                 |                                                 |
| \\      /  F ield         | OpenFOAM: The Open Source CFD Toolbox           |
|  \\    /   O peration     | Version:  4.x                                   |
|   \\  /    A nd           | Web:      www.OpenFOAM.org                      |
|    \\/     M anipulation  |                                                 |
\*---------------------------------------------------------------------------*/
FoamFile
{
    version     2.0;
    format      ascii;
    class       volScalarField;
    location    "1000";
    object      X_CO;
}
// * * * * * * * * * * * * * * * * * * * * * * * * * * * * * * * * * * * * * //

dimensions      [0 0 0 0 0 0 0];

internalField   nonuniform List<scalar> 
1174
(
0.3728667721
0.3728613162
0.3728535994
0.3728435175
0.3728311691
0.372816819
0.3728008418
0.372783667
0.3727657314
0.3727474487
0.3727292029
0.3727114063
0.3726947925
0.3726817122
0.3728616526
0.3728528977
0.3728412201
0.3728268799
0.3728103619
0.3727922579
0.3727731716
0.3727536551
0.3727341755
0.3727151073
0.3726967478
0.3726793876
0.3726635876
0.372651364
0.3728503362
0.3728348435
0.3728156409
0.3727937972
0.3727704752
0.3727467238
0.3727233773
0.3727010332
0.3726800742
0.3726607116
0.3726430392
0.3726271181
0.372613215
0.3726027732
0.3728337397
0.3728096487
0.3727819401
0.3727526252
0.3727233879
0.3726954438
0.3726695583
0.3726461311
0.372625295
0.3726070049
0.3725911149
0.3725774588
0.3725660326
0.3725577246
0.3728218728
0.3727930536
0.3727615546
0.3727295817
0.3726987382
0.3726700552
0.3726440998
0.372621098
0.372601042
0.3725837775
0.3725690723
0.3725566862
0.3725465231
0.3725392486
0.37283374
0.3728096492
0.3727819407
0.372752626
0.3727233887
0.3726954448
0.3726695594
0.3726461322
0.3726252961
0.3726070062
0.3725911164
0.3725774602
0.372566034
0.3725577262
0.3728503365
0.372834844
0.3728156417
0.3727937981
0.3727704763
0.3727467252
0.3727233789
0.372701035
0.3726800761
0.3726607136
0.3726430414
0.3726271205
0.3726132174
0.3726027757
0.372861653
0.3728528982
0.3728412207
0.3728268807
0.3728103629
0.3727922591
0.372773173
0.3727536567
0.3727341774
0.3727151095
0.3726967502
0.3726793902
0.3726635902
0.3726513669
0.3728667724
0.3728613165
0.3728535999
0.3728435181
0.3728311699
0.37281682
0.3728008431
0.3727836685
0.3727657332
0.3727474506
0.3727292052
0.3727114088
0.3726947953
0.3726817152
0.3728675543
0.3728616527
0.3728528979
0.3728412202
0.37282688
0.372810362
0.372792258
0.3727731717
0.3727536552
0.3727341756
0.3727151075
0.372696748
0.3726793877
0.3726635877
0.3726513641
0.3728500999
0.3728347078
0.3728159059
0.3727948115
0.3727725519
0.3727500809
0.3727281116
0.3727071235
0.3726874022
0.3726690919
0.3726522489
0.3726369244
0.3726233997
0.3726131528
0.3728210117
0.3727910658
0.3727584507
0.372725913
0.3726953443
0.3726677849
0.3726436216
0.3726228178
0.3726051013
0.3725900991
0.3725774226
0.372566738
0.3725579007
0.3725515083
0.3727692637
0.3727194075
0.3726718799
0.3726302376
0.3725957438
0.3725682635
0.3725469768
0.3725308333
0.372518796
0.3725099513
0.3725035422
0.3724989689
0.3724957872
0.3724938064
0.372720364
0.3726603183
0.3726092866
0.3725686423
0.3725376282
0.3725147225
0.3724982927
0.3724868671
0.3724792207
0.3724743761
0.3724715718
0.372470218
0.3724698359
0.3724699553
0.3727692648
0.3727194088
0.3726718815
0.3726302392
0.3725957457
0.3725682654
0.3725469788
0.3725308354
0.3725187981
0.3725099533
0.3725035443
0.3724989709
0.3724957892
0.3724938084
0.3728210129
0.3727910673
0.3727584525
0.3727259151
0.3726953466
0.3726677872
0.3726436243
0.3726228205
0.3726051042
0.3725901021
0.3725774257
0.3725667411
0.3725579038
0.3725515117
0.372850101
0.3728347088
0.372815907
0.3727948129
0.3727725536
0.3727500829
0.3727281139
0.3727071259
0.372687405
0.3726690949
0.3726522521
0.3726369278
0.3726234033
0.3726131565
0.372861653
0.3728528982
0.3728412208
0.3728268808
0.3728103631
0.3727922594
0.3727731735
0.3727536571
0.3727341781
0.3727151102
0.372696751
0.372679391
0.3726635913
0.3726513682
0.3728614575
0.3728503364
0.3728348439
0.3728156414
0.3727937976
0.3727704756
0.3727467242
0.3727233777
0.3727010336
0.3726800745
0.3726607119
0.3726430396
0.3726271185
0.3726132155
0.3726027737
0.3728451483
0.3728210121
0.3727910663
0.3727584511
0.3727259134
0.3726953447
0.3726677852
0.3726436219
0.372622818
0.3726051015
0.3725900993
0.3725774229
0.3725667382
0.3725579009
0.3725515086
0.3727350078
0.3726717295
0.3726142675
0.3725669821
0.3725308118
0.3725047686
0.3724870672
0.3724757959
0.3724692426
0.3724660109
0.3724650236
0.3724654711
0.3724667133
0.3724680528
0.3725435265
0.3724364065
0.3723621459
0.3723179188
0.3722967193
0.3722914301
0.372296282
0.372307079
0.3723209648
0.3723360858
0.37235128
0.372365801
0.3723789481
0.3723890214
0.372292338
0.3721853289
0.3721387081
0.3721296837
0.3721418913
0.3721649785
0.3721927833
0.3722217823
0.3722500434
0.3722765685
0.3723008884
0.3723227684
0.3723417969
0.3723560275
0.3725435317
0.3724364115
0.3723621505
0.3723179234
0.3722967238
0.3722914344
0.372296286
0.3723070828
0.3723209684
0.3723360892
0.3723512833
0.3723658041
0.3723789511
0.3723890241
0.3727350125
0.3726717334
0.3726142713
0.3725669862
0.3725308162
0.3725047732
0.3724870719
0.3724758006
0.3724692473
0.3724660156
0.3724650282
0.3724654756
0.3724667176
0.3724680571
0.372821013
0.3727910676
0.3727584529
0.3727259156
0.3726953473
0.3726677883
0.3726436255
0.372622822
0.3726051059
0.3725901037
0.3725774274
0.3725667429
0.3725579056
0.3725515134
0.3728503366
0.3728348442
0.372815642
0.3727937987
0.3727704773
0.3727467264
0.3727233803
0.3727010367
0.3726800781
0.3726607159
0.3726430438
0.372627123
0.3726132201
0.3726027786
0.3728522916
0.3728337403
0.3728096496
0.372781941
0.3727526262
0.3727233888
0.3726954446
0.372669559
0.3726461318
0.3726252956
0.3726070057
0.3725911157
0.3725774596
0.3725660333
0.3725577254
0.372815026
0.3727692647
0.3727194087
0.3726718812
0.3726302388
0.3725957449
0.3725682644
0.3725469776
0.3725308342
0.3725187969
0.372509952
0.372503543
0.3724989697
0.3724957879
0.3724938071
0.3726737757
0.372543528
0.3724364083
0.3723621474
0.3723179202
0.3722967205
0.3722914312
0.3722962829
0.3723070797
0.3723209654
0.3723360863
0.3723512806
0.3723658016
0.3723789486
0.3723890218
0.3718863695
0.3717502215
0.3717260922
0.3717630355
0.3718275055
0.371900468
0.3719722107
0.3720383594
0.3720973718
0.3721491013
0.3721940062
0.3722326621
0.3722651388
0.3722888646
0.370594102
0.3707584151
0.3710145945
0.3712613982
0.371471696
0.3716435677
0.371782381
0.3718945998
0.3719859023
0.3720608071
0.3721227563
0.3721742186
0.3722163607
0.3722466521
0.371886393
0.3717502375
0.371726105
0.3717630463
0.3718275148
0.371900476
0.3719722177
0.3720383656
0.3720973773
0.3721491063
0.3721940106
0.3722326661
0.3722651423
0.3722888678
0.3725435317
0.3724364133
0.3723621536
0.3723179274
0.3722967281
0.3722914388
0.3722962903
0.372307087
0.3723209724
0.372336093
0.3723512868
0.3723658074
0.3723789542
0.3723890272
0.3727692648
0.3727194097
0.3726718834
0.372630242
0.372595749
0.3725682691
0.372546983
0.3725308398
0.3725188027
0.3725099579
0.3725035487
0.3724989754
0.3724957935
0.3724938128
0.3728337399
0.3728096495
0.3727819416
0.3727526276
0.372723391
0.3726954474
0.3726695626
0.372646136
0.3726253002
0.3726070106
0.3725911209
0.372577465
0.3725660391
0.3725577314
0.3728454036
0.3728218738
0.372793055
0.3727615561
0.3727295832
0.3726987397
0.3726700565
0.3726441011
0.3726210993
0.3726010434
0.3725837789
0.3725690736
0.3725566874
0.3725465242
0.3725392499
0.3727835244
0.3727203659
0.372660321
0.3726092894
0.3725686448
0.3725376306
0.3725147247
0.3724982946
0.3724868688
0.3724792222
0.3724743775
0.3724715732
0.3724702193
0.3724698371
0.3724699566
0.372481054
0.3722923409
0.3721853344
0.3721387133
0.3721296883
0.372141895
0.3721649816
0.3721927857
0.3722217843
0.3722500451
0.3722765702
0.3723008898
0.3723227697
0.3723417982
0.3723560288
0.3708269961
0.3705941168
0.3707584267
0.3710146027
0.3712614043
0.3714717007
0.3716435712
0.3717823837
0.371894602
0.3719859041
0.3720608086
0.3721227575
0.3721742197
0.3722163616
0.372246653
0.3649914547
0.3678250604
0.3693974913
0.3703200251
0.3708924012
0.3712672269
0.3715252172
0.3717107741
0.3718493207
0.3719560074
0.3720401972
0.3721077476
0.3721617015
0.3721999055
0.370594102
0.3707584391
0.3710146183
0.3712614183
0.3714717126
0.3716435813
0.3717823923
0.3718946093
0.3719859105
0.3720608142
0.3721227624
0.3721742241
0.3722163655
0.3722466566
0.3722923374
0.3721853368
0.3721387195
0.3721296964
0.372141904
0.3721649907
0.3721927945
0.3722217927
0.3722500531
0.3722765774
0.3723008965
0.3723227761
0.3723418041
0.3723560344
0.372720364
0.3726603207
0.3726092909
0.3725686479
0.3725376349
0.37251473
0.3724983004
0.3724868749
0.3724792285
0.3724743838
0.3724715795
0.3724702256
0.3724698432
0.3724699627
0.3728218728
0.3727930544
0.3727615563
0.3727295843
0.3726987418
0.3726700595
0.3726441048
0.3726211037
0.3726010482
0.3725837841
0.3725690792
0.3725566933
0.3725465304
0.3725392563
0.3728522919
0.372833741
0.3728096506
0.3727819423
0.3727526277
0.3727233905
0.3726954464
0.3726695611
0.3726461339
0.3726252977
0.3726070078
0.3725911179
0.3725774618
0.3725660356
0.3725577277
0.3728150274
0.372769267
0.3727194116
0.3726718844
0.3726302422
0.3725957484
0.3725682679
0.3725469811
0.3725308375
0.3725188001
0.3725099551
0.372503546
0.3724989726
0.3724957909
0.3724938101
0.372673785
0.3725435374
0.3724364184
0.372362157
0.372317929
0.3722967286
0.3722914385
0.3722962894
0.3723070857
0.3723209709
0.3723360915
0.3723512853
0.3723658059
0.3723789526
0.3723890257
0.3721887468
0.3718864073
0.3717502512
0.371726116
0.3717630548
0.3718275213
0.371900481
0.3719722217
0.3720383687
0.3720973798
0.3721491084
0.3721940125
0.3722326677
0.3722651439
0.3722888692
0.3708270014
0.3705941257
0.3707584552
0.3710146288
0.3712614253
0.3714717175
0.3716435849
0.3717823948
0.3718946113
0.3719859121
0.3720608155
0.3721227635
0.372174225
0.3722163664
0.3722466574
0.3721887411
0.3718864096
0.3717502574
0.3717261237
0.3717630628
0.3718275291
0.3719004883
0.3719722282
0.3720383747
0.3720973853
0.3721491131
0.3721940168
0.3722326717
0.3722651474
0.3722888727
0.372543526
0.3724364147
0.3723621582
0.3723179331
0.3722967343
0.372291445
0.3722962963
0.3723070925
0.3723209775
0.3723360978
0.3723512914
0.3723658116
0.3723789581
0.372389031
0.3727692632
0.3727194094
0.372671884
0.3726302434
0.372595751
0.3725682717
0.3725469856
0.3725308425
0.3725188055
0.3725099606
0.3725035517
0.3724989783
0.3724957965
0.3724938157
0.3728337394
0.3728096492
0.3727819416
0.3727526279
0.3727233917
0.3726954485
0.3726695639
0.3726461374
0.3726253019
0.3726070125
0.3725911229
0.372577467
0.3725660411
0.3725577335
0.3728614578
0.3728503372
0.372834845
0.3728156428
0.3727937995
0.3727704778
0.3727467266
0.3727233805
0.3727010366
0.3726800778
0.3726607154
0.3726430431
0.3726271222
0.3726132191
0.3726027774
0.37284515
0.3728210144
0.3727910692
0.3727584546
0.3727259173
0.3726953489
0.3726677894
0.3726436264
0.3726228226
0.3726051062
0.372590104
0.3725774276
0.3725667429
0.3725579056
0.3725515133
0.3727951988
0.372735016
0.3726717377
0.3726142759
0.3725669906
0.3725308201
0.3725047768
0.3724870752
0.3724758035
0.37246925
0.372466018
0.3724650303
0.3724654775
0.3724667195
0.3724680588
0.3726737855
0.3725435394
0.3724364217
0.3723621615
0.3723179343
0.372296734
0.3722914436
0.3722962945
0.3723070905
0.3723209754
0.3723360956
0.3723512893
0.3723658096
0.3723789561
0.3723890289
0.3724810557
0.3722923501
0.3721853482
0.3721387287
0.3721297038
0.3721419098
0.3721649954
0.3721927983
0.3722217958
0.3722500554
0.3722765795
0.3723008985
0.3723227777
0.3723418057
0.3723560358
0.3726737858
0.3725435407
0.372436424
0.3723621645
0.3723179377
0.3722967377
0.3722914474
0.3722962983
0.3723070941
0.3723209788
0.3723360988
0.3723512922
0.3723658123
0.3723789588
0.3723890316
0.3727951958
0.3727350134
0.3726717367
0.3726142763
0.3725669924
0.372530823
0.3725047803
0.3724870792
0.3724758079
0.3724692544
0.3724660223
0.3724650348
0.372465482
0.3724667238
0.3724680631
0.3728210117
0.3727910675
0.3727584539
0.3727259177
0.3726953501
0.3726677916
0.3726436293
0.372622826
0.37260511
0.372590108
0.3725774319
0.3725667474
0.3725579101
0.3725515179
0.372850336
0.3728348439
0.3728156421
0.3727937992
0.3727704783
0.3727467278
0.3727233823
0.372701039
0.3726800806
0.3726607187
0.372643047
0.3726271264
0.3726132236
0.3726027823
0.3728675548
0.3728616534
0.3728528988
0.3728412214
0.3728268816
0.3728103639
0.3727922602
0.3727731742
0.372753658
0.3727341788
0.372715111
0.3726967518
0.3726793918
0.3726635919
0.3726513686
0.372861297
0.3728501016
0.3728347097
0.3728159083
0.3727948142
0.3727725551
0.3727500844
0.3727281155
0.3727071276
0.3726874067
0.3726690967
0.3726522539
0.3726369296
0.3726234052
0.3726131584
0.3728451501
0.3728210147
0.3727910697
0.3727584553
0.3727259182
0.37269535
0.3726677909
0.3726436281
0.3726228244
0.3726051082
0.372590106
0.3725774295
0.3725667449
0.3725579076
0.3725515153
0.3728150277
0.3727692679
0.3727194136
0.3726718874
0.3726302458
0.3725957526
0.3725682726
0.372546986
0.3725308426
0.3725188053
0.3725099604
0.3725035512
0.3724989777
0.3724957958
0.3724938149
0.3727835249
0.3727203685
0.3726603257
0.3726092958
0.3725686525
0.3725376389
0.3725147334
0.3724983035
0.3724868778
0.3724792311
0.3724743861
0.3724715817
0.3724702276
0.3724698451
0.3724699644
0.3728150279
0.3727692683
0.3727194142
0.3726718884
0.3726302472
0.3725957541
0.3725682744
0.3725469879
0.3725308446
0.3725188073
0.3725099625
0.3725035532
0.3724989797
0.3724957978
0.3724938169
0.3728451496
0.3728210143
0.3727910696
0.3727584557
0.3727259191
0.3726953514
0.3726677927
0.3726436302
0.3726228268
0.3726051107
0.3725901087
0.3725774326
0.372566748
0.3725579106
0.3725515185
0.3728612964
0.372850101
0.3728347093
0.3728159081
0.3727948145
0.3727725559
0.3727500856
0.372728117
0.3727071294
0.372687409
0.3726690994
0.3726522569
0.3726369328
0.3726234083
0.3726131619
0.3728616525
0.3728528981
0.3728412211
0.3728268814
0.3728103641
0.3727922607
0.3727731752
0.3727536594
0.3727341807
0.3727151133
0.3726967545
0.3726793948
0.3726635953
0.3726513724
0.3728702761
0.3728667727
0.3728613169
0.3728536004
0.3728435186
0.3728311707
0.3728168208
0.372800844
0.3727836695
0.3727657342
0.3727474519
0.3727292066
0.3727114103
0.372694797
0.3726817169
0.3728675547
0.3728616534
0.3728528988
0.3728412215
0.3728268818
0.3728103641
0.3727922606
0.3727731747
0.3727536587
0.3727341795
0.3727151118
0.3726967528
0.3726793928
0.372663593
0.3726513699
0.3728614578
0.3728503375
0.3728348454
0.3728156434
0.3727938003
0.372770479
0.3727467281
0.3727233822
0.3727010386
0.3726800799
0.3726607178
0.3726430458
0.372627125
0.372613222
0.3726027806
0.372852292
0.3728337414
0.3728096515
0.3727819438
0.3727526299
0.3727233934
0.37269545
0.3726695651
0.3726461384
0.3726253027
0.372607013
0.3725911232
0.3725774672
0.3725660411
0.3725577334
0.3728454038
0.3728218748
0.3727930569
0.372761559
0.3727295871
0.3726987446
0.3726700621
0.3726441074
0.3726211062
0.3726010506
0.3725837864
0.3725690813
0.3725566953
0.3725465323
0.3725392581
0.3728522921
0.3728337416
0.3728096518
0.3727819443
0.3727526306
0.3727233941
0.3726954509
0.3726695661
0.3726461395
0.3726253038
0.3726070142
0.3725911245
0.3725774687
0.3725660426
0.372557735
0.3728614578
0.3728503374
0.3728348454
0.3728156436
0.3727938007
0.3727704795
0.3727467291
0.3727233834
0.37270104
0.3726800817
0.3726607196
0.3726430478
0.3726271272
0.3726132244
0.3726027831
0.3728675546
0.3728616532
0.3728528987
0.3728412216
0.372826882
0.3728103645
0.3727922613
0.3727731758
0.3727536599
0.3727341811
0.3727151136
0.3726967549
0.3726793951
0.3726635957
0.3726513728
0.3728702758
0.3728667724
0.3728613166
0.3728536002
0.3728435186
0.3728311707
0.3728168211
0.3728008447
0.3727836706
0.3727657357
0.3727474537
0.3727292088
0.3727114128
0.3726947998
0.3726817201
)
;

boundaryField
{
    top
    {
        type            calculated;
        value           nonuniform List<scalar> 
127
(
0.3728702758
0.3728667724
0.372861653
0.3728503366
0.3728337399
0.3728218728
0.3728337394
0.372850336
0.3728616525
0.3728667724
0.3728613165
0.3728528982
0.3728348442
0.3728096495
0.3727930544
0.3728096492
0.3728348439
0.3728528981
0.3728613166
0.3728535999
0.3728412208
0.372815642
0.3727819416
0.3727615563
0.3727819416
0.3728156421
0.3728412211
0.3728536002
0.3728435181
0.3728268808
0.3727937987
0.3727526276
0.3727295843
0.3727526279
0.3727937992
0.3728268814
0.3728435186
0.3728311699
0.3728103631
0.3727704773
0.372723391
0.3726987418
0.3727233917
0.3727704783
0.3728103641
0.3728311707
0.37281682
0.3727922594
0.3727467264
0.3726954474
0.3726700595
0.3726954485
0.3727467278
0.3727922607
0.3728168211
0.3728008431
0.3727731735
0.3727233803
0.3726695626
0.3726441048
0.3726695639
0.3727233823
0.3727731752
0.3728008447
0.3727836685
0.3727536571
0.3727010367
0.372646136
0.3726211037
0.3726461374
0.372701039
0.3727536594
0.3727836706
0.3727657332
0.3727341781
0.3726800781
0.3726253002
0.3726010482
0.3726253019
0.3726800806
0.3727341807
0.3727657357
0.3727474506
0.3727151102
0.3726607159
0.3726070106
0.3725837841
0.3726070125
0.3726607187
0.3727151133
0.3727474537
0.3727292052
0.372696751
0.3726430438
0.3725911209
0.3725690792
0.3725911229
0.372643047
0.3726967545
0.3727292088
0.3727114088
0.372679391
0.372627123
0.372577465
0.3725566933
0.372577467
0.3726271264
0.3726793948
0.3727114128
0.3726947953
0.3726635913
0.3726132201
0.3725660391
0.3725465304
0.3725660411
0.3726132236
0.3726635953
0.3726947998
0.3726817152
0.3726513682
0.3726027786
0.3725577314
0.3725392563
0.3725577335
0.3726027823
0.3726513724
0.3726817201
)
;
    }
    bottom
    {
        type            calculated;
        value           nonuniform List<scalar> 
134
(
0.3728675543
0.3728614575
0.3728522916
0.3728454036
0.3728522919
0.3728614578
0.3728675548
0.3728702761
0.3728667721
0.3728616527
0.3728503364
0.3728337403
0.3728218738
0.372833741
0.3728503372
0.3728616534
0.3728667727
0.3728613162
0.3728528979
0.3728348439
0.3728096496
0.372793055
0.3728096506
0.372834845
0.3728528988
0.3728613169
0.3728535994
0.3728412202
0.3728156414
0.372781941
0.3727615561
0.3727819423
0.3728156428
0.3728412214
0.3728536004
0.3728435175
0.37282688
0.3727937976
0.3727526262
0.3727295832
0.3727526277
0.3727937995
0.3728268816
0.3728435186
0.3728311691
0.372810362
0.3727704756
0.3727233888
0.3726987397
0.3727233905
0.3727704778
0.3728103639
0.3728311707
0.372816819
0.372792258
0.3727467242
0.3726954446
0.3726700565
0.3726954464
0.3727467266
0.3727922602
0.3728168208
0.3728008418
0.3727731717
0.3727233777
0.372669559
0.3726441011
0.3726695611
0.3727233805
0.3727731742
0.372800844
0.372783667
0.3727536552
0.3727010336
0.3726461318
0.3726210993
0.3726461339
0.3727010366
0.372753658
0.3727836695
0.3727657314
0.3727341756
0.3726800745
0.3726252956
0.3726010434
0.3726252977
0.3726800778
0.3727341788
0.3727657342
0.3727474487
0.3727151075
0.3726607119
0.3726070057
0.3725837789
0.3726070078
0.3726607154
0.372715111
0.3727474519
0.3727292029
0.372696748
0.3726430396
0.3725911157
0.3725690736
0.3725911179
0.3726430431
0.3726967518
0.3727292066
0.3727114063
0.3726793877
0.3726271185
0.3725774596
0.3725566874
0.3725774618
0.3726271222
0.3726793918
0.3727114103
0.3726947925
0.3726635877
0.3726132155
0.3725660333
0.3725465242
0.3725660356
0.3726132191
0.3726635919
0.372694797
0.3726817122
0.3726513641
0.3726027737
0.3725577254
0.3725392499
0.3725577277
0.3726027774
0.3726513686
0.3726817169
)
;
    }
    side-walls
    {
        type            calculated;
        value           nonuniform List<scalar> 
261
(
0.3728667721
0.3728616526
0.3728503362
0.3728337397
0.3728218728
0.37283374
0.3728503365
0.372861653
0.3728667724
0.3728613162
0.3728528977
0.3728348435
0.3728096487
0.3727930536
0.3728096492
0.372834844
0.3728528982
0.3728613165
0.3728535994
0.3728412201
0.3728156409
0.3727819401
0.3727615546
0.3727819407
0.3728156417
0.3728412207
0.3728535999
0.3728435175
0.3728268799
0.3727937972
0.3727526252
0.3727295817
0.372752626
0.3727937981
0.3728268807
0.3728435181
0.3728311691
0.3728103619
0.3727704752
0.3727233879
0.3726987382
0.3727233887
0.3727704763
0.3728103629
0.3728311699
0.372816819
0.3727922579
0.3727467238
0.3726954438
0.3726700552
0.3726954448
0.3727467252
0.3727922591
0.37281682
0.3728008418
0.3727731716
0.3727233773
0.3726695583
0.3726440998
0.3726695594
0.3727233789
0.372773173
0.3728008431
0.372783667
0.3727536551
0.3727010332
0.3726461311
0.372621098
0.3726461322
0.372701035
0.3727536567
0.3727836685
0.3727657314
0.3727341755
0.3726800742
0.372625295
0.372601042
0.3726252961
0.3726800761
0.3727341774
0.3727657332
0.3727474487
0.3727151073
0.3726607116
0.3726070049
0.3725837775
0.3726070062
0.3726607136
0.3727151095
0.3727474506
0.3727292029
0.3726967478
0.3726430392
0.3725911149
0.3725690723
0.3725911164
0.3726430414
0.3726967502
0.3727292052
0.3727114063
0.3726793876
0.3726271181
0.3725774588
0.3725566862
0.3725774602
0.3726271205
0.3726793902
0.3727114088
0.3726947925
0.3726635876
0.372613215
0.3725660326
0.3725465231
0.372566034
0.3726132174
0.3726635902
0.3726947953
0.3726817122
0.372651364
0.3726027732
0.3725577246
0.3725392486
0.3725577262
0.3726027757
0.3726513669
0.3726817152
0.3728702761
0.3728675547
0.3728614578
0.372852292
0.3728454038
0.3728522921
0.3728614578
0.3728675546
0.3728702758
0.3728667727
0.3728616534
0.3728503375
0.3728337414
0.3728218748
0.3728337416
0.3728503374
0.3728616532
0.3728667724
0.3728613169
0.3728528988
0.3728348454
0.3728096515
0.3727930569
0.3728096518
0.3728348454
0.3728528987
0.3728613166
0.3728536004
0.3728412215
0.3728156434
0.3727819438
0.372761559
0.3727819443
0.3728156436
0.3728412216
0.3728536002
0.3728435186
0.3728268818
0.3727938003
0.3727526299
0.3727295871
0.3727526306
0.3727938007
0.372826882
0.3728435186
0.3728311707
0.3728103641
0.372770479
0.3727233934
0.3726987446
0.3727233941
0.3727704795
0.3728103645
0.3728311707
0.3728168208
0.3727922606
0.3727467281
0.37269545
0.3726700621
0.3726954509
0.3727467291
0.3727922613
0.3728168211
0.372800844
0.3727731747
0.3727233822
0.3726695651
0.3726441074
0.3726695661
0.3727233834
0.3727731758
0.3728008447
0.3727836695
0.3727536587
0.3727010386
0.3726461384
0.3726211062
0.3726461395
0.37270104
0.3727536599
0.3727836706
0.3727657342
0.3727341795
0.3726800799
0.3726253027
0.3726010506
0.3726253038
0.3726800817
0.3727341811
0.3727657357
0.3727474519
0.3727151118
0.3726607178
0.372607013
0.3725837864
0.3726070142
0.3726607196
0.3727151136
0.3727474537
0.3727292066
0.3726967528
0.3726430458
0.3725911232
0.3725690813
0.3725911245
0.3726430478
0.3726967549
0.3727292088
0.3727114103
0.3726793928
0.372627125
0.3725774672
0.3725566953
0.3725774687
0.3726271272
0.3726793951
0.3727114128
0.372694797
0.372663593
0.372613222
0.3725660411
0.3725465323
0.3725660426
0.3726132244
0.3726635957
0.3726947998
0.3726817169
0.3726513699
0.3726027806
0.3725577334
0.3725392581
0.372557735
0.3726027831
0.3726513728
0.3726817201
)
;
    }
    inlet
    {
        type            calculated;
        value           nonuniform 0();
    }
    outlet
    {
        type            calculated;
        value           nonuniform List<scalar> 
81
(
0.3726817122
0.372651364
0.3726027732
0.3725577246
0.3725392486
0.3725577262
0.3726027757
0.3726513669
0.3726817152
0.3726513641
0.3726131528
0.3725515083
0.3724938064
0.3724699553
0.3724938084
0.3725515117
0.3726131565
0.3726513682
0.3726027737
0.3725515086
0.3724680528
0.3723890214
0.3723560275
0.3723890241
0.3724680571
0.3725515134
0.3726027786
0.3725577254
0.3724938071
0.3723890218
0.3722888646
0.3722466521
0.3722888678
0.3723890272
0.3724938128
0.3725577314
0.3725392499
0.3724699566
0.3723560288
0.372246653
0.3721999055
0.3722466566
0.3723560344
0.3724699627
0.3725392563
0.3725577277
0.3724938101
0.3723890257
0.3722888692
0.3722466574
0.3722888727
0.372389031
0.3724938157
0.3725577335
0.3726027774
0.3725515133
0.3724680588
0.3723890289
0.3723560358
0.3723890316
0.3724680631
0.3725515179
0.3726027823
0.3726513686
0.3726131584
0.3725515153
0.3724938149
0.3724699644
0.3724938169
0.3725515185
0.3726131619
0.3726513724
0.3726817169
0.3726513699
0.3726027806
0.3725577334
0.3725392581
0.372557735
0.3726027831
0.3726513728
0.3726817201
)
;
    }
    procBoundary1to0
    {
        type            processor;
        value           nonuniform List<scalar> 
97
(
0.3728702758
0.3728702758
0.3728675546
0.3728614578
0.3728522923
0.3728454045
0.3728522926
0.3728614582
0.3728675549
0.3728702761
0.372871038
0.3728612963
0.3728612963
0.3728612963
0.3728451496
0.3728150284
0.3727835275
0.3728150293
0.3728451508
0.3728612973
0.3728675549
0.3728682811
0.3728611388
0.3727951952
0.3727951952
0.3727951952
0.372673786
0.372481069
0.3726737918
0.372795201
0.3728451507
0.372861458
0.3728642384
0.3728485371
0.3727935891
0.3721887255
0.3721887255
0.3721887255
0.3708270806
0.3721887683
0.3726737913
0.3728150291
0.3728522924
0.3728613487
0.3728366357
0.3727325047
0.3723202513
0.3595908262
0.3595908262
0.3595908262
0.3708270716
0.3708270716
0.3724810665
0.3727835268
0.3728454042
0.3728642385
0.3728485374
0.3727935894
0.3726337903
0.372320249
0.3726337922
0.3726737789
0.3726737789
0.3726737789
0.3728150271
0.372852292
0.3728682813
0.372861139
0.3728401969
0.3727935895
0.3727325045
0.3727935899
0.3728401967
0.3728451487
0.3728451487
0.3728451487
0.3728614577
0.3728710381
0.372868224
0.3728611389
0.3728485374
0.3728366358
0.3728485375
0.3728611389
0.3728682238
0.3728675544
0.3728675544
0.3728675544
0.3728722854
0.3728710381
0.3728682812
0.3728642385
0.3728613489
0.3728642385
0.3728682812
0.372871038
0.3728722854
)
;
    }
}


// ************************************************************************* //
