/*--------------------------------*- C++ -*----------------------------------*\
| =========                 |                                                 |
| \\      /  F ield         | OpenFOAM: The Open Source CFD Toolbox           |
|  \\    /   O peration     | Version:  4.x                                   |
|   \\  /    A nd           | Web:      www.OpenFOAM.org                      |
|    \\/     M anipulation  |                                                 |
\*---------------------------------------------------------------------------*/
FoamFile
{
    version     2.0;
    format      ascii;
    class       volScalarField;
    location    "8000";
    object      CO;
}
// * * * * * * * * * * * * * * * * * * * * * * * * * * * * * * * * * * * * * //

dimensions      [0 0 0 0 0 0 0];

internalField   nonuniform List<scalar> 
1174
(
0.310180055
0.3101789208
0.3101773361
0.3101752897
0.310172811
0.310169961
0.3101668204
0.3101634778
0.3101600206
0.3101565295
0.3101530775
0.3101497412
0.3101466561
0.3101442524
0.3101790116
0.3101772258
0.3101748722
0.3101720144
0.3101687574
0.3101652237
0.3101615344
0.3101577969
0.3101541001
0.3101505129
0.3101470887
0.3101438786
0.3101409831
0.3101387656
0.310176732
0.3101736316
0.3101698354
0.3101655667
0.3101610591
0.3101565167
0.3101520966
0.3101479074
0.3101440147
0.3101404514
0.3101372284
0.310134351
0.3101318617
0.3101300113
0.3101734388
0.3101686879
0.31016329
0.3101576457
0.3101520799
0.310146819
0.3101419986
0.3101376829
0.3101338859
0.3101305889
0.3101277563
0.3101253494
0.3101233592
0.31012193
0.3101711253
0.3101654853
0.310159391
0.310153274
0.3101474381
0.3101420708
0.3101372681
0.31013306
0.3101294337
0.3101263498
0.3101237562
0.3101216007
0.3101198567
0.3101186263
0.3101734388
0.310168688
0.3101632901
0.3101576458
0.3101520801
0.3101468192
0.3101419988
0.3101376831
0.310133886
0.3101305891
0.3101277565
0.3101253496
0.3101233595
0.3101219302
0.3101767321
0.3101736317
0.3101698355
0.3101655669
0.3101610593
0.3101565169
0.3101520969
0.3101479077
0.310144015
0.3101404517
0.3101372288
0.3101343514
0.3101318621
0.3101300117
0.3101790117
0.3101772259
0.3101748723
0.3101720145
0.3101687575
0.3101652239
0.3101615346
0.3101577972
0.3101541004
0.3101505133
0.3101470891
0.310143879
0.3101409836
0.3101387661
0.3101800551
0.3101789208
0.3101773362
0.3101752898
0.3101728111
0.3101699612
0.3101668207
0.3101634781
0.3101600209
0.3101565299
0.3101530779
0.3101497417
0.3101466566
0.310144253
0.310180231
0.3101790116
0.3101772258
0.3101748722
0.3101720144
0.3101687574
0.3101652237
0.3101615344
0.3101577969
0.3101541001
0.3101505129
0.3101470887
0.3101438786
0.3101409832
0.3101387656
0.3101766975
0.3101736256
0.3101699179
0.3101658045
0.310161509
0.310157215
0.3101530557
0.3101491167
0.3101454463
0.3101420659
0.310138981
0.3101361966
0.3101337598
0.3101319313
0.3101709485
0.3101650993
0.3101588121
0.3101526187
0.3101468703
0.3101417478
0.3101373067
0.3101335241
0.3101303366
0.310127665
0.3101254308
0.310123567
0.310122042
0.3101209516
0.3101608889
0.3101513233
0.3101423375
0.3101345799
0.3101282509
0.3101232882
0.3101195094
0.3101166979
0.3101146477
0.3101131815
0.3101121549
0.3101114545
0.3101109949
0.3101107268
0.3101515626
0.3101401718
0.3101306353
0.3101231595
0.3101175534
0.3101134951
0.3101106546
0.310108742
0.3101075203
0.3101068036
0.3101064485
0.3101063449
0.3101064013
0.3101065176
0.3101608891
0.3101513236
0.3101423378
0.3101345802
0.3101282512
0.3101232885
0.3101195097
0.3101166982
0.3101146481
0.3101131818
0.3101121552
0.3101114549
0.3101109953
0.3101107272
0.3101709487
0.3101650996
0.3101588125
0.3101526191
0.3101468707
0.3101417483
0.3101373072
0.3101335246
0.3101303371
0.3101276656
0.3101254313
0.3101235676
0.3101220426
0.3101209521
0.3101766976
0.3101736258
0.3101699181
0.3101658047
0.3101615093
0.3101572154
0.3101530561
0.3101491171
0.3101454468
0.3101420665
0.3101389816
0.3101361971
0.3101337604
0.3101319319
0.3101790117
0.3101772259
0.3101748723
0.3101720145
0.3101687576
0.310165224
0.3101615347
0.3101577973
0.3101541005
0.3101505134
0.3101470892
0.3101438792
0.3101409838
0.3101387663
0.3101789869
0.3101767321
0.3101736316
0.3101698354
0.3101655668
0.3101610592
0.3101565167
0.3101520967
0.3101479074
0.3101440147
0.3101404514
0.3101372285
0.310134351
0.3101318617
0.3101300114
0.3101757285
0.3101709485
0.3101650993
0.3101588122
0.3101526187
0.3101468703
0.3101417479
0.3101373067
0.3101335241
0.3101303366
0.3101276651
0.3101254308
0.3101235671
0.3101220421
0.3101209516
0.3101542325
0.3101421692
0.310131401
0.3101227018
0.3101161835
0.3101116039
0.3101085883
0.3101067549
0.3101057721
0.3101053757
0.3101053658
0.3101055942
0.3101059431
0.3101062746
0.3101176478
0.3100977179
0.3100842724
0.3100765866
0.3100732119
0.3100727443
0.3100740784
0.310076429
0.3100792734
0.3100822803
0.3100852474
0.3100880472
0.310090557
0.3100924613
0.3100705587
0.3100511946
0.310043305
0.3100423888
0.3100453009
0.3100500962
0.3100556413
0.3100613041
0.3100667482
0.3100718077
0.3100764113
0.3100805268
0.3100840842
0.310086725
0.3101176487
0.3100977188
0.3100842733
0.3100765875
0.3100732126
0.310072745
0.3100740791
0.3100764296
0.3100792739
0.3100822808
0.3100852478
0.3100880477
0.3100905574
0.3100924617
0.3101542333
0.31014217
0.3101314019
0.3101227027
0.3101161844
0.3101116048
0.3101085891
0.3101067557
0.3101057729
0.3101053765
0.3101053665
0.310105595
0.3101059438
0.3101062753
0.3101709487
0.3101650996
0.3101588125
0.3101526192
0.3101468708
0.3101417485
0.3101373074
0.3101335248
0.3101303373
0.3101276658
0.3101254316
0.3101235679
0.3101220429
0.3101209524
0.3101767321
0.3101736317
0.3101698356
0.310165567
0.3101610595
0.3101565171
0.3101520971
0.3101479079
0.3101440153
0.3101404521
0.3101372291
0.3101343518
0.3101318625
0.3101300122
0.310177145
0.3101734388
0.310168688
0.3101632901
0.3101576458
0.31015208
0.3101468192
0.3101419987
0.310137683
0.310133886
0.310130589
0.3101277564
0.3101253495
0.3101233593
0.3101219301
0.3101697996
0.3101608889
0.3101513234
0.3101423375
0.31013458
0.310128251
0.3101232883
0.3101195094
0.310116698
0.3101146478
0.3101131816
0.310112155
0.3101114546
0.310110995
0.3101107269
0.3101424092
0.3101176478
0.3100977179
0.3100842724
0.3100765867
0.310073212
0.3100727444
0.3100740785
0.3100764291
0.3100792735
0.3100822804
0.3100852475
0.3100880473
0.310090557
0.3100924614
0.3099940061
0.3099701123
0.3099672351
0.309975444
0.3099883935
0.310002585
0.310016294
0.3100287848
0.310039831
0.3100494484
0.3100577511
0.3100648644
0.3100708116
0.3100751276
0.3097554472
0.3097894191
0.3098391201
0.3098860101
0.3099254693
0.3099574402
0.3099830979
0.3100037399
0.3100204705
0.3100341535
0.3100454391
0.3100547895
0.3100624212
0.3100678759
0.3099940094
0.3099701147
0.3099672369
0.3099754453
0.3099883945
0.3100025859
0.3100162948
0.3100287854
0.3100398315
0.3100494489
0.3100577516
0.3100648648
0.310070812
0.310075128
0.3101176487
0.310097719
0.3100842736
0.3100765879
0.3100732132
0.3100727456
0.3100740797
0.3100764302
0.3100792745
0.3100822813
0.3100852484
0.3100880482
0.3100905579
0.3100924622
0.3101608891
0.3101513238
0.3101423381
0.3101345806
0.3101282517
0.3101232891
0.3101195103
0.3101166989
0.3101146488
0.3101131825
0.3101121559
0.3101114556
0.310110996
0.3101107279
0.3101734389
0.3101686881
0.3101632902
0.3101576461
0.3101520804
0.3101468196
0.3101419993
0.3101376837
0.3101338867
0.3101305899
0.3101277572
0.3101253504
0.3101233603
0.3101219311
0.3101757861
0.3101711254
0.3101654854
0.3101593912
0.3101532742
0.3101474383
0.310142071
0.3101372682
0.3101330602
0.3101294339
0.3101263499
0.3101237563
0.3101216008
0.3101198569
0.3101186264
0.3101637213
0.3101515629
0.3101401721
0.3101306356
0.3101231598
0.3101175537
0.3101134954
0.3101106548
0.3101087422
0.3101075205
0.3101068037
0.3101064487
0.310106345
0.3101064015
0.3101065177
0.3101058463
0.3100705592
0.3100511953
0.3100433056
0.3100423893
0.3100453013
0.3100500965
0.3100556416
0.3100613043
0.3100667484
0.3100718079
0.3100764114
0.3100805269
0.3100840844
0.3100867251
0.3097951586
0.3097554489
0.3097894201
0.3098391208
0.3098860105
0.3099254695
0.3099574404
0.3099830981
0.31000374
0.3100204706
0.3100341536
0.3100454392
0.3100547896
0.3100624212
0.3100678759
0.3087410552
0.3092658932
0.3095541443
0.3097218335
0.3098252376
0.3098926891
0.3099390174
0.309972308
0.3099971578
0.310016292
0.310031389
0.3100434949
0.3100531462
0.3100599435
0.3097554475
0.3097894214
0.3098391224
0.309886012
0.3099254708
0.3099574415
0.309983099
0.3100037408
0.3100204714
0.3100341543
0.3100454398
0.3100547901
0.3100624218
0.3100678764
0.3100705591
0.3100511958
0.3100433065
0.3100423904
0.3100453025
0.3100500976
0.3100556427
0.3100613054
0.3100667494
0.3100718089
0.3100764124
0.3100805278
0.3100840852
0.310086726
0.3101515629
0.3101401723
0.3101306361
0.3101231604
0.3101175544
0.3101134962
0.3101106557
0.3101087432
0.3101075215
0.3101068048
0.3101064497
0.310106346
0.3101064025
0.3101065188
0.3101711254
0.3101654855
0.3101593914
0.3101532745
0.3101474387
0.3101420716
0.3101372689
0.310133061
0.3101294347
0.3101263508
0.3101237573
0.3101216019
0.3101198579
0.3101186275
0.310177145
0.3101734389
0.3101686881
0.3101632902
0.310157646
0.3101520802
0.3101468194
0.310141999
0.3101376833
0.3101338862
0.3101305893
0.3101277567
0.3101253498
0.3101233596
0.3101219304
0.3101697998
0.3101608893
0.3101513238
0.310142338
0.3101345805
0.3101282515
0.3101232888
0.3101195099
0.3101166985
0.3101146483
0.310113182
0.3101121554
0.3101114551
0.3101109954
0.3101107273
0.3101424104
0.310117649
0.3100977193
0.3100842737
0.3100765879
0.310073213
0.3100727454
0.3100740794
0.3100764299
0.3100792742
0.310082281
0.3100852481
0.3100880479
0.3100905576
0.3100924619
0.3100499967
0.3099940103
0.3099701156
0.3099672377
0.309975446
0.3099883951
0.3100025863
0.3100162952
0.3100287858
0.3100398318
0.3100494492
0.3100577519
0.3100648651
0.3100708122
0.3100751282
0.3097951584
0.3097554494
0.3097894229
0.3098391235
0.3098860129
0.3099254716
0.3099574421
0.3099830996
0.3100037413
0.3100204717
0.3100341546
0.3100454401
0.3100547904
0.310062422
0.3100678766
0.3100499957
0.3099940102
0.309970116
0.3099672384
0.3099754469
0.309988396
0.3100025873
0.3100162961
0.3100287866
0.3100398326
0.3100494499
0.3100577525
0.3100648657
0.3100708128
0.3100751287
0.3101176478
0.3100977188
0.3100842738
0.3100765883
0.3100732137
0.3100727462
0.3100740803
0.3100764308
0.3100792751
0.310082282
0.310085249
0.3100880488
0.3100905584
0.3100924627
0.3101608889
0.3101513237
0.3101423381
0.3101345808
0.3101282519
0.3101232894
0.3101195106
0.3101166992
0.3101146491
0.3101131829
0.3101121563
0.310111456
0.3101109964
0.3101107283
0.3101734388
0.310168688
0.3101632902
0.3101576461
0.3101520805
0.3101468198
0.3101419995
0.3101376839
0.3101338869
0.3101305901
0.3101277575
0.3101253507
0.3101233606
0.3101219314
0.3101789869
0.3101767322
0.3101736318
0.3101698356
0.310165567
0.3101610595
0.3101565171
0.3101520971
0.3101479078
0.3101440152
0.3101404519
0.3101372289
0.3101343515
0.3101318622
0.3101300119
0.3101757287
0.3101709488
0.3101650997
0.3101588126
0.3101526193
0.3101468709
0.3101417485
0.3101373074
0.3101335248
0.3101303373
0.3101276658
0.3101254315
0.3101235678
0.3101220428
0.3101209523
0.3101658966
0.3101542335
0.3101421703
0.3101314021
0.310122703
0.3101161847
0.3101116051
0.3101085894
0.310106756
0.3101057732
0.3101053767
0.3101053668
0.3101055952
0.310105944
0.3101062755
0.3101424104
0.3101176493
0.3100977196
0.3100842742
0.3100765884
0.3100732136
0.310072746
0.31007408
0.3100764305
0.3100792748
0.3100822816
0.3100852486
0.3100880484
0.3100905581
0.3100924623
0.3101058461
0.3100705597
0.3100511963
0.310043307
0.3100423908
0.3100453029
0.310050098
0.3100556431
0.3100613058
0.3100667497
0.3100718092
0.3100764126
0.310080528
0.3100840855
0.3100867262
0.3101424103
0.3101176492
0.3100977197
0.3100842743
0.3100765887
0.310073214
0.3100727464
0.3100740804
0.3100764309
0.3100792752
0.3100822821
0.3100852491
0.3100880489
0.3100905585
0.3100924628
0.3101658962
0.3101542332
0.3101421701
0.3101314021
0.3101227031
0.310116185
0.3101116055
0.3101085899
0.3101067565
0.3101057738
0.3101053774
0.3101053674
0.3101055958
0.3101059447
0.3101062762
0.3101709485
0.3101650995
0.3101588126
0.3101526193
0.3101468711
0.3101417488
0.3101373078
0.3101335253
0.3101303378
0.3101276664
0.3101254322
0.3101235685
0.3101220435
0.3101209531
0.310176732
0.3101736317
0.3101698356
0.310165567
0.3101610596
0.3101565173
0.3101520974
0.3101479082
0.3101440157
0.3101404525
0.3101372296
0.3101343523
0.310131863
0.3101300128
0.3101802311
0.3101790117
0.310177226
0.3101748724
0.3101720146
0.3101687576
0.3101652241
0.3101615348
0.3101577974
0.3101541006
0.3101505134
0.3101470892
0.3101438792
0.3101409838
0.3101387663
0.3101789611
0.3101766977
0.3101736259
0.3101699183
0.3101658048
0.3101615094
0.3101572155
0.3101530562
0.3101491173
0.310145447
0.3101420666
0.3101389818
0.3101361973
0.3101337606
0.3101319321
0.3101757287
0.3101709488
0.3101650997
0.3101588127
0.3101526193
0.310146871
0.3101417486
0.3101373076
0.310133525
0.3101303375
0.310127666
0.3101254317
0.310123568
0.310122043
0.3101209526
0.3101697998
0.3101608893
0.310151324
0.3101423383
0.3101345809
0.310128252
0.3101232893
0.3101195105
0.3101166991
0.310114649
0.3101131827
0.3101121561
0.3101114558
0.3101109962
0.3101107281
0.3101637213
0.3101515631
0.3101401725
0.3101306363
0.3101231606
0.3101175546
0.3101134964
0.3101106559
0.3101087433
0.3101075217
0.3101068049
0.3101064498
0.3101063462
0.3101064027
0.3101065189
0.3101697998
0.3101608893
0.310151324
0.3101423384
0.310134581
0.3101282521
0.3101232895
0.3101195108
0.3101166994
0.3101146492
0.310113183
0.3101121564
0.3101114561
0.3101109965
0.3101107284
0.3101757287
0.3101709488
0.3101650997
0.3101588127
0.3101526195
0.3101468712
0.3101417489
0.3101373079
0.3101335254
0.3101303379
0.3101276665
0.3101254322
0.3101235685
0.3101220436
0.3101209531
0.3101789611
0.3101766976
0.3101736258
0.3101699182
0.3101658049
0.3101615095
0.3101572157
0.3101530565
0.3101491176
0.3101454474
0.3101420671
0.3101389823
0.3101361979
0.3101337612
0.3101319328
0.3101790116
0.3101772259
0.3101748723
0.3101720146
0.3101687577
0.3101652242
0.3101615349
0.3101577976
0.3101541009
0.3101505138
0.3101470897
0.3101438798
0.3101409844
0.310138767
0.3101807931
0.3101800551
0.3101789209
0.3101773362
0.3101752899
0.3101728112
0.3101699613
0.3101668208
0.3101634782
0.3101600211
0.31015653
0.3101530781
0.3101497418
0.3101466568
0.3101442532
0.3101802311
0.3101790117
0.310177226
0.3101748724
0.3101720146
0.3101687577
0.3101652241
0.3101615348
0.3101577974
0.3101541006
0.3101505135
0.3101470894
0.3101438793
0.310140984
0.3101387664
0.3101789869
0.3101767322
0.3101736318
0.3101698357
0.3101655671
0.3101610596
0.3101565172
0.3101520973
0.3101479081
0.3101440154
0.3101404522
0.3101372293
0.3101343519
0.3101318627
0.3101300124
0.310177145
0.3101734389
0.3101686882
0.3101632904
0.3101576462
0.3101520806
0.3101468198
0.3101419995
0.3101376839
0.3101338869
0.31013059
0.3101277574
0.3101253506
0.3101233605
0.3101219313
0.3101757861
0.3101711255
0.3101654856
0.3101593915
0.3101532746
0.3101474389
0.3101420717
0.3101372691
0.3101330611
0.3101294349
0.310126351
0.3101237574
0.310121602
0.3101198581
0.3101186277
0.310177145
0.310173439
0.3101686882
0.3101632904
0.3101576463
0.3101520807
0.3101468199
0.3101419996
0.3101376841
0.3101338871
0.3101305903
0.3101277577
0.3101253509
0.3101233607
0.3101219315
0.3101789869
0.3101767322
0.3101736318
0.3101698357
0.3101655672
0.3101610597
0.3101565175
0.3101520975
0.3101479084
0.3101440158
0.3101404526
0.3101372297
0.3101343524
0.3101318631
0.3101300129
0.3101802311
0.3101790117
0.3101772259
0.3101748724
0.3101720146
0.3101687577
0.3101652242
0.310161535
0.3101577977
0.3101541009
0.3101505139
0.3101470898
0.3101438798
0.3101409845
0.310138767
0.3101807931
0.3101800551
0.3101789208
0.3101773362
0.3101752899
0.3101728112
0.3101699614
0.3101668209
0.3101634784
0.3101600213
0.3101565303
0.3101530784
0.3101497423
0.3101466573
0.3101442538
)
;

boundaryField
{
    top
    {
        type            zeroGradient;
    }
    bottom
    {
        type            zeroGradient;
    }
    side-walls
    {
        type            zeroGradient;
    }
    inlet
    {
        type            zeroGradient;
    }
    outlet
    {
        type            zeroGradient;
    }
    procBoundary1to0
    {
        type            processor;
        value           nonuniform List<scalar> 
97
(
0.3101807931
0.3101807931
0.3101802311
0.3101789869
0.3101771451
0.3101757862
0.3101771451
0.310178987
0.3101802311
0.3101807931
0.3101809611
0.310178961
0.310178961
0.310178961
0.3101757287
0.3101697999
0.3101637217
0.3101698001
0.3101757289
0.3101789612
0.3101802311
0.3101803902
0.310178942
0.3101658961
0.3101658961
0.3101658961
0.3101424104
0.3101058478
0.3101424113
0.310165897
0.3101757289
0.310178987
0.3101795655
0.3101764229
0.3101655956
0.3100499942
0.3100499942
0.3100499942
0.3097951676
0.3100499995
0.3101424113
0.3101698001
0.3101771451
0.3101789861
0.3101740873
0.3101538043
0.3100749369
0.3077296714
0.3077296714
0.3077296714
0.3097951673
0.3097951673
0.310105848
0.3101637218
0.3101757862
0.3101795655
0.3101764229
0.3101655957
0.3101346425
0.3100749362
0.3101346425
0.3101424097
0.3101424097
0.3101424097
0.3101697999
0.310177145
0.3101803902
0.310178942
0.3101747563
0.3101655958
0.3101538041
0.3101655957
0.3101747563
0.3101757286
0.3101757286
0.3101757286
0.3101789869
0.3101809611
0.3101803816
0.310178942
0.3101764229
0.3101740872
0.3101764229
0.310178942
0.3101803816
0.3101802311
0.3101802311
0.3101802311
0.3101812224
0.3101809611
0.3101803902
0.3101795655
0.3101789861
0.3101795655
0.3101803902
0.3101809611
0.3101812224
)
;
    }
}


// ************************************************************************* //
