/*--------------------------------*- C++ -*----------------------------------*\
| =========                 |                                                 |
| \\      /  F ield         | OpenFOAM: The Open Source CFD Toolbox           |
|  \\    /   O peration     | Version:  4.x                                   |
|   \\  /    A nd           | Web:      www.OpenFOAM.org                      |
|    \\/     M anipulation  |                                                 |
\*---------------------------------------------------------------------------*/
FoamFile
{
    version     2.0;
    format      ascii;
    class       volScalarField;
    location    "8000";
    object      Cpv;
}
// * * * * * * * * * * * * * * * * * * * * * * * * * * * * * * * * * * * * * //

dimensions      [0 2 -2 -1 0 0 0];

internalField   nonuniform List<scalar> 
1174
(
1277.532847
1277.532682
1277.53248
1277.53221
1277.53193
1277.531566
1277.531173
1277.530764
1277.53033
1277.529895
1277.529443
1277.529018
1277.528647
1277.528349
1277.533005
1277.532811
1277.532498
1277.532145
1277.531752
1277.531292
1277.530846
1277.530394
1277.529912
1277.529446
1277.528992
1277.528613
1277.528239
1277.527963
1277.531817
1277.531438
1277.530969
1277.530444
1277.529881
1277.529309
1277.528769
1277.528266
1277.527782
1277.527331
1277.526969
1277.526621
1277.526333
1277.526095
1277.531959
1277.531361
1277.530686
1277.529973
1277.529287
1277.528649
1277.528031
1277.527487
1277.527035
1277.526624
1277.526258
1277.525926
1277.525699
1277.525502
1277.531647
1277.530936
1277.530186
1277.529437
1277.528699
1277.528025
1277.527441
1277.526907
1277.526426
1277.526027
1277.525675
1277.525399
1277.525184
1277.525028
1277.532383
1277.531783
1277.531115
1277.530394
1277.52971
1277.529005
1277.528399
1277.52787
1277.527401
1277.526998
1277.52665
1277.526333
1277.526135
1277.525965
1277.532371
1277.532009
1277.531536
1277.53102
1277.530442
1277.529881
1277.529336
1277.528807
1277.528341
1277.527914
1277.527519
1277.527161
1277.526854
1277.52664
1277.532631
1277.53241
1277.532138
1277.531768
1277.531385
1277.530945
1277.530473
1277.530004
1277.529546
1277.529121
1277.528655
1277.528258
1277.527927
1277.527633
1277.532947
1277.532793
1277.532599
1277.532328
1277.532011
1277.531645
1277.531263
1277.530854
1277.530417
1277.529981
1277.529538
1277.529126
1277.528719
1277.528423
1277.533542
1277.533418
1277.533223
1277.532916
1277.532536
1277.532129
1277.531674
1277.531213
1277.530737
1277.530283
1277.529829
1277.52941
1277.529
1277.528649
1277.528371
1277.532771
1277.532382
1277.531904
1277.531423
1277.530904
1277.530363
1277.529884
1277.529373
1277.528922
1277.528479
1277.528077
1277.527719
1277.527443
1277.527215
1277.531859
1277.53112
1277.53034
1277.529539
1277.528817
1277.528188
1277.527656
1277.527193
1277.526786
1277.526415
1277.526155
1277.525921
1277.525745
1277.525628
1277.530456
1277.529246
1277.528121
1277.52716
1277.526373
1277.525781
1277.525341
1277.524983
1277.524725
1277.524547
1277.524434
1277.524338
1277.524259
1277.524209
1277.530625
1277.529175
1277.528004
1277.527075
1277.526382
1277.525879
1277.525528
1277.525288
1277.52512
1277.52504
1277.524973
1277.524951
1277.524955
1277.524997
1277.531147
1277.52996
1277.52884
1277.527889
1277.527109
1277.526495
1277.52602
1277.525676
1277.525428
1277.525263
1277.525123
1277.525039
1277.524971
1277.524996
1277.53208
1277.531359
1277.530577
1277.529803
1277.52911
1277.528479
1277.527924
1277.527469
1277.527092
1277.526737
1277.526455
1277.526221
1277.526008
1277.525875
1277.532629
1277.532252
1277.531802
1277.531263
1277.530721
1277.530189
1277.529691
1277.529196
1277.528736
1277.528284
1277.527916
1277.527581
1277.527254
1277.527022
1277.533345
1277.533111
1277.53282
1277.532475
1277.532061
1277.531609
1277.531134
1277.530672
1277.530207
1277.529754
1277.529342
1277.528956
1277.528588
1277.528312
1277.53246
1277.532173
1277.531744
1277.531257
1277.530745
1277.530188
1277.529604
1277.529079
1277.528537
1277.528051
1277.527617
1277.527201
1277.526853
1277.526526
1277.526299
1277.532346
1277.531712
1277.530989
1277.530244
1277.529421
1277.528691
1277.528073
1277.527488
1277.52702
1277.526623
1277.526306
1277.526039
1277.525804
1277.52561
1277.525455
1277.530547
1277.529066
1277.527712
1277.526625
1277.525799
1277.525261
1277.524895
1277.524662
1277.524543
1277.52451
1277.524499
1277.524549
1277.524579
1277.524629
1277.524588
1277.522131
1277.520468
1277.519525
1277.519101
1277.519068
1277.519236
1277.519522
1277.519869
1277.520256
1277.52064
1277.520955
1277.52129
1277.521533
1277.520081
1277.517661
1277.516683
1277.516562
1277.516922
1277.517515
1277.518216
1277.518882
1277.519568
1277.520171
1277.520743
1277.521252
1277.521714
1277.52207
1277.524562
1277.522111
1277.520444
1277.519486
1277.519031
1277.518988
1277.519166
1277.519443
1277.519824
1277.520234
1277.520599
1277.520951
1277.521264
1277.521477
1277.528454
1277.526955
1277.525582
1277.524506
1277.523671
1277.523125
1277.522715
1277.522488
1277.522357
1277.522307
1277.522283
1277.522312
1277.522346
1277.522441
1277.532467
1277.531741
1277.530973
1277.530192
1277.529479
1277.528865
1277.528349
1277.527875
1277.527486
1277.527165
1277.526895
1277.526698
1277.526541
1277.526394
1277.532564
1277.532165
1277.531676
1277.53111
1277.530557
1277.530006
1277.529437
1277.528913
1277.528446
1277.528029
1277.527603
1277.527234
1277.526952
1277.526707
1277.531748
1277.531277
1277.530704
1277.530018
1277.529289
1277.52862
1277.527957
1277.527335
1277.526828
1277.526349
1277.525933
1277.525591
1277.525284
1277.525032
1277.524879
1277.532454
1277.531356
1277.530176
1277.529088
1277.528101
1277.527316
1277.526723
1277.526271
1277.525912
1277.525682
1277.525484
1277.525363
1277.525297
1277.525252
1277.525227
1277.529278
1277.526192
1277.523702
1277.522013
1277.521034
1277.520618
1277.520574
1277.520748
1277.521056
1277.521441
1277.521808
1277.522188
1277.522571
1277.522912
1277.523166
1277.511566
1277.508613
1277.50826
1277.509294
1277.510899
1277.512695
1277.514401
1277.51597
1277.517372
1277.518587
1277.519603
1277.520505
1277.521238
1277.521796
1277.479788
1277.484062
1277.490281
1277.496112
1277.50103
1277.505011
1277.508206
1277.510779
1277.512848
1277.514566
1277.515969
1277.51714
1277.518073
1277.518751
1277.508703
1277.505715
1277.505347
1277.506384
1277.50802
1277.5098
1277.511543
1277.513133
1277.514485
1277.515684
1277.5167
1277.517597
1277.518378
1277.51889
1277.525995
1277.523533
1277.52183
1277.52088
1277.520462
1277.520415
1277.520589
1277.520877
1277.521201
1277.521588
1277.521954
1277.522315
1277.522621
1277.522854
1277.530356
1277.529188
1277.528076
1277.527104
1277.52632
1277.525693
1277.52526
1277.524884
1277.524643
1277.524464
1277.524357
1277.524255
1277.524182
1277.524146
1277.532483
1277.531883
1277.531216
1277.53052
1277.529829
1277.529166
1277.528568
1277.528028
1277.527554
1277.527149
1277.526819
1277.526537
1277.526292
1277.526099
1277.532223
1277.531641
1277.53092
1277.530163
1277.529413
1277.528664
1277.527995
1277.527405
1277.526878
1277.526447
1277.52606
1277.525713
1277.52543
1277.525205
1277.525046
1277.531415
1277.529897
1277.528481
1277.527314
1277.526397
1277.525721
1277.525215
1277.524882
1277.524657
1277.524527
1277.524459
1277.52443
1277.524434
1277.524419
1277.524443
1277.523816
1277.519428
1277.517016
1277.516037
1277.51594
1277.516315
1277.516935
1277.517628
1277.518325
1277.518986
1277.519611
1277.520185
1277.520722
1277.521167
1277.521487
1277.484377
1277.4794
1277.483617
1277.489821
1277.49566
1277.500598
1277.504589
1277.50781
1277.510366
1277.512441
1277.514174
1277.515557
1277.516742
1277.517691
1277.518391
1276.705758
1276.771185
1276.806925
1276.827524
1276.84004
1276.848029
1276.85335
1276.857063
1276.859726
1276.861656
1276.863091
1276.86412
1276.864833
1276.865178
1277.479336
1277.483538
1277.489739
1277.495588
1277.500519
1277.504514
1277.507701
1277.510298
1277.512377
1277.514107
1277.515532
1277.516651
1277.51761
1277.518281
1277.518558
1277.516159
1277.515179
1277.515055
1277.515424
1277.516043
1277.516742
1277.517451
1277.518153
1277.518796
1277.519383
1277.519883
1277.520363
1277.520658
1277.528624
1277.52724
1277.526056
1277.525117
1277.524413
1277.523913
1277.523543
1277.523323
1277.523168
1277.5231
1277.523069
1277.523072
1277.523072
1277.523087
1277.531741
1277.531019
1277.53027
1277.52951
1277.528801
1277.528126
1277.527523
1277.526956
1277.526521
1277.52615
1277.525854
1277.525569
1277.525349
1277.525164
1277.533593
1277.533119
1277.532534
1277.531857
1277.531144
1277.530449
1277.529794
1277.529186
1277.528658
1277.52814
1277.527738
1277.527378
1277.527061
1277.526843
1277.526656
1277.531651
1277.530534
1277.529332
1277.528234
1277.527271
1277.526532
1277.525902
1277.525405
1277.525037
1277.524782
1277.524604
1277.524478
1277.524424
1277.524346
1277.524349
1277.528621
1277.52553
1277.523022
1277.521345
1277.520407
1277.51998
1277.519922
1277.520087
1277.520384
1277.520762
1277.521129
1277.521457
1277.52181
1277.522132
1277.522389
1277.516458
1277.509486
1277.506528
1277.506182
1277.507229
1277.508847
1277.510621
1277.512329
1277.51392
1277.515314
1277.516521
1277.517551
1277.518428
1277.51919
1277.519753
1277.485268
1277.480323
1277.484573
1277.490762
1277.496618
1277.501538
1277.505564
1277.508768
1277.511349
1277.513413
1277.515125
1277.516534
1277.517678
1277.518658
1277.519335
1277.518005
1277.511021
1277.508045
1277.507709
1277.5087
1277.510321
1277.512082
1277.513784
1277.515337
1277.516755
1277.517943
1277.519003
1277.519884
1277.520625
1277.521125
1277.525455
1277.522982
1277.521311
1277.520353
1277.519957
1277.51992
1277.520066
1277.520346
1277.520681
1277.521074
1277.521446
1277.521807
1277.522149
1277.522313
1277.530368
1277.529156
1277.528042
1277.527071
1277.526288
1277.525654
1277.525163
1277.524798
1277.524532
1277.524327
1277.524222
1277.524137
1277.524068
1277.524056
1277.532316
1277.53173
1277.53107
1277.530361
1277.529658
1277.528999
1277.528385
1277.527865
1277.527385
1277.526977
1277.526629
1277.526327
1277.52609
1277.525935
1277.532368
1277.532095
1277.531713
1277.531256
1277.530716
1277.530165
1277.529617
1277.529101
1277.528566
1277.528089
1277.52766
1277.527279
1277.526936
1277.526629
1277.526412
1277.532707
1277.532126
1277.531422
1277.530633
1277.529855
1277.529165
1277.528507
1277.527961
1277.527487
1277.527092
1277.526761
1277.526458
1277.526197
1277.526012
1277.525907
1277.530509
1277.52907
1277.52757
1277.526241
1277.525158
1277.524328
1277.523749
1277.523409
1277.523189
1277.523053
1277.523004
1277.523016
1277.523058
1277.523109
1277.523153
1277.527615
1277.524511
1277.522036
1277.520401
1277.519457
1277.519037
1277.518951
1277.519114
1277.519414
1277.519765
1277.520139
1277.520529
1277.520898
1277.521205
1277.521441
1277.524907
1277.520492
1277.518081
1277.517101
1277.516975
1277.517358
1277.517945
1277.518619
1277.519295
1277.51999
1277.520608
1277.521197
1277.521727
1277.522159
1277.52249
1277.528162
1277.525092
1277.522634
1277.520974
1277.520014
1277.519599
1277.519536
1277.519722
1277.519997
1277.520377
1277.520769
1277.521126
1277.52149
1277.521789
1277.522035
1277.531128
1277.529707
1277.528182
1277.526835
1277.525776
1277.524955
1277.524363
1277.523978
1277.523768
1277.523644
1277.523599
1277.523595
1277.523637
1277.52366
1277.523714
1277.532179
1277.531459
1277.530679
1277.529928
1277.529227
1277.528606
1277.528052
1277.527583
1277.527175
1277.526823
1277.526535
1277.526307
1277.526127
1277.525965
1277.532463
1277.532052
1277.531562
1277.531019
1277.530459
1277.52987
1277.529326
1277.5288
1277.528343
1277.527887
1277.527469
1277.527095
1277.526784
1277.526543
1277.532724
1277.532595
1277.53236
1277.532075
1277.531713
1277.531292
1277.530871
1277.530404
1277.529969
1277.529513
1277.529111
1277.528693
1277.52829
1277.527926
1277.527657
1277.532559
1277.532277
1277.531896
1277.531388
1277.530906
1277.530345
1277.529827
1277.529308
1277.52884
1277.528378
1277.527931
1277.527553
1277.527221
1277.526924
1277.526715
1277.53308
1277.532469
1277.531724
1277.530941
1277.530174
1277.529471
1277.528844
1277.528304
1277.527823
1277.527401
1277.527045
1277.526768
1277.526527
1277.52633
1277.526195
1277.532474
1277.531363
1277.530175
1277.529021
1277.528049
1277.527261
1277.526638
1277.526158
1277.525811
1277.525549
1277.525372
1277.525197
1277.525134
1277.525096
1277.525042
1277.530909
1277.529395
1277.527984
1277.526831
1277.525895
1277.525213
1277.524721
1277.524331
1277.524091
1277.523939
1277.523833
1277.523807
1277.523818
1277.523819
1277.523845
1277.532615
1277.531497
1277.530298
1277.529165
1277.528216
1277.527431
1277.526802
1277.526372
1277.526022
1277.525753
1277.525576
1277.525456
1277.52539
1277.525354
1277.52531
1277.531963
1277.531376
1277.530663
1277.529894
1277.529141
1277.528423
1277.527804
1277.527278
1277.526793
1277.526384
1277.526033
1277.525756
1277.525541
1277.525347
1277.525194
1277.532521
1277.532246
1277.531871
1277.531364
1277.530843
1277.530283
1277.529752
1277.529222
1277.528747
1277.528304
1277.527873
1277.527501
1277.527177
1277.526866
1277.526612
1277.533245
1277.533027
1277.532723
1277.532355
1277.53195
1277.53151
1277.531068
1277.530587
1277.530146
1277.529707
1277.529253
1277.528834
1277.528463
1277.528167
1277.532772
1277.532671
1277.532539
1277.532339
1277.53208
1277.531761
1277.531418
1277.531046
1277.530632
1277.530194
1277.529763
1277.529321
1277.528894
1277.528515
1277.528223
1277.532992
1277.532842
1277.532623
1277.532339
1277.531988
1277.531572
1277.531142
1277.53068
1277.530193
1277.52971
1277.529236
1277.528821
1277.528424
1277.528046
1277.527805
1277.532983
1277.532687
1277.532311
1277.531837
1277.531319
1277.530709
1277.530151
1277.52959
1277.529078
1277.528607
1277.52816
1277.527754
1277.527436
1277.527118
1277.526877
1277.532891
1277.532444
1277.531864
1277.531194
1277.530498
1277.529819
1277.529181
1277.528573
1277.528052
1277.52761
1277.527178
1277.526827
1277.526533
1277.526291
1277.526132
1277.532078
1277.531471
1277.530768
1277.530008
1277.529222
1277.528472
1277.527795
1277.527212
1277.526696
1277.526235
1277.525879
1277.525555
1277.525273
1277.525061
1277.524953
1277.532319
1277.531861
1277.531298
1277.530611
1277.529926
1277.529227
1277.528585
1277.527987
1277.52745
1277.526998
1277.526557
1277.526221
1277.525912
1277.525675
1277.525491
1277.531361
1277.5311
1277.530736
1277.530252
1277.529722
1277.529172
1277.528612
1277.528096
1277.527549
1277.527072
1277.526625
1277.52625
1277.525874
1277.525567
1277.525362
1277.533079
1277.532927
1277.532699
1277.532391
1277.532013
1277.531622
1277.531166
1277.53069
1277.530231
1277.529772
1277.529311
1277.52889
1277.528494
1277.528116
1277.527824
1277.533299
1277.533214
1277.53307
1277.532877
1277.532609
1277.532287
1277.531931
1277.531544
1277.531132
1277.53069
1277.530253
1277.529814
1277.529409
1277.529038
1277.528737
)
;

boundaryField
{
    top
    {
        type            calculated;
        value           nonuniform List<scalar> 
127
(
1277.533299
1277.532947
1277.533345
1277.532564
1277.532483
1277.531741
1277.532316
1277.532463
1277.533245
1277.533214
1277.532793
1277.533111
1277.532165
1277.531883
1277.531019
1277.53173
1277.532052
1277.533027
1277.53307
1277.532599
1277.53282
1277.531676
1277.531216
1277.53027
1277.53107
1277.531562
1277.532723
1277.532877
1277.532328
1277.532475
1277.53111
1277.53052
1277.52951
1277.530361
1277.531019
1277.532355
1277.532609
1277.532011
1277.532061
1277.530557
1277.529829
1277.528801
1277.529658
1277.530459
1277.53195
1277.532287
1277.531645
1277.531609
1277.530006
1277.529166
1277.528126
1277.528999
1277.52987
1277.53151
1277.531931
1277.531263
1277.531134
1277.529437
1277.528568
1277.527523
1277.528385
1277.529326
1277.531068
1277.531544
1277.530854
1277.530672
1277.528913
1277.528028
1277.526956
1277.527865
1277.5288
1277.530587
1277.531132
1277.530417
1277.530207
1277.528446
1277.527554
1277.526521
1277.527385
1277.528343
1277.530146
1277.53069
1277.529981
1277.529754
1277.528029
1277.527149
1277.52615
1277.526977
1277.527887
1277.529707
1277.530253
1277.529538
1277.529342
1277.527603
1277.526819
1277.525854
1277.526629
1277.527469
1277.529253
1277.529814
1277.529126
1277.528956
1277.527234
1277.526537
1277.525569
1277.526327
1277.527095
1277.528834
1277.529409
1277.528719
1277.528588
1277.526952
1277.526292
1277.525349
1277.52609
1277.526784
1277.528463
1277.529038
1277.528423
1277.528312
1277.526707
1277.526099
1277.525164
1277.525935
1277.526543
1277.528167
1277.528737
)
;
    }
    bottom
    {
        type            calculated;
        value           nonuniform List<scalar> 
134
(
1277.533542
1277.53246
1277.531748
1277.532223
1277.533593
1277.532368
1277.532724
1277.532772
1277.532847
1277.533418
1277.532173
1277.531277
1277.531641
1277.533119
1277.532095
1277.532595
1277.532671
1277.532682
1277.533223
1277.531744
1277.530704
1277.53092
1277.532534
1277.531713
1277.53236
1277.532539
1277.53248
1277.532916
1277.531257
1277.530018
1277.530163
1277.531857
1277.531256
1277.532075
1277.532339
1277.53221
1277.532536
1277.530745
1277.529289
1277.529413
1277.531144
1277.530716
1277.531713
1277.53208
1277.53193
1277.532129
1277.530188
1277.52862
1277.528664
1277.530449
1277.530165
1277.531292
1277.531761
1277.531566
1277.531674
1277.529604
1277.527957
1277.527995
1277.529794
1277.529617
1277.530871
1277.531418
1277.531173
1277.531213
1277.529079
1277.527335
1277.527405
1277.529186
1277.529101
1277.530404
1277.531046
1277.530764
1277.530737
1277.528537
1277.526828
1277.526878
1277.528658
1277.528566
1277.529969
1277.530632
1277.53033
1277.530283
1277.528051
1277.526349
1277.526447
1277.52814
1277.528089
1277.529513
1277.530194
1277.529895
1277.529829
1277.527617
1277.525933
1277.52606
1277.527738
1277.52766
1277.529111
1277.529763
1277.529443
1277.52941
1277.527201
1277.525591
1277.525713
1277.527378
1277.527279
1277.528693
1277.529321
1277.529018
1277.529
1277.526853
1277.525284
1277.52543
1277.527061
1277.526936
1277.52829
1277.528894
1277.528647
1277.528649
1277.526526
1277.525032
1277.525205
1277.526843
1277.526629
1277.527926
1277.528515
1277.528349
1277.528371
1277.526299
1277.524879
1277.525046
1277.526656
1277.526412
1277.527657
1277.528223
)
;
    }
    side-walls
    {
        type            calculated;
        value           nonuniform List<scalar> 
261
(
1277.532847
1277.533005
1277.531817
1277.531959
1277.531647
1277.532383
1277.532371
1277.532631
1277.532947
1277.532682
1277.532811
1277.531438
1277.531361
1277.530936
1277.531783
1277.532009
1277.53241
1277.532793
1277.53248
1277.532498
1277.530969
1277.530686
1277.530186
1277.531115
1277.531536
1277.532138
1277.532599
1277.53221
1277.532145
1277.530444
1277.529973
1277.529437
1277.530394
1277.53102
1277.531768
1277.532328
1277.53193
1277.531752
1277.529881
1277.529287
1277.528699
1277.52971
1277.530442
1277.531385
1277.532011
1277.531566
1277.531292
1277.529309
1277.528649
1277.528025
1277.529005
1277.529881
1277.530945
1277.531645
1277.531173
1277.530846
1277.528769
1277.528031
1277.527441
1277.528399
1277.529336
1277.530473
1277.531263
1277.530764
1277.530394
1277.528266
1277.527487
1277.526907
1277.52787
1277.528807
1277.530004
1277.530854
1277.53033
1277.529912
1277.527782
1277.527035
1277.526426
1277.527401
1277.528341
1277.529546
1277.530417
1277.529895
1277.529446
1277.527331
1277.526624
1277.526027
1277.526998
1277.527914
1277.529121
1277.529981
1277.529443
1277.528992
1277.526969
1277.526258
1277.525675
1277.52665
1277.527519
1277.528655
1277.529538
1277.529018
1277.528613
1277.526621
1277.525926
1277.525399
1277.526333
1277.527161
1277.528258
1277.529126
1277.528647
1277.528239
1277.526333
1277.525699
1277.525184
1277.526135
1277.526854
1277.527927
1277.528719
1277.528349
1277.527963
1277.526095
1277.525502
1277.525028
1277.525965
1277.52664
1277.527633
1277.528423
1277.532772
1277.532992
1277.532983
1277.532891
1277.532078
1277.532319
1277.531361
1277.533079
1277.533299
1277.532671
1277.532842
1277.532687
1277.532444
1277.531471
1277.531861
1277.5311
1277.532927
1277.533214
1277.532539
1277.532623
1277.532311
1277.531864
1277.530768
1277.531298
1277.530736
1277.532699
1277.53307
1277.532339
1277.532339
1277.531837
1277.531194
1277.530008
1277.530611
1277.530252
1277.532391
1277.532877
1277.53208
1277.531988
1277.531319
1277.530498
1277.529222
1277.529926
1277.529722
1277.532013
1277.532609
1277.531761
1277.531572
1277.530709
1277.529819
1277.528472
1277.529227
1277.529172
1277.531622
1277.532287
1277.531418
1277.531142
1277.530151
1277.529181
1277.527795
1277.528585
1277.528612
1277.531166
1277.531931
1277.531046
1277.53068
1277.52959
1277.528573
1277.527212
1277.527987
1277.528096
1277.53069
1277.531544
1277.530632
1277.530193
1277.529078
1277.528052
1277.526696
1277.52745
1277.527549
1277.530231
1277.531132
1277.530194
1277.52971
1277.528607
1277.52761
1277.526235
1277.526998
1277.527072
1277.529772
1277.53069
1277.529763
1277.529236
1277.52816
1277.527178
1277.525879
1277.526557
1277.526625
1277.529311
1277.530253
1277.529321
1277.528821
1277.527754
1277.526827
1277.525555
1277.526221
1277.52625
1277.52889
1277.529814
1277.528894
1277.528424
1277.527436
1277.526533
1277.525273
1277.525912
1277.525874
1277.528494
1277.529409
1277.528515
1277.528046
1277.527118
1277.526291
1277.525061
1277.525675
1277.525567
1277.528116
1277.529038
1277.528223
1277.527805
1277.526877
1277.526132
1277.524953
1277.525491
1277.525362
1277.527824
1277.528737
)
;
    }
    inlet
    {
        type            calculated;
        value           nonuniform 0();
    }
    outlet
    {
        type            calculated;
        value           nonuniform List<scalar> 
81
(
1277.528349
1277.527963
1277.526095
1277.525502
1277.525028
1277.525965
1277.52664
1277.527633
1277.528423
1277.528371
1277.527215
1277.525628
1277.524209
1277.524997
1277.524996
1277.525875
1277.527022
1277.528312
1277.526299
1277.525455
1277.524629
1277.521533
1277.52207
1277.521477
1277.522441
1277.526394
1277.526707
1277.524879
1277.525227
1277.523166
1277.521796
1277.518751
1277.51889
1277.522854
1277.524146
1277.526099
1277.525046
1277.524443
1277.521487
1277.518391
1276.865178
1277.518281
1277.520658
1277.523087
1277.525164
1277.526656
1277.524349
1277.522389
1277.519753
1277.519335
1277.521125
1277.522313
1277.524056
1277.525935
1277.526412
1277.525907
1277.523153
1277.521441
1277.52249
1277.522035
1277.523714
1277.525965
1277.526543
1277.527657
1277.526715
1277.526195
1277.525042
1277.523845
1277.52531
1277.525194
1277.526612
1277.528167
1277.528223
1277.527805
1277.526877
1277.526132
1277.524953
1277.525491
1277.525362
1277.527824
1277.528737
)
;
    }
    procBoundary1to0
    {
        type            processor;
        value           nonuniform List<scalar> 
97
(
1277.53297
1277.53297
1277.533162
1277.532155
1277.532371
1277.532259
1277.532832
1277.532654
1277.532776
1277.533022
1277.533629
1277.533029
1277.533029
1277.533029
1277.532471
1277.531573
1277.532129
1277.532275
1277.532678
1277.532901
1277.533499
1277.532635
1277.532714
1277.531977
1277.531977
1277.531977
1277.527712
1277.524472
1277.527636
1277.52987
1277.533066
1277.53288
1277.532055
1277.533271
1277.532177
1277.518535
1277.518535
1277.518535
1277.484751
1277.515687
1277.529072
1277.531494
1277.532915
1277.532622
1277.532695
1277.529811
1277.519618
1276.5784
1276.5784
1276.5784
1277.484268
1277.484268
1277.522968
1277.530143
1277.532311
1277.533873
1277.532489
1277.531519
1277.526985
1277.520469
1277.528563
1277.528561
1277.528561
1277.528561
1277.531463
1277.532783
1277.532546
1277.533094
1277.531625
1277.530512
1277.530902
1277.531065
1277.532215
1277.532797
1277.532797
1277.532797
1277.532729
1277.532815
1277.532742
1277.533489
1277.533325
1277.532202
1277.533439
1277.532371
1277.532683
1277.533402
1277.533402
1277.533402
1277.53282
1277.533087
1277.533167
1277.533201
1277.53248
1277.532645
1277.531551
1277.533173
1277.533324
)
;
    }
}


// ************************************************************************* //
