/*--------------------------------*- C++ -*----------------------------------*\
| =========                 |                                                 |
| \\      /  F ield         | OpenFOAM: The Open Source CFD Toolbox           |
|  \\    /   O peration     | Version:  4.x                                   |
|   \\  /    A nd           | Web:      www.OpenFOAM.org                      |
|    \\/     M anipulation  |                                                 |
\*---------------------------------------------------------------------------*/
FoamFile
{
    version     2.0;
    format      ascii;
    class       volScalarField;
    location    "8000";
    object      H2;
}
// * * * * * * * * * * * * * * * * * * * * * * * * * * * * * * * * * * * * * //

dimensions      [0 0 0 0 0 0 0];

internalField   nonuniform List<scalar> 
1174
(
0.004463730858
0.00446366362
0.004463569687
0.00446344839
0.004463301476
0.004463132567
0.004462946445
0.004462748364
0.004462543512
0.004462336666
0.004462132156
0.004461934524
0.00446175179
0.004461609425
0.004463668994
0.00446356313
0.004463423611
0.004463254208
0.004463061159
0.004462851726
0.004462633083
0.004462411608
0.00446219256
0.004461980033
0.004461777184
0.004461587045
0.004461415564
0.00446128424
0.004463533835
0.004463350026
0.004463124981
0.004462871942
0.004462604761
0.004462335538
0.004462073593
0.004461825354
0.004461594718
0.00446138363
0.004461192734
0.004461022334
0.004460874944
0.004460765402
0.004463338564
0.004463056899
0.004462736891
0.004462402303
0.0044620724
0.004461760601
0.004461474942
0.004461219232
0.004460994288
0.004460799014
0.004460631276
0.004460488792
0.004460371008
0.004460286441
0.004463201379
0.004462866992
0.004462505704
0.004462143093
0.004461797183
0.004461479088
0.004461194487
0.004460945172
0.00446073036
0.004460547723
0.004460394168
0.004460266593
0.004460163412
0.004460090634
0.004463338566
0.004463056902
0.004462736895
0.004462402308
0.004462072406
0.004461760607
0.00446147495
0.00446121924
0.004460994296
0.004460799023
0.004460631285
0.004460488801
0.004460371017
0.00446028645
0.004463533839
0.004463350031
0.004463124987
0.00446287195
0.00446260477
0.004462335548
0.004462073605
0.004461825366
0.004461594732
0.004461383644
0.004461192749
0.004461022349
0.00446087496
0.004460765419
0.004463668997
0.004463563134
0.004463423617
0.004463254215
0.004463061168
0.004462851737
0.004462633095
0.004462411622
0.004462192575
0.004461980049
0.004461777202
0.004461587064
0.004461415584
0.004461284261
0.004463730861
0.004463663623
0.004463569692
0.004463448395
0.004463301482
0.004463132575
0.004462946455
0.004462748376
0.004462543525
0.004462336682
0.004462132173
0.004461934543
0.00446175181
0.004461609447
0.004463741285
0.004463668994
0.00446356313
0.004463423611
0.004463254208
0.004463061158
0.004462851726
0.004462633083
0.004462411607
0.004462192559
0.004461980033
0.004461777184
0.004461587045
0.004461415563
0.00446128424
0.004463531785
0.004463349668
0.00446312987
0.00446288603
0.004462631421
0.004462376929
0.004462130437
0.004461897032
0.004461679574
0.004461479326
0.00446129661
0.004461131716
0.004460987436
0.004460879188
0.004463190898
0.004462844107
0.004462471376
0.004462104233
0.004461763507
0.004461459924
0.00446119676
0.004460972663
0.004460783862
0.004460625669
0.00446049341
0.004460383125
0.004460292918
0.004460228434
0.004462594378
0.004462027231
0.004461494502
0.004461034648
0.004460659534
0.004460365464
0.004460141609
0.004459975128
0.004459853796
0.004459767092
0.004459706457
0.004459665166
0.004459638138
0.004459622418
0.00446204131
0.004461365935
0.004460800577
0.004460357453
0.004460025234
0.004459784814
0.004459616618
0.00445950345
0.004459431258
0.004459389002
0.004459368192
0.004459362287
0.004459365862
0.004459372934
0.004462594388
0.004462027244
0.004461494516
0.004461034663
0.004460659549
0.004460365479
0.004460141624
0.004459975143
0.00445985381
0.004459767106
0.00445970647
0.004459665178
0.004459638151
0.004459622431
0.004463190911
0.004462844123
0.004462471393
0.004462104252
0.004461763528
0.004461459945
0.004461196782
0.004460972685
0.004460783884
0.004460625691
0.004460493431
0.004460383146
0.004460292939
0.004460228456
0.004463531793
0.004463349677
0.00446312988
0.004462886043
0.004462631436
0.004462376946
0.004462130455
0.004461897052
0.004461679595
0.004461479348
0.004461296632
0.004461131739
0.00446098746
0.004460879213
0.004463668997
0.004463563134
0.004463423617
0.004463254216
0.004463061168
0.004462851738
0.004462633097
0.004462411623
0.004462192577
0.004461980052
0.004461777206
0.004461587068
0.004461415588
0.004461284266
0.004463667516
0.004463533836
0.004463350027
0.004463124982
0.004462871943
0.004462604762
0.004462335539
0.004462073594
0.004461825355
0.004461594719
0.004461383631
0.004461192735
0.004461022335
0.004460874945
0.004460765404
0.004463474312
0.004463190899
0.004462844108
0.004462471376
0.004462104233
0.004461763507
0.004461459924
0.004461196761
0.004460972663
0.004460783862
0.004460625669
0.00446049341
0.004460383125
0.004460292919
0.004460228435
0.004462199669
0.004461484417
0.004460846013
0.004460330344
0.004459944029
0.004459672695
0.004459494113
0.004459385641
0.004459327611
0.004459304349
0.004459304001
0.004459317782
0.00445933869
0.004459358524
0.004460030126
0.004458848431
0.004458051346
0.004457595864
0.004457396043
0.004457368622
0.004457448031
0.004457587703
0.004457756643
0.004457935206
0.004458111394
0.004458277657
0.004458426694
0.004458539784
0.004457237477
0.004456089418
0.004455621902
0.004455567941
0.004455740998
0.004456025703
0.004456354856
0.004456690958
0.004457014065
0.004457314353
0.004457587584
0.004457831858
0.004458043022
0.004458199778
0.004460030175
0.004458848481
0.004458051392
0.004457595905
0.00445739608
0.004457368654
0.00445744806
0.004457587727
0.004457756664
0.004457935226
0.004458111412
0.004458277673
0.004458426709
0.004458539799
0.004462199712
0.00446148446
0.004460846057
0.004460330388
0.004459944071
0.004459672735
0.004459494151
0.004459385677
0.004459327644
0.004459304381
0.004459304031
0.00445931781
0.004459338717
0.00445935855
0.004463190912
0.004462844125
0.004462471397
0.004462104257
0.004461763533
0.004461459952
0.00446119679
0.004460972694
0.004460783893
0.0044606257
0.004460493441
0.004460383156
0.00446029295
0.004460228466
0.004463533839
0.004463350033
0.00446312499
0.004462871954
0.004462604776
0.004462335555
0.004462073613
0.004461825376
0.004461594743
0.004461383657
0.004461192762
0.004461022363
0.004460874975
0.004460765434
0.004463558301
0.004463338566
0.004463056902
0.004462736894
0.004462402307
0.004462072404
0.004461760605
0.004461474946
0.004461219236
0.004460994292
0.004460799018
0.00446063128
0.004460488795
0.004460371011
0.004460286444
0.004463122734
0.004462594377
0.004462027232
0.004461494502
0.004461034648
0.004460659534
0.004460365465
0.00446014161
0.00445997513
0.004459853798
0.004459767094
0.004459706459
0.004459665168
0.00445963814
0.004459622421
0.004461498432
0.004460030122
0.00445884843
0.004458051346
0.004457595865
0.004457396046
0.004457368626
0.004457448036
0.004457587707
0.004457756647
0.004457935211
0.004458111399
0.004458277661
0.004458426698
0.004458539788
0.0044526976
0.004451281022
0.004451110889
0.004451598186
0.004452366574
0.004453208559
0.004454021879
0.004454762907
0.004455418234
0.004455988804
0.004456481389
0.00445690342
0.004457256276
0.004457512363
0.004438549109
0.00444056475
0.004443513094
0.004446294548
0.004448635171
0.004450531593
0.00445205353
0.004453277951
0.004454270375
0.004455082033
0.004455751497
0.004456306179
0.004456758919
0.004457082522
0.004452697767
0.00445128114
0.004451110974
0.004451598247
0.004452366618
0.004453208591
0.004454021904
0.004454762927
0.00445541825
0.004455988818
0.004456481401
0.004456903431
0.004457256287
0.004457512374
0.004460030173
0.004458848487
0.004458051404
0.004457595922
0.004457396099
0.004457368675
0.00445744808
0.004457587748
0.004457756685
0.004457935245
0.004458111431
0.004458277691
0.004458426726
0.004458539815
0.004462594393
0.004462027254
0.00446149453
0.004461034681
0.00446065957
0.004460365502
0.004460141649
0.004459975168
0.004459853836
0.004459767132
0.004459706496
0.004459665204
0.004459638176
0.004459622456
0.004463338569
0.004463056908
0.004462736903
0.00446240232
0.004462072421
0.004461760626
0.00446147497
0.004461219263
0.004460994321
0.004460799049
0.004460631313
0.004460488829
0.004460371046
0.00446028648
0.004463477721
0.004463201383
0.004462866998
0.004462505711
0.0044621431
0.004461797191
0.004461479095
0.004461194494
0.004460945178
0.004460730366
0.004460547729
0.004460394174
0.004460266598
0.004460163417
0.004460090639
0.00446276227
0.00446204132
0.00446136595
0.004460800592
0.004460357467
0.004460025246
0.004459784824
0.004459616627
0.004459503458
0.004459431265
0.004459389009
0.004459368198
0.004459362292
0.004459365867
0.004459372939
0.004459329993
0.004457237492
0.004456089446
0.004455621926
0.004455567959
0.004455741012
0.004456025714
0.004456354865
0.004456690965
0.004457014071
0.004457314359
0.00445758759
0.004457831863
0.004458043027
0.004458199783
0.004440903507
0.004438549175
0.004440564792
0.004443513119
0.004446294564
0.00444863518
0.004450531599
0.004452053535
0.004453277955
0.004454270378
0.004455082035
0.004455751499
0.004456306182
0.004456758922
0.004457082524
0.004378385507
0.004409515289
0.004426612185
0.004436558172
0.004442691252
0.004446691908
0.004449439725
0.004451414261
0.004452888165
0.004454023079
0.004454918552
0.00445563663
0.004456209119
0.00445661233
0.004438549128
0.00444056486
0.004443513187
0.00444629462
0.004448635225
0.004450531637
0.004452053566
0.004453277983
0.004454270403
0.004455082057
0.004455751519
0.004456306199
0.004456758939
0.00445708254
0.004457237504
0.004456089477
0.004455621967
0.004455568003
0.004455741056
0.004456025756
0.004456354905
0.004456691003
0.004457014107
0.004457314393
0.004457587621
0.004457831893
0.004458043055
0.004458199811
0.004462041327
0.004461365964
0.004460800614
0.004460357495
0.004460025278
0.004459784859
0.004459616663
0.004459503495
0.004459431302
0.004459389046
0.004459368235
0.004459362329
0.004459365903
0.004459372975
0.004463201385
0.004462867003
0.00446250572
0.004462143114
0.004461797209
0.004461479117
0.00446119452
0.004460945207
0.004460730398
0.004460547762
0.004460394209
0.004460266635
0.004460163454
0.004460090677
0.004463558303
0.004463338569
0.004463056906
0.004462736899
0.004462402313
0.004462072411
0.004461760613
0.004461474955
0.004461219245
0.004460994302
0.004460799028
0.004460631291
0.004460488806
0.004460371022
0.004460286455
0.004463122744
0.004462594395
0.004462027253
0.004461494526
0.004461034673
0.004460659559
0.004460365489
0.004460141633
0.004459975151
0.004459853818
0.004459767113
0.004459706477
0.004459665185
0.004459638157
0.004459622437
0.004461498487
0.004460030182
0.004458848494
0.004458051405
0.004457595918
0.004457396093
0.004457368666
0.004457448071
0.004457587738
0.004457756674
0.004457935235
0.004458111421
0.004458277681
0.004458426717
0.004458539806
0.004456017795
0.004452697791
0.004451281173
0.004451111003
0.004451598272
0.00445236664
0.004453208611
0.004454021921
0.004454762942
0.004455418264
0.00445598883
0.004456481413
0.004456903441
0.004457256296
0.004457512382
0.004440903487
0.004438549191
0.004440564915
0.004443513234
0.00444629466
0.00444863526
0.004450531667
0.004452053591
0.004453278003
0.00445427042
0.004455082072
0.004455751532
0.00445630621
0.004456758948
0.004457082548
0.004456017749
0.004452697783
0.004451281184
0.004451111025
0.0044515983
0.004452366671
0.004453208642
0.004454021952
0.004454762971
0.004455418291
0.004455988856
0.004456481436
0.004456903463
0.004457256316
0.004457512401
0.004460030129
0.004458848474
0.004458051406
0.004457595931
0.004457396113
0.004457368692
0.004457448099
0.004457587767
0.004457756704
0.004457935265
0.00445811145
0.00445827771
0.004458426745
0.004458539833
0.004462594382
0.004462027247
0.004461494527
0.004461034682
0.004460659574
0.004460365509
0.004460141657
0.004459975178
0.004459853847
0.004459767143
0.004459706508
0.004459665217
0.004459638189
0.004459622469
0.004463338566
0.004463056905
0.004462736902
0.00446240232
0.004462072423
0.004461760629
0.004461474975
0.004461219269
0.004460994328
0.004460799057
0.004460631321
0.004460488839
0.004460371056
0.00446028649
0.004463667519
0.00446353384
0.004463350034
0.004463124991
0.004462871954
0.004462604775
0.004462335553
0.00446207361
0.004461825372
0.004461594737
0.00446138365
0.004461192755
0.004461022355
0.004460874966
0.004460765425
0.004463474322
0.004463190914
0.004462844128
0.004462471399
0.004462104258
0.004461763534
0.004461459951
0.004461196789
0.004460972692
0.00446078389
0.004460625697
0.004460493438
0.004460383152
0.004460292945
0.004460228462
0.004462891286
0.004462199718
0.004461484469
0.004460846066
0.004460330397
0.004459944081
0.004459672744
0.00445949416
0.004459385685
0.004459327652
0.004459304388
0.004459304038
0.004459317817
0.004459338724
0.004459358557
0.00446149849
0.004460030192
0.00445884851
0.004458051426
0.004457595941
0.004457396115
0.004457368688
0.004457448092
0.004457587759
0.004457756694
0.004457935254
0.004458111439
0.004458277699
0.004458426733
0.004458539822
0.004459329979
0.004457237511
0.004456089487
0.004455621979
0.004455568017
0.00445574107
0.00445602577
0.004456354919
0.004456691016
0.004457014119
0.004457314404
0.004457587632
0.004457831902
0.004458043064
0.004458199819
0.004461498482
0.004460030184
0.004458848505
0.004458051425
0.004457595944
0.004457396122
0.004457368698
0.004457448104
0.004457587772
0.004457756708
0.004457935268
0.004458111454
0.004458277713
0.004458426748
0.004458539836
0.004462891268
0.0044621997
0.004461484456
0.004460846059
0.004460330397
0.004459944086
0.004459672754
0.004459494173
0.004459385701
0.00445932767
0.004459304408
0.004459304058
0.004459317838
0.004459338746
0.004459358579
0.0044631909
0.004462844118
0.004462471394
0.004462104258
0.004461763538
0.00446145996
0.004461196801
0.004460972707
0.004460783908
0.004460625717
0.00446049346
0.004460383176
0.00446029297
0.004460228487
0.004463533835
0.00446335003
0.004463124988
0.004462871954
0.004462604778
0.004462335559
0.00446207362
0.004461825385
0.004461594753
0.004461383669
0.004461192776
0.004461022379
0.004460874991
0.004460765452
0.004463741288
0.004463668999
0.004463563136
0.004463423619
0.004463254218
0.004463061171
0.004462851741
0.0044626331
0.004462411627
0.00446219258
0.004461980055
0.004461777208
0.00446158707
0.00446141559
0.004461284267
0.004463665988
0.004463531795
0.00446334968
0.004463129884
0.004462886047
0.004462631441
0.004462376951
0.00446213046
0.004461897058
0.0044616796
0.004461479354
0.004461296639
0.004461131746
0.004460987466
0.004460879219
0.004463474322
0.004463190914
0.004462844128
0.004462471401
0.004462104261
0.004461763538
0.004461459957
0.004461196795
0.004460972699
0.004460783898
0.004460625706
0.004460493447
0.004460383162
0.004460292955
0.004460228471
0.004463122744
0.004462594397
0.00446202726
0.004461494536
0.004461034687
0.004460659576
0.004460365509
0.004460141655
0.004459975174
0.004459853842
0.004459767138
0.004459706502
0.00445966521
0.004459638182
0.004459622462
0.00446276227
0.004462041328
0.004461365966
0.004460800616
0.004460357497
0.00446002528
0.004459784862
0.004459616667
0.004459503499
0.004459431307
0.00445938905
0.004459368239
0.004459362333
0.004459365907
0.004459372979
0.004463122743
0.004462594395
0.004462027258
0.004461494535
0.004461034687
0.004460659578
0.004460365512
0.00446014166
0.004459975181
0.00445985385
0.004459767146
0.004459706511
0.004459665219
0.004459638192
0.004459622472
0.00446347432
0.004463190911
0.004462844126
0.0044624714
0.004462104263
0.004461763542
0.004461459963
0.004461196804
0.004460972709
0.004460783911
0.00446062572
0.004460493462
0.004460383178
0.004460292972
0.004460228489
0.004463665985
0.004463531791
0.004463349676
0.004463129882
0.004462886047
0.004462631443
0.004462376956
0.004462130467
0.004461897067
0.004461679612
0.004461479368
0.004461296655
0.004461131763
0.004460987485
0.00446087924
0.004463668994
0.004463563132
0.004463423616
0.004463254216
0.004463061171
0.004462851743
0.004462633104
0.004462411633
0.004462192589
0.004461980067
0.004461777222
0.004461587087
0.004461415608
0.004461284288
0.004463774607
0.004463730861
0.004463663625
0.004463569693
0.004463448398
0.004463301486
0.004463132579
0.004462946459
0.004462748381
0.004462543531
0.004462336688
0.004462132179
0.004461934549
0.004461751816
0.004461609454
0.004463741288
0.004463668998
0.004463563136
0.004463423619
0.004463254219
0.004463061172
0.004462851742
0.004462633101
0.004462411629
0.004462192583
0.004461980058
0.004461777212
0.004461587074
0.004461415594
0.004461284272
0.004463667518
0.00446353384
0.004463350035
0.004463124992
0.004462871957
0.004462604779
0.004462335558
0.004462073617
0.00446182538
0.004461594747
0.004461383661
0.004461192767
0.004461022368
0.00446087498
0.004460765439
0.004463558303
0.004463338571
0.00446305691
0.004462736906
0.004462402324
0.004462072425
0.004461760629
0.004461474974
0.004461219267
0.004460994325
0.004460799053
0.004460631317
0.004460488834
0.00446037105
0.004460286484
0.004463477722
0.004463201387
0.004462867006
0.004462505723
0.004462143118
0.004461797213
0.004461479121
0.004461194524
0.004460945211
0.004460730402
0.004460547766
0.004460394213
0.004460266639
0.004460163458
0.004460090681
0.004463558303
0.004463338571
0.004463056911
0.004462736908
0.004462402326
0.004462072428
0.004461760634
0.00446147498
0.004461219273
0.004460994332
0.004460799061
0.004460631325
0.004460488842
0.00446037106
0.004460286494
0.004463667519
0.004463533841
0.004463350037
0.004463124995
0.004462871961
0.004462604785
0.004462335566
0.004462073627
0.004461825391
0.00446159476
0.004461383675
0.004461192781
0.004461022384
0.004460874996
0.004460765456
0.004463741287
0.004463668998
0.004463563136
0.004463423619
0.004463254219
0.004463061174
0.004462851746
0.004462633107
0.004462411636
0.004462192592
0.00446198007
0.004461777225
0.004461587089
0.004461415611
0.00446128429
0.004463774606
0.00446373086
0.004463663623
0.004463569692
0.004463448396
0.004463301485
0.00446313258
0.004462946462
0.004462748385
0.004462543537
0.004462336696
0.00446213219
0.004461934562
0.004461751832
0.004461609471
)
;

boundaryField
{
    top
    {
        type            zeroGradient;
    }
    bottom
    {
        type            zeroGradient;
    }
    side-walls
    {
        type            zeroGradient;
    }
    inlet
    {
        type            zeroGradient;
    }
    outlet
    {
        type            zeroGradient;
    }
    procBoundary1to0
    {
        type            processor;
        value           nonuniform List<scalar> 
97
(
0.004463774606
0.004463774606
0.004463741287
0.004463667519
0.004463558305
0.004463477725
0.004463558306
0.004463667521
0.004463741289
0.004463774608
0.004463784563
0.004463665984
0.004463665984
0.004463665984
0.004463474319
0.004463122746
0.00446276228
0.004463122754
0.004463474328
0.004463665991
0.004463741289
0.004463750717
0.004463664842
0.004462891261
0.004462891261
0.004462891261
0.004461498481
0.004459330037
0.004461498526
0.004462891301
0.004463474328
0.004463667521
0.004463701818
0.004463515466
0.004462873395
0.004456017654
0.004456017654
0.004456017654
0.004440903735
0.004456017894
0.004461498521
0.004463122756
0.004463558308
0.004463667462
0.004463376959
0.004462174109
0.004457496694
0.004318394059
0.004318394059
0.004318394059
0.004440903732
0.004440903732
0.004459330052
0.00446276229
0.004463477727
0.004463701818
0.004463515469
0.004462873405
0.004461037733
0.004457496669
0.004461037727
0.004461498456
0.004461498456
0.004461498456
0.004463122745
0.004463558305
0.004463750718
0.004463664844
0.004463416641
0.004462873406
0.004462174098
0.004462873402
0.004463416637
0.004463474315
0.004463474315
0.004463474315
0.004463667518
0.004463784564
0.004463750206
0.004463664844
0.004463515468
0.004463376958
0.004463515468
0.004463664843
0.004463750205
0.004463741286
0.004463741286
0.004463741286
0.004463800056
0.004463784564
0.004463750717
0.004463701818
0.004463667462
0.004463701818
0.004463750718
0.004463784564
0.004463800055
)
;
    }
}


// ************************************************************************* //
