/*--------------------------------*- C++ -*----------------------------------*\
| =========                 |                                                 |
| \\      /  F ield         | OpenFOAM: The Open Source CFD Toolbox           |
|  \\    /   O peration     | Version:  4.x                                   |
|   \\  /    A nd           | Web:      www.OpenFOAM.org                      |
|    \\/     M anipulation  |                                                 |
\*---------------------------------------------------------------------------*/
FoamFile
{
    version     2.0;
    format      ascii;
    class       volScalarField;
    location    "8000";
    object      H2O;
}
// * * * * * * * * * * * * * * * * * * * * * * * * * * * * * * * * * * * * * //

dimensions      [0 0 0 0 0 0 0];

internalField   nonuniform List<scalar> 
1174
(
1.077083252e-05
1.133190143e-05
1.211572881e-05
1.312791741e-05
1.435388902e-05
1.576343645e-05
1.731667544e-05
1.896976961e-05
2.067944088e-05
2.240581198e-05
2.41127737e-05
2.57624008e-05
2.728774435e-05
2.847614839e-05
1.128705456e-05
1.217040919e-05
1.33346001e-05
1.474817408e-05
1.635910866e-05
1.810681008e-05
1.99314464e-05
2.177978977e-05
2.360796733e-05
2.538180769e-05
2.707496356e-05
2.866212635e-05
3.009362872e-05
3.118992085e-05
1.241481171e-05
1.394848076e-05
1.582625854e-05
1.793766344e-05
2.016715585e-05
2.241378789e-05
2.459978169e-05
2.667151869e-05
2.859645801e-05
3.035838222e-05
3.195188819e-05
3.33744275e-05
3.46049734e-05
3.551956067e-05
1.40440232e-05
1.63941066e-05
1.906418258e-05
2.18559979e-05
2.460885364e-05
2.721077361e-05
2.959470179e-05
3.172885435e-05
3.360638964e-05
3.523643918e-05
3.663679518e-05
3.782648135e-05
3.881005484e-05
3.951629836e-05
1.518851255e-05
1.797843621e-05
2.099291281e-05
2.401855496e-05
2.690497844e-05
2.955947023e-05
3.193460752e-05
3.401543444e-05
3.580846449e-05
3.733311109e-05
3.861515352e-05
3.96804542e-05
4.054220168e-05
4.115008565e-05
1.404398384e-05
1.639404831e-05
1.906409868e-05
2.185589197e-05
2.460871394e-05
2.721060427e-05
2.959449643e-05
3.17286117e-05
3.360611442e-05
3.523613163e-05
3.663646143e-05
3.782611835e-05
3.880966607e-05
3.951588461e-05
1.241474919e-05
1.394839815e-05
1.582614794e-05
1.793751925e-05
2.016696811e-05
2.241354585e-05
2.459947988e-05
2.667115898e-05
2.859603811e-05
3.035790182e-05
3.195135131e-05
3.337383462e-05
3.460432818e-05
3.551887016e-05
1.128699717e-05
1.217033838e-05
1.333450675e-05
1.474805247e-05
1.635894403e-05
1.810659093e-05
1.993116627e-05
2.177943912e-05
2.360753909e-05
2.538129929e-05
2.707437432e-05
2.866145783e-05
3.009288217e-05
3.118910973e-05
1.077079053e-05
1.133185686e-05
1.21156732e-05
1.312783921e-05
1.435377687e-05
1.576327635e-05
1.731645252e-05
1.896947335e-05
2.06790585e-05
2.240533939e-05
2.411220466e-05
2.576173298e-05
2.728697916e-05
2.847527676e-05
1.068379835e-05
1.1287018e-05
1.21703761e-05
1.333456704e-05
1.474814419e-05
1.635907852e-05
1.810678138e-05
1.993142014e-05
2.177976909e-05
2.360794359e-05
2.538178242e-05
2.70749373e-05
2.866210351e-05
3.009360218e-05
3.118989491e-05
1.243193919e-05
1.395147359e-05
1.578545771e-05
1.782011056e-05
1.994470411e-05
2.20684219e-05
2.412549321e-05
2.607345261e-05
2.788844604e-05
2.95599171e-05
3.108516553e-05
3.246175439e-05
3.366634265e-05
3.45701128e-05
1.52761335e-05
1.816952555e-05
2.12794559e-05
2.434289568e-05
2.71860686e-05
2.971947863e-05
3.191576054e-05
3.378619753e-05
3.536221604e-05
3.66829197e-05
3.778728226e-05
3.870832558e-05
3.946181229e-05
4.000047436e-05
2.025278751e-05
2.498453269e-05
2.942934946e-05
3.326636958e-05
3.639657805e-05
3.885076836e-05
4.071924414e-05
4.210912386e-05
4.312236399e-05
4.384671969e-05
4.435359024e-05
4.469907042e-05
4.492548756e-05
4.505732121e-05
2.486649924e-05
3.050115733e-05
3.521826056e-05
3.891582073e-05
4.168828484e-05
4.369497848e-05
4.509919036e-05
4.604434893e-05
4.664766479e-05
4.700123233e-05
4.717587395e-05
4.722614922e-05
4.719726339e-05
4.713893172e-05
2.025261275e-05
2.49843186e-05
2.942909575e-05
3.326607299e-05
3.639624116e-05
3.885039177e-05
4.071883239e-05
4.210867982e-05
4.312189576e-05
4.384623482e-05
4.43530916e-05
4.469855822e-05
4.492495858e-05
4.505677142e-05
1.527592411e-05
1.816928661e-05
2.127917542e-05
2.434255533e-05
2.718565811e-05
2.971899433e-05
3.191520753e-05
3.378557739e-05
3.536153374e-05
3.668218534e-05
3.77865012e-05
3.870750113e-05
3.946095357e-05
3.999957685e-05
1.243181217e-05
1.39513435e-05
1.578529558e-05
1.781989706e-05
1.994442264e-05
2.206805576e-05
2.412503702e-05
2.607290123e-05
2.788781015e-05
2.955918911e-05
3.108435622e-05
3.246086179e-05
3.366537922e-05
3.456908076e-05
1.128700207e-05
1.217034142e-05
1.333450326e-05
1.474803388e-05
1.635890709e-05
1.810652989e-05
1.993107746e-05
2.177932125e-05
2.360738931e-05
2.538111747e-05
2.707415891e-05
2.866121299e-05
3.00926037e-05
3.118878539e-05
1.129931428e-05
1.241472053e-05
1.39483878e-05
1.582616155e-05
1.793756595e-05
2.01670586e-05
2.241368979e-05
2.459968152e-05
2.66714231e-05
2.859636586e-05
3.035828823e-05
3.195180017e-05
3.337433465e-05
3.460488108e-05
3.551947456e-05
1.291143832e-05
1.527601682e-05
1.816942329e-05
2.127936774e-05
2.43428147e-05
2.718599128e-05
2.971940625e-05
3.191568956e-05
3.378613153e-05
3.536215271e-05
3.668285303e-05
3.778721965e-05
3.870826126e-05
3.946175738e-05
4.000042229e-05
2.354606063e-05
2.951324763e-05
3.483962128e-05
3.914231219e-05
4.236602488e-05
4.463060416e-05
4.612144884e-05
4.702743527e-05
4.751260418e-05
4.770770501e-05
4.771164549e-05
4.759767407e-05
4.742416081e-05
4.725936537e-05
4.164524538e-05
5.150364775e-05
5.815401874e-05
6.195491114e-05
6.362311404e-05
6.385313171e-05
6.319191559e-05
6.202792574e-05
6.061971264e-05
5.91311633e-05
5.76623697e-05
5.627632754e-05
5.503388796e-05
5.409106064e-05
6.494035141e-05
7.451859604e-05
7.842018086e-05
7.887194167e-05
7.742983302e-05
7.505623266e-05
7.231173106e-05
6.950915509e-05
6.681488058e-05
6.431089739e-05
6.203254868e-05
5.999571527e-05
5.823498358e-05
5.692785767e-05
4.164439568e-05
5.150281446e-05
5.815318588e-05
6.195406518e-05
6.362226422e-05
6.385228094e-05
6.319106404e-05
6.202708973e-05
6.061888875e-05
5.913035864e-05
5.766158153e-05
5.627555442e-05
5.503313511e-05
5.40903256e-05
2.354538657e-05
2.951261514e-05
3.483892732e-05
3.914151989e-05
4.236513548e-05
4.462962444e-05
4.612040382e-05
4.702632826e-05
4.751145627e-05
4.77065379e-05
4.771045544e-05
4.759648299e-05
4.742296492e-05
4.725815825e-05
1.527592505e-05
1.816925577e-05
2.127909428e-05
2.434241642e-05
2.718545442e-05
2.971873295e-05
3.191489082e-05
3.378520891e-05
3.53611237e-05
3.668173662e-05
3.778602399e-05
3.870700111e-05
3.946043285e-05
3.999903841e-05
1.241475558e-05
1.394838133e-05
1.582609145e-05
1.793740366e-05
2.016677953e-05
2.241327754e-05
2.459913183e-05
2.667072711e-05
2.859552515e-05
3.035731087e-05
3.195069382e-05
3.3373113e-05
3.460354694e-05
3.551802775e-05
1.221053875e-05
1.404387051e-05
1.639393642e-05
1.906399746e-05
2.185580722e-05
2.460865969e-05
2.721058307e-05
2.959450854e-05
3.17286597e-05
3.360620191e-05
3.523625684e-05
3.663661501e-05
3.782630635e-05
3.880988869e-05
3.95161345e-05
1.584455411e-05
2.025254383e-05
2.498430149e-05
2.942913038e-05
3.326616768e-05
3.639638729e-05
3.885058504e-05
4.071906975e-05
4.210895281e-05
4.312219605e-05
4.384656383e-05
4.435343993e-05
4.469892484e-05
4.492535057e-05
4.505718589e-05
2.939587879e-05
4.164478e-05
5.150330448e-05
5.815374824e-05
6.195468017e-05
6.362290427e-05
6.385294212e-05
6.319173834e-05
6.202775964e-05
6.061955581e-05
5.9131022e-05
5.766223766e-05
5.627620189e-05
5.503377116e-05
5.409094994e-05
0.0001028136251
0.0001146311205
0.0001160519802
0.0001119888302
0.0001055807165
9.855847856e-05
9.177515058e-05
8.559472064e-05
8.012906853e-05
7.537034843e-05
7.126209642e-05
6.774232963e-05
6.479951824e-05
6.266370678e-05
0.0002208304511
0.0002040203573
0.0001794296433
0.0001562302874
0.0001367075404
0.0001208897071
0.000108195405
9.798267271e-05
8.97050217e-05
8.293518958e-05
7.735140133e-05
7.2725054e-05
6.894897986e-05
6.624992597e-05
0.000102810729
0.0001146290186
0.0001160501506
0.0001119871404
0.0001055791587
9.855701269e-05
9.177378665e-05
8.559346588e-05
8.012789922e-05
7.5369258e-05
7.126106055e-05
6.774136163e-05
6.479859754e-05
6.266280807e-05
4.164446968e-05
5.150260386e-05
5.815270665e-05
6.195336502e-05
6.362140659e-05
6.385133545e-05
6.319008848e-05
6.202609628e-05
6.061790573e-05
5.912938709e-05
5.76606318e-05
5.627463066e-05
5.503223438e-05
5.40894289e-05
2.025260991e-05
2.49841588e-05
2.942874283e-05
3.326552558e-05
3.639550851e-05
3.884950785e-05
4.071782968e-05
4.210758328e-05
4.312072621e-05
4.384501021e-05
4.435183011e-05
4.469727425e-05
4.492365576e-05
4.505545253e-05
1.404398924e-05
1.639398159e-05
1.906391864e-05
2.185556412e-05
2.460822599e-05
2.720994931e-05
2.959368349e-05
3.172765386e-05
3.360502477e-05
3.523492975e-05
3.663514997e-05
3.78247166e-05
3.880818981e-05
3.951432444e-05
1.288280487e-05
1.518831616e-05
1.797820478e-05
2.099265933e-05
2.401827929e-05
2.690469682e-05
2.955918254e-05
3.193432314e-05
3.401515394e-05
3.580818765e-05
3.733284441e-05
3.861489232e-05
3.968020544e-05
4.054196193e-05
4.114984856e-05
1.8851538e-05
2.486609072e-05
3.050071245e-05
3.521781897e-05
3.891539554e-05
4.16878785e-05
4.36946004e-05
4.509884091e-05
4.604401689e-05
4.664736052e-05
4.700094619e-05
4.717560571e-05
4.722589619e-05
4.719702333e-05
4.713871015e-05
4.748357923e-05
6.493940067e-05
7.451769878e-05
7.841940437e-05
7.887128992e-05
7.742928172e-05
7.505576449e-05
7.231132913e-05
6.950880486e-05
6.681457188e-05
6.431061882e-05
6.203229705e-05
5.999548031e-05
5.823476822e-05
5.692765589e-05
0.0002011877915
0.0002208276938
0.0002040186929
0.0001794285735
0.0001562295606
0.0001367070251
0.0001208893204
0.0001081950987
9.798241299e-05
8.970481377e-05
8.2935002e-05
7.735124628e-05
7.272490665e-05
6.894885038e-05
6.624981096e-05
0.000722666924
0.0004630113433
0.0003204051889
0.0002374451529
0.0001862887118
0.0001529189261
0.0001299991757
0.00011352943
0.0001012355288
9.176922182e-05
8.430013591e-05
7.831075816e-05
7.353575785e-05
7.017259016e-05
0.0002208303876
0.0002040178098
0.0001794265239
0.0001562272548
0.0001367048038
0.0001208872839
0.000108193251
9.798073987e-05
8.970328795e-05
8.293360899e-05
7.734996475e-05
7.272371673e-05
6.894773673e-05
6.624873803e-05
6.494031836e-05
7.451743197e-05
7.841827539e-05
7.886964866e-05
7.742737084e-05
7.505373458e-05
7.230927193e-05
6.950676863e-05
6.681258318e-05
6.430868312e-05
6.203043554e-05
5.99936808e-05
5.823302352e-05
5.692594765e-05
2.486644935e-05
3.050071166e-05
3.521741468e-05
3.891461994e-05
4.168680399e-05
4.369328384e-05
4.509734417e-05
4.604239035e-05
4.664563898e-05
4.699915358e-05
4.71737648e-05
4.722402384e-05
4.719512151e-05
4.713677411e-05
1.518851111e-05
1.797829347e-05
2.099257207e-05
2.401797476e-05
2.690415204e-05
2.955839691e-05
3.193330987e-05
3.401393984e-05
3.580678985e-05
3.733127944e-05
3.861318817e-05
3.967838317e-05
4.054003878e-05
4.114782305e-05
1.221052792e-05
1.404382683e-05
1.639385119e-05
1.906386832e-05
2.185563251e-05
2.460843558e-05
2.721031386e-05
2.959419398e-05
3.172830954e-05
3.360581616e-05
3.523583349e-05
3.663616378e-05
3.782582306e-05
3.880937856e-05
3.951559953e-05
1.584439231e-05
2.025226548e-05
2.498392487e-05
2.942868051e-05
3.326564961e-05
3.639582006e-05
3.88499772e-05
4.071843756e-05
4.21083012e-05
4.312152966e-05
4.384588583e-05
4.435275774e-05
4.469823792e-05
4.492465619e-05
4.505648501e-05
2.939464264e-05
4.164356906e-05
5.150200912e-05
5.815242848e-05
6.195335745e-05
6.362161119e-05
6.385169116e-05
6.319054245e-05
6.202661873e-05
6.061845868e-05
5.912996164e-05
5.76612259e-05
5.62752265e-05
5.503283051e-05
5.409002608e-05
7.511351109e-05
0.0001028085946
0.0001146272757
0.0001160487694
0.0001119860271
0.0001055782327
9.855627168e-05
9.177317032e-05
8.559293384e-05
8.012743443e-05
7.536885397e-05
7.126070502e-05
6.774104316e-05
6.479830985e-05
6.266254624e-05
0.0002011875162
0.0002208269806
0.0002040155937
0.0001794250072
0.0001562261357
0.0001367039497
0.0001208866029
0.0001081927091
9.798030903e-05
8.970293881e-05
8.293331346e-05
7.734970412e-05
7.272349052e-05
6.894753591e-05
6.624855661e-05
7.51145128e-05
0.0001028087119
0.0001146265247
0.000116047416
0.0001119843877
0.0001055765113
9.855454809e-05
9.177152675e-05
8.559137901e-05
8.012597965e-05
7.536749256e-05
7.125943276e-05
6.773984324e-05
6.479718706e-05
6.266147104e-05
4.164522329e-05
5.15024187e-05
5.815195611e-05
6.195230331e-05
6.3620166e-05
6.385002471e-05
6.318875821e-05
6.202478045e-05
6.061662029e-05
5.912813738e-05
5.765942829e-05
5.627347752e-05
5.503111625e-05
5.408834534e-05
2.025286443e-05
2.498420041e-05
2.94285681e-05
3.326516203e-05
3.639500173e-05
3.884889272e-05
4.0717136e-05
4.210683156e-05
4.31199367e-05
4.38442e-05
4.435100154e-05
4.469643462e-05
4.49228111e-05
4.505459638e-05
1.404406807e-05
1.63940084e-05
1.906386934e-05
2.185542379e-05
2.460799208e-05
2.720962475e-05
2.959327959e-05
3.172717712e-05
3.360448651e-05
3.523433935e-05
3.663452384e-05
3.782405469e-05
3.880749844e-05
3.951360336e-05
1.129928183e-05
1.241464302e-05
1.394825463e-05
1.58259723e-05
1.793731049e-05
2.016673119e-05
2.241329226e-05
2.459920717e-05
2.667087182e-05
2.859574342e-05
3.035759917e-05
3.195104577e-05
3.337353041e-05
3.460402607e-05
3.551856659e-05
1.291121526e-05
1.527571681e-05
1.816902899e-05
2.127888293e-05
2.434223503e-05
2.718531893e-05
2.97186507e-05
3.191485524e-05
3.378522762e-05
3.536118738e-05
3.668183909e-05
3.778616578e-05
3.87071729e-05
3.946063074e-05
3.999925439e-05
1.777546776e-05
2.354490861e-05
2.951207576e-05
3.483837223e-05
3.914096014e-05
4.23645898e-05
4.462910904e-05
4.611990754e-05
4.702586468e-05
4.75110229e-05
4.770613209e-05
4.771007158e-05
4.759611254e-05
4.742261812e-05
4.725782389e-05
2.939463798e-05
4.164335086e-05
5.150151293e-05
5.815169168e-05
6.195246206e-05
6.362061206e-05
6.385064587e-05
6.318947425e-05
6.202554588e-05
6.061741114e-05
5.912894395e-05
5.766023165e-05
5.627426231e-05
5.503189866e-05
5.408911886e-05
4.748370057e-05
6.493868429e-05
7.451605157e-05
7.841714125e-05
7.886870835e-05
7.742657388e-05
7.505306013e-05
7.230868703e-05
6.950626567e-05
6.681213843e-05
6.430829244e-05
6.2030081e-05
5.999336587e-05
5.823273117e-05
5.692567458e-05
2.939466552e-05
4.164324534e-05
5.150116497e-05
5.815111042e-05
6.195169203e-05
6.361971409e-05
6.384967294e-05
6.318846352e-05
6.202453784e-05
6.061640483e-05
5.912795579e-05
5.765926647e-05
5.627332801e-05
5.503098638e-05
5.408821159e-05
1.777589708e-05
2.354525903e-05
2.951215974e-05
3.483812158e-05
3.914039718e-05
4.236376486e-05
4.462808062e-05
4.61187428e-05
4.702459385e-05
4.750967824e-05
4.770473998e-05
4.770865829e-05
4.759468917e-05
4.74211884e-05
4.725637844e-05
1.527611971e-05
1.816923985e-05
2.127886723e-05
2.434198196e-05
2.718483562e-05
2.971794571e-05
3.191395986e-05
3.378415972e-05
3.535998112e-05
3.668051259e-05
3.778474089e-05
3.870566924e-05
3.945905934e-05
3.999763185e-05
1.241484188e-05
1.394840702e-05
1.582602005e-05
1.793721767e-05
2.016646339e-05
2.241283107e-05
2.45985517e-05
2.667002528e-05
2.859471375e-05
3.035639835e-05
3.194969052e-05
3.337203477e-05
3.460240348e-05
3.551682257e-05
1.068374671e-05
1.128693343e-05
1.217024891e-05
1.333439059e-05
1.474790698e-05
1.635877159e-05
1.810639106e-05
1.993094125e-05
2.177919576e-05
2.360727787e-05
2.538102291e-05
2.707408813e-05
2.866116469e-05
3.009258021e-05
3.118879997e-05
1.13120503e-05
1.243169986e-05
1.395119491e-05
1.578511172e-05
1.78196796e-05
1.994417545e-05
2.2067786e-05
2.412475e-05
2.607260187e-05
2.788749561e-05
2.95588691e-05
3.108403496e-05
3.246053954e-05
3.366505632e-05
3.456875485e-05
1.291122207e-05
1.527570226e-05
1.816897791e-05
2.127877478e-05
2.434206321e-05
2.718508609e-05
2.971835317e-05
3.19145024e-05
3.378482888e-05
3.536074888e-05
3.668137212e-05
3.778566528e-05
3.870664939e-05
3.946008753e-05
3.999870559e-05
1.584440734e-05
2.025217533e-05
2.498366563e-05
2.94282212e-05
3.326499676e-05
3.639498645e-05
3.884899912e-05
4.071734737e-05
4.210712647e-05
4.312028849e-05
4.3844598e-05
4.435144295e-05
4.469690178e-05
4.492330065e-05
4.505511325e-05
1.885154755e-05
2.486582326e-05
3.050007047e-05
3.521679193e-05
3.891403977e-05
4.168625945e-05
4.369278035e-05
4.509688143e-05
4.604196183e-05
4.664523608e-05
4.699878283e-05
4.717341938e-05
4.722369799e-05
4.719481799e-05
4.713648569e-05
1.58443851e-05
2.025211112e-05
2.49835214e-05
2.942798246e-05
3.326465749e-05
3.639456643e-05
3.884851007e-05
4.071679829e-05
4.21065244e-05
4.311965654e-05
4.384393791e-05
4.435076493e-05
4.469621733e-05
4.492260917e-05
4.505440138e-05
1.291125649e-05
1.52757253e-05
1.816892669e-05
2.127860394e-05
2.434175571e-05
2.718463281e-05
2.971776588e-05
3.191379772e-05
3.378401606e-05
3.53598498e-05
3.668039281e-05
3.778463081e-05
3.870556539e-05
3.945896194e-05
3.999753943e-05
1.131213482e-05
1.24317933e-05
1.39512438e-05
1.578507508e-05
1.781953015e-05
1.994389158e-05
2.206736103e-05
2.412418103e-05
2.607189324e-05
2.788665726e-05
2.955790782e-05
3.108296131e-05
3.2459366e-05
3.366379188e-05
3.456741804e-05
1.128705443e-05
1.217033959e-05
1.333442709e-05
1.474785994e-05
1.635861615e-05
1.810610823e-05
1.993051364e-05
2.177861561e-05
2.360653944e-05
2.538013224e-05
2.707304524e-05
2.865997733e-05
3.009125936e-05
3.118734897e-05
1.040571173e-05
1.077074949e-05
1.133179455e-05
1.211558743e-05
1.312772758e-05
1.435363806e-05
1.576310826e-05
1.731626066e-05
1.896925504e-05
2.067882045e-05
2.240508071e-05
2.411192882e-05
2.576144758e-05
2.728668128e-05
2.84749707e-05
1.068374946e-05
1.128693477e-05
1.217024595e-05
1.333437713e-05
1.47478765e-05
1.635871798e-05
1.810631287e-05
1.99308331e-05
2.177905853e-05
2.360710842e-05
2.538082535e-05
2.707385637e-05
2.866089911e-05
3.009228975e-05
3.118846515e-05
1.129928779e-05
1.241463706e-05
1.394822141e-05
1.582588905e-05
1.793716418e-05
2.016651139e-05
2.2412984e-05
2.459881985e-05
2.667040085e-05
2.859519324e-05
3.035697533e-05
3.195035491e-05
3.337277472e-05
3.460321287e-05
3.551769397e-05
1.221053282e-05
1.404378379e-05
1.639371789e-05
1.906360923e-05
2.185522058e-05
2.460785985e-05
2.720956969e-05
2.959329909e-05
3.172726484e-05
3.360463878e-05
3.523455119e-05
3.663478475e-05
3.782436285e-05
3.880784309e-05
3.951398782e-05
1.288280372e-05
1.518822161e-05
1.797794408e-05
2.099217952e-05
2.401756282e-05
2.690373309e-05
2.955798308e-05
3.193290597e-05
3.401354203e-05
3.58064081e-05
3.733091776e-05
3.861284312e-05
3.967805586e-05
4.053972225e-05
4.114750826e-05
1.221051268e-05
1.404374193e-05
1.63936398e-05
1.906348267e-05
2.185503714e-05
2.460761177e-05
2.72092659e-05
2.95929308e-05
3.172685007e-05
3.36041801e-05
3.523405023e-05
3.663424973e-05
3.782379878e-05
3.880725492e-05
3.951337581e-05
1.129927609e-05
1.241460825e-05
1.394815484e-05
1.582576379e-05
1.793696065e-05
2.016621205e-05
2.241258472e-05
2.459831583e-05
2.666980452e-05
2.859450629e-05
3.035620472e-05
3.194950815e-05
3.337186297e-05
3.460224505e-05
3.551667181e-05
1.068375892e-05
1.128694516e-05
1.217023935e-05
1.333433016e-05
1.474776529e-05
1.635852406e-05
1.810601752e-05
1.993042752e-05
2.177853323e-05
2.360646272e-05
2.538005745e-05
2.707297116e-05
2.865990865e-05
3.009119374e-05
3.118728543e-05
1.040573617e-05
1.077078442e-05
1.133182514e-05
1.211559196e-05
1.31276841e-05
1.435352231e-05
1.576290163e-05
1.731594159e-05
1.896880868e-05
2.067823574e-05
2.240434957e-05
2.411105217e-05
2.576042225e-05
2.728551423e-05
2.847366791e-05
)
;

boundaryField
{
    top
    {
        type            zeroGradient;
    }
    bottom
    {
        type            zeroGradient;
    }
    side-walls
    {
        type            zeroGradient;
    }
    inlet
    {
        type            zeroGradient;
    }
    outlet
    {
        type            zeroGradient;
    }
    procBoundary1to0
    {
        type            processor;
        value           nonuniform List<scalar> 
97
(
1.040573547e-05
1.040573547e-05
1.068375417e-05
1.129924806e-05
1.22104161e-05
1.288262682e-05
1.221038454e-05
1.129919887e-05
1.068370363e-05
1.040568657e-05
1.032260091e-05
1.131214265e-05
1.131214265e-05
1.131214265e-05
1.291122174e-05
1.584415042e-05
1.885090947e-05
1.584399012e-05
1.291101762e-05
1.131196425e-05
1.068370587e-05
1.060502279e-05
1.132151652e-05
1.777593185e-05
1.777593185e-05
1.777593185e-05
2.939411685e-05
4.748027516e-05
2.939312376e-05
1.77749025e-05
1.291102057e-05
1.129920233e-05
1.101302725e-05
1.256779278e-05
1.792420981e-05
7.511462804e-05
7.511462804e-05
7.511462804e-05
0.0002011655568
7.510806306e-05
2.939319647e-05
1.584399343e-05
1.221038865e-05
1.129967332e-05
1.372330621e-05
2.375773399e-05
6.277359399e-05
0.001222896885
0.001222896885
0.001222896885
0.000201166591
0.000201166591
4.74803904e-05
1.885090107e-05
1.288263347e-05
1.101303738e-05
1.256780167e-05
1.792437013e-05
3.323769409e-05
6.277473828e-05
3.32371458e-05
2.939539212e-05
2.939539212e-05
2.939539212e-05
1.584434103e-05
1.221046361e-05
1.060502814e-05
1.13215383e-05
1.339236316e-05
1.792438419e-05
2.375794505e-05
1.79242864e-05
1.339231449e-05
1.291140487e-05
1.291140487e-05
1.291140487e-05
1.129929592e-05
1.032260504e-05
1.060930074e-05
1.132154151e-05
1.256781343e-05
1.372333421e-05
1.256778719e-05
1.132152387e-05
1.060929267e-05
1.068379626e-05
1.068379626e-05
1.068379626e-05
1.019333208e-05
1.032260787e-05
1.060503155e-05
1.101304083e-05
1.129967984e-05
1.101302709e-05
1.060501906e-05
1.032260186e-05
1.019333135e-05
)
;
    }
}


// ************************************************************************* //
