/*--------------------------------*- C++ -*----------------------------------*\
| =========                 |                                                 |
| \\      /  F ield         | OpenFOAM: The Open Source CFD Toolbox           |
|  \\    /   O peration     | Version:  4.x                                   |
|   \\  /    A nd           | Web:      www.OpenFOAM.org                      |
|    \\/     M anipulation  |                                                 |
\*---------------------------------------------------------------------------*/
FoamFile
{
    version     2.0;
    format      ascii;
    class       volScalarField;
    location    "8000";
    object      molarConc;
}
// * * * * * * * * * * * * * * * * * * * * * * * * * * * * * * * * * * * * * //

dimensions      [0 -3 0 0 1 0 0];

internalField   nonuniform List<scalar> 
1174
(
9.96328244
9.963281595
9.963278976
9.963276094
9.963270143
9.963265498
9.963259921
9.96325359
9.963247534
9.963241322
9.963236269
9.963230781
9.963224592
9.963220241
9.963265905
9.963261265
9.963258013
9.963252701
9.963246196
9.963240852
9.963233561
9.963226174
9.963220641
9.963215185
9.963210488
9.963203687
9.963199222
9.963195286
9.963307809
9.963301817
9.963294787
9.963286758
9.96327872
9.963270869
9.96326238
9.963253918
9.963246924
9.963240899
9.963233172
9.963227544
9.963221989
9.963219097
9.963273714
9.963265465
9.96325587
9.963246207
9.963235806
9.963225448
9.963217684
9.963210278
9.963202449
9.963196584
9.963192249
9.963189641
9.963185052
9.963183498
9.96327077
9.963261008
9.963249503
9.963237842
9.963227898
9.963218513
9.9632092
9.963202159
9.963197176
9.963192428
9.963189345
9.963185945
9.963182758
9.963180734
9.963252138
9.963244005
9.963234047
9.96322476
9.963214265
9.963207346
9.963198979
9.963190795
9.963183829
9.963177571
9.963172298
9.963168916
9.963162853
9.96315992
9.963279618
9.963272786
9.963265952
9.963257429
9.963250182
9.963241732
9.963233504
9.96322636
9.963218432
9.963211236
9.963205168
9.963200022
9.963195451
9.963191313
9.963284935
9.963281634
9.963276349
9.963271894
9.963264869
9.963258493
9.963252532
9.963245963
9.963239244
9.963231705
9.963227587
9.963221752
9.963215082
9.963212055
9.963277352
9.963275971
9.963272944
9.963270062
9.963266049
9.963261451
9.963255365
9.963248991
9.963243104
9.963236914
9.96323138
9.963225244
9.963220897
9.963216483
9.963248486
9.963244898
9.963240284
9.963236718
9.963232795
9.963227021
9.963221412
9.963214864
9.963208702
9.963201728
9.963195706
9.96318921
9.963183983
9.963178346
9.963174498
9.963258986
9.963253767
9.963247879
9.963238891
9.963230306
9.963222889
9.963213436
9.963207446
9.963200532
9.963195633
9.963191031
9.963186655
9.963180973
9.963177733
9.963258556
9.963248482
9.96323696
9.96322729
9.963217276
9.963207608
9.963198545
9.963191397
9.963186231
9.963183438
9.963178565
9.963175366
9.96317199
9.963169155
9.96324794
9.963231572
9.963215644
9.963201348
9.963189918
9.963179689
9.963171393
9.963166804
9.963163331
9.963160525
9.963158051
9.963157303
9.963157708
9.963158168
9.963163299
9.963144283
9.963126185
9.96311259
9.963102264
9.963094927
9.963089699
9.963086478
9.963085168
9.96308353
9.963084119
9.963084532
9.963084894
9.963083791
9.963212786
9.963195259
9.963179023
9.963164283
9.963152441
9.963143329
9.963136813
9.963131516
9.963127539
9.963124116
9.963122968
9.963121623
9.963121477
9.963118096
9.963247265
9.963236344
9.963224897
9.963213857
9.963202367
9.963192752
9.963184894
9.963177331
9.963170633
9.963167031
9.963163231
9.963160074
9.963158589
9.963156536
9.963266181
9.963260372
9.963253075
9.96324702
9.963239635
9.963231771
9.963223235
9.963216412
9.963209997
9.963205516
9.963199197
9.96319367
9.96319052
9.963187522
9.963248614
9.963245971
9.963241637
9.963235909
9.963230465
9.963224733
9.963218887
9.963212
9.963205574
9.963199496
9.963192616
9.963186179
9.963181424
9.963177441
9.963293453
9.963289665
9.963286248
9.963280133
9.963271424
9.963263064
9.963255857
9.963246597
9.963240137
9.963233206
9.963226369
9.963221377
9.96321569
9.963212178
9.963208742
9.963272702
9.963266022
9.963255141
9.96324187
9.963233288
9.963223695
9.96321345
9.96320708
9.963200176
9.963194521
9.963188964
9.963184431
9.963181314
9.963178856
9.963177974
9.963189067
9.963166142
9.963147332
9.963131803
9.963120791
9.963110953
9.963105108
9.963102133
9.963100314
9.963098881
9.963099441
9.963098892
9.963100317
9.96310054
9.963194074
9.963156673
9.963131782
9.963117244
9.963111415
9.963109413
9.963111885
9.963116664
9.963122289
9.963127242
9.963132
9.963138888
9.963142436
9.963145628
9.963039333
9.963004703
9.962990333
9.962989166
9.962994791
9.963003872
9.963013543
9.96302596
9.963035583
9.963046264
9.963054793
9.963062548
9.963068143
9.963071613
9.963195377
9.963157655
9.963132981
9.963119182
9.963114943
9.963113478
9.963115432
9.963120611
9.963124566
9.963128319
9.963134022
9.963139085
9.963143713
9.963148444
9.963295579
9.963273554
9.96325571
9.963239596
9.963229047
9.963219596
9.963216003
9.963212738
9.963211493
9.963210906
9.963212163
9.963212675
9.963213869
9.96321181
9.963227619
9.963216882
9.96320475
9.963194085
9.963183539
9.963173135
9.96316328
9.963156625
9.963150537
9.963145211
9.963140817
9.963135761
9.96313141
9.963130122
9.963269789
9.963264831
9.96325882
9.963252843
9.963244321
9.963235354
9.963228377
9.963220978
9.963213093
9.963205335
9.963200834
9.963196292
9.963190445
9.963187895
9.963314666
9.963308417
9.96329888
9.963289859
9.963281006
9.963269729
9.96326066
9.963253086
9.963243821
9.963237357
9.963231754
9.963226153
9.963222279
9.963219012
9.963215214
9.963218851
9.963202108
9.963184253
9.963166416
9.963153463
9.963141939
9.963131738
9.963124041
9.963119539
9.963114642
9.963112838
9.963110768
9.963108545
9.963107167
9.963106363
9.963157236
9.963112382
9.963076697
9.963053137
9.963040433
9.963034232
9.963032805
9.963034955
9.963038572
9.963042307
9.963048257
9.963053223
9.963056668
9.963059889
9.963062528
9.962848585
9.962804108
9.962798825
9.962813306
9.962837452
9.962861917
9.962887049
9.962909212
9.962928047
9.962944724
9.962960814
9.962973028
9.962984309
9.962991166
9.962519805
9.962579676
9.962668885
9.962754806
9.962826568
9.962884887
9.962931698
9.962969229
9.963000442
9.963024704
9.963045436
9.963062158
9.963076993
9.963087026
9.962994133
9.962951469
9.962946941
9.962961318
9.962983865
9.963009149
9.963032419
9.963053487
9.963074873
9.963092406
9.963108497
9.963120956
9.963129793
9.963138961
9.963122433
9.963085297
9.963062443
9.963048225
9.963042088
9.963040821
9.963042977
9.963047618
9.963054421
9.963059367
9.963065072
9.963069639
9.963074621
9.963078347
9.963253036
9.963234542
9.963217918
9.963204188
9.96319256
9.963184129
9.963175455
9.96317174
9.963167427
9.963164712
9.963161861
9.963161462
9.963161531
9.963161234
9.963247067
9.963238909
9.963228874
9.963218326
9.963208185
9.963199097
9.963190309
9.963182705
9.963175954
9.963169824
9.963163619
9.963158456
9.96315478
9.963153016
9.963279414
9.963271035
9.963261813
9.963250685
9.963239037
9.963229637
9.963220024
9.963211011
9.963203594
9.96319608
9.963190751
9.963187372
9.963184319
9.963181676
9.963179831
9.963222172
9.963200301
9.96317954
9.963161278
9.963147088
9.963135882
9.963128688
9.963122581
9.963118554
9.963115307
9.96311307
9.963111785
9.963110805
9.963112175
9.963111975
9.96313693
9.963072509
9.963037488
9.963023184
9.963020826
9.963025636
9.963033373
9.963043434
9.963054291
9.963065148
9.963074732
9.963083144
9.963089523
9.963095965
9.963101269
9.962609847
9.962539364
9.962602225
9.962692241
9.962777777
9.962848528
9.962906337
9.962951793
9.96299022
9.963021148
9.963044663
9.963066402
9.96308243
9.963096426
9.96310536
9.993623312
9.994595418
9.995139881
9.995466662
9.995677718
9.995824371
9.995933537
9.996017678
9.996086015
9.996144845
9.996195682
9.996242685
9.996285645
9.996323962
9.962542805
9.962606221
9.962696288
9.962781347
9.962852424
9.962910066
9.962957254
9.962993567
9.963024358
9.963047995
9.96306758
9.963087008
9.963100519
9.963110889
9.963116845
9.963081128
9.963066751
9.963065746
9.963070872
9.963078627
9.963088408
9.963098674
9.963107438
9.963116094
9.963123887
9.963132103
9.963136768
9.963143377
9.963265133
9.963242724
9.963225286
9.963212172
9.963202381
9.963194859
9.963190617
9.963186332
9.9631844
9.963182115
9.963180926
9.963180051
9.963180578
9.963180867
9.963265954
9.963256777
9.963245226
9.963234078
9.963222686
9.963213336
9.963204928
9.963199574
9.963192286
9.963186088
9.963180148
9.96317717
9.963174269
9.963173696
9.963220788
9.963214684
9.963205755
9.963196237
9.963186554
9.963176636
9.963167155
9.963158887
9.963150683
9.963146213
9.963139884
9.96313522
9.963131815
9.963126825
9.963124758
9.963259742
9.963243975
9.963227172
9.963209839
9.963195718
9.963181772
9.963173481
9.963168093
9.963163999
9.963160407
9.963157599
9.963155741
9.963152908
9.963153243
9.963150975
9.96319065
9.963146057
9.963111245
9.963087103
9.963072287
9.963066645
9.963065906
9.963068532
9.963072696
9.96307678
9.963082755
9.963090346
9.96309536
9.963099539
9.963102022
9.9630559
9.962954147
9.96291003
9.96290437
9.962918288
9.962941714
9.962967349
9.962992398
9.963013397
9.963032652
9.963049796
9.963065169
9.963078627
9.963088467
9.963095041
9.962564497
9.962492371
9.962553499
9.962644208
9.96272891
9.962800566
9.962856587
9.962902954
9.962940089
9.962971592
9.962996183
9.963016601
9.963034731
9.963047192
9.96305727
9.962977244
9.962876082
9.962832792
9.962826633
9.962843354
9.962866649
9.962892947
9.962918244
9.962941235
9.962959261
9.962977351
9.96299123
9.963004506
9.963015395
9.963025204
9.963149928
9.963113319
9.963088766
9.963074979
9.963067734
9.963065935
9.963069529
9.96307454
9.963080842
9.96308546
9.963090821
9.963095392
9.96309854
9.963105798
9.963252416
9.963236121
9.963219604
9.96320586
9.963194186
9.963186063
9.963180345
9.963176107
9.963173013
9.963171597
9.963168699
9.96316744
9.963167303
9.963165816
9.963255562
9.963246669
9.963236325
9.963226402
9.963216875
9.963207595
9.963199609
9.963190983
9.963184566
9.96317852
9.963173232
9.963169094
9.963165055
9.963161335
9.963298111
9.963293643
9.963287846
9.963280171
9.963272906
9.963264229
9.963255187
9.963245452
9.963238596
9.963231228
9.963224109
9.963217337
9.963211438
9.963206896
9.963202933
9.963254298
9.963244915
9.963233115
9.963222063
9.963211182
9.963199513
9.963191347
9.963182978
9.963176398
9.96317061
9.963165771
9.963163074
9.963161296
9.963158352
9.963154897
9.963286048
9.963264176
9.963242202
9.963222138
9.963206399
9.963195612
9.963187841
9.963180668
9.963177025
9.963176035
9.96317543
9.963174852
9.963174685
9.963175046
9.963175584
9.963241835
9.963197898
9.963161391
9.9631351
9.963120575
9.963114562
9.963115291
9.963117997
9.963122019
9.963127457
9.963133057
9.96313755
9.96314171
9.963146621
9.963150241
9.963081422
9.963018333
9.96298322
9.962968891
9.962968002
9.962972451
9.962981847
9.962992891
9.963004818
9.963013939
9.963023861
9.963031551
9.96303825
9.963045372
9.963050138
9.963213962
9.963168324
9.963130953
9.963105898
9.963092172
9.963085926
9.963085463
9.963086979
9.963092287
9.963096294
9.963100955
9.963107128
9.963111529
9.963116891
9.963119934
9.963254571
9.963231776
9.963211052
9.963191881
9.963174927
9.963163651
9.963156535
9.963151652
9.963147466
9.963145884
9.963145084
9.963145314
9.963145115
9.963146937
9.963146921
9.963242266
9.963231207
9.963219725
9.96320749
9.963196325
9.963186255
9.963178345
9.963171454
9.963166302
9.963162569
9.963159095
9.963155617
9.963152435
9.963151854
9.963274908
9.963270601
9.963264585
9.963257458
9.963249251
9.963242253
9.96323399
9.963226668
9.963218285
9.963212513
9.963207611
9.963203301
9.963198934
9.963196157
9.963290122
9.963286754
9.963284194
9.963279501
9.963274684
9.96326958
9.963262254
9.963255995
9.96324777
9.963240892
9.963232182
9.963225669
9.963220067
9.963215109
9.96321078
9.963288201
9.963284093
9.96327846
9.96327411
9.963265157
9.963258755
9.963250172
9.963242735
9.963234521
9.963228208
9.96322347
9.963217667
9.963211968
9.963207327
9.963203119
9.963235339
9.963227482
9.963217715
9.96320638
9.963194961
9.963183963
9.963174176
9.963165535
9.96315927
9.963154863
9.963151316
9.963147286
9.963144439
9.963142131
9.963140211
9.963217844
9.963201754
9.963184291
9.963169803
9.963156055
9.963144677
9.963135991
9.963129725
9.963124589
9.963121318
9.963118462
9.963119109
9.963116733
9.963115
9.963115673
9.963247933
9.963225868
9.96320481
9.963185791
9.963172555
9.963161648
9.963153698
9.963150541
9.963147228
9.963145145
9.963144791
9.963143369
9.963142041
9.963142575
9.963142292
9.9632107
9.963194922
9.963177995
9.963162441
9.963147552
9.963135965
9.963127608
9.963118802
9.963113819
9.963110889
9.963108037
9.963105903
9.963103651
9.963101843
9.963101979
9.963292171
9.963283091
9.963271748
9.963259614
9.963247512
9.963237245
9.963227076
9.963217674
9.963211636
9.963206546
9.963202732
9.963198707
9.963194555
9.963192128
9.963191078
9.963290128
9.963285666
9.963279764
9.963275353
9.963268348
9.963261878
9.963253934
9.96324707
9.963239185
9.963231902
9.963226378
9.963220247
9.963214128
9.963210215
9.963208307
9.963253702
9.963250259
9.963246527
9.963242
9.963236112
9.963229706
9.963222209
9.963216296
9.963208647
9.963201802
9.963197083
9.963192356
9.963187729
9.963184783
9.96329226
9.963291422
9.963288886
9.963286137
9.963282661
9.96327875
9.963272984
9.963266365
9.963260282
9.963254453
9.963248012
9.963242442
9.963237036
9.963231304
9.963226635
9.96327648
9.963274194
9.963270799
9.963266096
9.963260675
9.963255326
9.963248454
9.963241988
9.963236368
9.963230848
9.963225846
9.963219141
9.963213237
9.963208977
9.963203262
9.963266831
9.96326353
9.9632574
9.963250621
9.963242184
9.963236553
9.963227987
9.96322054
9.963212554
9.963204855
9.963198668
9.963193158
9.963185955
9.963181948
9.963179201
9.963256494
9.963249067
9.963239845
9.963229991
9.96321944
9.963208664
9.963198329
9.963190057
9.963181477
9.963173112
9.963168291
9.963163204
9.963158643
9.963154812
9.96315133
9.963286801
9.963279722
9.96326952
9.96325857
9.96324875
9.963239363
9.963230151
9.963220735
9.963212803
9.963206779
9.963199873
9.963195311
9.963192194
9.963188864
9.96318443
9.963285609
9.963278726
9.963268658
9.963259645
9.963248528
9.963238767
9.963228613
9.963219825
9.963212102
9.963204196
9.963199899
9.963193978
9.963190196
9.963186115
9.963183951
9.963349373
9.963344263
9.963337533
9.963331252
9.96332348
9.963314753
9.963306274
9.963296542
9.963290306
9.963282952
9.963276714
9.963269625
9.963265422
9.96326083
9.963256248
9.963272087
9.963269868
9.963266916
9.963263449
9.963259383
9.963252785
9.963247252
9.963241436
9.963234408
9.963227665
9.963221956
9.963215541
9.963209649
9.963205364
9.963202198
9.963265464
9.963263779
9.963261844
9.96325877
9.963255735
9.963251956
9.963246866
9.963241023
9.963234781
9.96322917
9.963223007
9.963217277
9.963210793
9.963204598
9.963200377
)
;

boundaryField
{
    top
    {
        type            calculated;
        value           nonuniform List<scalar> 
127
(
9.963265464
9.963277352
9.963248614
9.963269789
9.963247067
9.963265954
9.963255562
9.963274908
9.963253702
9.963263779
9.963275971
9.963245971
9.963264831
9.963238909
9.963256777
9.963246669
9.963270601
9.963250259
9.963261844
9.963272944
9.963241637
9.96325882
9.963228874
9.963245226
9.963236325
9.963264585
9.963246527
9.96325877
9.963270062
9.963235909
9.963252843
9.963218326
9.963234078
9.963226402
9.963257458
9.963242
9.963255735
9.963266049
9.963230465
9.963244321
9.963208185
9.963222686
9.963216875
9.963249251
9.963236112
9.963251956
9.963261451
9.963224733
9.963235354
9.963199097
9.963213336
9.963207595
9.963242253
9.963229706
9.963246866
9.963255365
9.963218887
9.963228377
9.963190309
9.963204928
9.963199609
9.96323399
9.963222209
9.963241023
9.963248991
9.963212
9.963220978
9.963182705
9.963199574
9.963190983
9.963226668
9.963216296
9.963234781
9.963243104
9.963205574
9.963213093
9.963175954
9.963192286
9.963184566
9.963218285
9.963208647
9.96322917
9.963236914
9.963199496
9.963205335
9.963169824
9.963186088
9.96317852
9.963212513
9.963201802
9.963223007
9.96323138
9.963192616
9.963200834
9.963163619
9.963180148
9.963173232
9.963207611
9.963197083
9.963217277
9.963225244
9.963186179
9.963196292
9.963158456
9.96317717
9.963169094
9.963203301
9.963192356
9.963210793
9.963220897
9.963181424
9.963190445
9.96315478
9.963174269
9.963165055
9.963198934
9.963187729
9.963204598
9.963216483
9.963177441
9.963187895
9.963153016
9.963173696
9.963161335
9.963196157
9.963184783
9.963200377
)
;
    }
    bottom
    {
        type            calculated;
        value           nonuniform List<scalar> 
134
(
9.963248486
9.963293453
9.963314666
9.963279414
9.963220788
9.963298111
9.963290122
9.96329226
9.96328244
9.963244898
9.963289665
9.963308417
9.963271035
9.963214684
9.963293643
9.963286754
9.963291422
9.963281595
9.963240284
9.963286248
9.96329888
9.963261813
9.963205755
9.963287846
9.963284194
9.963288886
9.963278976
9.963236718
9.963280133
9.963289859
9.963250685
9.963196237
9.963280171
9.963279501
9.963286137
9.963276094
9.963232795
9.963271424
9.963281006
9.963239037
9.963186554
9.963272906
9.963274684
9.963282661
9.963270143
9.963227021
9.963263064
9.963269729
9.963229637
9.963176636
9.963264229
9.96326958
9.96327875
9.963265498
9.963221412
9.963255857
9.96326066
9.963220024
9.963167155
9.963255187
9.963262254
9.963272984
9.963259921
9.963214864
9.963246597
9.963253086
9.963211011
9.963158887
9.963245452
9.963255995
9.963266365
9.96325359
9.963208702
9.963240137
9.963243821
9.963203594
9.963150683
9.963238596
9.96324777
9.963260282
9.963247534
9.963201728
9.963233206
9.963237357
9.96319608
9.963146213
9.963231228
9.963240892
9.963254453
9.963241322
9.963195706
9.963226369
9.963231754
9.963190751
9.963139884
9.963224109
9.963232182
9.963248012
9.963236269
9.96318921
9.963221377
9.963226153
9.963187372
9.96313522
9.963217337
9.963225669
9.963242442
9.963230781
9.963183983
9.96321569
9.963222279
9.963184319
9.963131815
9.963211438
9.963220067
9.963237036
9.963224592
9.963178346
9.963212178
9.963219012
9.963181676
9.963126825
9.963206896
9.963215109
9.963231304
9.963220241
9.963174498
9.963208742
9.963215214
9.963179831
9.963124758
9.963202933
9.96321078
9.963226635
)
;
    }
    side-walls
    {
        type            calculated;
        value           nonuniform List<scalar> 
261
(
9.96328244
9.963265905
9.963307809
9.963273714
9.96327077
9.963252138
9.963279618
9.963284935
9.963277352
9.963281595
9.963261265
9.963301817
9.963265465
9.963261008
9.963244005
9.963272786
9.963281634
9.963275971
9.963278976
9.963258013
9.963294787
9.96325587
9.963249503
9.963234047
9.963265952
9.963276349
9.963272944
9.963276094
9.963252701
9.963286758
9.963246207
9.963237842
9.96322476
9.963257429
9.963271894
9.963270062
9.963270143
9.963246196
9.96327872
9.963235806
9.963227898
9.963214265
9.963250182
9.963264869
9.963266049
9.963265498
9.963240852
9.963270869
9.963225448
9.963218513
9.963207346
9.963241732
9.963258493
9.963261451
9.963259921
9.963233561
9.96326238
9.963217684
9.9632092
9.963198979
9.963233504
9.963252532
9.963255365
9.96325359
9.963226174
9.963253918
9.963210278
9.963202159
9.963190795
9.96322636
9.963245963
9.963248991
9.963247534
9.963220641
9.963246924
9.963202449
9.963197176
9.963183829
9.963218432
9.963239244
9.963243104
9.963241322
9.963215185
9.963240899
9.963196584
9.963192428
9.963177571
9.963211236
9.963231705
9.963236914
9.963236269
9.963210488
9.963233172
9.963192249
9.963189345
9.963172298
9.963205168
9.963227587
9.96323138
9.963230781
9.963203687
9.963227544
9.963189641
9.963185945
9.963168916
9.963200022
9.963221752
9.963225244
9.963224592
9.963199222
9.963221989
9.963185052
9.963182758
9.963162853
9.963195451
9.963215082
9.963220897
9.963220241
9.963195286
9.963219097
9.963183498
9.963180734
9.96315992
9.963191313
9.963212055
9.963216483
9.96329226
9.96327648
9.963266831
9.963256494
9.963286801
9.963285609
9.963349373
9.963272087
9.963265464
9.963291422
9.963274194
9.96326353
9.963249067
9.963279722
9.963278726
9.963344263
9.963269868
9.963263779
9.963288886
9.963270799
9.9632574
9.963239845
9.96326952
9.963268658
9.963337533
9.963266916
9.963261844
9.963286137
9.963266096
9.963250621
9.963229991
9.96325857
9.963259645
9.963331252
9.963263449
9.96325877
9.963282661
9.963260675
9.963242184
9.96321944
9.96324875
9.963248528
9.96332348
9.963259383
9.963255735
9.96327875
9.963255326
9.963236553
9.963208664
9.963239363
9.963238767
9.963314753
9.963252785
9.963251956
9.963272984
9.963248454
9.963227987
9.963198329
9.963230151
9.963228613
9.963306274
9.963247252
9.963246866
9.963266365
9.963241988
9.96322054
9.963190057
9.963220735
9.963219825
9.963296542
9.963241436
9.963241023
9.963260282
9.963236368
9.963212554
9.963181477
9.963212803
9.963212102
9.963290306
9.963234408
9.963234781
9.963254453
9.963230848
9.963204855
9.963173112
9.963206779
9.963204196
9.963282952
9.963227665
9.96322917
9.963248012
9.963225846
9.963198668
9.963168291
9.963199873
9.963199899
9.963276714
9.963221956
9.963223007
9.963242442
9.963219141
9.963193158
9.963163204
9.963195311
9.963193978
9.963269625
9.963215541
9.963217277
9.963237036
9.963213237
9.963185955
9.963158643
9.963192194
9.963190196
9.963265422
9.963209649
9.963210793
9.963231304
9.963208977
9.963181948
9.963154812
9.963188864
9.963186115
9.96326083
9.963205364
9.963204598
9.963226635
9.963203262
9.963179201
9.96315133
9.96318443
9.963183951
9.963256248
9.963202198
9.963200377
)
;
    }
    inlet
    {
        type            calculated;
        value           nonuniform 0();
    }
    outlet
    {
        type            calculated;
        value           nonuniform List<scalar> 
81
(
9.963220241
9.963195286
9.963219097
9.963183498
9.963180734
9.96315992
9.963191313
9.963212055
9.963216483
9.963174498
9.963177733
9.963169155
9.963158168
9.963083791
9.963118096
9.963156536
9.963187522
9.963177441
9.963208742
9.963177974
9.96310054
9.963145628
9.963071613
9.963148444
9.96321181
9.963130122
9.963187895
9.963215214
9.963106363
9.963062528
9.962991166
9.963087026
9.963138961
9.963078347
9.963161234
9.963153016
9.963179831
9.963111975
9.963101269
9.96310536
9.996323962
9.963110889
9.963143377
9.963180867
9.963173696
9.963124758
9.963150975
9.963102022
9.963095041
9.96305727
9.963025204
9.963105798
9.963165816
9.963161335
9.963202933
9.963154897
9.963175584
9.963150241
9.963050138
9.963119934
9.963146921
9.963151854
9.963196157
9.96321078
9.963203119
9.963140211
9.963115673
9.963142292
9.963101979
9.963191078
9.963208307
9.963184783
9.963226635
9.963203262
9.963179201
9.96315133
9.96318443
9.963183951
9.963256248
9.963202198
9.963200377
)
;
    }
    procBoundary1to0
    {
        type            processor;
        value           nonuniform List<scalar> 
97
(
9.963282171
9.963282171
9.963267828
9.963308938
9.963282955
9.963277562
9.96325947
9.963283568
9.963287464
9.963279521
9.963250024
9.963264283
9.963264283
9.963264283
9.963266307
9.963263689
9.963185806
9.963227951
9.963255771
9.96327077
9.963250668
9.963295955
9.96328014
9.963211338
9.963211338
9.963211338
9.963236862
9.963103347
9.963240657
9.963318524
9.96323602
9.963272055
9.963318749
9.963231268
9.96319868
9.962950196
9.962950196
9.962950196
9.962589413
9.963094838
9.963167585
9.963267682
9.963255245
9.963285167
9.96324153
9.963222897
9.963098249
9.991806065
9.991806065
9.991806065
9.962614048
9.962614048
9.96317991
9.9632869
9.96327495
9.963226263
9.963271054
9.963232167
9.963210477
9.963055031
9.963130159
9.963193736
9.963193736
9.963193736
9.963269279
9.963261979
9.963300492
9.963260787
9.963301429
9.963283434
9.963167408
9.963255276
9.963271432
9.963249729
9.963249729
9.963249729
9.963279748
9.963291461
9.963290453
9.963240722
9.96322853
9.963266603
9.963222712
9.963297599
9.963293438
9.963255643
9.963255643
9.963255643
9.963293312
9.963277586
9.963268896
9.963260429
9.963292423
9.963288741
9.963351125
9.963273209
9.963267644
)
;
    }
}


// ************************************************************************* //
