/*--------------------------------*- C++ -*----------------------------------*\
| =========                 |                                                 |
| \\      /  F ield         | OpenFOAM: The Open Source CFD Toolbox           |
|  \\    /   O peration     | Version:  4.x                                   |
|   \\  /    A nd           | Web:      www.OpenFOAM.org                      |
|    \\/     M anipulation  |                                                 |
\*---------------------------------------------------------------------------*/
FoamFile
{
    version     2.0;
    format      ascii;
    class       volScalarField;
    location    "8000";
    object      N2;
}
// * * * * * * * * * * * * * * * * * * * * * * * * * * * * * * * * * * * * * //

dimensions      [0 0 0 0 0 0 0];

internalField   nonuniform List<scalar> 
1174
(
0.6203623958
0.6203617918
0.620360948
0.6203598583
0.6203585385
0.620357021
0.6203553488
0.620353569
0.6203517283
0.6203498695
0.6203480316
0.6203462553
0.6203446129
0.6203433332
0.6203618401
0.6203608892
0.620359636
0.6203581142
0.62035638
0.6203544984
0.620352534
0.620350544
0.6203485757
0.6203466658
0.6203448427
0.6203431337
0.6203415922
0.6203404116
0.6203606262
0.6203589753
0.6203569538
0.6203546809
0.6203522807
0.620349862
0.6203475086
0.620345278
0.6203432055
0.6203413083
0.6203395924
0.6203380606
0.6203367353
0.6203357503
0.6203588725
0.6203563427
0.6203534684
0.6203504629
0.6203474994
0.6203446982
0.6203421315
0.6203398337
0.6203378121
0.6203360569
0.6203345489
0.6203332676
0.6203322082
0.6203314474
0.6203576406
0.6203546373
0.6203513922
0.620348135
0.6203450276
0.6203421698
0.6203396126
0.6203373722
0.6203354415
0.6203337997
0.620332419
0.6203312716
0.6203303433
0.6203296884
0.6203588725
0.6203563428
0.6203534685
0.620350463
0.6203474995
0.6203446983
0.6203421317
0.6203398339
0.6203378123
0.6203360571
0.6203345491
0.6203332678
0.6203322085
0.6203314477
0.6203606263
0.6203589753
0.6203569539
0.620354681
0.6203522809
0.6203498622
0.6203475088
0.6203452783
0.6203432058
0.6203413087
0.6203395928
0.620338061
0.6203367358
0.6203357508
0.6203618402
0.6203608893
0.620359636
0.6203581143
0.6203563801
0.6203544986
0.6203525342
0.6203505443
0.620348576
0.6203466662
0.6203448431
0.6203431341
0.6203415927
0.6203404122
0.6203623958
0.6203617918
0.620360948
0.6203598584
0.6203585386
0.6203570212
0.620355349
0.6203535693
0.6203517286
0.6203498699
0.620348032
0.6203462558
0.6203446134
0.6203433338
0.6203624895
0.6203618402
0.6203608892
0.620359636
0.6203581142
0.62035638
0.6203544984
0.620352534
0.620350544
0.6203485757
0.6203466658
0.6203448427
0.6203431337
0.6203415922
0.6203404116
0.6203606078
0.620358972
0.6203569978
0.6203548074
0.6203525202
0.6203502339
0.6203480192
0.6203459219
0.6203439677
0.620342168
0.6203405256
0.6203390432
0.6203377459
0.6203367726
0.6203575463
0.6203544317
0.6203510839
0.620347786
0.6203447252
0.6203419977
0.6203396331
0.6203376191
0.6203359221
0.6203344999
0.6203333105
0.6203323184
0.6203315067
0.6203309263
0.6203521894
0.6203470959
0.6203423111
0.6203381804
0.6203348104
0.6203321681
0.6203301562
0.6203286595
0.6203275682
0.6203267878
0.6203262415
0.620325869
0.6203256246
0.6203254822
0.6203472232
0.6203411577
0.6203360797
0.6203320991
0.6203291141
0.6203269534
0.6203254413
0.6203244232
0.6203237731
0.6203233918
0.6203232031
0.6203231483
0.6203231788
0.620323241
0.6203521896
0.6203470961
0.6203423113
0.6203381806
0.6203348107
0.6203321684
0.6203301566
0.6203286598
0.6203275685
0.6203267881
0.6203262419
0.6203258693
0.620325625
0.6203254825
0.6203575465
0.6203544319
0.6203510841
0.6203477863
0.6203447255
0.6203419981
0.6203396335
0.6203376196
0.6203359226
0.6203345004
0.620333311
0.620332319
0.6203315073
0.620330927
0.6203606079
0.6203589722
0.6203569979
0.6203548076
0.6203525204
0.6203502341
0.6203480195
0.6203459223
0.6203439682
0.6203421685
0.6203405262
0.6203390438
0.6203377466
0.6203367733
0.6203618402
0.6203608893
0.620359636
0.6203581143
0.6203563801
0.6203544986
0.6203525343
0.6203505444
0.6203485761
0.6203466663
0.6203448433
0.6203431343
0.6203415929
0.6203404124
0.620361827
0.6203606263
0.6203589753
0.6203569539
0.6203546809
0.6203522808
0.6203498621
0.6203475086
0.6203452781
0.6203432055
0.6203413084
0.6203395925
0.6203380606
0.6203367354
0.6203357504
0.6203600917
0.6203575464
0.6203544317
0.6203510839
0.6203477861
0.6203447252
0.6203419977
0.6203396331
0.6203376192
0.6203359221
0.6203344999
0.6203333105
0.6203323184
0.6203315067
0.6203309264
0.6203486447
0.6203422212
0.6203364873
0.6203318553
0.6203283846
0.6203259463
0.6203243409
0.620323365
0.6203228421
0.6203226314
0.6203226265
0.6203227485
0.6203229347
0.6203231115
0.6203291628
0.6203185505
0.6203113912
0.620307299
0.6203055024
0.620305254
0.6203059649
0.620307217
0.6203087321
0.6203103337
0.6203119141
0.6203134054
0.6203147422
0.6203157566
0.6203040878
0.6202937768
0.6202895761
0.6202890888
0.6202906401
0.6202931942
0.6202961475
0.6202991635
0.6203020629
0.6203047575
0.6203072093
0.6203094012
0.6203112959
0.6203127024
0.6203291635
0.6203185512
0.6203113919
0.6203072997
0.6203055031
0.6203052546
0.6203059655
0.6203072177
0.6203087327
0.6203103343
0.6203119146
0.620313406
0.6203147427
0.6203157571
0.6203486453
0.6203422217
0.6203364879
0.620331856
0.6203283853
0.6203259471
0.6203243417
0.6203233658
0.6203228429
0.6203226322
0.6203226273
0.6203227493
0.6203229355
0.6203231124
0.6203575465
0.6203544319
0.6203510842
0.6203477864
0.6203447256
0.6203419983
0.6203396337
0.6203376199
0.6203359229
0.6203345007
0.6203333114
0.6203323193
0.6203315077
0.6203309273
0.6203606263
0.6203589753
0.620356954
0.6203546811
0.620352281
0.6203498624
0.620347509
0.6203452786
0.6203432061
0.6203413091
0.6203395933
0.6203380615
0.6203367363
0.6203357514
0.6203608461
0.6203588726
0.6203563428
0.6203534685
0.6203504631
0.6203474995
0.6203446983
0.6203421317
0.6203398339
0.6203378123
0.620336057
0.620334549
0.6203332677
0.6203322083
0.6203314476
0.6203569345
0.6203521896
0.620347096
0.6203423112
0.6203381805
0.6203348106
0.6203321682
0.6203301564
0.6203286596
0.6203275683
0.6203267879
0.6203262416
0.6203258691
0.6203256247
0.6203254823
0.6203423484
0.6203291631
0.6203185507
0.6203113913
0.6203072991
0.6203055026
0.6203052541
0.620305965
0.6203072172
0.6203087322
0.6203103338
0.6203119142
0.6203134055
0.6203147423
0.6203157567
0.6202633219
0.6202505997
0.6202490686
0.6202534407
0.6202603372
0.6202678949
0.6202751956
0.6202818475
0.6202877301
0.6202928518
0.6202972734
0.6203010615
0.6203042287
0.6203065273
0.6201362884
0.6201543802
0.6201808476
0.6202058177
0.6202268307
0.6202438561
0.6202575195
0.6202685118
0.6202774213
0.6202847079
0.6202907178
0.6202956972
0.6202997614
0.6203026663
0.6202633243
0.6202506014
0.6202490701
0.620253442
0.6202603383
0.620267896
0.6202751966
0.6202818483
0.6202877309
0.6202928525
0.6202972741
0.6203010622
0.6203042293
0.6203065279
0.6203291635
0.6203185513
0.6203113922
0.6203073002
0.6203055037
0.6203052553
0.6203059662
0.6203072183
0.6203087334
0.620310335
0.6203119153
0.6203134066
0.6203147433
0.6203157577
0.6203521896
0.6203470962
0.6203423115
0.620338181
0.6203348112
0.620332169
0.6203301573
0.6203286606
0.6203275693
0.620326789
0.6203262427
0.6203258702
0.6203256259
0.6203254834
0.6203588726
0.6203563428
0.6203534686
0.6203504633
0.6203474998
0.6203446988
0.6203421323
0.6203398346
0.6203378131
0.6203360579
0.62033455
0.6203332688
0.6203322095
0.6203314488
0.6203601225
0.6203576407
0.6203546375
0.6203513924
0.6203481352
0.6203450278
0.62034217
0.6203396128
0.6203373724
0.6203354417
0.6203337999
0.6203324192
0.6203312718
0.6203303435
0.6203296886
0.6203536978
0.6203472235
0.620341158
0.62033608
0.6203320994
0.6203291144
0.6203269537
0.6203254415
0.6203244234
0.6203237733
0.620323392
0.6203232033
0.6203231485
0.620323179
0.6203232412
0.6203228786
0.6203040884
0.6202937775
0.6202895767
0.6202890893
0.6202906405
0.6202931945
0.6202961478
0.6202991637
0.6203020631
0.6203047577
0.6203072095
0.6203094013
0.620311296
0.6203127026
0.6201574338
0.6201362903
0.6201543814
0.6201808483
0.6202058182
0.6202268311
0.6202438563
0.6202575197
0.620268512
0.6202774215
0.620284708
0.6202907179
0.6202956973
0.6202997615
0.6203026664
0.6195961168
0.6198756013
0.6200290987
0.6201183951
0.6201734589
0.6202093775
0.6202340478
0.6202517755
0.6202650083
0.6202751975
0.6202832369
0.6202896836
0.6202948231
0.6202984429
0.6201362885
0.6201543822
0.6201808498
0.6202058199
0.6202268326
0.6202438577
0.6202575209
0.6202685131
0.6202774225
0.6202847089
0.6202907188
0.6202956981
0.6202997622
0.6203026671
0.6203040879
0.6202937777
0.6202895775
0.6202890905
0.6202906419
0.6202931959
0.6202961492
0.6202991651
0.6203020644
0.620304759
0.6203072107
0.6203094026
0.6203112972
0.6203127037
0.6203472233
0.620341158
0.6203360803
0.6203320999
0.6203291152
0.6203269547
0.6203254426
0.6203244246
0.6203237745
0.6203233932
0.6203232046
0.6203231498
0.6203231802
0.6203232425
0.6203576406
0.6203546374
0.6203513925
0.6203481355
0.6203450282
0.6203421706
0.6203396135
0.6203373732
0.6203354427
0.620333801
0.6203324203
0.620331273
0.6203303448
0.62032969
0.6203608461
0.6203588726
0.6203563429
0.6203534686
0.6203504632
0.6203474997
0.6203446985
0.6203421319
0.6203398341
0.6203378125
0.6203360573
0.6203345493
0.620333268
0.6203322087
0.6203314479
0.6203569347
0.6203521898
0.6203470963
0.6203423116
0.6203381809
0.620334811
0.6203321687
0.6203301568
0.6203286601
0.6203275688
0.6203267884
0.6203262421
0.6203258695
0.6203256252
0.6203254827
0.6203423493
0.6203291641
0.6203185517
0.6203113924
0.6203073001
0.6203055035
0.620305255
0.6203059659
0.620307218
0.620308733
0.6203103346
0.6203119149
0.6203134062
0.6203147429
0.6203157573
0.620293138
0.6202633257
0.6202506026
0.620249071
0.6202534428
0.620260339
0.6202678965
0.620275197
0.6202818487
0.6202877312
0.6202928528
0.6202972743
0.6203010624
0.6203042295
0.6203065281
0.6201574339
0.6201362908
0.6201543838
0.620180851
0.6202058207
0.6202268333
0.6202438583
0.6202575213
0.6202685134
0.6202774228
0.6202847092
0.620290719
0.6202956983
0.6202997624
0.6203026672
0.6202931372
0.6202633256
0.6202506031
0.6202490719
0.6202534439
0.6202603402
0.6202678977
0.6202751981
0.6202818498
0.6202877322
0.6202928537
0.6202972752
0.6203010632
0.6203042303
0.6203065288
0.6203291629
0.6203185514
0.6203113927
0.6203073008
0.6203055045
0.6203052561
0.6203059671
0.6203072192
0.6203087343
0.6203103358
0.6203119161
0.6203134074
0.6203147441
0.6203157584
0.6203521894
0.6203470961
0.6203423116
0.6203381813
0.6203348116
0.6203321694
0.6203301577
0.6203286611
0.6203275698
0.6203267895
0.6203262433
0.6203258708
0.6203256264
0.620325484
0.6203588725
0.6203563428
0.6203534686
0.6203504634
0.6203475
0.620344699
0.6203421325
0.6203398349
0.6203378134
0.6203360583
0.6203345504
0.6203332692
0.6203322099
0.6203314493
0.620361827
0.6203606263
0.6203589754
0.620356954
0.6203546811
0.620352281
0.6203498624
0.620347509
0.6203452785
0.620343206
0.6203413089
0.620339593
0.6203380612
0.620336736
0.620335751
0.6203600919
0.6203575466
0.6203544321
0.6203510843
0.6203477865
0.6203447257
0.6203419983
0.6203396337
0.6203376198
0.6203359228
0.6203345006
0.6203333113
0.6203323192
0.6203315075
0.6203309272
0.6203548561
0.6203486456
0.6203422221
0.6203364883
0.6203318563
0.6203283857
0.6203259475
0.620324342
0.6203233661
0.6203228432
0.6203226325
0.6203226276
0.6203227496
0.6203229357
0.6203231126
0.6203423494
0.6203291642
0.6203185521
0.6203113929
0.6203073008
0.6203055042
0.6203052558
0.6203059666
0.6203072187
0.6203087337
0.6203103353
0.6203119156
0.6203134068
0.6203147436
0.6203157579
0.6203228785
0.6203040889
0.6202937786
0.6202895783
0.6202890911
0.6202906424
0.6202931964
0.6202961496
0.6202991654
0.6203020647
0.6203047593
0.620307211
0.6203094028
0.6203112974
0.6203127039
0.6203423493
0.6203291643
0.6203185523
0.6203113933
0.6203073013
0.6203055048
0.6203052564
0.6203059673
0.6203072194
0.6203087344
0.6203103359
0.6203119162
0.6203134075
0.6203147442
0.6203157585
0.6203548558
0.6203486453
0.620342222
0.6203364884
0.6203318567
0.6203283862
0.6203259481
0.6203243428
0.620323367
0.6203228441
0.6203226334
0.6203226285
0.6203227506
0.6203229367
0.6203231136
0.6203575463
0.6203544319
0.6203510843
0.6203477867
0.620344726
0.6203419988
0.6203396343
0.6203376206
0.6203359236
0.6203345015
0.6203333122
0.6203323202
0.6203315086
0.6203309283
0.6203606262
0.6203589753
0.620356954
0.6203546812
0.6203522812
0.6203498627
0.6203475094
0.6203452791
0.6203432067
0.6203413097
0.6203395939
0.6203380622
0.6203367371
0.6203357522
0.6203624895
0.6203618402
0.6203608893
0.6203596361
0.6203581144
0.6203563802
0.6203544987
0.6203525344
0.6203505445
0.6203485762
0.6203466664
0.6203448433
0.6203431343
0.6203415929
0.6203404124
0.6203618132
0.620360608
0.6203589723
0.620356998
0.6203548078
0.6203525206
0.6203502343
0.6203480197
0.6203459225
0.6203439684
0.6203421687
0.6203405264
0.620339044
0.6203377468
0.6203367735
0.6203600919
0.6203575467
0.6203544321
0.6203510844
0.6203477866
0.6203447259
0.6203419985
0.620339634
0.6203376201
0.6203359231
0.6203345009
0.6203333116
0.6203323196
0.6203315079
0.6203309276
0.6203569347
0.6203521899
0.6203470965
0.6203423119
0.6203381814
0.6203348116
0.6203321694
0.6203301576
0.6203286609
0.6203275696
0.6203267893
0.620326243
0.6203258705
0.6203256261
0.6203254837
0.6203536978
0.6203472237
0.6203411584
0.6203360807
0.6203321003
0.6203291156
0.620326955
0.6203254429
0.6203244248
0.6203237747
0.6203233935
0.6203232048
0.62032315
0.6203231805
0.6203232427
0.6203569347
0.6203521899
0.6203470966
0.620342312
0.6203381816
0.6203348118
0.6203321697
0.6203301579
0.6203286613
0.62032757
0.6203267897
0.6203262434
0.6203258709
0.6203256266
0.6203254842
0.6203600919
0.6203575466
0.6203544321
0.6203510845
0.6203477868
0.6203447262
0.6203419989
0.6203396344
0.6203376207
0.6203359237
0.6203345016
0.6203333123
0.6203323203
0.6203315086
0.6203309283
0.6203618132
0.6203606079
0.6203589722
0.6203569981
0.6203548078
0.6203525208
0.6203502346
0.6203480201
0.620345923
0.620343969
0.6203421694
0.6203405271
0.6203390448
0.6203377477
0.6203367744
0.6203618401
0.6203608893
0.6203596361
0.6203581144
0.6203563803
0.6203544989
0.6203525347
0.6203505448
0.6203485767
0.6203466669
0.620344844
0.6203431351
0.6203415938
0.6203404134
0.6203627888
0.6203623959
0.6203617919
0.6203609481
0.6203598585
0.6203585387
0.6203570213
0.6203553491
0.6203535694
0.6203517287
0.6203498701
0.6203480322
0.620346256
0.6203446136
0.620343334
0.6203624895
0.6203618402
0.6203608893
0.6203596361
0.6203581144
0.6203563802
0.6203544988
0.6203525345
0.6203505446
0.6203485763
0.6203466665
0.6203448435
0.6203431345
0.6203415931
0.6203404126
0.620361827
0.6203606263
0.6203589754
0.6203569541
0.6203546812
0.6203522812
0.6203498626
0.6203475092
0.6203452788
0.6203432063
0.6203413093
0.6203395935
0.6203380617
0.6203367366
0.6203357516
0.6203608461
0.6203588727
0.620356343
0.6203534688
0.6203504635
0.6203475001
0.620344699
0.6203421325
0.6203398349
0.6203378133
0.6203360582
0.6203345502
0.620333269
0.6203322097
0.620331449
0.6203601225
0.6203576408
0.6203546376
0.6203513927
0.6203481357
0.6203450285
0.6203421708
0.6203396138
0.6203373735
0.6203354429
0.6203338012
0.6203324206
0.6203312732
0.620330345
0.6203296902
0.6203608461
0.6203588727
0.620356343
0.6203534689
0.6203504636
0.6203475002
0.6203446992
0.6203421328
0.6203398351
0.6203378136
0.6203360585
0.6203345506
0.6203332694
0.6203322101
0.6203314494
0.620361827
0.6203606264
0.6203589755
0.6203569542
0.6203546814
0.6203522814
0.6203498629
0.6203475096
0.6203452792
0.6203432068
0.6203413098
0.6203395941
0.6203380623
0.6203367372
0.6203357523
0.6203624895
0.6203618402
0.6203608893
0.6203596362
0.6203581145
0.6203563804
0.620354499
0.6203525347
0.6203505449
0.6203485767
0.620346667
0.6203448441
0.6203431352
0.6203415938
0.6203404134
0.6203627888
0.6203623958
0.6203617919
0.6203609481
0.6203598585
0.6203585388
0.6203570214
0.6203553493
0.6203535697
0.6203517291
0.6203498705
0.6203480328
0.6203462567
0.6203446144
0.6203433349
)
;

boundaryField
{
    top
    {
        type            zeroGradient;
    }
    bottom
    {
        type            zeroGradient;
    }
    side-walls
    {
        type            zeroGradient;
    }
    inlet
    {
        type            zeroGradient;
    }
    outlet
    {
        type            zeroGradient;
    }
    procBoundary1to0
    {
        type            processor;
        value           nonuniform List<scalar> 
97
(
0.6203627888
0.6203627888
0.6203624895
0.620361827
0.6203608462
0.6203601226
0.6203608462
0.620361827
0.6203624896
0.6203627888
0.6203628783
0.6203618132
0.6203618132
0.6203618132
0.6203600919
0.6203569348
0.6203536982
0.620356935
0.6203600921
0.6203618133
0.6203624896
0.6203625743
0.6203618031
0.6203548557
0.6203548557
0.6203548557
0.6203423496
0.6203228808
0.6203423504
0.6203548565
0.6203600921
0.620361827
0.6203621351
0.6203604616
0.6203546959
0.6202931367
0.6202931367
0.6202931367
0.6201574481
0.6202931417
0.6203423504
0.620356935
0.6203608462
0.6203618266
0.6203592178
0.6203484169
0.6203064198
0.619057613
0.619057613
0.619057613
0.6201574475
0.6201574475
0.6203228807
0.6203536983
0.6203601226
0.6203621351
0.6203604616
0.6203546959
0.6203382128
0.620306419
0.6203382131
0.6203423488
0.6203423488
0.6203423488
0.6203569347
0.6203608462
0.6203625743
0.620361803
0.6203595741
0.6203546959
0.6203484167
0.6203546959
0.6203595741
0.6203600918
0.6203600918
0.6203600918
0.620361827
0.6203628783
0.6203625697
0.620361803
0.6203604616
0.6203592178
0.6203604616
0.6203618031
0.6203625697
0.6203624895
0.6203624895
0.6203624895
0.6203630174
0.6203628783
0.6203625743
0.6203621351
0.6203618266
0.6203621351
0.6203625743
0.6203628783
0.6203630174
)
;
    }
}


// ************************************************************************* //
