/*--------------------------------*- C++ -*----------------------------------*\
| =========                 |                                                 |
| \\      /  F ield         | OpenFOAM: The Open Source CFD Toolbox           |
|  \\    /   O peration     | Version:  4.x                                   |
|   \\  /    A nd           | Web:      www.OpenFOAM.org                      |
|    \\/     M anipulation  |                                                 |
\*---------------------------------------------------------------------------*/
FoamFile
{
    version     2.0;
    format      ascii;
    class       surfaceScalarField;
    location    "8000";
    object      phi;
}
// * * * * * * * * * * * * * * * * * * * * * * * * * * * * * * * * * * * * * //

dimensions      [1 0 -1 0 0 0 0];

internalField   nonuniform List<scalar> 
3172
(
9.16564837e-06
-1.495523277e-11
-1.68164137e-11
9.165675827e-06
-1.365345223e-11
-1.387174821e-11
9.165695281e-06
-6.796139372e-12
-8.429542281e-12
9.165703107e-06
-5.115514328e-12
-6.42103209e-12
9.165705154e-06
-2.53209631e-12
-1.365859486e-12
9.165704837e-06
-1.249103382e-12
9.593597191e-14
9.165702495e-06
1.085594641e-13
1.95058441e-12
9.165697076e-06
2.049694559e-12
4.352950424e-12
9.165689108e-06
2.849340477e-12
4.491921573e-12
9.165680282e-06
2.545724884e-12
5.302718752e-12
9.165674409e-06
3.346313036e-12
5.670082534e-12
9.165664248e-06
4.619606086e-12
5.464586593e-12
9.165654158e-06
5.378972457e-12
5.223084494e-12
4.210367147e-12
4.314861765e-12
9.165643094e-06
-2.535129715e-11
-1.853025245e-11
9.165670963e-06
-2.135253253e-11
-1.717496261e-11
9.16568177e-06
-1.353506929e-11
-1.071093267e-11
9.16568804e-06
-6.392522298e-12
-3.873709315e-12
9.165686278e-06
-3.186511669e-13
-4.916587327e-14
9.165681763e-06
2.594386459e-12
2.68151836e-12
9.165676916e-06
4.146327346e-12
4.729006106e-12
9.165669862e-06
5.020963413e-12
6.652511575e-12
9.165660847e-06
6.84894716e-12
6.278485053e-12
9.165651216e-06
6.42499817e-12
6.965699714e-12
9.165645378e-06
1.012659655e-11
7.50989918e-12
9.165634314e-06
7.185727628e-12
5.782178627e-12
9.165624215e-06
8.297536264e-12
5.861919826e-12
6.806854472e-12
6.139863869e-12
9.165710091e-06
-1.905746058e-11
-2.841006422e-11
9.165730202e-06
-1.543865972e-11
-2.393905445e-11
9.165732604e-06
-5.172503766e-12
-8.991573552e-12
9.165730968e-06
-1.150073336e-12
1.264578462e-12
9.165717242e-06
9.087738468e-13
5.128744461e-12
9.165705874e-06
3.789719344e-12
8.034578609e-12
9.165695234e-06
6.262483927e-12
9.034207752e-12
9.165685391e-06
6.50730928e-12
9.552891625e-12
9.165675844e-06
7.556783449e-12
8.929448481e-12
9.165666318e-06
7.899826739e-12
8.66792618e-12
9.165656859e-06
7.499630081e-12
7.70588304e-12
9.165648515e-06
7.477160265e-12
6.916443632e-12
9.165638567e-06
7.624165878e-12
6.745856304e-12
6.298979695e-12
7.071431529e-12
9.165693435e-06
-9.350526854e-12
-1.451400294e-11
9.165705011e-06
-5.39868589e-12
-2.823647036e-11
9.165701368e-06
-1.64185029e-12
-6.924907339e-12
9.165693451e-06
4.420632644e-12
7.165085844e-12
9.165674314e-06
3.771469106e-12
1.157972844e-11
9.165660709e-06
4.647234988e-12
1.535565775e-11
9.165650032e-06
4.651758915e-12
1.601936941e-11
9.165638126e-06
4.629108307e-12
1.555354458e-11
9.165628251e-06
3.668839852e-12
1.37749725e-11
9.165620553e-06
3.705058317e-12
1.339545224e-11
9.165613513e-06
3.624861226e-12
1.085024325e-11
9.165608747e-06
1.414449439e-12
9.781181433e-12
9.165601617e-06
1.019097701e-12
8.587361294e-12
3.056225116e-12
6.606827976e-12
9.165736986e-06
8.925125196e-12
8.622620086e-12
9.165723307e-06
3.858431071e-12
1.348839154e-12
9.165705262e-06
-6.457005889e-13
2.149533461e-11
9.165684853e-06
-3.62263683e-12
2.669084513e-11
9.165664692e-06
-3.708929417e-12
2.545374889e-11
9.165648647e-06
-3.962300689e-12
2.299015398e-11
9.165638012e-06
-2.433864193e-12
2.003591176e-11
9.165625325e-06
-3.118014547e-12
1.681269363e-11
9.165617917e-06
-2.346270015e-12
1.530320749e-11
9.165611589e-06
-1.348400779e-12
1.530550087e-11
9.165605411e-06
-2.736486752e-12
1.122907384e-11
9.165604056e-06
4.786857847e-14
1.05308184e-11
9.165601084e-06
-9.042358914e-13
1.01036172e-11
-3.873130489e-14
6.97027165e-12
9.165672324e-06
2.002190063e-11
-1.440238147e-11
9.165685323e-06
1.977103175e-11
-2.907186218e-11
9.165682817e-06
8.786517743e-12
-5.585835744e-12
9.165673104e-06
1.074181441e-12
7.369152831e-12
9.165657416e-06
-2.998732573e-12
1.31745347e-11
9.165643475e-06
-4.744466126e-12
1.562321037e-11
9.165629428e-06
-5.940012971e-12
1.496048115e-11
9.16562069e-06
-6.19986194e-12
1.49095066e-11
9.165610821e-06
-6.317535519e-12
1.266924893e-11
9.165598987e-06
-7.63927711e-12
1.222775145e-11
9.165592604e-06
-7.388686088e-12
1.067136502e-11
9.165588047e-06
-6.936034414e-12
9.559367721e-12
9.165583982e-06
-8.698389682e-12
9.452724645e-12
-6.708380336e-12
6.977127196e-12
9.165684848e-06
2.466192673e-11
-2.804572813e-11
9.165701591e-06
2.089326537e-11
-2.559341036e-11
9.165705309e-06
1.171098228e-11
-8.447680646e-12
9.16570188e-06
4.729514515e-12
1.70380027e-12
9.165692734e-06
2.134037109e-12
6.901484533e-12
9.165681342e-06
-6.95321966e-13
9.401921672e-12
9.165669842e-06
-3.784047585e-12
9.634987025e-12
9.165659987e-06
-4.537530379e-12
1.12550762e-11
9.165647908e-06
-4.847486417e-12
9.786532223e-12
9.165638965e-06
-6.502966595e-12
9.736864983e-12
9.165629538e-06
-9.001848181e-12
8.499737492e-12
9.165622777e-06
-9.220352177e-12
7.603600847e-12
9.16561759e-06
-8.510864729e-12
8.036009958e-12
-6.710118478e-12
6.174323503e-12
9.165659482e-06
1.410407101e-11
-1.668228593e-11
9.165684228e-06
1.261772858e-11
-1.717709525e-11
9.165699971e-06
8.445909265e-12
-9.00775051e-12
9.165706307e-06
5.091390926e-12
-3.829401772e-12
9.16570584e-06
1.161268499e-12
-2.757589506e-13
9.165700068e-06
-4.700491078e-13
1.880977709e-12
9.165693758e-06
-1.530676458e-12
5.777797081e-12
9.165685747e-06
-2.680881286e-12
5.689535606e-12
9.16567478e-06
-4.448968576e-12
6.175332998e-12
9.165666083e-06
-4.856717103e-12
5.433177539e-12
9.165656017e-06
-5.04684501e-12
6.206658806e-12
9.165649525e-06
-5.003795104e-12
5.500663668e-12
9.165641058e-06
-5.522184406e-12
5.586207857e-12
-5.038411732e-12
4.284928397e-12
9.165644139e-06
-1.464752248e-11
9.16566996e-06
-1.35607635e-11
9.16568765e-06
-9.188259605e-12
9.165698222e-06
-3.828134746e-12
9.165702855e-06
-1.776275294e-12
9.165702933e-06
2.082785516e-13
9.165698426e-06
2.237287311e-12
9.165691628e-06
3.833400736e-12
9.165684728e-06
5.05150586e-12
9.165676313e-06
4.647274397e-12
9.165665718e-06
4.777429535e-12
9.165657574e-06
5.203080069e-12
9.165650317e-06
5.449611318e-12
3.739109675e-12
9.165596763e-06
-6.06877699e-11
9.165624373e-06
-1.632758084e-11
-2.475659627e-11
9.16564964e-06
-1.566863735e-11
-2.119011839e-11
9.165663966e-06
-8.396133417e-12
-1.092841977e-11
9.16567304e-06
-1.945605934e-12
-4.923264974e-12
9.165668891e-06
-2.1911865e-13
-1.25566062e-12
9.165665289e-06
2.549715911e-12
3.162434108e-12
9.16565974e-06
3.592511235e-12
5.023434018e-12
9.165650611e-06
5.083572945e-12
6.247610987e-12
9.16564236e-06
4.419384315e-12
7.688937534e-12
9.165633087e-06
5.800945991e-12
7.395164277e-12
9.165624193e-06
5.564233765e-12
9.548854675e-12
9.165613518e-06
5.551740978e-12
8.357962516e-12
9.165605069e-06
6.78696012e-12
8.33689186e-12
7.392882396e-12
6.766279415e-12
9.165655156e-06
-2.429817153e-11
-2.480631215e-11
9.165674926e-06
-2.612358021e-11
-2.808841735e-11
9.165682666e-06
-1.24802587e-11
-1.289077087e-11
9.165679525e-06
-4.064118076e-12
-3.975370524e-12
9.165670643e-06
2.482683926e-12
1.85605629e-12
9.165660343e-06
7.783404644e-12
7.377845881e-12
9.165651411e-06
9.1349668e-12
9.203921651e-12
9.165642026e-06
9.673756918e-12
1.008467266e-11
9.165634804e-06
1.00124752e-11
1.174446439e-11
9.165625021e-06
9.618457606e-12
1.04780571e-11
9.16562004e-06
1.112998361e-11
1.114944839e-11
9.165611798e-06
9.52234618e-12
1.030225525e-11
9.165604788e-06
1.143421151e-11
9.847242725e-12
8.15960733e-12
6.815207348e-12
9.165696293e-06
-1.280365803e-11
-3.770363719e-11
9.165698343e-06
-1.738125363e-11
-3.53234656e-11
9.165686826e-06
-3.11928606e-12
-5.899608471e-12
9.165669905e-06
5.134106881e-12
9.077421423e-12
9.165652029e-06
9.025284334e-12
1.602366021e-11
9.165636828e-06
1.178376715e-11
2.094006202e-11
9.165625611e-06
1.213924406e-11
1.974796526e-11
9.165617096e-06
1.185257528e-11
1.933339051e-11
9.165610479e-06
1.190446796e-11
1.745487839e-11
9.165604914e-06
1.116345534e-11
1.534042885e-11
9.165599886e-06
1.020945233e-11
1.359923931e-11
9.165596959e-06
9.14513171e-12
1.25685815e-11
9.165592236e-06
8.493955539e-12
1.200249804e-11
5.998132595e-12
8.410498111e-12
9.165691031e-06
1.314792071e-11
2.293798849e-11
9.165680904e-06
1.259280107e-12
-4.005077373e-11
9.165658844e-06
6.555722359e-12
3.210365678e-12
9.16563592e-06
9.923666378e-12
2.645161083e-11
9.165614189e-06
8.814759464e-12
3.143016265e-11
9.16559795e-06
7.170873059e-12
3.216550604e-11
9.165590379e-06
6.791503498e-12
3.075476624e-11
9.165583967e-06
6.448912616e-12
2.707420601e-11
9.165580611e-06
5.621257458e-12
2.185513625e-11
9.165576961e-06
5.947506157e-12
1.87174056e-11
9.165577468e-06
3.910970129e-12
1.546024172e-11
9.165578036e-06
2.821538546e-12
1.461385315e-11
9.16557695e-06
2.223258357e-12
1.431349353e-11
4.019291002e-12
1.132728319e-11
9.165686346e-06
-1.388445736e-11
2.067513105e-10
9.165616303e-06
-3.500922879e-12
7.60414936e-11
9.165572676e-06
-7.099113647e-12
7.869014664e-11
9.165543059e-06
-9.856015869e-12
7.54061958e-11
9.165522507e-06
-6.835753206e-12
6.031002723e-11
9.165513331e-06
-6.421910556e-12
4.850873091e-11
9.165507354e-06
-6.059090162e-12
3.902723234e-11
9.165504944e-06
-5.396394207e-12
3.111354343e-11
9.165506297e-06
-4.846085366e-12
2.542160244e-11
9.165504269e-06
-4.730812871e-12
1.961708689e-11
9.165506844e-06
-2.982971133e-12
1.579303287e-11
9.165508772e-06
-2.333326478e-12
1.580457944e-11
9.165511066e-06
-2.574502007e-12
1.565220791e-11
-1.70942357e-12
1.138458813e-11
9.165656361e-06
1.308454933e-11
2.512078576e-11
9.165647844e-06
2.049108328e-11
-3.814127723e-11
9.165625985e-06
4.446310445e-12
4.801398984e-12
9.165602677e-06
-5.359660932e-12
2.632244558e-11
9.16557925e-06
-9.438646873e-12
3.155763232e-11
9.165564653e-06
-1.148320305e-11
3.32512126e-11
9.165556257e-06
-1.137910061e-11
3.132051398e-11
9.165550623e-06
-1.123059924e-11
2.761110615e-11
9.165546061e-06
-1.059626686e-11
2.291248689e-11
9.16554342e-06
-1.038424477e-11
1.83923007e-11
9.165541951e-06
-9.920925665e-12
1.560905568e-11
9.165543531e-06
-8.796480117e-12
1.457406024e-11
9.165542287e-06
-1.02714953e-11
1.263229608e-11
-8.920621509e-12
9.253633298e-12
9.165683749e-06
2.59360623e-11
-3.802489709e-11
9.165686373e-06
2.716293832e-11
-3.603898844e-11
9.165674276e-06
1.341079899e-11
-5.437759101e-12
9.165657231e-06
2.576884666e-12
1.082276447e-11
9.165639617e-06
-3.434762365e-12
1.683493986e-11
9.165624402e-06
-6.456354829e-12
2.090130709e-11
9.165613349e-06
-7.030200209e-12
2.125249324e-11
9.16560198e-06
-9.730035191e-12
1.990258447e-11
9.165595907e-06
-8.569206287e-12
1.704616195e-11
9.165587417e-06
-1.11317491e-11
1.42380704e-11
9.165583752e-06
-1.039073917e-11
1.393275278e-11
9.165581617e-06
-1.047285225e-11
1.302479276e-11
9.165580173e-06
-1.134349376e-11
1.213643234e-11
-8.814648977e-12
9.358027179e-12
9.165658317e-06
1.725254614e-11
-2.712941286e-11
9.165678951e-06
1.7500009e-11
-2.898534338e-11
9.165686385e-06
9.558122662e-12
-1.244016343e-11
9.165687885e-06
5.288063086e-12
-1.074682752e-12
9.165679543e-06
5.16197204e-13
3.48935145e-12
9.165670394e-06
-1.655785209e-12
7.166707355e-12
9.165659445e-06
-4.066524042e-12
9.464563348e-12
9.165651806e-06
-4.689823674e-12
1.039527881e-11
9.165640792e-06
-5.896847542e-12
9.310287517e-12
9.165632606e-06
-6.703525072e-12
9.114162741e-12
9.165624774e-06
-5.132328381e-12
9.812200658e-12
9.165618777e-06
-5.60461317e-12
1.090098636e-11
9.165614551e-06
-5.784018757e-12
1.095707817e-11
-5.978308546e-12
6.866111785e-12
9.165627638e-06
-2.500949461e-11
9.165651377e-06
-2.123978155e-11
9.165668526e-06
-1.145995351e-11
9.165672923e-06
-5.566602733e-12
9.165672768e-06
-8.673139491e-13
9.165669142e-06
1.117733241e-12
9.165662013e-06
3.145510381e-12
9.16565318e-06
5.547689908e-12
9.165643822e-06
6.341414775e-12
9.165636324e-06
7.556269858e-12
9.165623721e-06
7.008982273e-12
9.1656157e-06
7.651460547e-12
9.165608858e-06
8.731577439e-12
7.176344451e-12
9.165670112e-06
-1.006057466e-10
-7.235307407e-11
9.165695066e-06
-2.543978001e-11
-2.045122342e-11
9.165716468e-06
-2.381989221e-11
-1.558671515e-11
9.165718428e-06
-7.126224304e-12
-6.385571334e-12
9.165715431e-06
3.643726422e-12
4.472706277e-13
9.165704593e-06
5.369840777e-12
2.470254155e-12
9.165694354e-06
1.028112474e-11
5.269844962e-12
9.165682355e-06
9.129502603e-12
5.974191261e-12
9.165672154e-06
9.811535004e-12
7.504010711e-12
9.165660394e-06
9.308263909e-12
6.914671857e-12
9.165653222e-06
9.832215386e-12
6.522608518e-12
9.165643564e-06
8.264938908e-12
6.393189514e-12
9.165636646e-06
7.455348032e-12
5.184198318e-12
9.165631137e-06
8.915279088e-12
6.898528679e-12
8.514938989e-12
6.674158199e-12
9.165702424e-06
-1.335796444e-10
9.165699537e-06
-3.631622591e-11
-1.365199402e-11
9.165704347e-06
-3.27004949e-11
-1.763273665e-11
9.16569175e-06
-5.376746853e-12
-4.085840874e-12
9.165674713e-06
1.066640035e-11
4.123648691e-12
9.165658629e-06
1.799264531e-11
8.354934931e-12
9.165642198e-06
1.9613441e-11
1.111758488e-11
9.165632724e-06
1.993279507e-11
1.301133029e-11
9.165624013e-06
1.866084307e-11
1.145909954e-11
9.165617356e-06
1.747268009e-11
1.105287224e-11
9.165608528e-06
1.542012429e-11
9.593705866e-12
9.165604396e-06
1.375753187e-11
9.486163272e-12
9.165601104e-06
1.337619211e-11
8.438249886e-12
9.165599567e-06
1.473174226e-11
9.763570685e-12
1.03170852e-11
7.825611388e-12
9.165706941e-06
1.279536143e-12
1.179583945e-13
9.165653615e-06
-8.895113208e-12
-1.069374306e-11
9.165602757e-06
2.186451344e-11
2.189179436e-11
9.165563411e-06
3.091229955e-11
3.064047662e-11
9.165537969e-06
2.98641123e-11
2.995504792e-11
9.165522346e-06
2.614259274e-11
2.786863624e-11
9.165519693e-06
2.550172767e-11
2.619406186e-11
9.165516626e-06
2.073795192e-11
2.264902537e-11
9.165516845e-06
1.649264999e-11
1.765112771e-11
9.165517592e-06
1.539709748e-11
1.48056113e-11
9.165520401e-06
1.319857683e-11
1.31208138e-11
9.165523695e-06
1.092038974e-11
1.122245662e-11
9.165525698e-06
1.145338012e-11
1.091082264e-11
8.610780112e-12
8.4446808e-12
9.165696305e-06
8.05333305e-11
1.898745571e-10
9.165607679e-06
3.262424059e-11
7.334781806e-12
9.165547685e-06
3.55837336e-11
5.169509212e-11
9.165513496e-06
3.016791261e-11
6.096236794e-11
9.165500248e-06
2.178837454e-11
5.210849366e-11
9.165501541e-06
1.539317422e-11
4.452219238e-11
9.165510251e-06
1.221513253e-11
3.680132389e-11
9.165519133e-06
1.026963743e-11
2.899587681e-11
9.165532646e-06
1.032060938e-11
2.397128992e-11
9.16553963e-06
7.651350527e-12
1.860997728e-11
9.165549934e-06
4.704452153e-12
1.468087659e-11
9.165559426e-06
3.605761236e-12
1.168382896e-11
9.165568068e-06
4.271573544e-12
1.055264448e-11
4.863893857e-12
8.975828825e-12
9.165694316e-06
-7.963176159e-11
1.01035007e-09
9.165450801e-06
-3.192480134e-11
3.844083706e-10
9.165375555e-06
-3.518903304e-11
2.242259128e-10
9.165359821e-06
-2.943234481e-11
1.505740192e-10
9.165371856e-06
-2.00912188e-11
9.536603525e-11
9.165391932e-06
-1.419884074e-11
6.470358978e-11
9.165414085e-06
-1.123096092e-11
4.545627724e-11
9.165435016e-06
-7.532676627e-12
3.327150023e-11
9.165451807e-06
-7.51250497e-12
2.428971332e-11
9.165464618e-06
-6.088716428e-12
1.969695931e-11
9.165481348e-06
-3.871634079e-12
1.670382023e-11
9.165491608e-06
-4.12869061e-12
1.265290907e-11
9.165502187e-06
-4.8090258e-12
1.261186573e-11
-4.171824473e-12
8.671441614e-12
9.165696499e-06
-1.097212739e-12
1.9067692e-10
9.16560893e-06
7.920900568e-12
7.178116303e-12
9.16555004e-06
-2.213780521e-11
5.132987734e-11
9.165516368e-06
-3.083786293e-11
5.984845763e-11
9.165503556e-06
-2.994206848e-11
5.10272278e-11
9.165504498e-06
-2.696436129e-11
4.248503474e-11
9.165512351e-06
-2.290666055e-11
3.384305104e-11
9.165522905e-06
-1.961770413e-11
2.704034693e-11
9.165533917e-06
-1.761810969e-11
2.121720657e-11
9.165541265e-06
-1.594965543e-11
1.724744207e-11
9.165551387e-06
-1.311983434e-11
1.457563234e-11
9.165560718e-06
-1.138526902e-11
1.251410294e-11
9.16556952e-06
-1.218452969e-11
1.425064689e-11
-9.680502569e-12
9.999250378e-12
9.165804703e-06
3.696955537e-11
1.169993318e-12
9.165755078e-06
3.475014062e-11
-8.429311437e-12
9.165702852e-06
5.987682444e-12
2.230846637e-11
9.165662819e-06
-9.588268051e-12
2.984849344e-11
9.165637313e-06
-1.690162378e-11
2.92318502e-11
9.16562335e-06
-1.972286913e-11
2.708163762e-11
9.165617788e-06
-1.896854969e-11
2.477375483e-11
9.165617014e-06
-1.906890405e-11
2.081582826e-11
9.16561856e-06
-1.745438664e-11
1.745371841e-11
9.165621244e-06
-1.574388808e-11
1.564012194e-11
9.165622516e-06
-1.530380076e-11
1.356628027e-11
9.165626447e-06
-1.319623687e-11
1.142058192e-11
9.165628878e-06
-1.329655268e-11
1.150515923e-11
-1.244535673e-11
8.24182082e-12
9.165666085e-06
2.901872599e-11
-1.258405805e-11
9.165670233e-06
2.561737574e-11
-1.785461344e-11
9.165656693e-06
8.964234119e-12
-3.249141599e-12
9.165638585e-06
-1.176385373e-12
5.077869273e-12
9.165620948e-06
-5.048344245e-12
8.529396055e-12
9.165606262e-06
-8.368678397e-12
1.092575284e-11
9.165591349e-06
-1.080462581e-11
1.014786622e-11
9.165582293e-06
-9.441145869e-12
1.114196769e-11
9.165574748e-06
-9.07413379e-12
1.116725189e-11
9.165568755e-06
-8.55336296e-12
1.135453809e-11
9.165564185e-06
-8.220347091e-12
1.08168357e-11
9.165558355e-06
-8.069779925e-12
8.997604114e-12
9.165553379e-06
-8.467990018e-12
8.736417945e-12
-5.900080025e-12
8.977913485e-12
9.165676706e-06
-1.973139227e-11
9.16569689e-06
-1.701898189e-11
9.16570171e-06
-7.567303409e-12
9.165697193e-06
2.620438825e-14
9.165686748e-06
1.992252139e-12
9.165675454e-06
4.286084402e-12
9.165664731e-06
6.506546867e-12
9.165652533e-06
5.805042469e-12
9.16564249e-06
6.865918513e-12
9.165632386e-06
7.146476796e-12
9.165625814e-06
8.595351713e-12
9.165619255e-06
8.296169124e-12
9.165611639e-06
7.845380994e-12
5.567281308e-12
9.165722263e-06
-1.471018793e-10
-6.561595662e-11
9.165724847e-06
-1.125031284e-11
-8.429273932e-12
9.165736326e-06
-2.707506556e-11
-5.5399698e-12
9.165735313e-06
-5.398981527e-12
1.412231244e-12
9.165723517e-06
7.688289641e-12
2.838583698e-12
9.165708825e-06
1.28305756e-11
2.408317203e-12
9.165691254e-06
1.614155228e-11
2.21381924e-12
9.165680481e-06
1.641298276e-11
4.779568761e-12
9.165668269e-06
1.420693848e-11
5.022795208e-12
9.16565808e-06
1.308094338e-11
4.183195057e-12
9.16565107e-06
1.251929739e-11
4.251483982e-12
9.165644026e-06
1.097416087e-11
3.884320651e-12
9.165639786e-06
9.994442395e-12
3.842738608e-12
9.165632217e-06
1.072251724e-11
3.248221066e-12
8.845732123e-12
3.404348476e-12
9.165708659e-06
-3.397313138e-10
-1.277667411e-10
9.165646908e-06
2.480186655e-11
1.263863882e-11
9.165636025e-06
-3.876037892e-11
9.964911958e-13
9.165615046e-06
5.618612476e-12
6.049472666e-12
9.165589108e-06
2.81788545e-11
7.982325764e-12
9.165571074e-06
3.389672295e-11
7.547871927e-12
9.165552823e-06
3.313471855e-11
5.600250906e-12
9.165543947e-06
3.074019878e-11
6.429176627e-12
9.165539034e-06
2.830179414e-11
6.344726689e-12
9.165534824e-06
2.321962617e-11
5.451019654e-12
9.165532069e-06
2.094273346e-11
4.755976893e-12
9.165531312e-06
1.739627713e-11
3.237393495e-12
9.165531298e-06
1.59207129e-11
3.544643088e-12
9.165530547e-06
1.528966109e-11
2.616556881e-12
1.19673346e-11
2.29915736e-12
9.165863841e-06
-3.771176587e-10
9.165619207e-06
1.890142424e-10
7.87524816e-11
9.165533798e-06
7.576744829e-12
3.142713036e-11
9.165474329e-06
5.1719686e-11
3.485117404e-11
9.165442313e-06
6.07932796e-11
2.844944363e-11
9.165429252e-06
5.152952553e-11
2.108247308e-11
9.165430733e-06
4.342800812e-11
1.514710085e-11
9.165438171e-06
3.60681375e-11
1.335589059e-11
9.165446124e-06
2.746383394e-11
1.040118182e-11
9.165459275e-06
2.235943656e-11
9.131161993e-12
9.165467246e-06
1.905031642e-11
5.50195577e-12
9.165476675e-06
1.514544982e-11
4.218608788e-12
9.165485286e-06
1.18835034e-11
2.370750396e-12
9.165492378e-06
1.087433466e-11
3.670920779e-12
9.614185445e-12
2.657881559e-12
9.165161168e-06
4.353496229e-10
4.344706405e-10
9.165156749e-06
1.168090863e-11
1.13241133e-11
9.165166517e-06
4.800505552e-11
4.868227911e-11
9.165191685e-06
4.723113947e-11
4.740371967e-11
9.16522768e-06
3.207448979e-11
3.210858728e-11
9.165265089e-06
2.172558548e-11
2.208949292e-11
9.165300754e-06
1.620805081e-11
1.666786922e-11
9.165331986e-06
1.224574827e-11
1.234941697e-11
9.165358567e-06
9.437104163e-12
9.533985164e-12
9.165379663e-06
8.27859384e-12
6.669779339e-12
9.165398336e-06
5.774671041e-12
5.824499953e-12
9.165416951e-06
5.297913958e-12
5.301671531e-12
9.165432814e-06
5.799607839e-12
4.890173593e-12
4.458009914e-12
4.675815721e-12
9.164803116e-06
-4.341239954e-10
3.352146156e-09
9.164844136e-06
-1.039012165e-11
3.663298795e-10
9.164992335e-06
-4.835307115e-11
1.727250627e-10
9.165121301e-06
-4.848574389e-11
1.203677407e-10
9.165221036e-06
-3.204083192e-11
6.29432479e-11
9.165297514e-06
-2.279926614e-11
3.61846157e-11
9.16535476e-06
-1.789074933e-11
2.257951456e-11
9.165400085e-06
-1.207029308e-11
1.593695228e-11
9.16543694e-06
-9.7450588e-12
1.122874139e-11
9.165460909e-06
-8.09811089e-12
7.163546088e-12
9.165485874e-06
-5.850053998e-12
6.108693426e-12
9.165505656e-06
-4.745462254e-12
4.342198466e-12
9.165524736e-06
-3.871569402e-12
4.469313701e-12
-4.412807546e-12
2.557594093e-12
9.165295468e-06
-1.907060383e-10
4.354791552e-10
9.165291783e-06
-7.649289908e-12
1.180340162e-11
9.165303562e-06
-5.039537011e-11
4.798105262e-11
9.165327801e-06
-6.135966182e-11
4.855833464e-11
9.165362538e-06
-5.183133907e-11
3.287684194e-11
9.165400818e-06
-4.28718484e-11
2.4667886e-11
9.165437301e-06
-3.33850432e-11
1.833443122e-11
9.165466018e-06
-2.747571591e-11
1.340080142e-11
9.165494746e-06
-2.111883818e-11
1.117240979e-11
9.165515106e-06
-1.844033247e-11
6.458727614e-12
9.165537652e-06
-1.329109984e-11
7.51304987e-12
9.165552089e-06
-1.242038112e-11
5.634065527e-12
9.165565356e-06
-1.44686047e-11
3.719731693e-12
-1.064449842e-11
4.462753134e-12
9.165629605e-06
-2.444403162e-11
8.002880846e-11
9.165542771e-06
3.898336854e-11
3.350627577e-11
9.165480794e-06
-3.833560113e-12
3.495536139e-11
9.165449688e-06
-2.459942377e-11
3.006926871e-11
9.165437298e-06
-3.236913727e-11
2.253102258e-11
9.165438574e-06
-3.316570349e-11
1.713033252e-11
9.16544441e-06
-3.061153763e-11
1.231785445e-11
9.165455049e-06
-2.778623919e-11
8.574366803e-12
9.165468179e-06
-2.319523113e-11
7.422724636e-12
9.165477558e-06
-1.959167335e-11
4.547968225e-12
9.165486113e-06
-1.794187989e-11
5.47587294e-12
9.16549565e-06
-1.580332584e-11
4.55570409e-12
9.165504099e-06
-1.588732549e-11
4.509533305e-12
-1.163784759e-11
3.522733837e-12
9.165694863e-06
1.480107269e-11
1.294421571e-11
9.165684514e-06
2.849151849e-11
3.25406002e-12
9.1656604e-06
5.365221209e-12
6.605656635e-12
9.165636483e-06
-6.367334951e-12
9.049153642e-12
9.165617383e-06
-1.237269848e-11
9.522660627e-12
9.165603302e-06
-1.532642355e-11
7.79911376e-12
9.165592851e-06
-1.551257481e-11
7.450154959e-12
9.165585401e-06
-1.40960552e-11
5.588927164e-12
9.165583055e-06
-1.340531389e-11
5.333880484e-12
9.165579837e-06
-1.246477166e-11
3.847584783e-12
9.165577868e-06
-9.818986363e-12
4.376414536e-12
9.165578623e-06
-8.883424264e-12
4.283593251e-12
9.165579861e-06
-8.422864714e-12
5.178153388e-12
-8.164204678e-12
2.386813029e-12
9.165668178e-06
-8.475853988e-12
9.165681055e-06
-5.60744445e-12
9.165678437e-06
1.659349064e-12
9.165665519e-06
4.025872365e-12
9.165651479e-06
4.703884466e-12
9.165638008e-06
4.409859686e-12
9.165621656e-06
4.19603564e-12
9.165611906e-06
3.466415659e-12
9.1656004e-06
3.713059239e-12
9.165591497e-06
2.538676537e-12
9.16558409e-06
2.68039153e-12
9.165578711e-06
2.927782452e-12
9.165572652e-06
3.366828312e-12
3.56891137e-12
9.165763242e-06
-3.649570877e-10
6.686119977e-11
9.165736821e-06
1.190297756e-11
9.81211271e-12
9.165726844e-06
3.707254035e-12
6.342023462e-12
9.165705274e-06
2.121569061e-11
-1.105154567e-12
9.165685691e-06
2.839438193e-11
-3.192222364e-12
9.165666912e-06
2.649004957e-11
-3.775949232e-12
9.165651359e-06
2.423812829e-11
-3.397573694e-12
9.165637535e-06
2.056937417e-11
-4.001046208e-12
9.165626043e-06
1.696587277e-11
-4.089859918e-12
9.165616929e-06
1.487050768e-11
-4.366891486e-12
9.165608456e-06
1.215085253e-11
-4.389268958e-12
9.165604497e-06
9.778741544e-12
-3.220315532e-12
9.16560077e-06
1.04271576e-11
-1.761774096e-12
9.165597434e-06
1.056216783e-11
-2.595789862e-12
8.280236964e-12
-2.331768318e-12
9.165893442e-06
-1.011309161e-09
1.282709519e-10
9.165718212e-06
2.080677845e-10
-1.236890402e-11
9.165650316e-06
7.667193996e-11
-2.146094698e-12
9.165604657e-06
7.943711775e-11
-6.943783987e-12
9.165572367e-06
7.68857803e-11
-8.679981487e-12
9.165554724e-06
6.248242084e-11
-7.805742029e-12
9.165543491e-06
4.974333984e-11
-7.267708348e-12
9.165536604e-06
4.089737666e-11
-6.609802892e-12
9.165533154e-06
3.334865109e-11
-4.319503896e-12
9.165530744e-06
2.630097423e-11
-4.607344798e-12
9.165529129e-06
2.054090165e-11
-4.72598586e-12
9.16553137e-06
1.71201156e-11
-2.541613553e-12
9.165532818e-06
1.395252474e-11
-2.122485115e-12
9.165533795e-06
1.545298227e-11
-3.745522668e-12
1.282850738e-11
-1.511535924e-12
9.166367367e-06
-2.676819927e-09
3.785126486e-10
9.165723134e-06
1.011080086e-09
-7.921171487e-11
9.165480029e-06
3.866679541e-10
-3.244545273e-11
9.165402824e-06
2.246273568e-10
-3.498590093e-11
9.165388142e-06
1.515948049e-10
-3.018458798e-11
9.165397465e-06
9.472458228e-11
-2.251620102e-11
9.165420645e-06
6.350402933e-11
-1.708894902e-11
9.165439625e-06
4.444862687e-11
-1.351850156e-11
9.165459341e-06
3.21095533e-11
-9.444894953e-12
9.165476791e-06
2.343378702e-11
-7.555485572e-12
9.165492958e-06
1.906202476e-11
-5.995997446e-12
9.165505193e-06
1.671214536e-11
-5.380478402e-12
9.165518906e-06
1.308464473e-11
-3.133372044e-12
9.165527762e-06
1.171127488e-11
-4.422583163e-12
1.076239506e-11
-1.883444225e-12
9.166293381e-06
6.561832256e-10
9.164821443e-06
3.35329334e-09
-4.323298117e-10
9.164863487e-06
3.668725977e-10
-1.044537282e-11
9.165011822e-06
1.729420013e-10
-4.727267702e-11
9.16514139e-06
1.207414267e-10
-4.73308378e-11
9.165239382e-06
6.346340586e-11
-3.301641208e-11
9.165317128e-06
3.620075948e-11
-2.309371077e-11
9.165373233e-06
2.143375505e-11
-1.733126248e-11
9.165418983e-06
1.417835208e-11
-1.221586418e-11
9.165453761e-06
1.064335303e-11
-8.847947542e-12
9.165481588e-06
8.941070288e-12
-6.691186145e-12
9.165504895e-06
6.157212883e-12
-5.67397137e-12
9.16552266e-06
4.10439726e-12
-5.429099713e-12
9.165543005e-06
5.966145267e-12
-3.683244479e-12
2.928728104e-12
-3.111378861e-12
9.192486257e-06
-3.351487179e-09
-3.353051629e-09
9.193978951e-06
-3.659612722e-10
-3.665627561e-10
9.194693532e-06
-1.736161989e-10
-1.72576817e-10
9.195199437e-06
-1.208454607e-10
-1.214305563e-10
9.195473412e-06
-6.250566106e-11
-6.314361307e-11
9.195640502e-06
-3.522354829e-11
-3.471179623e-11
9.195752572e-06
-2.209562728e-11
-2.322590244e-11
9.195834734e-06
-1.434980725e-11
-1.519609948e-11
9.195901191e-06
-9.759302113e-12
-1.014414767e-11
9.195953191e-06
-7.611070897e-12
-7.84517285e-12
9.196003837e-06
-4.510247231e-12
-5.416268903e-12
9.196049834e-06
-2.705515016e-12
-5.071147006e-12
9.196095216e-06
-4.384734408e-12
-5.161265391e-12
-2.734058346e-12
-2.558350886e-12
9.164823506e-06
-1.012252515e-09
-4.345644924e-10
9.164865555e-06
-3.848431594e-10
-9.966824471e-12
9.165017054e-06
-2.229633155e-10
-4.568999178e-11
9.165144685e-06
-1.514203673e-10
-4.717165858e-11
9.165242567e-06
-9.466553426e-11
-3.194419246e-11
9.165317478e-06
-6.37897111e-11
-2.214290938e-11
9.1653767e-06
-4.463671177e-11
-1.793148445e-11
9.165421752e-06
-3.370799716e-11
-1.457577838e-11
9.165458696e-06
-2.500744935e-11
-1.024835841e-11
9.16548409e-06
-1.885172629e-11
-7.444728255e-12
9.165506812e-06
-1.436278047e-11
-6.094373551e-12
9.165526677e-06
-1.371780177e-11
-6.545998922e-12
9.165546507e-06
-1.347910107e-11
-6.664625565e-12
-9.91754429e-12
-4.54671865e-12
9.165762544e-06
-2.085948531e-10
-7.866228346e-11
9.165519284e-06
-7.63809655e-11
-3.22779166e-11
9.165443609e-06
-7.831992735e-11
-3.333307387e-11
9.165431403e-06
-7.536706693e-11
-2.811939595e-11
9.165440221e-06
-6.083910668e-11
-2.126262423e-11
9.165459066e-06
-4.972163436e-11
-1.598063104e-11
9.165479436e-06
-3.853433404e-11
-1.146639535e-11
9.165498894e-06
-3.172015068e-11
-8.601609431e-12
9.165517352e-06
-2.48674182e-11
-7.924686701e-12
9.165531553e-06
-2.115625968e-11
-7.230162984e-12
9.165541874e-06
-1.931638522e-11
-5.824279347e-12
9.165553256e-06
-1.547667276e-11
-4.74529175e-12
9.165565702e-06
-1.462358514e-11
-4.868029152e-12
-1.359500128e-11
-4.312164526e-12
9.165778438e-06
-8.775323458e-12
-1.214989624e-11
9.165706309e-06
-4.137387243e-12
-2.371636961e-12
9.165663701e-06
-2.074565217e-11
-6.561650742e-12
9.165634308e-06
-2.635668527e-11
-8.744035198e-12
9.16561327e-06
-2.574061457e-11
-7.392429592e-12
9.165604238e-06
-2.407208271e-11
-6.747209985e-12
9.165595324e-06
-2.077375723e-11
-6.493585223e-12
9.165594949e-06
-1.689961116e-11
-5.74374739e-12
9.165592161e-06
-1.478637605e-11
-5.741288004e-12
9.165593477e-06
-1.327125433e-11
-4.393656233e-12
9.165594026e-06
-1.141306388e-11
-3.872946058e-12
9.165593649e-06
-9.791950476e-12
-4.018404156e-12
9.165596421e-06
-9.426918421e-12
-4.397731636e-12
-7.024225225e-12
-2.351672546e-12
9.165731132e-06
9.248874399e-12
9.165721034e-06
4.297735351e-12
9.165700644e-06
-2.429271316e-13
9.165678239e-06
-4.129756951e-12
9.165659442e-06
-2.704818e-12
9.165645146e-06
-2.923813591e-12
9.165631891e-06
-2.768842116e-12
9.165621298e-06
-2.411842769e-12
9.165610571e-06
-3.441598626e-12
9.165604509e-06
-3.000831988e-12
9.16559843e-06
-3.600135523e-12
9.165594151e-06
-2.70459143e-12
9.165589344e-06
-3.470802048e-12
-2.948851703e-12
9.165635789e-06
-1.475137583e-10