/*--------------------------------*- C++ -*----------------------------------*\
| =========                 |                                                 |
| \\      /  F ield         | OpenFOAM: The Open Source CFD Toolbox           |
|  \\    /   O peration     | Version:  4.x                                   |
|   \\  /    A nd           | Web:      www.OpenFOAM.org                      |
|    \\/     M anipulation  |                                                 |
\*---------------------------------------------------------------------------*/
FoamFile
{
    version     2.0;
    format      ascii;
    class       volScalarField;
    location    "8000";
    object      rho;
}
// * * * * * * * * * * * * * * * * * * * * * * * * * * * * * * * * * * * * * //

dimensions      [1 -3 0 0 0 0 0];

internalField   nonuniform List<scalar> 
1174
(
0.269963588
0.2699638197
0.2699641252
0.2699645079
0.2699649472
0.2699654783
0.269966033
0.26996665
0.2699672965
0.2699679316
0.26996858
0.2699691914
0.2699697369
0.2699702024
0.2699633619
0.2699636706
0.2699641227
0.2699646292
0.2699652273
0.2699658904
0.2699665402
0.2699671889
0.2699679013
0.2699685685
0.2699692336
0.2699698276
0.2699703933
0.2699707972
0.2699650223
0.2699655952
0.2699663044
0.2699670676
0.2699678798
0.2699687237
0.2699695493
0.2699702892
0.2699709698
0.269971624
0.2699721821
0.2699727146
0.2699731564
0.269973477
0.26996491
0.2699657988
0.2699667843
0.2699677901
0.2699688193
0.2699697443
0.269970647
0.2699714331
0.2699721105
0.2699727004
0.2699732575
0.2699737308
0.2699740916
0.269974365
0.2699653475
0.2699663835
0.2699674701
0.2699685947
0.2699696407
0.2699706466
0.2699715105
0.269972291
0.2699730026
0.269973591
0.2699741036
0.2699745
0.2699748254
0.2699750517
0.269964289
0.2699651759
0.2699661331
0.2699672152
0.2699682331
0.2699692447
0.2699701471
0.2699709209
0.2699716199
0.2699722011
0.2699727437
0.2699731738
0.2699734987
0.2699737367
0.2699642589
0.2699648349
0.2699655098
0.269966292
0.2699671225
0.2699679347
0.2699687208
0.2699695068
0.2699701959
0.2699708447
0.2699714069
0.2699719256
0.2699723797
0.2699727135
0.2699639261
0.2699642147
0.2699645946
0.2699651371
0.2699657109
0.2699663484
0.2699670644
0.2699677337
0.2699684265
0.2699690711
0.2699697178
0.2699702995
0.2699708063
0.2699712512
0.2699634519
0.2699636691
0.2699639787
0.2699643499
0.2699648215
0.2699653689
0.2699658984
0.2699665371
0.2699671597
0.2699678065
0.2699684503
0.2699690589
0.2699696574
0.2699701078
0.2699626223
0.2699628201
0.2699631218
0.2699635444
0.2699641066
0.2699646942
0.269965363
0.2699660495
0.2699667564
0.269967427
0.2699680758
0.2699686965
0.2699693121
0.2699698273
0.2699702319
0.2699637163
0.2699642889
0.2699649999
0.2699657121
0.2699664717
0.2699672571
0.269968002
0.2699687459
0.269969393
0.269970049
0.2699706019
0.2699711289
0.2699715616
0.2699719018
0.2699650377
0.2699661566
0.2699672921
0.269968447
0.2699695231
0.2699704294
0.2699712092
0.2699719009
0.2699724873
0.2699730333
0.2699734121
0.2699737613
0.2699740172
0.2699742056
0.269967102
0.2699688604
0.269970498
0.269971917
0.2699730739
0.2699739763
0.2699745956
0.2699751359
0.2699755357
0.2699757751
0.2699759273
0.2699760612
0.2699761897
0.2699762678
0.2699669541
0.2699690817
0.2699707878
0.2699721627
0.2699731957
0.2699739311
0.2699744411
0.2699748105
0.2699750282
0.2699751622
0.269975229
0.2699752643
0.2699752911
0.2699752147
0.2699661333
0.2699678915
0.2699695338
0.2699709292
0.2699720897
0.2699730011
0.2699736586
0.2699741739
0.2699745519
0.2699748227
0.2699749986
0.2699751342
0.2699752074
0.2699751941
0.269964745
0.2699657988
0.2699669471
0.269968078
0.2699691064
0.2699700097
0.2699708248
0.2699715143
0.2699720764
0.2699726027
0.2699730195
0.2699733492
0.269973643
0.2699738574
0.2699639243
0.2699644692
0.2699651355
0.2699659246
0.2699667597
0.2699675209
0.2699682574
0.2699689517
0.2699696735
0.2699702978
0.2699708616
0.2699713317
0.269971802
0.269972126
0.2699629273
0.2699632617
0.2699636859
0.2699641912
0.2699647956
0.2699654408
0.2699661443
0.2699668176
0.2699675134
0.2699681727
0.2699687789
0.2699693727
0.2699698936
0.2699702978
0.269964135
0.2699645442
0.269965182
0.2699658738
0.2699666409
0.2699674692
0.2699683148
0.2699690959
0.2699698946
0.2699706119
0.2699712531
0.2699718775
0.2699723562
0.2699728181
0.2699731753
0.2699643393
0.2699652429
0.2699662718
0.2699674346
0.2699685896
0.2699696674
0.2699706026
0.26997141
0.2699721359
0.2699727196
0.2699731829
0.269973587
0.2699739061
0.269974217
0.2699744435
0.2699670399
0.2699692443
0.2699711963
0.2699728078
0.2699739719
0.2699747939
0.269975309
0.2699756798
0.2699758588
0.2699759073
0.2699759422
0.2699758838
0.2699757956
0.2699757236
0.269975646
0.2699792655
0.269981683
0.269983086
0.2699837068
0.2699837572
0.2699835091
0.2699830757
0.2699825629
0.2699820432
0.2699814881
0.2699810052
0.2699805243
0.2699801453
0.2699823698
0.2699859112
0.2699873631
0.2699875275
0.2699870171
0.2699861294
0.2699851298
0.2699841334
0.2699831381
0.2699822678
0.2699814169
0.2699806819
0.2699800146
0.269979496
0.2699756991
0.2699792938
0.269981725
0.2699831484
0.2699838124
0.2699838817
0.2699836068
0.2699831988
0.2699826476
0.2699820961
0.2699815188
0.2699809878
0.2699805383
0.2699802532
0.2699699341
0.2699721551
0.2699741058
0.2699757323
0.2699769451
0.2699777726
0.2699783472
0.2699786686
0.2699788387
0.269978936
0.2699789357
0.2699789342
0.269978874
0.269978791
0.2699641969
0.2699652732
0.2699663947
0.2699675416
0.2699685734
0.2699694992
0.2699702975
0.2699709661
0.2699715088
0.269971996
0.2699723728
0.2699726913
0.2699729369
0.2699731273
0.269964006
0.2699645934
0.2699653223
0.2699661275
0.2699669529
0.2699677769
0.2699686116
0.2699693903
0.269970061
0.2699706794
0.2699712875
0.2699718143
0.2699722483
0.2699726221
0.2699651169
0.2699658131
0.2699667038
0.2699676693
0.2699686989
0.2699697348
0.2699707198
0.2699715928
0.2699723424
0.2699730586
0.2699736506
0.2699741585
0.2699746274
0.269975011
0.2699752427
0.2699642351
0.2699658618
0.2699676085
0.2699691767
0.2699706378
0.269971803
0.269972683
0.2699733237
0.2699738459
0.2699742015
0.2699744847
0.2699746403
0.2699747473
0.2699748614
0.2699748931
0.2699689019
0.2699734712
0.2699770915
0.2699795701
0.2699809973
0.2699816088
0.2699816905
0.269981439
0.2699809742
0.2699804204
0.2699799062
0.2699793482
0.2699788054
0.2699783082
0.2699778959
0.2699949392
0.2699992781
0.2699997962
0.269998304
0.2699959322
0.2699933415
0.2699908257
0.2699885213
0.2699864798
0.2699847181
0.2699832116
0.269981891
0.269980792
0.2699799698
0.2700413337
0.2700350869
0.270025981
0.2700174532
0.2700102188
0.2700043855
0.2699997202
0.2699959745
0.2699928902
0.2699904201
0.2699883301
0.2699866633
0.2699852648
0.2699842557
0.2699988698
0.2700032643
0.2700037917
0.2700022704
0.2699999212
0.2699972757
0.2699947182
0.2699924443
0.2699904253
0.2699886923
0.2699871691
0.2699858937
0.269984779
0.2699839779
0.2699737109
0.2699773316
0.2699798336
0.2699812292
0.2699818372
0.2699819087
0.2699816993
0.2699812529
0.2699807543
0.2699802306
0.2699796661
0.2699791583
0.2699787041
0.2699783491
0.2699672465
0.2699689438
0.2699705778
0.2699720195
0.2699731629
0.2699740858
0.2699747254
0.2699752513
0.2699756188
0.2699758622
0.2699760366
0.269976203
0.2699763004
0.2699763628
0.2699641893
0.2699650667
0.2699660208
0.2699670433
0.269968052
0.2699690128
0.2699699163
0.2699706982
0.2699713904
0.2699720083
0.2699724864
0.2699728913
0.2699732617
0.2699735363
0.269964523
0.269965343
0.2699663904
0.2699675375
0.2699686052
0.2699696958
0.2699706836
0.2699715728
0.2699723403
0.2699729923
0.2699735675
0.2699740544
0.2699744674
0.2699747974
0.2699749975
0.269965741
0.269967956
0.269970011
0.2699717536
0.2699731116
0.2699740981
0.2699748293
0.2699753433
0.2699756406
0.2699758782
0.2699759727
0.2699760001
0.26997601
0.2699760204
0.2699759988
0.2699768189
0.2699832787
0.2699868168
0.2699882548
0.2699884225
0.2699878651
0.2699869507
0.2699859487
0.2699849372
0.2699839208
0.2699830272
0.2699821649
0.2699814084
0.269980759
0.2699802558
0.2700345691
0.2700418613
0.2700357003
0.2700265951
0.2700180545
0.2700108275
0.270004979
0.27000027
0.2699965062
0.2699934645
0.2699909433
0.2699888829
0.2699871727
0.2699857787
0.2699848034
0.2711205309
0.2710246111
0.2709722589
0.2709421148
0.2709237696
0.2709120451
0.2709042312
0.2708987631
0.2708948405
0.2708920138
0.2708898624
0.2708883129
0.2708872159
0.2708866548
0.2700419638
0.2700357706
0.2700266822
0.2700181466
0.2700109377
0.2700051008
0.2700003975
0.2699966019
0.2699935368
0.2699910333
0.2699889857
0.269987302
0.269985917
0.2699849241
0.2699844737
0.269988022
0.2699894019
0.2699895962
0.2699890558
0.269988156
0.2699871597
0.2699861199
0.2699850784
0.269984142
0.2699833243
0.2699825603
0.2699818982
0.2699814346
0.269969709
0.2699717595
0.2699734963
0.2699748407
0.2699758972
0.2699766118
0.2699771447
0.2699774867
0.2699777484
0.2699778591
0.2699779138
0.2699779282
0.269977902
0.2699778571
0.2699652152
0.2699662529
0.2699674022
0.2699684907
0.2699695432
0.2699705005
0.2699713773
0.2699722154
0.2699728859
0.2699734096
0.2699738559
0.2699742657
0.2699746107
0.269974882
0.2699625927
0.2699632954
0.2699641557
0.269965102
0.2699661555
0.2699671789
0.2699681754
0.2699690346
0.2699698384
0.269970601
0.2699711848
0.2699717188
0.2699721648
0.2699725154
0.2699727631
0.2699653076
0.2699669595
0.2699687151
0.2699703734
0.269971766
0.2699729195
0.2699737903
0.269974497
0.2699750554
0.2699754262
0.2699757146
0.2699758773
0.269975971
0.2699760608
0.269976098
0.2699698277
0.2699743341
0.2699780426
0.2699805082
0.2699818798
0.2699824988
0.2699825713
0.2699823581
0.2699819425
0.2699813813
0.2699808368
0.2699803478
0.2699798353
0.2699793705
0.2699789926
0.2699875956
0.2699978284
0.2700021192
0.2700026576
0.27000115
0.2699987489
0.2699961908
0.2699936685
0.2699913594
0.269989297
0.2699875557
0.2699859971
0.2699847228
0.2699836373
0.2699828294
0.2700333666
0.2700405702
0.2700343719
0.2700253112
0.2700167446
0.2700095131
0.2700036425
0.2699989425
0.2699951856
0.2699921498
0.269989659
0.2699875858
0.26998589
0.269984472
0.2699834778
0.2699854559
0.2699956841
0.270000051
0.2700005552
0.2699990886
0.2699967546
0.2699941493
0.2699916626
0.2699893689
0.2699873053
0.2699855622
0.2699840098
0.2699827031
0.2699816521
0.2699809118
0.2699744541
0.2699780935
0.2699805317
0.2699819496
0.2699824962
0.2699825733
0.2699823586
0.2699819466
0.2699814567
0.2699808794
0.2699803209
0.2699798279
0.2699793437
0.2699790856
0.2699672044
0.2699689827
0.269970634
0.2699720414
0.2699731895
0.2699741409
0.2699748317
0.269975368
0.2699757515
0.2699760554
0.2699762329
0.2699763638
0.2699764536
0.2699764833
0.2699644057
0.2699652527
0.2699662424
0.2699672871
0.2699683114
0.2699692519
0.2699701707
0.2699709334
0.2699716272
0.2699722342
0.2699727745
0.2699731865
0.2699735558
0.2699737884
0.2699642618
0.2699646763
0.2699652053
0.269965909
0.2699666567
0.2699674611
0.269968322
0.269969081
0.2699698362
0.2699705453
0.2699711704
0.2699717386
0.2699722599
0.2699727169
0.2699730222
0.269963805
0.2699646942
0.2699657094
0.2699668871
0.2699680123
0.269969034
0.2699699999
0.2699707909
0.2699715088
0.2699720863
0.2699725803
0.2699730417
0.2699733964
0.2699736688
0.2699738045
0.2699669535
0.2699690776
0.2699712308
0.2699732205
0.2699748079
0.2699760086
0.2699768776
0.2699773737
0.2699777117
0.2699778962
0.2699779994
0.2699779637
0.2699779013
0.2699778439
0.2699777892
0.2699712036
0.269975731
0.2699793918
0.2699818073
0.2699831977
0.2699838228
0.2699839375
0.2699836969
0.2699832403
0.2699827227
0.2699821864
0.269981629
0.2699810699
0.2699806414
0.2699803193
0.2699753266
0.2699818015
0.2699853155
0.2699867687
0.2699869502
0.2699864074
0.2699855319
0.2699845482
0.2699835661
0.2699825443
0.2699816417
0.269980796
0.2699800514
0.2699793792
0.2699788993
0.2699704115
0.2699749476
0.2699785636
0.2699809932
0.2699824021
0.2699830108
0.2699831191
0.2699828565
0.2699824389
0.2699818751
0.269981332
0.2699807832
0.2699802818
0.269979837
0.2699794669
0.269966137
0.269968231
0.2699704456
0.2699724049
0.2699739788
0.2699751721
0.2699760388
0.2699766237
0.2699769317
0.2699770828
0.2699771583
0.2699771688
0.269977127
0.2699770856
0.2699769958
0.2699646213
0.2699656498
0.2699667863
0.2699678858
0.2699689644
0.2699698649
0.269970662
0.2699713419
0.2699719436
0.2699724497
0.2699728928
0.2699732468
0.2699735245
0.2699737625
0.2699641664
0.2699647508
0.2699654294
0.2699662641
0.269967064
0.2699679251
0.2699687298
0.2699695089
0.2699702204
0.2699708638
0.2699714668
0.2699720166
0.2699724891
0.2699728531
0.2699637539
0.2699639598
0.2699642824
0.269964709
0.2699652518
0.2699658697
0.2699664802
0.2699671479
0.2699678099
0.2699684641
0.2699690731
0.2699697069
0.2699702899
0.2699707938
0.2699712009
0.2699640039
0.269964388
0.2699649789
0.2699656847
0.2699664271
0.2699672359
0.2699680027
0.2699687698
0.2699694714
0.2699701325
0.269970761
0.2699713445
0.2699718255
0.2699722687
0.2699725609
0.2699633198
0.2699642112
0.2699653067
0.2699664578
0.2699675581
0.2699686129
0.2699695192
0.2699702982
0.2699710403
0.2699716366
0.2699721879
0.2699725808
0.2699729344
0.2699732004
0.2699734365
0.2699642085
0.2699658396
0.2699675899
0.269969277
0.2699707172
0.2699718523
0.2699727485
0.2699734543
0.2699740009
0.2699743647
0.2699746412
0.2699748697
0.2699749914
0.2699750509
0.2699751258
0.2699664342
0.269968662
0.2699707385
0.2699724268
0.2699738067
0.26997481
0.2699755232
0.2699760835
0.2699764441
0.2699766812
0.269976818
0.2699768636
0.2699768541
0.269976843
0.2699768051
0.269964038
0.2699656999
0.269967416
0.2699690838
0.2699704665
0.2699716247
0.269972546
0.2699732292
0.2699737088
0.2699740839
0.2699743226
0.2699745115
0.2699746531
0.2699747167
0.2699747215
0.2699648274
0.2699657006
0.2699667654
0.2699678916
0.2699690243
0.2699700539
0.2699709744
0.2699717689
0.2699724653
0.2699730531
0.269973542
0.2699739887
0.2699743215
0.2699745825
0.2699748198
0.2699640452
0.2699644582
0.2699649976
0.2699656971
0.2699665021
0.2699673032
0.2699681097
0.2699688795
0.2699695819
0.2699702618
0.2699708721
0.2699714433
0.2699719141
0.2699723546
0.2699727077
0.2699630398
0.269963373
0.2699638214
0.2699643415
0.2699649506
0.2699656025
0.2699662495
0.2699669398
0.2699675861
0.2699682547
0.2699689057
0.2699695176
0.2699700721
0.269970502
0.2699636845
0.26996383
0.2699640241
0.2699643179
0.2699646852
0.2699651521
0.2699656583
0.269966226
0.2699668213
0.269967469
0.2699681047
0.2699687284
0.2699693747
0.2699699306
0.2699703658
0.2699633825
0.2699636049
0.2699639448
0.2699643606
0.2699648733
0.2699654515
0.269966106
0.26996677
0.2699675074
0.2699682005
0.2699689043
0.2699695184
0.2699700806
0.2699706545
0.2699710241
0.2699634027
0.2699638497
0.2699644157
0.2699650787
0.269965851
0.2699667286
0.2699675529
0.2699683985
0.2699691543
0.2699698529
0.269970482
0.2699710687
0.2699715665
0.2699720169
0.2699723887
0.269963577
0.2699642328
0.269965073
0.2699660386
0.2699670608
0.2699680711
0.2699690161
0.2699699073
0.2699706508
0.269971326
0.2699719495
0.2699724726
0.2699728996
0.2699732448
0.2699735082
0.2699646761
0.2699655729
0.2699666242
0.2699677236
0.2699688714
0.2699699602
0.2699709524
0.2699718349
0.2699725888
0.2699732571
0.2699737972
0.2699742452
0.2699746732
0.269974991
0.269975164
0.2699643372
0.2699650225
0.2699658598
0.2699668382
0.2699678753
0.2699688555
0.2699698576
0.2699706888
0.2699714799
0.2699721766
0.2699727941
0.2699733188
0.2699737438
0.2699740923
0.2699743699
0.2699656517
0.2699660407
0.2699665915
0.2699672875
0.2699680613
0.2699688646
0.2699696611
0.2699704402
0.2699712564
0.2699719591
0.269972597
0.2699731684
0.2699736946
0.2699741759
0.2699744983
0.2699632851
0.2699634829
0.2699638302
0.2699642728
0.2699648018
0.2699654169
0.2699660578
0.2699667574
0.2699674549
0.2699681445
0.2699688062
0.2699694025
0.2699700083
0.2699705422
0.2699709608
0.2699629593
0.2699630932
0.2699633043
0.2699635844
0.269963954
0.2699644106
0.2699649585
0.2699655315
0.2699661362
0.269966795
0.2699674021
0.269968052
0.2699686566
0.2699692193
0.269969675
)
;

boundaryField
{
    top
    {
        type            calculated;
        value           nonuniform List<scalar> 
127
(
0.2699629593
0.2699634519
0.2699629273
0.269964006
0.2699641893
0.2699652152
0.2699644057
0.2699641664
0.2699630398
0.2699630932
0.2699636691
0.2699632617
0.2699645934
0.2699650667
0.2699662529
0.2699652527
0.2699647508
0.269963373
0.2699633043
0.2699639787
0.2699636859
0.2699653223
0.2699660208
0.2699674022
0.2699662424
0.2699654294
0.2699638214
0.2699635844
0.2699643499
0.2699641912
0.2699661275
0.2699670433
0.2699684907
0.2699672871
0.2699662641
0.2699643415
0.269963954
0.2699648215
0.2699647956
0.2699669529
0.269968052
0.2699695432
0.2699683114
0.269967064
0.2699649506
0.2699644106
0.2699653689
0.2699654408
0.2699677769
0.2699690128
0.2699705005
0.2699692519
0.2699679251
0.2699656025
0.2699649585
0.2699658984
0.2699661443
0.2699686116
0.2699699163
0.2699713773
0.2699701707
0.2699687298
0.2699662495
0.2699655315
0.2699665371
0.2699668176
0.2699693903
0.2699706982
0.2699722154
0.2699709334
0.2699695089
0.2699669398
0.2699661362
0.2699671597
0.2699675134
0.269970061
0.2699713904
0.2699728859
0.2699716272
0.2699702204
0.2699675861
0.269966795
0.2699678065
0.2699681727
0.2699706794
0.2699720083
0.2699734096
0.2699722342
0.2699708638
0.2699682547
0.2699674021
0.2699684503
0.2699687789
0.2699712875
0.2699724864
0.2699738559
0.2699727745
0.2699714668
0.2699689057
0.269968052
0.2699690589
0.2699693727
0.2699718143
0.2699728913
0.2699742657
0.2699731865
0.2699720166
0.2699695176
0.2699686566
0.2699696574
0.2699698936
0.2699722483
0.2699732617
0.2699746107
0.2699735558
0.2699724891
0.2699700721
0.2699692193
0.2699701078
0.2699702978
0.2699726221
0.2699735363
0.269974882
0.2699737884
0.2699728531
0.269970502
0.269969675
)
;
    }
    bottom
    {
        type            calculated;
        value           nonuniform List<scalar> 
134
(
0.2699626223
0.269964135
0.2699651169
0.269964523
0.2699625927
0.2699642618
0.2699637539
0.2699636845
0.269963588
0.2699628201
0.2699645442
0.2699658131
0.269965343
0.2699632954
0.2699646763
0.2699639598
0.26996383
0.2699638197
0.2699631218
0.269965182
0.2699667038
0.2699663904
0.2699641557
0.2699652053
0.2699642824
0.2699640241
0.2699641252
0.2699635444
0.2699658738
0.2699676693
0.2699675375
0.269965102
0.269965909
0.269964709
0.2699643179
0.2699645079
0.2699641066
0.2699666409
0.2699686989
0.2699686052
0.2699661555
0.2699666567
0.2699652518
0.2699646852
0.2699649472
0.2699646942
0.2699674692
0.2699697348
0.2699696958
0.2699671789
0.2699674611
0.2699658697
0.2699651521
0.2699654783
0.269965363
0.2699683148
0.2699707198
0.2699706836
0.2699681754
0.269968322
0.2699664802
0.2699656583
0.269966033
0.2699660495
0.2699690959
0.2699715928
0.2699715728
0.2699690346
0.269969081
0.2699671479
0.269966226
0.26996665
0.2699667564
0.2699698946
0.2699723424
0.2699723403
0.2699698384
0.2699698362
0.2699678099
0.2699668213
0.2699672965
0.269967427
0.2699706119
0.2699730586
0.2699729923
0.269970601
0.2699705453
0.2699684641
0.269967469
0.2699679316
0.2699680758
0.2699712531
0.2699736506
0.2699735675
0.2699711848
0.2699711704
0.2699690731
0.2699681047
0.26996858
0.2699686965
0.2699718775
0.2699741585
0.2699740544
0.2699717188
0.2699717386
0.2699697069
0.2699687284
0.2699691914
0.2699693121
0.2699723562
0.2699746274
0.2699744674
0.2699721648
0.2699722599
0.2699702899
0.2699693747
0.2699697369
0.2699698273
0.2699728181
0.269975011
0.2699747974
0.2699725154
0.2699727169
0.2699707938
0.2699699306
0.2699702024
0.2699702319
0.2699731753
0.2699752427
0.2699749975
0.2699727631
0.2699730222
0.2699712009
0.2699703658
)
;
    }
    side-walls
    {
        type            calculated;
        value           nonuniform List<scalar> 
261
(
0.269963588
0.2699633619
0.2699650223
0.26996491
0.2699653475
0.269964289
0.2699642589
0.2699639261
0.2699634519
0.2699638197
0.2699636706
0.2699655952
0.2699657988
0.2699663835
0.2699651759
0.2699648349
0.2699642147
0.2699636691
0.2699641252
0.2699641227
0.2699663044
0.2699667843
0.2699674701
0.2699661331
0.2699655098
0.2699645946
0.2699639787
0.2699645079
0.2699646292
0.2699670676
0.2699677901
0.2699685947
0.2699672152
0.269966292
0.2699651371
0.2699643499
0.2699649472
0.2699652273
0.2699678798
0.2699688193
0.2699696407
0.2699682331
0.2699671225
0.2699657109
0.2699648215
0.2699654783
0.2699658904
0.2699687237
0.2699697443
0.2699706466
0.2699692447
0.2699679347
0.2699663484
0.2699653689
0.269966033
0.2699665402
0.2699695493
0.269970647
0.2699715105
0.2699701471
0.2699687208
0.2699670644
0.2699658984
0.26996665
0.2699671889
0.2699702892
0.2699714331
0.269972291
0.2699709209
0.2699695068
0.2699677337
0.2699665371
0.2699672965
0.2699679013
0.2699709698
0.2699721105
0.2699730026
0.2699716199
0.2699701959
0.2699684265
0.2699671597
0.2699679316
0.2699685685
0.269971624
0.2699727004
0.269973591
0.2699722011
0.2699708447
0.2699690711
0.2699678065
0.26996858
0.2699692336
0.2699721821
0.2699732575
0.2699741036
0.2699727437
0.2699714069
0.2699697178
0.2699684503
0.2699691914
0.2699698276
0.2699727146
0.2699737308
0.2699745
0.2699731738
0.2699719256
0.2699702995
0.2699690589
0.2699697369
0.2699703933
0.2699731564
0.2699740916
0.2699748254
0.2699734987
0.2699723797
0.2699708063
0.2699696574
0.2699702024
0.2699707972
0.269973477
0.269974365
0.2699750517
0.2699737367
0.2699727135
0.2699712512
0.2699701078
0.2699636845
0.2699633825
0.2699634027
0.269963577
0.2699646761
0.2699643372
0.2699656517
0.2699632851
0.2699629593
0.26996383
0.2699636049
0.2699638497
0.2699642328
0.2699655729
0.2699650225
0.2699660407
0.2699634829
0.2699630932
0.2699640241
0.2699639448
0.2699644157
0.269965073
0.2699666242
0.2699658598
0.2699665915
0.2699638302
0.2699633043
0.2699643179
0.2699643606
0.2699650787
0.2699660386
0.2699677236
0.2699668382
0.2699672875
0.2699642728
0.2699635844
0.2699646852
0.2699648733
0.269965851
0.2699670608
0.2699688714
0.2699678753
0.2699680613
0.2699648018
0.269963954
0.2699651521
0.2699654515
0.2699667286
0.2699680711
0.2699699602
0.2699688555
0.2699688646
0.2699654169
0.2699644106
0.2699656583
0.269966106
0.2699675529
0.2699690161
0.2699709524
0.2699698576
0.2699696611
0.2699660578
0.2699649585
0.269966226
0.26996677
0.2699683985
0.2699699073
0.2699718349
0.2699706888
0.2699704402
0.2699667574
0.2699655315
0.2699668213
0.2699675074
0.2699691543
0.2699706508
0.2699725888
0.2699714799
0.2699712564
0.2699674549
0.2699661362
0.269967469
0.2699682005
0.2699698529
0.269971326
0.2699732571
0.2699721766
0.2699719591
0.2699681445
0.269966795
0.2699681047
0.2699689043
0.269970482
0.2699719495
0.2699737972
0.2699727941
0.269972597
0.2699688062
0.2699674021
0.2699687284
0.2699695184
0.2699710687
0.2699724726
0.2699742452
0.2699733188
0.2699731684
0.2699694025
0.269968052
0.2699693747
0.2699700806
0.2699715665
0.2699728996
0.2699746732
0.2699737438
0.2699736946
0.2699700083
0.2699686566
0.2699699306
0.2699706545
0.2699720169
0.2699732448
0.269974991
0.2699740923
0.2699741759
0.2699705422
0.2699692193
0.2699703658
0.2699710241
0.2699723887
0.2699735082
0.269975164
0.2699743699
0.2699744983
0.2699709608
0.269969675
)
;
    }
    inlet
    {
        type            calculated;
        value           nonuniform 0();
    }
    outlet
    {
        type            calculated;
        value           nonuniform List<scalar> 
81
(
0.2699702024
0.2699707972
0.269973477
0.269974365
0.2699750517
0.2699737367
0.2699727135
0.2699712512
0.2699701078
0.2699702319
0.2699719018
0.2699742056
0.2699762678
0.2699752147
0.2699751941
0.2699738574
0.269972126
0.2699702978
0.2699731753
0.2699744435
0.2699757236
0.2699801453
0.269979496
0.2699802532
0.269978791
0.2699731273
0.2699726221
0.2699752427
0.2699748931
0.2699778959
0.2699799698
0.2699842557
0.2699839779
0.2699783491
0.2699763628
0.2699735363
0.2699749975
0.2699759988
0.2699802558
0.2699848034
0.2708866548
0.2699849241
0.2699814346
0.2699778571
0.269974882
0.2699727631
0.269976098
0.2699789926
0.2699828294
0.2699834778
0.2699809118
0.2699790856
0.2699764833
0.2699737884
0.2699730222
0.2699738045
0.2699777892
0.2699803193
0.2699788993
0.2699794669
0.2699769958
0.2699737625
0.2699728531
0.2699712009
0.2699725609
0.2699734365
0.2699751258
0.2699768051
0.2699747215
0.2699748198
0.2699727077
0.269970502
0.2699703658
0.2699710241
0.2699723887
0.2699735082
0.269975164
0.2699743699
0.2699744983
0.2699709608
0.269969675
)
;
    }
    procBoundary1to0
    {
        type            processor;
        value           nonuniform List<scalar> 
97
(
0.2699634106
0.2699634106
0.2699631362
0.2699645525
0.2699642642
0.2699644542
0.269963641
0.2699638529
0.2699636867
0.2699633193
0.2699625042
0.2699633636
0.2699633636
0.2699633636
0.2699641443
0.269965455
0.2699647609
0.2699644747
0.2699638356
0.2699635296
0.2699626796
0.2699638755
0.2699637912
0.2699649403
0.2699649403
0.2699649403
0.2699710887
0.2699759311
0.2699711876
0.2699678191
0.2699633289
0.2699635646
0.2699646798
0.2699630403
0.2699646579
0.2699847213
0.2699847213
0.2699847213
0.2700340287
0.269988619
0.2699691904
0.2699655475
0.2699634976
0.2699639036
0.2699638569
0.2699680792
0.2699829618
0.2713070427
0.2713070427
0.2713070427
0.2700347254
0.2700347254
0.2699780185
0.2699674948
0.2699643617
0.2699621874
0.2699641245
0.2699655764
0.2699721681
0.2699817763
0.2699699918
0.2699699104
0.2699699104
0.2699699104
0.2699655977
0.26996371
0.2699639773
0.269963237
0.26996533
0.2699669699
0.2699665521
0.2699662068
0.2699645188
0.2699637499
0.2699637499
0.2699637499
0.2699637818
0.2699636151
0.2699637414
0.2699627098
0.2699629943
0.269964544
0.2699628067
0.2699642449
0.2699638016
0.2699628349
0.2699628349
0.2699628349
0.2699636174
0.2699632628
0.2699631357
0.2699631073
0.2699641083
0.2699638702
0.2699653847
0.2699631248
0.2699629314
)
;
    }
}


// ************************************************************************* //
