/*--------------------------------*- C++ -*----------------------------------*\
| =========                 |                                                 |
| \\      /  F ield         | OpenFOAM: The Open Source CFD Toolbox           |
|  \\    /   O peration     | Version:  4.x                                   |
|   \\  /    A nd           | Web:      www.OpenFOAM.org                      |
|    \\/     M anipulation  |                                                 |
\*---------------------------------------------------------------------------*/
FoamFile
{
    version     2.0;
    format      ascii;
    class       volVectorField;
    location    "8000";
    object      U;
}
// * * * * * * * * * * * * * * * * * * * * * * * * * * * * * * * * * * * * * //

dimensions      [0 1 -1 0 0 0 0];

internalField   nonuniform List<vector> 
1174
(
(0.01100025158 -7.893207975e-09 -7.356294147e-09)
(0.01100026825 -7.003166669e-09 -7.231813127e-09)
(0.01100028811 -2.986219261e-09 -4.694243865e-09)
(0.01100028674 -3.692118581e-09 -4.892127543e-09)
(0.01100027755 -9.32352619e-10 -2.063170182e-09)
(0.01100025351 -9.318193726e-10 -2.396325063e-10)
(0.0110002286 -1.245644518e-10 1.898547311e-09)
(0.01100019864 1.722612067e-09 2.894054347e-09)
(0.01100016586 5.641662758e-10 2.404611411e-09)
(0.01100012651 -1.132500421e-09 6.387701257e-09)
(0.011000094 2.843834545e-10 4.770332017e-09)
(0.01100005661 3.506695027e-09 5.148796559e-09)
(0.01100002629 4.060154625e-09 3.914199269e-09)
(0.01099998881 3.094525537e-09 3.547564232e-09)
(0.01100026224 -3.305558329e-08 -7.662624581e-09)
(0.01100026616 -2.840534583e-08 -1.020035086e-08)
(0.0110002772 -1.768330384e-08 -6.762889959e-09)
(0.0110002645 -9.496269324e-09 -3.664507975e-09)
(0.01100024276 -4.631493936e-09 -1.894973975e-10)
(0.01100021073 4.158076359e-11 2.190346288e-09)
(0.0110001777 2.942725703e-09 3.35144966e-09)
(0.0110001447 4.734070228e-09 4.470285971e-09)
(0.01100010269 6.975191307e-09 3.845842982e-09)
(0.01100006672 7.889089653e-09 5.927760477e-09)
(0.01100003117 9.708536441e-09 5.066745068e-09)
(0.01099999407 8.402961697e-09 3.82595089e-09)
(0.01099996382 9.598968069e-09 4.150784928e-09)
(0.01099993179 7.760046529e-09 5.659825087e-09)
(0.01100028854 -2.563073222e-08 -1.4376724e-08)
(0.01100026239 -2.416784848e-08 -1.425169439e-08)
(0.01100025751 -1.35631113e-08 -7.143887934e-09)
(0.01100022053 -6.228363902e-09 -2.400189888e-09)
(0.01100017807 -3.318159093e-10 4.067354202e-09)
(0.01100013016 2.921617432e-09 3.378911665e-09)
(0.01100008135 7.746824073e-09 2.509536815e-09)
(0.0110000394 8.210336794e-09 3.325924623e-09)
(0.01099999923 1.164601117e-08 2.767301063e-09)
(0.0109999605 1.101967803e-08 4.055545564e-09)
(0.01099992874 1.363725694e-08 2.195364102e-09)
(0.01099989499 1.012221021e-08 2.529086423e-09)
(0.01099986825 1.234021925e-08 3.009798517e-09)
(0.01099984194 1.049578741e-08 3.526676626e-09)
(0.01100030338 -3.13911579e-08 -1.070551072e-09)
(0.01100022342 -1.826450683e-08 -1.808556904e-08)
(0.01100020516 -4.330310539e-09 -8.638036056e-09)
(0.01100015084 4.775284806e-09 1.043107276e-09)
(0.01100009183 5.775409411e-09 3.194207174e-09)
(0.01100003462 8.985076453e-09 7.868727078e-09)
(0.01099998088 8.190052744e-09 8.780430602e-09)
(0.0109999349 8.357669033e-09 9.5107486e-09)
(0.01099989546 7.627557475e-09 8.005131742e-09)
(0.01099986157 8.174065769e-09 8.354655012e-09)
(0.0109998285 8.589556503e-09 5.753698408e-09)
(0.01099980266 6.809458337e-09 6.089899384e-09)
(0.01099978257 5.934568618e-09 4.331106458e-09)
(0.01099976374 6.450631003e-09 3.342050609e-09)
(0.01100038301 -1.076050191e-09 6.790572978e-09)
(0.01100022904 2.043379946e-10 -4.719290701e-09)
(0.01100018567 -1.283123994e-09 6.020763799e-09)
(0.01100011344 5.513865068e-10 9.969637129e-09)
(0.01100004482 1.602971945e-09 1.04823859e-08)
(0.01099998212 4.428614648e-10 1.002454314e-08)
(0.01099993193 2.005472843e-09 9.244679788e-09)
(0.01099988596 1.987634988e-09 7.814137698e-09)
(0.0109998452 6.585123602e-10 7.246623817e-09)
(0.01099981439 1.169513538e-09 8.190688907e-09)
(0.01099978413 3.390578009e-10 6.337962104e-09)
(0.01099976437 3.540864492e-10 4.491383847e-09)
(0.01099974798 6.261341456e-10 4.880237681e-09)
(0.01099973465 1.428382491e-09 2.310866883e-09)
(0.01100030138 3.223839563e-08 -3.380941349e-09)
(0.01100022276 1.740209056e-08 -1.704532309e-08)
(0.01100020852 4.932616912e-09 -6.018462014e-09)
(0.0110001495 -4.368522563e-09 1.634756397e-09)
(0.01100009372 -8.195529075e-09 6.167271138e-09)
(0.01100003228 -8.313215487e-09 8.21694929e-09)
(0.0109999791 -7.524176257e-09 8.288442405e-09)
(0.01099993594 -7.681330392e-09 8.315055114e-09)
(0.01099989464 -6.707314479e-09 8.443365056e-09)
(0.01099985774 -6.026312709e-09 6.977019908e-09)
(0.01099982672 -7.602025752e-09 6.279612615e-09)
(0.0109998016 -4.164142095e-09 5.540679019e-09)
(0.01099978378 -7.438499144e-09 6.860068416e-09)
(0.01099976516 -5.045294978e-09 3.72453987e-09)
(0.0110002912 2.588948994e-08 -1.130750906e-08)
(0.01100026206 2.73683614e-08 -1.548241153e-08)
(0.01100025574 1.503563691e-08 -6.219816621e-09)
(0.01100022054 5.625955179e-09 -1.201800391e-09)
(0.01100017649 1.08917893e-09 2.123502383e-09)
(0.01100013172 -2.954206333e-09 4.669989701e-09)
(0.01100008445 -6.825424087e-09 5.819386141e-09)
(0.01100003887 -7.338136334e-09 7.634354235e-09)
(0.01099999969 -8.615487439e-09 7.230167678e-09)
(0.01099996034 -1.132341454e-08 6.704073433e-09)
(0.01099992473 -1.241050508e-08 6.004186411e-09)
(0.01099989401 -1.13725321e-08 5.232197499e-09)
(0.01099987079 -1.222516402e-08 4.292052993e-09)
(0.01099984654 -9.671994736e-09 3.599611844e-09)
(0.01100026208 3.453674355e-08 -7.334237018e-09)
(0.01100026096 2.712155052e-08 -9.048515924e-09)
(0.01100027763 1.619764028e-08 -5.480285103e-09)
(0.01100026442 8.156043696e-09 -1.813162356e-09)
(0.01100024439 4.412587245e-09 -2.66025327e-09)
(0.01100021618 -2.189774319e-10 9.910032154e-10)
(0.01100017649 -3.138364858e-09 3.915475933e-09)
(0.01100014285 -5.948747814e-09 3.698672961e-09)
(0.01100010274 -6.434614568e-09 5.005167536e-09)
(0.01100006572 -8.750545687e-09 3.530513249e-09)
(0.01100002665 -8.243842158e-09 5.270287809e-09)
(0.01099999238 -1.039285384e-08 3.991274597e-09)
(0.01099996676 -1.122817481e-08 3.930951646e-09)
(0.01099993083 -8.56690993e-09 2.771891507e-09)
(0.011000255 5.583500561e-09 -6.632144039e-09)
(0.01100026724 7.190816669e-09 -8.294388758e-09)
(0.01100028692 6.201542291e-09 -4.980568163e-09)
(0.01100028534 3.812437084e-09 -1.716865558e-09)
(0.01100027622 -5.280835435e-11 -2.679389858e-09)
(0.01100025567 -7.99339002e-10 4.530879031e-10)
(0.01100022993 -1.001383224e-09 1.948149667e-09)
(0.01100019885 -9.627982237e-10 2.835407536e-09)
(0.01100016298 -3.669304721e-09 3.149967446e-09)
(0.01100012885 -2.389860407e-09 3.423029663e-09)
(0.01100009021 -3.401393515e-09 3.907790289e-09)
(0.01100005466 -4.242068081e-09 4.447291832e-09)
(0.0110000236 -2.591934273e-09 3.679573308e-09)
(0.01099998901 -4.203908428e-09 3.43646573e-09)
(0.01100019237 -2.574932237e-08 -6.600932978e-08)
(0.01100026328 -7.313961529e-09 -3.543619008e-08)
(0.01100026437 -8.538338475e-09 -2.833781629e-08)
(0.01100027886 -4.885967198e-09 -1.626750829e-08)
(0.01100026534 2.94309006e-10 -9.123750852e-09)
(0.01100024637 -1.276887167e-09 -2.630561507e-09)
(0.01100021188 1.114641416e-09 4.869659327e-10)
(0.01100017886 2.888349055e-09 3.900913371e-09)
(0.01100014032 4.395935668e-09 6.754157766e-09)
(0.01100010226 2.594838539e-09 7.795375329e-09)
(0.01100006612 3.417084159e-09 8.068492751e-09)
(0.01100003107 2.853862593e-09 1.041002249e-08)
(0.01099999101 3.298094666e-09 9.695256575e-09)
(0.0109999642 5.661433742e-09 9.551258112e-09)
(0.01099993145 6.864810782e-09 7.576417693e-09)
(0.01100027648 -3.761569186e-08 -4.089774916e-08)
(0.01100024765 -3.389106768e-08 -3.547362744e-08)
(0.01100024628 -1.763585138e-08 -1.874306154e-08)
(0.01100021509 -7.552243808e-09 -6.767272024e-09)
(0.0110001762 -4.604137317e-10 -1.317851905e-09)
(0.01100013311 5.458764409e-09 5.46456646e-09)
(0.01100009251 7.76830677e-09 8.632132734e-09)
(0.01100004983 1.010477237e-08 1.129984144e-08)
(0.01100001337 1.157407291e-08 1.234055247e-08)
(0.01099997559 1.176061064e-08 1.18220846e-08)
(0.01099994498 1.169928178e-08 1.364111469e-08)
(0.01099991505 1.122281608e-08 1.20307364e-08)
(0.01099988923 1.162751734e-08 1.096155169e-08)
(0.01099986345 1.148353988e-08 9.458167913e-09)
(0.011000311 -1.908818748e-08 -6.345388573e-08)
(0.01100020274 -3.390333214e-08 -4.791057173e-08)
(0.01100017175 -1.58743262e-08 -1.574044989e-08)
(0.01100009852 -3.370381343e-09 3.834853138e-09)
(0.0110000335 5.688568771e-09 1.149966683e-08)
(0.0109999772 1.321255887e-08 1.754294033e-08)
(0.01099992962 1.578221502e-08 1.960877963e-08)
(0.01099989029 1.505719797e-08 2.033773275e-08)
(0.01099985673 1.563344205e-08 1.949723792e-08)
(0.01099982764 1.538095466e-08 1.732653951e-08)
(0.01099980461 1.654937875e-08 1.649830244e-08)
(0.01099978707 1.310371593e-08 1.412935915e-08)
(0.01099977071 1.506067241e-08 1.32088525e-08)
(0.01099975822 9.552220131e-09 1.118660488e-08)
(0.01100027824 -1.265305183e-08 -3.783294703e-08)
(0.01100005852 -6.662621076e-09 -5.392335401e-08)
(0.01100001279 1.001476295e-08 -6.156981553e-09)
(0.0109999201 1.872856271e-08 1.837873084e-08)
(0.01099984627 1.970125716e-08 2.824754567e-08)
(0.01099978556 1.811637094e-08 3.171868782e-08)
(0.01099974649 1.529074511e-08 3.230975788e-08)
(0.01099971792 1.432675627e-08 3.058665599e-08)
(0.01099969482 1.366179371e-08 2.655711522e-08)
(0.01099968147 1.178144367e-08 2.384860512e-08)
(0.01099967087 9.325914681e-09 2.083782818e-08)
(0.01099966685 9.077808216e-09 1.796801162e-08)
(0.01099966294 7.7867957e-09 1.801538374e-08)
(0.01099966081 6.403041454e-09 1.392283991e-08)
(0.01100041779 1.470899341e-11 2.435936219e-08)
(0.01099997819 -8.646761101e-10 1.592981557e-08)
(0.01099990275 -3.703731157e-10 5.539170285e-08)
(0.010999802 7.708487089e-10 6.169035775e-08)
(0.01099972671 4.563349193e-10 5.556903351e-08)
(0.0109996822 1.320225468e-09 4.966121079e-08)
(0.01099965224 1.045541533e-09 4.187494311e-08)
(0.01099963302 9.03840908e-10 3.499587178e-08)
(0.01099962259 6.074229299e-10 3.125545259e-08)
(0.01099961596 2.156492461e-09 2.659204211e-08)
(0.01099961469 7.565973837e-10 1.976109712e-08)
(0.01099961581 5.408198576e-10 2.031253287e-08)
(0.01099961779 5.119091241e-10 1.882234418e-08)
(0.01099962162 3.712732619e-09 1.471868531e-08)
(0.01100027621 1.189723806e-08 -3.409111082e-08)
(0.01100005965 5.625010322e-09 -5.382285783e-08)
(0.01100001379 -1.095747102e-08 -5.532557174e-09)
(0.01099992225 -1.870110536e-08 1.810504911e-08)
(0.01099984416 -1.690685371e-08 2.758914901e-08)
(0.01099978533 -1.80986017e-08 3.206036071e-08)
(0.01099974512 -1.666605621e-08 3.16750308e-08)
(0.01099971672 -1.386598301e-08 3.012211639e-08)
(0.0109996957 -1.192838505e-08 2.656301097e-08)
(0.01099967955 -1.178547131e-08 2.380472127e-08)
(0.01099966997 -9.619093228e-09 2.028150241e-08)
(0.01099966404 -7.728517311e-09 1.836186204e-08)
(0.01099966327 -9.493702823e-09 1.635114542e-08)
(0.01099965938 -8.365641699e-09 1.356869844e-08)
(0.01100030551 2.012335052e-08 -6.3966591e-08)
(0.011000204 3.665161785e-08 -5.006944799e-08)
(0.01100016972 1.744853058e-08 -1.526235155e-08)
(0.01100009887 2.03391237e-09 4.941194052e-09)
(0.01100003592 -6.031645414e-09 1.405174672e-08)
(0.01099997852 -1.150563294e-08 2.051870893e-08)
(0.01099992872 -1.194228451e-08 2.019256148e-08)
(0.01099989113 -1.530938197e-08 2.09511873e-08)
(0.01099985454 -1.443925086e-08 1.917235612e-08)
(0.0109998261 -1.593532726e-08 1.723989066e-08)
(0.01099980166 -1.434006847e-08 1.728902937e-08)
(0.01099978539 -1.545402935e-08 1.575071082e-08)
(0.01099977066 -1.631909403e-08 1.525268366e-08)
(0.01099975679 -1.38939487e-08 1.139161903e-08)
(0.01100027451 4.013579731e-08 -4.020145924e-08)
(0.01100024416 3.622720442e-08 -3.639418852e-08)
(0.01100024603 1.896566921e-08 -1.839585191e-08)
(0.0110002145 7.399249596e-09 -6.367809683e-09)
(0.01100017731 -1.206134715e-09 1.935054451e-09)
(0.01100013461 -5.139310677e-09 6.203084538e-09)
(0.01100009083 -8.021788069e-09 9.599587346e-09)
(0.01100005227 -1.022014752e-08 1.096938813e-08)
(0.01100001093 -1.04422718e-08 9.965373006e-09)
(0.0109999738 -1.159050285e-08 1.09072326e-08)
(0.01099994126 -1.295271595e-08 1.116151145e-08)
(0.01099991271 -1.087803702e-08 1.136209639e-08)
(0.01099988909 -1.086266727e-08 1.164292865e-08)
(0.01099986723 -9.510884616e-09 9.679651347e-09)
(0.01100026404 7.920208719e-09 -3.468110325e-08)
(0.01100026297 1.006230315e-08 -2.824112678e-08)
(0.01100027636 6.329413156e-09 -1.793724635e-08)
(0.01100026483 3.90343124e-09 -8.76247242e-09)
(0.01100024371 1.378822889e-09 -2.316475395e-09)
(0.01100021392 -1.474217994e-09 -1.096435175e-10)
(0.01100017672 -1.720350918e-09 2.66211136e-09)
(0.011000142 -2.301253722e-09 5.681564911e-09)
(0.01100010128 -3.810321882e-09 7.334988349e-09)
(0.01100006268 -4.311057572e-09 8.558027712e-09)
(0.01100002925 -2.609208805e-09 8.408790037e-09)
(0.01099999108 -3.570970213e-09 8.966619624e-09)
(0.01099996353 -4.790537509e-09 1.133404693e-08)
(0.01099993519 -4.496684206e-09 7.82649241e-09)
(0.01100019522 -5.043410866e-08 -7.906700767e-08)
(0.01100029098 -8.383770735e-09 -2.481780401e-08)
(0.01100026207 -1.44404253e-08 -2.457272038e-08)
(0.01100025605 -3.275831179e-09 -1.391245888e-08)
(0.01100022229 2.231100074e-09 -5.15778658e-09)
(0.01100017856 6.019997407e-10 3.575016049e-10)
(0.01100013048 7.697823404e-09 7.249635625e-09)
(0.01100008468 6.812458253e-09 7.669329695e-09)
(0.01100004093 6.856559841e-09 1.128099548e-08)
(0.01099999627 6.941323783e-09 1.064667598e-08)
(0.01099995973 8.5313362e-09 9.824360098e-09)
(0.01099992591 6.435768848e-09 1.12381621e-08)
(0.01099989227 7.79490037e-09 9.090907174e-09)
(0.01099987031 8.554778294e-09 1.152526684e-08)
(0.01099984332 8.883001096e-09 1.080727688e-08)
(0.0110002005 -2.222241178e-07 -1.29243605e-07)
(0.01100030574 -6.125558841e-08 -1.879354168e-08)
(0.01100020361 -4.741461917e-08 -3.554652206e-08)
(0.01100017033 -1.405774616e-08 -1.75028167e-08)
(0.01100009848 5.870714751e-09 -3.92654459e-09)
(0.01100003545 1.396926325e-08 6.102874143e-09)
(0.01099997632 1.839117391e-08 1.193873263e-08)
(0.01099992969 1.929110063e-08 1.487369486e-08)
(0.01099988817 1.983287992e-08 1.56489313e-08)
(0.01099985537 2.078106034e-08 1.654246643e-08)
(0.01099982806 1.703896375e-08 1.401848459e-08)
(0.0109998037 1.552464139e-08 1.560763103e-08)
(0.01099978605 1.516473734e-08 1.313406936e-08)
(0.01099977001 1.634311579e-08 1.420253043e-08)
(0.01099975796 1.260386111e-08 1.021037815e-08)
(0.01100033718 -2.289684716e-08 -2.405302253e-08)
(0.01100003765 -4.392434308e-08 -4.952324769e-08)
(0.01099993083 -3.705937515e-09 -4.321131326e-09)
(0.01099980323 1.861566769e-08 1.772741085e-08)
(0.01099971635 2.845450107e-08 2.724278137e-08)
(0.01099966072 3.00506835e-08 3.270171418e-08)
(0.01099962792 3.231864277e-08 3.225192918e-08)
(0.01099961125 2.732533059e-08 2.905932215e-08)
(0.01099960122 2.25865643e-08 2.527937428e-08)
(0.01099960239 2.31593124e-08 2.199893821e-08)
(0.01099960332 1.943752953e-08 1.878324426e-08)
(0.01099960905 1.741952363e-08 1.805020574e-08)
(0.01099961481 1.789606037e-08 1.656143627e-08)
(0.01099962316 1.399374171e-08 1.16681446e-08)
(0.01100012285 5.24182216e-08 8.814586802e-08)
(0.01099953713 4.472044123e-08 -7.990514752e-08)
(0.01099944389 6.912532126e-08 6.954084508e-09)
(0.01099931904 6.604687353e-08 4.395111088e-08)
(0.01099926636 5.205113629e-08 4.970637956e-08)
(0.01099925967 4.013366118e-08 5.025310733e-08)
(0.01099927596 3.225182814e-08 4.697510291e-08)
(0.01099930714 2.61365976e-08 3.826002915e-08)
(0.01099934022 2.177077716e-08 3.16245353e-08)
(0.01099937542 1.697903626e-08 2.741642856e-08)
(0.01099940804 1.386077232e-08 2.180791953e-08)
(0.01099943961 1.117801575e-08 1.920124182e-08)
(0.01099946853 1.280297223e-08 1.698481308e-08)
(0.01099949709 1.054944292e-08 1.435238091e-08)
(0.01100029455 5.198101075e-10 5.624283106e-07)
(0.01099905874 5.348929948e-10 8.060421005e-08)
(0.01099899706 -4.958115683e-10 1.165423056e-07)
(0.0109989406 2.836142415e-10 1.186350012e-07)
(0.01099896039 6.009075974e-10 9.398554864e-08)
(0.01099902184 7.2121059e-10 7.276502425e-08)
(0.01099908909 1.360164583e-09 5.823080528e-08)
(0.01099915595 2.460076219e-09 4.588117063e-08)
(0.01099921869 3.217976141e-09 3.422070998e-08)
(0.0109992743 2.745754748e-09 2.743730861e-08)
(0.01099932389 8.341695693e-10 2.463238897e-08)
(0.01099937107 6.845721401e-10 2.08763673e-08)
(0.01099940941 -1.346125178e-09 2.152888562e-08)
(0.01099944623 1.063175297e-09 1.395035037e-08)
(0.01100012436 -5.1578527e-08 8.819155362e-08)
(0.01099953699 -4.515944137e-08 -7.926752487e-08)
(0.01099944587 -6.828846972e-08 6.691876567e-09)
(0.0109993202 -6.471785106e-08 4.27195473e-08)
(0.01099926483 -5.122241048e-08 4.974357291e-08)
(0.01099925953 -3.894203992e-08 5.036580524e-08)
(0.01099927698 -3.193003455e-08 4.504644888e-08)
(0.01099930507 -2.371848365e-08 3.89364308e-08)
(0.01099934228 -2.18573606e-08 3.082757202e-08)
(0.01099937298 -1.866459838e-08 2.450010139e-08)
(0.01099940907 -1.455445863e-08 2.107062887e-08)
(0.01099944084 -1.250048659e-08 1.870488021e-08)
(0.01099946905 -1.177880413e-08 1.900430918e-08)
(0.01099949736 -1.015371154e-08 1.336970272e-08)
(0.01100033844 2.274924728e-08 -2.50956914e-08)
(0.01100003705 4.536840477e-08 -4.854122983e-08)
(0.01099993454 3.336812258e-09 -2.658621402e-09)
(0.01099980424 -1.953016548e-08 1.972563585e-08)
(0.01099971637 -2.80891055e-08 2.868174234e-08)
(0.01099966036 -3.079337944e-08 3.197045545e-08)
(0.01099962464 -2.778969315e-08 3.225193615e-08)
(0.01099960885 -2.847240726e-08 2.896307753e-08)
(0.01099960122 -2.495623257e-08 2.382289803e-08)
(0.01099960038 -2.245305955e-08 2.225551206e-08)
(0.0109996019 -1.949049713e-08 1.885213392e-08)
(0.01099960796 -1.685039982e-08 1.687737061e-08)
(0.01099961495 -1.823781449e-08 1.720741204e-08)
(0.01099961994 -1.665507577e-08 1.322536979e-08)
(0.01100030708 6.403735726e-08 -2.056708261e-08)
(0.01100020445 4.963712531e-08 -3.649350937e-08)
(0.01100017181 1.577947185e-08 -1.478853703e-08)
(0.01100009838 -3.571338958e-09 -8.098519306e-10)
(0.01100003647 -1.26940586e-08 4.493565511e-09)
(0.01099997876 -1.865776616e-08 1.132331904e-08)
(0.01099992801 -2.038410577e-08 1.385080745e-08)
(0.010999887 -1.973755891e-08 1.488038988e-08)
(0.01099985363 -1.931391119e-08 1.543190081e-08)
(0.01099982622 -1.813481622e-08 1.515673566e-08)
(0.01099980465 -1.856804358e-08 1.435726924e-08)
(0.01099978486 -1.5774804e-08 1.439641068e-08)
(0.01099977033 -1.464597248e-08 1.426015361e-08)
(0.01099975819 -1.283843645e-08 1.153851744e-08)
(0.01100028863 1.258726135e-08 -2.526075568e-08)
(0.01100026471 1.481849499e-08 -2.693405752e-08)
(0.01100025698 5.862074947e-09 -1.478549559e-08)
(0.01100021993 -2.031911854e-10 -5.249315703e-09)
(0.01100017859 -1.479092343e-09 -1.508362626e-09)
(0.01100013119 -3.86719747e-09 3.199462279e-09)
(0.01100008328 -7.262726668e-09 8.000239444e-09)
(0.01100003788 -5.032928126e-09 8.620822788e-09)
(0.01099999705 -4.510341817e-09 9.013651847e-09)
(0.01099995973 -5.296726599e-09 1.071434861e-08)
(0.01099992449 -3.782468005e-09 1.179733014e-08)
(0.0109998942 -5.979317871e-09 1.151524252e-08)
(0.01099987055 -6.976629915e-09 1.172418528e-08)
(0.01099984272 -3.776973694e-09 9.502117881e-09)
(0.01100020655 -6.875619671e-08 -1.300055787e-07)
(0.01100030012 1.546722464e-09 -3.228011781e-08)
(0.01100022397 -1.57509574e-08 -1.686072106e-08)
(0.01100020606 -6.547033535e-09 -1.454679521e-09)
(0.01100015181 1.817096286e-09 4.305645506e-09)
(0.01100009248 7.982426509e-09 5.802775728e-09)
(0.0110000327 8.980429918e-09 7.092347698e-09)
(0.01099998008 9.800110126e-09 8.90486005e-09)
(0.01099993678 8.441568192e-09 7.856558389e-09)
(0.01099989158 1.04085963e-08 9.316197658e-09)
(0.01099985871 8.205899253e-09 9.127709614e-09)
(0.0109998293 7.869612569e-09 7.588430096e-09)
(0.0109998031 7.132158611e-09 6.827027879e-09)
(0.01099978239 9.224164284e-09 7.01529687e-09)
(0.01099976362 6.659499918e-09 7.106351329e-09)
(0.01100021225 -3.34357047e-07 -2.576892983e-07)
(0.01100027581 -3.386182506e-08 -1.301258463e-08)
(0.01100005817 -5.157232422e-08 -6.395244403e-09)
(0.01100001296 -3.572330461e-09 9.818835759e-09)
(0.0109999186 2.011178886e-08 1.690225201e-08)
(0.01099984438 2.744018409e-08 1.683140819e-08)
(0.01099978617 3.263318453e-08 1.767282322e-08)
(0.01099974468 3.251315606e-08 1.705277598e-08)
(0.01099971398 2.956490574e-08 1.367058586e-08)
(0.01099969495 2.588158944e-08 1.290209073e-08)
(0.01099967907 2.427733927e-08 1.188671021e-08)
(0.01099966941 2.064445787e-08 9.797841163e-09)
(0.01099966792 1.863370466e-08 8.619937438e-09)
(0.01099966122 1.821047756e-08 9.350910632e-09)
(0.0109996598 1.450772563e-08 7.619509199e-09)
(0.01100014355 -4.343773212e-07 -7.46460203e-07)
(0.01100012112 8.736309678e-08 4.845770226e-08)
(0.01099953571 -7.959758717e-08 4.400535541e-08)
(0.01099944405 7.788397353e-09 6.863901725e-08)
(0.01099931633 4.622641643e-08 6.506252587e-08)
(0.01099926604 5.291107906e-08 5.210288727e-08)
(0.01099926032 5.183776716e-08 4.126533088e-08)
(0.01099927581 4.578479719e-08 3.365870591e-08)
(0.01099930543 3.987978901e-08 2.74898564e-08)
(0.01099934026 3.230107612e-08 2.117491153e-08)
(0.01099937601 2.89854463e-08 1.616980142e-08)
(0.01099940693 2.369808238e-08 1.314236344e-08)
(0.01099944262 2.051009241e-08 1.088126032e-08)
(0.01099946824 1.813417377e-08 1.156665325e-08)
(0.01099949766 1.56637262e-08 8.929906706e-09)
(0.0109988823 5.743291907e-07 5.745913617e-07)
(0.01099797992 1.227407395e-07 1.226474941e-07)
(0.01099824147 1.317799843e-07 1.316009697e-07)
(0.01099828361 1.193620614e-07 1.197282782e-07)
(0.01099841229 8.477666904e-08 8.712879365e-08)
(0.01099857023 6.122711766e-08 6.30649969e-08)
(0.01099871426 4.669061341e-08 4.694517992e-08)
(0.01099884917 3.393186307e-08 3.576142101e-08)
(0.01099896721 2.622994141e-08 2.732209128e-08)
(0.0109990677 2.101509318e-08 1.910409067e-08)
(0.01099915092 1.623605549e-08 1.575606123e-08)
(0.01099923001 1.335963545e-08 1.39311131e-08)
(0.01099928866 1.408390445e-08 1.228160467e-08)
(0.01099935025 1.103173476e-08 1.137764549e-08)
(0.0109977283 2.784575071e-10 3.550870925e-06)
(0.01099570939 4.090766232e-10 1.033827507e-06)
(0.01099690935 -6.15387101e-10 4.806436336e-07)
(0.01099738152 -1.409189134e-09 2.903157411e-07)
(0.0109977912 4.12227342e-10 1.622747695e-07)
(0.01099813971 -8.154726833e-10 9.580776775e-08)
(0.01099840606 -7.243520784e-10 6.10104688e-08)
(0.01099862124 6.481473984e-10 4.100063199e-08)
(0.01099879379 8.874756923e-10 2.973013588e-08)
(0.01099892941 -4.009285134e-10 2.232965052e-08)
(0.01099904619 4.902610873e-10 1.719634224e-08)
(0.01099913918 7.429969884e-10 1.285413971e-08)
(0.0109992158 8.672926976e-10 1.142867747e-08)
(0.01099928667 -4.654609916e-10 9.142133259e-09)
(0.01099888252 -5.747311647e-07 5.740398946e-07)
(0.01099797803 -1.218462877e-07 1.232809968e-07)
(0.01099824061 -1.304943874e-07 1.328193456e-07)
(0.01099828459 -1.202809177e-07 1.192587942e-07)
(0.01099841297 -8.624053113e-08 8.68699174e-08)
(0.0109985681 -6.214052509e-08 6.238893971e-08)
(0.01099871818 -4.583979091e-08 4.638102679e-08)
(0.0109988498 -3.45529472e-08 3.473252265e-08)
(0.0109989669 -2.623139398e-08 2.615292391e-08)
(0.01099906753 -2.069750186e-08 2.08521673e-08)
(0.0109991554 -1.579359164e-08 1.783894243e-08)
(0.01099922985 -1.437111733e-08 1.422302805e-08)
(0.01099928677 -1.341490282e-08 1.443858877e-08)
(0.01099934772 -1.091044969e-08 1.055519475e-08)
(0.01100012535 -8.779826428e-08 5.294038036e-08)
(0.01099953709 7.969060263e-08 4.746674381e-08)
(0.0109994416 -5.880478704e-09 6.782826485e-08)
(0.01099931695 -4.229895526e-08 6.43169185e-08)
(0.01099926681 -5.105157461e-08 5.114388383e-08)
(0.01099926201 -5.043947421e-08 4.136210855e-08)
(0.010999274 -4.367986285e-08 3.278635212e-08)
(0.01099930242 -3.951121913e-08 2.492194812e-08)
(0.0109993382 -3.144562138e-08 2.044484745e-08)
(0.0109993738 -2.750773664e-08 1.616454747e-08)
(0.01099940636 -2.287679197e-08 1.51715217e-08)
(0.01099944091 -2.021507496e-08 1.278708326e-08)
(0.01099946575 -2.226736445e-08 1.245265969e-08)
(0.0109994973 -1.653067391e-08 8.021895999e-09)
(0.01100027686 3.756411352e-08 -1.250791578e-08)
(0.0110000605 5.322627226e-08 -4.848010078e-09)
(0.01100001343 6.043838102e-09 9.988983361e-09)
(0.01099991633 -1.687348881e-08 1.79228719e-08)
(0.01099984535 -2.815100462e-08 1.961783745e-08)
(0.01099978606 -3.293883372e-08 1.801609476e-08)
(0.01099974482 -3.333634824e-08 1.487796724e-08)
(0.01099971656 -2.927153094e-08 1.406645149e-08)
(0.01099969213 -2.689643689e-08 1.335762619e-08)
(0.01099967927 -2.366666114e-08 1.177088784e-08)
(0.01099967048 -2.052750571e-08 1.213400516e-08)
(0.01099966406 -1.840352703e-08 9.749535635e-09)
(0.01099966052 -1.824513105e-08 1.038477621e-08)
(0.01099965887 -1.464395649e-08 6.917351115e-09)
(0.01100030294 -4.283940279e-11 -3.115403335e-08)
(0.01100022246 1.754038473e-08 -1.735924578e-08)
(0.0110002065 5.146593295e-09 -1.283549412e-09)
(0.01100015015 -1.886540968e-09 5.656399024e-09)
(0.0110000911 -5.126888486e-09 7.608716247e-09)
(0.01100003767 -7.953775113e-09 7.85039421e-09)
(0.01099997995 -8.036059757e-09 8.56589659e-09)
(0.0109999337 -8.463235784e-09 8.68968293e-09)
(0.0109998927 -8.093380231e-09 8.687080245e-09)
(0.01099985555 -7.517836638e-09 8.673801068e-09)
(0.0109998259 -5.216621705e-09 8.773127921e-09)
(0.01099980212 -5.136892922e-09 8.075673867e-09)
(0.01099978032 -5.057839369e-09 7.876911123e-09)
(0.01099976322 -5.231106017e-09 6.730360559e-09)
(0.01100022417 -1.751049783e-07 1.194905231e-09)
(0.01100037983 1.2573275e-08 5.993154696e-10)
(0.01100023115 -1.652625736e-09 -3.912446725e-10)
(0.01100018621 8.707098014e-09 -2.18599542e-10)
(0.01100011346 1.38740121e-08 2.51282489e-10)
(0.01100004576 1.533844205e-08 -7.663420786e-10)
(0.01099998459 1.512615439e-08 -4.208322545e-10)
(0.01099993082 1.332680578e-08 8.641788369e-10)
(0.01099988452 1.108825007e-08 1.3671441e-09)
(0.01099984676 1.146875602e-08 8.767244828e-11)
(0.01099981036 7.940106292e-09 -5.119632729e-10)
(0.01099978589 6.957734222e-09 2.889405809e-10)
(0.01099976414 8.533363493e-09 2.871433461e-09)
(0.01099974332 9.443993062e-09 1.150475188e-09)
(0.01099973208 6.566669941e-09 2.653266082e-10)
(0.01100025992 -8.230115128e-07 -9.023641981e-11)
(0.0110004135 2.734481456e-08 -2.113966701e-10)
(0.01099998099 1.713204351e-08 -8.596637023e-10)
(0.01099990297 5.550137214e-08 -5.29636416e-10)
(0.01099979953 6.429986664e-08 1.595517269e-10)
(0.01099972746 5.742076564e-08 5.050954471e-10)
(0.01099968288 4.970510243e-08 -1.617879866e-09)
(0.0109996501 4.225438947e-08 -4.781476013e-10)
(0.01099963271 3.659775724e-08 2.463824177e-09)
(0.01099962221 2.96429914e-08 9.283114153e-10)
(0.01099961473 2.519613712e-08 -5.755928427e-10)
(0.01099961338 2.102730915e-08 -2.794279652e-10)
(0.0109996171 1.974276159e-08 1.468107167e-09)
(0.01099961508 1.87495348e-08 -1.655478693e-09)
(0.01099962011 1.595220359e-08 6.52449843e-10)
(0.01100009644 -1.548391162e-06 2.277097305e-09)
(0.01100029522 5.637850635e-07 1.118818221e-10)
(0.0109990547 8.292658001e-08 5.088468526e-10)
(0.01099899566 1.179128155e-07 4.471158515e-10)
(0.01099893937 1.205666687e-07 -3.721465088e-10)
(0.01099895812 9.377187e-08 1.245417621e-10)
(0.01099902179 7.450872117e-08 -1.994346575e-09)
(0.01099908878 5.893278579e-08 -6.225703455e-10)
(0.01099915356 4.652411714e-08 4.962759709e-10)
(0.01099921706 3.553282916e-08 2.142432844e-09)
(0.01099927401 2.769761962e-08 -3.687097888e-10)
(0.01099932416 2.282538824e-08 -1.821987162e-09)
(0.01099937351 1.828870774e-08 1.422522188e-10)
(0.01099940763 1.941067227e-08 -7.082909854e-10)
(0.01099944717 1.643914153e-08 1.439069506e-09)
(0.01099752059 -7.208628045e-06 1.69312564e-09)
(0.01099772655 3.550439226e-06 1.044731092e-09)
(0.0109957055 1.035709873e-06 7.547745186e-10)
(0.01099690778 4.822059481e-07 2.258969969e-09)
(0.01099738185 2.90569675e-07 -3.807728941e-10)
(0.01099778947 1.620065059e-07 -9.021500663e-10)
(0.01099813849 9.44882041e-08 -7.654133698e-10)
(0.01099840602 6.027756756e-08 -2.383867198e-10)
(0.01099862149 3.875683768e-08 -1.867160242e-10)
(0.0109987922 2.855593279e-08 9.949330809e-10)
(0.0109989318 2.277699719e-08 -2.927209387e-10)
(0.0109990436 1.902464836e-08 -2.959743302e-10)
(0.01099914094 1.303779754e-08 -4.122216865e-11)
(0.01099921566 1.306473762e-08 7.699456504e-10)
(0.01099928675 1.087133659e-08 6.76449315e-10)
(0.01099507892 3.186023019e-09 -9.10985735e-10)
(0.01098807008 3.764912675e-10 1.346365726e-10)
(0.01099365649 -2.635927912e-11 9.744412526e-10)
(0.01099571586 -4.432758795e-10 -9.278908795e-10)
(0.01099681053 5.692773507e-10 -1.034000071e-09)
(0.01099753579 1.835366201e-09 1.425631534e-09)
(0.01099800956 -8.39543495e-10 -1.616968902e-11)
(0.01099834428 8.024310997e-10 7.465304528e-10)
(0.01099858955 -4.504346373e-10 8.30075883e-10)
(0.01099877529 7.142476449e-10 -8.496351639e-10)
(0.01099892089 1.027298162e-09 1.67692178e-10)
(0.01099904323 2.447535666e-09 -9.898888764e-10)
(0.01099913401 1.362226996e-09 5.358411107e-10)
(0.01099922723 -7.283296885e-10 4.156367615e-11)
(0.01099772525 -3.55233372e-06 8.943748594e-10)
(0.01099570508 -1.03478061e-06 1.822573753e-10)
(0.01099690895 -4.827184765e-07 1.353132018e-09)
(0.01099738264 -2.901704805e-07 1.446201498e-09)
(0.01099778929 -1.599525991e-07 8.910251502e-10)
(0.0109981357 -9.536458917e-08 2.594711255e-09)
(0.01099840414 -6.029898194e-08 8.820105036e-10)
(0.01099861977 -4.197884941e-08 -1.864604321e-09)
(0.01099879427 -2.866752406e-08 1.698257219e-09)
(0.0109989334 -2.195397154e-08 -1.412907999e-09)
(0.01099904207 -1.544817377e-08 5.79126939e-10)
(0.01099913948 -1.361307394e-08 -6.487626295e-10)
(0.01099921378 -1.311379945e-08 -3.232306424e-09)
(0.01099928549 -1.008026462e-08 7.035397641e-10)
(0.011000292 -5.642424869e-07 -1.304659454e-10)
(0.01099905321 -8.054553649e-08 1.740072077e-09)
(0.01099899728 -1.147269275e-07 1.303934971e-09)
(0.01099893918 -1.195656526e-07 1.537250755e-09)