/*--------------------------------*- C++ -*----------------------------------*\
| =========                 |                                                 |
| \\      /  F ield         | OpenFOAM: The Open Source CFD Toolbox           |
|  \\    /   O peration     | Version:  4.x                                   |
|   \\  /    A nd           | Web:      www.OpenFOAM.org                      |
|    \\/     M anipulation  |                                                 |
\*---------------------------------------------------------------------------*/
FoamFile
{
    version     2.0;
    format      ascii;
    class       volScalarField;
    location    "8000";
    object      X_CO;
}
// * * * * * * * * * * * * * * * * * * * * * * * * * * * * * * * * * * * * * //

dimensions      [0 0 0 0 0 0 0];

internalField   nonuniform List<scalar> 
1174
(
0.3000568229
0.3000560176
0.3000548925
0.3000534395
0.3000516795
0.300049656
0.300047426
0.3000450525
0.3000425976
0.3000401185
0.3000376671
0.3000352978
0.3000331069
0.3000313999
0.3000560821
0.3000548142
0.3000531431
0.300051114
0.3000488015
0.3000462925
0.3000436728
0.3000410189
0.3000383938
0.3000358464
0.3000334147
0.300031135
0.3000290787
0.3000275037
0.3000544637
0.3000522624
0.3000495671
0.3000465363
0.3000433358
0.3000401104
0.3000369719
0.3000339971
0.3000312328
0.3000287023
0.3000264134
0.3000243698
0.3000226017
0.3000212875
0.3000521256
0.3000487526
0.3000449201
0.3000409125
0.3000369606
0.300033225
0.3000298021
0.3000267374
0.3000240409
0.3000216995
0.3000196876
0.300017978
0.3000165643
0.300015549
0.3000504832
0.3000464788
0.3000421519
0.3000378087
0.3000336649
0.3000298538
0.3000264433
0.300023455
0.3000208797
0.3000186894
0.3000168473
0.3000153162
0.3000140773
0.3000132031
0.3000521256
0.3000487526
0.3000449201
0.3000409126
0.3000369607
0.3000332252
0.3000298023
0.3000267376
0.3000240411
0.3000216997
0.3000196878
0.3000179783
0.3000165646
0.3000155493
0.3000544637
0.3000522625
0.3000495672
0.3000465364
0.300043336
0.3000401106
0.3000369721
0.3000339973
0.3000312331
0.3000287026
0.3000264138
0.3000243702
0.3000226021
0.3000212879
0.3000560822
0.3000548143
0.3000531432
0.3000511141
0.3000488016
0.3000462926
0.300043673
0.3000410192
0.3000383941
0.3000358468
0.3000334151
0.3000311355
0.3000290792
0.3000275043
0.300056823
0.3000560176
0.3000548925
0.3000534396
0.3000516796
0.3000496561
0.3000474261
0.3000450527
0.3000425978
0.3000401188
0.3000376675
0.3000352983
0.3000331074
0.3000314004
0.3000569479
0.3000560821
0.3000548142
0.3000531432
0.300051114
0.3000488015
0.3000462925
0.3000436728
0.3000410189
0.3000383938
0.3000358464
0.3000334147
0.300031135
0.3000290787
0.3000275037
0.3000544391
0.3000522582
0.3000496257
0.3000467051
0.3000436552
0.3000406063
0.3000376528
0.3000348557
0.3000322493
0.3000298487
0.3000276579
0.3000256803
0.3000239495
0.3000226508
0.3000503576
0.3000462048
0.3000417409
0.3000373434
0.3000332618
0.3000296245
0.3000264708
0.3000237846
0.3000215208
0.3000196234
0.3000180363
0.3000167124
0.300015629
0.3000148543
0.3000432157
0.3000364243
0.3000300442
0.300024536
0.3000200419
0.3000165178
0.3000138341
0.3000118373
0.3000103809
0.3000093392
0.3000086095
0.3000081116
0.3000077846
0.3000075937
0.3000365946
0.3000285071
0.3000217359
0.3000164275
0.3000124465
0.3000095644
0.3000075469
0.3000061882
0.3000053201
0.3000048104
0.3000045576
0.3000044833
0.3000045227
0.3000046048
0.3000432159
0.3000364245
0.3000300445
0.3000245363
0.3000200422
0.3000165181
0.3000138344
0.3000118376
0.3000103812
0.3000093395
0.3000086099
0.3000081119
0.3000077849
0.3000075941
0.3000503578
0.300046205
0.3000417412
0.3000373437
0.3000332622
0.3000296249
0.3000264712
0.300023785
0.3000215213
0.3000196239
0.3000180369
0.3000167129
0.3000156296
0.3000148548
0.3000544393
0.3000522583
0.3000496259
0.3000467053
0.3000436554
0.3000406066
0.3000376532
0.3000348562
0.3000322498
0.3000298492
0.3000276584
0.3000256809
0.3000239502
0.3000226515
0.3000560822
0.3000548143
0.3000531432
0.3000511142
0.3000488017
0.3000462927
0.3000436731
0.3000410192
0.3000383942
0.3000358469
0.3000334152
0.3000311356
0.3000290793
0.3000275044
0.3000560646
0.3000544637
0.3000522625
0.3000495672
0.3000465364
0.3000433359
0.3000401105
0.3000369719
0.3000339971
0.3000312328
0.3000287024
0.3000264134
0.3000243698
0.3000226018
0.3000212875
0.3000537513
0.3000503576
0.3000462048
0.3000417409
0.3000373435
0.3000332618
0.3000296245
0.3000264708
0.3000237846
0.3000215208
0.3000196234
0.3000180364
0.3000167124
0.300015629
0.3000148543
0.3000384898
0.300029925
0.3000222794
0.3000161025
0.3000114738
0.3000082215
0.3000060797
0.3000047772
0.3000040787
0.3000037965
0.3000037888
0.3000039503
0.3000041973
0.3000044322
0.3000125154
0.2999983645
0.299988817
0.299983359
0.2999809618
0.299980629
0.2999815754
0.2999832436
0.2999852625
0.2999873968
0.2999895028
0.2999914902
0.2999932716
0.2999946233
0.2999790816
0.299965331
0.2999597277
0.2999590761
0.2999611428
0.2999645469
0.2999684835
0.2999725036
0.2999763684
0.2999799603
0.2999832284
0.2999861499
0.2999886753
0.2999905499
0.3000125162
0.2999983653
0.2999888178
0.2999833597
0.2999809625
0.2999806296
0.299981576
0.2999832442
0.299985263
0.2999873973
0.2999895033
0.2999914907
0.299993272
0.2999946237
0.3000384905
0.3000299257
0.3000222801
0.3000161032
0.3000114746
0.3000082223
0.3000060804
0.300004778
0.3000040795
0.3000037973
0.3000037895
0.300003951
0.3000041981
0.300004433
0.3000503578
0.300046205
0.3000417412
0.3000373438
0.3000332623
0.300029625
0.3000264714
0.3000237853
0.3000215215
0.3000196241
0.3000180372
0.3000167132
0.3000156299
0.3000148551
0.3000544637
0.3000522625
0.3000495673
0.3000465365
0.3000433361
0.3000401108
0.3000369723
0.3000339976
0.3000312334
0.300028703
0.3000264141
0.3000243706
0.3000226026
0.3000212884
0.3000547569
0.3000521257
0.3000487527
0.3000449202
0.3000409126
0.3000369607
0.3000332252
0.3000298022
0.3000267376
0.300024041
0.3000216996
0.3000196877
0.3000179781
0.3000165644
0.3000155491
0.3000495421
0.3000432158
0.3000364244
0.3000300443
0.3000245361
0.300020042
0.3000165179
0.3000138342
0.3000118373
0.300010381
0.3000093392
0.3000086096
0.3000081117
0.3000077847
0.3000075938
0.300030096
0.3000125156
0.2999983646
0.2999888172
0.2999833591
0.2999809619
0.2999806291
0.2999815755
0.2999832437
0.2999852626
0.2999873969
0.2999895029
0.2999914903
0.2999932717
0.2999946233
0.2999247215
0.2999077522
0.2999057076
0.2999115359
0.2999207308
0.2999308077
0.2999405419
0.2999494109
0.299957254
0.2999640825
0.2999699774
0.2999750277
0.29997925
0.2999823142
0.29975528
0.2997794111
0.2998147142
0.2998480181
0.2998760424
0.2998987471
0.2999169674
0.2999316253
0.2999435054
0.2999532211
0.2999612343
0.2999678733
0.2999732918
0.2999771646
0.2999247242
0.2999077542
0.2999057091
0.2999115371
0.2999207319
0.2999308086
0.2999405427
0.2999494116
0.2999572546
0.2999640831
0.299969978
0.2999750283
0.2999792505
0.2999823147
0.3000125162
0.2999983654
0.2999888181
0.2999833602
0.2999809631
0.2999806302
0.2999815766
0.2999832448
0.2999852636
0.2999873979
0.2999895039
0.2999914912
0.2999932726
0.2999946242
0.3000432159
0.3000364247
0.3000300447
0.3000245367
0.3000200427
0.3000165186
0.3000138351
0.3000118383
0.3000103819
0.3000093402
0.3000086106
0.3000081127
0.3000077857
0.3000075948
0.3000521257
0.3000487527
0.3000449203
0.3000409129
0.3000369611
0.3000332256
0.3000298028
0.3000267382
0.3000240418
0.3000217004
0.3000196886
0.3000179791
0.3000165655
0.3000155502
0.3000537922
0.3000504833
0.300046479
0.3000421521
0.3000378089
0.3000336651
0.300029854
0.3000264435
0.3000234552
0.3000208799
0.3000186896
0.3000168474
0.3000153163
0.3000140774
0.3000132033
0.3000452269
0.3000365948
0.3000285074
0.3000217362
0.3000164278
0.3000124468
0.3000095647
0.3000075471
0.3000061884
0.3000053203
0.3000048106
0.3000045577
0.3000044835
0.3000045229
0.3000046049
0.3000041374
0.2999790821
0.2999653317
0.2999597283
0.2999590765
0.2999611432
0.2999645472
0.2999684837
0.2999725038
0.2999763686
0.2999799604
0.2999832285
0.29998615
0.2999886754
0.29999055
0.2997834931
0.2997552817
0.2997794122
0.2998147148
0.2998480186
0.2998760427
0.2998987473
0.2999169676
0.2999316255
0.2999435055
0.2999532212
0.2999612344
0.2999678734
0.2999732919
0.2999771647
0.2990340152
0.2994073443
0.2996122409
0.2997313924
0.2998048491
0.2998527586
0.2998856616
0.2999093033
0.2999269498
0.2999405369
0.2999512568
0.2999598527
0.2999667054
0.2999715317
0.2997552802
0.2997794132
0.2998147163
0.29984802
0.299876044
0.2998987485
0.2999169687
0.2999316264
0.2999435064
0.299953222
0.2999612351
0.299967874
0.2999732925
0.2999771653
0.2999790819
0.2999653321
0.2999597291
0.2999590776
0.2999611444
0.2999645484
0.2999684849
0.299972505
0.2999763698
0.2999799616
0.2999832296
0.2999861511
0.2999886764
0.299990551
0.3000365947
0.3000285075
0.3000217366
0.3000164284
0.3000124475
0.3000095655
0.3000075481
0.3000061894
0.3000053213
0.3000048117
0.3000045588
0.3000044846
0.300004524
0.300004606
0.3000504832
0.300046479
0.3000421522
0.3000378091
0.3000336655
0.3000298545
0.3000264441
0.300023456
0.3000208807
0.3000186905
0.3000168485
0.3000153174
0.3000140786
0.3000132045
0.3000547569
0.3000521257
0.3000487528
0.3000449203
0.3000409128
0.3000369609
0.3000332254
0.3000298024
0.3000267378
0.3000240413
0.3000216998
0.300019688
0.3000179784
0.3000165647
0.3000155495
0.3000495423
0.3000432161
0.3000364248
0.3000300447
0.3000245366
0.3000200424
0.3000165183
0.3000138347
0.3000118378
0.3000103815
0.3000093397
0.3000086101
0.3000081121
0.3000077851
0.3000075942
0.300030097
0.3000125166
0.2999983658
0.2999888183
0.2999833601
0.2999809629
0.29998063
0.2999815763
0.2999832445
0.2999852633
0.2999873976
0.2999895036
0.2999914909
0.2999932722
0.2999946239
0.2999644821
0.2999247254
0.2999077552
0.29990571
0.2999115378
0.2999207325
0.2999308091
0.2999405431
0.2999494119
0.2999572549
0.2999640833
0.2999699782
0.2999750285
0.2999792507
0.2999823149
0.2997834931
0.2997552822
0.2997794146
0.2998147174
0.2998480209
0.2998760447
0.299898749
0.2999169691
0.2999316268
0.2999435067
0.2999532222
0.2999612353
0.2999678742
0.2999732927
0.2999771655
0.2999644813
0.2999247253
0.2999077556
0.2999057107
0.2999115388
0.2999207335
0.2999308101
0.2999405441
0.2999494128
0.2999572558
0.2999640841
0.299969979
0.2999750292
0.2999792514
0.2999823155
0.3000125155
0.2999983654
0.2999888185
0.2999833607
0.2999809637
0.2999806309
0.2999815773
0.2999832455
0.2999852643
0.2999873986
0.2999895046
0.2999914919
0.2999932732
0.2999946248
0.3000432157
0.3000364246
0.3000300448
0.3000245368
0.3000200429
0.300016519
0.3000138354
0.3000118387
0.3000103824
0.3000093407
0.3000086111
0.3000081131
0.3000077862
0.3000075953
0.3000521256
0.3000487527
0.3000449203
0.3000409129
0.3000369612
0.3000332258
0.300029803
0.3000267385
0.3000240421
0.3000217007
0.3000196889
0.3000179795
0.3000165658
0.3000155506
0.3000560646
0.3000544638
0.3000522626
0.3000495673
0.3000465366
0.3000433361
0.3000401108
0.3000369723
0.3000339975
0.3000312333
0.3000287028
0.3000264139
0.3000243704
0.3000226023
0.3000212881
0.3000537515
0.3000503579
0.3000462052
0.3000417413
0.3000373439
0.3000332624
0.3000296251
0.3000264714
0.3000237852
0.3000215215
0.3000196241
0.3000180371
0.3000167131
0.3000156297
0.300014855
0.3000467711
0.3000384908
0.300029926
0.3000222804
0.3000161035
0.3000114749
0.3000082226
0.3000060807
0.3000047782
0.3000040797
0.3000037975
0.3000037898
0.3000039512
0.3000041983
0.3000044332
0.300030097
0.3000125168
0.2999983661
0.2999888188
0.2999833607
0.2999809635
0.2999806306
0.299981577
0.2999832451
0.2999852639
0.2999873982
0.2999895041
0.2999914914
0.2999932728
0.2999946244
0.3000041372
0.2999790826
0.2999653327
0.2999597297
0.2999590781
0.2999611449
0.2999645488
0.2999684853
0.2999725053
0.2999763701
0.2999799618
0.2999832298
0.2999861513
0.2999886766
0.2999905512
0.3000300969
0.3000125168
0.2999983662
0.299988819
0.2999833611
0.299980964
0.2999806311
0.2999815775
0.2999832457
0.2999852645
0.2999873987
0.2999895047
0.299991492
0.2999932733
0.2999946249
0.3000467708
0.3000384905
0.3000299258
0.3000222804
0.3000161037
0.3000114753
0.3000082231
0.3000060813
0.3000047789
0.3000040804
0.3000037983
0.3000037905
0.300003952
0.3000041991
0.300004434
0.3000503576
0.300046205
0.3000417413
0.300037344
0.3000332626
0.3000296254
0.3000264719
0.3000237858
0.3000215221
0.3000196248
0.3000180379
0.300016714
0.3000156306
0.3000148559
0.3000544637
0.3000522625
0.3000495673
0.3000465366
0.3000433362
0.300040111
0.3000369726
0.300033998
0.3000312338
0.3000287035
0.3000264147
0.3000243712
0.3000226032
0.3000212891
0.3000569479
0.3000560822
0.3000548143
0.3000531433
0.3000511142
0.3000488017
0.3000462928
0.3000436732
0.3000410193
0.3000383942
0.3000358469
0.3000334153
0.3000311356
0.3000290794
0.3000275044
0.3000560463
0.3000544393
0.3000522584
0.300049626
0.3000467055
0.3000436556
0.3000406068
0.3000376533
0.3000348563
0.30003225
0.3000298494
0.3000276586
0.300025681
0.3000239503
0.3000226517
0.3000537514
0.3000503579
0.3000462052
0.3000417414
0.300037344
0.3000332625
0.3000296252
0.3000264716
0.3000237855
0.3000215217
0.3000196243
0.3000180374
0.3000167135
0.3000156301
0.3000148553
0.3000495422
0.3000432161
0.3000364249
0.300030045
0.300024537
0.300020043
0.3000165189
0.3000138353
0.3000118385
0.3000103822
0.3000093405
0.3000086108
0.3000081129
0.3000077859
0.300007595
0.3000452269
0.300036595
0.3000285078
0.3000217369
0.3000164286
0.3000124478
0.3000095658
0.3000075483
0.3000061896
0.3000053215
0.3000048119
0.300004559
0.3000044847
0.3000045242
0.3000046062
0.3000495422
0.3000432161
0.300036425
0.3000300451
0.3000245371
0.3000200432
0.3000165192
0.3000138356
0.3000118388
0.3000103825
0.3000093408
0.3000086112
0.3000081133
0.3000077863
0.3000075954
0.3000537514
0.3000503579
0.3000462052
0.3000417415
0.3000373442
0.3000332627
0.3000296255
0.300026472
0.3000237859
0.3000215222
0.3000196249
0.3000180379
0.300016714
0.3000156307
0.300014856
0.3000560462
0.3000544393
0.3000522583
0.300049626
0.3000467055
0.3000436557
0.300040607
0.3000376536
0.3000348567
0.3000322504
0.30002985
0.3000276592
0.3000256817
0.300023951
0.3000226524
0.3000560821
0.3000548143
0.3000531433
0.3000511142
0.3000488018
0.3000462929
0.3000436734
0.3000410196
0.3000383946
0.3000358474
0.3000334159
0.3000311363
0.3000290801
0.3000275052
0.3000573469
0.300056823
0.3000560177
0.3000548926
0.3000534396
0.3000516797
0.3000496562
0.3000474263
0.3000450528
0.300042598
0.300040119
0.3000376677
0.3000352985
0.3000331076
0.3000314006
0.3000569479
0.3000560822
0.3000548143
0.3000531433
0.3000511143
0.3000488018
0.3000462928
0.3000436732
0.3000410194
0.3000383943
0.3000358471
0.3000334154
0.3000311358
0.3000290795
0.3000275046
0.3000560646
0.3000544638
0.3000522626
0.3000495674
0.3000465367
0.3000433362
0.300040111
0.3000369725
0.3000339978
0.3000312336
0.3000287032
0.3000264143
0.3000243708
0.3000226028
0.3000212886
0.3000547569
0.3000521258
0.3000487528
0.3000449204
0.300040913
0.3000369613
0.3000332258
0.300029803
0.3000267384
0.300024042
0.3000217006
0.3000196888
0.3000179793
0.3000165656
0.3000155504
0.3000537922
0.3000504833
0.3000464792
0.3000421524
0.3000378093
0.3000336657
0.3000298547
0.3000264444
0.3000234562
0.3000208809
0.3000186907
0.3000168486
0.3000153176
0.3000140787
0.3000132046
0.3000547569
0.3000521258
0.3000487529
0.3000449205
0.3000409131
0.3000369614
0.300033226
0.3000298032
0.3000267387
0.3000240422
0.3000217009
0.3000196891
0.3000179796
0.300016566
0.3000155507
0.3000560646
0.3000544638
0.3000522626
0.3000495675
0.3000465368
0.3000433364
0.3000401112
0.3000369728
0.3000339981
0.300031234
0.3000287036
0.3000264148
0.3000243713
0.3000226033
0.3000212892
0.3000569479
0.3000560822
0.3000548143
0.3000531433
0.3000511143
0.3000488019
0.300046293
0.3000436734
0.3000410197
0.3000383947
0.3000358475
0.3000334159
0.3000311363
0.3000290801
0.3000275053
0.3000573469
0.300056823
0.3000560176
0.3000548926
0.3000534396
0.3000516798
0.3000496563
0.3000474264
0.300045053
0.3000425983
0.3000401194
0.3000376681
0.300035299
0.3000331082
0.3000314013
)
;

boundaryField
{
    top
    {
        type            calculated;
        value           nonuniform List<scalar> 
127
(
0.3000573469
0.300056823
0.3000560822
0.3000544637
0.3000521257
0.3000504832
0.3000521256
0.3000544637
0.3000560821
0.300056823
0.3000560176
0.3000548143
0.3000522625
0.3000487527
0.300046479
0.3000487527
0.3000522625
0.3000548143
0.3000560176
0.3000548925
0.3000531432
0.3000495673
0.3000449203
0.3000421522
0.3000449203
0.3000495673
0.3000531433
0.3000548926
0.3000534396
0.3000511142
0.3000465365
0.3000409129
0.3000378091
0.3000409129
0.3000465366
0.3000511142
0.3000534396
0.3000516796
0.3000488017
0.3000433361
0.3000369611
0.3000336655
0.3000369612
0.3000433362
0.3000488018
0.3000516798
0.3000496561
0.3000462927
0.3000401108
0.3000332256
0.3000298545
0.3000332258
0.300040111
0.3000462929
0.3000496563
0.3000474261
0.3000436731
0.3000369723
0.3000298028
0.3000264441
0.300029803
0.3000369726
0.3000436734
0.3000474264
0.3000450527
0.3000410192
0.3000339976
0.3000267382
0.300023456
0.3000267385
0.300033998
0.3000410196
0.300045053
0.3000425978
0.3000383942
0.3000312334
0.3000240418
0.3000208807
0.3000240421
0.3000312338
0.3000383946
0.3000425983
0.3000401188
0.3000358469
0.300028703
0.3000217004
0.3000186905
0.3000217007
0.3000287035
0.3000358474
0.3000401194
0.3000376675
0.3000334152
0.3000264141
0.3000196886
0.3000168485
0.3000196889
0.3000264147
0.3000334159
0.3000376681
0.3000352983
0.3000311356
0.3000243706
0.3000179791
0.3000153174
0.3000179795
0.3000243712
0.3000311363
0.300035299
0.3000331074
0.3000290793
0.3000226026
0.3000165655
0.3000140786
0.3000165658
0.3000226032
0.3000290801
0.3000331082
0.3000314004
0.3000275044
0.3000212884
0.3000155502
0.3000132045
0.3000155506
0.3000212891
0.3000275052
0.3000314013
)
;
    }
    bottom
    {
        type            calculated;
        value           nonuniform List<scalar> 
134
(
0.3000569479
0.3000560646
0.3000547569
0.3000537922
0.3000547569
0.3000560646
0.3000569479
0.3000573469
0.3000568229
0.3000560821
0.3000544637
0.3000521257
0.3000504833
0.3000521257
0.3000544638
0.3000560822
0.300056823
0.3000560176
0.3000548142
0.3000522625
0.3000487527
0.300046479
0.3000487528
0.3000522626
0.3000548143
0.3000560177
0.3000548925
0.3000531432
0.3000495672
0.3000449202
0.3000421521
0.3000449203
0.3000495673
0.3000531433
0.3000548926
0.3000534395
0.300051114
0.3000465364
0.3000409126
0.3000378089
0.3000409128
0.3000465366
0.3000511142
0.3000534396
0.3000516795
0.3000488015
0.3000433359
0.3000369607
0.3000336651
0.3000369609
0.3000433361
0.3000488017
0.3000516797
0.300049656
0.3000462925
0.3000401105
0.3000332252
0.300029854
0.3000332254
0.3000401108
0.3000462928
0.3000496562
0.300047426
0.3000436728
0.3000369719
0.3000298022
0.3000264435
0.3000298024
0.3000369723
0.3000436732
0.3000474263
0.3000450525
0.3000410189
0.3000339971
0.3000267376
0.3000234552
0.3000267378
0.3000339975
0.3000410193
0.3000450528
0.3000425976
0.3000383938
0.3000312328
0.300024041
0.3000208799
0.3000240413
0.3000312333
0.3000383942
0.300042598
0.3000401185
0.3000358464
0.3000287024
0.3000216996
0.3000186896
0.3000216998
0.3000287028
0.3000358469
0.300040119
0.3000376671
0.3000334147
0.3000264134
0.3000196877
0.3000168474
0.300019688
0.3000264139
0.3000334153
0.3000376677
0.3000352978
0.300031135
0.3000243698
0.3000179781
0.3000153163
0.3000179784
0.3000243704
0.3000311356
0.3000352985
0.3000331069
0.3000290787
0.3000226018
0.3000165644
0.3000140774
0.3000165647
0.3000226023
0.3000290794
0.3000331076
0.3000313999
0.3000275037
0.3000212875
0.3000155491
0.3000132033
0.3000155495
0.3000212881
0.3000275044
0.3000314006
)
;
    }
    side-walls
    {
        type            calculated;
        value           nonuniform List<scalar> 
261
(
0.3000568229
0.3000560821
0.3000544637
0.3000521256
0.3000504832
0.3000521256
0.3000544637
0.3000560822
0.300056823
0.3000560176
0.3000548142
0.3000522624
0.3000487526
0.3000464788
0.3000487526
0.3000522625
0.3000548143
0.3000560176
0.3000548925
0.3000531431
0.3000495671
0.3000449201
0.3000421519
0.3000449201
0.3000495672
0.3000531432
0.3000548925
0.3000534395
0.300051114
0.3000465363
0.3000409125
0.3000378087
0.3000409126
0.3000465364
0.3000511141
0.3000534396
0.3000516795
0.3000488015
0.3000433358
0.3000369606
0.3000336649
0.3000369607
0.300043336
0.3000488016
0.3000516796
0.300049656
0.3000462925
0.3000401104
0.300033225
0.3000298538
0.3000332252
0.3000401106
0.3000462926
0.3000496561
0.300047426
0.3000436728
0.3000369719
0.3000298021
0.3000264433
0.3000298023
0.3000369721
0.300043673
0.3000474261
0.3000450525
0.3000410189
0.3000339971
0.3000267374
0.300023455
0.3000267376
0.3000339973
0.3000410192
0.3000450527
0.3000425976
0.3000383938
0.3000312328
0.3000240409
0.3000208797
0.3000240411
0.3000312331
0.3000383941
0.3000425978
0.3000401185
0.3000358464
0.3000287023
0.3000216995
0.3000186894
0.3000216997
0.3000287026
0.3000358468
0.3000401188
0.3000376671
0.3000334147
0.3000264134
0.3000196876
0.3000168473
0.3000196878
0.3000264138
0.3000334151
0.3000376675
0.3000352978
0.300031135
0.3000243698
0.300017978
0.3000153162
0.3000179783
0.3000243702
0.3000311355
0.3000352983
0.3000331069
0.3000290787
0.3000226017
0.3000165643
0.3000140773
0.3000165646
0.3000226021
0.3000290792
0.3000331074
0.3000313999
0.3000275037
0.3000212875
0.300015549
0.3000132031
0.3000155493
0.3000212879
0.3000275043
0.3000314004
0.3000573469
0.3000569479
0.3000560646
0.3000547569
0.3000537922
0.3000547569
0.3000560646
0.3000569479
0.3000573469
0.300056823
0.3000560822
0.3000544638
0.3000521258
0.3000504833
0.3000521258
0.3000544638
0.3000560822
0.300056823
0.3000560177
0.3000548143
0.3000522626
0.3000487528
0.3000464792
0.3000487529
0.3000522626
0.3000548143
0.3000560176
0.3000548926
0.3000531433
0.3000495674
0.3000449204
0.3000421524
0.3000449205
0.3000495675
0.3000531433
0.3000548926
0.3000534396
0.3000511143
0.3000465367
0.300040913
0.3000378093
0.3000409131
0.3000465368
0.3000511143
0.3000534396
0.3000516797
0.3000488018
0.3000433362
0.3000369613
0.3000336657
0.3000369614
0.3000433364
0.3000488019
0.3000516798
0.3000496562
0.3000462928
0.300040111
0.3000332258
0.3000298547
0.300033226
0.3000401112
0.300046293
0.3000496563
0.3000474263
0.3000436732
0.3000369725
0.300029803
0.3000264444
0.3000298032
0.3000369728
0.3000436734
0.3000474264
0.3000450528
0.3000410194
0.3000339978
0.3000267384
0.3000234562
0.3000267387
0.3000339981
0.3000410197
0.300045053
0.300042598
0.3000383943
0.3000312336
0.300024042
0.3000208809
0.3000240422
0.300031234
0.3000383947
0.3000425983
0.300040119
0.3000358471
0.3000287032
0.3000217006
0.3000186907
0.3000217009
0.3000287036
0.3000358475
0.3000401194
0.3000376677
0.3000334154
0.3000264143
0.3000196888
0.3000168486
0.3000196891
0.3000264148
0.3000334159
0.3000376681
0.3000352985
0.3000311358
0.3000243708
0.3000179793
0.3000153176
0.3000179796
0.3000243713
0.3000311363
0.300035299
0.3000331076
0.3000290795
0.3000226028
0.3000165656
0.3000140787
0.300016566
0.3000226033
0.3000290801
0.3000331082
0.3000314006
0.3000275046
0.3000212886
0.3000155504
0.3000132046
0.3000155507
0.3000212892
0.3000275053
0.3000314013
)
;
    }
    inlet
    {
        type            calculated;
        value           nonuniform 0();
    }
    outlet
    {
        type            calculated;
        value           nonuniform List<scalar> 
81
(
0.3000313999
0.3000275037
0.3000212875
0.300015549
0.3000132031
0.3000155493
0.3000212879
0.3000275043
0.3000314004
0.3000275037
0.3000226508
0.3000148543
0.3000075937
0.3000046048
0.3000075941
0.3000148548
0.3000226515
0.3000275044
0.3000212875
0.3000148543
0.3000044322
0.2999946233
0.2999905499
0.2999946237
0.300004433
0.3000148551
0.3000212884
0.3000155491
0.3000075938
0.2999946233
0.2999823142
0.2999771646
0.2999823147
0.2999946242
0.3000075948
0.3000155502
0.3000132033
0.3000046049
0.29999055
0.2999771647
0.2999715317
0.2999771653
0.299990551
0.300004606
0.3000132045
0.3000155495
0.3000075942
0.2999946239
0.2999823149
0.2999771655
0.2999823155
0.2999946248
0.3000075953
0.3000155506
0.3000212881
0.300014855
0.3000044332
0.2999946244
0.2999905512
0.2999946249
0.300004434
0.3000148559
0.3000212891
0.3000275044
0.3000226517
0.3000148553
0.300007595
0.3000046062
0.3000075954
0.300014856
0.3000226524
0.3000275052
0.3000314006
0.3000275046
0.3000212886
0.3000155504
0.3000132046
0.3000155507
0.3000212892
0.3000275053
0.3000314013
)
;
    }
    procBoundary1to0
    {
        type            processor;
        value           nonuniform List<scalar> 
97
(
0.3000573469
0.3000573469
0.3000569479
0.3000560646
0.300054757
0.3000537923
0.300054757
0.3000560647
0.300056948
0.300057347
0.3000574662
0.3000560462
0.3000560462
0.3000560462
0.3000537514
0.3000495424
0.3000452273
0.3000495425
0.3000537516
0.3000560464
0.300056948
0.3000570609
0.3000560327
0.3000467707
0.3000467707
0.3000467707
0.3000300971
0.3000041392
0.300030098
0.3000467715
0.3000537516
0.3000560647
0.3000564754
0.3000542443
0.3000465577
0.2999644804
0.2999644804
0.2999644804
0.2997835044
0.2999644853
0.3000300979
0.3000495425
0.300054757
0.3000560641
0.3000525862
0.3000381865
0.2999821921
0.2983136847
0.2983136847
0.2983136847
0.2997835039
0.2997835039
0.3000041392
0.3000452273
0.3000537923
0.3000564754
0.3000542444
0.3000465577
0.3000245823
0.2999821914
0.3000245825
0.3000300964
0.3000300964
0.3000300964
0.3000495423
0.300054757
0.3000570609
0.3000560327
0.3000530611
0.3000465577
0.3000381863
0.3000465577
0.3000530611
0.3000537513
0.3000537513
0.3000537513
0.3000560646
0.3000574662
0.3000570548
0.3000560327
0.3000542443
0.3000525862
0.3000542444
0.3000560327
0.3000570548
0.3000569479
0.3000569479
0.3000569479
0.3000576517
0.3000574662
0.3000570609
0.3000564754
0.3000560641
0.3000564754
0.3000570609
0.3000574662
0.3000576517
)
;
    }
}


// ************************************************************************* //
