/*--------------------------------*- C++ -*----------------------------------*\
| =========                 |                                                 |
| \\      /  F ield         | OpenFOAM: The Open Source CFD Toolbox           |
|  \\    /   O peration     | Version:  4.x                                   |
|   \\  /    A nd           | Web:      www.OpenFOAM.org                      |
|    \\/     M anipulation  |                                                 |
\*---------------------------------------------------------------------------*/
FoamFile
{
    version     2.0;
    format      ascii;
    class       volScalarField;
    location    "8000";
    object      X_H2O;
}
// * * * * * * * * * * * * * * * * * * * * * * * * * * * * * * * * * * * * * //

dimensions      [0 0 0 0 0 0 0];

internalField   nonuniform List<scalar> 
1174
(
1.620027597e-05
1.704430733e-05
1.822344329e-05
1.974611367e-05
2.159039231e-05
2.371084307e-05
2.604746979e-05
2.853432366e-05
3.110630699e-05
3.370342962e-05
3.627136956e-05
3.875306942e-05
4.104780854e-05
4.283566054e-05
1.69768448e-05
1.830570105e-05
2.005703389e-05
2.218353575e-05
2.460694651e-05
2.723611715e-05
2.998104346e-05
3.276165371e-05
3.551194054e-05
3.818050252e-05
4.072769994e-05
4.311544774e-05
4.526903293e-05
4.691832872e-05
1.867336467e-05
2.09805209e-05
2.380534946e-05
2.698165875e-05
3.033563684e-05
3.371542695e-05
3.700402041e-05
4.012074583e-05
4.301665638e-05
4.566733719e-05
4.806466037e-05
5.020478389e-05
5.205607193e-05
5.343202803e-05
2.112424648e-05
2.465959099e-05
2.867635213e-05
3.287629612e-05
3.701766423e-05
4.093200763e-05
4.451843254e-05
4.772911601e-05
5.055375519e-05
5.300608414e-05
5.511286756e-05
5.69027003e-05
5.838245321e-05
5.944498546e-05
2.284595565e-05
2.704299317e-05
3.157788635e-05
3.612962012e-05
4.047196577e-05
4.446542727e-05
4.803865606e-05
5.116914168e-05
5.386666623e-05
5.616044064e-05
5.808923291e-05
5.969195329e-05
6.0988436e-05
6.190298346e-05
2.112418886e-05
2.46595061e-05
2.867623009e-05
3.287613644e-05
3.701745633e-05
4.093175384e-05
4.45181239e-05
4.772875297e-05
5.055334454e-05
5.300562446e-05
5.511235591e-05
5.690215366e-05
5.838187157e-05
5.944435749e-05
1.867326953e-05
2.098039454e-05
2.380518258e-05
2.698144169e-05
3.033535414e-05
3.371506252e-05
3.700356775e-05
4.012020966e-05
4.301602182e-05
4.566661297e-05
4.806384811e-05
5.020389383e-05
5.205510746e-05
5.343099174e-05
1.697675651e-05
1.830559457e-05
2.005689506e-05
2.218335355e-05
2.460669758e-05
2.723578678e-05
2.9980622e-05
3.276112524e-05
3.5511296e-05
3.817973451e-05
4.072681166e-05
4.31144452e-05
4.526791201e-05
4.691710753e-05
1.620021405e-05
1.704424067e-05
1.822335948e-05
1.974599612e-05
2.159022475e-05
2.371060243e-05
2.604713306e-05
2.853387868e-05
3.110573274e-05
3.37027183e-05
3.627051331e-05
3.875206248e-05
4.104665809e-05
4.283434681e-05
1.606934846e-05
1.697678878e-05
1.830564971e-05
2.005698516e-05
2.218348989e-05
2.460689882e-05
2.723607268e-05
2.998100248e-05
3.276161659e-05
3.551190333e-05
3.818046431e-05
4.072766012e-05
4.311541385e-05
4.526899629e-05
4.691829233e-05
1.86991293e-05
2.098502179e-05
2.374397255e-05
2.680481428e-05
3.000098626e-05
3.319586517e-05
3.629050089e-05
3.922101259e-05
4.195150932e-05
4.446610325e-05
4.676073366e-05
4.883172159e-05
5.064395318e-05
5.200362952e-05
2.297776984e-05
2.733046204e-05
3.200895543e-05
3.661755928e-05
4.089484019e-05
4.47061481e-05
4.801030157e-05
5.082426432e-05
5.319531388e-05
5.518225698e-05
5.68437267e-05
5.822940955e-05
5.936301215e-05
6.017340962e-05
3.046445759e-05
3.758283416e-05
4.42696683e-05
5.004221196e-05
5.475145966e-05
5.844370137e-05
6.125478321e-05
6.334583868e-05
6.487024756e-05
6.596004376e-05
6.672263239e-05
6.724240758e-05
6.758305768e-05
6.778140141e-05
3.740526399e-05
4.588212206e-05
5.297872721e-05
5.854157223e-05
6.271268345e-05
6.573174317e-05
6.784438521e-05
6.926638329e-05
7.017408052e-05
7.070602436e-05
7.096878341e-05
7.104442433e-05
7.100097012e-05
7.091320683e-05
3.046419328e-05
3.758251572e-05
4.42692876e-05
5.00417649e-05
5.475094612e-05
5.844313168e-05
6.125416725e-05
6.334517247e-05
6.486954155e-05
6.595931135e-05
6.672187472e-05
6.724164127e-05
6.758225983e-05
6.778056916e-05
2.297745422e-05
2.733010328e-05
3.200853415e-05
3.661704765e-05
4.089422307e-05
4.470542166e-05
4.80094714e-05
5.082333331e-05
5.31942851e-05
5.518114619e-05
5.684255324e-05
5.822817047e-05
5.936172142e-05
6.017206427e-05
1.869893735e-05
2.09848263e-05
2.374372597e-05
2.680449633e-05
3.000056378e-05
3.319531416e-05
3.628981338e-05
3.922018376e-05
4.195055059e-05
4.44650098e-05
4.675951341e-05
4.883037977e-05
5.064251038e-05
5.200208224e-05
1.69767647e-05
1.830559854e-05
2.005688951e-05
2.218332345e-05
2.460664164e-05
2.723569504e-05
2.998048807e-05
3.276094596e-05
3.551107188e-05
3.817946518e-05
4.072648679e-05
4.311407519e-05
4.526749707e-05
4.691662507e-05
1.699528527e-05
1.867322643e-05
2.098038154e-05
2.380520525e-05
2.698151247e-05
3.033549017e-05
3.371528074e-05
3.700386767e-05
4.012060535e-05
4.30165152e-05
4.566719191e-05
4.806452039e-05
5.020464287e-05
5.205593791e-05
5.343189965e-05
1.942045575e-05
2.29775941e-05
2.733030971e-05
3.200882348e-05
3.661743605e-05
4.08947238e-05
4.470603752e-05
4.801020031e-05
5.082416677e-05
5.319521259e-05
5.518214696e-05
5.6843632e-05
5.822931429e-05
5.936292735e-05
6.017333283e-05
3.541880608e-05
4.439588675e-05
5.240908344e-05
5.888232068e-05
6.373234131e-05
6.713939257e-05
6.938238276e-05
7.074544909e-05
7.147539318e-05
7.176892822e-05
7.17748523e-05
7.160338569e-05
7.134233808e-05
7.109440199e-05
6.264793436e-05
7.74800229e-05
8.748588189e-05
9.320463605e-05
9.571461292e-05
9.606070257e-05
9.506583257e-05
9.331450465e-05
9.119572805e-05
8.895607185e-05
8.67461674e-05
8.466077795e-05
8.279144732e-05
8.137291599e-05
9.769653331e-05
0.0001121082792
0.0001179788711
0.0001186586137
0.0001164887259
0.000112917252
0.0001087877191
0.0001045708572
0.0001005169916
9.674946387e-05
9.33214709e-05
9.025687205e-05
8.760770872e-05
8.56410496e-05
6.264665222e-05
7.747876427e-05
8.748462136e-05
9.32033643e-05
9.571332897e-05
9.605941026e-05
9.50645527e-05
9.331324431e-05
9.119448244e-05
8.895486505e-05
8.67449879e-05
8.465961938e-05
8.279032414e-05
8.137181438e-05
3.541778895e-05
4.439493283e-05
5.240804189e-05
5.888113093e-05
6.373099976e-05
6.713791893e-05
6.938080884e-05
7.074378714e-05
7.147367325e-05
7.176717768e-05
7.177307221e-05
7.160159518e-05
7.134054393e-05
7.109258083e-05
2.297745578e-05
2.733005948e-05
3.200841224e-05
3.66168376e-05
4.089391799e-05
4.470502407e-05
4.800898923e-05
5.082277887e-05
5.31936684e-05
5.51804739e-05
5.684183622e-05
5.822741808e-05
5.936093453e-05
6.017126211e-05
1.867327798e-05
2.098036891e-05
2.380509801e-05
2.698126775e-05
3.033507102e-05
3.371466012e-05
3.700304365e-05
4.011955685e-05
4.301525022e-05
4.566572427e-05
4.806286096e-05
5.020280962e-05
5.205393083e-05
5.342972306e-05
1.836606916e-05
2.112402059e-05
2.465933482e-05
2.867607663e-05
3.287600971e-05
3.701737549e-05
4.093172054e-05
4.451814282e-05
4.772882658e-05
5.055347051e-05
5.300580739e-05
5.511258836e-05
5.690243692e-05
5.838220675e-05
5.944473803e-05
2.383287483e-05
3.046409041e-05
3.758248796e-05
4.426933754e-05
5.004190711e-05
5.475116788e-05
5.844342184e-05
6.12545196e-05
6.334558375e-05
6.487000019e-05
6.595980529e-05
6.672240911e-05
6.724218983e-05
6.758284367e-05
6.778118589e-05
4.421931428e-05
6.264723099e-05
7.747950547e-05
8.748547091e-05
9.320428801e-05
9.571429096e-05
9.606041599e-05
9.50655718e-05
9.331424693e-05
9.119548201e-05
8.89558633e-05
8.674597485e-05
8.466057923e-05
8.279127206e-05
8.137274917e-05
0.0001546847155
0.0001724681223
0.0001746063415
0.0001684918424
0.0001588486806
0.0001482815954
0.0001380742857
0.0001287743915
0.0001205502155
0.0001133898983
0.0001072083993
0.0001019124575
9.74846582e-05
9.427111215e-05
0.0003323135377
0.0003070079786
0.000269992334
0.000235073915
0.0002056915153
0.0001818866022
0.0001627833665
0.0001474151562
0.000134959284
0.0001247725843
0.0001163707407
0.0001094096346
0.0001037280231
9.966696046e-05
0.0001546803498
0.0001724649522
0.0001746035871
0.0001684893074
0.0001588463377
0.0001482794044
0.0001380722462
0.0001287725122
0.0001205484702
0.0001133882504
0.0001072068576
0.0001019109934
9.748325511e-05
9.426976195e-05
6.264676326e-05
7.747845421e-05
8.748390232e-05
9.320230991e-05
9.571204157e-05
9.605799862e-05
9.50630812e-05
9.331174283e-05
9.119300056e-05
8.895340065e-05
8.674354733e-05
8.465822426e-05
8.278896608e-05
8.13704694e-05
3.046419162e-05
3.758227375e-05
4.426875797e-05
5.004093818e-05
5.47498475e-05
5.84418075e-05
6.125265251e-05
6.334352221e-05
6.4867793e-05
6.595747435e-05
6.671998342e-05
6.723971079e-05
6.758030644e-05
6.777858796e-05
2.112419576e-05
2.465940593e-05
2.867595621e-05
3.287564303e-05
3.701672101e-05
4.093076823e-05
4.451690001e-05
4.772731087e-05
5.055170013e-05
5.30038122e-05
5.511038324e-05
5.690004591e-05
5.837965097e-05
5.944202037e-05
1.937738086e-05
2.284566048e-05
2.704264731e-05
3.157750382e-05
3.612920777e-05
4.047154382e-05
4.446499803e-05
4.803822912e-05
5.116871777e-05
5.386625145e-05
5.616003539e-05
5.808884484e-05
5.969157826e-05
6.098807404e-05
6.190263351e-05
2.835645829e-05
3.740465018e-05
4.588145754e-05
5.297806207e-05
5.85409268e-05
6.271207412e-05
6.573117965e-05
6.784385939e-05
6.926588937e-05
7.017362569e-05
7.070559957e-05
7.096837684e-05
7.104404488e-05
7.100060704e-05
7.091286591e-05
7.143172315e-05
9.769509662e-05
0.0001121069303
0.000117977698
0.0001186576518
0.0001164878961
0.0001129165466
0.0001087871131
0.0001045703253
0.0001005165272
9.674904538e-05
9.332108702e-05
9.025652544e-05
8.760738425e-05
8.564074571e-05
0.0003027440721
0.0003323093976
0.000307005519
0.0002699907302
0.0002350728135
0.0002056907377
0.0001818860179
0.0001627828852
0.0001474147757
0.0001349589843
0.0001247723016
0.0001163704971
0.0001094094158
0.0001037278211
9.966676992e-05
0.001088448406
0.0006970517169
0.0004822416946
0.0003573265422
0.0002803168297
0.0002300901195
0.0001955956905
0.0001708102819
0.0001523100509
0.0001380653862
0.0001268264449
0.0001178142592
0.0001106294772
0.0001055691046
0.0003323134361
0.000307004159
0.0002699876511
0.0002350693486
0.0002056874052
0.0001818829406
0.0001627801137
0.000147412243
0.0001349566769
0.0001247702032
0.000116368571
0.0001094076311
0.0001037261378
9.966516268e-05
9.769647411e-05
0.0001121065132
0.0001179759987
0.0001186551838
0.0001164850202
0.0001129134928
0.0001087840237
0.0001045672649
0.0001005135341
9.674613323e-05
9.331828114e-05
9.025380323e-05
8.760475915e-05
8.563817163e-05
3.740519108e-05
4.58814522e-05
5.297745268e-05
5.853976864e-05
6.271045976e-05
6.572919531e-05
6.784160775e-05
6.926344074e-05
7.017103222e-05
7.070290229e-05
7.096561104e-05
7.104122171e-05
7.099774515e-05
7.090996519e-05
2.284595529e-05
2.70427808e-05
3.157737314e-05
3.61287504e-05
4.047072324e-05
4.44638147e-05
4.803670562e-05
5.116689361e-05
5.386414739e-05
5.6157686e-05
5.808627563e-05
5.968883597e-05
6.098517736e-05
6.189957511e-05
1.836605136e-05
2.112395262e-05
2.465920871e-05
2.867588436e-05
3.287574763e-05
3.701703663e-05
4.093131022e-05
4.451766685e-05
4.772829343e-05
5.055289177e-05
5.300517526e-05
5.511190962e-05
5.690171462e-05
5.838143739e-05
5.944393787e-05
2.383263122e-05
3.046367539e-05
3.758192445e-05
4.426866385e-05
5.004112669e-05
5.475031172e-05
5.84425166e-05
6.125357448e-05
6.334460411e-05
6.486899448e-05
6.595878838e-05
6.672137833e-05
6.724115632e-05
6.758180717e-05
6.778014175e-05
4.421745626e-05
6.264541365e-05
7.747755962e-05
8.74834828e-05
9.320229579e-05
9.571234909e-05
9.605853145e-05
9.506376718e-05
9.331253093e-05
9.119383428e-05
8.895427518e-05
8.674445162e-05
8.465912586e-05
8.278985867e-05
8.137136682e-05
0.0001130034215
0.0001546771394
0.0001724623472
0.0001746015031
0.0001684876304
0.0001588449483
0.0001482782805
0.0001380713105
0.0001287716967
0.0001205477664
0.0001133876426
0.0001072063144
0.000101910519
9.748284028e-05
9.426935778e-05
0.0003027436197
0.0003323083246
0.0003070008314
0.0002699853494
0.0002350676656
0.0002056860987
0.0001818819332
0.0001627792954
0.0001474116019
0.0001349561432
0.0001247697604
0.0001163681732
0.0001094072904
0.0001037258407
9.966488999e-05
0.000113004924
0.000154677305
0.0001724612084
0.0001745994704
0.0001684851745
0.0001588423521
0.0001482756816
0.0001380688369
0.0001287693803
0.0001205455807
0.0001133856015
0.0001072044
0.0001019087229
9.748114142e-05
9.426774198e-05
6.264790199e-05
7.747817265e-05
8.748277364e-05
9.320070589e-05
9.571017622e-05
9.6056025e-05
9.506108188e-05
9.330977014e-05
9.119107396e-05
8.895152403e-05
8.674174658e-05
8.465648372e-05
8.278728287e-05
8.136883703e-05
3.046457507e-05
3.758233674e-05
4.426849333e-05
5.004039461e-05
5.474908127e-05
5.844088166e-05
6.12516131e-05
6.33423954e-05
6.48666039e-05
6.595625642e-05
6.671873833e-05
6.723844088e-05
6.757903253e-05
6.777730494e-05
2.112431556e-05
2.465944651e-05
2.867588143e-05
3.287543218e-05
3.701636689e-05
4.093028083e-05
4.451629056e-05
4.772658945e-05
5.055089494e-05
5.30029221e-05
5.510943732e-05
5.689905084e-05
5.837861484e-05
5.944092763e-05
1.699523699e-05
1.867310901e-05
2.098018101e-05
2.380491843e-05
2.698112775e-05
3.033500138e-05
3.371468001e-05
3.700315557e-05
4.011977606e-05
4.301558024e-05
4.566615848e-05
4.806339035e-05
5.020343439e-05
5.205464906e-05
5.343053407e-05
1.942012153e-05
2.297714066e-05
2.732971517e-05
3.200809499e-05
3.661656472e-05
4.089371393e-05
4.470490224e-05
4.800894341e-05
5.082280348e-05
5.319375979e-05
5.518062453e-05
5.684204535e-05
5.822767295e-05
5.936123179e-05
6.017157986e-05
2.673765846e-05
3.541706901e-05
4.439412648e-05
5.240720461e-05
5.88802904e-05
6.373018653e-05
6.71371441e-05
6.938005871e-05
7.074308913e-05
7.147301934e-05
7.176656304e-05
7.177249245e-05
7.160103852e-05
7.134001156e-05
7.109208312e-05
4.421744798e-05
6.26450856e-05
7.747680838e-05
8.74823729e-05
9.320094501e-05
9.571084861e-05
9.605695653e-05
9.506215455e-05
9.331092019e-05
9.119225952e-05
8.895273624e-05
8.674295616e-05
8.465767029e-05
8.278846249e-05
8.136999791e-05
7.143190201e-05
9.769401427e-05
0.0001121044535
0.0001179743099
0.0001186537522
0.0001164838202
0.0001129124766
0.0001087831448
0.0001045665091
0.0001005128605
9.674554896e-05
9.331774837e-05
9.025333273e-05
8.76043287e-05
8.563775753e-05
4.421749484e-05
6.264491997e-05
7.747628996e-05
8.748149811e-05
9.319978489e-05
9.570949454e-05
9.605549274e-05
9.506064007e-05
9.330940159e-05
9.119074629e-05
8.895125138e-05
8.674150861e-05
8.465626549e-05
8.278708637e-05
8.136863222e-05
2.673829998e-05
3.541759562e-05
4.439424627e-05
5.240682448e-05
5.88794398e-05
6.372893985e-05
6.713559816e-05
6.937830791e-05
7.074117012e-05
7.147099262e-05
7.176447086e-05
7.177036965e-05
7.159889871e-05
7.133786394e-05
7.108990509e-05
2.297774608e-05
2.733003384e-05
3.200807364e-05
3.661618613e-05
4.089298483e-05
4.470384354e-05
4.80075941e-05
5.082120138e-05
5.319194428e-05
5.517863355e-05
5.683990135e-05
5.822540992e-05
5.93588718e-05
6.016914185e-05
1.867340836e-05
2.098040833e-05
2.380499394e-05
2.698098919e-05
3.033459672e-05
3.371398825e-05
3.700217148e-05
4.011850221e-05
4.301402837e-05
4.566435101e-05
4.806135216e-05
5.020118321e-05
5.205220882e-05
5.342790736e-05
1.606927059e-05
1.69766598e-05
1.830545959e-05
2.00567195e-05
2.218313332e-05
2.460643938e-05
2.723548498e-05
2.998028406e-05
3.276075817e-05
3.551090006e-05
3.817932223e-05
4.072637928e-05
4.311400257e-05
4.526745843e-05
4.691664361e-05
1.701444397e-05
1.869876818e-05
2.098460282e-05
2.374345292e-05
2.680416794e-05
3.000019128e-05
3.319490429e-05
3.62893825e-05
3.921973027e-05
4.195007963e-05
4.446452865e-05
4.675902926e-05
4.882989408e-05
5.064201764e-05
5.200158802e-05
1.942012905e-05
2.297711963e-05
2.732963854e-05
3.200793413e-05
3.661630746e-05
4.089336357e-05
4.47044584e-05
4.800841418e-05
5.082220028e-05
5.319309983e-05
5.517992007e-05
5.684128809e-05
5.822688717e-05
5.936041692e-05
6.017075519e-05
2.383265225e-05
3.04635375e-05
3.758153355e-05
4.426797516e-05
5.004014155e-05
5.474906401e-05
5.844104299e-05
6.125193306e-05
6.334282974e-05
6.486713097e-05
6.595685274e-05
6.671940292e-05
6.723914744e-05
6.757976681e-05
6.777807922e-05
2.835647267e-05
3.740425195e-05
4.588048732e-05
5.297651592e-05
5.853889014e-05
6.270964019e-05
6.572843777e-05
6.784091325e-05
6.926279879e-05
7.017042639e-05
7.070234573e-05
7.096509006e-05
7.104073325e-05
7.099728974e-05
7.090953118e-05
2.383261721e-05
3.04634385e-05
3.758131397e-05
4.4267614e-05
5.00396376e-05
5.474842934e-05
5.844030873e-05
6.125110072e-05
6.334192669e-05
6.486617969e-05
6.595585822e-05
6.671838218e-05
6.723811675e-05
6.757872473e-05
6.77770157e-05
1.942018465e-05
2.297715518e-05
2.732956148e-05
3.200767465e-05
3.661584212e-05
4.089267834e-05
4.470357203e-05
4.800734986e-05
5.082098569e-05
5.319174881e-05
5.517845439e-05
5.683973377e-05
5.822525151e-05
5.935872367e-05
6.016900299e-05
1.701457122e-05
1.869890859e-05
2.098467633e-05
2.374339752e-05
2.680394322e-05
2.999976478e-05
3.31942665e-05
3.628852766e-05
3.921866861e-05
4.194881476e-05
4.4463078e-05
4.675741329e-05
4.882812615e-05
5.064011642e-05
5.199957603e-05
1.697684245e-05
1.830559482e-05
2.005677406e-05
2.218306295e-05
2.460620388e-05
2.723506177e-05
2.997963951e-05
3.275988693e-05
3.550979433e-05
3.817798046e-05
4.07248143e-05
4.311221782e-05
4.526547282e-05
4.69144585e-05
1.565101617e-05
1.620015174e-05
1.704414726e-05
1.822322999e-05
1.974582904e-05
2.159001599e-05
2.371034997e-05
2.604684389e-05
2.85335508e-05
3.110537533e-05
3.370232933e-05
3.627009861e-05
3.875163087e-05
4.104620632e-05
4.283389096e-05
1.606927547e-05
1.697666291e-05
1.8305455e-05
2.005669846e-05
2.218308585e-05
2.460635745e-05
2.72353684e-05
2.998011957e-05
3.276055082e-05
3.551064764e-05
3.817902417e-05
4.072603037e-05
4.31136046e-05
4.526702114e-05
4.691614044e-05
1.699524521e-05
1.867310059e-05
2.098012818e-05
2.380479274e-05
2.698090771e-05
3.033466925e-05
3.371421913e-05
3.700257486e-05
4.011906868e-05
4.301475073e-05
4.566521988e-05
4.806235343e-05
5.020229692e-05
5.205342627e-05
5.342922224e-05
1.836605927e-05
2.112388846e-05
2.465900928e-05
2.867549299e-05
3.287512739e-05
3.701617257e-05
4.093019674e-05
4.451632078e-05
4.772672779e-05
5.055112496e-05
5.300324437e-05
5.51098397e-05
5.689951784e-05
5.837913256e-05
5.944150501e-05
1.937738211e-05
2.284551794e-05
2.704225373e-05
3.157678198e-05
3.612812957e-05
4.047009628e-05
4.4463193e-05
4.803609596e-05
5.116629452e-05
5.386357609e-05
5.615714169e-05
5.808575915e-05
5.968834613e-05
6.098470282e-05
6.189910581e-05
1.836602911e-05
2.112382609e-05
2.465889099e-05
2.867530187e-05
3.287485003e-05
3.701580102e-05
4.09297368e-05
4.451577001e-05
4.772610171e-05
5.055043047e-05
5.300249051e-05
5.510903087e-05
5.689866883e-05
5.837825032e-05
5.944058937e-05
1.699522856e-05
1.867305879e-05
2.098002931e-05
2.380460529e-05
2.698059833e-05
3.033421735e-05
3.37136199e-05
3.700181772e-05
4.011817225e-05
4.3013717e-05
4.566405958e-05
4.806107767e-05
5.02009275e-05
5.205197181e-05
5.342768261e-05
1.606928775e-05
1.697667829e-05
1.830544497e-05
2.005662887e-05
2.218292147e-05
2.460606536e-05
2.723492486e-05
2.997950953e-05
3.27597606e-05
3.550967432e-05
3.817786755e-05
4.072470016e-05
4.311211223e-05
4.526537198e-05
4.691436423e-05
1.565105185e-05
1.620020378e-05
1.704419298e-05
1.822323726e-05
1.97457638e-05
2.158984283e-05
2.371003975e-05
2.604636478e-05
2.853287828e-05
3.110449397e-05
3.370123153e-05
3.626878058e-05
3.875009046e-05
4.104445253e-05
4.283192972e-05
)
;

boundaryField
{
    top
    {
        type            calculated;
        value           nonuniform List<scalar> 
127
(
1.565105185e-05
1.620021405e-05
1.69767647e-05
1.867327798e-05
2.112419576e-05
2.284595529e-05
2.112431556e-05
1.867340836e-05
1.697684245e-05
1.620020378e-05
1.704424067e-05
1.830559854e-05
2.098036891e-05
2.465940593e-05
2.70427808e-05
2.465944651e-05
2.098040833e-05
1.830559482e-05
1.704419298e-05
1.822335948e-05
2.005688951e-05
2.380509801e-05
2.867595621e-05
3.157737314e-05
2.867588143e-05
2.380499394e-05
2.005677406e-05
1.822323726e-05
1.974599612e-05
2.218332345e-05
2.698126775e-05
3.287564303e-05
3.61287504e-05
3.287543218e-05
2.698098919e-05
2.218306295e-05
1.97457638e-05
2.159022475e-05
2.460664164e-05
3.033507102e-05
3.701672101e-05
4.047072324e-05
3.701636689e-05
3.033459672e-05
2.460620388e-05
2.158984283e-05
2.371060243e-05
2.723569504e-05
3.371466012e-05
4.093076823e-05
4.44638147e-05
4.093028083e-05
3.371398825e-05
2.723506177e-05
2.371003975e-05
2.604713306e-05
2.998048807e-05
3.700304365e-05
4.451690001e-05
4.803670562e-05
4.451629056e-05
3.700217148e-05
2.997963951e-05
2.604636478e-05
2.853387868e-05
3.276094596e-05
4.011955685e-05
4.772731087e-05
5.116689361e-05
4.772658945e-05
4.011850221e-05
3.275988693e-05
2.853287828e-05
3.110573274e-05
3.551107188e-05
4.301525022e-05
5.055170013e-05
5.386414739e-05
5.055089494e-05
4.301402837e-05
3.550979433e-05
3.110449397e-05
3.37027183e-05
3.817946518e-05
4.566572427e-05
5.30038122e-05
5.6157686e-05
5.30029221e-05
4.566435101e-05
3.817798046e-05
3.370123153e-05
3.627051331e-05
4.072648679e-05
4.806286096e-05
5.511038324e-05
5.808627563e-05
5.510943732e-05
4.806135216e-05
4.07248143e-05
3.626878058e-05
3.875206248e-05
4.311407519e-05
5.020280962e-05
5.690004591e-05
5.968883597e-05
5.689905084e-05
5.020118321e-05
4.311221782e-05
3.875009046e-05
4.104665809e-05
4.526749707e-05
5.205393083e-05
5.837965097e-05
6.098517736e-05
5.837861484e-05
5.205220882e-05
4.526547282e-05
4.104445253e-05
4.283434681e-05
4.691662507e-05
5.342972306e-05
5.944202037e-05
6.189957511e-05
5.944092763e-05
5.342790736e-05
4.69144585e-05
4.283192972e-05
)
;
    }
    bottom
    {
        type            calculated;
        value           nonuniform List<scalar> 
134
(
1.606934846e-05
1.699528527e-05
1.836606916e-05
1.937738086e-05
1.836605136e-05
1.699523699e-05
1.606927059e-05
1.565101617e-05
1.620027597e-05
1.697678878e-05
1.867322643e-05
2.112402059e-05
2.284566048e-05
2.112395262e-05
1.867310901e-05
1.69766598e-05
1.620015174e-05
1.704430733e-05
1.830564971e-05
2.098038154e-05
2.465933482e-05
2.704264731e-05
2.465920871e-05
2.098018101e-05
1.830545959e-05
1.704414726e-05
1.822344329e-05
2.005698516e-05
2.380520525e-05
2.867607663e-05
3.157750382e-05
2.867588436e-05
2.380491843e-05
2.00567195e-05
1.822322999e-05
1.974611367e-05
2.218348989e-05
2.698151247e-05
3.287600971e-05
3.612920777e-05
3.287574763e-05
2.698112775e-05
2.218313332e-05
1.974582904e-05
2.159039231e-05
2.460689882e-05
3.033549017e-05
3.701737549e-05
4.047154382e-05
3.701703663e-05
3.033500138e-05
2.460643938e-05
2.159001599e-05
2.371084307e-05
2.723607268e-05
3.371528074e-05
4.093172054e-05
4.446499803e-05
4.093131022e-05
3.371468001e-05
2.723548498e-05
2.371034997e-05
2.604746979e-05
2.998100248e-05
3.700386767e-05
4.451814282e-05
4.803822912e-05
4.451766685e-05
3.700315557e-05
2.998028406e-05
2.604684389e-05
2.853432366e-05
3.276161659e-05
4.012060535e-05
4.772882658e-05
5.116871777e-05
4.772829343e-05
4.011977606e-05
3.276075817e-05
2.85335508e-05
3.110630699e-05
3.551190333e-05
4.30165152e-05
5.055347051e-05
5.386625145e-05
5.055289177e-05
4.301558024e-05
3.551090006e-05
3.110537533e-05
3.370342962e-05
3.818046431e-05
4.566719191e-05
5.300580739e-05
5.616003539e-05
5.300517526e-05
4.566615848e-05
3.817932223e-05
3.370232933e-05
3.627136956e-05
4.072766012e-05
4.806452039e-05
5.511258836e-05
5.808884484e-05
5.511190962e-05
4.806339035e-05
4.072637928e-05
3.627009861e-05
3.875306942e-05
4.311541385e-05
5.020464287e-05
5.690243692e-05
5.969157826e-05
5.690171462e-05
5.020343439e-05
4.311400257e-05
3.875163087e-05
4.104780854e-05
4.526899629e-05
5.205593791e-05
5.838220675e-05
6.098807404e-05
5.838143739e-05
5.205464906e-05
4.526745843e-05
4.104620632e-05
4.283566054e-05
4.691829233e-05
5.343189965e-05
5.944473803e-05
6.190263351e-05
5.944393787e-05
5.343053407e-05
4.691664361e-05
4.283389096e-05
)
;
    }
    side-walls
    {
        type            calculated;
        value           nonuniform List<scalar> 
261
(
1.620027597e-05
1.69768448e-05
1.867336467e-05
2.112424648e-05
2.284595565e-05
2.112418886e-05
1.867326953e-05
1.697675651e-05
1.620021405e-05
1.704430733e-05
1.830570105e-05
2.09805209e-05
2.465959099e-05
2.704299317e-05
2.46595061e-05
2.098039454e-05
1.830559457e-05
1.704424067e-05
1.822344329e-05
2.005703389e-05
2.380534946e-05
2.867635213e-05
3.157788635e-05
2.867623009e-05
2.380518258e-05
2.005689506e-05
1.822335948e-05
1.974611367e-05
2.218353575e-05
2.698165875e-05
3.287629612e-05
3.612962012e-05
3.287613644e-05
2.698144169e-05
2.218335355e-05
1.974599612e-05
2.159039231e-05
2.460694651e-05
3.033563684e-05
3.701766423e-05
4.047196577e-05
3.701745633e-05
3.033535414e-05
2.460669758e-05
2.159022475e-05
2.371084307e-05
2.723611715e-05
3.371542695e-05
4.093200763e-05
4.446542727e-05
4.093175384e-05
3.371506252e-05
2.723578678e-05
2.371060243e-05
2.604746979e-05
2.998104346e-05
3.700402041e-05
4.451843254e-05
4.803865606e-05
4.45181239e-05
3.700356775e-05
2.9980622e-05
2.604713306e-05
2.853432366e-05
3.276165371e-05
4.012074583e-05
4.772911601e-05
5.116914168e-05
4.772875297e-05
4.012020966e-05
3.276112524e-05
2.853387868e-05
3.110630699e-05
3.551194054e-05
4.301665638e-05
5.055375519e-05
5.386666623e-05
5.055334454e-05
4.301602182e-05
3.5511296e-05
3.110573274e-05
3.370342962e-05
3.818050252e-05
4.566733719e-05
5.300608414e-05
5.616044064e-05
5.300562446e-05
4.566661297e-05
3.817973451e-05
3.37027183e-05
3.627136956e-05
4.072769994e-05
4.806466037e-05
5.511286756e-05
5.808923291e-05
5.511235591e-05
4.806384811e-05
4.072681166e-05
3.627051331e-05
3.875306942e-05
4.311544774e-05
5.020478389e-05
5.69027003e-05
5.969195329e-05
5.690215366e-05
5.020389383e-05
4.31144452e-05
3.875206248e-05
4.104780854e-05
4.526903293e-05
5.205607193e-05
5.838245321e-05
6.0988436e-05
5.838187157e-05
5.205510746e-05
4.526791201e-05
4.104665809e-05
4.283566054e-05
4.691832872e-05
5.343202803e-05
5.944498546e-05
6.190298346e-05
5.944435749e-05
5.343099174e-05
4.691710753e-05
4.283434681e-05
1.565101617e-05
1.606927547e-05
1.699524521e-05
1.836605927e-05
1.937738211e-05
1.836602911e-05
1.699522856e-05
1.606928775e-05
1.565105185e-05
1.620015174e-05
1.697666291e-05
1.867310059e-05
2.112388846e-05
2.284551794e-05
2.112382609e-05
1.867305879e-05
1.697667829e-05
1.620020378e-05
1.704414726e-05
1.8305455e-05
2.098012818e-05
2.465900928e-05
2.704225373e-05
2.465889099e-05
2.098002931e-05
1.830544497e-05
1.704419298e-05
1.822322999e-05
2.005669846e-05
2.380479274e-05
2.867549299e-05
3.157678198e-05
2.867530187e-05
2.380460529e-05
2.005662887e-05
1.822323726e-05
1.974582904e-05
2.218308585e-05
2.698090771e-05
3.287512739e-05
3.612812957e-05
3.287485003e-05
2.698059833e-05
2.218292147e-05
1.97457638e-05
2.159001599e-05
2.460635745e-05
3.033466925e-05
3.701617257e-05
4.047009628e-05
3.701580102e-05
3.033421735e-05
2.460606536e-05
2.158984283e-05
2.371034997e-05
2.72353684e-05
3.371421913e-05
4.093019674e-05
4.4463193e-05
4.09297368e-05
3.37136199e-05
2.723492486e-05
2.371003975e-05
2.604684389e-05
2.998011957e-05
3.700257486e-05
4.451632078e-05
4.803609596e-05
4.451577001e-05
3.700181772e-05
2.997950953e-05
2.604636478e-05
2.85335508e-05
3.276055082e-05
4.011906868e-05
4.772672779e-05
5.116629452e-05
4.772610171e-05
4.011817225e-05
3.27597606e-05
2.853287828e-05
3.110537533e-05
3.551064764e-05
4.301475073e-05
5.055112496e-05
5.386357609e-05
5.055043047e-05
4.3013717e-05
3.550967432e-05
3.110449397e-05
3.370232933e-05
3.817902417e-05
4.566521988e-05
5.300324437e-05
5.615714169e-05
5.300249051e-05
4.566405958e-05
3.817786755e-05
3.370123153e-05
3.627009861e-05
4.072603037e-05
4.806235343e-05
5.51098397e-05
5.808575915e-05
5.510903087e-05
4.806107767e-05
4.072470016e-05
3.626878058e-05
3.875163087e-05
4.31136046e-05
5.020229692e-05
5.689951784e-05
5.968834613e-05
5.689866883e-05
5.02009275e-05
4.311211223e-05
3.875009046e-05
4.104620632e-05
4.526702114e-05
5.205342627e-05
5.837913256e-05
6.098470282e-05
5.837825032e-05
5.205197181e-05
4.526537198e-05
4.104445253e-05
4.283389096e-05
4.691614044e-05
5.342922224e-05
5.944150501e-05
6.189910581e-05
5.944058937e-05
5.342768261e-05
4.691436423e-05
4.283192972e-05
)
;
    }
    inlet
    {
        type            calculated;
        value           nonuniform 0();
    }
    outlet
    {
        type            calculated;
        value           nonuniform List<scalar> 
81
(
4.283566054e-05
4.691832872e-05
5.343202803e-05
5.944498546e-05
6.190298346e-05
5.944435749e-05
5.343099174e-05
4.691710753e-05
4.283434681e-05
4.691829233e-05
5.200362952e-05
6.017340962e-05
6.778140141e-05
7.091320683e-05
6.778056916e-05
6.017206427e-05
5.200208224e-05
4.691662507e-05
5.343189965e-05
6.017333283e-05
7.109440199e-05
8.137291599e-05
8.56410496e-05
8.137181438e-05
7.109258083e-05
6.017126211e-05
5.342972306e-05
5.944473803e-05
6.778118589e-05
8.137274917e-05
9.427111215e-05
9.966696046e-05
9.426976195e-05
8.13704694e-05
6.777858796e-05
5.944202037e-05
6.190263351e-05
7.091286591e-05
8.564074571e-05
9.966676992e-05
0.0001055691046
9.966516268e-05
8.563817163e-05
7.090996519e-05
6.189957511e-05
5.944393787e-05
6.778014175e-05
8.137136682e-05
9.426935778e-05
9.966488999e-05
9.426774198e-05
8.136883703e-05
6.777730494e-05
5.944092763e-05
5.343053407e-05
6.017157986e-05
7.109208312e-05
8.136999791e-05
8.563775753e-05
8.136863222e-05
7.108990509e-05
6.016914185e-05
5.342790736e-05
4.691664361e-05
5.200158802e-05
6.017075519e-05
6.777807922e-05
7.090953118e-05
6.77770157e-05
6.016900299e-05
5.199957603e-05
4.69144585e-05
4.283389096e-05
4.691614044e-05
5.342922224e-05
5.944150501e-05
6.189910581e-05
5.944058937e-05
5.342768261e-05
4.691436423e-05
4.283192972e-05
)
;
    }
    procBoundary1to0
    {
        type            processor;
        value           nonuniform List<scalar> 
97
(
1.5651051e-05
1.5651051e-05
1.60692823e-05
1.69951861e-05
1.836588432e-05
1.937711365e-05
1.836583593e-05
1.699511261e-05
1.60692053e-05
1.565097768e-05
1.552599043e-05