/*--------------------------------*- C++ -*----------------------------------*\
| =========                 |                                                 |
| \\      /  F ield         | OpenFOAM: The Open Source CFD Toolbox           |
|  \\    /   O peration     | Version:  4.x                                   |
|   \\  /    A nd           | Web:      www.OpenFOAM.org                      |
|    \\/     M anipulation  |                                                 |
\*---------------------------------------------------------------------------*/
FoamFile
{
    version     2.0;
    format      ascii;
    class       volScalarField;
    location    "8000";
    object      X_H2;
}
// * * * * * * * * * * * * * * * * * * * * * * * * * * * * * * * * * * * * * //

dimensions      [0 0 0 0 0 0 0];

internalField   nonuniform List<scalar> 
1174
(
0.05987553087
0.05987468711
0.05987350835
0.05987198619
0.05987014256
0.05986802292
0.05986568726
0.05986320151
0.05986063078
0.05985803503
0.05985546857
0.05985298842
0.05985069522
0.05984890863
0.05987475454
0.05987342605
0.05987167522
0.05986954938
0.05986712679
0.05986449859
0.05986175479
0.05985897544
0.05985622654
0.05985355947
0.05985101384
0.0598486277
0.0598464757
0.05984482766
0.05987305842
0.0598707518
0.05986792768
0.05986475225
0.05986139933
0.05985802076
0.05985473351
0.05985161824
0.05984872388
0.05984607482
0.05984367916
0.05984154071
0.05983969103
0.05983831633
0.05987060795
0.05986707329
0.05986305743
0.05985885858
0.05985471849
0.05985080556
0.05984722066
0.05984401159
0.05984118861
0.05983873798
0.05983663292
0.05983484479
0.05983336664
0.05983230535
0.05986888639
0.05986469009
0.05986015618
0.05985560562
0.05985126462
0.05984727265
0.059843701
0.05984057216
0.05983787633
0.05983558427
0.0598336572
0.05983205617
0.05983076129
0.05982984796
0.05987060798
0.05986707333
0.05986305748
0.05985885865
0.05985471856
0.05985080564
0.05984722076
0.05984401169
0.05984118872
0.0598387381
0.05983663304
0.05983484491
0.05983336676
0.05983230548
0.05987305847
0.05987075186
0.05986792776
0.05986475235
0.05986139945
0.05985802089
0.05985473366
0.05985161841
0.05984872406
0.05984607501
0.05984367936
0.05984154092
0.05983969125
0.05983831655
0.05987475458
0.05987342611
0.0598716753
0.05986954948
0.0598671269
0.05986449873
0.05986175495
0.05985897562
0.05985622674
0.05985355969
0.05985101408
0.05984862796
0.05984647597
0.05984482794
0.0598755309
0.05987468715
0.0598735084
0.05987198626
0.05987014265
0.05986802303
0.05986568739
0.05986320167
0.05986063096
0.05985803524
0.0598554688
0.05985298868
0.0598506955
0.05984890893
0.05987566172
0.05987475454
0.05987342605
0.05987167523
0.05986954938
0.05986712679
0.05986449859
0.05986175479
0.05985897544
0.05985622654
0.05985355946
0.05985101384
0.0598486277
0.0598464757
0.05984482766
0.0598730327
0.0598707473
0.05986798903
0.05986492904
0.05986173389
0.05985854019
0.05985544687
0.05985251778
0.05984978879
0.05984727578
0.05984498277
0.05984291343
0.05984110278
0.05983974433
0.05986875486
0.05986440291
0.05985972538
0.05985511794
0.05985084199
0.05984703213
0.05984372952
0.05984091716
0.05983854776
0.05983656248
0.05983490267
0.05983351864
0.05983238659
0.05983157735
0.05986126894
0.05985415155
0.05984746597
0.0598416949
0.05983698725
0.05983329669
0.05983048732
0.05982839799
0.05982687529
0.05982578719
0.05982502626
0.05982450809
0.05982416895
0.05982397171
0.0598543282
0.05984585245
0.05983875727
0.05983319606
0.05982902666
0.05982600937
0.05982389849
0.05982247824
0.05982157227
0.059821042
0.05982078089
0.05982070684
0.05982075177
0.05982084059
0.05986126907
0.05985415171
0.05984746616
0.05984169509
0.05983698745
0.05983329689
0.05983048751
0.05982839818
0.05982687548
0.05982578737
0.05982502644
0.05982450827
0.05982416912
0.05982397188
0.05986875502
0.0598644031
0.0598597256
0.05985511819
0.05985084226
0.05984703241
0.05984372981
0.05984091745
0.05983854805
0.05983656278
0.05983490297
0.05983351893
0.05983238688
0.05983157765
0.0598730328
0.05987074741
0.05986798916
0.0598649292
0.05986173408
0.05985854041
0.05985544711
0.05985251804
0.05984978907
0.05984727607
0.05984498308
0.05984291375
0.05984110311
0.05983974467
0.05987475458
0.05987342611
0.0598716753
0.05986954948
0.05986712691
0.05986449875
0.05986175497
0.05985897565
0.05985622678
0.05985355973
0.05985101413
0.05984862802
0.05984647603
0.05984482802
0.05987473599
0.05987305843
0.05987075182
0.05986792769
0.05986475227
0.05986139935
0.05985802077
0.05985473353
0.05985161826
0.0598487239
0.05984607484
0.05984367918
0.05984154073
0.05983969105
0.05983831635
0.05987231145
0.05986875487
0.05986440292
0.05985972538
0.05985511794
0.05985084199
0.05984703214
0.05984372952
0.05984091717
0.05983854777
0.05983656249
0.05983490268
0.05983351865
0.0598323866
0.05983157736
0.05985631552
0.05984733937
0.05983932749
0.05983285583
0.05982800751
0.05982460222
0.05982236099
0.05982099967
0.05982027143
0.05981997956
0.05981997525
0.05982014827
0.05982041075
0.05982065973
0.05982908783
0.05981425695
0.05980425287
0.05979853613
0.05979602822
0.05979568413
0.05979668091
0.05979843404
0.05980055451
0.05980279575
0.05980500717
0.059807094
0.05980896461
0.05981038405
0.05979403767
0.0597796278
0.05977375971
0.05977308249
0.05977525478
0.05977882845
0.05978295999
0.05978717869
0.05979123424
0.05979500335
0.05979843282
0.0598014988
0.0598041492
0.05980611671
0.05982908846
0.0598142576
0.05980425347
0.05979853667
0.0597960287
0.05979568456
0.05979668128
0.05979843437
0.0598005548
0.05980279602
0.05980500742
0.05980709423
0.05980896483
0.05981038425
0.05985631608
0.05984733993
0.05983932806
0.05983285639
0.05982800806
0.05982460275
0.0598223615
0.05982100015
0.05982027188
0.05981997998
0.05981997565
0.05982014866
0.05982041112
0.05982066009
0.05986875503
0.05986440313
0.05985972564
0.05985511825
0.05985084233
0.0598470325
0.05984372991
0.05984091757
0.05983854818
0.05983656291
0.05983490311
0.05983351908
0.05983238703
0.05983157779
0.05987305847
0.05987075188
0.05986792779
0.05986475241
0.05986139952
0.05985802099
0.05985473378
0.05985161855
0.05984872422
0.05984607519
0.05984367955
0.05984154112
0.05983969146
0.05983831678
0.05987336545
0.05987060798
0.05986707333
0.05986305748
0.05985885863
0.05985471854
0.05985080561
0.05984722071
0.05984401164
0.05984118866
0.05983873803
0.05983663297
0.05983484483
0.05983336668
0.0598323054
0.05986789944
0.05986126894
0.05985415156
0.05984746598
0.05984169491
0.05983698726
0.0598332967
0.05983048733
0.05982839801
0.05982687531
0.05982578721
0.05982502628
0.05982450812
0.05982416898
0.05982397174
0.05984751519
0.0598290878
0.05981425696
0.05980425289
0.05979853616
0.05979602826
0.05979568418
0.05979668096
0.0597984341
0.05980055457
0.05980279581
0.05980500723
0.05980709406
0.05980896467
0.0598103841
0.05973705216
0.05971926962
0.05971713401
0.05972325142
0.05973289734
0.05974346687
0.05975367632
0.05976297808
0.05977120392
0.05977836574
0.05978454859
0.05978984578
0.05979427468
0.05979748895
0.05955940934
0.05958472162
0.05962174389
0.05965666761
0.05968605408
0.05970986217
0.05972896794
0.05974433822
0.05975679582
0.05976698404
0.05977538723
0.05978234954
0.05978803221
0.05979209394
0.0597370543
0.05971927113
0.0597171351
0.05972325223
0.05973289793
0.05974346732
0.05975367667
0.05976297837
0.05977120415
0.05977836594
0.05978454877
0.05978984596
0.05979427485
0.05979748912
0.05982908843
0.05981425768
0.05980425364
0.0597985369
0.05979602897
0.05979568484
0.05979668157
0.05979843466
0.05980055509
0.0598027963
0.05980500768
0.05980709448
0.05980896507
0.05981038449
0.05986126913
0.05985415184
0.05984746634
0.05984169533
0.05983698773
0.0598332972
0.05983048785
0.05982839853
0.05982687583
0.05982578773
0.0598250268
0.05982450863
0.05982416948
0.05982397224
0.05987060801
0.0598670734
0.05986305759
0.05985885881
0.05985471877
0.05985080589
0.05984722104
0.059844012
0.05984118906
0.05983873846
0.05983663342
0.0598348453
0.05983336717
0.0598323059
0.05987235424
0.05986888645
0.05986469018
0.05986015627
0.05985560572
0.05985126473
0.05984727275
0.05984370109
0.05984057225
0.05983787642
0.05983558436
0.05983365728
0.05983205625
0.05983076136
0.05982984802
0.05986337587
0.05985432834
0.05984585264
0.05983875747
0.05983319623
0.05982902682
0.05982600951
0.05982389861
0.05982247835
0.05982157236
0.05982104209
0.05982078098
0.05982070692
0.05982075185
0.05982084066
0.05982030079
0.0597940379
0.05977962818
0.05977376003
0.05977308273
0.05977525498
0.05977882861
0.05978296012
0.0597871788
0.05979123434
0.05979500343
0.0597984329
0.05980149887
0.05980414927
0.05980611678
0.05958897508
0.05955941024
0.05958472219
0.05962174424
0.05965666782
0.05968605421
0.05970986226
0.05972896801
0.05974433827
0.05975679586
0.05976698408
0.05977538727
0.05978234958
0.05978803225
0.05979209398
0.05880320485
0.05919464435
0.059409478
0.05953440685
0.05961142487
0.05966165696
0.05969615508
0.05972094317
0.05973944546
0.0597536918
0.05976493216
0.05977394557
0.0597811314
0.05978619241
0.05955940957
0.05958472305
0.05962174513
0.05965666858
0.05968605484
0.0597098628
0.05972896847
0.05974433867
0.05975679622
0.0597669844
0.05977538755
0.05978234984
0.05978803249
0.05979209421
0.05979403801
0.05977962857
0.05977376057
0.05977308333
0.05977525558
0.0597788292
0.05978296068
0.05978717933
0.05979123484
0.05979500391
0.05979843335
0.0598014993
0.05980414968
0.05980611718
0.05985432841
0.05984585282
0.05983875776
0.05983319661
0.05982902725
0.05982600998
0.05982389911
0.05982247887
0.05982157288
0.05982104261
0.05982078149
0.05982070743
0.05982075235
0.05982084116
0.05986888646
0.05986469023
0.05986015638
0.0598556059
0.05985126497
0.05984727305
0.05984370145
0.05984057265
0.05983787685
0.05983558482
0.05983365777
0.05983205676
0.05983076188
0.05982984856
0.05987336547
0.05987060801
0.05986707339
0.05986305755
0.05985885872
0.05985471864
0.05985080572
0.05984722084
0.05984401177
0.0598411888
0.05983873817
0.05983663312
0.05983484499
0.05983336684
0.05983230556
0.05986789958
0.05986126916
0.05985415184
0.05984746629
0.05984169523
0.05983698759
0.05983329701
0.05983048763
0.05982839829
0.05982687559
0.05982578747
0.05982502653
0.05982450836
0.05982416921
0.05982397197
0.0598475159
0.05982908858
0.05981425779
0.05980425366
0.05979853686
0.05979602888
0.05979568472
0.05979668143
0.05979843451
0.05980055494
0.05980279615
0.05980500754
0.05980709434
0.05980896493
0.05981038435
0.05977872865
0.05973705468
0.0597192716
0.05971713551
0.05972325258
0.05973289824
0.05974346759
0.05975367691
0.05976297858
0.05977120434
0.05977836611
0.05978454892
0.05978984609
0.05979427497
0.05979748923
0.05958897482
0.05955941046
0.0595847238
0.05962174577
0.05965666912
0.0596860553
0.05970986318
0.05972896879
0.05974433894
0.05975679644
0.05976698459
0.05977538772
0.05978234998
0.05978803262
0.05979209432
0.05977872805
0.05973705457
0.05971927176
0.05971713583
0.05972325298
0.05973289868
0.05974346804
0.05975367734
0.05976297899
0.05977120473
0.05977836647
0.05978454926
0.0597898464
0.05979427526
0.0597974895
0.05982908787
0.05981425752
0.05980425368
0.05979853705
0.05979602918
0.05979568509
0.05979668184
0.05979843493
0.05980055537
0.05980279658
0.05980500796
0.05980709475
0.05980896533
0.05981038475
0.05986126898
0.05985415175
0.05984746632
0.05984169536
0.0598369878
0.0598332973
0.05983048797
0.05982839867
0.05982687599
0.0598257879
0.05982502697
0.05982450881
0.05982416967
0.05982397243
0.05987060796
0.05986707337
0.05986305758
0.05985885881
0.05985471879
0.05985080594
0.05984722111
0.05984401209
0.05984118917
0.05983873858
0.05983663355
0.05983484544
0.05983336732
0.05983230606
0.05987473603
0.05987305849
0.0598707519
0.05986792781
0.05986475241
0.05986139951
0.05985802096
0.05985473374
0.05985161849
0.05984872415
0.0598460751
0.05984367944
0.059841541
0.05983969133
0.05983831664
0.05987231159
0.05986875506
0.05986440317
0.05985972568
0.05985511827
0.05985084234
0.0598470325
0.0598437299
0.05984091754
0.05983854814
0.05983656287
0.05983490306
0.05983351902
0.05983238697
0.05983157773
0.05986499494
0.05985631617
0.05984734005
0.05983932819
0.05983285653
0.05982800819
0.05982460288
0.05982236162
0.05982100027
0.059820272
0.05981998009
0.05981997576
0.05982014876
0.05982041122
0.05982066018
0.05984751593
0.05982908871
0.059814258
0.05980425394
0.05979853716
0.05979602919
0.05979568503
0.05979668174
0.0597984348
0.05980055522
0.05980279642
0.05980500779
0.05980709458
0.05980896517
0.05981038458
0.05982030062
0.05979403814
0.05977962874
0.05977376075
0.05977308353
0.05977525578
0.05977882939
0.05978296086
0.05978717951
0.059791235
0.05979500406
0.05979843349
0.05980149943
0.0598041498
0.05980611728
0.05984751584
0.05982908862
0.05981425795
0.05980425394
0.05979853723
0.0597960293
0.05979568519
0.05979668192
0.059798435
0.05980055543
0.05980279663
0.05980500801
0.05980709479
0.05980896537
0.05981038479
0.05986499471
0.05985631594
0.05984733988
0.05983932811
0.05983285654
0.05982800828
0.05982460303
0.05982236182
0.05982100051
0.05982027226
0.05981998038
0.05981997606
0.05982014906
0.05982041153
0.0598206605
0.05986875489
0.05986440305
0.05985972562
0.05985511827
0.05985084241
0.05984703263
0.05984373007
0.05984091777
0.05983854841
0.05983656316
0.05983490338
0.05983351936
0.05983238733
0.0598315781
0.05987305842
0.05987075184
0.05986792777
0.05986475241
0.05986139956
0.05985802105
0.05985473388
0.05985161868
0.05984872438
0.05984607537
0.05984367976
0.05984154135
0.0598396917
0.05983831704
0.05987566176
0.0598747546
0.05987342614
0.05987167534
0.05986954952
0.05986712696
0.05986449879
0.05986175502
0.05985897569
0.05985622682
0.05985355977
0.05985101416
0.05984862804
0.05984647605
0.05984482803
0.05987471682
0.05987303282
0.05987074745
0.05986798921
0.05986492926
0.05986173415
0.05985854048
0.05985544718
0.05985251812
0.05984978915
0.05984727616
0.05984498317
0.05984291384
0.0598411032
0.05983974475
0.05987231158
0.05986875506
0.05986440318
0.05985972571
0.05985511831
0.0598508424
0.05984703258
0.05984372999
0.05984091765
0.05983854826
0.05983656299
0.05983490319
0.05983351916
0.0598323871
0.05983157787
0.05986789957
0.0598612692
0.05985415193
0.05984746644
0.05984169543
0.05983698783
0.0598332973
0.05983048794
0.05982839862
0.05982687593
0.05982578782
0.05982502688
0.05982450871
0.05982416956
0.05982397232
0.05986337587
0.05985432845
0.05984585287
0.0598387578
0.05983319665
0.0598290273
0.05982601003
0.05982389917
0.05982247893
0.05982157295
0.05982104268
0.05982078156
0.0598207075
0.05982075242
0.05982084123
0.05986789955
0.05986126917
0.05985415191
0.05984746643
0.05984169544
0.05983698787
0.05983329735
0.05983048802
0.05982839872
0.05982687604
0.05982578794
0.05982502701
0.05982450885
0.05982416971
0.05982397247
0.05987231156
0.05986875503
0.05986440316
0.05985972571
0.05985511835
0.05985084247
0.05984703268
0.05984373012
0.05984091781
0.05983854844
0.05983656319
0.05983490341
0.05983351939
0.05983238735
0.05983157813
0.05987471678
0.05987303277
0.05987074741
0.05986798919
0.05986492926
0.05986173418
0.05985854055
0.05985544729
0.05985251826
0.05984978932
0.05984727636
0.0598449834
0.0598429141
0.05984110348
0.05983974505
0.05987475455
0.05987342609
0.0598716753
0.0598695495
0.05986712696
0.05986449882
0.05986175508
0.05985897579
0.05985622695
0.05985355994
0.05985101437
0.05984862829
0.05984647633
0.05984482834
0.05987607988
0.05987553091
0.05987468717
0.05987350843
0.05987198629
0.05987014269
0.05986802308
0.05986568745
0.05986320174
0.05986063104
0.05985803532
0.05985546889
0.05985298876
0.05985069559
0.05984890902
0.05987566175
0.0598747546
0.05987342613
0.05987167534
0.05986954952
0.05986712696
0.0598644988
0.05986175504
0.05985897572
0.05985622686
0.05985355981
0.05985101421
0.0598486281
0.05984647612
0.0598448281
0.05987473602
0.05987305849
0.05987075191
0.05986792783
0.05986475245
0.05986139957
0.05985802104
0.05985473384
0.05985161861
0.05984872428
0.05984607525
0.05984367962
0.05984154119
0.05983969153
0.05983831685
0.05987336547
0.05987060804
0.05986707344
0.05986305764
0.05985885886
0.05985471882
0.05985080595
0.0598472211
0.05984401207
0.05984118913
0.05983873852
0.05983663349
0.05983484537
0.05983336724
0.05983230597
0.05987235425
0.0598688865
0.05986469028
0.05986015644
0.05985560596
0.05985126503
0.05984727311
0.05984370151
0.05984057271
0.05983787691
0.05983558488
0.05983365783
0.05983205682
0.05983076194
0.05982984862
0.05987336548
0.05987060805
0.05986707346
0.05986305767
0.0598588589
0.05985471887
0.05985080601
0.05984722118
0.05984401216
0.05984118923
0.05983873863
0.05983663361
0.0598348455
0.05983336737
0.0598323061
0.05987473603
0.05987305851
0.05987075194
0.05986792787
0.05986475251
0.05986139966
0.05985802115
0.05985473397
0.05985161876
0.05984872446
0.05984607545
0.05984367983
0.05984154142
0.05983969176
0.05983831709
0.05987566175
0.05987475459
0.05987342613
0.05987167534
0.05986954954
0.059867127
0.05986449886
0.05986175512
0.05985897583
0.05985622699
0.05985355998
0.05985101441
0.05984862832
0.05984647636
0.05984482837
0.05987607987
0.05987553089
0.05987468714
0.05987350841
0.05987198628
0.05987014269
0.0598680231
0.05986568749
0.0598632018
0.05986063113
0.05985803545
0.05985546905
0.05985298896
0.05985069581
0.05984890928
)
;

boundaryField
{
    top
    {
        type            calculated;
        value           nonuniform List<scalar> 
127
(
0.05987607987
0.0598755309
0.05987475458
0.05987305847
0.05987060801
0.05986888646
0.05987060796
0.05987305842
0.05987475455
0.05987553089
0.05987468715
0.05987342611
0.05987075188
0.0598670734
0.05986469023
0.05986707337
0.05987075184
0.05987342609
0.05987468714
0.0598735084
0.0598716753
0.05986792779
0.05986305759
0.05986015638
0.05986305758
0.05986792777
0.0598716753
0.05987350841
0.05987198626
0.05986954948
0.05986475241
0.05985885881
0.0598556059
0.05985885881
0.05986475241
0.0598695495
0.05987198628
0.05987014265
0.05986712691
0.05986139952
0.05985471877
0.05985126497
0.05985471879
0.05986139956
0.05986712696
0.05987014269
0.05986802303
0.05986449875
0.05985802099
0.05985080589
0.05984727305
0.05985080594
0.05985802105
0.05986449882
0.0598680231
0.05986568739
0.05986175497
0.05985473378
0.05984722104
0.05984370145
0.05984722111
0.05985473388
0.05986175508
0.05986568749
0.05986320167
0.05985897565
0.05985161855
0.059844012
0.05984057265
0.05984401209
0.05985161868
0.05985897579
0.0598632018
0.05986063096
0.05985622678
0.05984872422
0.05984118906
0.05983787685
0.05984118917
0.05984872438
0.05985622695
0.05986063113
0.05985803524
0.05985355973
0.05984607519
0.05983873846
0.05983558482
0.05983873858
0.05984607537
0.05985355994
0.05985803545
0.0598554688
0.05985101413
0.05984367955
0.05983663342
0.05983365777
0.05983663355
0.05984367976
0.05985101437
0.05985546905
0.05985298868
0.05984862802
0.05984154112
0.0598348453
0.05983205676
0.05983484544
0.05984154135
0.05984862829
0.05985298896
0.0598506955
0.05984647603
0.05983969146
0.05983336717
0.05983076188
0.05983336732
0.0598396917
0.05984647633
0.05985069581
0.05984890893
0.05984482802
0.05983831678
0.0598323059
0.05982984856
0.05983230606
0.05983831704
0.05984482834
0.05984890928
)
;
    }
    bottom
    {
        type            calculated;
        value           nonuniform List<scalar> 
134
(
0.05987566172
0.05987473599
0.05987336545
0.05987235424
0.05987336547
0.05987473603
0.05987566176
0.05987607988
0.05987553087
0.05987475454
0.05987305843
0.05987060798
0.05986888645
0.05987060801
0.05987305849
0.0598747546
0.05987553091
0.05987468711
0.05987342605
0.05987075182
0.05986707333
0.05986469018
0.05986707339
0.0598707519
0.05987342614
0.05987468717
0.05987350835
0.05987167523
0.05986792769
0.05986305748
0.05986015627
0.05986305755
0.05986792781
0.05987167534
0.05987350843
0.05987198619
0.05986954938
0.05986475227
0.05985885863
0.05985560572
0.05985885872
0.05986475241
0.05986954952
0.05987198629
0.05987014256
0.05986712679
0.05986139935
0.05985471854
0.05985126473
0.05985471864
0.05986139951
0.05986712696
0.05987014269
0.05986802292
0.05986449859
0.05985802077
0.05985080561
0.05984727275
0.05985080572
0.05985802096
0.05986449879
0.05986802308
0.05986568726
0.05986175479
0.05985473353
0.05984722071
0.05984370109
0.05984722084
0.05985473374
0.05986175502
0.05986568745
0.05986320151
0.05985897544
0.05985161826
0.05984401164
0.05984057225
0.05984401177
0.05985161849
0.05985897569
0.05986320174
0.05986063078
0.05985622654
0.0598487239
0.05984118866
0.05983787642
0.0598411888
0.05984872415
0.05985622682
0.05986063104
0.05985803503
0.05985355946
0.05984607484
0.05983873803
0.05983558436
0.05983873817
0.0598460751
0.05985355977
0.05985803532
0.05985546857
0.05985101384
0.05984367918
0.05983663297
0.05983365728
0.05983663312
0.05984367944
0.05985101416
0.05985546889
0.05985298842
0.0598486277
0.05984154073
0.05983484483
0.05983205625
0.05983484499
0.059841541
0.05984862804
0.05985298876
0.05985069522
0.0598464757
0.05983969105
0.05983336668
0.05983076136
0.05983336684
0.05983969133
0.05984647605
0.05985069559
0.05984890863
0.05984482766
0.05983831635
0.0598323054
0.05982984802
0.05983230556
0.05983831664
0.05984482803
0.05984890902
)
;
    }
    side-walls
    {
        type            calculated;
        value           nonuniform List<scalar> 
261
(
0.05987553087
0.05987475454
0.05987305842
0.05987060795
0.05986888639
0.05987060798
0.05987305847
0.05987475458
0.0598755309
0.05987468711
0.05987342605
0.0598707518
0.05986707329
0.05986469009
0.05986707333
0.05987075186
0.05987342611
0.05987468715
0.05987350835
0.05987167522
0.05986792768
0.05986305743
0.05986015618
0.05986305748
0.05986792776
0.0598716753
0.0598735084
0.05987198619
0.05986954938
0.05986475225
0.05985885858
0.05985560562
0.05985885865
0.05986475235
0.05986954948
0.05987198626
0.05987014256
0.05986712679
0.05986139933
0.05985471849
0.05985126462
0.05985471856
0.05986139945
0.0598671269
0.05987014265
0.05986802292
0.05986449859
0.05985802076
0.05985080556
0.05984727265
0.05985080564
0.05985802089
0.05986449873
0.05986802303
0.05986568726
0.05986175479
0.05985473351
0.05984722066
0.059843701
0.05984722076
0.05985473366
0.05986175495
0.05986568739
0.05986320151
0.05985897544
0.05985161824
0.05984401159
0.05984057216
0.05984401169
0.05985161841
0.05985897562
0.05986320167
0.05986063078
0.05985622654
0.05984872388
0.05984118861
0.05983787633
0.05984118872
0.05984872406
0.05985622674
0.05986063096
0.05985803503
0.05985355947
0.05984607482
0.05983873798
0.05983558427
0.0598387381
0.05984607501
0.05985355969
0.05985803524
0.05985546857
0.05985101384
0.05984367916
0.05983663292
0.0598336572
0.05983663304
0.05984367936
0.05985101408
0.0598554688
0.05985298842
0.0598486277
0.05984154071
0.05983484479
0.05983205617
0.05983484491
0.05984154092
0.05984862796
0.05985298868
0.05985069522
0.0598464757
0.05983969103
0.05983336664
0.05983076129
0.05983336676
0.05983969125
0.05984647597
0.0598506955
0.05984890863
0.05984482766
0.05983831633
0.05983230535
0.05982984796
0.05983230548
0.05983831655
0.05984482794
0.05984890893
0.05987607988
0.05987566175
0.05987473602
0.05987336547
0.05987235425
0.05987336548
0.05987473603
0.05987566175
0.05987607987
0.05987553091
0.0598747546
0.05987305849
0.05987060804
0.0598688865
0.05987060805
0.05987305851
0.05987475459
0.05987553089
0.05987468717
0.05987342613
0.05987075191
0.05986707344
0.05986469028
0.05986707346
0.05987075194
0.05987342613
0.05987468714
0.05987350843
0.05987167534
0.05986792783
0.05986305764
0.05986015644
0.05986305767
0.05986792787
0.05987167534
0.05987350841
0.05987198629
0.05986954952
0.05986475245
0.05985885886
0.05985560596
0.0598588589
0.05986475251
0.05986954954
0.05987198628
0.05987014269
0.05986712696
0.05986139957
0.05985471882
0.05985126503
0.05985471887
0.05986139966
0.059867127
0.05987014269
0.05986802308
0.0598644988
0.05985802104
0.05985080595
0.05984727311
0.05985080601
0.05985802115
0.05986449886
0.0598680231
0.05986568745
0.05986175504
0.05985473384
0.0598472211
0.05984370151
0.05984722118
0.05985473397
0.05986175512
0.05986568749
0.05986320174
0.05985897572
0.05985161861
0.05984401207
0.05984057271
0.05984401216
0.05985161876
0.05985897583
0.0598632018
0.05986063104
0.05985622686
0.05984872428
0.05984118913
0.05983787691
0.05984118923
0.05984872446
0.05985622699
0.05986063113
0.05985803532
0.05985355981
0.05984607525
0.05983873852
0.05983558488
0.05983873863
0.05984607545
0.05985355998
0.05985803545
0.05985546889
0.05985101421
0.05984367962
0.05983663349
0.05983365783
0.05983663361
0.05984367983
0.05985101441
0.05985546905
0.05985298876
0.0598486281
0.05984154119
0.05983484537
0.05983205682
0.0598348455
0.05984154142
0.05984862832
0.05985298896
0.05985069559
0.05984647612
0.05983969153
0.05983336724
0.05983076194
0.05983336737
0.05983969176
0.05984647636
0.05985069581
0.05984890902
0.0598448281
0.05983831685
0.05983230597
0.05982984862
0.0598323061
0.05983831709
0.05984482837
0.05984890928
)
;
    }
    inlet
    {
        type            calculated;
        value           nonuniform 0();
    }
    outlet
    {
        type            calculated;
        value           nonuniform List<scalar> 
81
(
0.05984890863
0.05984482766
0.05983831633
0.05983230535
0.05982984796
0.05983230548
0.05983831655
0.05984482794
0.05984890893
0.05984482766
0.05983974433
0.05983157735
0.05982397171
0.05982084059
0.05982397188
0.05983157765
0.05983974467
0.05984482802
0.05983831635
0.05983157736
0.05982065973
0.05981038405
0.05980611671
0.05981038425
0.05982066009
0.05983157779
0.05983831678
0.0598323054
0.05982397174
0.0598103841
0.05979748895
0.05979209394
0.05979748912
0.05981038449
0.05982397224
0.0598323059
0.05982984802
0.05982084066
0.05980611678
0.05979209398
0.05978619241
0.05979209421
0.05980611718
0.05982084116
0.05982984856
0.05983230556
0.05982397197
0.05981038435
0.05979748923
0.05979209432
0.0597974895
0.05981038475
0.05982397243
0.05983230606
0.05983831664
0.05983157773
0.05982066018
0.05981038458
0.05980611728
0.05981038479
0.0598206605
0.0598315781
0.05983831704
0.05984482803
0.05983974475
0.05983157787
0.05982397232
0.05982084123
0.05982397247
0.05983157813
0.05983974505
0.05984482834
0.05984890902
0.0598448281
0.05983831685
0.05983230597
0.05982984862
0.0598323061
0.05983831709
0.05984482837
0.05984890928
)
;
    }
    procBoundary1to0
    {
        type            processor;
        value           nonuniform List<scalar> 
97
(
0.05987607986
0.05987607986
0.05987566174
0.05987473603
0.0598733655
0.05987235429
0.05987336552
0.05987473605
0.05987566177
0.05987607989
0.05987620482
0.05987471676
0.05987471676
0.05987471676
0.05987231154
0.05986789961
0.05986337602
0.05986789971
0.05987231166
0.05987471685
0.05987566177
0.05987578008
0.05987470243
0.05986499462
0.05986499462
0.05986499462
0.05984751584
0.05982030145
0.05984751642
0.05986499514
0.05987231166
0.05987473606
0.05987516644
0.0598728279
0.05986477043
0.05977872689
0.05977872689
0.05977872689
0.05958897864
0.05977873006
0.05984751637
0.05986789973
0.05987336553
0.05987473531
0.05987108976
0.05985599475
0.0597972912
0.05804785429
0.05804785429
0.05804785429
0.05958897854
0.05958897854
0.05982030163
0.05986337613
0.05987235433
0.05987516645
0.05987282794
0.05986477054
0.05984173346
0.05979729084
0.0598417334
0.05984751549
0.05984751549
0.05984751549
0.05986789958
0.0598733655
0.05987578009
0.05987470246
0.05987158773
0.05986477055
0.05985599461
0.05986477051
0.05987158769
0.0598723115
0.0598723115
0.0598723115
0.05987473601
0.05987620482
0.05987577366
0.05987470245
0.05987282793
0.05987108974
0.05987282792
0.05987470245
0.05987577366
0.05987566173
0.05987566173
0.05987566173
0.05987639923
0.05987620482
0.05987578009
0.05987516644
0.0598747353
0.05987516645
0.05987578009
0.05987620482
0.05987639923
)
;
    }
}


// ************************************************************************* //
