/*--------------------------------*- C++ -*----------------------------------*\
| =========                 |                                                 |
| \\      /  F ield         | OpenFOAM: The Open Source CFD Toolbox           |
|  \\    /   O peration     | Version:  4.x                                   |
|   \\  /    A nd           | Web:      www.OpenFOAM.org                      |
|    \\/     M anipulation  |                                                 |
\*---------------------------------------------------------------------------*/
FoamFile
{
    version     2.0;
    format      ascii;
    class       volScalarField;
    location    "11000";
    object      CO;
}
// * * * * * * * * * * * * * * * * * * * * * * * * * * * * * * * * * * * * * //

dimensions      [0 0 0 0 0 0 0];

internalField   nonuniform List<scalar> 
1174
(
0.3315815188
0.3315806218
0.3315793573
0.3315777105
0.3315757002
0.3315733717
0.331570788
0.3315680202
0.3315651398
0.331562214
0.3315593048
0.3315564777
0.3315538482
0.3315517852
0.3315806779
0.331579243
0.3315773355
0.3315750009
0.3315723209
0.3315693936
0.3315663184
0.331563185
0.331560069
0.3315570302
0.3315541157
0.3315513706
0.3315488821
0.3315469641
0.3315788226
0.3315762915
0.3315731654
0.3315696222
0.3315658534
0.3315620299
0.3315582866
0.3315547186
0.3315513862
0.3315483213
0.3315455371
0.3315430412
0.3315408723
0.3315392509
0.3315761084
0.3315721826
0.331567684
0.3315629434
0.3315582348
0.3315537539
0.3315496222
0.331545901
0.3315426088
0.3315397353
0.3315372545
0.3315351369
0.3315333776
0.3315321067
0.3315741742
0.3315694843
0.3315643777
0.3315592151
0.3315542562
0.3315496655
0.3315455316
0.3315418875
0.3315387286
0.331536027
0.3315337425
0.3315318339
0.3315302813
0.3315291788
0.3315761085
0.3315721827
0.3315676841
0.3315629435
0.3315582349
0.3315537541
0.3315496223
0.3315459012
0.3315426089
0.3315397355
0.3315372547
0.3315351371
0.3315333778
0.3315321068
0.3315788227
0.3315762916
0.3315731655
0.3315696223
0.3315658535
0.3315620301
0.3315582867
0.3315547188
0.3315513864
0.3315483215
0.3315455374
0.3315430414
0.3315408725
0.3315392511
0.3315806779
0.3315792431
0.3315773356
0.331575001
0.331572321
0.3315693937
0.3315663185
0.3315631852
0.3315600692
0.3315570305
0.3315541159
0.3315513709
0.3315488824
0.3315469644
0.3315815188
0.3315806218
0.3315793573
0.3315777106
0.3315757002
0.3315733718
0.3315707881
0.3315680203
0.3315651399
0.3315622142
0.331559305
0.3315564779
0.3315538485
0.3315517855
0.3315816483
0.3315806779
0.3315792431
0.3315773355
0.3315750009
0.3315723209
0.3315693937
0.3315663184
0.3315631851
0.3315600691
0.3315570303
0.3315541157
0.3315513707
0.3315488822
0.3315469642
0.3315787855
0.331576272
0.3315732126
0.3315697925
0.3315661969
0.3315625809
0.3315590593
0.3315557082
0.3315525724
0.3315496732
0.3315470181
0.3315446133
0.3315425007
0.3315409069
0.3315740309
0.3315691588
0.3315638742
0.3315586252
0.3315537167
0.3315493131
0.3315454726
0.3315421847
0.331539402
0.3315370615
0.3315350985
0.3315334572
0.3315321109
0.3315311443
0.3315655951
0.3315575106
0.3315498418
0.3315431597
0.3315376596
0.3315333096
0.3315299692
0.331527463
0.3315256199
0.3315242899
0.3315233499
0.3315227019
0.3315222716
0.3315220173
0.3315576524
0.3315479386
0.3315397303
0.3315332363
0.3315283205
0.3315247258
0.3315221811
0.331520444
0.331519314
0.331518632
0.3315182745
0.3315181457
0.3315181659
0.3315182488
0.3315655952
0.3315575107
0.3315498419
0.3315431599
0.3315376597
0.3315333097
0.3315299694
0.3315274632
0.33152562
0.3315242901
0.3315233501
0.3315227021
0.3315222718
0.3315220175
0.331574031
0.3315691589
0.3315638743
0.3315586253
0.3315537168
0.3315493133
0.3315454727
0.3315421849
0.3315394022
0.3315370617
0.3315350987
0.3315334575
0.3315321112
0.3315311446
0.3315787856
0.3315762721
0.3315732127
0.3315697926
0.3315661971
0.3315625811
0.3315590595
0.3315557084
0.3315525726
0.3315496734
0.3315470183
0.3315446136
0.331542501
0.3315409073
0.3315806779
0.3315792431
0.3315773356
0.331575001
0.331572321
0.3315693938
0.3315663185
0.3315631852
0.3315600693
0.3315570305
0.331554116
0.3315513709
0.3315488825
0.3315469645
0.3315806458
0.3315788227
0.3315762916
0.3315731655
0.3315696223
0.3315658535
0.33156203
0.3315582867
0.3315547188
0.3315513863
0.3315483214
0.3315455373
0.3315430413
0.3315408724
0.331539251
0.3315779729
0.3315740309
0.3315691589
0.3315638743
0.3315586253
0.3315537168
0.3315493132
0.3315454727
0.3315421848
0.3315394021
0.3315370616
0.3315350986
0.3315334573
0.331532111
0.3315311444
0.33156001
0.3315497607
0.3315405058
0.3315329407
0.3315272012
0.3315231127
0.3315203755
0.3315186739
0.3315177277
0.3315173099
0.3315172466
0.3315174071
0.3315176866
0.3315179632
0.3315288792
0.3315116215
0.3314997709
0.3314928205
0.3314895991
0.3314889347
0.331489886
0.3314917732
0.331494137
0.3314966814
0.3314992225
0.3315016426
0.3315038292
0.3315055017
0.3314881885
0.331471083
0.3314638178
0.3314626286
0.331464837
0.3314687626
0.3314734125
0.331478224
0.3314828917
0.3314872603
0.3314912587
0.3314948524
0.3314979755
0.3315003089
0.3315288797
0.331511622
0.3314997714
0.3314928209
0.3314895995
0.3314889351
0.3314898863
0.3314917735
0.3314941372
0.3314966817
0.3314992228
0.3315016428
0.3315038294
0.3315055019
0.3315600103
0.331549761
0.3315405061
0.331532941
0.3315272015
0.331523113
0.3315203758
0.3315186742
0.331517728
0.3315173103
0.3315172469
0.3315174074
0.3315176869
0.3315179635
0.331574031
0.331569159
0.3315638744
0.3315586255
0.331553717
0.3315493134
0.3315454729
0.331542185
0.3315394024
0.3315370619
0.3315350989
0.3315334576
0.3315321113
0.3315311447
0.3315788227
0.3315762916
0.3315731655
0.3315696224
0.3315658536
0.3315620302
0.3315582869
0.331554719
0.3315513865
0.3315483217
0.3315455376
0.3315430416
0.3315408728
0.3315392513
0.3315791425
0.3315761085
0.3315721827
0.3315676842
0.3315629436
0.331558235
0.3315537541
0.3315496224
0.3315459012
0.331542609
0.3315397355
0.3315372547
0.3315351371
0.3315333778
0.3315321068
0.3315730485
0.3315655952
0.3315575108
0.3315498419
0.3315431599
0.3315376597
0.3315333097
0.3315299693
0.3315274632
0.33152562
0.3315242901
0.33152335
0.331522702
0.3315222717
0.3315220174
0.3315500086
0.3315288794
0.3315116216
0.3314997711
0.3314928206
0.3314895992
0.3314889348
0.3314898861
0.3314917732
0.331494137
0.3314966815
0.3314992226
0.3315016426
0.3315038292
0.3315055017
0.3314223187
0.3314007472
0.3313973494
0.3314037545
0.3314145042
0.3314265297
0.3314382829
0.3314490783
0.3314586842
0.3314670897
0.3314743776
0.3314806465
0.33148591
0.3314897514
0.3312136065
0.3312412759
0.3312834354
0.3313237465
0.3313579418
0.3313858035
0.3314082578
0.3314263829
0.3314411147
0.3314531928
0.3314631783
0.3314714718
0.3314782615
0.3314831378
0.3314223205
0.3314007485
0.3313973504
0.3314037553
0.3314145049
0.3314265303
0.3314382833
0.3314490787
0.3314586845
0.33146709
0.3314743779
0.3314806468
0.3314859103
0.3314897517
0.3315288797
0.331511622
0.3314997715
0.3314928211
0.3314895997
0.3314889354
0.3314898866
0.3314917738
0.3314941375
0.331496682
0.331499223
0.3315016431
0.3315038296
0.3315055022
0.3315655952
0.3315575108
0.331549842
0.3315431601
0.33153766
0.33153331
0.3315299697
0.3315274635
0.3315256204
0.3315242905
0.3315233504
0.3315227025
0.3315222722
0.3315220179
0.3315761085
0.3315721827
0.3315676842
0.3315629436
0.3315582351
0.3315537543
0.3315496226
0.3315459014
0.3315426093
0.3315397359
0.3315372551
0.3315351375
0.3315333782
0.3315321073
0.3315780168
0.3315741742
0.3315694844
0.3315643778
0.3315592153
0.3315542563
0.3315496656
0.3315455318
0.3315418877
0.3315387288
0.3315360272
0.3315337427
0.3315318341
0.3315302815
0.331529179
0.33156792
0.3315576524
0.3315479387
0.3315397304
0.3315332364
0.3315283205
0.3315247259
0.3315221812
0.3315204441
0.3315193141
0.3315186321
0.3315182746
0.3315181458
0.331518166
0.3315182489
0.3315187168
0.3314881882
0.331471083
0.3314638179
0.3314626287
0.3314648371
0.3314687627
0.3314734126
0.3314782242
0.3314828919
0.3314872605
0.3314912589
0.3314948525
0.3314979756
0.331500309
0.3312503536
0.3312136069
0.3312412763
0.3312834358
0.3313237469
0.3313579422
0.3313858039
0.3314082581
0.3314263831
0.3314411149
0.331453193
0.3314631784
0.3314714719
0.3314782616
0.3314831378
0.3303167675
0.330774472
0.3310275435
0.33117552
0.3312670949
0.3313269662
0.3313681432
0.331397755
0.3314198708
0.3314369093
0.3314503628
0.3314611631
0.3314697904
0.3314758906
0.3312136068
0.3312412774
0.3312834368
0.3313237476
0.3313579427
0.3313858043
0.3314082585
0.3314263835
0.3314411151
0.3314531932
0.3314631786
0.3314714721
0.3314782619
0.3314831381
0.3314881886
0.3314710836
0.3314638186
0.3314626294
0.3314648379
0.3314687634
0.3314734133
0.3314782247
0.3314828924
0.331487261
0.3314912593
0.3314948529
0.331497976
0.3315003094
0.3315576525
0.3315479388
0.3315397306
0.3315332367
0.3315283209
0.3315247263
0.3315221817
0.3315204446
0.3315193146
0.3315186326
0.3315182751
0.3315181463
0.3315181665
0.3315182494
0.3315741742
0.3315694844
0.3315643779
0.3315592154
0.3315542565
0.3315496659
0.3315455321
0.331541888
0.3315387292
0.3315360276
0.3315337431
0.3315318345
0.3315302819
0.3315291795
0.3315791425
0.3315761086
0.3315721827
0.3315676842
0.3315629437
0.3315582351
0.3315537542
0.3315496225
0.3315459013
0.3315426091
0.3315397357
0.3315372549
0.3315351373
0.3315333779
0.331532107
0.3315730486
0.3315655954
0.3315575109
0.3315498421
0.3315431601
0.3315376599
0.3315333099
0.3315299696
0.3315274634
0.3315256202
0.3315242903
0.3315233502
0.3315227022
0.3315222719
0.3315220176
0.3315500092
0.3315288799
0.3315116222
0.3314997716
0.3314928211
0.3314895997
0.3314889353
0.3314898865
0.3314917737
0.3314941374
0.3314966818
0.3314992229
0.331501643
0.3315038295
0.331505502
0.3314710981
0.3314223212
0.3314007491
0.3313973509
0.3314037557
0.3314145052
0.3314265305
0.3314382835
0.3314490788
0.3314586847
0.3314670901
0.331474378
0.3314806469
0.3314859103
0.3314897518
0.3312503547
0.3312136078
0.3312412781
0.3312834373
0.3313237479
0.331357943
0.3313858045
0.3314082586
0.3314263836
0.3314411152
0.3314531933
0.3314631787
0.3314714722
0.3314782619
0.3314831381
0.3314710981
0.3314223217
0.3314007498
0.3313973516
0.3314037563
0.3314145057
0.331426531
0.331438284
0.3314490792
0.331458685
0.3314670904
0.3314743783
0.3314806471
0.3314859106
0.331489752
0.3315288794
0.3315116222
0.3314997718
0.3314928215
0.3314896001
0.3314889358
0.331489887
0.3314917742
0.3314941379
0.3314966823
0.3314992234
0.3315016434
0.3315038299
0.3315055024
0.3315655952
0.3315575109
0.3315498422
0.3315431602
0.3315376602
0.3315333102
0.3315299699
0.3315274638
0.3315256206
0.3315242907
0.3315233507
0.3315227027
0.3315222724
0.3315220181
0.3315761085
0.3315721827
0.3315676843
0.3315629437
0.3315582352
0.3315537544
0.3315496227
0.3315459016
0.3315426094
0.331539736
0.3315372553
0.3315351377
0.3315333784
0.3315321075
0.3315806458
0.3315788227
0.3315762917
0.3315731656
0.3315696224
0.3315658536
0.3315620302
0.3315582869
0.331554719
0.3315513865
0.3315483217
0.3315455375
0.3315430415
0.3315408727
0.3315392512
0.331577973
0.3315740311
0.331569159
0.3315638745
0.3315586255
0.331553717
0.3315493134
0.3315454729
0.331542185
0.3315394024
0.3315370619
0.3315350989
0.3315334576
0.3315321113
0.3315311447
0.3315698054
0.3315600103
0.3315497611
0.3315405062
0.3315329411
0.3315272016
0.3315231131
0.3315203759
0.3315186743
0.3315177281
0.3315173104
0.3315172471
0.3315174075
0.331517687
0.3315179637
0.3315500092
0.3315288801
0.3315116225
0.331499772
0.3314928215
0.3314896001
0.3314889357
0.3314898869
0.331491774
0.3314941377
0.3314966821
0.3314992232
0.3315016432
0.3315038298
0.3315055023
0.3315187175
0.3314881894
0.3314710843
0.3314638192
0.3314626299
0.3314648382
0.3314687637
0.3314734135
0.3314782249
0.3314828925
0.3314872611
0.3314912595
0.331494853
0.3314979761
0.3315003095
0.3315500094
0.3315288803
0.3315116228
0.3314997723
0.3314928218
0.3314896004
0.331488936
0.3314898871
0.3314917743
0.331494138
0.3314966824
0.3314992234
0.3315016435
0.33150383
0.3315055025
0.3315698053
0.3315600103
0.3315497612
0.3315405064
0.3315329414
0.331527202
0.3315231135
0.3315203763
0.3315186747
0.3315177285
0.3315173108
0.3315172474
0.3315174079
0.3315176874
0.331517964
0.331574031
0.331569159
0.3315638745
0.3315586256
0.3315537172
0.3315493137
0.3315454732
0.3315421854
0.3315394027
0.3315370623
0.3315350993
0.331533458
0.3315321117
0.3315311451
0.3315788227
0.3315762916
0.3315731655
0.3315696224
0.3315658537
0.3315620303
0.331558287
0.3315547192
0.3315513868
0.331548322
0.3315455378
0.3315430419
0.3315408731
0.3315392517
0.3315816483
0.3315806779
0.3315792431
0.3315773356
0.331575001
0.331572321
0.3315693938
0.3315663186
0.3315631852
0.3315600693
0.3315570305
0.331554116
0.331551371
0.3315488825
0.3315469645
0.3315806202
0.3315787856
0.3315762721
0.3315732127
0.3315697927
0.3315661971
0.3315625811
0.3315590595
0.3315557085
0.3315525727
0.3315496735
0.3315470184
0.3315446137
0.3315425011
0.3315409074
0.331577973
0.3315740311
0.331569159
0.3315638745
0.3315586255
0.331553717
0.3315493135
0.331545473
0.3315421851
0.3315394025
0.331537062
0.331535099
0.3315334577
0.3315321114
0.3315311448
0.3315730486
0.3315655954
0.331557511
0.3315498423
0.3315431603
0.3315376602
0.3315333102
0.3315299699
0.3315274637
0.3315256205
0.3315242906
0.3315233506
0.3315227026
0.3315222723
0.331522018
0.3315679201
0.3315576527
0.3315479391
0.3315397309
0.331533237
0.3315283212
0.3315247266
0.3315221819
0.3315204448
0.3315193148
0.3315186328
0.3315182752
0.3315181464
0.3315181666
0.3315182496
0.3315730487
0.3315655955
0.3315575112
0.3315498424
0.3315431605
0.3315376604
0.3315333104
0.3315299701
0.3315274639
0.3315256207
0.3315242908
0.3315233508
0.3315227028
0.3315222725
0.3315220182
0.331577973
0.3315740311
0.3315691591
0.3315638746
0.3315586257
0.3315537172
0.3315493138
0.3315454733
0.3315421854
0.3315394028
0.3315370623
0.3315350993
0.331533458
0.3315321118
0.3315311452
0.3315806202
0.3315787856
0.3315762722
0.3315732128
0.3315697928
0.3315661973
0.3315625813
0.3315590597
0.3315557088
0.331552573
0.3315496738
0.3315470187
0.331544614
0.3315425015
0.3315409077
0.3315806779
0.3315792431
0.3315773356
0.331575001
0.331572321
0.3315693939
0.3315663187
0.3315631854
0.3315600695
0.3315570308
0.3315541163
0.3315513713
0.3315488828
0.3315469649
0.3315820967
0.3315815188
0.3315806219
0.3315793573
0.3315777106
0.3315757003
0.3315733719
0.3315707882
0.3315680204
0.33156514
0.3315622143
0.3315593051
0.331556478
0.3315538485
0.3315517855
0.3315816483
0.3315806779
0.3315792431
0.3315773356
0.331575001
0.331572321
0.3315693938
0.3315663186
0.3315631853
0.3315600693
0.3315570306
0.3315541161
0.331551371
0.3315488826
0.3315469646
0.3315806458
0.3315788227
0.3315762917
0.3315731656
0.3315696224
0.3315658536
0.3315620302
0.3315582869
0.331554719
0.3315513866
0.3315483218
0.3315455377
0.3315430417
0.3315408729
0.3315392514
0.3315791425
0.3315761086
0.3315721828
0.3315676843
0.3315629438
0.3315582352
0.3315537544
0.3315496227
0.3315459016
0.3315426094
0.331539736
0.3315372552
0.3315351376
0.3315333783
0.3315321074
0.3315780168
0.3315741743
0.3315694845
0.331564378
0.3315592155
0.3315542566
0.331549666
0.3315455322
0.3315418882
0.3315387293
0.3315360277
0.3315337432
0.3315318346
0.331530282
0.3315291796
0.3315791425
0.3315761086
0.3315721828
0.3315676844
0.3315629438
0.3315582353
0.3315537545
0.3315496228
0.3315459017
0.3315426095
0.3315397361
0.3315372553
0.3315351378
0.3315333784
0.3315321075
0.3315806458
0.3315788227
0.3315762917
0.3315731656
0.3315696225
0.3315658538
0.3315620304
0.3315582871
0.3315547192
0.3315513868
0.331548322
0.3315455379
0.3315430419
0.3315408731
0.3315392517
0.3315816484
0.331580678
0.3315792431
0.3315773356
0.3315750011
0.3315723211
0.3315693939
0.3315663188
0.3315631855
0.3315600695
0.3315570308
0.3315541163
0.3315513713
0.3315488829
0.3315469649
0.3315820967
0.3315815188
0.3315806219
0.3315793573
0.3315777106
0.3315757003
0.3315733719
0.3315707883
0.3315680205
0.3315651401
0.3315622145
0.3315593054
0.3315564783
0.3315538488
0.3315517859
)
;

boundaryField
{
    top
    {
        type            zeroGradient;
    }
    bottom
    {
        type            zeroGradient;
    }
    side-walls
    {
        type            zeroGradient;
    }
    inlet
    {
        type            zeroGradient;
    }
    outlet
    {
        type            zeroGradient;
    }
    procBoundary1to0
    {
        type            processor;
        value           nonuniform List<scalar> 
97
(
0.3315820967
0.3315820967
0.3315816483
0.3315806458
0.3315791425
0.3315780168
0.3315791425
0.3315806458
0.3315816484
0.3315820967
0.331582223
0.3315806202
0.3315806202
0.3315806202
0.331577973
0.3315730486
0.3315679202
0.3315730487
0.3315779731
0.3315806202
0.3315816484
0.3315817682
0.3315805935
0.3315698052
0.3315698052
0.3315698052
0.3315500091
0.331518718
0.3315500096
0.3315698056
0.3315779731
0.3315806458
0.3315811028
0.3315785253
0.3315695244
0.3314710965
0.3314710965
0.3314710965
0.3312503585
0.3314710993
0.3315500096
0.3315730487
0.3315791425
0.3315806285
0.3315765777
0.3315595473
0.3314922536
0.3294419037
0.3294419037
0.3294419037
0.3312503584
0.3312503584
0.331518718
0.3315679202
0.3315780169
0.3315811028
0.3315785253
0.3315695244
0.3315434044
0.3314922538
0.3315434047
0.3315500089
0.3315500089
0.3315500089
0.3315730486
0.3315791425
0.3315817682
0.3315805935
0.3315771561
0.3315695244
0.3315595476
0.3315695245
0.3315771562
0.331577973
0.331577973
0.331577973
0.3315806458
0.331582223
0.3315817591
0.3315805935
0.3315785253
0.3315765777
0.3315785254
0.3315805935
0.3315817591
0.3315816483
0.3315816483
0.3315816483
0.3315824292
0.331582223
0.3315817682
0.3315811028
0.3315806285
0.3315811028
0.3315817682
0.331582223
0.3315824292
)
;
    }
}


// ************************************************************************* //
