/*--------------------------------*- C++ -*----------------------------------*\
| =========                 |                                                 |
| \\      /  F ield         | OpenFOAM: The Open Source CFD Toolbox           |
|  \\    /   O peration     | Version:  4.x                                   |
|   \\  /    A nd           | Web:      www.OpenFOAM.org                      |
|    \\/     M anipulation  |                                                 |
\*---------------------------------------------------------------------------*/
FoamFile
{
    version     2.0;
    format      ascii;
    class       volScalarField;
    location    "11000";
    object      Cpv;
}
// * * * * * * * * * * * * * * * * * * * * * * * * * * * * * * * * * * * * * //

dimensions      [0 2 -2 -1 0 0 0];

internalField   nonuniform List<scalar> 
1174
(
1245.091081
1245.091075
1245.091057
1245.091029
1245.091014
1245.090972
1245.090962
1245.090928
1245.090886
1245.090843
1245.090796
1245.090759
1245.090733
1245.09073
1245.091383
1245.091363
1245.091371
1245.091326
1245.091292
1245.091246
1245.091234
1245.091214
1245.091135
1245.091087
1245.091048
1245.091026
1245.090999
1245.090972
1245.090749
1245.090694
1245.09068
1245.090654
1245.090583
1245.090534
1245.090474
1245.09044
1245.090357
1245.090335
1245.090304
1245.090287
1245.090281
1245.090246
1245.092137
1245.092083
1245.092025
1245.091949
1245.091911
1245.091882
1245.091813
1245.091766
1245.091752
1245.091709
1245.091677
1245.091643
1245.091624
1245.091601
1245.091104
1245.091049
1245.091009
1245.090913
1245.090844
1245.090786
1245.09075
1245.090677
1245.090611
1245.090557
1245.090527
1245.090489
1245.09046
1245.090468
1245.089817
1245.089771
1245.089702
1245.089641
1245.08958
1245.089516
1245.089442
1245.08939
1245.089357
1245.089326
1245.089284
1245.089242
1245.089207
1245.089212
1245.090089
1245.090052
1245.090008
1245.089942
1245.08989
1245.089838
1245.089787
1245.089764
1245.089723
1245.089668
1245.08961
1245.08958
1245.089526
1245.089507
1245.091261
1245.091226
1245.091193
1245.091154
1245.091108
1245.091069
1245.091033
1245.090993
1245.090948
1245.090904
1245.090888
1245.090854
1245.090829
1245.090796
1245.0909
1245.090892
1245.090877
1245.090857
1245.090824
1245.090809
1245.090773
1245.090742
1245.090679
1245.09064
1245.090602
1245.090556
1245.090519
1245.090487
1245.090694
1245.090686
1245.09068
1245.09064
1245.090603
1245.090581
1245.090549
1245.090485
1245.090455
1245.090436
1245.090382
1245.090333
1245.090288
1245.090267
1245.090239
1245.091017
1245.090985
1245.090949
1245.090888
1245.090853
1245.090786
1245.090739
1245.090698
1245.090645
1245.090597
1245.090567
1245.090542
1245.090485
1245.090483
1245.091533
1245.091435
1245.091364
1245.091281
1245.091219
1245.091159
1245.091106
1245.09108
1245.091038
1245.091024
1245.091015
1245.090965
1245.090953
1245.090928
1245.090673
1245.090568
1245.09045
1245.090357
1245.090258
1245.090203
1245.090162
1245.09012
1245.090091
1245.090071
1245.090045
1245.090029
1245.09003
1245.090001
1245.090236
1245.090097
1245.089986
1245.089899
1245.089833
1245.08974
1245.089713
1245.089681
1245.089675
1245.089683
1245.089677
1245.089663
1245.089693
1245.089685
1245.091634
1245.091514
1245.091398
1245.091289
1245.091234
1245.091163
1245.091131
1245.091126
1245.091134
1245.091101
1245.091085
1245.091094
1245.09109
1245.091078
1245.092498
1245.092415
1245.092332
1245.092282
1245.092213
1245.092175
1245.092114
1245.092085
1245.092041
1245.092011
1245.091979
1245.091962
1245.091945
1245.091921
1245.089764
1245.089737
1245.089686
1245.089646
1245.089607
1245.089572
1245.089502
1245.08947
1245.089439
1245.089379
1245.089346
1245.089309
1245.089297
1245.089274
1245.091137
1245.091122
1245.091078
1245.091044
1245.091031
1245.090957
1245.09091
1245.090869
1245.090834
1245.090788
1245.090766
1245.090732
1245.090684
1245.090653
1245.090828
1245.090807
1245.090773
1245.09072
1245.090695
1245.090652
1245.090582
1245.090532
1245.090508
1245.090457
1245.090396
1245.090335
1245.09031
1245.09027
1245.090233
1245.090854
1245.09079
1245.090731
1245.090653
1245.090556
1245.090497
1245.090445
1245.090379
1245.090298
1245.090266
1245.090231
1245.09022
1245.090224
1245.090208
1245.090177
1245.090229
1245.090107
1245.08999
1245.089867
1245.089819
1245.089795
1245.089743
1245.089734
1245.089696
1245.08969
1245.089709
1245.089685
1245.089705
1245.08969
1245.090103
1245.089846
1245.08971
1245.089579
1245.089531
1245.089538
1245.089537
1245.089574
1245.089613
1245.089643
1245.089676
1245.089703
1245.089733
1245.08975
1245.089759
1245.089534
1245.089449
1245.089416
1245.089462
1245.089525
1245.089589
1245.089649
1245.08971
1245.089773
1245.089818
1245.08984
1245.089875
1245.089918
1245.089368
1245.089144
1245.088994
1245.088885
1245.088852
1245.088853
1245.088868
1245.088892
1245.088909
1245.088942
1245.088973
1245.089004
1245.089035
1245.089063
1245.089864
1245.089745
1245.089632
1245.089555
1245.089485
1245.089417
1245.089378
1245.08934
1245.089315
1245.089314
1245.08932
1245.089317
1245.089352
1245.089359
1245.09037
1245.090315
1245.090242
1245.090152
1245.090084
1245.090039
1245.089987
1245.089944
1245.089923
1245.089908
1245.089893
1245.089897
1245.089879
1245.089871
1245.09053
1245.09051
1245.090487
1245.090445
1245.090412
1245.090359
1245.09031
1245.090269
1245.090221
1245.090176
1245.090124
1245.090105
1245.09009
1245.090047
1245.090032
1245.089994
1245.089939
1245.089895
1245.089838
1245.08975
1245.089689
1245.089633
1245.089572
1245.089492
1245.089467
1245.089432
1245.089396
1245.089393
1245.089386
1245.090273
1245.090169
1245.090053
1245.089932
1245.089842
1245.089765
1245.089725
1245.089671
1245.08965
1245.089645
1245.08964
1245.089634
1245.089621
1245.089624
1245.08963
1245.088741
1245.088464
1245.088214
1245.088059
1245.087984
1245.087946
1245.087942
1245.087984
1245.08802
1245.08806
1245.08813
1245.088155
1245.088177
1245.088185
1245.088232
1245.089222
1245.088916
1245.08886
1245.088967
1245.089116
1245.08927
1245.089416
1245.089561
1245.089707
1245.089843
1245.089927
1245.090009
1245.090057
1245.090134
1245.085809
1245.086202
1245.08679
1245.087349
1245.087799
1245.088163
1245.088484
1245.08873
1245.088922
1245.089093
1245.089215
1245.089345
1245.08945
1245.089498
1245.088921
1245.088637
1245.088606
1245.088689
1245.088792
1245.088982
1245.089132
1245.089289
1245.089396
1245.089494
1245.089584
1245.089665
1245.089703
1245.089743
1245.090304
1245.090069
1245.089901
1245.089809
1245.089779
1245.089767
1245.089797
1245.089802
1245.089839
1245.08987
1245.089909
1245.089952
1245.089994
1245.090016
1245.090998
1245.090877
1245.090762
1245.090672
1245.090601
1245.090582
1245.090526
1245.090518
1245.090506
1245.09051
1245.090509
1245.090498
1245.090516
1245.090532
1245.090965
1245.090925
1245.090885
1245.090821
1245.090759
1245.090712
1245.09067
1245.090608
1245.090565
1245.090509
1245.090452
1245.090449
1245.09041
1245.090385
1245.090789
1245.090745
1245.090695
1245.09064
1245.090574
1245.09052
1245.09048
1245.090438
1245.090369
1245.090332
1245.090269
1245.090237
1245.090227
1245.090194
1245.090174
1245.090392
1245.090255
1245.090124
1245.089993
1245.089914
1245.089837
1245.089793
1245.08979
1245.089745
1245.08973
1245.089723
1245.089663
1245.08967
1245.089676
1245.089659
1245.091244
1245.090846
1245.090643
1245.09055
1245.090514
1245.090562
1245.090596
1245.09066
1245.090734
1245.090818
1245.090871
1245.090907
1245.090965
1245.091009
1245.091026
1245.087225
1245.086732
1245.087103
1245.087667
1245.088206
1245.088675
1245.08903
1245.08934
1245.089547
1245.089736
1245.089896
1245.090049
1245.090169
1245.090272
1245.090312
1244.660948
1244.667005
1244.670241
1244.672035
1244.673079
1244.673651
1244.673973
1244.674142
1244.674202
1244.674169
1244.674122
1244.674034
1244.673901
1244.673741
1245.08563
1245.086004
1245.086596
1245.087148
1245.087615
1245.087986
1245.088249
1245.088483
1245.088682
1245.088839
1245.088969
1245.089058
1245.089151
1245.089249
1245.089718
1245.089464
1245.08938
1245.089342
1245.089389
1245.08946
1245.08953
1245.089553
1245.089636
1245.089675
1245.089742
1245.089807
1245.089833
1245.089845
1245.090193
1245.090069
1245.089944
1245.089844
1245.089764
1245.08972
1245.08971
1245.089695
1245.089657
1245.089656
1245.089639
1245.089639
1245.089629
1245.089632
1245.090288
1245.090213
1245.090145
1245.090078
1245.089999
1245.089945
1245.089876
1245.089846
1245.089811
1245.089803
1245.089767
1245.089755
1245.089726
1245.089716
1245.090544
1245.090502
1245.090467
1245.090396
1245.090332
1245.090259
1245.090163
1245.090119
1245.090064
1245.08999
1245.089964
1245.089934
1245.089899
1245.08987
1245.089853
1245.089483
1245.089407
1245.089311
1245.089219
1245.089129
1245.089051
1245.089014
1245.088994
1245.088978
1245.088975
1245.088965
1245.088923
1245.088935
1245.08894
1245.088933
1245.089645
1245.089371
1245.089139
1245.088991
1245.088933
1245.08887
1245.088863
1245.088893
1245.088902
1245.088939
1245.089005
1245.089035
1245.089081
1245.089097
1245.08914
1245.088884
1245.088254
1245.087966
1245.087895
1245.087964
1245.088089
1245.088236
1245.088403
1245.088546
1245.088688
1245.088792
1245.088903
1245.089006
1245.089081
1245.089121
1245.086339
1245.085871
1245.086236
1245.086813
1245.087324
1245.08779
1245.088168
1245.088455
1245.088726
1245.088906
1245.089058
1245.089196
1245.089312
1245.089389
1245.089444
1245.088769
1245.088121
1245.087808
1245.087764
1245.087833
1245.087991
1245.088142
1245.088305
1245.088453
1245.088589
1245.088711
1245.088809
1245.088871
1245.088935
1245.088982
1245.090398
1245.090172
1245.090012
1245.08993
1245.089862
1245.089865
1245.089861
1245.089916
1245.089946
1245.089997
1245.090037
1245.090082
1245.090085
1245.090097
1245.089998
1245.089885
1245.089777
1245.089664
1245.089569
1245.089541
1245.089521
1245.089497
1245.08949
1245.08946
1245.089448
1245.089437
1245.089467
1245.089449
1245.090478
1245.090428
1245.090363
1245.090308
1245.090245
1245.090178
1245.090119
1245.090058
1245.090005
1245.089966
1245.089931
1245.089908
1245.089886
1245.089853
1245.089783
1245.089774
1245.089726
1245.089711
1245.08966
1245.089629
1245.089596
1245.089542
1245.089472
1245.089436
1245.089388
1245.089358
1245.089333
1245.089298
1245.089266
1245.091096
1245.091071
1245.091001
1245.090933
1245.090868
1245.090816
1245.090786
1245.090734
1245.090671
1245.090644
1245.090609
1245.090605
1245.090561
1245.090527
1245.090505
1245.092292
1245.092151
1245.091989
1245.091868
1245.091782
1245.091701
1245.091651
1245.091619
1245.091616
1245.091581
1245.091576
1245.091565
1245.091595
1245.091559
1245.091586
1245.090637
1245.090347
1245.090122
1245.089943
1245.089898
1245.089882
1245.089856
1245.089862
1245.0899
1245.089918
1245.08996
1245.089977
1245.090008
1245.090044
1245.090078
1245.089128
1245.088732
1245.088482
1245.088388
1245.088402
1245.088397
1245.088459
1245.088517
1245.088605
1245.088681
1245.088766
1245.088839
1245.088879
1245.088904
1245.088917
1245.090149
1245.089848
1245.089609
1245.08943
1245.089332
1245.0893
1245.089276
1245.089303
1245.089309
1245.089361
1245.089376
1245.089402
1245.08942
1245.089445
1245.089483
1245.090711
1245.090581
1245.090432
1245.090289
1245.090199
1245.090117
1245.09007
1245.090018
1245.090024
1245.090027
1245.090018
1245.090029
1245.090057
1245.090044
1245.090018
1245.089767
1245.089697
1245.089648
1245.089599
1245.089529
1245.08948
1245.089434
1245.089398
1245.089365
1245.089333
1245.089286
1245.089278
1245.089258
1245.089204
1245.091424
1245.091415
1245.091375
1245.091324
1245.091286
1245.091249
1245.0912
1245.091165
1245.0911
1245.091054
1245.091045
1245.091042
1245.091022
1245.091018
1245.091387
1245.091375
1245.091385
1245.091364
1245.091371
1245.091317
1245.091268
1245.09121
1245.091177
1245.091149
1245.091099
1245.091054
1245.091013
1245.090988
1245.090962
1245.091316
1245.091252
1245.091231
1245.091179
1245.09113
1245.091094
1245.091045
1245.090982
1245.090917
1245.090895
1245.090848
1245.090812
1245.09077
1245.090737
1245.090697
1245.090608
1245.090551
1245.090492
1245.090418
1245.090369
1245.090292
1245.090247
1245.090216
1245.090176
1245.090153
1245.090111
1245.09008
1245.090066
1245.090015
1245.090018
1245.091004
1245.090884
1245.090777
1245.090658
1245.090618
1245.09056
1245.090503
1245.090473
1245.090466
1245.090443
1245.090412
1245.090401
1245.090401
1245.090377
1245.090388
1245.091232
1245.091061
1245.090921
1245.090806
1245.090725
1245.090645
1245.090585
1245.090527
1245.090527
1245.090511
1245.090499
1245.090465
1245.090469
1245.090461
1245.090449
1245.090265
1245.090196
1245.090103
1245.089984
1245.0899
1245.089818
1245.089724
1245.089687
1245.089651
1245.089618
1245.089612
1245.089607
1245.089602
1245.089577
1245.089573
1245.090401
1245.090334
1245.090254
1245.090192
1245.090159
1245.09008
1245.089992
1245.089943
1245.089913
1245.089855
1245.089831
1245.089775
1245.08975
1245.089766
1245.089747
1245.090479
1245.090457
1245.090434
1245.090392
1245.090355
1245.090318
1245.090255
1245.090249
1245.090223
1245.090183
1245.090121
1245.090067
1245.09002
1245.089997
1245.08999
1245.092029
1245.092014
1245.091962
1245.091943
1245.091878
1245.091839
1245.0918
1245.091733
1245.091718
1245.091682
1245.091651
1245.091614
1245.091585
1245.091533
1245.090439
1245.09043
1245.090412
1245.090373
1245.090362
1245.090336
1245.090321
1245.090276
1245.090228
1245.09019
1245.090159
1245.090115
1245.090081
1245.090049
1245.09005
1245.090962
1245.09096
1245.090946
1245.090946
1245.090937
1245.090892
1245.090862
1245.090794
1245.09075
1245.090695
1245.09066
1245.090631
1245.090598
1245.090563
1245.09055
1245.090748
1245.090696
1245.090645
1245.090616
1245.090544
1245.090477
1245.090429
1245.090367
1245.090315
1245.090266
1245.090201
1245.090138
1245.09009
1245.090082
1245.090055
1245.091302
1245.091282
1245.09123
1245.09117
1245.091092
1245.09103
1245.090953
1245.090898
1245.090844
1245.090807
1245.090797
1245.090771
1245.090748
1245.090739
1245.090739
1245.090519
1245.090474
1245.090412
1245.090337
1245.090263
1245.090223
1245.09015
1245.090111
1245.090066
1245.090014
1245.089968
1245.089948
1245.089929
1245.089889
1245.089873
1245.091629
1245.091601
1245.091559
1245.091502
1245.09145
1245.0914
1245.091314
1245.091272
1245.091215
1245.091183
1245.091126
1245.091093
1245.091028
1245.091025
1245.091006
1245.090753
1245.090719
1245.090719
1245.090682
1245.090617
1245.090572
1245.090528
1245.090475
1245.090426
1245.090403
1245.090378
1245.090338
1245.090311
1245.090313
1245.090326
1245.090182
1245.090154
1245.090143
1245.090146
1245.090106
1245.09006
1245.090017
1245.089951
1245.0899
1245.089875
1245.089832
1245.089813
1245.08979
1245.08974
1245.089717
1245.090765
1245.090755
1245.090727
1245.090704
1245.090683
1245.090656
1245.090623
1245.09058
1245.090562
1245.090509
1245.090455
1245.090452
1245.090392
1245.090359
1245.090329
)
;

boundaryField
{
    top
    {
        type            calculated;
        value           nonuniform List<scalar> 
127
(
1245.090765
1245.0909
1245.091137
1245.09053
1245.090965
1245.090288
1245.090478
1245.091424
1245.092029
1245.090755
1245.090892
1245.091122
1245.09051
1245.090925
1245.090213
1245.090428
1245.091415
1245.092014
1245.090727
1245.090877
1245.091078
1245.090487
1245.090885
1245.090145
1245.090363
1245.091375
1245.091962
1245.090704
1245.090857
1245.091044
1245.090445
1245.090821
1245.090078
1245.090308
1245.091324
1245.091943
1245.090683
1245.090824
1245.091031
1245.090412
1245.090759
1245.089999
1245.090245
1245.091286
1245.091878
1245.090656
1245.090809
1245.090957
1245.090359
1245.090712
1245.089945
1245.090178
1245.091249
1245.091839
1245.090623
1245.090773
1245.09091
1245.09031
1245.09067
1245.089876
1245.090119
1245.0912
1245.0918
1245.09058
1245.090742
1245.090869
1245.090269
1245.090608
1245.089846
1245.090058
1245.091165
1245.091733
1245.090562
1245.090679
1245.090834
1245.090221
1245.090565
1245.089811
1245.090005
1245.0911
1245.091718
1245.090509
1245.09064
1245.090788
1245.090176
1245.090509
1245.089803
1245.089966
1245.091054
1245.091682
1245.090455
1245.090602
1245.090766
1245.090124
1245.090452
1245.089767
1245.089931
1245.091045
1245.091651
1245.090452
1245.090556
1245.090732
1245.090105
1245.090449
1245.089755
1245.089908
1245.091042
1245.091614
1245.090392
1245.090519
1245.090684
1245.09009
1245.09041
1245.089726
1245.089886
1245.091022
1245.091585
1245.090359
1245.090487
1245.090653
1245.090047
1245.090385
1245.089716
1245.089853
1245.091018
1245.091533
1245.090329
)
;
    }
    bottom
    {
        type            calculated;
        value           nonuniform List<scalar> 
134
(
1245.090694
1245.090828
1245.090032
1245.090789
1245.090544
1245.089783
1245.091387
1245.090439
1245.091081
1245.090686
1245.090807
1245.089994
1245.090745
1245.090502
1245.089774
1245.091375
1245.09043
1245.091075
1245.09068
1245.090773
1245.089939
1245.090695
1245.090467
1245.089726
1245.091385
1245.090412
1245.091057
1245.09064
1245.09072
1245.089895
1245.09064
1245.090396
1245.089711
1245.091364
1245.090373
1245.091029
1245.090603
1245.090695
1245.089838
1245.090574
1245.090332
1245.08966
1245.091371
1245.090362
1245.091014
1245.090581
1245.090652
1245.08975
1245.09052
1245.090259
1245.089629
1245.091317
1245.090336
1245.090972
1245.090549
1245.090582
1245.089689
1245.09048
1245.090163
1245.089596
1245.091268
1245.090321
1245.090962
1245.090485
1245.090532
1245.089633
1245.090438
1245.090119
1245.089542
1245.09121
1245.090276
1245.090928
1245.090455
1245.090508
1245.089572
1245.090369
1245.090064
1245.089472
1245.091177
1245.090228
1245.090886
1245.090436
1245.090457
1245.089492
1245.090332
1245.08999
1245.089436
1245.091149
1245.09019
1245.090843
1245.090382
1245.090396
1245.089467
1245.090269
1245.089964
1245.089388
1245.091099
1245.090159
1245.090796
1245.090333
1245.090335
1245.089432
1245.090237
1245.089934
1245.089358
1245.091054
1245.090115
1245.090759
1245.090288
1245.09031
1245.089396
1245.090227
1245.089899
1245.089333
1245.091013
1245.090081
1245.090733
1245.090267
1245.09027
1245.089393
1245.090194
1245.08987
1245.089298
1245.090988
1245.090049
1245.09073
1245.090239
1245.090233
1245.089386
1245.090174
1245.089853
1245.089266
1245.090962
1245.09005
)
;
    }
    side-walls
    {
        type            calculated;
        value           nonuniform List<scalar> 
261
(
1245.091081
1245.091383
1245.090749
1245.092137
1245.091104
1245.089817
1245.090089
1245.091261
1245.0909
1245.091075
1245.091363
1245.090694
1245.092083
1245.091049
1245.089771
1245.090052
1245.091226
1245.090892
1245.091057
1245.091371
1245.09068
1245.092025
1245.091009
1245.089702
1245.090008
1245.091193
1245.090877
1245.091029
1245.091326
1245.090654
1245.091949
1245.090913
1245.089641
1245.089942
1245.091154
1245.090857
1245.091014
1245.091292
1245.090583
1245.091911
1245.090844
1245.08958
1245.08989
1245.091108
1245.090824
1245.090972
1245.091246
1245.090534
1245.091882
1245.090786
1245.089516
1245.089838
1245.091069
1245.090809
1245.090962
1245.091234
1245.090474
1245.091813
1245.09075
1245.089442
1245.089787
1245.091033
1245.090773
1245.090928
1245.091214
1245.09044
1245.091766
1245.090677
1245.08939
1245.089764
1245.090993
1245.090742
1245.090886
1245.091135
1245.090357
1245.091752
1245.090611
1245.089357
1245.089723
1245.090948
1245.090679
1245.090843
1245.091087
1245.090335
1245.091709
1245.090557
1245.089326
1245.089668
1245.090904
1245.09064
1245.090796
1245.091048
1245.090304
1245.091677
1245.090527
1245.089284
1245.08961
1245.090888
1245.090602
1245.090759
1245.091026
1245.090287
1245.091643
1245.090489
1245.089242
1245.08958
1245.090854
1245.090556
1245.090733
1245.090999
1245.090281
1245.091624
1245.09046
1245.089207
1245.089526
1245.090829
1245.090519
1245.09073
1245.090972
1245.090246
1245.091601
1245.090468
1245.089212
1245.089507
1245.090796
1245.090487
1245.090439
1245.090962
1245.090748
1245.091302
1245.090519
1245.091629
1245.090753
1245.090182
1245.090765
1245.09043
1245.09096
1245.090696
1245.091282
1245.090474
1245.091601
1245.090719
1245.090154
1245.090755
1245.090412
1245.090946
1245.090645
1245.09123
1245.090412
1245.091559
1245.090719
1245.090143
1245.090727
1245.090373
1245.090946
1245.090616
1245.09117
1245.090337
1245.091502
1245.090682
1245.090146
1245.090704
1245.090362
1245.090937
1245.090544
1245.091092
1245.090263
1245.09145
1245.090617
1245.090106
1245.090683
1245.090336
1245.090892
1245.090477
1245.09103
1245.090223
1245.0914
1245.090572
1245.09006
1245.090656
1245.090321
1245.090862
1245.090429
1245.090953
1245.09015
1245.091314
1245.090528
1245.090017
1245.090623
1245.090276
1245.090794
1245.090367
1245.090898
1245.090111
1245.091272
1245.090475
1245.089951
1245.09058
1245.090228
1245.09075
1245.090315
1245.090844
1245.090066
1245.091215
1245.090426
1245.0899
1245.090562
1245.09019
1245.090695
1245.090266
1245.090807
1245.090014
1245.091183
1245.090403
1245.089875
1245.090509
1245.090159
1245.09066
1245.090201
1245.090797
1245.089968
1245.091126
1245.090378
1245.089832
1245.090455
1245.090115
1245.090631
1245.090138
1245.090771
1245.089948
1245.091093
1245.090338
1245.089813
1245.090452
1245.090081
1245.090598
1245.09009
1245.090748
1245.089929
1245.091028
1245.090311
1245.08979
1245.090392
1245.090049
1245.090563
1245.090082
1245.090739
1245.089889
1245.091025
1245.090313
1245.08974
1245.090359
1245.09005
1245.09055
1245.090055
1245.090739
1245.089873
1245.091006
1245.090326
1245.089717
1245.090329
)
;
    }
    inlet
    {
        type            calculated;
        value           nonuniform 0();
    }
    outlet
    {
        type            calculated;
        value           nonuniform List<scalar> 
81
(
1245.09073
1245.090972
1245.090246
1245.091601
1245.090468
1245.089212
1245.089507
1245.090796
1245.090487
1245.090239
1245.090483
1245.090928
1245.090001
1245.089685
1245.091078
1245.091921
1245.089274
1245.090653
1245.090233
1245.090177
1245.08969
1245.08975
1245.089918
1245.089063
1245.089359
1245.089871
1245.090047
1245.089386
1245.08963
1245.088232
1245.090134
1245.089498
1245.089743
1245.090016
1245.090532
1245.090385
1245.090174
1245.089659
1245.091026
1245.090312
1244.673741
1245.089249
1245.089845
1245.089632
1245.089716
1245.089853
1245.088933
1245.08914
1245.089121
1245.089444
1245.088982
1245.090097
1245.089449
1245.089853
1245.089266
1245.090505
1245.091586
1245.090078
1245.088917
1245.089483
1245.090018
1245.089204
1245.091018
1245.090962
1245.090697
1245.090018
1245.090388
1245.090449
1245.089573
1245.089747
1245.08999
1245.091533
1245.09005
1245.09055
1245.090055
1245.090739
1245.089873
1245.091006
1245.090326
1245.089717
1245.090329
)
;
    }
    procBoundary1to0
    {
        type            processor;
        value           nonuniform List<scalar> 
97
(
1245.091099
1245.091099
1245.091423
1245.09078
1245.09219
1245.091146
1245.089849
1245.090124
1245.09127
1245.090915
1245.090698
1245.091048
1245.091048
1245.091048
1245.091573
1245.090761
1245.090353
1245.091723
1245.09255
1245.089806
1245.091158
1245.090865
1245.090858
1245.090379
1245.090379
1245.090379
1245.090375
1245.090168
1245.089676
1245.090013
1245.090401
1245.090589
1245.090073
1245.090337
1245.088991
1245.089852
1245.089852
1245.089852
1245.086317
1245.089603
1245.090601
1245.091125
1245.091008
1245.090816
1245.090492
1245.091807
1245.090624
1244.648619
1244.648619
1244.648619
1245.086144
1245.086144
1245.090092
1245.090347
1245.090309
1245.090574
1245.089539
1245.089887
1245.089827
1245.089718
1245.089742
1245.090682
1245.090682
1245.090682
1245.090067
1245.090527
1245.089785
1245.09116
1245.092387
1245.090917
1245.089659
1245.090361
1245.090825
1245.08981
1245.08981
1245.08981
1245.091471
1245.091396
1245.091358
1245.090631
1245.091048
1245.091364
1245.090345
1245.090442
1245.090514
1245.092072
1245.092072
1245.092072
1245.09044
1245.090957
1245.090759
1245.091337
1245.090556
1245.091663
1245.090764
1245.090191
1245.090775
)
;
    }
}


// ************************************************************************* //
