/*--------------------------------*- C++ -*----------------------------------*\
| =========                 |                                                 |
| \\      /  F ield         | OpenFOAM: The Open Source CFD Toolbox           |
|  \\    /   O peration     | Version:  4.x                                   |
|   \\  /    A nd           | Web:      www.OpenFOAM.org                      |
|    \\/     M anipulation  |                                                 |
\*---------------------------------------------------------------------------*/
FoamFile
{
    version     2.0;
    format      ascii;
    class       volScalarField;
    location    "11000";
    object      H2;
}
// * * * * * * * * * * * * * * * * * * * * * * * * * * * * * * * * * * * * * //

dimensions      [0 0 0 0 0 0 0];

internalField   nonuniform List<scalar> 
1174
(
0.002172479365
0.002172454098
0.002172418477
0.002172372092
0.002172315468
0.002172249885
0.002172177116
0.002172099164
0.002172018047
0.002171935657
0.002171853738
0.002171774135
0.002171700101
0.002171642019
0.002172455675
0.002172415255
0.002172361521
0.002172295758
0.002172220269
0.00217213782
0.002172051206
0.002171962961
0.002171875211
0.002171789641
0.002171707574
0.002171630286
0.002171560227
0.002171506232
0.002172403406
0.002172332102
0.002172244038
0.00217214423
0.00217203807
0.002171930378
0.002171824949
0.002171724467
0.002171630624
0.002171544325
0.002171465937
0.002171395671
0.002171334621
0.002171288984
0.002172326937
0.002172216338
0.002172089611
0.00217195607
0.002171823439
0.002171697231
0.002171580865
0.002171476073
0.00217138337
0.00217130247
0.002171232634
0.002171173032
0.002171123522
0.002171087762
0.002172272438
0.002172140315
0.002171996458
0.002171851032
0.00217171135
0.002171582051
0.002171465629
0.002171363012
0.002171274068
0.002171198009
0.002171133707
0.002171079994
0.00217103631
0.002171005296
0.002172326939
0.00217221634
0.002172089614
0.002171956074
0.002171823443
0.002171697235
0.002171580869
0.002171476077
0.002171383374
0.002171302474
0.002171232638
0.002171173036
0.002171123526
0.002171087766
0.002172403408
0.002172332104
0.002172244041
0.002172144233
0.002172038074
0.002171930382
0.002171824953
0.002171724471
0.002171630629
0.00217154433
0.002171465943
0.002171395677
0.002171334627
0.00217128899
0.002172455676
0.002172415256
0.002172361523
0.002172295761
0.002172220271
0.002172137823
0.00217205121
0.002171962965
0.002171875215
0.002171789645
0.00217170758
0.002171630292
0.002171560233
0.002171506239
0.002172479366
0.002172454099
0.002172418479
0.002172372093
0.002172315469
0.002172249887
0.002172177119
0.002172099167
0.00217201805
0.002171935661
0.002171853743
0.00217177414
0.002171700107
0.002171642025
0.002172483013
0.002172455675
0.002172415255
0.002172361522
0.002172295759
0.00217222027
0.002172137821
0.002172051208
0.002171962963
0.002171875212
0.002171789642
0.002171707576
0.002171630288
0.002171560229
0.002171506234
0.002172402361
0.002172331552
0.002172245366
0.002172149027
0.002172047747
0.002171945897
0.002171846713
0.002171752341
0.002171664035
0.002171582402
0.002171507649
0.002171439952
0.002171380486
0.002171335627
0.002172268402
0.002172131145
0.002171982273
0.00217183441
0.002171696148
0.002171572121
0.002171463961
0.002171371377
0.00217129303
0.002171227144
0.002171171896
0.002171125713
0.002171087839
0.002171060652
0.002172030722
0.002171802958
0.002171586917
0.002171398689
0.002171243769
0.002171121261
0.002171027204
0.002170956653
0.002170904784
0.002170867377
0.002170840955
0.00217082276
0.002170810696
0.002170803578
0.002171806924
0.002171533257
0.002171302022
0.002171119099
0.002170980649
0.00217087943
0.002170807795
0.002170758916
0.002170727144
0.002170707993
0.002170697985
0.002170694418
0.002170695048
0.002170697432
0.002172030724
0.002171802961
0.00217158692
0.002171398692
0.002171243772
0.002171121265
0.002171027208
0.002170956657
0.002170904787
0.00217086738
0.002170840958
0.002170822763
0.002170810699
0.002170803581
0.002172268404
0.002172131147
0.002171982275
0.002171834413
0.002171696151
0.002171572124
0.002171463965
0.002171371381
0.002171293034
0.002171227149
0.002171171901
0.002171125718
0.002171087844
0.002171060657
0.002172402363
0.002172331554
0.002172245369
0.002172149029
0.00217204775
0.002171945901
0.002171846718
0.002171752346
0.002171664041
0.002171582408
0.002171507655
0.002171439958
0.002171380492
0.002171335634
0.002172455676
0.002172415256
0.002172361523
0.002172295761
0.002172220272
0.002172137824
0.002172051211
0.002171962966
0.002171875216
0.002171789647
0.002171707581
0.002171630293
0.002171560235
0.00217150624
0.002172454768
0.002172403407
0.002172332104
0.00217224404
0.002172144232
0.002172038073
0.002171930381
0.002171824952
0.00217172447
0.002171630628
0.002171544329
0.002171465941
0.002171395674
0.002171334624
0.002171288987
0.002172379462
0.002172268403
0.002172131146
0.002171982274
0.002171834412
0.00217169615
0.002171572123
0.002171463963
0.002171371379
0.002171293032
0.002171227146
0.002171171898
0.002171125714
0.00217108784
0.002171060653
0.002171873359
0.002171584605
0.00217132388
0.002171110778
0.002170949121
0.002170833985
0.002170756928
0.002170709049
0.002170682454
0.002170670748
0.002170669027
0.00217067361
0.002170681543
0.002170689384
0.00217099621
0.002170509998
0.002170176161
0.002169980402
0.002169889717
0.002169871079
0.00216989796
0.002169951208
0.00217001788
0.002170089639
0.002170161301
0.002170229548
0.002170291212
0.00217033838
0.00216984965
0.00216936775
0.002169163136
0.002169129726
0.002169192048
0.002169302746
0.002169433847
0.002169569494
0.002169701083
0.00216982424
0.002169936962
0.002170038274
0.002170126325
0.002170192112
0.002170996223
0.002170510012
0.002170176173
0.002169980412
0.002169889726
0.002169871087
0.002169897967
0.002169951214
0.002170017886
0.002170089644
0.002170161305
0.002170229553
0.002170291216
0.002170338384
0.002171873368
0.002171584613
0.002171323888
0.002171110785
0.002170949128
0.002170833993
0.002170756935
0.002170709056
0.002170682461
0.002170670755
0.002170669034
0.002170673617
0.002170681549
0.00217068939
0.002172268406
0.002172131149
0.002171982278
0.002171834416
0.002171696155
0.002171572128
0.002171463968
0.002171371385
0.002171293038
0.002171227153
0.002171171905
0.002171125721
0.002171087848
0.00217106066
0.002172403408
0.002172332105
0.002172244042
0.002172144234
0.002172038075
0.002171930384
0.002171824955
0.002171724474
0.002171630633
0.002171544334
0.002171465947
0.002171395681
0.002171334631
0.002171288994
0.002172412413
0.002172326939
0.002172216341
0.002172089614
0.002171956075
0.002171823444
0.002171697236
0.00217158087
0.002171476078
0.002171383375
0.002171302475
0.002171232638
0.002171173036
0.002171123527
0.002171087766
0.002172240714
0.002172030724
0.002171802961
0.00217158692
0.002171398692
0.002171243772
0.002171121265
0.002171027208
0.002170956656
0.002170904787
0.002170867379
0.002170840957
0.002170822762
0.002170810698
0.00217080358
0.002171591534
0.002170996213
0.002170510002
0.002170176164
0.002169980405
0.002169889719
0.002169871081
0.002169897961
0.002169951209
0.002170017881
0.00217008964
0.002170161301
0.002170229549
0.002170291213
0.002170338381
0.002167993638
0.002167385929
0.002167290322
0.002167470927
0.002167773937
0.00216811288
0.002168444133
0.002168748388
0.002169019118
0.002169256017
0.002169461421
0.002169638108
0.002169786462
0.002169894736
0.002162112503
0.0021628924
0.002164080559
0.002165216589
0.002166180253
0.002166965424
0.002167598206
0.002168108989
0.002168524146
0.002168864525
0.002169145932
0.002169379662
0.002169571016
0.002169708443
0.002167993681
0.002167385961
0.002167290346
0.002167470946
0.002167773951
0.002168112891
0.002168444142
0.002168748396
0.002169019125
0.002169256023
0.002169461427
0.002169638113
0.002169786467
0.00216989474
0.002170996221
0.002170510012
0.002170176175
0.002169980416
0.002169889731
0.002169871093
0.002169897973
0.00216995122
0.002170017892
0.00217008965
0.002170161311
0.002170229558
0.002170291221
0.002170338389
0.002172030725
0.002171802963
0.002171586923
0.002171398696
0.002171243777
0.00217112127
0.002171027214
0.002170956663
0.002170904794
0.002170867387
0.002170840965
0.002170822771
0.002170810706
0.002170803589
0.002172326938
0.002172216341
0.002172089615
0.002171956076
0.002171823446
0.002171697239
0.002171580874
0.002171476083
0.00217138338
0.002171302481
0.002171232645
0.002171173043
0.002171123534
0.002171087774
0.002172380696
0.002172272439
0.002172140317
0.002171996461
0.002171851034
0.002171711353
0.002171582054
0.002171465632
0.002171363015
0.002171274071
0.002171198013
0.00217113371
0.002171079997
0.002171036313
0.0021710053
0.002172096208
0.002171806923
0.002171533258
0.002171302023
0.0021711191
0.002170980651
0.002170879432
0.002170807797
0.002170758919
0.002170727146
0.002170707996
0.002170697988
0.002170694421
0.00217069505
0.002170697434
0.002170709798
0.002169849639
0.002169367746
0.002169163136
0.002169129727
0.00216919205
0.002169302749
0.00216943385
0.002169569498
0.002169701087
0.002169824244
0.002169936965
0.002170038277
0.002170126328
0.002170192115
0.002163147754
0.002162112506
0.002162892408
0.002164080568
0.002165216598
0.002166180262
0.002166965432
0.002167598213
0.002168108994
0.002168524151
0.002168864529
0.002169145935
0.002169379665
0.002169571019
0.002169708446
0.00213684068
0.002149738681
0.002156870125
0.002161040013
0.00216362053
0.00216530766
0.002166467997
0.00216730244
0.00216792565
0.002168405791
0.002168784911
0.002169089269
0.002169332395
0.002169504306
0.002162112511
0.002162892438
0.002164080592
0.002165216614
0.002166180273
0.00216696544
0.002167598219
0.002168108999
0.002168524155
0.002168864532
0.002169145939
0.002169379668
0.002169571022
0.002169708449
0.002169849654
0.002169367765
0.002169163155
0.002169129744
0.002169192066
0.002169302763
0.002169433863
0.002169569509
0.002169701097
0.002169824253
0.002169936974
0.002170038285
0.002170126336
0.002170192123
0.002171806926
0.002171533262
0.002171302029
0.002171119108
0.002170980659
0.002170879441
0.002170807807
0.002170758928
0.002170727156
0.002170708005
0.002170697997
0.00217069443
0.00217069506
0.002170697444
0.00217227244
0.002172140318
0.002171996463
0.002171851038
0.002171711357
0.00217158206
0.002171465639
0.002171363022
0.002171274079
0.002171198021
0.002171133719
0.002171080006
0.002171036323
0.002171005309
0.002172412414
0.00217232694
0.002172216342
0.002172089616
0.002171956076
0.002171823446
0.002171697239
0.002171580873
0.002171476081
0.002171383378
0.002171302478
0.002171232641
0.002171173039
0.00217112353
0.002171087769
0.002172240716
0.002172030727
0.002171802966
0.002171586925
0.002171398697
0.002171243777
0.002171121269
0.002171027212
0.002170956661
0.002170904791
0.002170867384
0.002170840962
0.002170822767
0.002170810702
0.002170803584
0.002171591546
0.002170996225
0.002170510016
0.002170176178
0.002169980417
0.00216988973
0.002169871091
0.002169897971
0.002169951218
0.002170017889
0.002170089647
0.002170161308
0.002170229555
0.002170291219
0.002170338387
0.002169368023
0.002167993694
0.002167385975
0.002167290358
0.002167470955
0.002167773958
0.002168112897
0.002168444147
0.0021687484
0.002169019128
0.002169256026
0.002169461429
0.002169638115
0.002169786469
0.002169894742
0.002163147782
0.002162112531
0.002162892452
0.002164080602
0.002165216621
0.002166180278
0.002166965444
0.002167598222
0.002168109002
0.002168524157
0.002168864534
0.00216914594
0.002169379669
0.002169571023
0.00216970845
0.002169368026
0.002167993709
0.002167385993
0.002167290373
0.002167470968
0.002167773969
0.002168112906
0.002168444155
0.002168748407
0.002169019134
0.002169256032
0.002169461434
0.00216963812
0.002169786473
0.002169894747
0.002170996214
0.002170510015
0.002170176182
0.002169980424
0.002169889739
0.002169871101
0.002169897981
0.002169951228
0.002170017899
0.002170089657
0.002170161317
0.002170229564
0.002170291227
0.002170338395
0.002172030724
0.002171802964
0.002171586925
0.0021713987
0.002171243782
0.002171121275
0.002171027219
0.002170956668
0.002170904799
0.002170867392
0.00217084097
0.002170822775
0.002170810711
0.002170803593
0.002172326939
0.002172216341
0.002172089616
0.002171956078
0.002171823448
0.002171697242
0.002171580877
0.002171476086
0.002171383384
0.002171302485
0.002171232649
0.002171173048
0.002171123539
0.002171087779
0.002172454769
0.002172403408
0.002172332106
0.002172244043
0.002172144235
0.002172038076
0.002171930385
0.002171824956
0.002171724474
0.002171630632
0.002171544334
0.002171465946
0.00217139568
0.00217133463
0.002171288993
0.002172379464
0.002172268406
0.00217213115
0.002171982278
0.002171834416
0.002171696154
0.002171572128
0.002171463968
0.002171371384
0.002171293038
0.002171227152
0.002171171904
0.002171125721
0.002171087847
0.00217106066
0.002172149337
0.002171873368
0.002171584613
0.002171323889
0.002171110787
0.00217094913
0.002170833995
0.002170756937
0.002170709058
0.002170682463
0.002170670758
0.002170669036
0.00217067362
0.002170681552
0.002170689393
0.002171591548
0.00217099623
0.002170510023
0.002170176186
0.002169980426
0.002169889739
0.0021698711
0.002169897979
0.002169951226
0.002170017896
0.002170089654
0.002170161314
0.002170229561
0.002170291224
0.002170338392
0.002170709818
0.002169849671
0.002169367781
0.002169163168
0.002169129755
0.002169192074
0.002169302769
0.002169433868
0.002169569513
0.0021697011
0.002169824256
0.002169936976
0.002170038287
0.002170126338
0.002170192124
0.002171591552
0.002170996236
0.00217051003
0.002170176193
0.002169980432
0.002169889745
0.002169871106
0.002169897984
0.00216995123
0.002170017901
0.002170089658
0.002170161318
0.002170229565
0.002170291228
0.002170338396
0.002172149335
0.002171873368
0.002171584616
0.002171323894
0.002171110793
0.002170949137
0.002170834002
0.002170756945
0.002170709066
0.002170682471
0.002170670765
0.002170669044
0.002170673627
0.002170681559
0.0021706894
0.002172268404
0.00217213115
0.00217198228
0.002171834419
0.002171696159
0.002171572134
0.002171463975
0.002171371391
0.002171293045
0.00217122716
0.002171171912
0.002171125729
0.002171087855
0.002171060668
0.002172403407
0.002172332104
0.002172244042
0.002172144235
0.002172038077
0.002171930386
0.002171824958
0.002171724478
0.002171630637
0.002171544339
0.002171465952
0.002171395686
0.002171334637
0.002171289
0.002172483013
0.002172455676
0.002172415257
0.002172361523
0.002172295761
0.002172220272
0.002172137824
0.002172051211
0.002171962967
0.002171875217
0.002171789647
0.002171707581
0.002171630294
0.002171560235
0.002171506241
0.002172454046
0.002172402363
0.002172331554
0.002172245369
0.00217214903
0.002172047751
0.002171945902
0.002171846719
0.002171752347
0.002171664042
0.002171582409
0.002171507656
0.00217143996
0.002171380494
0.002171335635
0.002172379464
0.002172268406
0.00217213115
0.002171982279
0.002171834417
0.002171696156
0.002171572129
0.00217146397
0.002171371386
0.00217129304
0.002171227154
0.002171171907
0.002171125723
0.002171087849
0.002171060662
0.002172240716
0.002172030728
0.002171802967
0.002171586928
0.002171398701
0.002171243782
0.002171121275
0.002171027218
0.002170956667
0.002170904798
0.00217086739
0.002170840968
0.002170822773
0.002170810709
0.002170803591
0.002172096212
0.002171806931
0.002171533269
0.002171302035
0.002171119114
0.002170980665
0.002170879446
0.002170807811
0.002170758932
0.002170727159
0.002170708009
0.002170698
0.002170694433
0.002170695062
0.002170697446
0.002172240718
0.00217203073
0.002171802971
0.002171586932
0.002171398705
0.002171243786
0.002171121279
0.002171027223
0.002170956672
0.002170904802
0.002170867394
0.002170840972
0.002170822777
0.002170810713
0.002170803595
0.002172379464
0.002172268407
0.002172131152
0.002171982282
0.002171834421
0.002171696161
0.002171572135
0.002171463976
0.002171371392
0.002171293046
0.002171227161
0.002171171913
0.00217112573
0.002171087856
0.002171060669
0.002172454046
0.002172402363
0.002172331555
0.002172245371
0.002172149032
0.002172047754
0.002171945906
0.002171846723
0.002171752352
0.002171664048
0.002171582415
0.002171507663
0.002171439967
0.002171380501
0.002171335643
0.002172455675
0.002172415256
0.002172361523
0.002172295762
0.002172220273
0.002172137825
0.002172051213
0.00217196297
0.00217187522
0.002171789651
0.002171707586
0.002171630299
0.002171560241
0.002171506247
0.002172495644
0.002172479366
0.002172454099
0.002172418479
0.002172372094
0.00217231547
0.002172249888
0.00217217712
0.002172099169
0.002172018052
0.002171935663
0.002171853745
0.002171774142
0.002171700108
0.002171642027
0.002172483013
0.002172455676
0.002172415257
0.002172361523
0.002172295761
0.002172220272
0.002172137824
0.002172051212
0.002171962967
0.002171875217
0.002171789648
0.002171707582
0.002171630295
0.002171560236
0.002171506242
0.002172454768
0.002172403408
0.002172332105
0.002172244042
0.002172144235
0.002172038077
0.002171930385
0.002171824957
0.002171724476
0.002171630634
0.002171544336
0.002171465948
0.002171395682
0.002171334633
0.002171288996
0.002172412413
0.00217232694
0.002172216342
0.002172089617
0.002171956078
0.002171823448
0.002171697242
0.002171580876
0.002171476085
0.002171383383
0.002171302483
0.002171232647
0.002171173045
0.002171123536
0.002171087776
0.002172380697
0.002172272441
0.00217214032
0.002171996465
0.00217185104
0.00217171136
0.002171582062
0.002171465641
0.002171363025
0.002171274081
0.002171198023
0.002171133721
0.002171080008
0.002171036325
0.002171005311
0.002172412414
0.00217232694
0.002172216343
0.002172089618
0.00217195608
0.00217182345
0.002171697244
0.002171580879
0.002171476088
0.002171383386
0.002171302486
0.00217123265
0.002171173049
0.00217112354
0.00217108778
0.002172454769
0.002172403409
0.002172332106
0.002172244044
0.002172144237
0.002172038079
0.002171930388
0.00217182496
0.00217172448
0.002171630638
0.00217154434
0.002171465953
0.002171395687
0.002171334638
0.002171289001
0.002172483013
0.002172455676
0.002172415257
0.002172361524
0.002172295763
0.002172220275
0.002172137827
0.002172051215
0.002171962971
0.002171875222
0.002171789653
0.002171707588
0.002171630301
0.002171560243
0.002171506249
0.002172495643
0.002172479366
0.002172454099
0.002172418479
0.002172372094
0.002172315471
0.00217224989
0.002172177122
0.002172099171
0.002172018055
0.002171935667
0.002171853749
0.002171774147
0.002171700114
0.002171642033
)
;

boundaryField
{
    top
    {
        type            zeroGradient;
    }
    bottom
    {
        type            zeroGradient;
    }
    side-walls
    {
        type            zeroGradient;
    }
    inlet
    {
        type            zeroGradient;
    }
    outlet
    {
        type            zeroGradient;
    }
    procBoundary1to0
    {
        type            processor;
        value           nonuniform List<scalar> 
97
(
0.002172495643
0.002172495643
0.002172483013
0.002172454768
0.002172412413
0.002172380698
0.002172412414
0.002172454769
0.002172483013
0.002172495644
0.002172499202
0.002172454046
0.002172454046
0.002172454046
0.002172379463
0.002172240716
0.002172096214
0.002172240718
0.002172379465
0.002172454047
0.002172483013
0.002172486388
0.002172453291
0.002172149333
0.002172149333
0.002172149333
0.002171591544
0.002170709824
0.002171591556
0.002172149342
0.002172379465
0.002172454769
0.002172467641
0.002172395021
0.002172141409
0.002169367981
0.002169367981
0.002169367981
0.002163147839
0.002169368044
0.002171591554
0.002172240718
0.002172412414
0.002172454278
0.002172340144
0.002171860282
0.002169964084
0.00211218661
0.00211218661
0.00211218661
0.002163147839
0.002163147839
0.002170709824
0.002172096214
0.002172380698
0.002172467641
0.002172395021
0.00217214141
0.002171405424
0.002169964093
0.002171405429
0.00217159154
0.00217159154
0.00217159154
0.002172240716
0.002172412414
0.002172486388
0.002172453291
0.002172356443
0.00217214141
0.00217186029
0.002172141412
0.002172356444
0.002172379463
0.002172379463
0.002172379463
0.002172454768
0.002172499202
0.002172486132
0.002172453291
0.002172395021
0.002172340145
0.002172395022
0.002172453291
0.002172486132
0.002172483013
0.002172483013
0.002172483013
0.00217250501
0.002172499202
0.002172486388
0.002172467641
0.002172454278
0.002172467641
0.002172486388
0.002172499202
0.00217250501
)
;
    }
}


// ************************************************************************* //
