/*--------------------------------*- C++ -*----------------------------------*\
| =========                 |                                                 |
| \\      /  F ield         | OpenFOAM: The Open Source CFD Toolbox           |
|  \\    /   O peration     | Version:  4.x                                   |
|   \\  /    A nd           | Web:      www.OpenFOAM.org                      |
|    \\/     M anipulation  |                                                 |
\*---------------------------------------------------------------------------*/
FoamFile
{
    version     2.0;
    format      ascii;
    class       volScalarField;
    location    "11000";
    object      H2O;
}
// * * * * * * * * * * * * * * * * * * * * * * * * * * * * * * * * * * * * * //

dimensions      [0 0 0 0 0 0 0];

internalField   nonuniform List<scalar> 
1174
(
1.287635999e-06
1.501577836e-06
1.803182822e-06
2.195943909e-06
2.675404779e-06
3.230729422e-06
3.846917104e-06
4.507015744e-06
5.193938449e-06
5.891651327e-06
6.585405118e-06
7.2595726e-06
7.886595464e-06
8.3785255e-06
1.488223074e-06
1.830456818e-06
2.285423502e-06
2.842241333e-06
3.481435517e-06
4.179571904e-06
4.912993476e-06
5.660254031e-06
6.403356087e-06
7.128020801e-06
7.823041824e-06
8.477626109e-06
9.071006404e-06
9.528338949e-06
1.930766084e-06
2.53447029e-06
3.280084655e-06
4.125155266e-06
5.024023289e-06
5.935898448e-06
6.828648152e-06
7.679536994e-06
8.474243049e-06
9.205107111e-06
9.869012128e-06
1.046416932e-05
1.098129618e-05
1.136787941e-05
2.578175845e-06
3.514549939e-06
4.587492634e-06
5.718152005e-06
6.841152235e-06
7.909804966e-06
8.895173192e-06
9.782581345e-06
1.056766753e-05
1.125284955e-05
1.184437473e-05
1.234926431e-05
1.276869823e-05
1.307167039e-05
3.039543273e-06
4.158129421e-06
5.376094514e-06
6.607390718e-06
7.790091879e-06
8.884926201e-06
9.870777296e-06
1.07397858e-05
1.149305614e-05
1.213725345e-05
1.268193865e-05
1.313697578e-05
1.350709552e-05
1.376988217e-05
2.578154823e-06
3.514519657e-06
4.587452232e-06
5.718100676e-06
6.841088599e-06
7.909732309e-06
8.895089036e-06
9.782485954e-06
1.056756261e-05
1.125273447e-05
1.18442516e-05
1.234913443e-05
1.276856217e-05
1.307152733e-05
1.930745376e-06
2.534442199e-06
3.280047414e-06
4.125106208e-06
5.023959158e-06
5.935816356e-06
6.828547295e-06
7.679415077e-06
8.474099691e-06
9.20494382e-06
9.8688299e-06
1.046396968e-05
1.098108118e-05
1.13676498e-05
1.488205824e-06
1.830435568e-06
2.285396151e-06
2.842204857e-06
3.481385514e-06
4.179503998e-06
4.912904624e-06
5.660142883e-06
6.403218606e-06
7.127856665e-06
7.822851418e-06
8.477410017e-06
9.070764122e-06
9.528074038e-06
1.287624228e-06
1.501565467e-06
1.803167193e-06
2.195921849e-06
2.675372361e-06
3.230681871e-06
3.846849856e-06
4.506925284e-06
5.193821294e-06
5.891504952e-06
6.58522686e-06
7.25936133e-06
7.886351588e-06
8.378247267e-06
1.256744276e-06
1.488209465e-06
1.830442548e-06
2.285407965e-06
2.842224365e-06
3.481416841e-06
4.179552502e-06
4.91297263e-06
5.660232568e-06
6.403332746e-06
7.127997826e-06
7.823019229e-06
8.477604183e-06
9.070985933e-06
9.528319595e-06
1.939623138e-06
2.539131465e-06
3.268840274e-06
4.084541212e-06
4.942093966e-06
5.80450276e-06
6.644376288e-06
7.443540326e-06
8.191366919e-06
8.882727364e-06
9.515857291e-06
1.008925688e-05
1.059297091e-05
1.097296048e-05
3.07376957e-06
4.235820903e-06
5.496241299e-06
6.748154613e-06
7.918830973e-06
8.969036596e-06
9.884943171e-06
1.066900934e-05
1.133256513e-05
1.189063729e-05
1.235866367e-05
1.27499525e-05
1.307088171e-05
1.330126837e-05
5.085926708e-06
7.014174359e-06
8.843249911e-06
1.043692477e-05
1.174867241e-05
1.278606246e-05
1.358262112e-05
1.418020342e-05
1.461963894e-05
1.493664853e-05
1.516065704e-05
1.531501516e-05
1.541744953e-05
1.547793195e-05
6.980413917e-06
9.297261505e-06
1.125499346e-05
1.28037958e-05
1.397614573e-05
1.483334876e-05
1.544011202e-05
1.585423903e-05
1.61235568e-05
1.628601735e-05
1.637107882e-05
1.640160261e-05
1.63965764e-05
1.637661519e-05
5.08588024e-06
7.014115953e-06
8.84318111e-06
1.043684446e-05
1.174857499e-05
1.278595164e-05
1.358249736e-05
1.418006742e-05
1.461949182e-05
1.49364934e-05
1.516049401e-05
1.531484591e-05
1.541727518e-05
1.54777532e-05
3.073718845e-06
4.235766073e-06
5.496176339e-06
6.748072384e-06
7.918726951e-06
8.968906783e-06
9.884787152e-06
1.066883052e-05
1.133236195e-05
1.189041496e-05
1.235842169e-05
1.274969617e-05
1.307061126e-05
1.330098183e-05
1.939587071e-06
2.539095972e-06
3.268795854e-06
4.084481947e-06
4.942012523e-06
5.804395169e-06
6.644239764e-06
7.443373739e-06
8.191169478e-06
8.88249983e-06
9.515600694e-06
1.008897473e-05
1.059266155e-05
1.097262879e-05
1.488206595e-06
1.830435036e-06
2.285392612e-06
2.842196383e-06
3.481370481e-06
4.179481906e-06
4.912873767e-06
5.660101732e-06
6.403166748e-06
7.12779508e-06
7.822779869e-06
8.477328329e-06
9.070672121e-06
9.527969173e-06
1.495880182e-06
1.93073199e-06
2.534431432e-06
3.280041627e-06
4.125108806e-06
5.023973457e-06
5.935845796e-06
6.828595614e-06
7.679483259e-06
8.474188e-06
9.205053411e-06
9.868959158e-06
1.046411818e-05
1.098124809e-05
1.136783345e-05
2.133489875e-06
3.073724244e-06
4.235777496e-06
5.496197983e-06
6.748112348e-06
7.918789131e-06
8.968995359e-06
9.884902509e-06
1.066897126e-05
1.133252712e-05
1.18906008e-05
1.235862817e-05
1.274992019e-05
1.307085059e-05
1.330123808e-05
6.418226358e-06
8.862752147e-06
1.107008801e-05
1.287435224e-05
1.424315273e-05
1.521815424e-05
1.587082355e-05
1.627648717e-05
1.650197177e-05
1.66014069e-05
1.661631083e-05
1.657783517e-05
1.651098358e-05
1.644482723e-05
1.384370942e-05
1.795979052e-05
2.078613101e-05
2.244367485e-05
2.321176454e-05
2.336995069e-05
2.314280055e-05
2.269242568e-05
2.212839365e-05
2.152127987e-05
2.091497341e-05
2.033754513e-05
1.981582393e-05
1.941672732e-05
2.354913164e-05
2.762885467e-05
2.936144582e-05
2.964480337e-05
2.911774017e-05
2.818113227e-05
2.707177151e-05
2.592388811e-05
2.481032329e-05
2.376811147e-05
2.281422072e-05
2.195689086e-05
2.121178883e-05
2.065507025e-05
1.384345803e-05
1.795954708e-05
2.078588415e-05
2.244341904e-05
2.321149919e-05
2.336968293e-05
2.314253151e-05
2.269215941e-05
2.212813098e-05
2.152101793e-05
2.091471559e-05
2.033729369e-05
1.981557643e-05
1.941648282e-05
6.418052918e-06
8.862600116e-06
1.106991643e-05
1.287414465e-05
1.424290563e-05
1.521787057e-05
1.587051168e-05
1.627615218e-05
1.650161821e-05
1.660103893e-05
1.661593584e-05
1.657745461e-05
1.651059651e-05
1.644443207e-05
3.073710458e-06
4.235744085e-06
5.496136029e-06
6.748012005e-06
7.918645465e-06
8.968807394e-06
9.884670997e-06
1.066869861e-05
1.13322181e-05
1.189025959e-05
1.235825831e-05
1.274952577e-05
1.307043392e-05
1.3300801e-05
1.93074689e-06
2.53443634e-06
3.280028552e-06
4.125068586e-06
5.023898403e-06
5.935729969e-06
6.828434266e-06
7.679275438e-06
8.473934062e-06
9.204753561e-06
9.868617815e-06
1.046373638e-05
1.098082603e-05
1.136737322e-05
1.854469606e-06
2.578115235e-06
3.514477768e-06
4.587411262e-06
5.718062982e-06
6.841058011e-06
7.909709852e-06
8.895075716e-06
9.782484292e-06
1.056757378e-05
1.125275694e-05
1.184428531e-05
1.234917828e-05
1.276861689e-05
1.307159448e-05
3.308089612e-06
5.085828921e-06
7.014073688e-06
8.843152015e-06
1.043682996e-05
1.174858057e-05
1.278597493e-05
1.358253841e-05
1.418012365e-05
1.461956281e-05
1.493657628e-05
1.516058862e-05
1.531495052e-05
1.541738904e-05
1.547787405e-05
8.80395563e-06
1.384351964e-05
1.795964444e-05
2.078601284e-05
2.244357486e-05
2.321168231e-05
2.3369885e-05
2.314274378e-05
2.269237532e-05
2.212834836e-05
2.152123635e-05
2.091493458e-05
2.03375126e-05
1.981579252e-05
1.9416699e-05
3.926109772e-05
4.440556532e-05
4.521541767e-05
4.368717986e-05
4.112274864e-05
3.825407353e-05
3.545043161e-05
3.287527197e-05
3.058386464e-05
2.857879883e-05
2.684031271e-05
2.534489897e-05
2.408929974e-05
2.317290033e-05
8.904247041e-05
8.244195798e-05
7.238546114e-05
6.27699741e-05
5.461332183e-05
4.796744822e-05
4.261141725e-05
3.828802752e-05
3.477405149e-05
3.189302575e-05
2.951116762e-05
2.75328721e-05
2.591325618e-05
2.475005584e-05
3.926022982e-05
4.440492559e-05
4.521483168e-05
4.368662016e-05
4.11222193e-05
3.825357111e-05
3.54499609e-05
3.287482741e-05
3.058345215e-05
2.857841141e-05
2.683994776e-05
2.534455433e-05
2.408897137e-05
2.317257647e-05
1.384348875e-05
1.79594887e-05
2.078573538e-05
2.244319526e-05
2.321122705e-05
2.336937561e-05
2.314220836e-05
2.269182854e-05
2.212780002e-05
2.152069373e-05
2.091439851e-05
2.033698222e-05
1.981527161e-05
1.941618033e-05
5.085886513e-06
7.014076378e-06
8.843078907e-06
1.043667585e-05
1.174834744e-05
1.278567219e-05
1.358217606e-05
1.417971155e-05
1.461911203e-05
1.493609609e-05
1.516008361e-05
1.531442571e-05
1.541684757e-05
1.547731785e-05
2.578162864e-06
3.514507708e-06
4.587406257e-06
5.718009648e-06
6.840946499e-06
7.909535353e-06
8.894837904e-06
9.782185891e-06
1.056721758e-05
1.125234878e-05
1.18438305e-05
1.234868092e-05
1.276808166e-05
1.307101921e-05
2.122976335e-06
3.039485583e-06
4.158059911e-06
5.376014388e-06
6.607301649e-06
7.789994757e-06
8.884824888e-06
9.870673306e-06
1.073968022e-05
1.149295211e-05
1.213714902e-05
1.268183679e-05
1.313687629e-05
1.350699919e-05
1.376978874e-05
4.531354002e-06
6.98031737e-06
9.297154733e-06
1.125488274e-05
1.280368116e-05
1.397603187e-05
1.483323471e-05
1.543999973e-05
1.585413024e-05
1.612344994e-05
1.628591561e-05
1.637098414e-05
1.640151208e-05
1.639648892e-05
1.637653191e-05
1.626751505e-05
2.354894431e-05
2.762865644e-05
2.93612567e-05
2.964462422e-05
2.911757632e-05
2.818098214e-05
2.707163408e-05
2.592376093e-05
2.481021004e-05
2.376801164e-05
2.28141267e-05
2.195680528e-05
2.121170792e-05
2.065499831e-05
8.027819863e-05
8.904171413e-05
8.24414536e-05
7.238509126e-05
6.276968821e-05
5.461309507e-05
4.796726296e-05
4.261126683e-05
3.828791219e-05
3.477394802e-05
3.189294218e-05
2.951109066e-05
2.753280368e-05
2.591319778e-05
2.475000594e-05
0.0003029558969
0.0001937820951
0.0001334187811
9.812321993e-05
7.628069762e-05
6.200014878e-05
5.217858447e-05
4.511552442e-05
3.984043461e-05
3.57763598e-05
3.256736272e-05
2.999120122e-05
2.793333343e-05
2.647822458e-05
8.904244731e-05
8.244109869e-05
7.238439857e-05
6.276892853e-05
5.461237825e-05
4.796660467e-05
4.261067528e-05
3.828736452e-05
3.477345174e-05
3.189248945e-05
2.951067694e-05
2.753241952e-05
2.591283513e-05
2.47496518e-05
2.354915779e-05
2.76285024e-05
2.936083843e-05
2.964405335e-05
2.911692178e-05
2.818029712e-05
2.70709388e-05
2.592307717e-05
2.480954167e-05
2.376736464e-05
2.281350055e-05
2.195619831e-05
2.121112104e-05
2.065441859e-05
6.980430075e-06
9.297155173e-06
1.125475465e-05
1.280343553e-05
1.397568827e-05
1.483281358e-05
1.543951935e-05
1.585360493e-05
1.61228914e-05
1.628533307e-05
1.63703826e-05
1.640089671e-05
1.639586785e-05
1.637589694e-05
3.039547335e-06
4.158089656e-06
5.375990406e-06
6.607209435e-06
7.789828477e-06
8.884582535e-06
9.87035917e-06
1.073929881e-05
1.149250818e-05
1.213665276e-05
1.268129383e-05
1.313629396e-05
1.350638121e-05
1.376913332e-05
1.854466106e-06
2.578101585e-06
3.514451679e-06
4.58737217e-06
5.718009062e-06
6.840989129e-06
7.909626021e-06
8.894977778e-06
9.782372561e-06
1.056744842e-05
1.125262103e-05
1.184413822e-05
1.234902204e-05
1.27684528e-05
1.307142211e-05
3.308048578e-06
5.085756756e-06
7.013974093e-06
8.843028605e-06
1.043668677e-05
1.174841937e-05
1.278580054e-05
1.358235082e-05
1.417992496e-05
1.461935831e-05
1.493636566e-05
1.516037617e-05
1.531473217e-05
1.541716916e-05
1.547765062e-05
8.803598483e-06
1.384318005e-05
1.795926837e-05
2.078562189e-05
2.244317639e-05
2.321128261e-05
2.336948686e-05
2.314235409e-05
2.269199832e-05
2.212798228e-05
2.152088523e-05
2.091459399e-05
2.033717797e-05
1.981547183e-05
1.941638252e-05
2.762571594e-05
3.925947077e-05
4.44043078e-05
4.521434903e-05
4.368624141e-05
4.112191571e-05
3.825332767e-05
3.544976067e-05
3.287466133e-05
3.058330638e-05
2.857828594e-05
2.683984008e-05
2.53444576e-05
2.4088884e-05
2.317250316e-05
8.027780819e-05
8.904130225e-05
8.244038496e-05
7.238393019e-05
6.276861672e-05
5.461214629e-05
4.796642797e-05
4.261054041e-05
3.828725844e-05
3.477336445e-05
3.189241491e-05
2.951061021e-05
2.753235956e-05
2.591278266e-05
2.47496093e-05
2.762588932e-05
3.925935896e-05
4.440393637e-05
4.521382695e-05
4.368565579e-05
4.112132013e-05
3.825275375e-05
3.544921606e-05
3.287415241e-05
3.058283249e-05
2.857784518e-05
2.683942911e-05
2.534407455e-05
2.408851792e-05
2.317214586e-05
1.384367486e-05
1.79593642e-05
2.078543121e-05
2.244279756e-05
2.321077871e-05
2.336891413e-05
2.314174588e-05
2.26913747e-05
2.212735869e-05
2.152026709e-05
2.09139892e-05
2.033659124e-05
1.981489614e-05
1.941581386e-05
5.08594548e-06
7.014061512e-06
8.842992406e-06
1.043653061e-05
1.1748156e-05
1.278544763e-05
1.358192741e-05
1.417944675e-05
1.461883801e-05
1.493581337e-05
1.515979975e-05
1.531413952e-05
1.541656209e-05
1.547702896e-05
2.578178542e-06
3.5145044e-06
4.587375535e-06
5.717947549e-06
6.840853922e-06
7.909413651e-06
8.894691317e-06
9.78201707e-06
1.056702721e-05
1.125214328e-05
1.184361215e-05
1.234845306e-05
1.276784376e-05
1.307077405e-05
1.495870639e-06
1.930709278e-06
2.534393194e-06
3.279985324e-06
4.125032839e-06
5.02387582e-06
5.935724493e-06
6.828448354e-06
7.679313075e-06
8.473994563e-06
9.204837738e-06
9.868721382e-06
1.046386046e-05
1.098097225e-05
1.13675423e-05
2.133430911e-06
3.073646789e-06
4.235676598e-06
5.496072059e-06
6.747958023e-06
7.91860495e-06
8.968781792e-06
9.884659751e-06
1.066870354e-05
1.133223576e-05
1.189029031e-05
1.235830097e-05
1.274957789e-05
1.307049539e-05
1.330086957e-05
4.081670712e-06
6.417911469e-06
8.862440265e-06
1.106974858e-05
1.287397549e-05
1.424273987e-05
1.521771023e-05
1.587035435e-05
1.627600057e-05
1.650147389e-05
1.66009028e-05
1.661580558e-05
1.657732908e-05
1.651047885e-05
1.644431704e-05
8.803589796e-06
1.384309666e-05
1.795909412e-05
2.07853665e-05
2.244286491e-05
2.321093445e-05
2.336912245e-05
2.314198534e-05
2.269163142e-05
2.212762213e-05
2.152053421e-05
2.091425645e-05
2.033685497e-05
1.981515568e-05
1.941607227e-05
1.626735524e-05
2.35484904e-05
2.762793511e-05
2.936037828e-05
2.964368097e-05
2.91166244e-05
2.818005146e-05
2.707073979e-05
2.592290945e-05
2.480940097e-05
2.376724345e-05
2.281339274e-05
2.195610454e-05
2.1211037e-05
2.065434038e-05
8.803548191e-06
1.384299292e-05
1.795891058e-05
2.078511354e-05
2.244256181e-05
2.321060001e-05
2.33687745e-05
2.314163398e-05
2.269128345e-05
2.21272828e-05
2.152020439e-05
2.091393611e-05
2.033654543e-05
1.981485355e-05
1.941577444e-05
4.0817726e-06
6.417974775e-06
8.862408879e-06
1.106960861e-05
1.287373441e-05
1.424241848e-05
1.521733147e-05
1.586993196e-05
1.627555089e-05
1.650100671e-05
1.660042529e-05
1.661532517e-05
1.657684673e-05
1.650999802e-05
1.64438366e-05
3.073754224e-06
4.2357177e-06
5.496038198e-06
6.747845306e-06
7.918416919e-06
8.96852363e-06
9.884340462e-06
1.066833107e-05
1.133182089e-05
1.188983979e-05
1.235781884e-05
1.274907095e-05
1.306996806e-05
1.330032527e-05
1.930769457e-06
2.534438588e-06
3.279999467e-06
4.125001151e-06
5.023789069e-06
5.935577022e-06
6.828238938e-06
7.679041186e-06
8.473663347e-06
9.204450487e-06
9.868283738e-06
1.04633774e-05
1.09804464e-05
1.136697373e-05
1.256730648e-06
1.488187163e-06
1.830408869e-06
2.285360618e-06
2.842159923e-06
3.481331639e-06
4.179442307e-06
4.912835734e-06
5.660067033e-06
6.40313654e-06
7.127770655e-06
7.82276274e-06
8.477317429e-06
9.070669204e-06
9.527978517e-06
1.501984605e-06
1.939554987e-06
2.539052673e-06
3.268742446e-06
4.084417917e-06
4.941939025e-06
5.804315076e-06
6.644153029e-06
7.443282247e-06
8.191073872e-06
8.882402461e-06
9.515501824e-06
1.008887512e-05
1.059256269e-05
1.097252917e-05
2.133431594e-06
3.073640465e-06
4.235657127e-06
5.496034786e-06
6.747900445e-06
7.918528286e-06
8.968685831e-06
9.884547405e-06
1.06685754e-05
1.133209502e-05
1.189013964e-05
1.235814253e-05
1.274941107e-05
1.307032298e-05
1.330069046e-05
3.308054062e-06
5.085729953e-06
7.013894054e-06
8.842884234e-06
1.04364787e-05
1.17481539e-05
1.278548728e-05
1.358199912e-05
1.417954582e-05
1.461895675e-05
1.493595096e-05
1.5159949e-05
1.531429897e-05
1.54167297e-05
1.547720576e-05
4.531323875e-06
6.980185782e-06
9.296896502e-06
1.125450169e-05
1.280319705e-05
1.397546712e-05
1.483261124e-05
1.543933785e-05
1.585343939e-05
1.612274087e-05
1.628519558e-05
1.637025726e-05
1.640078268e-05
1.639576123e-05
1.637579901e-05
3.308029812e-06
5.08568248e-06
7.013815398e-06
8.842771154e-06
1.043633344e-05
1.174798298e-05
1.278529641e-05
1.35817919e-05
1.417932595e-05
1.461873098e-05
1.493571604e-05
1.515970999e-05
1.531405938e-05
1.541648933e-05
1.547696168e-05
2.133432455e-06
3.073631604e-06
4.235618293e-06
5.495953886e-06
6.747771299e-06
7.918351091e-06
8.9684653e-06
9.884287441e-06
1.066828276e-05
1.133177634e-05
1.188979905e-05
1.235778365e-05
1.274903809e-05
1.306993663e-05
1.330029484e-05
1.502004915e-06
1.939574078e-06
2.539054632e-06
3.268713184e-06
4.08434944e-06
4.941826853e-06
5.804155304e-06
6.643946208e-06
7.443030359e-06
8.19078046e-06
8.882069866e-06
9.515133806e-06
1.008847457e-05
1.059213407e-05
1.097207665e-05
1.488221223e-06
1.830432632e-06
2.285366413e-06
2.842138872e-06
3.481275919e-06
4.17934546e-06
4.912691987e-06
5.659874045e-06
6.402893703e-06
7.127477973e-06
7.822420199e-06
8.476929083e-06
9.070237184e-06
9.527501644e-06
1.149786038e-06
1.287611581e-06
1.501546782e-06
1.803141388e-06
2.195887779e-06
2.675329822e-06
3.230630944e-06
3.84679117e-06
4.506859521e-06
5.193748109e-06
5.891425131e-06
6.585142417e-06
7.259272914e-06
7.886259611e-06
8.37815309e-06
1.256731206e-06
1.488187053e-06
1.830406958e-06
2.285355359e-06
2.842149829e-06
3.481314926e-06
4.179417701e-06
4.912802164e-06
5.660023567e-06
6.4030836e-06
7.12770765e-06
7.822688995e-06
8.477234215e-06
9.070576145e-06
9.52787163e-06
1.495873676e-06
1.930709321e-06
2.534385324e-06
3.279964054e-06
4.124992176e-06
5.023811715e-06
5.935635058e-06
6.828332921e-06
7.67917062e-06
8.473826347e-06
9.204644876e-06
9.868507715e-06
1.046362813e-05
1.098071979e-05
1.136726634e-05
1.854470188e-06
2.578092805e-06
3.514416521e-06
4.587298375e-06
5.717888573e-06
6.840816888e-06
7.909401664e-06
8.894703851e-06
9.78205139e-06
1.056708402e-05
1.125221904e-05
1.184370471e-05
1.234856065e-05
1.276796611e-05
1.30709064e-05
2.122970774e-06
3.039446945e-06
4.157966579e-06
5.375852639e-06
6.60706252e-06
7.789678402e-06
8.884433905e-06
9.870214424e-06
1.073915945e-05
1.149237532e-05
1.213652745e-05
1.268117507e-05
1.313618179e-05
1.350627569e-05
1.376903241e-05
1.854461623e-06
2.578075534e-06
3.514386723e-06
4.587250849e-06
5.717821403e-06
6.840729265e-06
7.909293918e-06
8.894576341e-06
9.781907468e-06
1.056692482e-05
1.125204777e-05
1.184352241e-05
1.234837089e-05
1.276776673e-05
1.307069932e-05
1.495869106e-06
1.930699064e-06
2.534361917e-06
3.279920196e-06
4.124922165e-06
5.023711086e-06
5.935501666e-06
6.8281666e-06
7.678971407e-06
8.473597695e-06
9.204388216e-06
9.868226813e-06
1.046332366e-05
1.098039631e-05
1.136692625e-05
1.256731982e-06
1.488186817e-06
1.830399302e-06
2.285332451e-06
2.842104303e-06
3.481240274e-06
4.179309246e-06
4.912656197e-06
5.659837842e-06
6.402858321e-06
7.127443874e-06
7.822387753e-06
8.476897976e-06
9.070207503e-06
9.527474543e-06
1.149792387e-06
1.287620178e-06
1.501552568e-06
1.803137985e-06
2.1958681e-06
2.675286521e-06
3.230557089e-06
3.846680422e-06
4.506706997e-06
5.193551226e-06
5.891181533e-06
6.584850468e-06
7.258934315e-06
7.885874295e-06
8.377724106e-06
)
;

boundaryField
{
    top
    {
        type            zeroGradient;
    }
    bottom
    {
        type            zeroGradient;
    }
    side-walls
    {
        type            zeroGradient;
    }
    inlet
    {
        type            zeroGradient;
    }
    outlet
    {
        type            zeroGradient;
    }
    procBoundary1to0
    {
        type            processor;
        value           nonuniform List<scalar> 
97
(
1.14979323e-06
1.14979323e-06
1.256732808e-06
1.49586382e-06
1.854440302e-06
2.122919453e-06
1.854424691e-06
1.495847783e-06
1.256717951e-06
1.149778998e-06
1.119643275e-06
1.502009612e-06
1.502009612e-06
1.502009612e-06
2.133428566e-06
3.307977135e-06
4.531129961e-06
3.307932377e-06
2.133374443e-06
1.501957579e-06
1.256718218e-06
1.228140532e-06
1.508353882e-06
4.081781804e-06
4.081781804e-06
4.081781804e-06
8.803426896e-06
1.626632962e-05
8.803122899e-06
4.081486145e-06
2.133369816e-06
1.495848534e-06
1.386866646e-06
2.001675687e-06
4.148626579e-06
2.762604793e-05
2.762604793e-05
2.762604793e-05
8.027067061e-05
2.762399971e-05
8.803154074e-06
3.307938428e-06
1.85443032e-06
1.500000935e-06
2.466246834e-06
6.528429229e-06
2.257901154e-05
0.0005115825456
0.0005115825456
0.0005115825456
8.027099872e-05
8.027099872e-05
1.626640523e-05
4.531151351e-06
2.122924283e-06
1.386869089e-06
2.001683286e-06
4.148695301e-06
1.037898076e-05
2.257923888e-05
1.037873782e-05
8.803810849e-06
8.803810849e-06
8.803810849e-06
3.308032421e-06
1.854448183e-06
1.228142395e-06
1.508365351e-06
2.328294685e-06
4.148698039e-06
6.528405079e-06
4.148642123e-06
2.328263326e-06
2.133477409e-06
2.133477409e-06
2.133477409e-06
1.495874576e-06
1.119645373e-06
1.230311647e-06
1.508365902e-06
2.00168848e-06
2.466241211e-06
2.001671563e-06
1.508355835e-06
1.230306804e-06
1.256744045e-06
1.256744045e-06
1.256744045e-06
1.070468372e-06
1.1196456e-06
1.228143883e-06
1.386871975e-06
1.50000013e-06
1.386866794e-06
1.228139841e-06
1.11964339e-06
1.070467702e-06
)
;
    }
}


// ************************************************************************* //
