/*--------------------------------*- C++ -*----------------------------------*\
| =========                 |                                                 |
| \\      /  F ield         | OpenFOAM: The Open Source CFD Toolbox           |
|  \\    /   O peration     | Version:  4.x                                   |
|   \\  /    A nd           | Web:      www.OpenFOAM.org                      |
|    \\/     M anipulation  |                                                 |
\*---------------------------------------------------------------------------*/
FoamFile
{
    version     2.0;
    format      ascii;
    class       volScalarField;
    location    "11000";
    object      N2;
}
// * * * * * * * * * * * * * * * * * * * * * * * * * * * * * * * * * * * * * //

dimensions      [0 0 0 0 0 0 0];

internalField   nonuniform List<scalar> 
1174
(
0.6030934275
0.6030930713
0.6030925693
0.6030919155
0.6030911174
0.6030901929
0.6030891672
0.6030880683
0.6030869247
0.6030857632
0.6030846082
0.6030834859
0.6030824419
0.6030816229
0.6030930936
0.6030925239
0.6030917666
0.6030908397
0.6030897757
0.6030886135
0.6030873926
0.6030861486
0.6030849116
0.6030837051
0.603082548
0.6030814582
0.6030804703
0.6030797089
0.603092357
0.6030913521
0.603090111
0.6030887042
0.603087208
0.60308569
0.6030842038
0.6030827873
0.6030814643
0.6030802475
0.6030791422
0.6030781513
0.6030772903
0.6030766466
0.6030912794
0.6030897207
0.6030879347
0.6030860526
0.6030841832
0.6030824043
0.6030807639
0.6030792866
0.6030779795
0.6030768388
0.6030758539
0.6030750132
0.6030743148
0.6030738103
0.6030905114
0.6030886495
0.6030866221
0.6030845724
0.6030826036
0.6030807811
0.6030791399
0.6030776932
0.6030764391
0.6030753665
0.6030744596
0.6030737019
0.6030730856
0.6030726479
0.6030912794
0.6030897208
0.6030879348
0.6030860527
0.6030841833
0.6030824043
0.603080764
0.6030792867
0.6030779796
0.6030768389
0.603075854
0.6030750134
0.6030743149
0.6030738104
0.603092357
0.6030913521
0.603090111
0.6030887043
0.603087208
0.6030856901
0.6030842039
0.6030827874
0.6030814644
0.6030802477
0.6030791424
0.6030781515
0.6030772905
0.6030766468
0.6030930936
0.603092524
0.6030917666
0.6030908398
0.6030897757
0.6030886136
0.6030873927
0.6030861487
0.6030849117
0.6030837053
0.6030825482
0.6030814584
0.6030804705
0.6030797091
0.6030934275
0.6030930714
0.6030925693
0.6030919155
0.6030911174
0.603090193
0.6030891672
0.6030880684
0.6030869248
0.6030857633
0.6030846084
0.603083486
0.6030824421
0.6030816231
0.6030934789
0.6030930936
0.6030925239
0.6030917666
0.6030908397
0.6030897757
0.6030886136
0.6030873926
0.6030861487
0.6030849116
0.6030837052
0.6030825481
0.6030814583
0.6030804703
0.6030797089
0.6030923423
0.6030913444
0.6030901297
0.6030887719
0.6030873444
0.6030859087
0.6030845106
0.6030831802
0.6030819352
0.6030807842
0.6030797302
0.6030787755
0.6030779368
0.6030773041
0.6030904545
0.6030885202
0.6030864221
0.6030843382
0.6030823894
0.6030806411
0.6030791164
0.6030778111
0.6030767064
0.6030757772
0.6030749979
0.6030743463
0.6030738119
0.6030734282
0.6030871053
0.6030838956
0.6030808509
0.603078198
0.6030760144
0.6030742874
0.6030729613
0.6030719663
0.6030712346
0.6030707067
0.6030703335
0.6030700763
0.6030699056
0.6030698047
0.6030839519
0.6030800953
0.6030768365
0.6030742582
0.6030723066
0.6030708795
0.6030698693
0.6030691797
0.6030687311
0.6030684604
0.6030683185
0.6030682675
0.6030682756
0.6030683086
0.6030871054
0.6030838957
0.603080851
0.6030781981
0.6030760145
0.6030742875
0.6030729614
0.6030719664
0.6030712347
0.6030707068
0.6030703337
0.6030700765
0.6030699057
0.6030698048
0.6030904546
0.6030885203
0.6030864222
0.6030843383
0.6030823895
0.6030806413
0.6030791165
0.6030778112
0.6030767065
0.6030757774
0.6030749981
0.6030743465
0.6030738121
0.6030734284
0.6030923423
0.6030913444
0.6030901297
0.6030887719
0.6030873444
0.6030859088
0.6030845107
0.6030831803
0.6030819354
0.6030807844
0.6030797304
0.6030787757
0.603077937
0.6030773043
0.6030930936
0.603092524
0.6030917666
0.6030908398
0.6030897758
0.6030886136
0.6030873927
0.6030861488
0.6030849117
0.6030837053
0.6030825483
0.6030814585
0.6030804706
0.6030797092
0.6030930809
0.603092357
0.6030913521
0.603090111
0.6030887043
0.603087208
0.60308569
0.6030842039
0.6030827874
0.6030814644
0.6030802476
0.6030791423
0.6030781514
0.6030772904
0.6030766467
0.6030920196
0.6030904546
0.6030885203
0.6030864222
0.6030843382
0.6030823895
0.6030806412
0.6030791164
0.6030778111
0.6030767064
0.6030757772
0.6030749979
0.6030743464
0.6030738119
0.6030734282
0.6030848878
0.6030808187
0.6030771443
0.6030741408
0.6030718622
0.603070239
0.6030691524
0.6030684769
0.6030681013
0.6030679355
0.6030679104
0.6030679742
0.6030680852
0.6030681951
0.6030725281
0.6030656765
0.6030609716
0.6030582123
0.6030569334
0.6030566697
0.6030570475
0.6030577968
0.6030587354
0.6030597457
0.6030607546
0.6030617155
0.6030625837
0.6030632478
0.6030563731
0.6030495819
0.6030466976
0.6030462255
0.6030471024
0.603048661
0.6030505073
0.6030524176
0.6030542709
0.6030560054
0.6030575929
0.6030590197
0.6030602597
0.6030611862
0.6030725284
0.6030656767
0.6030609719
0.6030582125
0.6030569336
0.60305667
0.6030570477
0.603057797
0.6030587356
0.6030597459
0.6030607548
0.6030617157
0.6030625839
0.603063248
0.603084888
0.6030808188
0.6030771445
0.603074141
0.6030718624
0.6030702393
0.6030691526
0.6030684771
0.6030681015
0.6030679358
0.6030679107
0.6030679745
0.6030680855
0.6030681954
0.6030904546
0.6030885203
0.6030864222
0.6030843383
0.6030823896
0.6030806413
0.6030791166
0.6030778113
0.6030767066
0.6030757775
0.6030749982
0.6030743467
0.6030738122
0.6030734285
0.603092357
0.6030913521
0.603090111
0.6030887043
0.6030872081
0.6030856901
0.603084204
0.6030827875
0.6030814646
0.6030802478
0.6030791425
0.6030781517
0.6030772907
0.603076647
0.603092484
0.6030912795
0.6030897208
0.6030879348
0.6030860527
0.6030841833
0.6030824044
0.603080764
0.6030792867
0.6030779796
0.6030768389
0.603075854
0.6030750133
0.6030743149
0.6030738104
0.6030900645
0.6030871054
0.6030838957
0.603080851
0.6030781981
0.6030760145
0.6030742875
0.6030729614
0.6030719664
0.6030712347
0.6030707067
0.6030703336
0.6030700764
0.6030699056
0.6030698047
0.603080917
0.6030725282
0.6030656766
0.6030609717
0.6030582123
0.6030569335
0.6030566698
0.6030570475
0.6030577969
0.6030587354
0.6030597457
0.6030607546
0.6030617155
0.6030625837
0.6030632478
0.6030302209
0.6030216569
0.6030203081
0.6030228513
0.6030271193
0.6030318938
0.6030365602
0.6030408463
0.6030446601
0.6030479973
0.6030508909
0.6030533798
0.6030554696
0.6030569948
0.602947358
0.6029583436
0.6029750821
0.6029910866
0.6030046631
0.6030157249
0.6030246398
0.6030318359
0.6030376848
0.6030424802
0.6030464447
0.6030497374
0.6030524331
0.6030543692
0.6030302219
0.6030216576
0.6030203087
0.6030228518
0.6030271197
0.6030318942
0.6030365605
0.6030408466
0.6030446604
0.6030479976
0.6030508911
0.6030533801
0.6030554698
0.603056995
0.6030725283
0.6030656768
0.603060972
0.6030582127
0.6030569338
0.6030566702
0.603057048
0.6030577973
0.6030587358
0.6030597461
0.603060755
0.6030617159
0.6030625841
0.6030632482
0.6030871054
0.6030838957
0.6030808511
0.6030781983
0.6030760147
0.6030742877
0.6030729616
0.6030719667
0.603071235
0.6030707071
0.603070334
0.6030700768
0.603069906
0.6030698051
0.6030912794
0.6030897208
0.6030879348
0.6030860528
0.6030841834
0.6030824045
0.6030807642
0.6030792869
0.6030779799
0.6030768392
0.6030758543
0.6030750137
0.6030743153
0.6030738108
0.6030920371
0.6030905115
0.6030886495
0.6030866221
0.6030845725
0.6030826037
0.6030807812
0.60307914
0.6030776933
0.6030764392
0.6030753666
0.6030744597
0.603073702
0.6030730857
0.603072648
0.6030880284
0.6030839519
0.6030800954
0.6030768365
0.6030742583
0.6030723067
0.6030708796
0.6030698694
0.6030691798
0.6030687312
0.6030684605
0.6030683186
0.6030682675
0.6030682756
0.6030683086
0.6030684935
0.6030563731
0.603049582
0.6030466977
0.6030462256
0.6030471025
0.6030486612
0.6030505074
0.6030524177
0.603054271
0.6030560055
0.603057593
0.6030590198
0.6030602598
0.6030611863
0.6029619472
0.6029473585
0.602958344
0.6029750824
0.6029910869
0.6030046633
0.6030157251
0.60302464
0.6030318361
0.6030376849
0.6030424803
0.6030464447
0.6030497375
0.6030524332
0.6030543692
0.602591294
0.6027730134
0.6028734884
0.6029322383
0.6029685955
0.6029923657
0.6030087139
0.6030204704
0.6030292508
0.6030360155
0.6030413569
0.6030456449
0.6030490701
0.6030514921
0.6029473581
0.6029583445
0.602975083
0.6029910875
0.6030046638
0.6030157255
0.6030246404
0.6030318364
0.6030376853
0.6030424806
0.603046445
0.6030497377
0.6030524334
0.6030543694
0.6030563731
0.6030495822
0.6030466981
0.6030462261
0.6030471031
0.6030486617
0.6030505079
0.6030524182
0.6030542715
0.603056006
0.6030575935
0.6030590202
0.6030602602
0.6030611867
0.6030839519
0.6030800954
0.6030768367
0.6030742585
0.603072307
0.6030708799
0.6030698697
0.6030691802
0.6030687316
0.6030684609
0.6030683191
0.603068268
0.6030682761
0.6030683091
0.6030905115
0.6030886495
0.6030866222
0.6030845726
0.6030826039
0.6030807813
0.6030791402
0.6030776935
0.6030764395
0.603075367
0.6030744601
0.6030737024
0.6030730861
0.6030726485
0.603092484
0.6030912795
0.6030897208
0.6030879349
0.6030860528
0.6030841834
0.6030824044
0.6030807641
0.6030792868
0.6030779797
0.603076839
0.6030758541
0.6030750135
0.603074315
0.6030738105
0.6030900646
0.6030871055
0.6030838958
0.6030808511
0.6030781983
0.6030760146
0.6030742876
0.6030729615
0.6030719666
0.6030712348
0.6030707069
0.6030703338
0.6030700766
0.6030699058
0.6030698049
0.6030809173
0.6030725286
0.603065677
0.6030609721
0.6030582127
0.6030569338
0.6030566701
0.6030570479
0.6030577972
0.6030587357
0.603059746
0.6030607549
0.6030617158
0.603062584
0.603063248
0.6030495877
0.6030302224
0.6030216581
0.6030203091
0.6030228521
0.60302712
0.6030318944
0.6030365607
0.6030408467
0.6030446605
0.6030479977
0.6030508912
0.6030533801
0.6030554699
0.6030569951
0.6029619477
0.602947359
0.6029583451
0.6029750834
0.6029910877
0.603004664
0.6030157257
0.6030246405
0.6030318365
0.6030376853
0.6030424806
0.6030464451
0.6030497378
0.6030524335
0.6030543695
0.6030495876
0.6030302226
0.6030216584
0.6030203095
0.6030228526
0.6030271204
0.6030318948
0.6030365611
0.6030408471
0.6030446609
0.603047998
0.6030508915
0.6030533804
0.6030554702
0.6030569953
0.6030725282
0.6030656769
0.6030609722
0.603058213
0.6030569342
0.6030566705
0.6030570483
0.6030577976
0.6030587362
0.6030597464
0.6030607553
0.6030617162
0.6030625844
0.6030632484
0.6030871053
0.6030838957
0.6030808512
0.6030781984
0.6030760148
0.6030742879
0.6030729618
0.6030719669
0.6030712352
0.6030707073
0.6030703342
0.603070077
0.6030699062
0.6030698053
0.6030912794
0.6030897208
0.6030879349
0.6030860528
0.6030841835
0.6030824046
0.6030807643
0.603079287
0.60307798
0.6030768393
0.6030758545
0.6030750139
0.6030743155
0.603073811
0.6030930809
0.6030923571
0.6030913522
0.6030901111
0.6030887044
0.6030872081
0.6030856902
0.603084204
0.6030827875
0.6030814645
0.6030802478
0.6030791425
0.6030781516
0.6030772906
0.6030766469
0.6030920197
0.6030904546
0.6030885203
0.6030864223
0.6030843383
0.6030823896
0.6030806414
0.6030791166
0.6030778113
0.6030767066
0.6030757775
0.6030749982
0.6030743466
0.6030738122
0.6030734285
0.6030887769
0.6030848881
0.6030808189
0.6030771446
0.6030741412
0.6030718625
0.6030702394
0.6030691527
0.6030684772
0.6030681017
0.6030679359
0.6030679108
0.6030679746
0.6030680856
0.6030681955
0.6030809173
0.6030725287
0.6030656771
0.6030609723
0.603058213
0.6030569341
0.6030566704
0.6030570481
0.6030577975
0.603058736
0.6030597462
0.6030607552
0.603061716
0.6030625842
0.6030632483
0.6030684938
0.6030563736
0.6030495827
0.6030466985
0.6030462264
0.6030471033
0.6030486619
0.6030505081
0.6030524184
0.6030542716
0.6030560061
0.6030575935
0.6030590203
0.6030602603
0.6030611867
0.6030809174
0.6030725288
0.6030656773
0.6030609725
0.6030582132
0.6030569343
0.6030566707
0.6030570484
0.6030577977
0.6030587362
0.6030597465
0.6030607554
0.6030617162
0.6030625844
0.6030632485
0.6030887768
0.603084888
0.603080819
0.6030771447
0.6030741414
0.6030718628
0.6030702397
0.6030691531
0.6030684776
0.603068102
0.6030679362
0.6030679112
0.6030679749
0.603068086
0.6030681959
0.6030904546
0.6030885203
0.6030864223
0.6030843384
0.6030823898
0.6030806416
0.6030791169
0.6030778116
0.6030767069
0.6030757778
0.6030749985
0.603074347
0.6030738126
0.6030734289
0.603092357
0.6030913521
0.603090111
0.6030887044
0.6030872082
0.6030856903
0.6030842042
0.6030827877
0.6030814648
0.6030802481
0.6030791428
0.6030781519
0.603077291
0.6030766473
0.6030934789
0.6030930936
0.603092524
0.6030917667
0.6030908398
0.6030897758
0.6030886136
0.6030873927
0.6030861488
0.6030849117
0.6030837053
0.6030825483
0.6030814585
0.6030804706
0.6030797092
0.6030930707
0.6030923423
0.6030913444
0.6030901298
0.603088772
0.6030873445
0.6030859089
0.6030845108
0.6030831804
0.6030819355
0.6030807845
0.6030797304
0.6030787758
0.6030779371
0.6030773044
0.6030920197
0.6030904546
0.6030885204
0.6030864223
0.6030843384
0.6030823897
0.6030806414
0.6030791167
0.6030778114
0.6030767067
0.6030757776
0.6030749983
0.6030743468
0.6030738123
0.6030734286
0.6030900646
0.6030871055
0.6030838958
0.6030808512
0.6030781984
0.6030760148
0.6030742879
0.6030729618
0.6030719668
0.6030712351
0.6030707072
0.6030703341
0.6030700769
0.6030699061
0.6030698052
0.6030880284
0.6030839521
0.6030800956
0.6030768369
0.6030742587
0.6030723071
0.6030708801
0.6030698699
0.6030691803
0.6030687317
0.603068461
0.6030683192
0.6030682681
0.6030682762
0.6030683092
0.6030900646
0.6030871055
0.6030838959
0.6030808513
0.6030781985
0.603076015
0.603074288
0.6030729619
0.603071967
0.6030712353
0.6030707074
0.6030703343
0.6030700771
0.6030699063
0.6030698054
0.6030920197
0.6030904547
0.6030885204
0.6030864224
0.6030843385
0.6030823898
0.6030806416
0.6030791169
0.6030778117
0.603076707
0.6030757778
0.6030749986
0.603074347
0.6030738126
0.6030734289
0.6030930707
0.6030923423
0.6030913444
0.6030901298
0.603088772
0.6030873446
0.603085909
0.6030845109
0.6030831806
0.6030819357
0.6030807847
0.6030797307
0.6030787761
0.6030779374
0.6030773048
0.6030930936
0.603092524
0.6030917667
0.6030908398
0.6030897758
0.6030886137
0.6030873929
0.6030861489
0.6030849119
0.6030837056
0.6030825485
0.6030814588
0.6030804709
0.6030797095
0.6030936569
0.6030934275
0.6030930714
0.6030925693
0.6030919155
0.6030911174
0.603090193
0.6030891673
0.6030880684
0.6030869249
0.6030857634
0.6030846085
0.6030834861
0.6030824422
0.6030816232
0.6030934789
0.6030930936
0.603092524
0.6030917667
0.6030908398
0.6030897758
0.6030886137
0.6030873928
0.6030861488
0.6030849118
0.6030837054
0.6030825483
0.6030814586
0.6030804707
0.6030797092
0.6030930809
0.6030923571
0.6030913522
0.6030901111
0.6030887044
0.6030872081
0.6030856902
0.6030842041
0.6030827876
0.6030814646
0.6030802479
0.6030791426
0.6030781517
0.6030772908
0.6030766471
0.603092484
0.6030912795
0.6030897209
0.6030879349
0.6030860528
0.6030841835
0.6030824046
0.6030807643
0.603079287
0.60307798
0.6030768393
0.6030758544
0.6030750138
0.6030743154
0.6030738109
0.6030920371
0.6030905115
0.6030886496
0.6030866223
0.6030845727
0.603082604
0.6030807815
0.6030791403
0.6030776937
0.6030764396
0.6030753671
0.6030744602
0.6030737025
0.6030730862
0.6030726486
0.603092484
0.6030912795
0.6030897209
0.6030879349
0.6030860529
0.6030841836
0.6030824047
0.6030807644
0.6030792871
0.6030779801
0.6030768394
0.6030758546
0.6030750139
0.6030743155
0.603073811
0.6030930809
0.6030923571
0.6030913522
0.6030901111
0.6030887044
0.6030872082
0.6030856903
0.6030842042
0.6030827878
0.6030814648
0.6030802481
0.6030791428
0.603078152
0.603077291
0.6030766473
0.6030934789
0.6030930936
0.603092524
0.6030917667
0.6030908398
0.6030897759
0.6030886138
0.6030873929
0.603086149
0.603084912
0.6030837056
0.6030825486
0.6030814588
0.6030804709
0.6030797095
0.6030936569
0.6030934275
0.6030930714
0.6030925693
0.6030919156
0.6030911175
0.6030901931
0.6030891674
0.6030880685
0.603086925
0.6030857636
0.6030846087
0.6030834863
0.6030824425
0.6030816235
)
;

boundaryField
{
    top
    {
        type            zeroGradient;
    }
    bottom
    {
        type            zeroGradient;
    }
    side-walls
    {
        type            zeroGradient;
    }
    inlet
    {
        type            zeroGradient;
    }
    outlet
    {
        type            zeroGradient;
    }
    procBoundary1to0
    {
        type            processor;
        value           nonuniform List<scalar> 
97
(
0.6030936569
0.6030936569
0.6030934789
0.6030930809
0.603092484
0.6030920371
0.603092484
0.6030930809
0.6030934789
0.6030936569
0.6030937071
0.6030930707
0.6030930707
0.6030930707
0.6030920197
0.6030900646
0.6030880285
0.6030900646
0.6030920197
0.6030930707
0.6030934789
0.6030935265
0.6030930601
0.6030887768
0.6030887768
0.6030887768
0.6030809174
0.6030684944
0.6030809177
0.6030887771
0.6030920197
0.6030930809
0.6030932623
0.603092239
0.6030886654
0.6030495871
0.6030495871
0.6030495871
0.6029619524
0.6030495889
0.6030809176
0.6030900646
0.603092484
0.603093074
0.6030914657
0.6030847042
0.6030579873
0.6022439784
0.6022439784
0.6022439784
0.6029619522
0.6029619522
0.6030684944
0.6030880285
0.6030920371
0.6030932623
0.603092239
0.6030886653
0.6030782951
0.6030579872
0.6030782953
0.6030809171
0.6030809171
0.6030809171
0.6030900646
0.603092484
0.6030935265
0.6030930601
0.6030916953
0.6030886653
0.6030847043
0.6030886654
0.6030916954
0.6030920196
0.6030920196
0.6030920196
0.6030930809
0.6030937071
0.6030935229
0.6030930601
0.603092239
0.6030914657
0.603092239
0.6030930601
0.6030935229
0.6030934789
0.6030934789
0.6030934789
0.6030937889
0.6030937071
0.6030935265
0.6030932623
0.603093074
0.6030932623
0.6030935265
0.6030937071
0.6030937889
)
;
    }
}


// ************************************************************************* //
