/*--------------------------------*- C++ -*----------------------------------*\
| =========                 |                                                 |
| \\      /  F ield         | OpenFOAM: The Open Source CFD Toolbox           |
|  \\    /   O peration     | Version:  4.x                                   |
|   \\  /    A nd           | Web:      www.OpenFOAM.org                      |
|    \\/     M anipulation  |                                                 |
\*---------------------------------------------------------------------------*/
FoamFile
{
    version     2.0;
    format      ascii;
    class       surfaceScalarField;
    location    "11000";
    object      phi;
}
// * * * * * * * * * * * * * * * * * * * * * * * * * * * * * * * * * * * * * //

dimensions      [1 0 -1 0 0 0 0];

internalField   nonuniform List<scalar> 
3172
(
9.42838566e-06
-5.959576318e-12
-6.307895062e-12
9.42839849e-06
-6.06459988e-12
-6.122576282e-12
9.42840365e-06
-3.196150481e-12
-4.306193746e-12
9.428405304e-06
-1.942094646e-12
-3.077771911e-12
9.428403347e-06
-9.223947446e-13
-2.36719408e-12
9.428405052e-06
1.081953864e-12
1.014954138e-12
9.428400704e-06
4.916720863e-13
6.575088971e-13
9.428399107e-06
2.022951171e-12
1.844684666e-12
9.42839675e-06
3.845223783e-12
2.582345153e-12
9.428388858e-06
1.79890039e-12
2.41336354e-12
9.428385299e-06
3.977153027e-12
4.874428397e-12
9.428379015e-06
3.193583471e-12
3.528772468e-12
9.42837614e-06
2.08610218e-12
2.904770729e-12
1.402396823e-12
2.566942453e-12
9.42837762e-06
-8.05406164e-12
-3.801311701e-12
9.428387074e-06
-8.209529119e-12
-6.351447627e-12
9.428391179e-06
-4.227736244e-12
-4.443965057e-12
9.428391689e-06
-1.944685589e-12
-2.480836033e-12
9.42838873e-06
2.883662031e-13
-1.090389051e-12
9.428384044e-06
2.857387386e-12
1.048316676e-12
9.428380812e-06
3.700697138e-12
2.578155714e-12
9.428375467e-06
3.996111595e-12
2.32599798e-12
9.428369073e-06
2.890376777e-12
1.891287691e-12
9.428365751e-06
3.724324716e-12
1.676397423e-12
9.428362227e-06
5.028134841e-12
2.618213659e-12
9.428352987e-06
2.772826026e-12
2.212481012e-12
9.428351094e-06
5.207121406e-12
3.704047944e-12
4.230425092e-12
2.795786332e-12
9.428427494e-06
-3.071052332e-12
-6.035252211e-12
9.428432435e-06
-6.014922619e-12
-9.256272521e-12
9.428429967e-06
-2.527680588e-12
-1.80322868e-13
9.428424102e-06
1.330094436e-13
3.382177279e-12
9.428416424e-06
2.162145645e-12
5.466766957e-12
9.428408352e-06
3.38084798e-12
5.060394979e-12
9.428401897e-06
2.830054084e-12
6.265244771e-12
9.428394077e-06
2.650819705e-12
4.972850808e-12
9.428389556e-06
4.967550662e-12
5.386742385e-12
9.428385389e-06
3.645780051e-12
3.826597296e-12
9.428378019e-06
5.434246615e-12
3.870020241e-12
9.42837389e-06
5.220124675e-12
4.427507006e-12
9.428371108e-06
4.769933125e-12
4.629256718e-12
3.383504702e-12
3.334193397e-12
9.428357513e-06
4.53551344e-12
1.267351924e-11
9.428361034e-06
4.000069711e-12
-1.114338091e-11
9.42835793e-06
6.947371822e-12
1.648427911e-12
9.428347946e-06
5.60881312e-12
6.908426837e-12
9.428335907e-06
3.144928572e-12
7.306517841e-12
9.428325589e-06
3.041798259e-12
7.887583247e-12
9.428317925e-06
2.630982655e-12
8.927558979e-12
9.428310337e-06
2.83285006e-12
7.325871974e-12
9.428302535e-06
1.04123498e-12
5.952344854e-12
9.428301744e-06
1.838647214e-12
6.922936095e-12
9.428293886e-06
-1.179371624e-13
4.274548914e-12
9.428291205e-06
2.042498479e-12
5.816894872e-12
9.428289188e-06
3.1350459e-12
6.092443046e-12
3.856540614e-12
5.252335643e-12
9.42844307e-06
-3.509006951e-12
5.97162286e-11
9.428421781e-06
-3.640238079e-12
2.604141504e-11
9.428403468e-06
-6.401063954e-12
2.770839374e-11
9.428391237e-06
-5.071483458e-12
2.693238418e-11
9.428377242e-06
-5.936776877e-12
1.902376994e-11
9.428366849e-06
-3.677883587e-12
1.375227691e-11
9.428361031e-06
-1.335988095e-12
1.146338359e-11
9.428354333e-06
-2.372955301e-12
7.70399538e-12
9.428351028e-06
-2.002906705e-12
7.130412336e-12
9.428349316e-06
-1.210141598e-12
7.902732455e-12
9.428347381e-06
-8.408188165e-13
5.92145224e-12
9.428343862e-06
-6.724317329e-13
4.816950466e-12
9.428340276e-06
-1.182945804e-12
3.541643884e-12
-3.915085611e-13
2.286002231e-12
9.428472415e-06
1.091299763e-12
1.303175869e-11
9.428474533e-06
2.060066389e-12
-1.20428827e-11
9.428472359e-06
-1.222048211e-12
1.014192812e-12
9.428463245e-06
-1.670173251e-12
7.394989222e-12
9.428453515e-06
-1.68965058e-12
7.584997315e-12
9.428444298e-06
-1.825026062e-12
7.169550145e-12
9.428434106e-06
-2.729184747e-12
7.783665668e-12
9.428428592e-06
-2.68666962e-12
8.443533738e-12
9.428422348e-06
-3.172080804e-12
7.494402829e-12
9.428417539e-06
-3.288440305e-12
7.694629934e-12
9.428415509e-06
-4.144511622e-12
6.449621439e-12
9.428410218e-06
-3.139898097e-12
5.194153407e-12
9.428409162e-06
-4.080626659e-12
3.734163363e-12
-3.591588958e-12
3.911310938e-12
9.428458581e-06
8.472993542e-12
-4.631238911e-12
9.428465633e-06
8.622657923e-12
-5.949172233e-12
9.428463289e-06
3.672875695e-12
2.390188607e-12
9.428457437e-06
5.214960016e-13
5.158931205e-12
9.428450042e-06
-3.037237614e-13
4.532337583e-12
9.428442417e-06
-2.318712433e-12
5.348081858e-12
9.428432621e-06
-4.795075091e-12
5.551029947e-12
9.428428847e-06
-4.702726348e-12
6.247298977e-12
9.428423e-06
-4.251716524e-12
5.053183104e-12
9.428417315e-06
-3.445934522e-12
6.906408405e-12
9.428415921e-06
-3.986445726e-12
6.859483884e-12
9.428410187e-06
-4.013464352e-12
4.006065296e-12
9.428408789e-06
-4.152161944e-12
4.921738766e-12
-3.675870269e-12
3.169206288e-12
9.428381661e-06
6.349033749e-12
-2.42372207e-12
9.428395412e-06
6.965045032e-12
-5.111412994e-12
9.428398858e-06
3.894223487e-12
-1.390349224e-12
9.428400388e-06
2.873429859e-12
-1.164658936e-13
9.42839979e-06
9.036943368e-13
-2.999164857e-13
9.428394795e-06
1.301329795e-13
1.78402498e-12
9.428390649e-06
-3.333609952e-13
3.068900538e-12
9.428386342e-06
-1.123897851e-12
3.613259811e-12
9.42838171e-06
-2.208927818e-12
4.305815187e-12
9.428374925e-06
-2.678713632e-12
4.101519759e-12
9.428371914e-06
-2.858784369e-12
5.06033091e-12
9.428366117e-06
-4.508880613e-12
3.116092511e-12
9.428360263e-06
-2.916091945e-12
3.871900584e-12
-2.990244387e-12
2.538785152e-12
9.42839146e-06
-4.905022598e-12
9.428406492e-06
-5.089525727e-12
9.428411882e-06
-2.223361521e-12
9.428415769e-06
-7.244632595e-13
9.428415605e-06
-1.628670302e-12
9.428413083e-06
-1.557575682e-13
9.428411781e-06
-1.383246137e-13
9.428409794e-06
2.022876153e-12
9.428403375e-06
3.401238181e-12
9.428399951e-06
3.311516056e-12
9.428396182e-06
3.328171435e-12
9.428393443e-06
3.627182752e-12
9.428385246e-06
2.968511649e-12
1.886468441e-12
9.428405826e-06
-3.960795561e-11
9.428409979e-06
-2.519404097e-12
-1.019872384e-11
9.428421721e-06
-5.920871211e-12
-9.840946405e-12
9.428424741e-06
-2.90800103e-12
-4.686643913e-12
9.428425464e-06
8.789410349e-14
-1.329331823e-12
9.428424324e-06
1.372639258e-12
9.158507536e-13
9.428420467e-06
1.598453643e-12
1.279197107e-12
9.42841656e-06
2.998235324e-12
2.116881149e-12
9.428411966e-06
3.696056024e-12
2.823017715e-12
9.428406538e-06
3.401246934e-12
3.193381016e-12
9.428403753e-06
3.149110417e-12
4.342753503e-12
9.428397849e-06
3.665956302e-12
3.893282754e-12
9.428390758e-06
3.559332068e-12
3.6337347e-12
9.42838648e-06
4.25370427e-12
4.73278438e-12
2.138052302e-12
4.539844475e-12
9.428402955e-06
-1.383817401e-12
-3.589547489e-12
9.428406616e-06
-1.141864151e-11
-1.308950314e-11
9.428408678e-06
-3.530340989e-12
-5.668088073e-12
9.428405588e-06
1.215140315e-12
-4.210840724e-13
9.428400705e-06
3.728583885e-12
2.511330677e-12
9.428395839e-06
4.578915575e-12
4.332617552e-12
9.428390832e-06
6.823028766e-12
5.459356532e-12
9.428382787e-06
6.272099859e-12
5.226671049e-12
9.428379369e-06
7.379228277e-12
6.332629144e-12
9.428374472e-06
6.633180023e-12
4.563491306e-12
9.428370328e-06
6.337940452e-12
3.382292533e-12
9.428364788e-06
6.128347837e-12
3.191075771e-12
9.428361692e-06
7.168563432e-12
4.347986478e-12
5.397607344e-12
5.457545781e-12
9.428401199e-06
1.251207372e-11
3.945571659e-12
9.428394771e-06
-3.694388643e-12
-8.545901754e-12
9.428382762e-06
1.397784903e-12
6.635916956e-12
9.428369046e-06
5.393066921e-12
1.079502971e-11
9.428357464e-06
5.836375645e-12
1.23973926e-11
9.428349151e-06
6.500169416e-12
1.296825914e-11
9.428340286e-06
5.869754971e-12
1.126098553e-11
9.428335801e-06
5.210882969e-12
1.087217732e-11
9.428329617e-06
5.920148728e-12
9.427839191e-12
9.428327009e-06
6.335546885e-12
8.686409703e-12
9.428325028e-06
5.545955453e-12
6.544165765e-12
9.428323109e-06
5.823145189e-12
5.563420971e-12
9.428321167e-06
5.845616154e-12
6.426374681e-12
5.17386264e-12
5.379102431e-12
9.42842364e-06
3.201466842e-11
6.817209507e-11
9.428413298e-06
1.012257999e-11
-1.891544986e-11
9.428402349e-06
9.6852211e-12
8.439750494e-12
9.428386814e-06
9.582256729e-12
1.842923692e-11
9.428374089e-06
5.906812299e-12
1.845944876e-11
9.428365165e-06
5.329516542e-12
1.810355832e-11
9.428357755e-06
3.669164397e-12
1.655137007e-11
9.428355243e-06
3.337594872e-12
1.405604832e-11
9.428352613e-06
2.568316148e-12
1.232285592e-11
9.428350617e-06
2.433933685e-12
1.06842983e-11
9.428351806e-06
1.993866321e-12
8.831334694e-12
9.428350235e-06
1.840035663e-12
5.421435317e-12
9.428352341e-06
1.624917514e-12
7.99026963e-12
2.074106149e-12
5.858624278e-12
9.428485841e-06
-3.098269488e-11
3.074858899e-10
9.428427188e-06
-1.079282608e-11
1.040109947e-10
9.428399033e-06
-1.045539037e-11
7.854617966e-11
9.428377332e-06
-1.034693957e-11
5.991775445e-11
9.42837099e-06
-8.287475794e-12
4.382579498e-11
9.428363919e-06
-6.737824474e-12
3.003470122e-11
9.428361993e-06
-3.649579471e-12
2.26549934e-11
9.428362202e-06
-2.040536375e-12
1.831620608e-11
9.428361676e-06
-2.431755891e-12
1.348377627e-11
9.428359919e-06
-1.738496872e-12
1.071296084e-11
9.428361406e-06
-8.192491269e-13
9.130799339e-12
9.428360051e-06
-1.381799721e-12
6.440749654e-12
9.428362577e-06
-1.865300433e-12
8.206312972e-12
-7.090136698e-13
6.520796547e-12
9.428374355e-06
-1.427133692e-11
6.588136178e-11
9.428367095e-06
3.793391929e-12
-1.942238109e-11
9.428353765e-06
-2.038272819e-12
8.956020033e-12
9.428335349e-06
-6.044019582e-12
1.822086419e-11
9.428325795e-06
-5.566093084e-12
2.010380805e-11
9.428316913e-06
-5.452520261e-12
1.939805775e-11
9.428307442e-06
-5.767398428e-12
1.64626457e-11
9.428304175e-06
-5.680724412e-12
1.382976557e-11
9.428302097e-06
-6.217088614e-12
1.164382819e-11
9.428299877e-06
-5.487313283e-12
9.973046849e-12
9.428300179e-06
-4.37025084e-12
9.376325205e-12
9.42829877e-06
-4.786437682e-12
7.031691573e-12
9.428301849e-06
-4.437352721e-12
8.442581809e-12
-4.900784649e-12
6.717687488e-12
9.42835152e-06
2.411891793e-12
4.260387306e-12
9.428345824e-06
1.09353045e-11
-7.827004872e-12
9.428333539e-06
3.027024563e-12
7.969132986e-12
9.42831873e-06
-1.01642381e-12
1.197850805e-11
9.428310192e-06
-1.804517582e-12
1.263190083e-11
9.428298593e-06
-4.159132156e-12
1.038572418e-11
9.42829021e-06
-6.407572748e-12
1.081673011e-11
9.428284269e-06
-6.486310395e-12
1.041996007e-11
9.428282493e-06
-5.432916692e-12
1.04064866e-11
9.428278707e-06
-5.571575412e-12
9.308085373e-12
9.428276314e-06
-6.088383432e-12
7.446878072e-12
9.428274133e-06
-5.59926264e-12
7.637327418e-12
9.428270614e-06
-5.549803719e-12
7.515729603e-12
-4.799508058e-12
6.996111627e-12
9.428462727e-06
4.635332185e-12
-2.393825418e-12
9.428470177e-06
7.551453146e-12
-1.14377093e-11
9.428470963e-06
3.718262414e-12
-4.174155754e-12
9.428469611e-06
2.191907978e-12
-6.791278794e-13
9.428463971e-06
-3.261609909e-13
-1.432872708e-13
9.428455312e-06
-1.799106246e-12
1.871512491e-12
9.428449317e-06
-2.832776869e-12
5.306311777e-12
9.428445187e-06
-3.018918277e-12
4.852813942e-12
9.428439638e-06
-3.681142038e-12
5.033203694e-12
9.428435653e-06
-4.664269284e-12
5.962160608e-12
9.428430711e-06
-5.690027295e-12
5.726540199e-12
9.428428283e-06
-4.610477101e-12
5.202457108e-12
9.428423724e-06
-4.236110298e-12
3.872469265e-12
-3.603043209e-12
3.379147758e-12
9.428386613e-06
-8.895111289e-12
9.428398184e-06
-9.14546597e-12
9.428404162e-06
-4.288349592e-12
9.428404306e-06
-2.63625861e-12
9.428402531e-06
-1.5379856e-12
9.42839836e-06
9.173838019e-13
9.428396787e-06
3.668575458e-12
9.428392e-06
1.772696006e-12
9.428385078e-06
3.392812282e-12
9.428381115e-06
3.849770217e-12
9.428377304e-06
5.855848655e-12
9.428372325e-06
5.114350778e-12
9.4283665e-06
3.589245408e-12
3.23618815e-12
9.428423491e-06
-6.646477763e-11
-5.001406457e-11
9.42842474e-06
-1.800576416e-12
-3.791709448e-12
9.428430799e-06
-6.621002689e-12
-4.409382724e-12
9.428426215e-06
1.251434541e-12
5.820406547e-13
9.428418826e-06
5.332860619e-12
2.649168223e-12
9.42841237e-06
5.136556953e-12
3.158732292e-13
9.428405585e-06
7.336632279e-12
2.186520782e-12
9.428398231e-06
8.054867889e-12
1.813550726e-12
9.428390447e-06
7.823547446e-12
2.318613049e-12
9.428387544e-06
6.99832759e-12
3.264586223e-12
9.428381318e-06
4.155767858e-12
2.207219512e-12
9.428378211e-06
3.768757519e-12
3.81237554e-12
9.428372933e-06
4.608630923e-12
3.06083458e-12
9.42837097e-06
5.402576329e-12
2.799232162e-12
4.203393553e-12
4.344461968e-12
9.428460888e-06
-8.911960936e-11
9.428434701e-06
6.328123229e-12
9.708577585e-12
9.428431365e-06
-6.683970869e-12
-4.939546953e-12
9.428418803e-06
9.177781571e-12
2.683575327e-12
9.428405194e-06
1.240941638e-11
5.163005071e-12
9.428394288e-06
1.357336551e-11
4.819765684e-12
9.428384753e-06
1.393636794e-11
5.628100749e-12
9.428377273e-06
1.242385975e-11
5.152337066e-12
9.4283729e-06
1.130738988e-11
4.888105418e-12
9.428368267e-06
1.01724455e-11
4.864006098e-12
9.428366223e-06
1.093914997e-11
3.872468056e-12
9.428364737e-06
9.201822903e-12
5.095673359e-12
9.428361394e-06
8.415932558e-12
5.1688823e-12
9.428359766e-06
9.78015193e-12
5.434258094e-12
5.968361154e-12
4.150085525e-12
9.428501363e-06
5.385374523e-11
5.140503913e-11
9.428451737e-06
1.729130211e-11
1.572974535e-11
9.428409796e-06
2.796831387e-11
2.716336508e-11
9.428381513e-06
2.68607349e-11
2.607136994e-11
9.428366116e-06
2.169404153e-11
2.075339752e-11
9.428357401e-06
1.722968119e-11
1.694333761e-11
9.428354277e-06
1.360424744e-11
1.273344228e-11
9.428353116e-06
1.018936944e-11
9.928416864e-12
9.428354359e-06
9.293592816e-12
8.256952664e-12
9.428355734e-06
7.13865067e-12
5.821733575e-12
9.428358628e-06
7.688344769e-12
4.577526255e-12
9.428361167e-06
6.185628648e-12
5.374263954e-12
9.428360539e-06
7.237944474e-12
4.752842075e-12
6.246655169e-12
4.409094146e-12
9.428435561e-06
1.195267263e-10
2.322107098e-10
9.428371135e-06
4.746237776e-11
1.31824458e-11
9.428330542e-06
3.787791181e-11
4.093823111e-11
9.428310163e-06
2.721598777e-11
4.101111982e-11
9.42830364e-06
1.71576021e-11
3.086332608e-11
9.42830363e-06
1.168350439e-11
2.334985701e-11
9.428308265e-06
7.953966737e-12
1.740530359e-11
9.428315846e-06
6.040386446e-12
1.425306491e-11
9.428321668e-06
4.194306359e-12
9.895715294e-12
9.428326575e-06
3.599436661e-12
7.745885722e-12
9.428330994e-06
3.358799555e-12
6.812171562e-12
9.42833821e-06
2.815775557e-12
5.75025894e-12
9.428340709e-06
2.160328797e-12
5.242774258e-12
2.800951371e-12
6.618023865e-12
9.428484327e-06
-1.193336083e-10
1.182226046e-09
9.428282671e-06
-4.694995773e-11
3.96669844e-10
9.428233434e-06
-3.835854952e-11
2.019210711e-10
9.428233256e-06
-2.720351551e-11
1.197031708e-10
9.428244146e-06
-1.922074187e-11
6.529215242e-11
9.428259249e-06
-1.224674665e-11
3.952662932e-11
9.428273986e-06
-7.733192838e-12
2.460662383e-11
9.428286467e-06
-5.312205908e-12
1.607785252e-11
9.428300056e-06
-3.825184309e-12
1.121259532e-11
9.428307693e-06
-2.396070053e-12
8.297750234e-12
9.428313715e-06
-1.423807682e-12
7.64193265e-12
9.42832175e-06
-1.486879532e-12
7.161644898e-12
9.428327791e-06
-2.173495385e-12
7.38595924e-12
-9.122165662e-13
5.998931158e-12
9.428470707e-06
-5.260986704e-11
2.318007182e-10
9.428406208e-06
-1.541355209e-11
1.240749093e-11
9.428366009e-06
-2.776170473e-11
4.030850891e-11
9.42834541e-06
-2.692576997e-11
4.086832885e-11
9.428338842e-06
-2.274353157e-11
3.085465374e-11
9.428337973e-06
-1.854306746e-11
2.448665678e-11
9.428341537e-06
-1.419982392e-11
1.84761433e-11
9.428348561e-06
-1.102039737e-11
1.362299885e-11
9.428356061e-06
-9.246721209e-12
1.032393152e-11
9.428363309e-06
-6.751163593e-12
8.39280635e-12
9.428365319e-06
-6.971914223e-12
6.333862904e-12
9.428372058e-06
-4.586968999e-12
6.593114699e-12
9.42837767e-06
-5.812345521e-12
7.586016294e-12
-3.739141713e-12
5.072183487e-12
9.428518196e-06
-4.375256421e-12
5.188115815e-11
9.428467954e-06
6.542730048e-12
1.456140946e-11
9.428424793e-06
-8.444141578e-12
2.812269486e-11
9.42839805e-06
-1.361710672e-11
2.652409115e-11
9.428383567e-06
-1.423807021e-11
2.233630489e-11
9.428377453e-06
-1.241874562e-11
1.885462044e-11
9.428372539e-06
-1.134673831e-11
1.337525977e-11
9.42837183e-06
-1.115718817e-11
1.007269335e-11
9.428374507e-06
-1.03097052e-11
9.305280578e-12
9.428374983e-06
-9.493254409e-12
6.305542195e-12
9.428376056e-06
-7.295397109e-12
7.094778667e-12
9.428377269e-06
-7.20988563e-12
5.254113328e-12
9.428380289e-06
-8.241743077e-12
4.839051413e-12
-8.529209616e-12
3.63030191e-12
9.428456435e-06
6.466311582e-12
1.090524242e-11
9.428450026e-06
8.968256327e-12
-4.179954666e-12
9.428436427e-06
6.148777471e-13
2.481674985e-12
9.428425552e-06
-3.586358083e-12
6.532269868e-12
9.428415294e-06
-3.209557553e-12
6.526987028e-12
9.428405403e-06
-4.013042106e-12
7.019506516e-12
9.428396904e-06
-5.641884136e-12
6.134788527e-12
9.428390441e-06
-6.146542507e-12
4.615114416e-12
9.42838784e-06
-6.142353793e-12
4.715596133e-12
9.428384356e-06
-5.914020976e-12
4.303035517e-12
9.428380041e-06
-5.918600247e-12
3.867915035e-12
9.428376009e-06
-4.565110869e-12
5.869555652e-12
9.428375115e-06
-3.875352841e-12
6.16343389e-12
-3.542299274e-12
4.669041297e-12
9.428436899e-06
-4.939447703e-12
9.428440187e-06
-5.640342369e-12
9.428437469e-06
-2.848807494e-13
9.428431191e-06
1.863191641e-12
9.428425873e-06
2.406551948e-12
9.428416627e-06
2.261412837e-12
9.428407124e-06
1.880658201e-12
9.428402861e-06
2.979835555e-12
9.428398812e-06
4.0110053e-12
9.428394135e-06
3.595632825e-12
9.428388842e-06
2.846756422e-12
9.428383301e-06
3.544205397e-12
9.428381157e-06
4.918480402e-12
3.865505245e-12
9.428487267e-06
-9.255506225e-11
-4.537550619e-11
9.42846618e-06
1.405992244e-11
2.694906916e-12
9.428467721e-06
-1.180477288e-11
1.344033847e-12
9.428461087e-06
3.280104808e-13
3.423154724e-12
9.428450068e-06
6.367584716e-12
4.446731864e-12
9.428442664e-06
9.834457013e-12
3.664113994e-12
9.428433685e-06
1.090862409e-11
2.598644812e-12
9.428427395e-06
1.14695432e-11
2.860526576e-12
9.428419933e-06
9.999338404e-12
1.701146822e-12
9.428415219e-06
7.925766352e-12
1.627174978e-12
9.428409958e-06
5.093893588e-12
8.468346189e-13
9.428406322e-06
5.567069082e-12
-9.742987977e-14
9.428402985e-06
6.202134924e-12
3.090126592e-13
9.428402553e-06
7.174880487e-12
1.96413703e-12
3.868389675e-12
5.086347428e-13
9.428521773e-06
-2.112706372e-10
-8.859738919e-11
9.428450641e-06
6.916061102e-11
2.865344457e-11
9.428441677e-06
-1.789540918e-11
8.060401751e-12
9.428425629e-06
9.042975629e-12
8.75505232e-12
9.428410082e-06
1.968280109e-11
9.471536004e-12
9.428398205e-06
2.118866362e-11
4.559958265e-12
9.428387932e-06
2.014802159e-11
3.603967594e-12
9.428380046e-06
1.772094389e-11
3.474322765e-12
9.428376123e-06
1.552040272e-11
2.121501521e-12
9.428373268e-06
1.389863957e-11
1.576228675e-12
9.428373741e-06
1.31389208e-11
2.919421375e-12
9.428372044e-06
9.230408458e-12
9.825099256e-13
9.428371435e-06
8.475400063e-12
1.552413386e-13
9.428372278e-06
8.582369776e-12
8.6173759e-13
7.001187495e-12
1.214610486e-12
9.428746454e-06
-2.690110271e-10
9.428516084e-06
2.336031524e-10
1.164874071e-10
9.428453942e-06
1.491615727e-11
4.553228732e-11
9.428411319e-06
4.065936234e-11
3.624908268e-11
9.428390928e-06
4.143774943e-11
2.745384886e-11
9.42838173e-06
3.145589393e-11
1.746539346e-11
9.4283814e-06
2.403494297e-11
1.055359049e-11
9.428385351e-06
1.807095925e-11
7.129340427e-12
9.428390265e-06
1.446737264e-11
4.100747704e-12
9.428397887e-06
1.180189853e-11
2.678952437e-12
9.428400458e-06
9.286827073e-12
2.623046774e-12
9.428408692e-06
8.951778413e-12
2.340737751e-12
9.428412457e-06
5.828852646e-12
1.291202211e-12
9.428416998e-06
7.962293878e-12
2.014647542e-12
8.733810334e-12
2.75828296e-12
9.428129495e-06
4.27639854e-10
4.251839046e-10
9.428157437e-06
-2.721203727e-12
-2.642229596e-12
9.428163784e-06
3.521459725e-11
3.442587723e-11
9.428177351e-06
3.442321073e-11
3.475366717e-11
9.428196934e-06
2.166505582e-11
2.342049363e-11
9.428218674e-06
1.619558897e-11
1.617425364e-11
9.428238111e-06
1.033783984e-11
1.086893551e-11
9.428254654e-06
7.625984525e-12
7.902989551e-12
9.428267397e-06
5.09344139e-12
5.481150107e-12
9.428277516e-06
4.59341629e-12
3.143473706e-12
9.428288411e-06
5.138640438e-12
2.510866275e-12
9.42829849e-06
5.390554577e-12
2.80607238e-12
9.428305647e-06
3.961621422e-12
2.051952464e-12
2.465827725e-12
8.074126556e-13
9.42784347e-06
-4.275394162e-10
3.427695827e-09
9.427895305e-06
1.971788414e-12
3.394930822e-10
9.428013907e-06
-3.542513416e-11
1.575165053e-10
9.428103105e-06
-3.388968565e-11
1.033934091e-10
9.428166743e-06
-2.167225502e-11
4.904570591e-11
9.428210834e-06
-1.519093495e-11
2.497850536e-11
9.428243912e-06
-9.252103432e-12
1.393857657e-11
9.428268097e-06
-6.888542363e-12
7.848904836e-12
9.428286679e-06
-4.510772535e-12
5.010678815e-12
9.428300938e-06
-3.010349617e-12
2.560296029e-12
9.428311286e-06
-3.31450073e-12
2.199648675e-12
9.428320535e-06
-2.284026004e-12
2.540358507e-12
9.42833039e-06
-1.303653566e-12
1.98138715e-12
-2.137521451e-12
1.206347354e-12
9.428142778e-06
-2.334677997e-10
4.254720036e-10
9.428169155e-06
-1.407972268e-11
-3.25924258e-12
9.428179367e-06
-3.964919005e-11
3.624766673e-11
9.428191436e-06
-4.201439865e-11
3.435351395e-11
9.428211998e-06
-3.216565652e-11
2.236205421e-11
9.42823164e-06
-2.45895307e-11
1.560763819e-11
9.428250521e-06
-1.969857541e-11
1.082213475e-11
9.428268095e-06
-1.435557406e-11
6.060779832e-12
9.428284311e-06
-1.063744617e-11
3.491026368e-12
9.428295637e-06
-8.943746166e-12
3.019896698e-12
9.428307158e-06
-5.614985109e-12
2.899131542e-12
9.428315525e-06
-5.732975678e-12
2.534849832e-12
9.428322767e-06
-7.91414778e-12
1.866555852e-12
-5.556477861e-12
2.076592537e-12
9.428423372e-06
-6.829060069e-11
1.172308606e-10
9.428361306e-06
1.886356966e-11
4.658851964e-11
9.428317958e-06
-9.775725741e-12
3.675087058e-11
9.428297403e-06
-1.925623319e-11
2.712083446e-11
9.428291429e-06
-2.12168638e-11
1.633706145e-11
9.428291059e-06
-1.964192971e-11
1.132718815e-11
9.428296191e-06
-1.734655163e-11
8.538267135e-12
9.428303767e-06
-1.500032214e-11
5.099592681e-12
9.428308862e-06
-1.298856602e-11
1.604755774e-12
9.428315236e-06
-1.069111243e-11
1.956825712e-12
9.428318824e-06
-9.430869633e-12
1.013973595e-12
9.428324209e-06
-6.322465868e-12
2.502429208e-12
9.42833076e-06
-8.057628973e-12
2.518948144e-12
-7.438404145e-12
1.426804902e-12
9.428406879e-06
-1.323428455e-11
3.038775192e-11
9.428396519e-06
1.193677309e-11
1.015250587e-11
9.42838354e-06
-5.751421914e-13
9.903551325e-12
9.428366328e-06
-6.920132106e-12
7.377467636e-12
9.428355774e-06
-7.043775445e-12
5.98639378e-12
9.428345719e-06
-8.974967425e-12
4.2893361e-12
9.428338783e-06
-9.23780721e-12
2.645540918e-12
9.428335346e-06
-8.646122373e-12
2.491968275e-12
9.428333018e-06
-7.423811592e-12
1.298649413e-12
9.428328675e-06
-6.848939609e-12
1.600120827e-12
9.428328867e-06
-7.04845911e-12
2.035483425e-12
9.428325733e-06
-7.006915064e-12
-5.17673804e-14
9.42832726e-06
-6.039778194e-12
2.628429907e-12
-4.656197125e-12
1.55929493e-12
9.42841676e-06
3.99938993e-12
9.428418353e-06
2.037711302e-12
9.428412301e-06
2.897341908e-12
9.428402434e-06
4.720704965e-12
9.42839334e-06
3.394417687e-12
9.428382747e-06
2.540486818e-12
9.42837471e-06
1.705584131e-12
9.428369077e-06
1.559086373e-12
9.428363621e-06
1.485588784e-12
9.428358114e-06
1.582271783e-12
9.428355669e-06
1.146643472e-12
9.428352776e-06
2.517087795e-13
9.428349774e-06
1.224414092e-12
2.845253147e-12
9.428517293e-06
-2.573324886e-10
4.474798064e-11
9.428460948e-06
6.133028056e-11
-4.12382097e-12
9.428441508e-06
2.585527065e-11
-4.505934062e-12
9.428421155e-06
2.958223206e-11
-6.421316309e-12
9.42840316e-06
2.639072202e-11
-5.929631823e-12
9.428393533e-06
2.025911697e-11
-3.497788745e-12
9.428382777e-06
1.681096422e-11
-2.639236835e-12
9.428374753e-06
1.352611639e-11
-3.286191209e-12
9.428370734e-06
1.058098495e-11
-2.716269446e-12
9.428364082e-06
8.268714199e-12
-3.561773867e-12
9.428361611e-06
6.874344942e-12
-2.430649519e-12
9.428358702e-06
6.162079569e-12
-3.630629372e-12
9.428357163e-06
6.203736619e-12
-2.904280656e-12
9.428355378e-06
6.493109401e-12
-1.826863278e-12
5.207124511e-12
1.701313117e-13
9.428674548e-06
-7.036806222e-10
8.594737608e-11
9.428486066e-06
3.097789758e-10
-3.061649141e-11
9.428429049e-06
1.060423555e-10
-1.060434795e-11
9.428395988e-06
7.912528317e-11
-1.091530016e-11
9.42837486e-06
6.181105201e-11
-1.039060931e-11
9.428367832e-06
4.593715427e-11
-6.643674935e-12
9.428360379e-06
3.24283979e-11
-4.629091848e-12
9.428356877e-06
2.335418308e-11
-5.618041989e-12
9.428358544e-06
1.928150801e-11
-2.887473904e-12
9.428358023e-06
1.423786679e-11
-2.266671631e-12
9.428358165e-06
1.263288871e-11
-1.164383386e-12
9.428360258e-06
1.108424284e-11
-1.744157639e-12
9.428362576e-06
9.921790944e-12
-2.68572203e-12
9.428364078e-06
9.089724539e-12
-1.414187491e-12
8.312837001e-12
-1.050417491e-14
9.429068543e-06
-1.919660277e-09
2.677716508e-10
9.428430106e-06
1.184738587e-09
-1.180384433e-10
9.428227787e-06
3.993374365e-10
-4.744594088e-11
9.428179326e-06
2.030903414e-10
-3.770815378e-11
9.428176883e-06
1.211227515e-10
-2.756872038e-11
9.42818924e-06
6.83300239e-11
-1.897499617e-11
9.428205799e-06
4.121011746e-11
-1.234297916e-11
9.428220132e-06
2.614184332e-11
-8.550055921e-12
9.42823156e-06
1.94967716e-11
-5.733343324e-12
9.42824325e-06
1.441050773e-11
-4.640592126e-12
9.428251958e-06
9.58981016e-12
-3.421596335e-12
9.428259973e-06
8.740905523e-12
-3.003636622e-12
9.428264201e-06
7.48712498e-12
-3.398371347e-12
9.428273175e-06
7.383796324e-12
-1.890484155e-12
5.600418737e-12
-1.259864849e-12
9.429182055e-06
3.983957329e-10
9.427796349e-06
3.429543997e-09
-4.285539026e-10
9.427850265e-06
3.407593807e-10
-2.78824015e-13
9.427969695e-06
1.585910745e-10
-3.653067484e-11
9.428059489e-06
1.034844237e-10
-3.625391533e-11
9.428120884e-06
4.82830786e-11
-2.401344978e-11
9.428167409e-06
2.478426447e-11
-1.610158547e-11
9.428201964e-06
1.386558415e-11
-1.002888254e-11
9.428225279e-06
7.31211632e-12
-7.426956485e-12
9.42824506e-06
4.811926229e-12
-5.957661303e-12
9.428257978e-06
4.460789336e-12
-3.662438496e-12
9.428271159e-06
5.032553045e-12
-1.942722203e-12
9.428278596e-06
4.613992806e-12
-1.786275897e-12
9.428289667e-06
4.683056044e-12
-2.289880947e-12
2.954895208e-12
3.496151285e-14
9.445970721e-06
-3.429264121e-09
-3.431103173e-09
9.447349565e-06
-3.415357839e-10
-3.42737449e-10
9.448000361e-06
-1.577665556e-10
-1.585721915e-10
9.448427865e-06
-1.032101385e-10
-1.044144282e-10
9.448630332e-06
-4.914643172e-11
-4.932083935e-11
9.448743382e-06
-2.427114797e-11
-2.644846649e-11
9.448810235e-06
-1.381602116e-11
-1.594971039e-11
9.448856764e-06
-9.309632692e-12
-9.540630725e-12
9.448892778e-06
-6.692537272e-12
-4.908107964e-12
9.448920832e-06
-2.543799951e-12
-2.250864956e-12
9.448946143e-06
-2.170716138e-12
-1.794367886e-12
9.448966977e-06
-2.476328215e-12
-2.982461893e-12
9.448991643e-06
-1.939150949e-12
-3.778265556e-12
-1.686043968e-12
-1.240585103e-12
9.427851089e-06
-1.183977768e-09
-4.270687853e-10
9.42790356e-06
-3.973586042e-10
1.142327664e-12
9.428022035e-06
-2.03277744e-10
-3.661616303e-11
9.428111113e-06
-1.217708291e-10
-3.67483201e-11
9.428174164e-06
-6.881286584e-11
-2.25595748e-11
9.428221058e-06
-4.129441344e-11
-1.629546067e-11
9.428253839e-06
-2.489961373e-11
-1.154335621e-11
9.428279089e-06
-1.684702297e-11
-6.166104162e-12
9.428301762e-06
-1.208390709e-11
-3.549610482e-12
9.428310958e-06
-9.451261214e-12
-2.712838281e-12
9.42832379e-06
-7.57716985e-12
-2.01564307e-12
9.428334382e-06
-6.386122821e-12
-2.339669287e-12
9.4283424e-06
-7.199552246e-12
-2.527679239e-12
-5.390343473e-12
-1.809654128e-12
9.428485186e-06
-3.084029004e-10
-1.18830518e-10
9.428282605e-06
-1.052827293e-10
-4.825133937e-11
9.428234847e-06
-7.975334442e-11
-3.895240937e-11
9.428233103e-06
-6.399636527e-11
-2.788037148e-11
9.428246704e-06
-4.49465092e-11
-1.817663244e-11
9.428262107e-06
-3.2537403e-11
-1.175410642e-11
9.428276707e-06
-2.451229808e-11
-9.29249809e-12
9.428291355e-06
-1.795755436e-11
-4.877462176e-12
9.428304186e-06
-1.393408348e-11
-3.464157804e-12
9.428311639e-06
-1.070566065e-11
-2.412855801e-12
9.428317627e-06
-9.616915822e-12
-1.750487116e-12
9.428324154e-06
-8.04549523e-12
-1.798996782e-12
9.428331781e-06
-7.480342892e-12
-1.884225669e-12
-7.063588064e-12
-1.245642041e-12
9.428484029e-06
-6.03478444e-11
-3.242383699e-11
9.428427861e-06
-2.628452777e-11
-1.008321967e-11
9.428396705e-06
-2.990392894e-11
-9.912899631e-12
9.428380467e-06
-2.416606247e-11
-8.093113323e-12
9.428371813e-06
-1.915026895e-11
-6.020552519e-12
9.428363947e-06
-1.520311218e-11
-5.178370056e-12
9.428361158e-06
-1.279548749e-11
-3.50934543e-12
9.428362426e-06
-1.023920116e-11
-2.925998219e-12
9.428362033e-06
-7.809859976e-12
-2.017578528e-12
9.428362914e-06
-6.201120311e-12
-1.436629906e-12
9.428361951e-06
-7.473819275e-12
-2.62999479e-12
9.428365176e-06
-6.062900851e-12
-2.084127813e-12
9.428364961e-06
-5.754369598e-12
-2.579985705e-12
-3.536899928e-12
-4.911770284e-13
9.428481194e-06
-3.885139658e-12
9.428463559e-06
-2.45434139e-12
9.428446007e-06
-5.712270623e-12
9.428429869e-06
-6.43312737e-12
9.428419095e-06
-2.678303418e-12
9.428408875e-06
-3.712968163e-12
9.428401481e-06
-1.645832438e-12
9.428397217e-06
-2.326245081e-13
9.428392579e-06
-2.207568942e-12
9.428386161e-06
-2.129865793e-12
9.428382699e-06
-1.153964839e-12
9.428381689e-06
-4.26526473e-13
9.428379554e-06
-1.457932348e-12
-1.464148438e-12
9.428459329e-06
-9.434176464e-11