/*--------------------------------*- C++ -*----------------------------------*\
| =========                 |                                                 |
| \\      /  F ield         | OpenFOAM: The Open Source CFD Toolbox           |
|  \\    /   O peration     | Version:  4.x                                   |
|   \\  /    A nd           | Web:      www.OpenFOAM.org                      |
|    \\/     M anipulation  |                                                 |
\*---------------------------------------------------------------------------*/
FoamFile
{
    version     2.0;
    format      ascii;
    class       volScalarField;
    location    "11000";
    object      rho;
}
// * * * * * * * * * * * * * * * * * * * * * * * * * * * * * * * * * * * * * //

dimensions      [1 -3 0 0 0 0 0];

internalField   nonuniform List<scalar> 
1174
(
0.2777044968
0.2777046168
0.277704829
0.2777050974
0.2777054074
0.2777057791
0.2777061866
0.2777065886
0.2777070511
0.2777075216
0.277707999
0.2777084535
0.2777088526
0.2777091604
0.2777041472
0.2777043743
0.2777046731
0.2777050325
0.2777054759
0.2777059342
0.2777064047
0.2777068714
0.2777074155
0.2777079082
0.2777083443
0.2777087642
0.2777091595
0.2777094627
0.2777053518
0.277705762
0.2777062419
0.2777067674
0.2777073791
0.27770801
0.2777085922
0.2777091563
0.2777097359
0.2777102034
0.2777106406
0.277711025
0.2777113407
0.2777115833
0.2777036737
0.2777043055
0.2777050088
0.2777057863
0.2777065448
0.2777071812
0.2777078561
0.2777084417
0.277708942
0.2777094086
0.2777097925
0.2777101213
0.2777103959
0.2777106058
0.2777054729
0.2777062102
0.2777070075
0.2777078386
0.2777086436
0.2777093756
0.2777099999
0.2777106
0.2777111357
0.2777116026
0.2777119676
0.2777122693
0.2777125292
0.277712709
0.277707097
0.2777077146
0.2777084164
0.277709183
0.2777099081
0.2777106518
0.2777113288
0.2777119153
0.2777124575
0.2777128996
0.2777132979
0.2777136423
0.2777139404
0.2777141096
0.2777063015
0.2777067156
0.2777072287
0.2777077995
0.2777084184
0.2777090249
0.2777096398
0.2777101609
0.2777106752
0.2777111725
0.2777116502
0.2777120634
0.2777124234
0.2777126836
0.2777043404
0.2777045631
0.2777048883
0.2777052931
0.2777057395
0.2777061772
0.2777066466
0.2777071871
0.2777076816
0.2777081368
0.2777085725
0.2777090216
0.2777093897
0.2777097183
0.2777047567
0.2777048818
0.2777050783
0.2777053535
0.2777056782
0.2777060339
0.2777064277
0.2777068529
0.2777073332
0.2777078313
0.2777082872
0.2777087395
0.2777091744
0.2777094864
0.2777050397
0.2777051884
0.2777054156
0.2777057312
0.2777060996
0.2777065084
0.2777069986
0.27770746
0.2777079453
0.2777084294
0.2777089333
0.2777093738
0.277709822
0.2777102398
0.2777105502
0.2777049461
0.2777053745
0.2777058737
0.277706384
0.2777069745
0.277707534
0.2777081236
0.2777086344
0.2777091445
0.2777096048
0.2777100612
0.2777104092
0.2777107805
0.2777110424
0.2777048834
0.2777056782
0.2777065666
0.2777073907
0.2777081441
0.2777088453
0.2777094801
0.2777099552
0.2777104263
0.2777107811
0.277711088
0.2777113374
0.2777115642
0.2777117483
0.2777073129
0.2777086139
0.2777098201
0.2777108571
0.2777117865
0.2777124702
0.2777129985
0.2777134424
0.2777137262
0.2777139389
0.2777141143
0.2777142381
0.277714299
0.2777143299
0.2777090759
0.2777106107
0.2777118883
0.2777129414
0.2777137048
0.2777143327
0.2777147435
0.2777150088
0.2777152174
0.2777153227
0.2777153611
0.2777153935
0.2777153585
0.2777153461
0.2777059375
0.2777071808
0.2777084294
0.277709553
0.2777103954
0.2777110679
0.2777115899
0.2777119833
0.2777122218
0.2777124322
0.2777125575
0.277712667
0.2777127135
0.2777127713
0.2777034689
0.2777042368
0.2777051129
0.2777059207
0.2777067095
0.2777073649
0.2777079764
0.2777084999
0.277708942
0.2777093397
0.2777096199
0.2777098989
0.2777101321
0.277710274
0.2777067644
0.2777071964
0.2777076447
0.2777082321
0.2777087851
0.2777093317
0.2777099238
0.2777104531
0.277710944
0.2777114087
0.2777118374
0.277712233
0.277712537
0.2777127771
0.2777045295
0.2777047622
0.2777050852
0.2777054595
0.2777058742
0.2777063575
0.2777068541
0.277707356
0.2777078278
0.2777083111
0.2777087633
0.2777092187
0.2777095961
0.2777099201
0.2777049621
0.2777052495
0.2777056592
0.2777061707
0.2777067262
0.2777073168
0.2777079151
0.2777085599
0.2777090967
0.2777096076
0.2777101253
0.27771058
0.2777109877
0.2777113542
0.2777116153
0.277705364
0.2777059555
0.2777067048
0.2777075527
0.2777084316
0.277709199
0.2777099172
0.2777105454
0.2777110916
0.277711541
0.2777119029
0.2777121933
0.27771245
0.2777126585
0.277712817
0.2777087036
0.2777103156
0.2777117988
0.2777130264
0.2777139201
0.2777145168
0.2777149586
0.2777152248
0.27771539
0.2777154816
0.2777154636
0.2777154537
0.2777154043
0.2777153835
0.2777132729
0.2777160014
0.2777178881
0.2777190227
0.2777195604
0.277719642
0.2777194838
0.2777191732
0.2777188019
0.2777184219
0.2777180366
0.2777176513
0.277717299
0.2777170214
0.277719409
0.2777221248
0.2777232669
0.2777234581
0.2777230984
0.2777224788
0.2777217473
0.2777210027
0.2777202295
0.2777194873
0.2777188986
0.2777183592
0.2777178775
0.2777174849
0.2777143086
0.2777170516
0.27771892
0.2777200293
0.2777205199
0.2777206253
0.2777204721
0.2777201867
0.2777198363
0.2777194157
0.2777190162
0.2777186353
0.2777182851
0.2777180434
0.2777092602
0.2777108955
0.277712306
0.2777135074
0.2777143928
0.2777150288
0.2777155125
0.2777157991
0.2777159524
0.2777160079
0.2777160078
0.2777160004
0.2777159222
0.2777158628
0.2777065852
0.277707335
0.2777081779
0.2777090259
0.2777097833
0.2777105072
0.2777111308
0.2777116133
0.2777120508
0.2777123809
0.2777126473
0.2777129078
0.2777131123
0.2777132733
0.2777056637
0.277706037
0.2777065309
0.2777070523
0.2777076464
0.2777082534
0.2777088655
0.277709415
0.277709943
0.2777104302
0.277710895
0.2777112993
0.2777116126
0.2777118965
0.2777063447
0.2777068419
0.2777074646
0.2777081683
0.2777089066
0.2777096653
0.2777104009
0.2777110382
0.2777116484
0.277712236
0.2777126749
0.2777130703
0.2777133865
0.2777136603
0.2777138763
0.2777068652
0.2777080372
0.2777093126
0.2777105707
0.2777116257
0.2777125292
0.2777131928
0.2777137344
0.2777141271
0.277714376
0.2777145655
0.2777147087
0.2777148316
0.2777148904
0.2777149037
0.2777122909
0.2777156241
0.2777184176
0.277720278
0.2777213512
0.2777218748
0.2777219944
0.2777218057
0.2777214679
0.2777210744
0.2777206214
0.2777202226
0.2777198694
0.2777195157
0.2777192594
0.277729358
0.2777328276
0.2777333538
0.277732348
0.2777306126
0.2777286998
0.2777268483
0.277725135
0.2777236095
0.2777222825
0.2777210943
0.2777201036
0.277719315
0.2777186929
0.2777633965
0.2777589683
0.2777522523
0.277745846
0.2777404168
0.2777360192
0.2777324194
0.2777295108
0.2777272127
0.2777252479
0.2777236849
0.2777223637
0.2777212738
0.2777205063
0.2777298076
0.277733243
0.2777337538
0.2777327353
0.2777310728
0.2777291466
0.2777272992
0.2777255399
0.2777240609
0.2777227561
0.2777215886
0.27772061
0.2777198333
0.2777192026
0.2777129023
0.2777157066
0.2777176043
0.2777186841
0.2777192083
0.2777192821
0.2777191417
0.2777188604
0.2777184987
0.2777180969
0.2777176819
0.2777172696
0.2777168983
0.2777166156
0.2777068206
0.2777081281
0.2777093609
0.2777104328
0.2777112974
0.2777119522
0.2777124705
0.2777128414
0.2777131035
0.2777133185
0.2777134573
0.2777135438
0.2777135825
0.2777136063
0.2777054044
0.2777060185
0.2777066943
0.2777074504
0.2777082029
0.2777089062
0.2777095275
0.2777101306
0.2777106868
0.2777111378
0.2777115725
0.2777118806
0.27771217
0.2777123938
0.2777054066
0.2777059929
0.2777067349
0.2777075135
0.2777083441
0.2777090898
0.2777098241
0.2777104526
0.2777110289
0.2777115826
0.2777119975
0.2777123776
0.2777126763
0.2777129225
0.2777131127
0.2777073975
0.2777090149
0.2777105371
0.2777118902
0.2777129227
0.2777137141
0.2777142952
0.2777146536
0.2777149195
0.2777151035
0.2777152394
0.2777153628
0.2777154012
0.2777153718
0.2777153757
0.2777129881
0.2777178107
0.2777205021
0.2777216369
0.2777218327
0.2777214902
0.2777208753
0.2777201371
0.277719359
0.277718615
0.2777179236
0.2777172939
0.2777167375
0.2777162016
0.2777158676
0.2777562196
0.2777620786
0.2777576734
0.2777509653
0.2777445668
0.2777391339
0.2777347313
0.2777311495
0.2777283448
0.2777260085
0.2777240928
0.2777224734
0.2777211499
0.27772007
0.2777193148
0.2785104964
0.2784378412
0.2783978835
0.2783746352
0.2783604017
0.2783512073
0.2783450099
0.2783406432
0.278337514
0.2783351799
0.2783333896
0.2783320139
0.2783310037
0.2783303835
0.2777636679
0.2777592896
0.2777525699
0.2777461115
0.2777407128
0.2777362831
0.2777327485
0.2777298562
0.2777275397
0.2777256433
0.2777240852
0.2777227789
0.2777217091
0.2777209023
0.2777195088
0.2777222344
0.2777233518
0.277723567
0.2777231951
0.2777226022
0.2777218023
0.2777210712
0.2777203189
0.2777196587
0.2777190176
0.2777184292
0.2777179219
0.2777175957
0.2777090997
0.2777106404
0.2777119484
0.2777129892
0.2777137962
0.2777143873
0.277714768
0.2777150297
0.2777152167
0.2777153456
0.2777154118
0.2777154226
0.27771545
0.2777153986
0.2777067093
0.2777074418
0.2777082473
0.2777090645
0.2777098478
0.2777105848
0.2777112514
0.2777118188
0.2777122936
0.2777126962
0.2777130448
0.2777133601
0.2777136089
0.2777137838
0.2777056123
0.2777060966
0.2777066825
0.2777074354
0.2777081612
0.2777089372
0.2777096775
0.277710338
0.2777109358
0.2777114906
0.2777119564
0.2777123342
0.27771267
0.277712954
0.277713168
0.2777079862
0.2777091567
0.2777103983
0.2777116099
0.2777126674
0.2777135362
0.277714229
0.2777147236
0.2777150836
0.2777153533
0.277715531
0.2777157443
0.2777158189
0.277715904
0.2777159365
0.2777109753
0.2777143497
0.2777170534
0.2777189312
0.2777199878
0.2777205282
0.2777206254
0.2777204643
0.2777201795
0.2777197849
0.2777193662
0.2777189462
0.2777185214
0.2777182103
0.2777179371
0.2777230653
0.2777308003
0.277734228
0.2777347876
0.2777338115
0.2777321175
0.2777302189
0.2777283679
0.2777266133
0.277725076
0.2777237647
0.2777225887
0.2777215778
0.2777207577
0.2777201854
0.2777575078
0.2777633205
0.277758949
0.2777522395
0.2777458642
0.2777404338
0.2777359884
0.2777324536
0.2777295507
0.2777272282
0.2777253283
0.2777237407
0.2777224105
0.2777213479
0.2777206075
0.2777232195
0.2777309716
0.2777344097
0.2777349702
0.2777339999
0.2777322819
0.2777303877
0.2777285258
0.2777267779
0.277725235
0.277723904
0.2777227476
0.2777217874
0.2777209389
0.2777203265
0.2777128148
0.2777155481
0.2777174095
0.2777185405
0.2777190419
0.2777191539
0.2777190142
0.2777187045
0.2777183117
0.2777178788
0.2777174669
0.2777170932
0.2777167668
0.2777165257
0.2777082898
0.2777095858
0.2777108163
0.2777119073
0.2777127725
0.2777134461
0.2777139513
0.2777143175
0.2777146166
0.2777148082
0.2777149952
0.2777150832
0.2777151333
0.2777151474
0.2777061311
0.2777067422
0.2777074376
0.2777081818
0.2777089619
0.2777096784
0.277710342
0.2777109646
0.2777114596
0.2777119275
0.2777123338
0.2777126667
0.2777129326
0.2777131632
0.2777065009
0.2777068006
0.2777071867
0.2777076409
0.2777082221
0.2777088195
0.2777094046
0.277709973
0.2777105668
0.2777110984
0.277711624
0.277712017
0.2777124015
0.2777127688
0.2777130508
0.2777049271
0.2777055442
0.2777063445
0.2777071917
0.2777080151
0.2777087472
0.277709434
0.2777100213
0.2777105823
0.2777109898
0.2777113635
0.2777116686
0.2777119494
0.2777121709
0.2777123245
0.2777043615
0.277705929
0.2777075487
0.2777089934
0.2777102295
0.2777111587
0.2777117957
0.2777122189
0.277712459
0.2777126303
0.2777127107
0.2777127051
0.2777126745
0.2777126543
0.2777125692
0.2777094934
0.2777128862
0.2777156224
0.2777174975
0.2777185631
0.2777190642
0.2777191741
0.2777190352
0.2777187312
0.2777183424
0.2777179286
0.2777175693
0.2777171893
0.2777168291
0.2777165452
0.27771612
0.2777209293
0.2777236795
0.2777248274
0.2777249776
0.2777246393
0.2777240216
0.2777232657
0.2777224927
0.2777217362
0.2777210288
0.2777203384
0.2777197732
0.2777192837
0.2777189587
0.2777102668
0.2777136044
0.2777163709
0.2777182836
0.2777193806
0.2777198788
0.2777200133
0.2777198723
0.2777195759
0.2777191949
0.2777188009
0.2777184357
0.2777180692
0.2777177013
0.2777174283
0.2777066428
0.2777082209
0.2777098867
0.2777113554
0.2777125364
0.277713448
0.2777141255
0.2777145291
0.2777147939
0.2777149162
0.2777149808
0.2777149887
0.2777149228
0.277714916
0.2777149245
0.2777074709
0.2777082221
0.2777090477
0.2777098529
0.2777106299
0.2777113157
0.2777119056
0.2777124176
0.2777128558
0.277713251
0.2777135346
0.2777138104
0.2777140345
0.2777142439
0.2777043388
0.2777047355
0.2777052135
0.2777057682
0.2777063745
0.2777069512
0.2777075581
0.2777081336
0.2777086606
0.2777091574
0.2777095527
0.2777099358
0.2777102437
0.2777104725
0.2777040226
0.2777041875
0.2777043737
0.2777046627
0.2777050012
0.2777054251
0.2777058859
0.2777064006
0.2777069103
0.2777073674
0.2777078518
0.2777083525
0.2777087776
0.2777091354
0.2777094748
0.2777042802
0.2777046026
0.2777050209
0.2777055321
0.2777060674
0.2777065904
0.2777071893
0.2777077679
0.2777083046
0.2777087781
0.2777092537
0.2777096805
0.2777100937
0.2777104546
0.2777107262
0.2777057183
0.2777062963
0.2777070733
0.2777078997
0.2777087241
0.2777095151
0.2777102023
0.2777108011
0.2777113181
0.277711723
0.2777121015
0.2777124332
0.27771266
0.2777129083
0.2777130318
0.2777057739
0.277706985
0.2777082884
0.2777094979
0.2777105311
0.2777113659
0.2777120475
0.2777125241
0.2777129085
0.2777131778
0.2777134266
0.2777135989
0.2777136878
0.2777137658
0.2777138118
0.2777061529
0.2777078198
0.2777093789
0.277710713
0.2777117526
0.2777125221
0.2777131057
0.2777135574
0.2777138009
0.2777139883
0.2777141051
0.2777141851
0.2777142096
0.2777142091
0.2777142101
0.2777068528
0.2777080457
0.2777092858
0.2777104851
0.2777115369
0.277712432
0.2777131852
0.2777136949
0.2777141075
0.2777144463
0.2777146111
0.2777147449
0.2777148657
0.277714944
0.2777149655
0.2777059838
0.2777066202
0.2777073984
0.2777082498
0.2777090491
0.2777098348
0.2777105632
0.2777111665
0.2777116737
0.2777121234
0.2777125368
0.2777128749
0.2777131223
0.2777132915
0.2777134517
0.2777054635
0.2777057623
0.2777062054
0.2777066271
0.2777071782
0.2777077663
0.2777083156
0.2777088345
0.2777093478
0.277709848
0.2777103192
0.2777107595
0.2777111549
0.2777115189
0.2777117862
0.2777032177
0.2777034619
0.2777037829
0.2777041363
0.2777045865
0.2777050803
0.2777055502
0.2777060666
0.2777065502
0.2777070358
0.2777074745
0.2777079228
0.277708319
0.2777086245
0.2777053546
0.2777054273
0.2777055823
0.2777058076
0.2777060572
0.2777063834
0.2777067479
0.2777071619
0.2777076137
0.277708053
0.2777085082
0.277708985
0.2777094318
0.2777098677
0.2777101606
0.2777046495
0.2777047966
0.2777049861
0.2777052643
0.2777056246
0.277706042
0.2777065088
0.2777070148
0.2777075244
0.2777080326
0.2777085215
0.2777089759
0.2777094011
0.2777097695
0.2777100964
0.277705128
0.2777054467
0.2777058603
0.2777063616
0.2777069348
0.2777075475
0.2777081591
0.27770877
0.2777093487
0.2777098856
0.2777104025
0.2777108627
0.2777113156
0.2777116439
0.2777118745
0.277704486
0.2777049616
0.2777055532
0.277706297
0.2777070484
0.2777078119
0.2777085396
0.2777092168
0.2777097886
0.2777102951
0.2777107209
0.2777111008
0.2777114118
0.2777116982
0.2777118824
0.2777058018
0.2777064093
0.2777071379
0.2777079793
0.2777087711
0.2777095409
0.2777102863
0.2777109433
0.2777115137
0.2777120081
0.2777124514
0.2777127841
0.2777130899
0.2777133628
0.2777135555
0.2777040144
0.2777044727
0.2777051157
0.2777058035
0.2777065308
0.2777072668
0.2777079954
0.2777086311
0.2777092383
0.2777097433
0.2777102262
0.2777106384
0.2777110192
0.2777112794
0.2777114674
0.2777050846
0.2777054031
0.2777057577
0.2777062372
0.2777068288
0.2777074277
0.2777080195
0.2777086247
0.2777091594
0.2777096781
0.2777101338
0.2777105782
0.2777109577
0.2777112811
0.277711499
0.2777058089
0.2777059776
0.2777061833
0.277706442
0.2777068116
0.2777072308
0.2777077212
0.2777082332
0.277708725
0.2777092236
0.2777097291
0.2777101782
0.2777105965
0.2777109776
0.2777112832
0.277704878
0.2777049767
0.2777051326
0.2777053423
0.2777055847
0.2777059238
0.2777062997
0.2777067052
0.277707139
0.2777076115
0.2777080749
0.2777085079
0.27770899
0.2777093965
0.2777097213
)
;

boundaryField
{
    top
    {
        type            calculated;
        value           nonuniform List<scalar> 
127
(
0.277704878
0.2777047567
0.2777045295
0.2777056637
0.2777054044
0.2777067093
0.2777061311
0.2777043388
0.2777032177
0.2777049767
0.2777048818
0.2777047622
0.277706037
0.2777060185
0.2777074418
0.2777067422
0.2777047355
0.2777034619
0.2777051326
0.2777050783
0.2777050852
0.2777065309
0.2777066943
0.2777082473
0.2777074376
0.2777052135
0.2777037829
0.2777053423
0.2777053535
0.2777054595
0.2777070523
0.2777074504
0.2777090645
0.2777081818
0.2777057682
0.2777041363
0.2777055847
0.2777056782
0.2777058742
0.2777076464
0.2777082029
0.2777098478
0.2777089619
0.2777063745
0.2777045865
0.2777059238
0.2777060339
0.2777063575
0.2777082534
0.2777089062
0.2777105848
0.2777096784
0.2777069512
0.2777050803
0.2777062997
0.2777064277
0.2777068541
0.2777088655
0.2777095275
0.2777112514
0.277710342
0.2777075581
0.2777055502
0.2777067052
0.2777068529
0.277707356
0.277709415
0.2777101306
0.2777118188
0.2777109646
0.2777081336
0.2777060666
0.277707139
0.2777073332
0.2777078278
0.277709943
0.2777106868
0.2777122936
0.2777114596
0.2777086606
0.2777065502
0.2777076115
0.2777078313
0.2777083111
0.2777104302
0.2777111378
0.2777126962
0.2777119275
0.2777091574
0.2777070358
0.2777080749
0.2777082872
0.2777087633
0.277710895
0.2777115725
0.2777130448
0.2777123338
0.2777095527
0.2777074745
0.2777085079
0.2777087395
0.2777092187
0.2777112993
0.2777118806
0.2777133601
0.2777126667
0.2777099358
0.2777079228
0.27770899
0.2777091744
0.2777095961
0.2777116126
0.27771217
0.2777136089
0.2777129326
0.2777102437
0.277708319
0.2777093965
0.2777094864
0.2777099201
0.2777118965
0.2777123938
0.2777137838
0.2777131632
0.2777104725
0.2777086245
0.2777097213
)
;
    }
    bottom
    {
        type            calculated;
        value           nonuniform List<scalar> 
134
(
0.2777050397
0.2777049621
0.2777063447
0.2777054066
0.2777056123
0.2777065009
0.2777040226
0.2777053546
0.2777044968
0.2777051884
0.2777052495
0.2777068419
0.2777059929
0.2777060966
0.2777068006
0.2777041875
0.2777054273
0.2777046168
0.2777054156
0.2777056592
0.2777074646
0.2777067349
0.2777066825
0.2777071867
0.2777043737
0.2777055823
0.277704829
0.2777057312
0.2777061707
0.2777081683
0.2777075135
0.2777074354
0.2777076409
0.2777046627
0.2777058076
0.2777050974
0.2777060996
0.2777067262
0.2777089066
0.2777083441
0.2777081612
0.2777082221
0.2777050012
0.2777060572
0.2777054074
0.2777065084
0.2777073168
0.2777096653
0.2777090898
0.2777089372
0.2777088195
0.2777054251
0.2777063834
0.2777057791
0.2777069986
0.2777079151
0.2777104009
0.2777098241
0.2777096775
0.2777094046
0.2777058859
0.2777067479
0.2777061866
0.27770746
0.2777085599
0.2777110382
0.2777104526
0.277710338
0.277709973
0.2777064006
0.2777071619
0.2777065886
0.2777079453
0.2777090967
0.2777116484
0.2777110289
0.2777109358
0.2777105668
0.2777069103
0.2777076137
0.2777070511
0.2777084294
0.2777096076
0.277712236
0.2777115826
0.2777114906
0.2777110984
0.2777073674
0.277708053
0.2777075216
0.2777089333
0.2777101253
0.2777126749
0.2777119975
0.2777119564
0.277711624
0.2777078518
0.2777085082
0.277707999
0.2777093738
0.27771058
0.2777130703
0.2777123776
0.2777123342
0.277712017
0.2777083525
0.277708985
0.2777084535
0.277709822
0.2777109877
0.2777133865
0.2777126763
0.27771267
0.2777124015
0.2777087776
0.2777094318
0.2777088526
0.2777102398
0.2777113542
0.2777136603
0.2777129225
0.277712954
0.2777127688
0.2777091354
0.2777098677
0.2777091604
0.2777105502
0.2777116153
0.2777138763
0.2777131127
0.277713168
0.2777130508
0.2777094748
0.2777101606
)
;
    }
    side-walls
    {
        type            calculated;
        value           nonuniform List<scalar> 
261
(
0.2777044968
0.2777041472
0.2777053518
0.2777036737
0.2777054729
0.277707097
0.2777063015
0.2777043404
0.2777047567
0.2777046168
0.2777043743
0.277705762
0.2777043055
0.2777062102
0.2777077146
0.2777067156
0.2777045631
0.2777048818
0.277704829
0.2777046731
0.2777062419
0.2777050088
0.2777070075
0.2777084164
0.2777072287
0.2777048883
0.2777050783
0.2777050974
0.2777050325
0.2777067674
0.2777057863
0.2777078386
0.277709183
0.2777077995
0.2777052931
0.2777053535
0.2777054074
0.2777054759
0.2777073791
0.2777065448
0.2777086436
0.2777099081
0.2777084184
0.2777057395
0.2777056782
0.2777057791
0.2777059342
0.27770801
0.2777071812
0.2777093756
0.2777106518
0.2777090249
0.2777061772
0.2777060339
0.2777061866
0.2777064047
0.2777085922
0.2777078561
0.2777099999
0.2777113288
0.2777096398
0.2777066466
0.2777064277
0.2777065886
0.2777068714
0.2777091563
0.2777084417
0.2777106
0.2777119153
0.2777101609
0.2777071871
0.2777068529
0.2777070511
0.2777074155
0.2777097359
0.277708942
0.2777111357
0.2777124575
0.2777106752
0.2777076816
0.2777073332
0.2777075216
0.2777079082
0.2777102034
0.2777094086
0.2777116026
0.2777128996
0.2777111725
0.2777081368
0.2777078313
0.277707999
0.2777083443
0.2777106406
0.2777097925
0.2777119676
0.2777132979
0.2777116502
0.2777085725
0.2777082872
0.2777084535
0.2777087642
0.277711025
0.2777101213
0.2777122693
0.2777136423
0.2777120634
0.2777090216
0.2777087395
0.2777088526
0.2777091595
0.2777113407
0.2777103959
0.2777125292
0.2777139404
0.2777124234
0.2777093897
0.2777091744
0.2777091604
0.2777094627
0.2777115833
0.2777106058
0.277712709
0.2777141096
0.2777126836
0.2777097183
0.2777094864
0.2777053546
0.2777046495
0.277705128
0.277704486
0.2777058018
0.2777040144
0.2777050846
0.2777058089
0.277704878
0.2777054273
0.2777047966
0.2777054467
0.2777049616
0.2777064093
0.2777044727
0.2777054031
0.2777059776
0.2777049767
0.2777055823
0.2777049861
0.2777058603
0.2777055532
0.2777071379
0.2777051157
0.2777057577
0.2777061833
0.2777051326
0.2777058076
0.2777052643
0.2777063616
0.277706297
0.2777079793
0.2777058035
0.2777062372
0.277706442
0.2777053423
0.2777060572
0.2777056246
0.2777069348
0.2777070484
0.2777087711
0.2777065308
0.2777068288
0.2777068116
0.2777055847
0.2777063834
0.277706042
0.2777075475
0.2777078119
0.2777095409
0.2777072668
0.2777074277
0.2777072308
0.2777059238
0.2777067479
0.2777065088
0.2777081591
0.2777085396
0.2777102863
0.2777079954
0.2777080195
0.2777077212
0.2777062997
0.2777071619
0.2777070148
0.27770877
0.2777092168
0.2777109433
0.2777086311
0.2777086247
0.2777082332
0.2777067052
0.2777076137
0.2777075244
0.2777093487
0.2777097886
0.2777115137
0.2777092383
0.2777091594
0.277708725
0.277707139
0.277708053
0.2777080326
0.2777098856
0.2777102951
0.2777120081
0.2777097433
0.2777096781
0.2777092236
0.2777076115
0.2777085082
0.2777085215
0.2777104025
0.2777107209
0.2777124514
0.2777102262
0.2777101338
0.2777097291
0.2777080749
0.277708985
0.2777089759
0.2777108627
0.2777111008
0.2777127841
0.2777106384
0.2777105782
0.2777101782
0.2777085079
0.2777094318
0.2777094011
0.2777113156
0.2777114118
0.2777130899
0.2777110192
0.2777109577
0.2777105965
0.27770899
0.2777098677
0.2777097695
0.2777116439
0.2777116982
0.2777133628
0.2777112794
0.2777112811
0.2777109776
0.2777093965
0.2777101606
0.2777100964
0.2777118745
0.2777118824
0.2777135555
0.2777114674
0.277711499
0.2777112832
0.2777097213
)
;
    }
    inlet
    {
        type            calculated;
        value           nonuniform 0();
    }
    outlet
    {
        type            calculated;
        value           nonuniform List<scalar> 
81
(
0.2777091604
0.2777094627
0.2777115833
0.2777106058
0.277712709
0.2777141096
0.2777126836
0.2777097183
0.2777094864
0.2777105502
0.2777110424
0.2777117483
0.2777143299
0.2777153461
0.2777127713
0.277710274
0.2777127771
0.2777099201
0.2777116153
0.277712817
0.2777153835
0.2777170214
0.2777174849
0.2777180434
0.2777158628
0.2777132733
0.2777118965
0.2777138763
0.2777149037
0.2777192594
0.2777186929
0.2777205063
0.2777192026
0.2777166156
0.2777136063
0.2777123938
0.2777131127
0.2777153757
0.2777158676
0.2777193148
0.2783303835
0.2777209023
0.2777175957
0.2777153986
0.2777137838
0.277713168
0.2777159365
0.2777179371
0.2777201854
0.2777206075
0.2777203265
0.2777165257
0.2777151474
0.2777131632
0.2777130508
0.2777123245
0.2777125692
0.2777165452
0.2777189587
0.2777174283
0.2777149245
0.2777142439
0.2777104725
0.2777094748
0.2777107262
0.2777130318
0.2777138118
0.2777142101
0.2777149655
0.2777134517
0.2777117862
0.2777086245
0.2777101606
0.2777100964
0.2777118745
0.2777118824
0.2777135555
0.2777114674
0.277711499
0.2777112832
0.2777097213
)
;
    }
    procBoundary1to0
    {
        type            processor;
        value           nonuniform List<scalar> 
97
(
0.2777043689
0.2777043689
0.2777039934
0.277705037
0.2777032005
0.2777048868
0.2777066104
0.277706023
0.2777042163
0.2777046716
0.2777049718
0.2777046554
0.2777046554
0.2777046554
0.2777042831
0.2777061347
0.2777074273
0.2777047267
0.2777028312
0.2777064731
0.2777043701
0.2777047477
0.2777049577
0.2777071551
0.2777071551
0.2777071551
0.2777099344
0.277714568
0.2777109328
0.2777077137
0.277705981
0.2777053317
0.2777060389
0.2777059786
0.2777092391
0.2777216521
0.2777216521
0.2777216521
0.2777575731
0.2777220051
0.2777095737
0.2777055689
0.2777049078
0.2777049901
0.2777060249
0.2777064873
0.2777176054
0.2786504205
0.2786504205
0.2786504205
0.2777578323
0.2777578323
0.2777146458
0.2777074798
0.2777061069
0.2777052759
0.2777071443
0.2777079018
0.2777116442
0.2777188759
0.2777117799
0.2777094483
0.2777094483
0.2777094483
0.2777071548
0.2777056414
0.2777063559
0.2777045053
0.2777032035
0.2777064262
0.2777096328
0.2777072202
0.2777054488
0.2777068473
0.2777068473
0.2777068473
0.2777040669
0.2777039174
0.2777040802
0.2777052925
0.2777049758
0.2777047435
0.2777059901
0.2777055737
0.2777053098
0.2777030203
0.2777030203
0.2777030203
0.2777053066
0.2777045537
0.2777048995
0.2777041701
0.2777053733
0.2777036632
0.2777049057
0.2777056962
0.2777048088
)
;
    }
}


// ************************************************************************* //
