/*--------------------------------*- C++ -*----------------------------------*\
| =========                 |                                                 |
| \\      /  F ield         | OpenFOAM: The Open Source CFD Toolbox           |
|  \\    /   O peration     | Version:  4.x                                   |
|   \\  /    A nd           | Web:      www.OpenFOAM.org                      |
|    \\/     M anipulation  |                                                 |
\*---------------------------------------------------------------------------*/
FoamFile
{
    version     2.0;
    format      ascii;
    class       volVectorField;
    location    "11000";
    object      U;
}
// * * * * * * * * * * * * * * * * * * * * * * * * * * * * * * * * * * * * * //

dimensions      [0 1 -1 0 0 0 0];

internalField   nonuniform List<vector> 
1174
(
(0.01100017265 -6.912091249e-10 -1.52882775e-10)
(0.01100017072 -2.667534904e-09 -2.805427002e-09)
(0.01100017862 -4.483775541e-10 -2.740344922e-09)
(0.01100016919 -1.135009192e-09 -1.638241983e-09)
(0.01100015813 -5.107714129e-10 -2.231109404e-09)
(0.01100014378 4.294682413e-10 1.192108603e-09)
(0.01100012443 -1.069697433e-09 -2.392384159e-10)
(0.01100010575 1.312607672e-09 6.956527196e-10)
(0.01100008299 2.955480579e-09 2.092180782e-09)
(0.01100006117 -1.118830188e-10 2.129480653e-09)
(0.01100003274 2.795533159e-09 3.653449277e-09)
(0.0110000111 1.460454284e-09 1.604906481e-09)
(0.01099999238 1.391536854e-09 2.070591715e-09)
(0.01099996684 5.596094703e-11 1.333000977e-09)
(0.01100018011 -1.537477578e-08 1.431798713e-09)
(0.01100016966 -1.290851021e-08 -1.36149705e-09)
(0.01100017031 -7.743245525e-09 -3.189142345e-09)
(0.01100015672 -3.91361685e-09 -1.693886871e-09)
(0.01100013853 -1.800982804e-09 -1.903560276e-09)
(0.01100011546 2.849992552e-09 6.452589791e-10)
(0.01100009205 3.427565182e-09 8.04161185e-10)
(0.01100007036 3.576157593e-09 6.242605556e-10)
(0.01100003931 4.039677453e-09 -9.529883965e-10)
(0.01100001552 3.661875845e-09 7.043972253e-10)
(0.01099999367 4.530246752e-09 1.600998931e-09)
(0.0109999685 3.887424396e-09 1.227912032e-09)
(0.01099994697 4.78106727e-09 1.285777442e-09)
(0.01099992941 4.805650826e-09 1.26280985e-09)
(0.01100020639 -3.344962532e-09 -9.527765457e-10)
(0.01100016692 -1.014143325e-08 -5.40030472e-09)
(0.01100015791 -6.271669058e-09 -2.830275886e-09)
(0.01100012816 -3.044343873e-09 -1.089550632e-09)
(0.01100009825 1.383979983e-09 2.204977513e-09)
(0.01100006234 2.780943115e-09 6.006491788e-10)
(0.01100002947 4.316890548e-09 2.439080057e-09)
(0.01100000052 4.15961036e-09 -9.230524846e-10)
(0.01099996847 5.483647054e-09 1.262886725e-09)
(0.01099994835 4.923043367e-09 -2.977805128e-10)
(0.01099992333 8.820380289e-09 7.050632877e-11)
(0.01099990062 5.14592589e-09 8.050509947e-10)
(0.01099988541 7.683094861e-09 -8.416610529e-11)
(0.01099986935 5.576120995e-09 -5.850438462e-11)
(0.01100021025 -4.448700779e-09 1.278047629e-08)
(0.01100013419 1.514146224e-09 -7.579447095e-09)
(0.01100012399 6.579631487e-09 -2.799873012e-09)
(0.01100008188 7.187495839e-09 -7.332563525e-10)
(0.01100003888 6.509620211e-09 -4.239148752e-10)
(0.01100000133 7.971663953e-09 1.22240274e-09)
(0.01099996278 5.055271911e-09 3.138711518e-09)
(0.01099993125 4.763329801e-09 2.797769515e-09)
(0.01099990189 3.742349242e-09 1.842589941e-09)
(0.01099988083 4.604701638e-09 3.921547742e-09)
(0.01099985642 2.519589926e-09 2.754004412e-09)
(0.01099983988 5.462081008e-09 4.097235568e-09)
(0.01099982685 4.629731136e-09 4.932438608e-09)
(0.01099981477 4.741909287e-09 2.865846704e-09)
(0.01100028314 1.130348802e-09 3.381286977e-08)
(0.01100013983 1.42402206e-10 8.22235781e-09)
(0.01100010456 3.7950975e-10 7.343923625e-09)
(0.01100005045 1.366355895e-09 8.231820621e-09)
(0.01100000619 -2.600496619e-09 5.635383589e-09)
(0.01099996179 -1.292567151e-09 2.910670286e-09)
(0.0109999264 1.538568738e-09 2.840294144e-09)
(0.01099989681 1.39204335e-09 1.265818451e-09)
(0.01099986943 -5.468127886e-10 1.375036642e-09)
(0.01099984862 1.986664417e-10 4.062289346e-09)
(0.01099983159 5.018747784e-11 1.642165636e-09)
(0.01099981579 6.012154903e-10 7.194883682e-10)
(0.01099980267 1.501679879e-09 7.778256884e-10)
(0.01099979083 2.202888769e-09 5.145744616e-10)
(0.01100020904 3.620877911e-09 1.33756542e-08)
(0.011000135 -2.785874351e-09 -8.449521987e-09)
(0.01100012171 -8.997852496e-09 -3.279801397e-09)
(0.01100008111 -9.127167491e-09 1.299816449e-09)
(0.01100004101 -6.189225535e-09 1.122771796e-09)
(0.01100000113 -5.450269075e-09 2.423934628e-09)
(0.01099996209 -5.08213479e-09 3.02413909e-09)
(0.01099993027 -4.66911557e-09 3.828449498e-09)
(0.01099990129 -4.082215685e-09 3.809175449e-09)
(0.0109998798 -4.175867827e-09 4.080948978e-09)
(0.01099985815 -4.04615782e-09 3.08781319e-09)
(0.01099984147 -2.286446575e-09 3.682614051e-09)
(0.01099982442 -3.326667802e-09 2.645569504e-09)
(0.01099981555 -2.264931064e-09 2.642345811e-09)
(0.01100020414 2.63004353e-09 8.853833781e-10)
(0.01100016692 8.925532633e-09 -4.492422373e-09)
(0.01100015827 4.632362777e-09 -2.510332203e-10)
(0.01100012724 9.685339743e-10 2.096954532e-09)
(0.01100009535 -3.247857169e-10 1.16290887e-09)
(0.01100006299 -2.542707654e-09 2.131313494e-09)
(0.01100002908 -4.981520049e-09 8.216171462e-10)
(0.010999999 -5.092650932e-09 3.011840544e-09)
(0.01099997308 -5.007334898e-09 3.675881619e-09)
(0.01099994757 -4.260917637e-09 4.790736284e-09)
(0.01099992403 -5.950144064e-09 5.493296378e-09)
(0.01099990344 -6.33178011e-09 2.778548695e-09)
(0.01099988541 -6.509505273e-09 4.26112048e-09)
(0.01099986976 -4.456887861e-09 1.563158614e-09)
(0.01100017765 1.372047199e-08 1.766689706e-09)
(0.01100016911 1.174063635e-08 -2.009345168e-09)
(0.01100017135 4.963424242e-09 -2.822890794e-09)
(0.01100015453 2.813209389e-09 -1.621251106e-09)
(0.01100013901 7.032917298e-10 -3.735068564e-09)
(0.01100011728 -1.933493982e-09 -7.936064714e-10)
(0.01100009338 -3.226273425e-09 1.026260088e-09)
(0.01100006892 -3.079004672e-09 2.078241636e-09)
(0.01100004154 -4.508698609e-09 2.916673442e-09)
(0.01100001807 -4.37533097e-09 2.089535027e-09)
(0.01099999386 -4.789771893e-09 2.489793062e-09)
(0.01099997123 -5.224885179e-09 2.111495769e-09)
(0.01099995106 -4.841018403e-09 2.876442178e-09)
(0.01099993005 -4.755582231e-09 1.214443282e-09)
(0.01100016853 2.77785986e-09 1.883321005e-10)
(0.01100017165 4.394619945e-09 -3.400388571e-09)
(0.01100017662 3.475546965e-09 -1.846904421e-09)
(0.01100017021 1.927671723e-09 -1.846204932e-09)
(0.01100015919 2.406433823e-10 -3.258397737e-09)
(0.01100014423 -5.688639653e-12 -2.327330962e-09)
(0.01100012557 3.067036027e-10 -2.132181479e-10)
(0.0110001078 -1.058691991e-09 8.67650938e-10)
(0.01100008218 -2.167093164e-09 2.794906628e-09)
(0.0110000593 -8.218775546e-10 2.02363919e-09)
(0.01100003441 -1.998426971e-09 2.226079233e-09)
(0.01100001357 -3.042858567e-09 1.632768272e-09)
(0.01099999052 -2.286109218e-09 1.874030308e-09)
(0.01099996989 -2.531406158e-09 1.686344574e-09)
(0.01100014541 -1.414113083e-08 -4.267117076e-08)
(0.01100018285 1.195907449e-09 -1.621411911e-08)
(0.01100016762 -3.257216243e-09 -1.235806708e-08)
(0.01100016931 -1.892624181e-09 -6.731112923e-09)
(0.01100015411 -1.563617494e-09 -3.224108612e-09)
(0.01100013991 4.902981819e-10 -6.832073462e-10)
(0.01100011501 -2.688158827e-10 1.351614058e-09)
(0.0110000913 7.683159686e-10 2.068345632e-09)
(0.01100006832 1.139361162e-09 3.927554628e-09)
(0.01100004225 1.382068254e-09 3.254157985e-09)
(0.01100001745 2.221678517e-09 5.058650457e-09)
(0.0109999948 3.887745042e-09 4.781389089e-09)
(0.01099996954 3.469828064e-09 5.918029328e-09)
(0.01099994856 1.965300563e-09 5.209382373e-09)
(0.01099992643 2.797073606e-09 5.100293994e-09)
(0.01100019388 -1.089428546e-08 -1.279891241e-08)
(0.01100015287 -1.333504745e-08 -1.661357853e-08)
(0.0110001458 -5.604560826e-09 -7.753225516e-09)
(0.01100012216 1.170556228e-09 -1.839949544e-09)
(0.01100009433 2.545530841e-09 2.049848353e-09)
(0.01100006385 5.205610035e-09 3.330780766e-09)
(0.01100003577 6.745948757e-09 5.657291286e-09)
(0.01100000701 6.984086413e-09 5.205214851e-09)
(0.01099998118 7.337528594e-09 6.292616729e-09)
(0.01099995772 6.810368899e-09 5.041040758e-09)
(0.01099993365 6.648619764e-09 4.434442333e-09)
(0.01099991597 5.255283522e-09 4.735036149e-09)
(0.01099989738 7.137662978e-09 6.648639968e-09)
(0.01099988118 5.980389369e-09 5.964549761e-09)
(0.01100022478 9.571470283e-09 -1.746256878e-08)
(0.01100012533 -1.69353355e-08 -1.646319159e-08)
(0.01100009688 -6.87147552e-09 4.226055999e-09)
(0.01100004527 3.171562948e-10 9.761405678e-09)
(0.01099999949 3.171053535e-09 1.377539473e-08)
(0.01099996069 4.921489177e-09 1.248615353e-08)
(0.01099992382 6.934984507e-09 1.233229477e-08)
(0.01099989939 7.804467321e-09 1.263701833e-08)
(0.01099987374 1.001669232e-08 1.036235278e-08)
(0.01099985646 9.81376516e-09 1.02786572e-08)
(0.0109998395 8.304876541e-09 9.088499368e-09)
(0.01099982847 9.894594333e-09 8.220790655e-09)
(0.01099981698 9.992189301e-09 9.1976235e-09)
(0.01099980987 6.173892502e-09 7.495504136e-09)
(0.01100019637 3.114910433e-08 2.212101661e-08)
(0.01100001416 1.555942378e-08 -1.850846806e-08)
(0.01099999238 1.700370074e-08 9.723209125e-09)
(0.01099992697 1.661803901e-08 1.804716637e-08)
(0.01099987498 1.487514192e-08 1.820910491e-08)
(0.01099983583 1.364859425e-08 1.894971695e-08)
(0.01099980425 1.026415123e-08 1.944445325e-08)
(0.01099978173 7.952399176e-09 1.710623636e-08)
(0.01099976782 7.099728341e-09 1.481439277e-08)
(0.01099975914 6.064342292e-09 1.230261175e-08)
(0.01099974821 5.594346614e-09 9.711791621e-09)
(0.01099974646 4.490320803e-09 9.550292191e-09)
(0.01099974287 5.379711782e-09 1.014102672e-08)
(0.01099974193 6.325745915e-09 8.703727384e-09)
(0.01100032087 1.352625024e-10 1.313756892e-07)
(0.01099994949 -4.472542792e-10 6.539772998e-08)
(0.01099991019 -7.083256873e-10 7.015763329e-08)
(0.0109998377 5.589056987e-10 5.884787155e-08)
(0.01099978944 -2.863560608e-09 4.357198959e-08)
(0.01099975702 -2.153175802e-09 3.215458926e-08)
(0.01099973723 4.891226809e-10 2.555787978e-08)
(0.01099972638 1.760882273e-09 2.018530659e-08)
(0.01099971726 -4.540735701e-10 1.689928076e-08)
(0.01099971401 3.552361239e-11 1.326864698e-08)
(0.01099971171 3.33310111e-10 1.2058309e-08)
(0.01099971055 1.211271176e-10 9.477549794e-09)
(0.01099971242 -1.09838875e-09 8.697745243e-09)
(0.01099971398 9.18164199e-10 6.808238723e-09)
(0.01100019135 -3.039108954e-08 1.901816883e-08)
(0.01100001624 -1.634477727e-08 -1.761335057e-08)
(0.01099999254 -1.823902848e-08 8.809002017e-09)
(0.01099992265 -1.923439815e-08 1.816431505e-08)
(0.01099987216 -1.386047281e-08 2.055683588e-08)
(0.01099983607 -1.203577334e-08 1.84371076e-08)
(0.01099980209 -9.635697386e-09 1.843158928e-08)
(0.01099978281 -8.014566704e-09 1.659731635e-08)
(0.01099976821 -6.571055567e-09 1.404254697e-08)
(0.01099975776 -5.532209751e-09 1.272856292e-08)
(0.01099975091 -4.874866642e-09 1.153214636e-08)
(0.0109997465 -4.514860664e-09 8.404211956e-09)
(0.01099974525 -4.507078381e-09 8.256926307e-09)
(0.01099974347 -3.834774699e-09 8.299797429e-09)
(0.01100021979 -1.03889519e-08 -1.504663401e-08)
(0.01100012527 1.703812263e-08 -1.237981211e-08)
(0.01100009775 6.501543452e-09 5.014760304e-09)
(0.01100004486 -5.399203283e-11 9.497558662e-09)
(0.01099999931 -1.647040274e-09 1.154493068e-08)
(0.01099996164 -4.326787281e-09 1.188556388e-08)
(0.01099992528 -7.516015197e-09 1.25641686e-08)
(0.01099989777 -8.501905932e-09 1.171458556e-08)
(0.01099987364 -8.07957339e-09 1.126788379e-08)
(0.01099985745 -8.220129609e-09 1.097417327e-08)
(0.01099984166 -6.077868734e-09 8.623650985e-09)
(0.01099982842 -7.062919325e-09 8.387489536e-09)
(0.01099981505 -6.613819182e-09 8.073757447e-09)
(0.01099980808 -7.074378161e-09 7.506245877e-09)
(0.01100019151 1.29395307e-08 -1.122517209e-08)
(0.0110001521 1.50219958e-08 -1.255413065e-08)
(0.01100014753 5.643753926e-09 -3.554418948e-09)
(0.01100012274 9.257032548e-10 -1.145383339e-09)
(0.01100009658 -2.153811042e-09 1.108303642e-09)
(0.01100006547 -4.235554051e-09 2.472673528e-09)
(0.01100003329 -6.26339071e-09 6.665067955e-09)
(0.01100000767 -6.614502279e-09 4.502655786e-09)
(0.0109999827 -6.885170048e-09 6.539596374e-09)
(0.01099995822 -5.743407641e-09 7.785391559e-09)
(0.01099993667 -8.553858251e-09 8.230408147e-09)
(0.01099991378 -6.551963679e-09 5.698052981e-09)
(0.01099989992 -7.295093583e-09 6.827303457e-09)
(0.01099988453 -5.860319747e-09 4.462608632e-09)
(0.01100018034 1.134178324e-10 -1.494635297e-08)
(0.01100016569 2.55504635e-09 -1.106689207e-08)
(0.01100016988 3.675110322e-09 -5.241689915e-09)
(0.01100015549 2.093010699e-09 -1.304523768e-09)
(0.0110001387 1.141065337e-09 -4.468914913e-10)
(0.01100011535 -2.734004595e-10 1.173818261e-09)
(0.01100009207 -1.571533992e-09 2.327192068e-09)
(0.01100006787 -1.146869516e-09 3.062450505e-09)
(0.01100004204 -2.340545802e-09 3.464072124e-09)
(0.01100001559 -3.276196483e-09 4.759515262e-09)
(0.01099999597 -3.54917396e-09 5.738505608e-09)
(0.01099996962 -3.458809394e-09 5.941495091e-09)
(0.01099995163 -2.181738149e-09 4.621328418e-09)
(0.01099993135 -2.949063711e-09 4.181241478e-09)
(0.0110001561 -2.844109026e-08 -5.011664568e-08)
(0.01100020623 6.784249739e-09 -4.819888853e-09)
(0.01100016763 -3.15412749e-09 -1.097078449e-08)
(0.01100015908 7.620174782e-11 -3.875072069e-09)
(0.01100012601 3.008410987e-09 -1.996284322e-09)
(0.0110000945 2.825887808e-10 -9.942962675e-10)
(0.01100006341 4.943149023e-09 1.105300302e-09)
(0.01100002898 5.463849448e-09 2.48799039e-09)
(0.01099999953 4.121371545e-09 3.538209923e-09)
(0.01099997361 6.098076616e-09 5.139800385e-09)
(0.01099994452 3.245479442e-09 4.880854085e-09)
(0.01099992321 4.724478617e-09 6.311011572e-09)
(0.01099990221 5.89950622e-09 2.439820922e-09)
(0.01099988537 5.49820895e-09 5.512252388e-09)
(0.01099986645 4.916483957e-09 6.27747001e-09)
(0.01100017182 -1.495872863e-07 -7.607195072e-08)
(0.01100021959 -1.464596132e-08 7.505689487e-09)
(0.01100012509 -1.312235694e-08 -1.793900959e-08)
(0.01100009928 6.378640423e-09 -7.38307141e-09)
(0.01100004464 1.068799886e-08 -2.007477389e-09)
(0.01100000056 1.259074761e-08 1.45203624e-09)
(0.01099996113 1.417941249e-08 4.735636705e-09)
(0.01099992388 1.43190303e-08 5.954653868e-09)
(0.01099989698 1.394203458e-08 6.96323419e-09)
(0.01099987383 1.219020315e-08 7.716885666e-09)
(0.01099985518 1.078407798e-08 5.883310874e-09)
(0.01099984143 8.544146966e-09 5.808949864e-09)
(0.01099983017 7.929993288e-09 6.168804337e-09)
(0.01099981733 9.916734536e-09 7.458320687e-09)
(0.01099981143 7.897386225e-09 6.339925624e-09)
(0.01100026649 3.261158898e-08 2.801350201e-08)
(0.01100001384 -1.439915992e-08 -1.602849223e-08)
(0.01099993679 8.321641579e-09 6.801172965e-09)
(0.01099984196 1.657541586e-08 1.429207832e-08)
(0.01099978141 1.914735775e-08 1.564257561e-08)
(0.01099974498 1.846838844e-08 1.815341984e-08)
(0.01099971894 1.68174585e-08 1.537717242e-08)
(0.01099970958 1.367466254e-08 1.388900093e-08)
(0.0109997019 1.35127637e-08 1.275284752e-08)
(0.01099970024 1.321233147e-08 1.056039107e-08)
(0.01099970343 1.223787591e-08 7.939371334e-09)
(0.01099970596 9.742773232e-09 6.349150914e-09)
(0.01099971123 1.261836863e-08 6.908040754e-09)
(0.01099971413 7.966540717e-09 6.219003633e-09)
(0.01100011962 1.41859441e-07 1.181098428e-07)
(0.01099965428 8.229362467e-08 -6.424316007e-08)
(0.0109996085 7.491472258e-08 9.623159039e-10)
(0.01099951433 5.737038313e-08 2.348608673e-08)
(0.0109994785 3.977963305e-08 2.588806992e-08)
(0.01099947468 2.740896486e-08 2.425551088e-08)
(0.01099948245 1.811272433e-08 2.080145023e-08)
(0.01099950319 1.497667431e-08 1.781668397e-08)
(0.0109995255 1.040534048e-08 1.462522654e-08)
(0.01099954867 8.09721071e-09 1.303052993e-08)
(0.01099956886 7.960967848e-09 1.097754446e-08)
(0.01099959092 6.899032141e-09 6.221331424e-09)
(0.01099961078 7.173410753e-09 8.953191052e-09)
(0.01099962615 7.221549392e-09 9.164427062e-09)
(0.01100033277 -4.384461799e-10 6.308584284e-07)
(0.01099927835 6.978397044e-10 8.438482278e-08)
(0.01099927228 -6.155167764e-10 9.354486663e-08)
(0.01099923739 -7.691159542e-10 8.096215003e-08)
(0.01099925839 -1.339131232e-09 5.632749005e-08)
(0.01099930208 -1.989658632e-10 4.09512614e-08)
(0.01099935006 1.308213849e-09 3.019319549e-08)
(0.01099939733 5.792811632e-10 2.334358816e-08)
(0.01099943901 5.24119133e-10 1.658927286e-08)
(0.01099948172 9.234619337e-10 1.306688749e-08)
(0.01099951249 1.178329814e-09 1.124280219e-08)
(0.0109995427 -5.128659852e-11 8.639563594e-09)
(0.01099956822 -6.196474096e-10 1.093783722e-08)
(0.01099959343 7.042132043e-10 8.627706035e-09)
(0.01100011952 -1.416377785e-07 1.181685993e-07)
(0.01099965428 -8.126516476e-08 -6.505993639e-08)
(0.01099960701 -7.488793664e-08 2.030708272e-09)
(0.01099951477 -5.787098439e-08 2.221976338e-08)
(0.01099948074 -4.185370147e-08 2.475510527e-08)
(0.01099947463 -2.914415975e-08 2.552399654e-08)
(0.01099948326 -2.068850502e-08 2.18009447e-08)
(0.01099950171 -1.389230591e-08 1.88981731e-08)
(0.01099952488 -1.031948756e-08 1.483500216e-08)
(0.01099954884 -7.137303489e-09 1.268344755e-08)
(0.01099956978 -6.513196342e-09 1.103573606e-08)
(0.01099959106 -4.301997193e-09 9.636309057e-09)
(0.01099961201 -5.96708866e-09 1.176184917e-08)
(0.01099962789 -4.363510978e-09 7.629655614e-09)
(0.01100026481 -2.899364468e-08 2.845684595e-08)
(0.01100001063 1.465790862e-08 -1.551808499e-08)
(0.01099993525 -7.83033758e-09 8.935783156e-09)
(0.01099984114 -1.695924788e-08 1.710396188e-08)
(0.01099978175 -1.907629497e-08 1.825175163e-08)
(0.01099974736 -1.804894612e-08 1.632777048e-08)
(0.01099972004 -1.645583893e-08 1.558963047e-08)
(0.01099970906 -1.549298905e-08 1.388711841e-08)
(0.01099970099 -1.327209202e-08 1.388202142e-08)
(0.01099970291 -1.133973623e-08 1.121394101e-08)
(0.01099970208 -1.002876735e-08 1.003958722e-08)
(0.01099970632 -7.611608119e-09 8.264703126e-09)
(0.01099971101 -1.046086923e-08 9.622349535e-09)
(0.0109997127 -8.426342011e-09 7.514425833e-09)
(0.01100021995 1.622602581e-08 8.510792499e-09)
(0.01100012513 1.416195559e-08 -1.776385918e-08)
(0.01100009539 -4.100562927e-09 -7.115978474e-09)
(0.01100004416 -1.105146001e-08 -3.476604576e-10)
(0.01100000056 -1.183925597e-08 1.647989519e-09)
(0.01099996267 -1.193501781e-08 4.611435541e-09)
(0.01099992491 -1.146841941e-08 5.911959398e-09)
(0.01099989826 -1.174719383e-08 6.728783371e-09)
(0.01099987383 -1.163514317e-08 6.492607757e-09)
(0.01099985849 -1.017264448e-08 7.156941911e-09)
(0.01099984347 -9.185427646e-09 6.634086164e-09)
(0.01099982624 -7.969256242e-09 8.061968297e-09)
(0.01099981793 -8.427677629e-09 6.505866524e-09)
(0.01099981022 -8.829776733e-09 6.519023788e-09)
(0.01100020452 -1.289315299e-09 -5.490580995e-09)
(0.01100016685 4.700191171e-09 -1.185396084e-08)
(0.01100015585 1.918815907e-09 -4.75693016e-09)
(0.01100012681 -2.024591581e-10 -3.0231667e-09)
(0.01100009743 1.810175893e-10 -1.681982504e-09)
(0.01100006303 -1.001532263e-09 1.711335297e-09)
(0.01100002819 -4.020000809e-09 4.587693297e-09)
(0.01099999977 -3.461958428e-09 1.96629903e-09)
(0.01099997169 -3.758809476e-09 5.429705534e-09)
(0.01099994843 -3.105036276e-09 4.693521608e-09)
(0.01099992404 -2.964031347e-09 5.127776456e-09)
(0.01099990088 -3.067459442e-09 6.485494603e-09)
(0.01099988761 -2.215362e-09 5.709067921e-09)
(0.0109998689 -1.860226644e-09 5.068990076e-09)
(0.01100017031 -3.789344843e-08 -8.962437243e-08)
(0.01100021182 1.467873722e-08 -6.27793319e-09)
(0.01100013697 -8.921142605e-09 -8.023121244e-11)
(0.01100012099 -4.191494823e-09 5.138447692e-09)
(0.01100007907 5.089645327e-10 9.580046105e-09)
(0.01100003708 5.375961013e-09 6.735358664e-09)
(0.01099999795 6.092645317e-09 6.100242181e-09)
(0.01099996375 6.479391508e-09 4.922497099e-09)
(0.010999932 6.120165304e-09 3.998369536e-09)
(0.01099990155 4.840845153e-09 3.43256354e-09)
(0.01099987778 3.473587761e-09 2.37653128e-09)
(0.01099985643 4.391946486e-09 2.689828829e-09)
(0.0109998409 4.885304079e-09 3.537798551e-09)
(0.01099982801 5.23817436e-09 3.782525028e-09)
(0.01099981355 3.31499966e-09 3.691432778e-09)
(0.01100019314 -2.127436904e-07 -1.762889356e-07)
(0.01100019712 2.081820272e-08 2.609392142e-08)
(0.01100001806 -1.76982425e-08 1.406947604e-08)
(0.0109999915 9.14060153e-09 1.752765965e-08)
(0.01099992558 1.772883286e-08 1.764433802e-08)
(0.01099987439 2.09508285e-08 1.353358917e-08)
(0.01099983434 2.08421065e-08 1.206682849e-08)
(0.01099980154 1.959539657e-08 9.655438558e-09)
(0.01099978049 1.760498212e-08 6.123270333e-09)
(0.01099976711 1.616220114e-08 6.239891722e-09)
(0.01099975871 1.311593353e-08 4.657793424e-09)
(0.01099975049 9.978084411e-09 5.100364943e-09)
(0.01099974602 1.065831273e-08 4.71498625e-09)
(0.01099974343 1.00596462e-08 4.090548299e-09)
(0.01099974436 8.659190257e-09 4.967098191e-09)
(0.01100020794 -2.390408692e-07 -5.240841701e-07)
(0.01100012096 1.212619961e-07 1.379455415e-07)
(0.01099965432 -6.198384852e-08 8.06357099e-08)
(0.01099960784 1.707983619e-09 7.255588312e-08)
(0.01099951531 2.424845645e-08 5.788393727e-08)
(0.01099947856 2.687061394e-08 3.927431156e-08)
(0.01099947337 2.551096079e-08 2.60754234e-08)
(0.01099948156 2.31633805e-08 1.851014007e-08)
(0.01099950176 1.963894758e-08 1.296858777e-08)
(0.01099952382 1.701738595e-08 9.915851176e-09)
(0.01099954771 1.567138407e-08 6.936000033e-09)
(0.01099956965 1.35725981e-08 4.368541762e-09)
(0.01099959034 9.65160468e-09 5.467174342e-09)
(0.01099960978 1.217069431e-08 5.421257101e-09)
(0.01099962832 1.002647261e-08 5.064336294e-09)
(0.01099922222 6.360658272e-07 6.333553436e-07)
(0.01099856599 1.165934762e-07 1.162740782e-07)
(0.01099881287 1.051802379e-07 1.045545114e-07)
(0.01099881662 8.696568357e-08 8.593744649e-08)
(0.01099890231 5.705010531e-08 5.675683256e-08)
(0.01099900481 3.939494881e-08 3.821207084e-08)
(0.01099910141 2.565705173e-08 2.542030286e-08)
(0.01099919338 1.787150732e-08 1.894785159e-08)
(0.01099926745 1.360428153e-08 1.349875773e-08)
(0.01099933752 1.123034598e-08 8.566190327e-09)
(0.01099939237 8.861597507e-09 6.930583049e-09)
(0.01099944818 8.584149807e-09 6.955201841e-09)
(0.01099948551 8.714487299e-09 5.952555061e-09)
(0.01099952158 7.97563401e-09 4.469297574e-09)
(0.010998525 -8.059475035e-10 3.835531048e-06)
(0.0109968236 3.514815704e-10 1.023864663e-06)
(0.01099785805 5.987932543e-10 4.369828198e-07)
(0.01099817464 1.351282533e-10 2.399561168e-07)
(0.01099845569 -5.724457971e-10 1.20475423e-07)
(0.01099869864 6.791714916e-10 6.361184168e-08)
(0.01099888192 2.016699292e-09 3.614497972e-08)
(0.01099903253 1.866686146e-09 2.048179008e-08)
(0.0109991467 7.179246108e-10 1.390394676e-08)
(0.01099924142 2.81216388e-10 8.98195698e-09)
(0.01099931757 1.528143054e-09 6.674301653e-09)
(0.01099938513 2.227993114e-09 7.656032136e-09)
(0.01099943283 1.004875546e-09 7.781277921e-09)
(0.01099948241 -6.563346654e-10 5.500225765e-09)
(0.0109992212 -6.351318591e-07 6.334073909e-07)
(0.01099856473 -1.166861582e-07 1.144270759e-07)
(0.01099881277 -1.053479237e-07 1.064663247e-07)
(0.01099881966 -8.724729501e-08 8.642770318e-08)
(0.0109988994 -5.685375371e-08 5.858948349e-08)
(0.01099900555 -3.916620457e-08 3.937437752e-08)
(0.01099909898 -2.655161898e-08 2.668634867e-08)
(0.01099919166 -1.933886789e-08 1.742692625e-08)
(0.01099926651 -1.357990606e-08 1.229175949e-08)
(0.01099933822 -9.383050708e-09 1.03254602e-08)
(0.01099939458 -7.973295347e-09 8.16191706e-09)
(0.0109994457 -6.299640526e-09 6.374175821e-09)
(0.0109994845 -6.760260301e-09 7.249703164e-09)
(0.01099952487 -5.373283871e-09 5.548911217e-09)
(0.01100012132 -1.202046284e-07 1.405578622e-07)
(0.01099965292 6.375545761e-08 7.947742559e-08)
(0.01099960642 -1.496840065e-09 7.354788672e-08)
(0.01099951357 -2.406346975e-08 5.692888349e-08)
(0.01099947745 -2.821894588e-08 3.928384997e-08)
(0.01099947307 -2.650281986e-08 2.927222552e-08)
(0.01099948313 -2.344173316e-08 1.897565038e-08)
(0.0109995024 -1.954389639e-08 1.240147648e-08)
(0.01099952423 -1.526329158e-08 1.006536285e-08)
(0.01099954826 -1.272735027e-08 6.56432499e-09)
(0.01099956715 -1.014449599e-08 8.158979009e-09)
(0.01099959228 -8.694927386e-09 6.25156348e-09)
(0.01099960998 -9.654709636e-09 4.993390694e-09)
(0.01099963007 -9.691707677e-09 5.236179378e-09)
(0.01100019542 -2.053234581e-08 2.766999839e-08)
(0.0110000131 1.751754358e-08 1.53801255e-08)
(0.0109999906 -1.025753828e-08 1.789434755e-08)
(0.0109999236 -1.798476968e-08 1.692788595e-08)
(0.0109998723 -1.967350741e-08 1.326658146e-08)
(0.01099983464 -1.972190217e-08 1.246814944e-08)
(0.01099980203 -1.951874778e-08 9.159323643e-09)
(0.01099978457 -1.732758024e-08 7.743938172e-09)
(0.01099976857 -1.449608103e-08 5.95255972e-09)
(0.01099975807 -1.334460882e-08 4.254263005e-09)
(0.01099975116 -1.14204433e-08 5.547980132e-09)
(0.01099974504 -1.077821689e-08 4.159856333e-09)
(0.01099974398 -1.053903737e-08 6.661457098e-09)
(0.01099974127 -7.810480938e-09 4.042759108e-09)
(0.01100020954 -1.350879334e-08 -6.009050652e-09)
(0.01100013592 8.084058193e-09 1.926141248e-10)
(0.01100012281 2.40964266e-09 4.987327423e-09)
(0.01100007896 -1.637918442e-09 7.888082981e-09)
(0.0110000394 -8.586307795e-10 6.964294654e-09)
(0.01099999835 -3.175463399e-09 5.681937538e-09)
(0.01099996293 -2.897611452e-09 2.991009739e-09)
(0.01099993329 -4.341251669e-09 5.143394033e-09)
(0.01099990171 -4.10938863e-09 5.013353458e-09)
(0.01099987773 -3.82010832e-09 4.317869552e-09)
(0.01099985815 -4.70030523e-09 4.09082303e-09)
(0.01099984195 -4.098723551e-09 2.396987483e-09)
(0.01099982753 -4.597752736e-09 4.142913036e-09)
(0.0109998135 -3.858799879e-09 3.479026106e-09)
(0.01100020648 -1.119624078e-07 6.370788234e-11)
(0.01100028347 3.91119924e-08 -1.229738391e-10)
(0.01100013963 8.901410056e-09 -1.110120564e-09)
(0.01100010534 1.121575394e-08 -1.118044882e-09)
(0.01100004972 1.080296848e-08 -9.102705691e-10)
(0.01100000294 1.06106453e-08 -9.713885237e-10)
(0.01099996252 9.450167197e-09 -7.271918762e-10)
(0.01099992681 8.61696406e-09 1.625025412e-10)
(0.01099989652 7.599627773e-09 -4.840110822e-10)
(0.01099987043 6.741394265e-09 -2.187654333e-09)
(0.01099984613 4.28262329e-09 -8.079379728e-10)
(0.01099982972 4.864129489e-09 -3.097110516e-09)
(0.01099981466 5.417336509e-09 -2.177414022e-09)
(0.01099980331 6.458260542e-09 -1.139406234e-09)
(0.0109997943 5.581381617e-09 -1.373507769e-10)
(0.01100028246 -5.737890736e-07 -1.707192715e-09)
(0.01100032209 1.329412066e-07 -1.048869996e-09)
(0.01099995338 6.744855593e-08 -2.358903626e-09)
(0.0109999091 7.150842003e-08 -2.214826698e-09)
(0.01099983608 5.926897749e-08 3.947607957e-10)
(0.01099978642 4.451219793e-08 -3.757829914e-09)
(0.01099975693 3.362552458e-08 -1.894939631e-09)
(0.0109997364 2.622626525e-08 -2.391532649e-09)
(0.01099972348 2.026685956e-08 2.956364779e-11)
(0.01099971879 1.55391167e-08 -7.319245025e-10)
(0.01099971397 1.448964533e-08 1.728090128e-09)
(0.01099970943 1.285844078e-08 -1.080364089e-09)
(0.01099971092 1.107464692e-08 -1.628587345e-09)
(0.01099971375 9.814587043e-09 5.574497539e-10)
(0.01099971703 8.387697906e-09 3.562640563e-10)
(0.01100036563 -9.941329093e-07 -1.149784885e-09)
(0.01100033423 6.353467999e-07 -8.182530623e-10)
(0.01099927745 8.752031456e-08 -7.153747165e-10)
(0.01099927364 9.415866758e-08 -7.817310618e-10)
(0.010999237 8.258908291e-08 2.436133659e-10)
(0.01099925491 6.077365927e-08 -9.934517388e-10)
(0.01099930115 4.350388952e-08 -2.419025153e-09)
(0.01099935015 3.178994802e-08 -1.155962909e-09)
(0.01099939563 2.619403882e-08 -9.250789888e-10)
(0.01099943907 1.963039195e-08 -1.435507595e-09)
(0.01099947819 1.530894395e-08 -8.750418636e-10)
(0.01099951275 1.378071118e-08 -3.6370972e-10)
(0.01099954201 1.151157985e-08 -1.813308028e-09)
(0.01099956856 1.182603681e-08 4.567954659e-11)
(0.01099959314 1.016626565e-08 1.381293809e-09)
(0.01099895058 -4.996003347e-06 -4.614941486e-10)
(0.01099852156 3.836313143e-06 -1.135064919e-09)
(0.01099682352 1.025444654e-06 -1.714099581e-09)
(0.01099785554 4.377443451e-07 -5.430123777e-10)
(0.01099817322 2.412614102e-07 -7.877200234e-11)
(0.0109984555 1.214588055e-07 -4.384417087e-10)
(0.01099869707 6.444281916e-08 4.600329844e-10)
(0.01099888222 3.611667729e-08 1.305177822e-09)
(0.0109990292 2.329348738e-08 1.359555729e-10)
(0.0109991449 1.504040897e-08 -4.841800718e-10)
(0.01099923912 1.049079642e-08 -2.703590173e-10)
(0.0109993169 9.473715998e-09 7.105846898e-10)
(0.01099938519 9.322505271e-09 1.007870235e-09)
(0.01099943245 9.888806876e-09 -1.8316398e-10)
(0.01099948321 7.288187282e-09 1.440148249e-09)
(0.0109972615 -4.087427244e-10 -2.294855194e-09)
(0.01099037695 -4.052484788e-10 -1.37612976e-09)
(0.01099531241 1.059957168e-09 -1.589637151e-09)
(0.01099690891 6.61512519e-10 -1.258815157e-09)
(0.01099772464 -1.070766192e-09 -6.642775394e-10)
(0.01099825725 -1.49911868e-10 -2.038114248e-09)
(0.01099859865 -7.407747311e-10 -1.724526275e-09)
(0.01099883486 -1.851424742e-09 2.2798494e-11)
(0.01099900333 -1.004529549e-09 4.186417998e-10)
(0.01099913395 2.033201809e-09 1.269106923e-09)
(0.01099923248 3.132238732e-09 6.033827298e-10)
(0.01099931531 8.901090779e-10 -1.496688498e-10)
(0.01099937732 1.219475849e-09 -1.256153553e-09)
(0.01099943964 1.168992759e-10 3.570989926e-11)
(0.01099852377 -3.836122327e-06 -8.83968266e-10)
(0.01099682266 -1.025431795e-06 -1.622426267e-09)
(0.01099785419 -4.389400504e-07 -5.86603827e-10)
(0.01099817252 -2.418987499e-07 -2.084663687e-09)
(0.01099845634 -1.215733486e-07 -3.652739245e-10)
(0.01099869749 -6.337044173e-08 3.658759855e-10)
(0.01099888102 -3.543810345e-08 -2.871763513e-10)
(0.01099902809 -2.261588875e-08 -4.716423333e-10)
(0.01099914886 -1.576588575e-08 -4.277859648e-10)
(0.01099924251 -1.017831698e-08 -6.006117894e-11)
(0.01099931517 -8.787294329e-09 -6.047692545e-11)
(0.01099938161 -6.167292315e-09 3.964193717e-10)
(0.01099943353 -7.637890475e-09 -8.35920117e-11)
(0.01099948109 -5.48222158e-09 -1.112081346e-10)
(0.01100033109 -6.333054788e-07 -8.445636315e-10)
(0.01099927442 -8.547312487e-08 -5.372175743e-10)
(0.01099927082 -9.477795088e-08 -2.585792833e-09)