/*--------------------------------*- C++ -*----------------------------------*\
| =========                 |                                                 |
| \\      /  F ield         | OpenFOAM: The Open Source CFD Toolbox           |
|  \\    /   O peration     | Version:  4.x                                   |
|   \\  /    A nd           | Web:      www.OpenFOAM.org                      |
|    \\/     M anipulation  |                                                 |
\*---------------------------------------------------------------------------*/
FoamFile
{
    version     2.0;
    format      ascii;
    class       volScalarField;
    location    "11000";
    object      X_CO2;
}
// * * * * * * * * * * * * * * * * * * * * * * * * * * * * * * * * * * * * * //

dimensions      [0 0 0 0 0 0 0];

internalField   nonuniform List<scalar> 
1174
(
0.03999560291
0.03999630075
0.03999728455
0.03999856571
0.04000012973
0.04000194125
0.04000395135
0.04000610476
0.04000834573
0.04001062197
0.04001288536
0.04001508492
0.04001713073
0.04001873581
0.03999625711
0.0399973734
0.03999885745
0.04000067375
0.04000275882
0.04000503621
0.04000742876
0.04000986653
0.0400122908
0.040014655
0.04001692258
0.0400190583
0.04002099441
0.04002248668
0.03999770047
0.03999966964
0.04000210176
0.04000485835
0.04000779051
0.04001076517
0.04001367755
0.04001645345
0.04001904616
0.04002143069
0.04002359687
0.04002553883
0.04002722627
0.04002848782
0.03999981207
0.04000286638
0.04000636624
0.04001005446
0.04001371781
0.040017204
0.0400204186
0.04002331375
0.04002587521
0.04002811083
0.04003004099
0.04003168858
0.04003305741
0.04003404627
0.04000131693
0.04000496561
0.04000893855
0.04001295509
0.04001681324
0.04002038489
0.04002360115
0.04002643634
0.04002889407
0.04003099606
0.04003277347
0.04003425848
0.04003546648
0.04003632427
0.03999981203
0.04000286632
0.04000636616
0.04001005437
0.04001371771
0.04001720389
0.04002041849
0.04002331364
0.0400258751
0.04002811072
0.04003004088
0.04003168848
0.04003305731
0.04003404617
0.03999770044
0.03999966959
0.04000210169
0.04000485827
0.04000779042
0.04001076507
0.04001367744
0.04001645333
0.04001904604
0.04002143057
0.04002359673
0.04002553869
0.04002722613
0.04002848768
0.03999625708
0.03999737337
0.0399988574
0.0400006737
0.04000275875
0.04000503612
0.04000742866
0.04000986642
0.04001229068
0.04001465488
0.04001692244
0.04001905816
0.04002099426
0.04002248652
0.03999560289
0.03999630072
0.03999728452
0.03999856568
0.04000012968
0.04000194119
0.04000395128
0.04000610468
0.04000834564
0.04001062186
0.04001288524
0.04001508479
0.04001713059
0.04001873566
0.03999550213
0.0399962571
0.03999737339
0.03999885743
0.04000067373
0.04000275879
0.04000503617
0.04000742872
0.04000986649
0.04001229076
0.04001465496
0.04001692254
0.04001905826
0.04002099437
0.04002248664
0.03999772932
0.03999968482
0.04000206505
0.04000472584
0.04000752321
0.0400103365
0.04001307637
0.04001568352
0.04001812328
0.04002037892
0.04002244467
0.04002431562
0.04002595928
0.04002719931
0.04000142838
0.04000521884
0.04000933026
0.04001341405
0.04001723296
0.040020659
0.04002364705
0.04002620513
0.04002837015
0.04003019114
0.04003171843
0.04003299543
0.04003404292
0.040034795
0.04000799138
0.04001428118
0.04002024767
0.04002544647
0.04002972577
0.04003311024
0.04003570918
0.04003765911
0.0400390932
0.04004012795
0.04004085934
0.04004136353
0.04004169833
0.04004189622
0.04001417088
0.04002172839
0.04002811469
0.04003316726
0.04003699198
0.04003978878
0.04004176871
0.04004312028
0.04004399949
0.04004453014
0.04004480831
0.04004490856
0.04004489284
0.04004482833
0.04000799132
0.04001428111
0.04002024759
0.04002544639
0.04002972569
0.04003311015
0.0400357091
0.04003765903
0.04003909312
0.04004012787
0.04004085926
0.04004136345
0.04004169825
0.04004189614
0.04000142832
0.04000521877
0.04000933019
0.04001341397
0.04001723287
0.04002065891
0.04002364696
0.04002620503
0.04002837004
0.04003019103
0.04003171832
0.04003299532
0.0400340428
0.04003479488
0.03999772926
0.03999968476
0.04000206498
0.04000472576
0.04000752312
0.0400103364
0.04001307626
0.0400156834
0.04001812315
0.04002037878
0.04002244452
0.04002431547
0.04002595913
0.04002719915
0.03999625708
0.03999737336
0.03999885739
0.04000067369
0.04000275873
0.04000503611
0.04000742865
0.0400098664
0.04001229066
0.04001465485
0.04001692241
0.04001905813
0.04002099423
0.04002248649
0.03999628208
0.03999770045
0.03999966961
0.04000210171
0.04000485829
0.04000779044
0.0400107651
0.04001367747
0.04001645337
0.04001904608
0.04002143061
0.04002359678
0.04002553874
0.04002722619
0.04002848774
0.03999836151
0.04000142835
0.0400052188
0.04000933021
0.04001341399
0.0400172329
0.04002065894
0.040023647
0.04002620507
0.04002837009
0.04003019109
0.04003171838
0.04003299539
0.04003404288
0.04003479496
0.04001233664
0.04002031073
0.04002751129
0.04003339721
0.04003786279
0.04004104387
0.04004317355
0.04004449751
0.04004523372
0.04004555875
0.04004560805
0.0400454832
0.04004526577
0.04004505054
0.04003655709
0.04004998455
0.04005920511
0.0400646131
0.04006711963
0.04006763656
0.04006689642
0.04006542805
0.04006358887
0.04006160911
0.04005963196
0.04005774899
0.04005604771
0.04005474639
0.04006821711
0.04008152682
0.04008717991
0.04008810532
0.04008638693
0.04008333245
0.04007971437
0.04007597056
0.04007233868
0.04006893953
0.04006582845
0.04006303235
0.04006060234
0.04005878682
0.04003655674
0.04004998419
0.04005920478
0.04006461281
0.04006711938
0.04006763635
0.04006689625
0.0400654279
0.04006358874
0.04006160899
0.04005963185
0.04005774889
0.04005604761
0.0400547463
0.0400123364
0.04002031051
0.04002751107
0.040033397
0.04003786258
0.04004104368
0.04004317336
0.04004449732
0.04004523355
0.04004555858
0.04004560789
0.04004548304
0.04004526561
0.04004505039
0.04000142828
0.04000521872
0.04000933012
0.04001341389
0.04001723278
0.04002065881
0.04002364686
0.04002620493
0.04002836995
0.04003019093
0.04003171822
0.04003299523
0.04003404271
0.04003479479
0.03999770043
0.03999966958
0.04000210167
0.04000485824
0.04000779037
0.04001076502
0.04001367737
0.04001645326
0.04001904596
0.04002143048
0.04002359664
0.04002553859
0.04002722603
0.04002848757
0.03999745164
0.03999981202
0.0400028663
0.04000636614
0.04001005434
0.04001371768
0.04001720386
0.04002041846
0.04002331361
0.04002587507
0.0400281107
0.04003004086
0.04003168846
0.0400330573
0.04003404616
0.04000219266
0.04000799134
0.04001428111
0.04002024759
0.04002544638
0.04002972568
0.04003311015
0.0400357091
0.04003765903
0.04003909312
0.04004012788
0.04004085927
0.04004136346
0.04004169827
0.04004189616
0.04002011777
0.04003655702
0.04004998445
0.04005920502
0.04006461303
0.04006711957
0.04006763652
0.0400668964
0.04006542803
0.04006358885
0.0400616091
0.04005963194
0.04005774897
0.0400560477
0.04005474638
0.04011947133
0.04013625769
0.04013890186
0.04013391764
0.04012555264
0.04011619496
0.04010704939
0.04009864919
0.04009117467
0.04008463428
0.04007896354
0.04007408575
0.04006999028
0.04006700135
0.04028190387
0.04026036747
0.04022755409
0.04019618105
0.04016956904
0.04014788695
0.04013041354
0.04011630938
0.04010484601
0.04009544769
0.04008767787
0.04008122464
0.04007594155
0.04007214742
0.04011947013
0.04013625682
0.04013890121
0.04013391714
0.04012555226
0.04011619467
0.04010704915
0.040098649
0.04009117451
0.04008463414
0.04007896342
0.04007408564
0.04006999018
0.04006700125
0.04003655678
0.04004998417
0.04005920472
0.04006461272
0.04006711927
0.04006763622
0.04006689611
0.04006542776
0.0400635886
0.04006160886
0.04005963172
0.04005774876
0.04005604749
0.04005474619
0.04000799131
0.04001428106
0.04002024751
0.04002544628
0.04002972556
0.04003311001
0.04003570895
0.04003765887
0.04003909295
0.0400401277
0.04004085909
0.04004136328
0.04004169809
0.04004189597
0.03999981203
0.0400028663
0.04000636613
0.04001005432
0.04001371763
0.04001720379
0.04002041838
0.04002331351
0.04002587495
0.04002811056
0.04003004071
0.0400316883
0.04003305713
0.04003404598
0.03999832742
0.04000131691
0.04000496557
0.0400089385
0.04001295503
0.04001681317
0.04002038481
0.04002360106
0.04002643625
0.04002889397
0.04003099596
0.04003277337
0.04003425838
0.04003546638
0.04003632418
0.04000618267
0.04001417093
0.0400217284
0.04002811468
0.04003316723
0.04003699194
0.04003978873
0.04004176865
0.04004312022
0.04004399942
0.04004453007
0.04004480824
0.0400449085
0.04004489277
0.04004482827
0.04004446402
0.04006821743
0.04008152693
0.04008717994
0.0400881053
0.04008638688
0.04008333239
0.04007971429
0.04007597048
0.0400723386
0.04006893945
0.04006582837
0.04006303228
0.04006060227
0.04005878676
0.04025330181
0.04028190386
0.0402603673
0.04022755386
0.04019618081
0.0401695688
0.04014788674
0.04013041335
0.04011630922
0.04010484588
0.04009544758
0.04008767778
0.04008122455
0.04007594147
0.04007214736
0.0409803868
0.04062381134
0.04042674768
0.04031155067
0.04024027243
0.04019367565
0.04016163049
0.04013858673
0.04012137699
0.04010811854
0.04009764993
0.040089246
0.040082533
0.04007778647
0.04028190364
0.04026036644
0.04022755324
0.04019618042
0.04016956856
0.04014788657
0.04013041324
0.04011630914
0.04010484581
0.04009544752
0.04008767772
0.0400812245
0.04007594142
0.0400721473
0.04006821699
0.04008152641
0.04008717943
0.04008810485
0.04008638649
0.04008333205
0.040079714
0.04007597022
0.04007233837
0.04006893924
0.04006582818
0.0400630321
0.0400606021
0.04005878659
0.04001417084
0.04002172826
0.0400281145
0.04003316703
0.04003699173
0.04003978851
0.04004176843
0.04004312
0.0400439992
0.04004452985
0.04004480802
0.04004490828
0.04004489257
0.04004482806
0.04000131689
0.04000496554
0.04000893844
0.04001295494
0.04001681306
0.04002038468
0.04002360091
0.04002643609
0.0400288938
0.04003099577
0.04003277318
0.04003425818
0.04003546618
0.04003632397
0.03999745163
0.039999812
0.04000286627
0.0400063661
0.0400100543
0.04001371763
0.0400172038
0.0400204184
0.04002331355
0.040025875
0.04002811063
0.04003004079
0.04003168838
0.04003305722
0.04003404608
0.0400021926
0.04000799124
0.04001428099
0.04002024746
0.04002544625
0.04002972556
0.04003311003
0.04003570898
0.04003765892
0.04003909301
0.04004012777
0.04004085917
0.04004136336
0.04004169817
0.04004189606
0.04002011744
0.04003655668
0.04004998407
0.04005920467
0.0400646127
0.04006711928
0.04006763625
0.04006689615
0.04006542781
0.04006358865
0.04006160891
0.04005963177
0.04005774881
0.04005604755
0.04005474624
0.04008151504
0.04011946983
0.04013625646
0.04013890093
0.04013391693
0.0401255521
0.04011619454
0.04010704905
0.04009864891
0.04009117444
0.04008463408
0.04007896336
0.04007408559
0.04006999013
0.0400670012
0.04025330106
0.04028190316
0.04026036609
0.040227553
0.04019618026
0.04016956845
0.04014788648
0.04013041317
0.04011630908
0.04010484576
0.04009544748
0.04008767768
0.04008122447
0.04007594139
0.04007214728
0.04008151495
0.04011946939
0.040136256
0.04013890052
0.0401339166
0.04012555183
0.04011619432
0.04010704887
0.04009864876
0.04009117431
0.04008463396
0.04007896326
0.0400740855
0.04006999004
0.04006700112
0.04003655696
0.04004998411
0.04005920456
0.04006461252
0.04006711907
0.04006763603
0.04006689593
0.04006542759
0.04006358844
0.04006160871
0.04005963158
0.04005774863
0.04005604737
0.04005474607
0.04000799133
0.04001428103
0.04002024745
0.0400254462
0.04002972546
0.0400331099
0.04003570883
0.04003765875
0.04003909284
0.04004012759
0.04004085898
0.04004136318
0.04004169798
0.04004189587
0.03999981202
0.04000286628
0.04000636609
0.04001005427
0.04001371757
0.04001720372
0.0400204183
0.04002331342
0.04002587486
0.04002811047
0.04003004062
0.0400316882
0.04003305704
0.04003404589
0.03999628206
0.03999770042
0.03999966956
0.04000210165
0.04000485822
0.04000779035
0.040010765
0.04001367736
0.04001645325
0.04001904596
0.04002143048
0.04002359665
0.04002553861
0.04002722605
0.0400284876
0.03999836146
0.04000142828
0.04000521871
0.04000933012
0.04001341389
0.04001723279
0.04002065883
0.04002364687
0.04002620494
0.04002836996
0.04003019094
0.04003171823
0.04003299524
0.04003404272
0.0400347948
0.04000471581
0.04001233641
0.0400203105
0.04002751106
0.04003339698
0.04003786255
0.04004104364
0.04004317331
0.04004449727
0.04004523349
0.04004555852
0.04004560782
0.04004548298
0.04004526555
0.04004505032
0.04002011739
0.04003655656
0.0400499839
0.04005920445
0.04006461248
0.04006711906
0.04006763604
0.04006689596
0.04006542763
0.04006358848
0.04006160875
0.04005963163
0.04005774868
0.04005604742
0.04005474612
0.04004446348
0.04006821655
0.040081526
0.0400871791
0.04008810458
0.04008638628
0.04008333189
0.04007971387
0.04007597012
0.04007233828
0.04006893917
0.04006582812
0.04006303205
0.04006060205
0.04005878655
0.04002011729
0.0400365564
0.04004998372
0.04005920428
0.04006461232
0.04006711891
0.04006763591
0.04006689584
0.04006542753
0.04006358839
0.04006160867
0.04005963155
0.0400577486
0.04005604735
0.04005474605
0.04000471584
0.0400123364
0.04002031043
0.04002751094
0.04003339683
0.04003786238
0.04004104346
0.04004317314
0.0400444971
0.04004523332
0.04004555836
0.04004560767
0.04004548283
0.0400452654
0.04004505018
0.04000142832
0.04000521871
0.04000933007
0.0400134138
0.04001723267
0.04002065869
0.04002364671
0.04002620477
0.04002836978
0.04003019076
0.04003171805
0.04003299505
0.04003404254
0.04003479462
0.03999770045
0.03999966959
0.04000210166
0.04000485822
0.04000779034
0.04001076497
0.0400136773
0.04001645318
0.04001904586
0.04002143037
0.04002359653
0.04002553847
0.04002722591
0.04002848744
0.03999550212
0.03999625708
0.03999737336
0.03999885739
0.04000067368
0.04000275873
0.0400050361
0.04000742863
0.04000986639
0.04001229065
0.04001465484
0.0400169224
0.04001905812
0.04002099422
0.04002248648
0.039996302
0.03999772926
0.03999968475
0.04000206497
0.04000472574
0.0400075231
0.04001033638
0.04001307623
0.04001568337
0.04001812312
0.04002037875
0.04002244449
0.04002431544
0.04002595909
0.04002719911
0.03999836146
0.04000142828
0.0400052187
0.0400093301
0.04001341386
0.04001723276
0.04002065879
0.04002364683
0.04002620489
0.04002836991
0.04003019089
0.04003171818
0.04003299518
0.04003404267
0.04003479475
0.0400021926
0.04000799123
0.04001428095
0.04002024739
0.04002544616
0.04002972545
0.0400331099
0.04003570885
0.04003765877
0.04003909287
0.04004012763
0.04004085902
0.04004136321
0.04004169803
0.04004189592
0.04000618256
0.04001417071
0.04002172811
0.04002811434
0.04003316687
0.04003699158
0.04003978838
0.04004176831
0.04004311989
0.04004399911
0.04004452977
0.04004480795
0.04004490822
0.04004489251
0.040044828
0.04000219256
0.04000799116
0.04001428086
0.04002024729
0.04002544606
0.04002972534
0.0400331098
0.04003570874
0.04003765867
0.04003909277
0.04004012753
0.04004085893
0.04004136313
0.04004169794
0.04004189584
0.03999836145
0.04000142825
0.04000521865
0.04000933002
0.04001341376
0.04001723264
0.04002065866
0.04002364669
0.04002620475
0.04002836976
0.04003019075
0.04003171804
0.04003299504
0.04003404253
0.0400347946
0.039996302
0.03999772926
0.03999968473
0.04000206493
0.04000472568
0.04000752302
0.04001033629
0.04001307612
0.04001568324
0.04001812298
0.0400203786
0.04002244433
0.04002431528
0.04002595893
0.04002719895
0.0399962571
0.03999737337
0.03999885739
0.04000067368
0.04000275871
0.04000503607
0.04000742859
0.04000986633
0.04001229057
0.04001465475
0.0400169223
0.040019058
0.04002099409
0.04002248634
0.03999515333
0.03999560289
0.03999630072
0.0399972845
0.03999856566
0.04000012966
0.04000194116
0.04000395125
0.04000610465
0.0400083456
0.04001062183
0.0400128852
0.04001508475
0.04001713054
0.04001873562
0.03999550212
0.03999625708
0.03999737336
0.03999885738
0.04000067368
0.04000275872
0.04000503609
0.04000742862
0.04000986638
0.04001229063
0.04001465482
0.04001692238
0.04001905809
0.04002099419
0.04002248645
0.03999628207
0.03999770042
0.03999966957
0.04000210165
0.04000485822
0.04000779035
0.04001076499
0.04001367734
0.04001645323
0.04001904592
0.04002143044
0.0400235966
0.04002553855
0.04002722599
0.04002848753
0.03999745164
0.039999812
0.04000286626
0.04000636608
0.04001005426
0.04001371757
0.04001720373
0.04002041832
0.04002331345
0.04002587489
0.04002811051
0.04003004066
0.04003168825
0.04003305708
0.04003404594
0.03999832739
0.04000131685
0.04000496548
0.04000893838
0.04001295488
0.04001681299
0.04002038461
0.04002360084
0.04002643602
0.04002889374
0.04003099572
0.04003277313
0.04003425814
0.04003546614
0.04003632393
0.03999745163
0.03999981198
0.04000286623
0.04000636604
0.04001005422
0.04001371753
0.04001720368
0.04002041826
0.04002331339
0.04002587483
0.04002811044
0.04003004059
0.04003168818
0.04003305701
0.04003404587
0.03999628206
0.03999770041
0.03999966954
0.04000210162
0.04000485817
0.04000779029
0.04001076492
0.04001367726
0.04001645314
0.04001904583
0.04002143034
0.04002359649
0.04002553844
0.04002722588
0.04002848741
0.03999550212
0.03999625707
0.03999737334
0.03999885736
0.04000067364
0.04000275867
0.04000503602
0.04000742854
0.04000986628
0.04001229052
0.0400146547
0.04001692225
0.04001905795
0.04002099404
0.0400224863
0.03999515333
0.03999560289
0.03999630072
0.0399972845
0.03999856565
0.04000012964
0.04000194113
0.04000395121
0.04000610459
0.04000834553
0.04001062174
0.04001288511
0.04001508464
0.04001713042
0.04001873549
)
;

boundaryField
{
    top
    {
        type            calculated;
        value           nonuniform List<scalar> 
127
(
0.03999515333
0.03999560289
0.03999625708
0.03999770043
0.03999981203
0.04000131689
0.03999981202
0.03999770045
0.0399962571
0.03999560289
0.03999630072
0.03999737336
0.03999966958
0.0400028663
0.04000496554
0.04000286628
0.03999966959
0.03999737337
0.03999630072
0.03999728452
0.03999885739
0.04000210167
0.04000636613
0.04000893844
0.04000636609
0.04000210166
0.03999885739
0.0399972845
0.03999856568
0.04000067369
0.04000485824
0.04001005432
0.04001295494
0.04001005427
0.04000485822
0.04000067368
0.03999856565
0.04000012968
0.04000275873
0.04000779037
0.04001371763
0.04001681306
0.04001371757
0.04000779034
0.04000275871
0.04000012964
0.04000194119
0.04000503611
0.04001076502
0.04001720379
0.04002038468
0.04001720372
0.04001076497
0.04000503607
0.04000194113
0.04000395128
0.04000742865
0.04001367737
0.04002041838
0.04002360091
0.0400204183
0.0400136773
0.04000742859
0.04000395121
0.04000610468
0.0400098664
0.04001645326
0.04002331351
0.04002643609
0.04002331342
0.04001645318
0.04000986633
0.04000610459
0.04000834564
0.04001229066
0.04001904596
0.04002587495
0.0400288938
0.04002587486
0.04001904586
0.04001229057
0.04000834553
0.04001062186
0.04001465485
0.04002143048
0.04002811056
0.04003099577
0.04002811047
0.04002143037
0.04001465475
0.04001062174
0.04001288524
0.04001692241
0.04002359664
0.04003004071
0.04003277318
0.04003004062
0.04002359653
0.0400169223
0.04001288511
0.04001508479
0.04001905813
0.04002553859
0.0400316883
0.04003425818
0.0400316882
0.04002553847
0.040019058
0.04001508464
0.04001713059
0.04002099423
0.04002722603
0.04003305713
0.04003546618
0.04003305704
0.04002722591
0.04002099409
0.04001713042
0.04001873566
0.04002248649
0.04002848757
0.04003404598
0.04003632397
0.04003404589
0.04002848744
0.04002248634
0.04001873549
)
;
    }
    bottom
    {
        type            calculated;
        value           nonuniform List<scalar> 
134
(
0.03999550213
0.03999628208
0.03999745164
0.03999832742
0.03999745163
0.03999628206
0.03999550212
0.03999515333
0.03999560291
0.0399962571
0.03999770045
0.03999981202
0.04000131691
0.039999812
0.03999770042
0.03999625708
0.03999560289
0.03999630075
0.03999737339
0.03999966961
0.0400028663
0.04000496557
0.04000286627
0.03999966956
0.03999737336
0.03999630072
0.03999728455
0.03999885743
0.04000210171
0.04000636614
0.0400089385
0.0400063661
0.04000210165
0.03999885739
0.0399972845
0.03999856571
0.04000067373
0.04000485829
0.04001005434
0.04001295503
0.0400100543
0.04000485822
0.04000067368
0.03999856566
0.04000012973
0.04000275879
0.04000779044
0.04001371768
0.04001681317
0.04001371763
0.04000779035
0.04000275873
0.04000012966
0.04000194125
0.04000503617
0.0400107651
0.04001720386
0.04002038481
0.0400172038
0.040010765
0.0400050361
0.04000194116
0.04000395135
0.04000742872
0.04001367747
0.04002041846
0.04002360106
0.0400204184
0.04001367736
0.04000742863
0.04000395125
0.04000610476
0.04000986649
0.04001645337
0.04002331361
0.04002643625
0.04002331355
0.04001645325
0.04000986639
0.04000610465
0.04000834573
0.04001229076
0.04001904608
0.04002587507
0.04002889397
0.040025875
0.04001904596
0.04001229065
0.0400083456
0.04001062197
0.04001465496
0.04002143061
0.0400281107
0.04003099596
0.04002811063
0.04002143048
0.04001465484
0.04001062183
0.04001288536
0.04001692254
0.04002359678
0.04003004086
0.04003277337
0.04003004079
0.04002359665
0.0400169224
0.0400128852
0.04001508492
0.04001905826
0.04002553874
0.04003168846
0.04003425838
0.04003168838
0.04002553861
0.04001905812
0.04001508475
0.04001713073
0.04002099437
0.04002722619
0.0400330573
0.04003546638
0.04003305722
0.04002722605
0.04002099422
0.04001713054
0.04001873581
0.04002248664
0.04002848774
0.04003404616
0.04003632418
0.04003404608
0.0400284876
0.04002248648
0.04001873562
)
;
    }
    side-walls
    {
        type            calculated;
        value           nonuniform List<scalar> 
261
(
0.03999560291
0.03999625711
0.03999770047
0.03999981207
0.04000131693
0.03999981203
0.03999770044
0.03999625708
0.03999560289
0.03999630075
0.0399973734
0.03999966964
0.04000286638
0.04000496561
0.04000286632
0.03999966959
0.03999737337
0.03999630072
0.03999728455
0.03999885745
0.04000210176
0.04000636624
0.04000893855
0.04000636616
0.04000210169
0.0399988574
0.03999728452
0.03999856571
0.04000067375
0.04000485835
0.04001005446
0.04001295509
0.04001005437
0.04000485827
0.0400006737
0.03999856568
0.04000012973
0.04000275882
0.04000779051
0.04001371781
0.04001681324
0.04001371771
0.04000779042
0.04000275875
0.04000012968
0.04000194125
0.04000503621
0.04001076517
0.040017204
0.04002038489
0.04001720389
0.04001076507
0.04000503612
0.04000194119
0.04000395135
0.04000742876
0.04001367755
0.0400204186
0.04002360115
0.04002041849
0.04001367744
0.04000742866
0.04000395128
0.04000610476
0.04000986653
0.04001645345
0.04002331375
0.04002643634
0.04002331364
0.04001645333
0.04000986642
0.04000610468
0.04000834573
0.0400122908
0.04001904616
0.04002587521
0.04002889407
0.0400258751
0.04001904604
0.04001229068
0.04000834564
0.04001062197
0.040014655
0.04002143069
0.04002811083
0.04003099606
0.04002811072
0.04002143057
0.04001465488
0.04001062186
0.04001288536
0.04001692258
0.04002359687
0.04003004099
0.04003277347
0.04003004088
0.04002359673
0.04001692244
0.04001288524
0.04001508492
0.0400190583
0.04002553883
0.04003168858
0.04003425848
0.04003168848
0.04002553869
0.04001905816
0.04001508479
0.04001713073
0.04002099441
0.04002722627
0.04003305741
0.04003546648
0.04003305731
0.04002722613
0.04002099426
0.04001713059
0.04001873581
0.04002248668
0.04002848782
0.04003404627
0.04003632427
0.04003404617
0.04002848768
0.04002248652
0.04001873566
0.03999515333
0.03999550212
0.03999628207
0.03999745164
0.03999832739
0.03999745163
0.03999628206
0.03999550212
0.03999515333
0.03999560289
0.03999625708
0.03999770042
0.039999812
0.04000131685
0.03999981198
0.03999770041
0.03999625707
0.03999560289
0.03999630072
0.03999737336
0.03999966957
0.04000286626
0.04000496548
0.04000286623
0.03999966954
0.03999737334
0.03999630072
0.0399972845
0.03999885738
0.04000210165
0.04000636608
0.04000893838
0.04000636604
0.04000210162
0.03999885736
0.0399972845
0.03999856566
0.04000067368
0.04000485822
0.04001005426
0.04001295488
0.04001005422
0.04000485817
0.04000067364
0.03999856565
0.04000012966
0.04000275872
0.04000779035
0.04001371757
0.04001681299
0.04001371753
0.04000779029
0.04000275867
0.04000012964
0.04000194116
0.04000503609
0.04001076499
0.04001720373
0.04002038461
0.04001720368
0.04001076492
0.04000503602
0.04000194113
0.04000395125
0.04000742862
0.04001367734
0.04002041832
0.04002360084
0.04002041826
0.04001367726
0.04000742854
0.04000395121
0.04000610465
0.04000986638
0.04001645323
0.04002331345
0.04002643602
0.04002331339
0.04001645314
0.04000986628
0.04000610459
0.0400083456
0.04001229063
0.04001904592
0.04002587489
0.04002889374
0.04002587483
0.04001904583
0.04001229052
0.04000834553
0.04001062183
0.04001465482
0.04002143044
0.04002811051
0.04003099572
0.04002811044
0.04002143034
0.0400146547
0.04001062174
0.0400128852
0.04001692238
0.0400235966
0.04003004066
0.04003277313
0.04003004059
0.04002359649
0.04001692225
0.04001288511
0.04001508475
0.04001905809
0.04002553855
0.04003168825
0.04003425814
0.04003168818
0.04002553844
0.04001905795
0.04001508464
0.04001713054
0.04002099419
0.04002722599
0.04003305708
0.04003546614
0.04003305701
0.04002722588
0.04002099404
0.04001713042
0.04001873562
0.04002248645
0.04002848753
0.04003404594
0.04003632393
0.04003404587
0.04002848741
0.0400224863
0.04001873549
)
;
    }
    inlet
    {
        type            calculated;
        value           nonuniform 0();
    }
    outlet
    {
        type            calculated;
        value           nonuniform List<scalar> 
81
(
0.04001873581
0.04002248668
0.04002848782
0.04003404627
0.04003632427
0.04003404617
0.04002848768
0.04002248652
0.04001873566
0.04002248664
0.04002719931
0.040034795
0.04004189622
0.04004482833
0.04004189614
0.04003479488
0.04002719915
0.04002248649
0.04002848774
0.04003479496
0.04004505054
0.04005474639
0.04005878682
0.0400547463
0.04004505039
0.04003479479
0.04002848757
0.04003404616
0.04004189616
0.04005474638
0.04006700135
0.04007214742
0.04006700125
0.04005474619
0.04004189597
0.04003404598
0.04003632418
0.04004482827
0.04005878676
0.04007214736
0.04007778647
0.0400721473
0.04005878659
0.04004482806
0.04003632397
0.04003404608
0.04004189606
0.04005474624
0.0400670012
0.04007214728
0.04006700112
0.04005474607
0.04004189587
0.04003404589
0.0400284876
0.0400347948
0.04004505032
0.04005474612
0.04005878655
0.04005474605
0.04004505018
0.04003479462
0.04002848744
0.04002248648
0.04002719911
0.04003479475
0.04004189592
0.040044828
0.04004189584
0.0400347946
0.04002719895
0.04002248634
0.04001873562
0.04002248645
0.04002848753
0.04003404594
0.04003632393
0.04003404587
0.04002848741
0.0400224863
0.04001873549
)
;
    }
    procBoundary1to0
    {
        type            processor;
        value           nonuniform List<scalar> 
97
(
0.03999515334
0.03999515334
0.03999550213
0.03999628208
0.03999745165
0.03999832739
0.03999745162
0.03999628206
0.03999550211
0.03999515333
0.03999505503
0.03999630202
0.03999630202
0.03999630202
0.03999836148
0.0400021926
0.04000618253
0.04000219256
0.03999836144
0.03999630198
0.03999550211
0.03999540888
0.03999632281
0.0400047159
0.0400047159
0.0400047159
0.04002011751
0.04004446342
0.0400201172
0.04000471567
0.03999836142
0.03999628205
0.03999592656
0.03999793178
0.04000493446
0.04008151628
0.04008151628
0.04008151628
0.04025330026
0.04008151462
0.04002011725
0.04000219256
0.03999745162
0.03999629555
0.03999944702
0.04001269664
0.04006505441
0.04166256745
0.04166256745
0.04166256745
0.04025330023
0.04025330023
0.0400444634
0.04000618252
0.03999832737
0.03999592656
0.03999793177
0.04000493442
0.04002525607
0.04006505413
0.04002525594
0.0400201176
0.0400201176
0.0400201176
0.0400021926
0.03999745162
0.03999540888
0.0399963228
0.039998997
0.04000493441
0.04001269642
0.04000493436
0.03999899698
0.03999836148
0.03999836148
0.03999836148
0.03999628207
0.03999505503
0.03999541595
0.0399963228
0.03999793178
0.03999944698
0.03999793176
0.03999632279
0.03999541595
0.03999550213
0.03999550213
0.03999550213
0.03999489465
0.03999505503
0.03999540888
0.03999592657
0.03999629554
0.03999592656
0.03999540888
0.03999505503
0.03999489465
)
;
    }
}


// ************************************************************************* //
