/*--------------------------------*- C++ -*----------------------------------*\
| =========                 |                                                 |
| \\      /  F ield         | OpenFOAM: The Open Source CFD Toolbox           |
|  \\    /   O peration     | Version:  4.x                                   |
|   \\  /    A nd           | Web:      www.OpenFOAM.org                      |
|    \\/     M anipulation  |                                                 |
\*---------------------------------------------------------------------------*/
FoamFile
{
    version     2.0;
    format      ascii;
    class       volScalarField;
    location    "11000";
    object      X_H2;
}
// * * * * * * * * * * * * * * * * * * * * * * * * * * * * * * * * * * * * * //

dimensions      [0 0 0 0 0 0 0];

internalField   nonuniform List<scalar> 
1174
(
0.02997682973
0.02997649874
0.02997603213
0.0299754245
0.02997468274
0.02997382364
0.0299728704
0.02997184925
0.02997078664
0.02996970736
0.02996863425
0.02996759146
0.02996662163
0.02996586077
0.0299765194
0.02997598991
0.02997528602
0.02997442456
0.02997343567
0.02997235562
0.02997122101
0.02997006502
0.02996891551
0.02996779456
0.02996671951
0.02996570705
0.02996478929
0.02996408197
0.0299758347
0.02997490064
0.02997374704
0.02997243958
0.02997104892
0.02996963817
0.02996825706
0.02996694077
0.02996571144
0.02996458093
0.02996355406
0.02996263358
0.02996183383
0.02996123599
0.02997483297
0.02997338416
0.02997172407
0.02996997472
0.02996823727
0.02996658396
0.02996505957
0.02996368679
0.02996247238
0.02996141259
0.02996049774
0.02995971695
0.02995906838
0.02995859993
0.02997411906
0.02997238829
0.02997050379
0.02996859872
0.0299667689
0.02996507509
0.02996354996
0.02996220567
0.0299610405
0.02996004413
0.02995920176
0.02995849813
0.02995792587
0.0299575196
0.029974833
0.02997338419
0.02997172411
0.02996997476
0.02996823732
0.02996658401
0.02996505962
0.02996368685
0.02996247244
0.02996141264
0.02996049779
0.029959717
0.02995906844
0.02995859998
0.02997583471
0.02997490067
0.02997374707
0.02997243961
0.02997104896
0.02996963822
0.02996825712
0.02996694083
0.02996571151
0.029964581
0.02996355413
0.02996263365
0.0299618339
0.02996123606
0.02997651941
0.02997598993
0.02997528604
0.02997442459
0.0299734357
0.02997235566
0.02997122106
0.02997006508
0.02996891557
0.02996779463
0.02996671958
0.02996570713
0.02996478937
0.02996408205
0.02997682973
0.02997649875
0.02997603214
0.02997542451
0.02997468277
0.02997382367
0.02997287044
0.02997184929
0.02997078669
0.02996970742
0.02996863431
0.02996759153
0.02996662171
0.02996586085
0.02997687751
0.0299765194
0.02997598992
0.02997528603
0.02997442457
0.02997343568
0.02997235563
0.02997122103
0.02997006504
0.02996891553
0.02996779458
0.02996671953
0.02996570707
0.02996478931
0.02996408198
0.02997582101
0.02997489343
0.02997376443
0.02997250241
0.02997117568
0.02996984147
0.02996854218
0.02996730591
0.02996614912
0.02996507974
0.02996410048
0.02996321366
0.02996243466
0.02996184701
0.02997406619
0.02997226815
0.02997031796
0.02996838098
0.02996656976
0.029964945
0.0299635281
0.02996231525
0.0299612889
0.0299604258
0.02995970206
0.02995909706
0.02995860091
0.02995824477
0.02997095263
0.02996796894
0.0299651388
0.02996267299
0.02996064351
0.02995903863
0.02995780646
0.02995688223
0.02995620274
0.02995571271
0.02995536659
0.02995512825
0.02995497022
0.02995487699
0.02996802089
0.02996443584
0.02996140661
0.02995901027
0.02995719653
0.02995587052
0.02995493209
0.02995429177
0.02995387555
0.0299536247
0.02995349361
0.0299534469
0.02995345517
0.02995348643
0.02997095265
0.02996796898
0.02996513883
0.02996267303
0.02996064355
0.02995903867
0.02995780651
0.02995688228
0.02995620279
0.02995571275
0.02995536664
0.02995512829
0.02995497027
0.02995487704
0.02997406622
0.02997226818
0.02997031799
0.02996838101
0.0299665698
0.02996494505
0.02996352816
0.02996231531
0.02996128896
0.02996042587
0.02995970212
0.02995909712
0.02995860098
0.02995824484
0.02997582103
0.02997489346
0.02997376446
0.02997250245
0.02997117572
0.02996984152
0.02996854224
0.02996730598
0.0299661492
0.02996507981
0.02996410056
0.02996321374
0.02996243475
0.02996184711
0.02997651941
0.02997598993
0.02997528604
0.02997442459
0.02997343571
0.02997235567
0.02997122107
0.02997006509
0.02996891559
0.02996779465
0.0299667196
0.02996570715
0.02996478939
0.02996408207
0.02997650752
0.02997583471
0.02997490066
0.02997374706
0.02997243961
0.02997104895
0.02996963821
0.0299682571
0.02996694081
0.02996571148
0.02996458098
0.0299635541
0.02996263362
0.02996183386
0.02996123602
0.02997552103
0.0299740662
0.02997226818
0.02997031798
0.029968381
0.02996656978
0.02996494503
0.02996352813
0.02996231528
0.02996128893
0.02996042583
0.02995970208
0.02995909708
0.02995860093
0.02995824479
0.02996889118
0.02996510849
0.02996169296
0.02995890125
0.02995678349
0.02995527517
0.0299542657
0.02995363848
0.02995329009
0.02995313676
0.02995311424
0.0299531743
0.02995327825
0.02995338099
0.02995740031
0.02995103064
0.02994665709
0.02994409246
0.02994290442
0.02994266027
0.02994301247
0.02994371011
0.02994458362
0.02994552377
0.02994646263
0.02994735676
0.02994816464
0.0299487826
0.02994237937
0.02993606585
0.02993338513
0.02993294743
0.02993376399
0.02993521435
0.029936932
0.0299387092
0.02994043322
0.02994204676
0.02994352357
0.0299448509
0.02994600448
0.02994686637
0.02995740048
0.02995103081
0.02994665725
0.02994409261
0.02994290454
0.02994266038
0.02994301257
0.0299437102
0.0299445837
0.02994552384
0.02994646269
0.02994735683
0.0299481647
0.02994878266
0.02996889129
0.0299651086
0.02996169306
0.02995890136
0.0299567836
0.02995527528
0.0299542658
0.02995363858
0.02995329019
0.02995313686
0.02995311433
0.0299531744
0.02995327834
0.02995338108
0.02997406623
0.02997226821
0.02997031802
0.02996838106
0.02996656984
0.0299649451
0.02996352821
0.02996231536
0.02996128902
0.02996042592
0.02995970217
0.02995909718
0.02995860103
0.02995824489
0.02997583472
0.02997490067
0.02997374708
0.02997243963
0.02997104898
0.02996963825
0.02996825715
0.02996694087
0.02996571155
0.02996458105
0.02996355418
0.02996263371
0.02996183396
0.02996123613
0.02997595268
0.029974833
0.0299733842
0.02997172412
0.02996997478
0.02996823733
0.02996658403
0.02996505964
0.02996368686
0.02996247245
0.02996141265
0.0299604978
0.02995971701
0.02995906844
0.02995859998
0.02997370348
0.02997095265
0.02996796898
0.02996513884
0.02996267303
0.02996064355
0.02995903867
0.02995780651
0.02995688227
0.02995620278
0.02995571274
0.02995536662
0.02995512828
0.02995497026
0.02995487702
0.02996519924
0.02995740035
0.02995103069
0.02994665714
0.0299440925
0.02994290445
0.0299426603
0.02994301249
0.02994371013
0.02994458363
0.02994552377
0.02994646264
0.02994735677
0.02994816465
0.02994878261
0.02991806228
0.02991009981
0.02990884714
0.02991121361
0.02991518386
0.02991962486
0.02992396503
0.02992795141
0.02993149848
0.02993460228
0.02993729341
0.02993960827
0.02994155192
0.02994297045
0.0298409949
0.02985121611
0.02986678716
0.02988167421
0.0298943019
0.02990459021
0.02991288145
0.02991957398
0.02992501346
0.02992947309
0.02993316004
0.02993622228
0.02993872932
0.02994052981
0.02991806286
0.02991010023
0.02990884747
0.02991121387
0.02991518406
0.02991962502
0.02992396517
0.02992795152
0.02993149858
0.02993460237
0.02993729349
0.02993960834
0.02994155199
0.02994297052
0.02995740046
0.02995103082
0.02994665728
0.02994409266
0.02994290461
0.02994266046
0.02994301265
0.02994371028
0.02994458378
0.02994552391
0.02994646277
0.0299473569
0.02994816477
0.02994878273
0.02997095266
0.029967969
0.02996513888
0.02996267308
0.02996064362
0.02995903876
0.0299578066
0.02995688237
0.02995620288
0.02995571285
0.02995536674
0.0299551284
0.02995497037
0.02995487714
0.029974833
0.0299733842
0.02997172413
0.02996997479
0.02996823736
0.02996658407
0.02996505969
0.02996368693
0.02996247253
0.02996141274
0.02996049789
0.02995971711
0.02995906855
0.0299586001
0.02997553721
0.02997411907
0.02997238831
0.02997050382
0.02996859876
0.02996676894
0.02996507513
0.02996355001
0.02996220572
0.02996104055
0.02996004418
0.02995920181
0.02995849818
0.02995792592
0.02995751964
0.02997181048
0.02996802087
0.02996443584
0.02996140662
0.02995901028
0.02995719655
0.02995587055
0.02995493212
0.02995429181
0.02995387559
0.02995362473
0.02995349364
0.02995344694
0.02995345521
0.02995348646
0.02995364813
0.02994237924
0.02993606581
0.02993338513
0.02993294745
0.02993376402
0.02993521439
0.02993693204
0.02993870924
0.02994043327
0.0299420468
0.02994352361
0.02994485093
0.02994600451
0.0299468664
0.02985456247
0.02984099495
0.02985121622
0.02986678728
0.02988167434
0.02989430202
0.02990459032
0.02991288155
0.02991957406
0.02992501352
0.02992947315
0.02993316008
0.02993622233
0.02993872935
0.02994052984
0.02950958716
0.0296787771
0.02977228023
0.02982693879
0.02986075868
0.02988286775
0.02989807243
0.02990900619
0.02991717188
0.02992346281
0.02992843007
0.02993241771
0.02993560307
0.02993785536
0.02984099501
0.02985121661
0.02986678759
0.02988167456
0.02989430217
0.02990459043
0.02991288163
0.02991957413
0.02992501359
0.02992947321
0.02993316014
0.02993622237
0.0299387294
0.02994052989
0.02994237942
0.02993606605
0.02993338538
0.02993294769
0.02993376424
0.02993521458
0.02993693222
0.0299387094
0.02994043341
0.02994204694
0.02994352374
0.02994485105
0.02994600463
0.02994686652
0.02996802091
0.0299644359
0.0299614067
0.02995901039
0.02995719667
0.02995587068
0.02995493225
0.02995429194
0.02995387573
0.02995362487
0.02995349378
0.02995344707
0.02995345534
0.0299534866
0.02997411908
0.02997238832
0.02997050385
0.0299685988
0.029966769
0.02996507521
0.02996355009
0.02996220582
0.02996104066
0.0299600443
0.02995920194
0.0299584983
0.02995792605
0.02995751978
0.02997595269
0.02997483301
0.02997338422
0.02997172414
0.0299699748
0.02996823736
0.02996658406
0.02996505967
0.0299636869
0.02996247249
0.02996141269
0.02996049784
0.02995971705
0.02995906848
0.02995860003
0.02997370351
0.0299709527
0.02996796904
0.0299651389
0.0299626731
0.02996064362
0.02995903874
0.02995780657
0.02995688234
0.02995620284
0.0299557128
0.02995536668
0.02995512834
0.02995497031
0.02995487708
0.02996519941
0.02995740052
0.02995103088
0.02994665731
0.02994409267
0.0299429046
0.02994266044
0.02994301262
0.02994371025
0.02994458374
0.02994552388
0.02994646273
0.02994735686
0.02994816473
0.02994878269
0.02993606938
0.02991806304
0.02991010043
0.02990884762
0.02991121399
0.02991518415
0.02991962509
0.02992396523
0.02992795157
0.02993149862
0.0299346024
0.02993729352
0.02993960837
0.02994155201
0.02994297054
0.02985456283
0.02984099529
0.02985121681
0.02986678773
0.02988167465
0.02989430223
0.02990459048
0.02991288167
0.02991957416
0.02992501361
0.02992947323
0.02993316016
0.02993622239
0.02993872942
0.02994052991
0.02993606941
0.02991806324
0.02991010065
0.02990884783
0.02991121417
0.02991518431
0.02991962523
0.02992396534
0.02992795167
0.02993149871
0.02993460248
0.02993729359
0.02993960844
0.02994155208
0.0299429706
0.02995740037
0.02995103086
0.02994665738
0.02994409277
0.02994290473
0.02994266058
0.02994301276
0.02994371039
0.02994458388
0.02994552401
0.02994646286
0.02994735699
0.02994816485
0.02994878281
0.02997095265
0.02996796902
0.02996513891
0.02996267313
0.02996064368
0.02995903882
0.02995780666
0.02995688244
0.02995620295
0.02995571292
0.0299553668
0.02995512846
0.02995497044
0.02995487721
0.029974833
0.02997338421
0.02997172414
0.02996997482
0.02996823739
0.02996658411
0.02996505973
0.02996368698
0.02996247258
0.0299614128
0.02996049795
0.02995971717
0.02995906861
0.02995860016
0.02997650752
0.02997583473
0.02997490069
0.02997374709
0.02997243964
0.02997104899
0.02996963826
0.02996825716
0.02996694087
0.02996571155
0.02996458104
0.02996355417
0.02996263369
0.02996183394
0.0299612361
0.02997552106
0.02997406624
0.02997226822
0.02997031803
0.02996838106
0.02996656984
0.02996494509
0.0299635282
0.02996231535
0.02996128901
0.02996042591
0.02995970217
0.02995909717
0.02995860102
0.02995824488
0.02997250645
0.0299688913
0.02996510861
0.02996169308
0.02995890138
0.02995678362
0.0299552753
0.02995426583
0.02995363861
0.02995329022
0.0299531369
0.02995311437
0.02995317444
0.02995327838
0.02995338111
0.02996519943
0.02995740058
0.02995103097
0.02994665742
0.02994409279
0.02994290472
0.02994266056
0.02994301273
0.02994371035
0.02994458384
0.02994552397
0.02994646282
0.02994735695
0.02994816481
0.02994878277
0.02995364838
0.02994237966
0.02993606627
0.02993338556
0.02993294783
0.02993376435
0.02993521467
0.02993693228
0.02993870946
0.02994043346
0.02994204697
0.02994352377
0.02994485108
0.02994600465
0.02994686654
0.02996519948
0.02995740066
0.02995103106
0.02994665752
0.02994409288
0.02994290481
0.02994266064
0.02994301281
0.02994371042
0.0299445839
0.02994552403
0.02994646288
0.029947357
0.02994816486
0.02994878282
0.02997250643
0.0299688913
0.02996510864
0.02996169314
0.02995890146
0.02995678372
0.02995527541
0.02995426594
0.02995363872
0.02995329033
0.029953137
0.02995311447
0.02995317453
0.02995327847
0.02995338121
0.02997406621
0.02997226822
0.02997031805
0.0299683811
0.02996656991
0.02996494517
0.02996352829
0.02996231545
0.02996128912
0.02996042602
0.02995970228
0.02995909728
0.02995860114
0.029958245
0.02997583471
0.02997490067
0.02997374708
0.02997243964
0.02997104901
0.02996963829
0.0299682572
0.02996694092
0.02996571161
0.02996458112
0.02996355426
0.02996263379
0.02996183405
0.02996123621
0.02997687751
0.02997651941
0.02997598994
0.02997528605
0.0299744246
0.02997343572
0.02997235567
0.02997122107
0.0299700651
0.02996891559
0.02996779465
0.02996671961
0.02996570715
0.0299647894
0.02996408208
0.02997649806
0.02997582104
0.02997489347
0.02997376447
0.02997250246
0.02997117573
0.02996984153
0.02996854225
0.029967306
0.02996614921
0.02996507983
0.02996410058
0.02996321377
0.02996243477
0.02996184713
0.02997552106
0.02997406624
0.02997226822
0.02997031804
0.02996838107
0.02996656986
0.02996494512
0.02996352823
0.02996231538
0.02996128904
0.02996042594
0.0299597022
0.0299590972
0.02995860106
0.02995824491
0.0299737035
0.0299709527
0.02996796906
0.02996513894
0.02996267315
0.02996064368
0.02995903881
0.02995780665
0.02995688242
0.02995620293
0.02995571289
0.02995536678
0.02995512843
0.02995497041
0.02995487717
0.02997181053
0.02996802098
0.02996443599
0.02996140679
0.02995901047
0.02995719675
0.02995587075
0.02995493231
0.02995429199
0.02995387578
0.02995362491
0.02995349382
0.02995344711
0.02995345538
0.02995348663
0.02997370353
0.02997095274
0.02996796911
0.02996513899
0.02996267321
0.02996064375
0.02995903888
0.02995780671
0.02995688248
0.02995620299
0.02995571295
0.02995536683
0.02995512849
0.02995497046
0.02995487723
0.02997552106
0.02997406626
0.02997226825
0.02997031808
0.02996838113
0.02996656993
0.02996494519
0.02996352831
0.02996231546
0.02996128913
0.02996042603
0.02995970229
0.02995909729
0.02995860115
0.02995824501
0.02997649806
0.02997582104
0.02997489348
0.02997376449
0.02997250249
0.02997117578
0.02996984159
0.02996854232
0.02996730607
0.0299661493
0.02996507992
0.02996410068
0.02996321387
0.02996243488
0.02996184724
0.0299765194
0.02997598993
0.02997528604
0.0299744246
0.02997343573
0.02997235569
0.0299712211
0.02997006514
0.02996891564
0.02996779471
0.02996671967
0.02996570723
0.02996478948
0.02996408217
0.02997704297
0.02997682974
0.02997649875
0.02997603215
0.02997542452
0.02997468278
0.02997382368
0.02997287045
0.02997184931
0.02997078671
0.02996970744
0.02996863434
0.02996759156
0.02996662174
0.02996586088
0.02997687751
0.02997651941
0.02997598994
0.02997528605
0.0299744246
0.02997343572
0.02997235568
0.02997122108
0.0299700651
0.0299689156
0.02996779466
0.02996671962
0.02996570717
0.02996478941
0.0299640821
0.02997650752
0.02997583472
0.02997490068
0.02997374709
0.02997243965
0.029971049
0.02996963827
0.02996825717
0.02996694089
0.02996571158
0.02996458107
0.02996355421
0.02996263373
0.02996183399
0.02996123615
0.02997595268
0.02997483301
0.02997338422
0.02997172415
0.02996997482
0.02996823739
0.0299665841
0.02996505972
0.02996368696
0.02996247256
0.02996141277
0.02996049792
0.02995971714
0.02995906858
0.02995860012
0.02997553722
0.0299741191
0.02997238836
0.02997050389
0.02996859884
0.02996676904
0.02996507525
0.02996355013
0.02996220585
0.02996104069
0.02996004433
0.02995920196
0.02995849833
0.02995792608
0.02995751981
0.02997595269
0.02997483302
0.02997338424
0.02997172417
0.02996997485
0.02996823742
0.02996658413
0.02996505976
0.029963687
0.0299624726
0.02996141281
0.02996049797
0.02995971719
0.02995906862
0.02995860017
0.02997650753
0.02997583473
0.0299749007
0.02997374711
0.02997243967
0.02997104903
0.02996963831
0.02996825722
0.02996694094
0.02996571164
0.02996458114
0.02996355428
0.0299626338
0.02996183406
0.02996123623
0.02997687751
0.02997651942
0.02997598994
0.02997528606
0.02997442462
0.02997343575
0.02997235572
0.02997122113
0.02997006516
0.02996891567
0.02996779474
0.0299667197
0.02996570725
0.02996478951
0.02996408219
0.02997704296
0.02997682973
0.02997649875
0.02997603215
0.02997542453
0.02997468279
0.0299738237
0.02997287048
0.02997184935
0.02997078675
0.0299697075
0.0299686344
0.02996759163
0.02996662182
0.02996586097
)
;

boundaryField
{
    top
    {
        type            calculated;
        value           nonuniform List<scalar> 
127
(
0.02997704296
0.02997682973
0.02997651941
0.02997583472
0.029974833
0.02997411908
0.029974833
0.02997583471
0.0299765194
0.02997682973
0.02997649875
0.02997598993
0.02997490067
0.0299733842
0.02997238832
0.02997338421
0.02997490067
0.02997598993
0.02997649875
0.02997603214
0.02997528604
0.02997374708
0.02997172413
0.02997050385
0.02997172414
0.02997374708
0.02997528604
0.02997603215
0.02997542451
0.02997442459
0.02997243963
0.02996997479
0.0299685988
0.02996997482
0.02997243964
0.0299744246
0.02997542453
0.02997468277
0.02997343571
0.02997104898
0.02996823736
0.029966769
0.02996823739
0.02997104901
0.02997343573
0.02997468279
0.02997382367
0.02997235567
0.02996963825
0.02996658407
0.02996507521
0.02996658411
0.02996963829
0.02997235569
0.0299738237
0.02997287044
0.02997122107
0.02996825715
0.02996505969
0.02996355009
0.02996505973
0.0299682572
0.0299712211
0.02997287048
0.02997184929
0.02997006509
0.02996694087
0.02996368693
0.02996220582
0.02996368698
0.02996694092
0.02997006514
0.02997184935
0.02997078669
0.02996891559
0.02996571155
0.02996247253
0.02996104066
0.02996247258
0.02996571161
0.02996891564
0.02997078675
0.02996970742
0.02996779465
0.02996458105
0.02996141274
0.0299600443
0.0299614128
0.02996458112
0.02996779471
0.0299697075
0.02996863431
0.0299667196
0.02996355418
0.02996049789
0.02995920194
0.02996049795
0.02996355426
0.02996671967
0.0299686344
0.02996759153
0.02996570715
0.02996263371
0.02995971711
0.0299584983
0.02995971717
0.02996263379
0.02996570723
0.02996759163
0.02996662171
0.02996478939
0.02996183396
0.02995906855
0.02995792605
0.02995906861
0.02996183405
0.02996478948
0.02996662182
0.02996586085
0.02996408207
0.02996123613
0.0299586001
0.02995751978
0.02995860016
0.02996123621
0.02996408217
0.02996586097
)
;
    }
    bottom
    {
        type            calculated;
        value           nonuniform List<scalar> 
134
(
0.02997687751
0.02997650752
0.02997595268
0.02997553721
0.02997595269
0.02997650752
0.02997687751
0.02997704297
0.02997682973
0.0299765194
0.02997583471
0.029974833
0.02997411907
0.02997483301
0.02997583473
0.02997651941
0.02997682974
0.02997649874
0.02997598992
0.02997490066
0.0299733842
0.02997238831
0.02997338422
0.02997490069
0.02997598994
0.02997649875
0.02997603213
0.02997528603
0.02997374706
0.02997172412
0.02997050382
0.02997172414
0.02997374709
0.02997528605
0.02997603215
0.0299754245
0.02997442457
0.02997243961
0.02996997478
0.02996859876
0.0299699748
0.02997243964
0.0299744246
0.02997542452
0.02997468274
0.02997343568
0.02997104895
0.02996823733
0.02996676894
0.02996823736
0.02997104899
0.02997343572
0.02997468278
0.02997382364
0.02997235563
0.02996963821
0.02996658403
0.02996507513
0.02996658406
0.02996963826
0.02997235567
0.02997382368
0.0299728704
0.02997122103
0.0299682571
0.02996505964
0.02996355001
0.02996505967
0.02996825716
0.02997122107
0.02997287045
0.02997184925
0.02997006504
0.02996694081
0.02996368686
0.02996220572
0.0299636869
0.02996694087
0.0299700651
0.02997184931
0.02997078664
0.02996891553
0.02996571148
0.02996247245
0.02996104055
0.02996247249
0.02996571155
0.02996891559
0.02997078671
0.02996970736
0.02996779458
0.02996458098
0.02996141265
0.02996004418
0.02996141269
0.02996458104
0.02996779465
0.02996970744
0.02996863425
0.02996671953
0.0299635541
0.0299604978
0.02995920181
0.02996049784
0.02996355417
0.02996671961
0.02996863434
0.02996759146
0.02996570707
0.02996263362
0.02995971701
0.02995849818
0.02995971705
0.02996263369
0.02996570715
0.02996759156
0.02996662163
0.02996478931
0.02996183386
0.02995906844
0.02995792592
0.02995906848
0.02996183394
0.0299647894
0.02996662174
0.02996586077
0.02996408198
0.02996123602
0.02995859998
0.02995751964
0.02995860003
0.0299612361
0.02996408208
0.02996586088
)
;
    }
    side-walls
    {
        type            calculated;
        value           nonuniform List<scalar> 
261
(
0.02997682973
0.0299765194
0.0299758347
0.02997483297
0.02997411906
0.029974833
0.02997583471
0.02997651941
0.02997682973
0.02997649874
0.02997598991
0.02997490064
0.02997338416
0.02997238829
0.02997338419
0.02997490067
0.02997598993
0.02997649875
0.02997603213
0.02997528602
0.02997374704
0.02997172407
0.02997050379
0.02997172411
0.02997374707
0.02997528604
0.02997603214
0.0299754245
0.02997442456
0.02997243958
0.02996997472
0.02996859872
0.02996997476
0.02997243961
0.02997442459
0.02997542451
0.02997468274
0.02997343567
0.02997104892
0.02996823727
0.0299667689
0.02996823732
0.02997104896
0.0299734357
0.02997468277
0.02997382364
0.02997235562
0.02996963817
0.02996658396
0.02996507509
0.02996658401
0.02996963822
0.02997235566
0.02997382367
0.0299728704
0.02997122101
0.02996825706
0.02996505957
0.02996354996
0.02996505962
0.02996825712
0.02997122106
0.02997287044
0.02997184925
0.02997006502
0.02996694077
0.02996368679
0.02996220567
0.02996368685
0.02996694083
0.02997006508
0.02997184929
0.02997078664
0.02996891551
0.02996571144
0.02996247238
0.0299610405
0.02996247244
0.02996571151
0.02996891557
0.02997078669
0.02996970736
0.02996779456
0.02996458093
0.02996141259
0.02996004413
0.02996141264
0.029964581
0.02996779463
0.02996970742
0.02996863425
0.02996671951
0.02996355406
0.02996049774
0.02995920176
0.02996049779
0.02996355413
0.02996671958
0.02996863431
0.02996759146
0.02996570705
0.02996263358
0.02995971695
0.02995849813
0.029959717
0.02996263365
0.02996570713
0.02996759153
0.02996662163
0.02996478929
0.02996183383
0.02995906838
0.02995792587
0.02995906844
0.0299618339
0.02996478937
0.02996662171
0.02996586077
0.02996408197
0.02996123599
0.02995859993
0.0299575196
0.02995859998
0.02996123606
0.02996408205
0.02996586085
0.02997704297
0.02997687751
0.02997650752
0.02997595268
0.02997553722
0.02997595269
0.02997650753
0.02997687751
0.02997704296
0.02997682974
0.02997651941
0.02997583472
0.02997483301
0.0299741191
0.02997483302
0.02997583473
0.02997651942
0.02997682973
0.02997649875
0.02997598994
0.02997490068
0.02997338422
0.02997238836
0.02997338424
0.0299749007
0.02997598994
0.02997649875
0.02997603215
0.02997528605
0.02997374709
0.02997172415
0.02997050389
0.02997172417
0.02997374711
0.02997528606
0.02997603215
0.02997542452
0.0299744246
0.02997243965
0.02996997482
0.02996859884
0.02996997485
0.02997243967
0.02997442462
0.02997542453
0.02997468278
0.02997343572
0.029971049
0.02996823739
0.02996676904
0.02996823742
0.02997104903
0.02997343575
0.02997468279
0.02997382368
0.02997235568
0.02996963827
0.0299665841
0.02996507525
0.02996658413
0.02996963831
0.02997235572
0.0299738237
0.02997287045
0.02997122108
0.02996825717
0.02996505972
0.02996355013
0.02996505976
0.02996825722
0.02997122113
0.02997287048
0.02997184931
0.0299700651
0.02996694089
0.02996368696
0.02996220585
0.029963687
0.02996694094
0.02997006516
0.02997184935
0.02997078671
0.0299689156
0.02996571158
0.02996247256
0.02996104069
0.0299624726
0.02996571164
0.02996891567
0.02997078675
0.02996970744
0.02996779466
0.02996458107
0.02996141277
0.02996004433
0.02996141281
0.02996458114
0.02996779474
0.0299697075
0.02996863434
0.02996671962
0.02996355421
0.02996049792
0.02995920196
0.02996049797
0.02996355428
0.0299667197
0.0299686344
0.02996759156
0.02996570717
0.02996263373
0.02995971714
0.02995849833
0.02995971719
0.0299626338
0.02996570725
0.02996759163
0.02996662174
0.02996478941
0.02996183399
0.02995906858
0.02995792608
0.02995906862
0.02996183406
0.02996478951
0.02996662182
0.02996586088
0.0299640821
0.02996123615
0.02995860012
0.02995751981
0.02995860017
0.02996123623
0.02996408219
0.02996586097
)
;
    }
    inlet
    {
        type            calculated;
        value           nonuniform 0();
    }
    outlet
    {
        type            calculated;
        value           nonuniform List<scalar> 
81
(
0.02996586077
0.02996408197
0.02996123599
0.02995859993
0.0299575196
0.02995859998
0.02996123606
0.02996408205
0.02996586085
0.02996408198
0.02996184701
0.02995824477
0.02995487699
0.02995348643
0.02995487704
0.02995824484
0.02996184711
0.02996408207
0.02996123602
0.02995824479
0.02995338099
0.0299487826
0.02994686637
0.02994878266
0.02995338108
0.02995824489
0.02996123613
0.02995859998
0.02995487702
0.02994878261
0.02994297045
0.02994052981
0.02994297052
0.02994878273
0.02995487714
0.0299586001
0.02995751964
0.02995348646
0.0299468664
0.02994052984
0.02993785536
0.02994052989
0.02994686652
0.0299534866
0.02995751978
0.02995860003
0.02995487708
0.02994878269
0.02994297054
0.02994052991
0.0299429706
0.02994878281
0.02995487721
0.02995860016
0.0299612361
0.02995824488
0.02995338111
0.02994878277
0.02994686654
0.02994878282
0.02995338121
0.029958245
0.02996123621
0.02996408208
0.02996184713
0.02995824491
0.02995487717
0.02995348663
0.02995487723
0.02995824501
0.02996184724
0.02996408217
0.02996586088
0.0299640821
0.02996123615
0.02995860012
0.02995751981
0.02995860017
0.02996123623
0.02996408219
0.02996586097
)
;
    }
    procBoundary1to0
    {
        type            processor;
        value           nonuniform List<scalar> 
97
(
0.02997704296
0.02997704296
0.02997687751
0.02997650752
0.02997595268
0.02997553722
0.0299759527
0.02997650753
0.02997687752
0.02997704297
0.02997708959
0.02997649805
0.02997649805
0.02997649805
0.02997552105
0.02997370351
0.02997181056
0.02997370353
0.02997552107
0.02997649807
0.02997687752
0.02997692173
0.02997648816
0.02997250641
0.02997250641
0.02997250641
0.02996519939
0.02995364848
0.02996519954
0.02997250653
0.02997552108
0.02997650753
0.02997667614
0.02997572485
0.0299724026
0.02993606882
0.02993606882
0.02993606882
0.02985456369
0.02993606968
0.02996519952
0.02997370353
0.02997595269
0.02997650109
0.02997500597
0.02996871986
0.02994387858
0.02918590338
0.02918590338
0.02918590338
0.02985456368
0.02985456368
0.02995364848
0.02997181056
0.02997553723
0.02997667614
0.02997572485
0.02997240261
0.02996276116
0.02994387869
0.02996276123
0.02996519932
0.02996519932
0.02996519932
0.02997370351
0.02997595269
0.02997692173
0.02997648816
0.02997521949
0.02997240261
0.02996871996
0.02997240264
0.0299752195
0.02997552105
0.02997552105
0.02997552105
0.02997650752
0.02997708959
0.02997691837
0.02997648816
0.02997572485
0.02997500599
0.02997572486
0.02997648817
0.02997691837
0.02997687751
0.02997687751
0.02997687751
0.02997716567
0.02997708959
0.02997692173
0.02997667614
0.0299765011
0.02997667614
0.02997692173
0.02997708959
0.02997716567
)
;
    }
}


// ************************************************************************* //
