/*--------------------------------*- C++ -*----------------------------------*\
| =========                 |                                                 |
| \\      /  F ield         | OpenFOAM: The Open Source CFD Toolbox           |
|  \\    /   O peration     | Version:  4.x                                   |
|   \\  /    A nd           | Web:      www.OpenFOAM.org                      |
|    \\/     M anipulation  |                                                 |
\*---------------------------------------------------------------------------*/
FoamFile
{
    version     2.0;
    format      ascii;
    class       volScalarField;
    location    "11000";
    object      X_H2O;
}
// * * * * * * * * * * * * * * * * * * * * * * * * * * * * * * * * * * * * * //

dimensions      [0 0 0 0 0 0 0];

internalField   nonuniform List<scalar> 
1174
(
1.992286418e-06
2.32333846e-06
2.79004039e-06
3.397798009e-06
4.139716252e-06
4.999029138e-06
5.952524214e-06
6.973971958e-06
8.036931482e-06
9.116591692e-06
1.019013061e-05
1.123336422e-05
1.220364752e-05
1.296488532e-05
2.302673424e-06
2.832244115e-06
3.536258513e-06
4.397879906e-06
5.386973928e-06
6.467279856e-06
7.602189935e-06
8.758520519e-06
9.908420147e-06
1.102979515e-05
1.210530145e-05
1.31182382e-05
1.403646875e-05
1.474417193e-05
2.987462298e-06
3.921633941e-06
5.075401384e-06
6.383073818e-06
7.774000432e-06
9.185061017e-06
1.056653384e-05
1.188323512e-05
1.311300346e-05
1.424398283e-05
1.527135103e-05
1.619233726e-05
1.699257788e-05
1.759080675e-05
3.989264214e-06
5.438215842e-06
7.098503803e-06
8.848114295e-06
1.058588254e-05
1.223956326e-05
1.376437346e-05
1.513760181e-05
1.635249651e-05
1.741279963e-05
1.832817147e-05
1.910948101e-05
1.975854897e-05
2.022739829e-05
4.703186063e-06
6.434098617e-06
8.318804496e-06
1.022415161e-05
1.205431193e-05
1.374851667e-05
1.527408236e-05
1.661884533e-05
1.77845139e-05
1.878139714e-05
1.962429127e-05
2.032845707e-05
2.090121479e-05
2.130787465e-05
3.989231454e-06
5.438168261e-06
7.098441069e-06
8.84803445e-06
1.058578502e-05
1.223944978e-05
1.376424216e-05
1.513745533e-05
1.635233492e-05
1.741262075e-05
1.832798191e-05
1.910927964e-05
1.97583393e-05
2.022717488e-05
2.987430281e-06
3.921590861e-06
5.07534437e-06
6.382998588e-06
7.773900914e-06
9.184933377e-06
1.056637674e-05
1.188304609e-05
1.311278036e-05
1.424373072e-05
1.527107008e-05
1.619202892e-05
1.699224445e-05
1.759044952e-05
2.302646607e-06
2.832211404e-06
3.536216617e-06
4.397823665e-06
5.386896642e-06
6.467175085e-06
7.602053448e-06
8.758349557e-06
9.908208378e-06
1.102954152e-05
1.210500786e-05
1.311790354e-05
1.403609306e-05
1.474376184e-05
1.992268241e-06
2.323319383e-06
2.790016251e-06
3.397763846e-06
4.139666036e-06
4.998955293e-06
5.952420782e-06
6.97383227e-06
8.036749939e-06
9.116365536e-06
1.018985404e-05
1.123303817e-05
1.220326941e-05
1.296445475e-05
1.944484837e-06
2.302652248e-06
2.832221895e-06
3.536234454e-06
4.397853718e-06
5.386945099e-06
6.467249462e-06
7.602158604e-06
8.75848737e-06
9.908384607e-06
1.10297595e-05
1.210526661e-05
1.311820539e-05
1.403643658e-05
1.474414139e-05
3.001167592e-06
3.928846507e-06
5.058001878e-06
6.320227382e-06
7.647220486e-06
8.981735582e-06
1.028138448e-05
1.151804313e-05
1.267526595e-05
1.37451142e-05
1.472485627e-05
1.561217283e-05
1.639165519e-05
1.697967972e-05
4.756147725e-06
6.554319803e-06
8.504722895e-06
1.044197461e-05
1.225353007e-05
1.387867396e-05
1.529600298e-05
1.65093216e-05
1.753615723e-05
1.839976251e-05
1.912402505e-05
1.972954166e-05
2.022617471e-05
2.05826975e-05
7.869791447e-06
1.085362278e-05
1.368402353e-05
1.615017662e-05
1.818007274e-05
1.978541984e-05
2.101808895e-05
2.194284639e-05
2.262287694e-05
2.311345066e-05
2.346010689e-05
2.369897662e-05
2.385749616e-05
2.395109426e-05
1.080138144e-05
1.438658749e-05
1.74161157e-05
1.981286067e-05
2.162706915e-05
2.295359333e-05
2.389256572e-05
2.453343585e-05
2.495020631e-05
2.520161661e-05
2.533325266e-05
2.53804885e-05
2.537271076e-05
2.534182421e-05
7.869718502e-06
1.085353351e-05
1.368391678e-05
1.61500517e-05
1.817992311e-05
1.978525004e-05
2.101789923e-05
2.194263612e-05
2.262264843e-05
2.311321074e-05
2.345985512e-05
2.369871587e-05
2.385722741e-05
2.395081726e-05
4.756069399e-06
6.554235382e-06
8.504622228e-06
1.044184736e-05
1.225336922e-05
1.387847295e-05
1.529576237e-05
1.650904344e-05
1.753584366e-05
1.839941754e-05
1.912365175e-05
1.972914522e-05
2.022575611e-05
2.058225439e-05
3.001112007e-06
3.928791622e-06
5.057933421e-06
6.320135398e-06
7.647094814e-06
8.981568588e-06
1.028117313e-05
1.15177852e-05
1.267495921e-05
1.374476236e-05
1.472445983e-05
1.561173587e-05
1.639117553e-05
1.697916452e-05
2.302647795e-06
2.832210116e-06
3.536210778e-06
4.397810019e-06
5.386872972e-06
6.467140352e-06
7.602005615e-06
8.758284853e-06
9.908127887e-06
1.102944601e-05
1.210489657e-05
1.311777695e-05
1.403595094e-05
1.474359979e-05
2.314521925e-06
2.987409578e-06
3.921574001e-06
5.075335218e-06
6.383002267e-06
7.773922859e-06
9.184979935e-06
1.056645097e-05
1.18831512e-05
1.311291669e-05
1.424389924e-05
1.527126914e-05
1.619225824e-05
1.699250319e-05
1.759073472e-05
3.301156132e-06
4.756077864e-06
6.554253015e-06
8.504656289e-06
1.044190951e-05
1.225346495e-05
1.387860938e-05
1.529593997e-05
1.650926276e-05
1.75360984e-05
1.839970709e-05
1.912397227e-05
1.972948995e-05
2.022612888e-05
2.058265227e-05
9.931431334e-06
1.371420249e-05
1.712998006e-05
1.992204709e-05
2.204026368e-05
2.354908291e-05
2.455909822e-05
2.518687042e-05
2.55358131e-05
2.56896869e-05
2.571275461e-05
2.565321337e-05
2.554975607e-05
2.544738106e-05
2.142212152e-05
2.779182543e-05
3.216571786e-05
3.47308774e-05
3.591955198e-05
3.616435961e-05
3.581282772e-05
3.511583719e-05
3.424295731e-05
3.33034058e-05
3.236510834e-05
3.147150994e-05
3.06641172e-05
3.004649546e-05
3.644165352e-05
4.275542807e-05
4.543683226e-05
4.587536767e-05
4.505966629e-05
4.361014802e-05
4.189328552e-05
4.011681128e-05
3.839346331e-05
3.678054761e-05
3.530432669e-05
3.397754711e-05
3.282445277e-05
3.196289667e-05
2.142173263e-05
2.779144911e-05
3.216533378e-05
3.473047918e-05
3.591914121e-05
3.616394484e-05
3.581241148e-05
3.511542557e-05
3.424254912e-05
3.330300371e-05
3.236471076e-05
3.147111674e-05
3.066373517e-05
3.004611548e-05
9.931163314e-06
1.371396703e-05
1.712971362e-05
1.992172601e-05
2.203988026e-05
2.354864858e-05
2.455861382e-05
2.518635069e-05
2.553526626e-05
2.568912197e-05
2.571217562e-05
2.565262342e-05
2.554915798e-05
2.544676761e-05
4.756056177e-06
6.554201131e-06
8.504560023e-06
1.044175445e-05
1.225324358e-05
1.387831954e-05
1.529558231e-05
1.650883937e-05
1.753562055e-05
1.839917791e-05
1.912339963e-05
1.972888073e-05
2.022548347e-05
2.058197552e-05
2.98743246e-06
3.921581679e-06
5.075315005e-06
6.382940197e-06
7.773807163e-06
9.184801011e-06
1.056620152e-05
1.188283042e-05
1.311252471e-05
1.424343629e-05
1.527074086e-05
1.61916673e-05
1.699185069e-05
1.759002269e-05
2.869401336e-06
3.989170329e-06
5.438103603e-06
7.098376961e-06
8.847975868e-06
1.058573742e-05
1.223941624e-05
1.37642226e-05
1.513745242e-05
1.635235315e-05
1.74126562e-05
1.83280334e-05
1.910934859e-05
1.975842455e-05
2.022727951e-05
5.118736382e-06
7.869640181e-06
1.085346819e-05
1.368387165e-05
1.615003026e-05
1.817993114e-05
1.97852849e-05
2.101796122e-05
2.194272274e-05
2.262275865e-05
2.311333889e-05
2.345999967e-05
2.369887757e-05
2.385740029e-05
2.395100306e-05
1.362321628e-05
2.142182798e-05
2.779159857e-05
3.216553344e-05
3.47307241e-05
3.591942522e-05
3.616425407e-05
3.58127385e-05
3.511575986e-05
3.424288987e-05
3.33033411e-05
3.236505264e-05
3.147145711e-05
3.066407021e-05
3.004645534e-05
6.075826045e-05
6.872054966e-05
6.997400692e-05
6.760866544e-05
6.363958739e-05
5.919968747e-05
5.486049768e-05
5.087499702e-05
4.732869616e-05
4.422558733e-05
4.153507881e-05
3.922077041e-05
3.727761418e-05
3.585940747e-05
0.000137816287
0.0001275979473
0.0001120300695
9.714569927e-05
8.452015949e-05
7.42335534e-05
6.594365954e-05
5.925224058e-05
5.381368027e-05
4.93548174e-05
4.566855289e-05
4.260689231e-05
4.010035867e-05
3.830019245e-05
6.075691731e-05
6.871955713e-05
6.997310514e-05
6.76077965e-05
6.363876711e-05
5.919890493e-05
5.485977097e-05
5.087431214e-05
4.732805779e-05
4.422498782e-05
4.153451566e-05
3.922023623e-05
3.727710416e-05
3.585891373e-05
2.142178221e-05
2.779135854e-05
3.216510566e-05
3.473013641e-05
3.59187218e-05
3.616346962e-05
3.581191062e-05
3.511491423e-05
3.424203724e-05
3.33025003e-05
3.236421934e-05
3.147063727e-05
3.06632663e-05
3.004565267e-05
7.869729459e-06
1.08534725e-05
1.368375954e-05
1.61497905e-05
1.81795703e-05
1.978481667e-05
2.101740051e-05
2.194208657e-05
2.262206006e-05
2.311259505e-05
2.345921895e-05
2.369806229e-05
2.385656541e-05
2.395014098e-05
3.989244169e-06
5.438150017e-06
7.098369993e-06
8.847893509e-06
1.058556463e-05
1.223914557e-05
1.37638547e-05
1.513699142e-05
1.635180133e-05
1.74120237e-05
1.83273307e-05
1.910857834e-05
1.975759499e-05
2.022638956e-05
3.284887889e-06
4.703097175e-06
6.433991665e-06
8.318680655e-06
1.022401359e-05
1.205416297e-05
1.374836054e-05
1.527392186e-05
1.661868271e-05
1.778435188e-05
1.878123518e-05
1.962413313e-05
2.032830259e-05
2.090106529e-05
2.130773298e-05
7.011633446e-06
1.080123195e-05
1.438642396e-05
1.741594468e-05
1.981268421e-05
2.162689072e-05
2.295341631e-05
2.389239092e-05
2.453326521e-05
2.495004163e-05
2.520146096e-05
2.533310729e-05
2.53803476e-05
2.537257821e-05
2.534169297e-05
2.517298299e-05
3.644136483e-05
4.275512608e-05
4.54365375e-05
4.58750939e-05
4.50594135e-05
4.360991533e-05
4.18930731e-05
4.011661764e-05
3.839328771e-05
3.678039101e-05
3.53041818e-05
3.397741282e-05
3.282432947e-05
3.196278544e-05
0.0001242482688
0.0001378151063
0.0001275971637
0.0001120294966
9.714525338e-05
8.451979731e-05
7.423326572e-05
6.594342897e-05
5.925205628e-05
5.38135198e-05
4.935468483e-05
4.566843158e-05
4.26067866e-05
4.010026924e-05
3.830011922e-05
0.0004691802832
0.0003000149926
0.0002065255606
0.0001518749549
0.0001180599575
9.595407879e-05
8.075158669e-05
6.9819414e-05
6.165492332e-05
5.536493625e-05
5.039846185e-05
4.641146413e-05
4.322665432e-05
4.097470828e-05
0.0001378162543
0.0001275966109
0.0001120284167
9.714407985e-05
8.451869528e-05
7.423224359e-05
6.594250939e-05
5.925121272e-05
5.381275594e-05
4.935398725e-05
4.566779255e-05
4.260618955e-05
4.009970659e-05
3.829956797e-05
3.64416973e-05
4.275488393e-05
4.543589024e-05
4.587420308e-05
4.505840158e-05
4.360885479e-05
4.189199641e-05
4.011555871e-05
3.839225269e-05
3.677939077e-05
3.530321144e-05
3.397647271e-05
3.282341735e-05
3.196188598e-05
1.080140561e-05
1.438642259e-05
1.741574613e-05
1.981230678e-05
2.162636107e-05
2.295276698e-05
2.389164932e-05
2.453245356e-05
2.494917934e-05
2.520055881e-05
2.533217458e-05
2.537939636e-05
2.537161514e-05
2.534071027e-05
4.703192351e-06
6.434037399e-06
8.318643234e-06
1.022387081e-05
1.205390525e-05
1.374798493e-05
1.527343564e-05
1.661809263e-05
1.778366639e-05
1.878046763e-05
1.962329366e-05
2.032740162e-05
2.090010917e-05
2.130671702e-05
2.869395855e-06
3.989148995e-06
5.438063519e-06
7.09831688e-06
8.847892586e-06
1.058563023e-05
1.223928474e-05
1.376407114e-05
1.513727951e-05
1.635215907e-05
1.741244522e-05
1.832780582e-05
1.91091067e-05
1.975816989e-05
2.022701294e-05
5.118673333e-06
7.869527817e-06
1.0853314e-05
1.368368111e-05
1.614980981e-05
1.817968283e-05
1.978501434e-05
2.101767171e-05
2.194241976e-05
2.26224406e-05
2.311301348e-05
2.345967052e-05
2.369853926e-05
2.385706021e-05
2.395065883e-05
1.362266378e-05
2.142130354e-05
2.779101752e-05
3.216492839e-05
3.473010539e-05
3.591880914e-05
3.616364054e-05
3.581213704e-05
3.511517505e-05
3.424232469e-05
3.330279752e-05
3.236452532e-05
3.147094171e-05
3.066357205e-05
3.004596013e-05
4.275057223e-05
6.075574484e-05
6.871860024e-05
6.997235581e-05
6.760721133e-05
6.36382955e-05
5.919853448e-05
5.485945987e-05
5.087404876e-05
4.732783113e-05
4.42247998e-05
4.153434514e-05
3.922008556e-05
3.727696972e-05
3.585879145e-05
0.0001242476721
0.0001378144723
0.0001275955032
0.0001120276941
9.714358882e-05
8.451833515e-05
7.4231974e-05
6.594230115e-05
5.925104924e-05
5.381261671e-05
4.93538683e-05
4.566768709e-05
4.260610171e-05
4.00996297e-05
3.829950521e-05
4.275084175e-05
6.075557331e-05
6.871802801e-05
6.997154715e-05
6.760631085e-05
6.363737756e-05
5.919763962e-05
5.48586182e-05
5.087326366e-05
4.732709888e-05
4.422411019e-05
4.153370985e-05
3.921949455e-05
3.727640275e-05
3.585823974e-05
2.142207006e-05
2.77911656e-05
3.216463626e-05
3.472951777e-05
3.591803058e-05
3.61627564e-05
3.581119443e-05
3.511420892e-05
3.42413547e-05
3.330184298e-05
3.23635876e-05
3.147003255e-05
3.066268227e-05
3.004508376e-05
7.869820094e-06
1.08534495e-05
1.368362533e-05
1.614956686e-05
1.817927471e-05
1.978446776e-05
2.101701645e-05
2.194167688e-05
2.262163726e-05
2.31121613e-05
2.345877832e-05
2.369762167e-05
2.385612101e-05
2.39496957e-05
3.989268059e-06
5.438145033e-06
7.098322077e-06
8.847797421e-06
1.058542128e-05
1.223895801e-05
1.376362764e-05
1.513672861e-05
1.635150798e-05
1.741170712e-05
1.832699192e-05
1.910822483e-05
1.975722854e-05
2.022601e-05
2.314507154e-06
2.987374242e-06
3.921514647e-06
5.075248318e-06
6.382884797e-06
7.773771907e-06
9.184791669e-06
1.056622448e-05
1.188288909e-05
1.31126181e-05
1.424356592e-05
1.527090121e-05
1.619185909e-05
1.699207619e-05
1.759028379e-05
3.301065431e-06
4.755958508e-06
6.554096667e-06
8.504460632e-06
1.044166979e-05
1.225318064e-05
1.387827818e-05
1.529556431e-05
1.650884966e-05
1.753564805e-05
1.839922719e-05
1.91234655e-05
1.972896179e-05
2.022557861e-05
2.058208151e-05
6.31578514e-06
9.930943261e-06
1.371371938e-05
1.71294546e-05
1.992146477e-05
2.203962243e-05
2.354839513e-05
2.455837062e-05
2.51861155e-05
2.55350435e-05
2.568890894e-05
2.571197446e-05
2.565242932e-05
2.554897806e-05
2.54465916e-05
1.362265091e-05
2.142117383e-05
2.779074847e-05
3.216453567e-05
3.472962126e-05
3.591826726e-05
3.616307547e-05
3.581156686e-05
3.511460781e-05
3.424176587e-05
3.330225592e-05
3.236400282e-05
3.14704409e-05
3.066308293e-05
3.004548032e-05
2.517273156e-05
3.644065837e-05
4.27540072e-05
4.54351817e-05
4.587362839e-05
4.50579382e-05
4.360847524e-05
4.189168722e-05
4.011529631e-05
3.839203581e-05
3.677920037e-05
3.530304564e-05
3.397632782e-05
3.282328898e-05
3.196176821e-05
1.362258583e-05
2.142101328e-05
2.779046419e-05
3.216414561e-05
3.472915315e-05
3.591775063e-05
3.616253956e-05
3.581102218e-05
3.51140694e-05
3.424123853e-05
3.330174302e-05
3.236350797e-05
3.146996054e-05
3.0662619e-05
3.004502335e-05
6.31594333e-06
9.931041969e-06
1.371367059e-05
1.712923786e-05
1.99210905e-05
2.203912656e-05
2.354780815e-05
2.455771959e-05
2.518542109e-05
2.553431684e-05
2.568817216e-05
2.571123e-05
2.565168402e-05
2.554823317e-05
2.544584745e-05
4.756124001e-06
6.554160816e-06
8.504408642e-06
1.044149628e-05
1.225288991e-05
1.387787988e-05
1.529507167e-05
1.650827267e-05
1.753500457e-05
1.839852717e-05
1.912271993e-05
1.972817705e-05
2.022476209e-05
2.058123978e-05
2.987467372e-06
3.921584858e-06
5.075269607e-06
6.382836194e-06
7.773637966e-06
9.184563729e-06
1.05659001e-05
1.188246819e-05
1.311210593e-05
1.424296722e-05
1.527022404e-05
1.619111229e-05
1.699126186e-05
1.758940493e-05
1.944463745e-06
2.302617715e-06
2.83216987e-06
3.536161051e-06
4.397753721e-06
5.386812884e-06
6.467078724e-06
7.601946621e-06
8.758231494e-06
9.908081214e-06
1.102940812e-05
1.210487013e-05
1.311776146e-05
1.40359475e-05
1.474361451e-05
2.323967825e-06
3.00106237e-06
3.928724406e-06
5.057850025e-06
6.320036885e-06
7.646981727e-06
8.981444961e-06
1.028103841e-05
1.151764505e-05
1.267481326e-05
1.374461233e-05
1.472430745e-05
1.561158217e-05
1.639102285e-05
1.6979012e-05
3.30106618e-06
4.755948496e-06
6.554066612e-06
8.504403367e-06
1.044158155e-05
1.225306065e-05
1.38781304e-05
1.529538938e-05
1.650864942e-05
1.753543047e-05
1.839899281e-05
1.912321967e-05
1.972870305e-05
2.022531291e-05
2.058180518e-05
5.118681395e-06
7.869486343e-06
1.085319044e-05
1.368345831e-05
1.614948605e-05
1.81792718e-05
1.978453089e-05
2.101712813e-05
2.194183015e-05
2.262182088e-05
2.311237103e-05
2.345900979e-05
2.369786725e-05
2.385638264e-05
2.39499669e-05
7.011586954e-06
1.080102906e-05
1.438602305e-05
1.741535449e-05
1.98119353e-05
2.162601794e-05
2.295245224e-05
2.389136701e-05
2.453219649e-05
2.494894524e-05
2.52003461e-05
2.533198176e-05
2.537922088e-05
2.537144938e-05
2.534055606e-05
5.118644476e-06
7.869413111e-06
1.085306747e-05
1.368328306e-05
1.614926204e-05
1.817900662e-05
1.978423575e-05
2.101680753e-05
2.194149146e-05
2.262146946e-05
2.31120089e-05
2.345864077e-05
2.369749884e-05
2.385601089e-05
2.39495939e-05
3.301067567e-06
4.755934535e-06
6.554007034e-06
8.504277189e-06
1.044138047e-05
1.22527864e-05
1.387778859e-05
1.529498911e-05
1.650819673e-05
1.753493767e-05
1.839846556e-05
1.912266451e-05
1.972812739e-05
2.022471383e-05
2.058119299e-05
2.323999283e-06
3.001091803e-06
3.928727455e-06
5.057805162e-06
6.319930717e-06
7.646807735e-06
8.98119813e-06
1.028071814e-05
1.151725359e-05
1.267435801e-05
1.374409621e-05
1.472373773e-05
1.561096073e-05
1.639035797e-05
1.697830927e-05
2.302670403e-06
2.832206454e-06
3.536170411e-06
4.397721543e-06
5.386726943e-06
6.46692905e-06
7.601724321e-06
8.757933179e-06
9.907705301e-06
1.102895427e-05
1.21043399e-05
1.311715966e-05
1.403527739e-05
1.474287696e-05
1.778978495e-06
1.992248661e-06
2.323290287e-06
2.789976315e-06
3.397711475e-06
4.139600356e-06
4.998876561e-06
5.95232965e-06
6.973730301e-06
8.036637103e-06
9.116242527e-06
1.018972438e-05
1.123290038e-05
1.220312758e-05
1.296430849e-05
1.944464607e-06
2.302617513e-06
2.832167038e-06
3.536153195e-06
4.397738432e-06
5.386787373e-06
6.467041271e-06
7.601894657e-06
8.758164292e-06
9.907999558e-06
1.102931019e-05
1.210475539e-05
1.311763087e-05
1.403580272e-05
1.474344831e-05
2.314511699e-06
2.987374229e-06
3.921502421e-06
5.075214775e-06
6.382821552e-06
7.773673076e-06
9.184653903e-06
1.056604561e-05
1.188266795e-05
1.311235874e-05
1.424326796e-05
1.527057182e-05
1.619149927e-05
1.699168457e-05
1.758985618e-05
2.869402021e-06
3.989135292e-06
5.438009036e-06
7.098202723e-06
8.847705275e-06
1.058536424e-05
1.223893828e-05
1.376364666e-05
1.513678293e-05
1.635159541e-05
1.741182396e-05
1.832713537e-05
1.910839273e-05
1.975741645e-05
2.022621393e-05
3.284879506e-06
4.703036924e-06
6.433847066e-06
8.318429464e-06
1.022364354e-05
1.205367316e-05
1.37477546e-05
1.527321119e-05
1.661787695e-05
1.778346174e-05
1.878027409e-05
1.962310978e-05
2.032722825e-05
2.08999468e-05
2.130656181e-05
2.869389026e-06
3.98910883e-06
5.437962794e-06
7.098129357e-06
8.847602059e-06
1.058522804e-05
1.223877174e-05
1.37634492e-05
1.51365598e-05
1.635134881e-05
1.741155954e-05
1.832685311e-05
1.910809788e-05
1.975710934e-05
2.022589455e-05
2.314504713e-06
2.987358386e-06
3.92146596e-06
5.075147044e-06
6.38271345e-06
7.773517572e-06
9.184447936e-06
1.056578881e-05
1.188236015e-05
1.31120038e-05
1.424287078e-05
1.527013632e-05
1.619102883e-05
1.69911843e-05
1.758932812e-05
1.944465635e-06
2.302617186e-06
2.832155073e-06
3.536117797e-06
4.39766809e-06
5.386672189e-06
6.466873336e-06
7.601668973e-06
8.757877279e-06
9.907651077e-06
1.102890192e-05
1.210428931e-05
1.311711067e-05
1.403523145e-05
1.474283362e-05
1.778988451e-06
1.992261893e-06
2.323299354e-06
2.789970974e-06
3.397680655e-06
4.139533497e-06
4.998762477e-06
5.95215847e-06
6.973494519e-06
8.036332698e-06
9.115865356e-06
1.018927172e-05
1.123237588e-05
1.220253118e-05
1.296364454e-05
)
;

boundaryField
{
    top
    {
        type            calculated;
        value           nonuniform List<scalar> 
127
(
1.778988451e-06
1.992268241e-06
2.302647795e-06
2.98743246e-06
3.989244169e-06
4.703192351e-06
3.989268059e-06
2.987467372e-06
2.302670403e-06
1.992261893e-06
2.323319383e-06
2.832210116e-06
3.921581679e-06
5.438150017e-06
6.434037399e-06
5.438145033e-06
3.921584858e-06
2.832206454e-06
2.323299354e-06
2.790016251e-06
3.536210778e-06
5.075315005e-06
7.098369993e-06
8.318643234e-06
7.098322077e-06
5.075269607e-06
3.536170411e-06
2.789970974e-06
3.397763846e-06
4.397810019e-06
6.382940197e-06
8.847893509e-06
1.022387081e-05
8.847797421e-06
6.382836194e-06
4.397721543e-06
3.397680655e-06
4.139666036e-06
5.386872972e-06
7.773807163e-06
1.058556463e-05
1.205390525e-05
1.058542128e-05
7.773637966e-06
5.386726943e-06
4.139533497e-06
4.998955293e-06
6.467140352e-06
9.184801011e-06
1.223914557e-05
1.374798493e-05
1.223895801e-05
9.184563729e-06
6.46692905e-06
4.998762477e-06
5.952420782e-06
7.602005615e-06
1.056620152e-05
1.37638547e-05
1.527343564e-05
1.376362764e-05
1.05659001e-05
7.601724321e-06
5.95215847e-06
6.97383227e-06
8.758284853e-06
1.188283042e-05
1.513699142e-05
1.661809263e-05
1.513672861e-05
1.188246819e-05
8.757933179e-06
6.973494519e-06
8.036749939e-06
9.908127887e-06
1.311252471e-05
1.635180133e-05
1.778366639e-05
1.635150798e-05
1.311210593e-05
9.907705301e-06
8.036332698e-06
9.116365536e-06
1.102944601e-05
1.424343629e-05
1.74120237e-05
1.878046763e-05
1.741170712e-05
1.424296722e-05
1.102895427e-05
9.115865356e-06
1.018985404e-05
1.210489657e-05
1.527074086e-05
1.83273307e-05
1.962329366e-05
1.832699192e-05
1.527022404e-05
1.21043399e-05
1.018927172e-05
1.123303817e-05
1.311777695e-05
1.61916673e-05
1.910857834e-05
2.032740162e-05
1.910822483e-05
1.619111229e-05
1.311715966e-05
1.123237588e-05
1.220326941e-05
1.403595094e-05
1.699185069e-05
1.975759499e-05
2.090010917e-05
1.975722854e-05
1.699126186e-05
1.403527739e-05
1.220253118e-05
1.296445475e-05
1.474359979e-05
1.759002269e-05
2.022638956e-05
2.130671702e-05
2.022601e-05
1.758940493e-05
1.474287696e-05
1.296364454e-05
)
;
    }
    bottom
    {
        type            calculated;
        value           nonuniform List<scalar> 
134
(
1.944484837e-06
2.314521925e-06
2.869401336e-06
3.284887889e-06
2.869395855e-06
2.314507154e-06
1.944463745e-06
1.778978495e-06
1.992286418e-06
2.302652248e-06
2.987409578e-06
3.989170329e-06
4.703097175e-06
3.989148995e-06
2.987374242e-06
2.302617715e-06
1.992248661e-06
2.32333846e-06
2.832221895e-06
3.921574001e-06
5.438103603e-06
6.433991665e-06
5.438063519e-06
3.921514647e-06
2.83216987e-06
2.323290287e-06
2.79004039e-06
3.536234454e-06
5.075335218e-06
7.098376961e-06
8.318680655e-06
7.09831688e-06
5.075248318e-06
3.536161051e-06
2.789976315e-06
3.397798009e-06
4.397853718e-06
6.383002267e-06
8.847975868e-06
1.022401359e-05
8.847892586e-06
6.382884797e-06
4.397753721e-06
3.397711475e-06
4.139716252e-06
5.386945099e-06
7.773922859e-06
1.058573742e-05
1.205416297e-05
1.058563023e-05
7.773771907e-06
5.386812884e-06
4.139600356e-06
4.999029138e-06
6.467249462e-06
9.184979935e-06
1.223941624e-05
1.374836054e-05
1.223928474e-05
9.184791669e-06
6.467078724e-06
4.998876561e-06
5.952524214e-06
7.602158604e-06
1.056645097e-05
1.37642226e-05
1.527392186e-05
1.376407114e-05
1.056622448e-05
7.601946621e-06
5.95232965e-06
6.973971958e-06
8.75848737e-06
1.18831512e-05
1.513745242e-05
1.661868271e-05
1.513727951e-05
1.188288909e-05
8.758231494e-06
6.973730301e-06
8.036931482e-06
9.908384607e-06
1.311291669e-05
1.635235315e-05
1.778435188e-05
1.635215907e-05
1.31126181e-05
9.908081214e-06
8.036637103e-06
9.116591692e-06
1.10297595e-05
1.424389924e-05
1.74126562e-05
1.878123518e-05
1.741244522e-05
1.424356592e-05
1.102940812e-05
9.116242527e-06
1.019013061e-05
1.210526661e-05
1.527126914e-05
1.83280334e-05
1.962413313e-05
1.832780582e-05
1.527090121e-05
1.210487013e-05
1.018972438e-05
1.123336422e-05
1.311820539e-05
1.619225824e-05
1.910934859e-05
2.032830259e-05
1.91091067e-05
1.619185909e-05
1.311776146e-05
1.123290038e-05
1.220364752e-05
1.403643658e-05
1.699250319e-05
1.975842455e-05
2.090106529e-05
1.975816989e-05
1.699207619e-05
1.40359475e-05
1.220312758e-05
1.296488532e-05
1.474414139e-05
1.759073472e-05
2.022727951e-05
2.130773298e-05
2.022701294e-05
1.759028379e-05
1.474361451e-05
1.296430849e-05
)
;
    }
    side-walls
    {
        type            calculated;
        value           nonuniform List<scalar> 
261
(
1.992286418e-06
2.302673424e-06
2.987462298e-06
3.989264214e-06
4.703186063e-06
3.989231454e-06
2.987430281e-06
2.302646607e-06
1.992268241e-06
2.32333846e-06
2.832244115e-06
3.921633941e-06
5.438215842e-06
6.434098617e-06
5.438168261e-06
3.921590861e-06
2.832211404e-06
2.323319383e-06
2.79004039e-06
3.536258513e-06
5.075401384e-06
7.098503803e-06
8.318804496e-06
7.098441069e-06
5.07534437e-06
3.536216617e-06
2.790016251e-06
3.397798009e-06
4.397879906e-06
6.383073818e-06
8.848114295e-06
1.022415161e-05
8.84803445e-06
6.382998588e-06
4.397823665e-06
3.397763846e-06
4.139716252e-06
5.386973928e-06
7.774000432e-06
1.058588254e-05
1.205431193e-05
1.058578502e-05
7.773900914e-06
5.386896642e-06
4.139666036e-06
4.999029138e-06
6.467279856e-06
9.185061017e-06
1.223956326e-05
1.374851667e-05
1.223944978e-05
9.184933377e-06
6.467175085e-06
4.998955293e-06
5.952524214e-06
7.602189935e-06
1.056653384e-05
1.376437346e-05
1.527408236e-05
1.376424216e-05
1.056637674e-05
7.602053448e-06
5.952420782e-06
6.973971958e-06
8.758520519e-06
1.188323512e-05
1.513760181e-05
1.661884533e-05
1.513745533e-05
1.188304609e-05
8.758349557e-06
6.97383227e-06
8.036931482e-06
9.908420147e-06
1.311300346e-05
1.635249651e-05
1.77845139e-05
1.635233492e-05
1.311278036e-05
9.908208378e-06
8.036749939e-06
9.116591692e-06
1.102979515e-05
1.424398283e-05
1.741279963e-05
1.878139714e-05
1.741262075e-05
1.424373072e-05
1.102954152e-05
9.116365536e-06
1.019013061e-05
1.210530145e-05
1.527135103e-05
1.832817147e-05
1.962429127e-05
1.832798191e-05
1.527107008e-05
1.210500786e-05
1.018985404e-05
1.123336422e-05
1.31182382e-05
1.619233726e-05
1.910948101e-05
2.032845707e-05
1.910927964e-05
1.619202892e-05
1.311790354e-05
1.123303817e-05
1.220364752e-05
1.403646875e-05
1.699257788e-05
1.975854897e-05
2.090121479e-05
1.97583393e-05
1.699224445e-05
1.403609306e-05
1.220326941e-05
1.296488532e-05
1.474417193e-05
1.759080675e-05
2.022739829e-05
2.130787465e-05
2.022717488e-05
1.759044952e-05
1.474376184e-05
1.296445475e-05
1.778978495e-06
1.944464607e-06
2.314511699e-06
2.869402021e-06
3.284879506e-06
2.869389026e-06
2.314504713e-06
1.944465635e-06
1.778988451e-06
1.992248661e-06
2.302617513e-06
2.987374229e-06
3.989135292e-06
4.703036924e-06
3.98910883e-06
2.987358386e-06
2.302617186e-06
1.992261893e-06
2.323290287e-06
2.832167038e-06
3.921502421e-06
5.438009036e-06
6.433847066e-06
5.437962794e-06
3.92146596e-06
2.832155073e-06
2.323299354e-06
2.789976315e-06
3.536153195e-06
5.075214775e-06
7.098202723e-06
8.318429464e-06
7.098129357e-06
5.075147044e-06
3.536117797e-06
2.789970974e-06
3.397711475e-06
4.397738432e-06
6.382821552e-06
8.847705275e-06
1.022364354e-05
8.847602059e-06
6.38271345e-06
4.39766809e-06
3.397680655e-06
4.139600356e-06
5.386787373e-06
7.773673076e-06
1.058536424e-05
1.205367316e-05
1.058522804e-05
7.773517572e-06
5.386672189e-06
4.139533497e-06
4.998876561e-06
6.467041271e-06
9.184653903e-06
1.223893828e-05
1.37477546e-05
1.223877174e-05
9.184447936e-06
6.466873336e-06
4.998762477e-06
5.95232965e-06
7.601894657e-06
1.056604561e-05
1.376364666e-05
1.527321119e-05
1.37634492e-05
1.056578881e-05
7.601668973e-06
5.95215847e-06
6.973730301e-06
8.758164292e-06
1.188266795e-05
1.513678293e-05
1.661787695e-05
1.51365598e-05
1.188236015e-05
8.757877279e-06
6.973494519e-06
8.036637103e-06
9.907999558e-06
1.311235874e-05
1.635159541e-05
1.778346174e-05
1.635134881e-05
1.31120038e-05
9.907651077e-06
8.036332698e-06
9.116242527e-06
1.102931019e-05
1.424326796e-05
1.741182396e-05
1.878027409e-05
1.741155954e-05
1.424287078e-05
1.102890192e-05
9.115865356e-06
1.018972438e-05
1.210475539e-05
1.527057182e-05
1.832713537e-05
1.962310978e-05
1.832685311e-05
1.527013632e-05
1.210428931e-05
1.018927172e-05
1.123290038e-05
1.311763087e-05
1.619149927e-05
1.910839273e-05
2.032722825e-05
1.910809788e-05
1.619102883e-05
1.311711067e-05
1.123237588e-05
1.220312758e-05
1.403580272e-05
1.699168457e-05
1.975741645e-05
2.08999468e-05
1.975710934e-05
1.69911843e-05
1.403523145e-05
1.220253118e-05
1.296430849e-05
1.474344831e-05
1.758985618e-05
2.022621393e-05
2.130656181e-05
2.022589455e-05
1.758932812e-05
1.474283362e-05
1.296364454e-05
)
;
    }
    inlet
    {
        type            calculated;
        value           nonuniform 0();
    }
    outlet
    {
        type            calculated;
        value           nonuniform List<scalar> 
81
(
1.296488532e-05
1.474417193e-05
1.759080675e-05
2.022739829e-05
2.130787465e-05
2.022717488e-05
1.759044952e-05
1.474376184e-05
1.296445475e-05
1.474414139e-05
1.697967972e-05
2.05826975e-05
2.395109426e-05
2.534182421e-05
2.395081726e-05
2.058225439e-05
1.697916452e-05
1.474359979e-05
1.759073472e-05
2.058265227e-05
2.544738106e-05
3.004649546e-05
3.196289667e-05
3.004611548e-05
2.544676761e-05
2.058197552e-05
1.759002269e-05
2.022727951e-05
2.395100306e-05
3.004645534e-05
3.585940747e-05
3.830019245e-05
3.585891373e-05
3.004565267e-05
2.395014098e-05
2.022638956e-05
2.130773298e-05
2.534169297e-05
3.196278544e-05
3.830011922e-05
4.097470828e-05
3.829956797e-05
3.196188598e-05
2.534071027e-05
2.130671702e-05
2.022701294e-05
2.395065883e-05
3.004596013e-05
3.585879145e-05
3.829950521e-05
3.585823974e-05
3.004508376e-05
2.39496957e-05
2.022601e-05
1.759028379e-05
2.058208151e-05
2.54465916e-05
3.004548032e-05
3.196176821e-05
3.004502335e-05
2.544584745e-05
2.058123978e-05
1.758940493e-05
1.474361451e-05
1.6979012e-05
2.058180518e-05
2.39499669e-05
2.534055606e-05
2.39495939e-05
2.058119299e-05
1.697830927e-05
1.474287696e-05
1.296430849e-05
1.474344831e-05
1.758985618e-05
2.022621393e-05
2.130656181e-05
2.022589455e-05
1.758932812e-05
1.474283362e-05
1.296364454e-05
)
;
    }
    procBoundary1to0
    {
        type            processor;
        value           nonuniform List<scalar> 
97
(
1.778989711e-06
1.778989711e-06
1.944466974e-06
2.314496608e-06
2.869355942e-06
3.284800129e-06
2.869331793e-06
2.314471552e-06
1.944443971e-06
1.778967593e-06
1.732335963e-06