/*--------------------------------*- C++ -*----------------------------------*\
| =========                 |                                                 |
| \\      /  F ield         | OpenFOAM: The Open Source CFD Toolbox           |
|  \\    /   O peration     | Version:  4.x                                   |
|   \\  /    A nd           | Web:      www.OpenFOAM.org                      |
|    \\/     M anipulation  |                                                 |
\*---------------------------------------------------------------------------*/
FoamFile
{
    version     2.0;
    format      ascii;
    class       volScalarField;
    location    "4000";
    object      CO;
}
// * * * * * * * * * * * * * * * * * * * * * * * * * * * * * * * * * * * * * //

dimensions      [0 0 0 0 0 0 0];

internalField   nonuniform List<scalar> 
1174
(
0.3101783039
0.3101758935
0.3101725255
0.3101681752
0.3101629047
0.310156843
0.3101501612
0.310143047
0.3101356864
0.3101282506
0.310120895
0.3101137829
0.3101072036
0.3101020758
0.3101760882
0.3101722941
0.3101672925
0.3101612179
0.3101542928
0.310146777
0.3101389271
0.3101309716
0.3101230991
0.3101154565
0.3101081575
0.3101013113
0.310095133
0.3100903993
0.3101712482
0.3101646621
0.310156596
0.3101475233
0.3101379392
0.310128277
0.3101188706
0.3101099507
0.3101016576
0.3100940613
0.3100871859
0.310081043
0.3100757248
0.3100717694
0.310164257
0.3101541661
0.3101426975
0.3101307009
0.3101188658
0.3101076732
0.3100974116
0.3100882184
0.3100801237
0.3100730893
0.3100670395
0.3100618934
0.3100576334
0.3100545711
0.3101593457
0.310147367
0.3101344191
0.3101214169
0.310109006
0.310097585
0.3100873586
0.310078392
0.3100706581
0.3100640745
0.3100585313
0.3100539182
0.3100501805
0.3100475401
0.310164257
0.3101541662
0.3101426977
0.3101307011
0.3101188661
0.3101076735
0.310097412
0.3100882188
0.3100801242
0.3100730898
0.31006704
0.310061894
0.310057634
0.3100545717
0.3101712484
0.3101646623
0.3101565963
0.3101475237
0.3101379397
0.3101282775
0.3101188712
0.3101099514
0.3101016583
0.3100940622
0.3100871868
0.3100810439
0.3100757258
0.3100717704
0.3101760884
0.3101722943
0.3101672928
0.3101612182
0.3101542932
0.3101467775
0.3101389277
0.3101309723
0.3101230999
0.3101154574
0.3101081584
0.3101013124
0.3100951342
0.3100904006
0.310178304
0.3101758937
0.3101725257
0.3101681755
0.310162905
0.3101568434
0.3101501616
0.3101430476
0.3101356871
0.3101282514
0.3101208959
0.310113784
0.3101072048
0.310102077
0.3101786787
0.3101760883
0.3101722941
0.3101672925
0.3101612179
0.3101542928
0.3101467771
0.3101389272
0.3101309717
0.3101230992
0.3101154566
0.3101081575
0.3101013113
0.3100951331
0.3100903994
0.3101711752
0.3101646499
0.3101567721
0.3101480291
0.3101388958
0.3101297618
0.3101209096
0.3101125221
0.310104702
0.3100974952
0.3100909139
0.3100849694
0.3100797637
0.3100758554
0.3101589718
0.3101465491
0.3101331918
0.3101200276
0.3101078026
0.3100969017
0.3100874435
0.3100793808
0.3100725797
0.310066873
0.3100620942
0.3100581021
0.3100548308
0.3100524888
0.310137622
0.3101173086
0.3100982167
0.3100817235
0.310068256
0.3100576848
0.3100496243
0.3100436165
0.3100392249
0.3100360735
0.3100338563
0.3100323331
0.3100313234
0.3100307274
0.3101178295
0.3100936405
0.3100733746
0.3100574728
0.310045534
0.3100368777
0.3100308057
0.3100267038
0.3100240698
0.3100225089
0.3100217172
0.310021461
0.3100215473
0.3100217679
0.3101376223
0.3101173091
0.3100982172
0.3100817241
0.3100682566
0.3100576854
0.3100496249
0.3100436172
0.3100392256
0.3100360742
0.310033857
0.3100323338
0.3100313241
0.3100307281
0.3101589723
0.3101465497
0.3101331925
0.3101200284
0.3101078034
0.3100969026
0.3100874445
0.3100793819
0.3100725808
0.3100668742
0.3100620954
0.3100581033
0.310054832
0.31005249
0.3101711756
0.3101646503
0.3101567725
0.3101480297
0.3101388964
0.3101297625
0.3101209105
0.310112523
0.310104703
0.3100974964
0.3100909152
0.3100849708
0.3100797651
0.3100758569
0.3101760884
0.3101722943
0.3101672928
0.3101612182
0.3101542933
0.3101467776
0.3101389278
0.3101309725
0.3101231001
0.3101154577
0.3101081587
0.3101013127
0.3100951345
0.3100904009
0.3101760373
0.3101712483
0.3101646622
0.3101565961
0.3101475234
0.3101379393
0.3101282771
0.3101188707
0.3101099508
0.3101016577
0.3100940614
0.310087186
0.3100810431
0.3100757249
0.3100717695
0.3101691214
0.3101589718
0.3101465492
0.3101331919
0.3101200277
0.3101078026
0.3100969017
0.3100874436
0.3100793809
0.3100725798
0.3100668731
0.3100620943
0.3100581022
0.3100548309
0.3100524888
0.3101234965
0.3100978801
0.3100750012
0.3100565036
0.3100426282
0.3100328643
0.3100264192
0.3100224843
0.3100203566
0.3100194754
0.3100194165
0.3100198656
0.3100205734
0.3100212515
0.3100458738
0.3100035498
0.3099749638
0.3099585893
0.3099513614
0.3099503067
0.3099530817
0.3099580205
0.3099640133
0.3099703561
0.3099766183
0.3099825291
0.3099878275
0.3099918477
0.3099459726
0.3099048283
0.3098880007
0.3098859672
0.3098920667
0.3099021748
0.3099138861
0.3099258568
0.3099373708
0.3099480744
0.3099578143
0.3099665214
0.3099740473
0.3099796334
0.3100458757
0.3100035517
0.3099749656
0.309958591
0.3099513629
0.3099503082
0.3099530831
0.3099580218
0.3099640145
0.3099703572
0.3099766194
0.3099825302
0.3099878285
0.3099918486
0.3101234981
0.3100978816
0.3100750028
0.3100565052
0.3100426298
0.310032866
0.3100264209
0.310022486
0.3100203582
0.310019477
0.3100194181
0.3100198672
0.310020575
0.3100212531
0.3101589723
0.3101465498
0.3101331926
0.3101200286
0.3101078037
0.310096903
0.310087445
0.3100793824
0.3100725814
0.3100668748
0.310062096
0.310058104
0.3100548327
0.3100524907
0.3101712484
0.3101646624
0.3101565964
0.3101475239
0.31013794
0.3101282779
0.3101188717
0.310109952
0.310101659
0.3100940629
0.3100871876
0.3100810448
0.3100757268
0.3100717715
0.3101721273
0.3101642571
0.3101541663
0.3101426977
0.3101307011
0.310118866
0.3101076734
0.3100974118
0.3100882186
0.310080124
0.3100730895
0.3100670397
0.3100618937
0.3100576337
0.3100545714
0.3101565387
0.3101376221
0.3101173088
0.3100982169
0.3100817237
0.3100682562
0.3100576849
0.3100496245
0.3100436167
0.3100392251
0.3100360737
0.3100338565
0.3100323333
0.3100313236
0.3100307276
0.3100984232
0.3100458741
0.3100035502
0.3099749641
0.3099585896
0.3099513617
0.309950307
0.309953082
0.3099580207
0.3099640135
0.3099703563
0.3099766185
0.3099825293
0.3099878277
0.3099918478
0.3097836147
0.3097328021
0.3097265474
0.3097438268
0.3097711933
0.3098012237
0.3098302539
0.309856716
0.3098801245
0.3099005089
0.3099181081
0.3099331862
0.3099457919
0.3099549398
0.3092777367
0.3093494048
0.309454526
0.3095538092
0.3096374194
0.3097051986
0.3097596141
0.3098034032
0.3098389005
0.3098679338
0.3098918806
0.3099117203
0.3099279123
0.3099394853
0.309783622
0.3097328073
0.3097265513
0.30974383
0.3097711959
0.309801226
0.3098302558
0.3098567177
0.3098801261
0.3099005103
0.3099181094
0.3099331874
0.309945793
0.3099549409
0.3100458756
0.3100035521
0.3099749664
0.309958592
0.3099513641
0.3099503095
0.3099530844
0.3099580231
0.3099640158
0.3099703584
0.3099766206
0.3099825313
0.3099878297
0.3099918497
0.3101376225
0.3101173094
0.3100982179
0.310081725
0.3100682578
0.3100576867
0.3100496263
0.3100436187
0.3100392272
0.3100360758
0.3100338587
0.3100323354
0.3100313258
0.3100307298
0.3101642571
0.3101541664
0.310142698
0.3101307017
0.3101188668
0.3101076744
0.3100974131
0.3100882201
0.3100801256
0.3100730914
0.3100670417
0.3100618957
0.3100576358
0.3100545737
0.3101692425
0.310159346
0.3101473673
0.3101344194
0.3101214173
0.3101090064
0.3100975855
0.310087359
0.3100783924
0.3100706585
0.3100640749
0.3100585317
0.3100539186
0.3100501809
0.3100475404
0.3101436361
0.3101178299
0.3100936412
0.3100733753
0.3100574734
0.3100455346
0.3100368783
0.3100308063
0.3100267044
0.3100240703
0.3100225093
0.3100217176
0.3100214614
0.3100215477
0.3100217683
0.3100208309
0.3099459729
0.3099048293
0.3098880017
0.3098859681
0.3098920674
0.3099021754
0.3099138867
0.3099258573
0.3099373712
0.3099480748
0.3099578146
0.3099665217
0.3099740476
0.3099796337
0.3093620775
0.3092777396
0.309349407
0.3094545278
0.3095538106
0.3096374205
0.3097051995
0.3097596148
0.3098034038
0.309838901
0.3098679343
0.309891881
0.3099117206
0.3099279126
0.3099394855
0.3071251097
0.3082365643
0.3088478345
0.3092038335
0.3094235321
0.3095669162
0.3096654241
0.3097362154
0.3097890553
0.309829737
0.3098618301
0.3098875608
0.3099080724
0.3099225222
0.3092777366
0.3093494108
0.309454532
0.3095538143
0.3096374237
0.3097052022
0.3097596171
0.3098034058
0.3098389028
0.3098679359
0.3098918825
0.309911722
0.3099279139
0.3099394868
0.3099459726
0.3099048305
0.3098880037
0.3098859706
0.3098920702
0.3099021781
0.3099138894
0.3099258599
0.3099373737
0.3099480772
0.3099578169
0.3099665239
0.3099740497
0.3099796358
0.3101178297
0.3100936414
0.310073376
0.3100574746
0.3100455361
0.3100368801
0.3100308082
0.3100267064
0.3100240725
0.3100225115
0.3100217199
0.3100214637
0.31002155
0.3100217706
0.3101593458
0.3101473673
0.3101344197
0.3101214178
0.3101090072
0.3100975865
0.3100873604
0.310078394
0.3100706603
0.3100640769
0.3100585338
0.3100539208
0.3100501832
0.3100475429
0.3101721274
0.3101642573
0.3101541666
0.310142698
0.3101307015
0.3101188665
0.310107674
0.3100974124
0.3100882193
0.3100801247
0.3100730903
0.3100670404
0.3100618944
0.3100576344
0.3100545722
0.3101565391
0.3101376228
0.3101173097
0.310098218
0.3100817248
0.3100682574
0.3100576861
0.3100496256
0.3100436178
0.3100392262
0.3100360748
0.3100338576
0.3100323343
0.3100313246
0.3100307286
0.3100984257
0.3100458766
0.3100035529
0.3099749667
0.309958592
0.3099513639
0.309950309
0.3099530838
0.3099580225
0.3099640151
0.3099703578
0.30997662
0.3099825307
0.309987829
0.3099918491
0.3099024231
0.3097836239
0.3097328093
0.3097265532
0.3097438316
0.3097711973
0.3098012272
0.3098302569
0.3098567186
0.3098801269
0.309900511
0.30991811
0.309933188
0.3099457935
0.3099549414
0.3093620785
0.3092777416
0.3093494142
0.3094545345
0.3095538162
0.3096374251
0.3097052034
0.3097596181
0.3098034066
0.3098389035
0.3098679365
0.309891883
0.3099117224
0.3099279143
0.3099394871
0.3099024217
0.3097836246
0.309732811
0.3097265553
0.3097438338
0.3097711995
0.3098012293
0.3098302589
0.3098567205
0.3098801286
0.3099005126
0.3099181115
0.3099331894
0.3099457949
0.3099549426
0.3100458736
0.3100035519
0.309974967
0.3099585931
0.3099513655
0.309950311
0.3099530859
0.3099580246
0.3099640173
0.3099703599
0.3099766221
0.3099825327
0.309987831
0.3099918511
0.3101376218
0.3101173091
0.3100982178
0.3100817252
0.3100682582
0.3100576873
0.310049627
0.3100436195
0.310039228
0.3100360767
0.3100338596
0.3100323364
0.3100313267
0.3100307308
0.3101642569
0.3101541663
0.310142698
0.3101307017
0.310118867
0.3101076747
0.3100974135
0.3100882206
0.3100801262
0.310073092
0.3100670423
0.3100618965
0.3100576366
0.3100545745
0.3101760374
0.3101712485
0.3101646625
0.3101565966
0.310147524
0.31013794
0.3101282779
0.3101188716
0.3101099518
0.3101016587
0.3100940626
0.3100871872
0.3100810444
0.3100757262
0.3100717709
0.3101691219
0.3101589725
0.3101465501
0.3101331929
0.3101200289
0.3101078039
0.3100969031
0.310087445
0.3100793824
0.3100725813
0.3100668747
0.3100620959
0.3100581038
0.3100548325
0.3100524905
0.3101482569
0.3101234987
0.3100978824
0.3100750036
0.310056506
0.3100426306
0.3100328667
0.3100264216
0.3100224867
0.3100203589
0.3100194776
0.3100194187
0.3100198678
0.3100205755
0.3100212536
0.3100984256
0.3100458768
0.3100035535
0.3099749677
0.3099585932
0.3099513652
0.3099503104
0.3099530853
0.3099580239
0.3099640165
0.3099703591
0.3099766212
0.3099825319
0.3099878302
0.3099918502
0.3100208309
0.3099459748
0.3099048325
0.3098880054
0.309885972
0.3098920714
0.3099021792
0.3099138903
0.3099258607
0.3099373744
0.3099480778
0.3099578175
0.3099665244
0.3099740502
0.3099796362
0.3100984258
0.3100458773
0.3100035542
0.3099749686
0.3099585942
0.3099513663
0.3099503116
0.3099530864
0.309958025
0.3099640176
0.3099703602
0.3099766223
0.3099825329
0.3099878312
0.3099918512
0.310148256
0.310123498
0.310097882
0.3100750036
0.3100565065
0.3100426314
0.3100328678
0.3100264229
0.310022488
0.3100203604
0.3100194792
0.3100194203
0.3100198694
0.3100205771
0.3100212553
0.3101589717
0.3101465496
0.3101331926
0.3101200289
0.3101078043
0.3100969037
0.3100874459
0.3100793835
0.3100725826
0.3100668761
0.3100620974
0.3100581055
0.3100548343
0.3100524923
0.3101712481
0.3101646622
0.3101565963
0.3101475239
0.3101379402
0.3101282783
0.3101188722
0.3101099527
0.3101016598
0.3100940638
0.3100871886
0.310081046
0.310075728
0.3100717728
0.3101786788
0.3101760885
0.3101722944
0.3101672929
0.3101612184
0.3101542935
0.3101467778
0.310138928
0.3101309727
0.3101231003
0.3101154578
0.3101081589
0.3101013128
0.3100951346
0.310090401
0.3101759828
0.3101711757
0.3101646505
0.3101567728
0.3101480299
0.3101388968
0.3101297629
0.3101209109
0.3101125234
0.3101047034
0.3100974968
0.3100909156
0.3100849712
0.3100797655
0.3100758573
0.3101691219
0.3101589725
0.3101465501
0.310133193
0.310120029
0.3101078042
0.3100969034
0.3100874454
0.3100793828
0.3100725818
0.3100668752
0.3100620964
0.3100581044
0.3100548332
0.3100524912
0.3101565391
0.3101376229
0.31011731
0.3100982185
0.3100817256
0.3100682584
0.3100576873
0.3100496269
0.3100436193
0.3100392277
0.3100360764
0.3100338592
0.3100323359
0.3100313263
0.3100307303
0.3101436361
0.3101178304
0.3100936422
0.3100733769
0.3100574754
0.3100455369
0.3100368808
0.3100308089
0.310026707
0.310024073
0.3100225121
0.3100217204
0.3100214641
0.3100215505
0.310021771
0.3101565392
0.3101376231
0.3101173103
0.3100982189
0.3100817261
0.3100682589
0.3100576879
0.3100496276
0.31004362
0.3100392285
0.3100360771
0.31003386
0.3100323367
0.3100313271
0.3100307311
0.3101691218
0.3101589725
0.3101465502
0.3101331932
0.3101200294
0.3101078047
0.3100969041
0.3100874462
0.3100793838
0.3100725829
0.3100668764
0.3100620976
0.3100581057
0.3100548345
0.3100524925
0.3101759827
0.3101711755
0.3101646504
0.3101567727
0.31014803
0.310138897
0.3101297633
0.3101209115
0.3101125242
0.3101047044
0.3100974979
0.3100909168
0.3100849725
0.310079767
0.3100758588
0.3101760882
0.3101722942
0.3101672928
0.3101612183
0.3101542935
0.310146778
0.3101389284
0.3101309732
0.310123101
0.3101154587
0.31010816
0.310101314
0.310095136
0.3100904026
0.3101798721
0.3101783041
0.3101758938
0.3101725258
0.3101681756
0.3101629052
0.3101568437
0.3101501619
0.3101430479
0.3101356875
0.3101282518
0.3101208963
0.3101137844
0.3101072052
0.3101020775
0.3101786788
0.3101760884
0.3101722944
0.3101672929
0.3101612184
0.3101542935
0.3101467778
0.3101389281
0.3101309728
0.3101231004
0.310115458
0.3101081591
0.310101313
0.3100951349
0.3100904013
0.3101760374
0.3101712485
0.3101646625
0.3101565966
0.3101475241
0.3101379402
0.3101282782
0.310118872
0.3101099523
0.3101016593
0.3100940633
0.310087188
0.3100810452
0.3100757272
0.3100717719
0.3101721274
0.3101642573
0.3101541667
0.3101426984
0.3101307021
0.3101188673
0.3101076749
0.3100974136
0.3100882206
0.3100801261
0.3100730918
0.3100670421
0.3100618962
0.3100576363
0.3100545741
0.3101692425
0.3101593462
0.3101473677
0.3101344202
0.3101214184
0.3101090078
0.3100975871
0.310087361
0.3100783945
0.3100706609
0.3100640774
0.3100585343
0.3100539213
0.3100501837
0.3100475433
0.3101721275
0.3101642574
0.3101541669
0.3101426986
0.3101307024
0.3101188676
0.3101076753
0.3100974141
0.3100882211
0.3100801267
0.3100730925
0.3100670428
0.3100618969
0.310057637
0.3100545748
0.3101760374
0.3101712485
0.3101646626
0.3101565968
0.3101475244
0.3101379407
0.3101282787
0.3101188727
0.3101099531
0.3101016602
0.3100940643
0.310087189
0.3100810464
0.3100757283
0.3100717731
0.3101786788
0.3101760884
0.3101722944
0.310167293
0.3101612185
0.3101542937
0.3101467782
0.3101389286
0.3101309734
0.3101231012
0.3101154589
0.3101081601
0.3101013142
0.3100951362
0.3100904027
0.310179872
0.310178304
0.3101758937
0.3101725258
0.3101681756
0.3101629052
0.3101568438
0.3101501622
0.3101430484
0.3101356881
0.3101282526
0.3101208972
0.3101137855
0.3101072064
0.3101020789
)
;

boundaryField
{
    top
    {
        type            zeroGradient;
    }
    bottom
    {
        type            zeroGradient;
    }
    side-walls
    {
        type            zeroGradient;
    }
    inlet
    {
        type            zeroGradient;
    }
    outlet
    {
        type            zeroGradient;
    }
    procBoundary1to0
    {
        type            processor;
        value           nonuniform List<scalar> 
97
(
0.310179872
0.310179872
0.3101786788
0.3101760374
0.3101721276
0.3101692428
0.3101721276
0.3101760375
0.3101786789
0.3101798721
0.3101802294
0.3101759826
0.3101759826
0.3101759826
0.3101691218
0.3101565394
0.310143637
0.3101565397
0.3101691222
0.310175983
0.3101786789
0.3101790176
0.3101759443
0.3101482559
0.3101482559
0.3101482559
0.310098426
0.3100208351
0.310098428
0.3101482578
0.3101691222
0.3101760375
0.3101772673
0.3101705998
0.310147636
0.309902418
0.309902418
0.309902418
0.3093621
0.3099024303
0.3100984278
0.3101565397
0.3101721276
0.3101760378
0.3101656455
0.3101226379
0.3099555267
0.3049868307
0.3049868307
0.3049868307
0.3093620979
0.3093620979
0.3100208347
0.310143637
0.3101692427
0.3101772673
0.3101705999
0.3101476361
0.3100820169
0.3099555259
0.3100820174
0.310098424
0.310098424
0.310098424
0.3101565391
0.3101721275
0.3101790177
0.3101759444
0.3101670643
0.310147636
0.3101226376
0.3101476362
0.3101670642
0.3101691215
0.3101691215
0.3101691215
0.3101760373
0.3101802294
0.3101789994
0.3101759444
0.3101705998
0.3101656454
0.3101705999
0.3101759444
0.3101789994
0.3101786787
0.3101786787
0.3101786787
0.3101807842
0.3101802294
0.3101790176
0.3101772673
0.3101760378
0.3101772674
0.3101790177
0.3101802294
0.3101807842
)
;
    }
}


// ************************************************************************* //
