/*--------------------------------*- C++ -*----------------------------------*\
| =========                 |                                                 |
| \\      /  F ield         | OpenFOAM: The Open Source CFD Toolbox           |
|  \\    /   O peration     | Version:  4.x                                   |
|   \\  /    A nd           | Web:      www.OpenFOAM.org                      |
|    \\/     M anipulation  |                                                 |
\*---------------------------------------------------------------------------*/
FoamFile
{
    version     2.0;
    format      ascii;
    class       volScalarField;
    location    "4000";
    object      Cpv;
}
// * * * * * * * * * * * * * * * * * * * * * * * * * * * * * * * * * * * * * //

dimensions      [0 2 -2 -1 0 0 0];

internalField   nonuniform List<scalar> 
1174
(
1277.533103
1277.532843
1277.532518
1277.53205
1277.531495
1277.530854
1277.530152
1277.529411
1277.52863
1277.52787
1277.527092
1277.526364
1277.525656
1277.525116
1277.532631
1277.532261
1277.531734
1277.531102
1277.530368
1277.52959
1277.528766
1277.527905
1277.527082
1277.526292
1277.525511
1277.524777
1277.524143
1277.52365
1277.53195
1277.531257
1277.530395
1277.52946
1277.528435
1277.527406
1277.526397
1277.525516
1277.52464
1277.523825
1277.5231
1277.522467
1277.52193
1277.521519
1277.531315
1277.530256
1277.529061
1277.527818
1277.526567
1277.525388
1277.524332
1277.523357
1277.522519
1277.5218
1277.52118
1277.520616
1277.520171
1277.519852
1277.530668
1277.529388
1277.528023
1277.526637
1277.525376
1277.524189
1277.523116
1277.522214
1277.521396
1277.520706
1277.520114
1277.519648
1277.519273
1277.519013
1277.531609
1277.530554
1277.529336
1277.528066
1277.526834
1277.525662
1277.524597
1277.523635
1277.522788
1277.522029
1277.521386
1277.520849
1277.520406
1277.520084
1277.531505
1277.530802
1277.52997
1277.52899
1277.527989
1277.526953
1277.525998
1277.525063
1277.524182
1277.523406
1277.522696
1277.522063
1277.521523
1277.521122
1277.532507
1277.53212
1277.531583
1277.530951
1277.530206
1277.529443
1277.528614
1277.527802
1277.526969
1277.526152
1277.525358
1277.524648
1277.523988
1277.523506
1277.533117
1277.532861
1277.532507
1277.532041
1277.531477
1277.53083
1277.530149
1277.529419
1277.528657
1277.527891
1277.527118
1277.526372
1277.525689
1277.525166
1277.532716
1277.532455
1277.532052
1277.531521
1277.530892
1277.530178
1277.529431
1277.528607
1277.527749
1277.52694
1277.526125
1277.52538
1277.524658
1277.524005
1277.523502
1277.532219
1277.531514
1277.530704
1277.529783
1277.528833
1277.527883
1277.526957
1277.526077
1277.525264
1277.524516
1277.523827
1277.523221
1277.522676
1277.522261
1277.530885
1277.52958
1277.528176
1277.526787
1277.525492
1277.524347
1277.523384
1277.522543
1277.521812
1277.521238
1277.52073
1277.520301
1277.519964
1277.519721
1277.528229
1277.52609
1277.524096
1277.522369
1277.520945
1277.519854
1277.518996
1277.51839
1277.517909
1277.517622
1277.517415
1277.517277
1277.517159
1277.517126
1277.527382
1277.524849
1277.522702
1277.52103
1277.519761
1277.518855
1277.518204
1277.517761
1277.517457
1277.517319
1277.517241
1277.517238
1277.517243
1277.517251
1277.528969
1277.526828
1277.524827
1277.523096
1277.5217
1277.520561
1277.519741
1277.519129
1277.518711
1277.518398
1277.518176
1277.518001
1277.517907
1277.517822
1277.530641
1277.529327
1277.527938
1277.526555
1277.525258
1277.524125
1277.523123
1277.522288
1277.521585
1277.521001
1277.52051
1277.520067
1277.519714
1277.519472
1277.532067
1277.53138
1277.530564
1277.52968
1277.528723
1277.527757
1277.526828
1277.525966
1277.525152
1277.524385
1277.52371
1277.523109
1277.522587
1277.5222
1277.53264
1277.532221
1277.531691
1277.531038
1277.530304
1277.529513
1277.52869
1277.527858
1277.527032
1277.526238
1277.525489
1277.524776
1277.524139
1277.523641
1277.532699
1277.532202
1277.53152
1277.530679
1277.52973
1277.528713
1277.527695
1277.526712
1277.525762
1277.524879
1277.524098
1277.523394
1277.522734
1277.522212
1277.521784
1277.531747
1277.530692
1277.529413
1277.528039
1277.526646
1277.525382
1277.524255
1277.523249
1277.522414
1277.521697
1277.521107
1277.520576
1277.520167
1277.5198
1277.519537
1277.527187
1277.524482
1277.522094
1277.520138
1277.518673
1277.517675
1277.517022
1277.516588
1277.516371
1277.516269
1277.516253
1277.516309
1277.516401
1277.516493
1277.518664
1277.514211
1277.511204
1277.509492
1277.508723
1277.508608
1277.508901
1277.509454
1277.51009
1277.510786
1277.511459
1277.512092
1277.512667
1277.513092
1277.508781
1277.504468
1277.50269
1277.502503
1277.503173
1277.504249
1277.505487
1277.506731
1277.507964
1277.509137
1277.510156
1277.511084
1277.511899
1277.512506
1277.519011
1277.514568
1277.511564
1277.509815
1277.509058
1277.508969
1277.509272
1277.509803
1277.510447
1277.511118
1277.511801
1277.512437
1277.512997
1277.513425
1277.526088
1277.523398
1277.520973
1277.519048
1277.517596
1277.516563
1277.515917
1277.515499
1277.515276
1277.515197
1277.515201
1277.515246
1277.515326
1277.515422
1277.530709
1277.52941
1277.527974
1277.526593
1277.525321
1277.524181
1277.523174
1277.52234
1277.521621
1277.521036
1277.520529
1277.520127
1277.519793
1277.519558
1277.531864
1277.53118
1277.530336
1277.529395
1277.528399
1277.527388
1277.526393
1277.525436
1277.524562
1277.523759
1277.523071
1277.522436
1277.521872
1277.521439
1277.531602
1277.530797
1277.529724
1277.528523
1277.527255
1277.526013
1277.524847
1277.52378
1277.522843
1277.521995
1277.521264
1277.520623
1277.520098
1277.519664
1277.519319
1277.531546
1277.529552
1277.527393
1277.525388
1277.523661
1277.522221
1277.521102
1277.520305
1277.51969
1277.519207
1277.51887
1277.518649
1277.518493
1277.518396
1277.518342
1277.524708
1277.519155
1277.514735
1277.5117
1277.509993
1277.509217
1277.509132
1277.509427
1277.509932
1277.510565
1277.511236
1277.511898
1277.512557
1277.513118
1277.513577
1277.492086
1277.486777
1277.486116
1277.487942
1277.490847
1277.494005
1277.49705
1277.499841
1277.502328
1277.504455
1277.506321
1277.507926
1277.509266
1277.510236
1277.435951
1277.443492
1277.454571
1277.465045
1277.473866
1277.481036
1277.48679
1277.491444
1277.495213
1277.498277
1277.500814
1277.502916
1277.504607
1277.505851
1277.49052
1277.485189
1277.484579
1277.486413
1277.489307
1277.492482
1277.495536
1277.498334
1277.500806
1277.502976
1277.504842
1277.506413
1277.507748
1277.508729
1277.519455
1277.514989
1277.511997
1277.510266
1277.509535
1277.509436
1277.509728
1277.510247
1277.510866
1277.511537
1277.512213
1277.512871
1277.513435
1277.513844
1277.528109
1277.525979
1277.523966
1277.522255
1277.520855
1277.519762
1277.518929
1277.518316
1277.51791
1277.517586
1277.517365
1277.517193
1277.517082
1277.517025
1277.531594
1277.530543
1277.529336
1277.528062
1277.526806
1277.525618
1277.524575
1277.523603
1277.522796
1277.522065
1277.521441
1277.520912
1277.520499
1277.520175
1277.531967
1277.530952
1277.529688
1277.528362
1277.526994
1277.525684
1277.5245
1277.523414
1277.52248
1277.521671
1277.520988
1277.520425
1277.519949
1277.519583
1277.519303
1277.529413
1277.526698
1277.524145
1277.522012
1277.52036
1277.51911
1277.5182
1277.51757
1277.517112
1277.516864
1277.51669
1277.516641
1277.516605
1277.51662
1277.516644
1277.516354
1277.508472
1277.504106
1277.502325
1277.502121
1277.502776
1277.503874
1277.505133
1277.506425
1277.507639
1277.508757
1277.509778
1277.510685
1277.511458
1277.512062
1277.445435
1277.436538
1277.444107
1277.455192
1277.465646
1277.474486
1277.481634
1277.487371
1277.492002
1277.495765
1277.498822
1277.501329
1277.503416
1277.505128
1277.506339
1275.902694
1276.020089
1276.084153
1276.12102
1276.143331
1276.157508
1276.16686
1276.173283
1276.177754
1276.180969
1276.183211
1276.184793
1276.18582
1276.186219
1277.436189
1277.443749
1277.454833
1277.465302
1277.474133
1277.481265
1277.487007
1277.491636
1277.495378
1277.498455
1277.500968
1277.503058
1277.504765
1277.506011
1277.50835
1277.50405
1277.502268
1277.502077
1277.502743
1277.50381
1277.505057
1277.506307
1277.507553
1277.508685
1277.50971
1277.510657
1277.511441
1277.512032
1277.526043
1277.523499
1277.521386
1277.519705
1277.518426
1277.517495
1277.516875
1277.516423
1277.516156
1277.515965
1277.515903
1277.515865
1277.515877
1277.51593
1277.530925
1277.529654
1277.528274
1277.526905
1277.52559
1277.524409
1277.523332
1277.522363
1277.521592
1277.520893
1277.520288
1277.519793
1277.519414
1277.51911
1277.532754
1277.53189
1277.530845
1277.529642
1277.528367
1277.52713
1277.52597
1277.52491
1277.523927
1277.523065
1277.522331
1277.5217
1277.521149
1277.520711
1277.520412
1277.530076
1277.528097
1277.525977
1277.523969
1277.522194
1277.520758
1277.519651
1277.518815
1277.518227
1277.517752
1277.517411
1277.517188
1277.517036
1277.516939
1277.516883
1277.524184
1277.518631
1277.5142
1277.511216
1277.509514
1277.508767
1277.508664
1277.508951
1277.509487
1277.510146
1277.510804
1277.511469
1277.512053
1277.512618
1277.513064
1277.504158
1277.491628
1277.486289
1277.48562
1277.487438
1277.490311
1277.493483
1277.496577
1277.499358
1277.501844
1277.503994
1277.505879
1277.507416
1277.508775
1277.50972
1277.445612
1277.436763
1277.444356
1277.455445
1277.46592
1277.474742
1277.481907
1277.487664
1277.492262
1277.495991
1277.499075
1277.501607
1277.503704
1277.505386
1277.506614
1277.504736
1277.492238
1277.486905
1277.486261
1277.488084
1277.490984
1277.494156
1277.497237
1277.500053
1277.502522
1277.504683
1277.50653
1277.508162
1277.509516
1277.510503
1277.519197
1277.514774
1277.511759
1277.510027
1277.509257
1277.509166
1277.50947
1277.510016
1277.510658
1277.511333
1277.512019
1277.512648
1277.513234
1277.513635
1277.528661
1277.526521
1277.524503
1277.52275
1277.521362
1277.520235
1277.519391
1277.518763
1277.518282
1277.517958
1277.517756
1277.517601
1277.517502
1277.517447
1277.53119
1277.53013
1277.528936
1277.527702
1277.526446
1277.525271
1277.524192
1277.523241
1277.522395
1277.521646
1277.521019
1277.520482
1277.520049
1277.5197
1277.5321
1277.531588
1277.53089
1277.530039
1277.529086
1277.528105
1277.527067
1277.526072
1277.525152
1277.524283
1277.523498
1277.522747
1277.522107
1277.52155
1277.521135
1277.532196
1277.531147
1277.529853
1277.528462
1277.527067
1277.525796
1277.524651
1277.523633
1277.522782
1277.522049
1277.521436
1277.520911
1277.52049
1277.520159
1277.519946
1277.528665
1277.526057
1277.523368
1277.520962
1277.519043
1277.517576
1277.516567
1277.515883
1277.515452
1277.515207
1277.515128
1277.515132
1277.515172
1277.515234
1277.515297
1277.524749
1277.519237
1277.514791
1277.511754
1277.510032
1277.509286
1277.509206
1277.509481
1277.510002
1277.510647
1277.511315
1277.512009
1277.512632
1277.513203
1277.513642
1277.517048
1277.509156
1277.504827
1277.503087
1277.502909
1277.503557
1277.504624
1277.505859
1277.507132
1277.508352
1277.509472
1277.510472
1277.511364
1277.512153
1277.512745
1277.524065
1277.518497
1277.514068
1277.511073
1277.509363
1277.508581
1277.508473
1277.508742
1277.509261
1277.509907
1277.510598
1277.511242
1277.51185
1277.512412
1277.51284
1277.529606
1277.527009
1277.524326
1277.52196
1277.520001
1277.518523
1277.517498
1277.516826
1277.516411
1277.516195
1277.51612
1277.51612
1277.516183
1277.516267
1277.516331
1277.53116
1277.529869
1277.528457
1277.527085
1277.525825
1277.52471
1277.523731
1277.522887
1277.522173
1277.521595
1277.521079
1277.520658
1277.520319
1277.520072
1277.532222
1277.53153
1277.530686
1277.52974
1277.528723
1277.527731
1277.526733
1277.52581
1277.52496
1277.524164
1277.523459
1277.522802
1277.522257
1277.521861
1277.532531
1277.532275
1277.531863
1277.531312
1277.530653
1277.529931
1277.529154
1277.528318
1277.527474
1277.526686
1277.525899
1277.525139
1277.524422
1277.523794
1277.523295
1277.532175
1277.53168
1277.531032
1277.530198
1277.529315
1277.528355
1277.527452
1277.526517
1277.525628
1277.524813
1277.524066
1277.523387
1277.522791
1277.522253
1277.521831
1277.532666
1277.5316
1277.530285
1277.528877
1277.527489
1277.526181
1277.525014
1277.524032
1277.523215
1277.522535
1277.521952
1277.521462
1277.521037
1277.520736
1277.520471
1277.530934
1277.528951
1277.5268
1277.524823
1277.523096
1277.521682
1277.520555
1277.519705
1277.519073
1277.518615
1277.518267
1277.518059
1277.517896
1277.517806
1277.517715
1277.529427
1277.526708
1277.524163
1277.52203
1277.52037
1277.519126
1277.518229
1277.51761
1277.517187
1277.516888
1277.51672
1277.516657
1277.516667
1277.516691
1277.516745
1277.530917
1277.528935
1277.526782
1277.524753
1277.523016
1277.521572
1277.520472
1277.519617
1277.519
1277.518564
1277.51825
1277.51804
1277.517867
1277.517758
1277.517728
1277.531113
1277.530045
1277.528736
1277.527343
1277.525968
1277.524688
1277.523534
1277.522547
1277.521713
1277.521009
1277.520418
1277.519907
1277.51948
1277.519136
1277.51891
1277.532162
1277.53169
1277.53102
1277.530207
1277.529292
1277.528322
1277.527367
1277.526452
1277.525542
1277.524732
1277.523975
1277.523279
1277.522673
1277.522129
1277.521728
1277.532448
1277.532016
1277.531478
1277.530836
1277.530124
1277.529343
1277.528504
1277.527671
1277.526818
1277.526
1277.525258
1277.52454
1277.523872
1277.523386
1277.53258
1277.532439
1277.532194
1277.531845
1277.53139
1277.530827
1277.530181
1277.529487
1277.528772
1277.527993
1277.527216
1277.526442
1277.525693
1277.525016
1277.524463
1277.53308
1277.532835
1277.532424
1277.531907
1277.531242
1277.530531
1277.529751
1277.528928
1277.528091
1277.5273
1277.526487
1277.525701
1277.524977
1277.52434
1277.523857
1277.532983
1277.532462
1277.531812
1277.530946
1277.529985
1277.528998
1277.527981
1277.526975
1277.526068
1277.525186
1277.524376
1277.523648
1277.522981
1277.522423
1277.521999
1277.532557
1277.531725
1277.530665
1277.529457
1277.528194
1277.526946
1277.525788
1277.524715
1277.523735
1277.522903
1277.522165
1277.52151
1277.520987
1277.520546
1277.520232
1277.531636
1277.530601
1277.529321
1277.528
1277.526639
1277.525323
1277.52414
1277.523048
1277.522115
1277.52131
1277.52061
1277.520052
1277.519585
1277.519173
1277.518905
1277.53184
1277.530999
1277.529938
1277.528764
1277.527506
1277.52627
1277.525088
1277.524002
1277.523041
1277.522199
1277.521461
1277.520808
1277.520288
1277.519857
1277.519524
1277.531742
1277.531244
1277.53057
1277.529725
1277.528781
1277.527751
1277.526735
1277.525754
1277.524817
1277.523926
1277.52315
1277.522414
1277.521753
1277.521173
1277.520743
1277.532862
1277.532619
1277.532204
1277.53167
1277.531022
1277.530291
1277.529503
1277.528659
1277.527832
1277.527023
1277.526227
1277.525462
1277.524762
1277.524115
1277.523609
1277.533202
1277.533035
1277.53279
1277.532452
1277.532
1277.531447
1277.530797
1277.530109
1277.529357
1277.528584
1277.527801
1277.527047
1277.526307
1277.525617
1277.52509
)
;

boundaryField
{
    top
    {
        type            calculated;
        value           nonuniform List<scalar> 
127
(
1277.533202
1277.533117
1277.53264
1277.531864
1277.531594
1277.530925
1277.53119
1277.532222
1277.532448
1277.533035
1277.532861
1277.532221
1277.53118
1277.530543
1277.529654
1277.53013
1277.53153
1277.532016
1277.53279
1277.532507
1277.531691
1277.530336
1277.529336
1277.528274
1277.528936
1277.530686
1277.531478
1277.532452
1277.532041
1277.531038
1277.529395
1277.528062
1277.526905
1277.527702
1277.52974
1277.530836
1277.532
1277.531477
1277.530304
1277.528399
1277.526806
1277.52559
1277.526446
1277.528723
1277.530124
1277.531447
1277.53083
1277.529513
1277.527388
1277.525618
1277.524409
1277.525271
1277.527731
1277.529343
1277.530797
1277.530149
1277.52869
1277.526393
1277.524575
1277.523332
1277.524192
1277.526733
1277.528504
1277.530109
1277.529419
1277.527858
1277.525436
1277.523603
1277.522363
1277.523241
1277.52581
1277.527671
1277.529357
1277.528657
1277.527032
1277.524562
1277.522796
1277.521592
1277.522395
1277.52496
1277.526818
1277.528584
1277.527891
1277.526238
1277.523759
1277.522065
1277.520893
1277.521646
1277.524164
1277.526
1277.527801
1277.527118
1277.525489
1277.523071
1277.521441
1277.520288
1277.521019
1277.523459
1277.525258
1277.527047
1277.526372
1277.524776
1277.522436
1277.520912
1277.519793
1277.520482
1277.522802
1277.52454
1277.526307
1277.525689
1277.524139
1277.521872
1277.520499
1277.519414
1277.520049
1277.522257
1277.523872
1277.525617
1277.525166
1277.523641
1277.521439
1277.520175
1277.51911
1277.5197
1277.521861
1277.523386
1277.52509
)
;
    }
    bottom
    {
        type            calculated;
        value           nonuniform List<scalar> 
134
(
1277.532716
1277.532699
1277.531602
1277.531967
1277.532754
1277.5321
1277.532531
1277.53258
1277.533103
1277.532455
1277.532202
1277.530797
1277.530952
1277.53189
1277.531588
1277.532275
1277.532439
1277.532843
1277.532052
1277.53152
1277.529724
1277.529688
1277.530845
1277.53089
1277.531863
1277.532194
1277.532518
1277.531521
1277.530679
1277.528523
1277.528362
1277.529642
1277.530039
1277.531312
1277.531845
1277.53205
1277.530892
1277.52973
1277.527255
1277.526994
1277.528367
1277.529086
1277.530653
1277.53139
1277.531495
1277.530178
1277.528713
1277.526013
1277.525684
1277.52713
1277.528105
1277.529931
1277.530827
1277.530854
1277.529431
1277.527695
1277.524847
1277.5245
1277.52597
1277.527067
1277.529154
1277.530181
1277.530152
1277.528607
1277.526712
1277.52378
1277.523414
1277.52491
1277.526072
1277.528318
1277.529487
1277.529411
1277.527749
1277.525762
1277.522843
1277.52248
1277.523927
1277.525152
1277.527474
1277.528772
1277.52863
1277.52694
1277.524879
1277.521995
1277.521671
1277.523065
1277.524283
1277.526686
1277.527993
1277.52787
1277.526125
1277.524098
1277.521264
1277.520988
1277.522331
1277.523498
1277.525899
1277.527216
1277.527092
1277.52538
1277.523394
1277.520623
1277.520425
1277.5217
1277.522747
1277.525139
1277.526442
1277.526364
1277.524658
1277.522734
1277.520098
1277.519949
1277.521149
1277.522107
1277.524422
1277.525693
1277.525656
1277.524005
1277.522212
1277.519664
1277.519583
1277.520711
1277.52155
1277.523794
1277.525016
1277.525116
1277.523502
1277.521784
1277.519319
1277.519303
1277.520412
1277.521135
1277.523295
1277.524463
)
;
    }
    side-walls
    {
        type            calculated;
        value           nonuniform List<scalar> 
261
(
1277.533103
1277.532631
1277.53195
1277.531315
1277.530668
1277.531609
1277.531505
1277.532507
1277.533117
1277.532843
1277.532261
1277.531257
1277.530256
1277.529388
1277.530554
1277.530802
1277.53212
1277.532861
1277.532518
1277.531734
1277.530395
1277.529061
1277.528023
1277.529336
1277.52997
1277.531583
1277.532507
1277.53205
1277.531102
1277.52946
1277.527818
1277.526637
1277.528066
1277.52899
1277.530951
1277.532041
1277.531495
1277.530368
1277.528435
1277.526567
1277.525376
1277.526834
1277.527989
1277.530206
1277.531477
1277.530854
1277.52959
1277.527406
1277.525388
1277.524189
1277.525662
1277.526953
1277.529443
1277.53083
1277.530152
1277.528766
1277.526397
1277.524332
1277.523116
1277.524597
1277.525998
1277.528614
1277.530149
1277.529411
1277.527905
1277.525516
1277.523357
1277.522214
1277.523635
1277.525063
1277.527802
1277.529419
1277.52863
1277.527082
1277.52464
1277.522519
1277.521396
1277.522788
1277.524182
1277.526969
1277.528657
1277.52787
1277.526292
1277.523825
1277.5218
1277.520706
1277.522029
1277.523406
1277.526152
1277.527891
1277.527092
1277.525511
1277.5231
1277.52118
1277.520114
1277.521386
1277.522696
1277.525358
1277.527118
1277.526364
1277.524777
1277.522467
1277.520616
1277.519648
1277.520849
1277.522063
1277.524648
1277.526372
1277.525656
1277.524143
1277.52193
1277.520171
1277.519273
1277.520406
1277.521523
1277.523988
1277.525689
1277.525116
1277.52365
1277.521519
1277.519852
1277.519013
1277.520084
1277.521122
1277.523506
1277.525166
1277.53258
1277.53308
1277.532983
1277.532557
1277.531636
1277.53184
1277.531742
1277.532862
1277.533202
1277.532439
1277.532835
1277.532462
1277.531725
1277.530601
1277.530999
1277.531244
1277.532619
1277.533035
1277.532194
1277.532424
1277.531812
1277.530665
1277.529321
1277.529938
1277.53057
1277.532204
1277.53279
1277.531845
1277.531907
1277.530946
1277.529457
1277.528
1277.528764
1277.529725
1277.53167
1277.532452
1277.53139
1277.531242
1277.529985
1277.528194
1277.526639
1277.527506
1277.528781
1277.531022
1277.532
1277.530827
1277.530531
1277.528998
1277.526946
1277.525323
1277.52627
1277.527751
1277.530291
1277.531447
1277.530181
1277.529751
1277.527981
1277.525788
1277.52414
1277.525088
1277.526735
1277.529503
1277.530797
1277.529487
1277.528928
1277.526975
1277.524715
1277.523048
1277.524002
1277.525754
1277.528659
1277.530109
1277.528772
1277.528091
1277.526068
1277.523735
1277.522115
1277.523041
1277.524817
1277.527832
1277.529357
1277.527993
1277.5273
1277.525186
1277.522903
1277.52131
1277.522199
1277.523926
1277.527023
1277.528584
1277.527216
1277.526487
1277.524376
1277.522165
1277.52061
1277.521461
1277.52315
1277.526227
1277.527801
1277.526442
1277.525701
1277.523648
1277.52151
1277.520052
1277.520808
1277.522414
1277.525462
1277.527047
1277.525693
1277.524977
1277.522981
1277.520987
1277.519585
1277.520288
1277.521753
1277.524762
1277.526307
1277.525016
1277.52434
1277.522423
1277.520546
1277.519173
1277.519857
1277.521173
1277.524115
1277.525617
1277.524463
1277.523857
1277.521999
1277.520232
1277.518905
1277.519524
1277.520743
1277.523609
1277.52509
)
;
    }
    inlet
    {
        type            calculated;
        value           nonuniform 0();
    }
    outlet
    {
        type            calculated;
        value           nonuniform List<scalar> 
81
(
1277.525116
1277.52365
1277.521519
1277.519852
1277.519013
1277.520084
1277.521122
1277.523506
1277.525166
1277.523502
1277.522261
1277.519721
1277.517126
1277.517251
1277.517822
1277.519472
1277.5222
1277.523641
1277.521784
1277.519537
1277.516493
1277.513092
1277.512506
1277.513425
1277.515422
1277.519558
1277.521439
1277.519319
1277.518342
1277.513577
1277.510236
1277.505851
1277.508729
1277.513844
1277.517025
1277.520175
1277.519303
1277.516644
1277.512062
1277.506339
1276.186219
1277.506011
1277.512032
1277.51593
1277.51911
1277.520412
1277.516883
1277.513064
1277.50972
1277.506614
1277.510503
1277.513635
1277.517447
1277.5197
1277.521135
1277.519946
1277.515297
1277.513642
1277.512745
1277.51284
1277.516331
1277.520072
1277.521861
1277.523295
1277.521831
1277.520471
1277.517715
1277.516745
1277.517728
1277.51891
1277.521728
1277.523386
1277.524463
1277.523857
1277.521999
1277.520232
1277.518905
1277.519524
1277.520743
1277.523609
1277.52509
)
;
    }
    procBoundary1to0
    {
        type            processor;
        value           nonuniform List<scalar> 
97
(
1277.533271
1277.533271
1277.532938
1277.532477
1277.532157
1277.531679
1277.532447
1277.532012
1277.532785
1277.5333
1277.532888
1277.532718
1277.532718
1277.532718
1277.531945
1277.530254
1277.530112
1277.530958
1277.531705
1277.532557
1277.532886
1277.533022
1277.532454
1277.529811
1277.529811
1277.529811
1277.52418
1277.516636
1277.524567
1277.52866
1277.531791
1277.532347
1277.532155
1277.533015
1277.52987
1277.504595
1277.504595
1277.504595
1277.444742
1277.50301
1277.524986
1277.530135
1277.532434
1277.532701
1277.531732
1277.527091
1277.509335
1275.67426
1275.67426
1275.67426
1277.444993
1277.444993
1277.51622
1277.528731
1277.531972
1277.533304
1277.531564
1277.529371
1277.523083
1277.509487
1277.523641
1277.524756
1277.524756
1277.524756
1277.530653
1277.532024
1277.532393
1277.532932
1277.530667
1277.529932
1277.527746
1277.529284
1277.531608
1277.532232
1277.532232
1277.532232
1277.532724
1277.532695
1277.53252
1277.533383
1277.532423
1277.531749
1277.532367
1277.531885
1277.532467
1277.532709
1277.532709
1277.532709
1277.532668
1277.533273
1277.533289
1277.533089
1277.532337
1277.532356
1277.53205
1277.533041
1277.5333
)
;
    }
}


// ************************************************************************* //
