/*--------------------------------*- C++ -*----------------------------------*\
| =========                 |                                                 |
| \\      /  F ield         | OpenFOAM: The Open Source CFD Toolbox           |
|  \\    /   O peration     | Version:  4.x                                   |
|   \\  /    A nd           | Web:      www.OpenFOAM.org                      |
|    \\/     M anipulation  |                                                 |
\*---------------------------------------------------------------------------*/
FoamFile
{
    version     2.0;
    format      ascii;
    class       volScalarField;
    location    "4000";
    object      H2;
}
// * * * * * * * * * * * * * * * * * * * * * * * * * * * * * * * * * * * * * //

dimensions      [0 0 0 0 0 0 0];

internalField   nonuniform List<scalar> 
1174
(
0.004463647549
0.004463519606
0.004463340851
0.004463109995
0.00446283035
0.004462508793
0.004462154407
0.004461777186
0.004461386994
0.004460992929
0.004460603229
0.004460226556
0.004459878207
0.004459606773
0.004463529871
0.00446332844
0.004463062946
0.004462740544
0.00446237308
0.004461974361
0.004461558022
0.004461136203
0.004460718913
0.004460313951
0.004459927335
0.00445956485
0.004459237857
0.004458987393
0.004463272778
0.004462923062
0.004462494834
0.00446201326
0.004461504666
0.004460992065
0.004460493199
0.004460020305
0.004459580819
0.004459178455
0.004458814459
0.004458489432
0.004458208201
0.004457999131
0.004462901358
0.004462365482
0.004461756559
0.004461119758
0.004460491711
0.004459897958
0.004459353813
0.004458866549
0.004458437748
0.004458065349
0.004457745315
0.004457473324
0.004457248366
0.004457086779
0.004462640394
0.004462004229
0.004461316754
0.004460626585
0.004459968012
0.004459362203
0.004458819996
0.004458344833
0.004457935256
0.004457586856
0.004457293774
0.004457050127
0.004456852939
0.004456713775
0.004462901361
0.004462365487
0.004461756566
0.004461119767
0.00446049172
0.004459897969
0.004459353826
0.004458866562
0.004458437762
0.004458065365
0.004457745331
0.004457473341
0.004457248384
0.004457086798
0.004463272786
0.004462923073
0.004462494848
0.004462013276
0.004461504685
0.004460992087
0.004460493223
0.004460020331
0.004459580847
0.004459178485
0.00445881449
0.004458489465
0.004458208234
0.004457999165
0.004463529877
0.004463328449
0.004463062957
0.004462740558
0.004462373097
0.004461974381
0.004461558046
0.004461136229
0.004460718942
0.004460313983
0.00445992737
0.004459564888
0.004459237897
0.004458987435
0.004463647554
0.004463519612
0.004463340859
0.004463110005
0.004462830363
0.004462508809
0.004462154427
0.004461777209
0.004461387021
0.004460992959
0.004460603263
0.004460226593
0.004459878247
0.004459606816
0.004463667411
0.004463529872
0.004463328441
0.004463062947
0.004462740545
0.004462373081
0.004461974362
0.004461558024
0.004461136204
0.004460718914
0.004460313952
0.004459927336
0.004459564852
0.004459237858
0.004458987395
0.004463268889
0.004462922395
0.004462504154
0.004462040082
0.004461555412
0.004461070848
0.004460601392
0.004460156742
0.00445974235
0.004459360639
0.004459012236
0.004458697714
0.004458422426
0.004458215839
0.004462620536
0.00446196078
0.004461251535
0.004460552741
0.00445990402
0.004459325807
0.004458824377
0.004458397194
0.004458037116
0.004457735249
0.004457482718
0.004457272007
0.004457099545
0.004456976195
0.004461486052
0.004460407108
0.004459393334
0.004458517883
0.004457803403
0.004457242953
0.004456816011
0.004456498203
0.004456266306
0.004456100325
0.004455983986
0.004455904501
0.004455852233
0.004455821667
0.004460434113
0.004459149301
0.004458073277
0.004457229407
0.0044565963
0.004456137739
0.004455816562
0.004455600106
0.00445546166
0.004455380229
0.004455339661
0.004455327515
0.00445533349
0.004455346308
0.004461486066
0.004460407126
0.004459393354
0.004458517905
0.004457803425
0.004457242976
0.004456816034
0.004456498226
0.00445626633
0.004456100349
0.00445598401
0.004455904524
0.004455852256
0.00445582169
0.004462620557
0.004461960805
0.004461251563
0.004460552772
0.004459904053
0.004459325842
0.004458824414
0.004458397232
0.004458037155
0.004457735289
0.004457482758
0.004457272047
0.004457099586
0.004456976237
0.004463268904
0.004462922412
0.004462504173
0.004462040105
0.004461555438
0.004461070877
0.004460601426
0.004460156779
0.004459742389
0.004459360681
0.00445901228
0.004458697761
0.004458422474
0.004458215888
0.004463529877
0.004463328449
0.004463062958
0.004462740559
0.004462373099
0.004461974384
0.00446155805
0.004461136234
0.004460718949
0.00446031399
0.004459927378
0.004459564897
0.004459237906
0.004458987446
0.004463527101
0.00446327278
0.004462923065
0.004462494837
0.004462013262
0.004461504668
0.004460992068
0.004460493202
0.004460020308
0.004459580821
0.004459178457
0.004458814462
0.004458489435
0.004458208204
0.004457999134
0.004463159658
0.004462620537
0.004461960781
0.004461251536
0.004460552742
0.004459904021
0.004459325807
0.004458824378
0.004458397195
0.004458037118
0.004457735251
0.00445748272
0.004457272009
0.004457099547
0.004456976197
0.004460735461
0.004459374783
0.004458159883
0.004457178056
0.004456442034
0.004455924612
0.004455583609
0.004455376016
0.004455264455
0.004455219122
0.004455217463
0.004455242766
0.004455281727
0.004455318834
0.004456610024
0.004454361782
0.004452844103
0.00445197566
0.004451593406
0.004451539219
0.004451688493
0.004451952671
0.004452272773
0.004452611391
0.004452945655
0.004453261166
0.004453544026
0.004453758675
0.004451299547
0.004449114504
0.004448222301
0.004448116494
0.004448442872
0.004448982153
0.004449606485
0.004450244444
0.004450857996
0.004451428368
0.00445194743
0.00445241152
0.004452812723
0.004453110559
0.004456610101
0.00445436186
0.004452844175
0.004451975726
0.004451593466
0.004451539274
0.004451688543
0.004451952715
0.004452272814
0.004452611429
0.00445294569
0.004453261199
0.004453544058
0.004453758705
0.004460735531
0.004459374847
0.004458159947
0.004457178121
0.004456442098
0.004455924675
0.00445558367
0.004455376075
0.004455264512
0.004455219177
0.004455217517
0.004455242818
0.004455281777
0.004455318884
0.004462620559
0.004461960809
0.00446125157
0.004460552782
0.004459904065
0.004459325856
0.00445882443
0.004458397249
0.004458037174
0.004457735308
0.004457482778
0.004457272068
0.004457099607
0.004456976258
0.004463272786
0.004462923075
0.004462494852
0.004462013283
0.004461504695
0.0044609921
0.004460493239
0.00446002035
0.004459580868
0.004459178508
0.004458814516
0.004458489493
0.004458208264
0.004457999196
0.004463319374
0.00446290136
0.004462365487
0.004461756565
0.004461119764
0.004460491717
0.004459897964
0.00445935382
0.004458866556
0.004458437755
0.004458065356
0.004457745322
0.004457473331
0.004457248373
0.004457086786
0.004462491011
0.004461486049
0.004460407109
0.004459393335
0.004458517885
0.004457803405
0.004457242956
0.004456816015
0.004456498207
0.004456266311
0.004456100331
0.004455983992
0.004455904507
0.004455852238
0.004455821672
0.004459402293
0.004456610023
0.004454361789
0.004452844111
0.004451975669
0.004451593415
0.004451539229
0.004451688503
0.004451952679
0.004452272781
0.004452611398
0.004452945662
0.004453261173
0.004453544033
0.004453758681
0.004442669636
0.004439971435
0.004439642028
0.004440563423
0.004442020653
0.004443619129
0.004445164114
0.00444657234
0.004447818056
0.004448902873
0.004449839543
0.004450642116
0.004451313173
0.004451800211
0.004415775019
0.004419590323
0.004425183095
0.004430464472
0.004434911839
0.004438517023
0.004441411373
0.004443740539
0.004445628725
0.004447173159
0.004448447106
0.004449502663
0.004450364242
0.004450980097
0.004442669935
0.004439971646
0.004439642184
0.004440563542
0.004442020746
0.004443619202
0.004445164175
0.004446572391
0.0044478181
0.004448902912
0.004449839578
0.004450642148
0.004451313204
0.004451800242
0.004456610097
0.004454361874
0.004452844201
0.00445197576
0.004451593504
0.004451539314
0.004451688583
0.004451952756
0.004452272854
0.004452611467
0.004452945726
0.004453261235
0.004453544092
0.004453758738
0.004461486072
0.004460407142
0.004459393379
0.004458517938
0.004457803464
0.00445724302
0.004456816081
0.004456498275
0.00445626638
0.0044561004
0.004455984061
0.004455904576
0.004455852307
0.004455821741
0.004462901364
0.004462365495
0.00446175658
0.004461119787
0.004460491747
0.004459898002
0.004459353864
0.004458866605
0.00445843781
0.004458065415
0.004457745384
0.004457473396
0.004457248441
0.004457086857
0.004463166076
0.0044626404
0.004462004239
0.004461316765
0.004460626597
0.004459968025
0.004459362216
0.004458820009
0.004458344847
0.004457935269
0.004457586869
0.004457293786
0.004457050139
0.00445685295
0.004456713786
0.004461805223
0.004460434125
0.004459149323
0.0044580733
0.004457229429
0.004456596321
0.004456137758
0.004455816581
0.004455600123
0.004455461676
0.004455380244
0.004455339675
0.004455327528
0.004455333503
0.00445534632
0.004455277409
0.004451299541
0.004449114532
0.00444822233
0.00444811652
0.004448442894
0.004448982172
0.004449606502
0.00445024446
0.004450858011
0.004451428381
0.004451947442
0.004452411531
0.004452812732
0.004453110568
0.004420254017
0.004415775093
0.004419590392
0.004425183153
0.004430464521
0.00443491188
0.004438517057
0.004441411401
0.004443740563
0.004445628745
0.004447173176
0.004448447121
0.004449502676
0.004450364254
0.004450980107
0.004301320805
0.004360426528
0.00439293195
0.004411862345
0.004423544714
0.004431169048
0.004436407154
0.004440171517
0.004442981391
0.004445144826
0.004446851633
0.004448220176
0.004449311229
0.004450079906
0.004415775012
0.004419590547
0.004425183307
0.004430464644
0.004434911978
0.004438517137
0.004441411469
0.004443740621
0.004445628797
0.004447173223
0.004448447164
0.004449502715
0.00445036429
0.004450980142
0.004451299552
0.004449114585
0.004448222406
0.004448116606
0.004448442983
0.004448982259
0.004449606585
0.00445024454
0.004450858086
0.004451428452
0.00445194751
0.004452411596
0.004452812795
0.004453110629
0.004460434125
0.004459149337
0.004458073329
0.004457229471
0.004456596373
0.004456137817
0.004455816643
0.004455600189
0.004455461743
0.004455380312
0.004455339744
0.004455327597
0.004455333572
0.004455346389
0.004462640398
0.004462004241
0.004461316776
0.004460626616
0.004459968053
0.004459362252
0.004458820054
0.004458344897
0.004457935325
0.00445758693
0.004457293851
0.004457050207
0.004456853021
0.00445671386
0.004463319377
0.004462901367
0.004462365497
0.004461756578
0.00446111978
0.004460491735
0.004459897984
0.004459353842
0.004458866578
0.004458437778
0.004458065381
0.004457745347
0.004457473356
0.004457248398
0.004457086812
0.004462491032
0.004461486082
0.004460407149
0.004459393379
0.00445851793
0.00445780345
0.004457243
0.004456816057
0.004456498248
0.004456266351
0.004456100369
0.004455984028
0.004455904541
0.004455852272
0.004455821705
0.004459402385
0.00445661012
0.004454361892
0.004452844207
0.004451975755
0.004451593492
0.004451539298
0.004451688565
0.004451952736
0.004452272834
0.004452611447
0.004452945706
0.004453261215
0.004453544072
0.004453758719
0.004448983121
0.004442669965
0.004439971697
0.004439642235
0.004440563589
0.00444202079
0.004443619243
0.004445164212
0.004446572425
0.00444781813
0.004448902939
0.004449839602
0.00445064217
0.004451313224
0.004451800259
0.004420254049
0.004415775171
0.004419590663
0.004425183395
0.004430464714
0.004434912034
0.004438517184
0.004441411508
0.004443740654
0.004445628824
0.004447173246
0.004448447184
0.004449502732
0.004450364305
0.004450980155
0.004448983069
0.004442669994
0.004439971756
0.004439642302
0.004440563658
0.004442020857
0.004443619307
0.004445164272
0.004446572481
0.004447818182
0.004448902987
0.004449839647
0.004450642212
0.004451313263
0.004451800296
0.00445661001
0.004454361851
0.004452844209
0.004451975785
0.004451593538
0.004451539353
0.004451688626
0.004451952799
0.004452272896
0.004452611509
0.004452945768
0.004453261275
0.004453544131
0.004453758776
0.004461486046
0.004460407125
0.004459393371
0.004458517938
0.004457803471
0.004457243032
0.004456816098
0.004456498295
0.004456266402
0.004456100424
0.004455984086
0.004455904602
0.004455852334
0.004455821768
0.004462901357
0.004462365489
0.004461756575
0.004461119786
0.004460491749
0.004459898007
0.004459353873
0.004458866617
0.004458437823
0.004458065431
0.004457745402
0.004457473415
0.004457248462
0.004457086878
0.004463527106
0.004463272789
0.004462923079
0.004462494855
0.004462013285
0.004461504695
0.004460992098
0.004460493235
0.004460020343
0.004459580859
0.004459178498
0.004458814504
0.004458489478
0.004458208248
0.004457999179
0.004463159677
0.004462620564
0.004461960816
0.004461251576
0.004460552786
0.004459904068
0.004459325857
0.00445882443
0.004458397248
0.004458037171
0.004457735304
0.004457482773
0.004457272062
0.0044570996
0.004456976251
0.004462050913
0.004460735546
0.00445937487
0.004458159971
0.004457178144
0.004456442121
0.004455924698
0.004455583691
0.004455376096
0.004455264533
0.004455219197
0.004455217535
0.004455242836
0.004455281794
0.0044553189
0.004459402379
0.004456610125
0.00445436191
0.004452844235
0.004451975792
0.004451593534
0.004451539341
0.004451688609
0.004451952779
0.004452272875
0.004452611487
0.004452945746
0.004453261252
0.004453544108
0.004453758754
0.004455277409
0.00445129961
0.004449114642
0.004448222455
0.004448116648
0.004448443019
0.004448982291
0.004449606615
0.004450244566
0.004450858109
0.004451428473
0.004451947529
0.004452411613
0.004452812811
0.004453110643
0.004459402388
0.004456610142
0.004454361934
0.004452844264
0.004451975822
0.004451593565
0.004451539373
0.004451688641
0.004451952811
0.004452272907
0.004452611518
0.004452945775
0.004453261281
0.004453544137
0.004453758782
0.00446205088
0.004460735515
0.00445937485
0.004458159964
0.004457178151
0.004456442138
0.004455924723
0.004455583723
0.004455376133
0.004455264572
0.004455219239
0.004455217579
0.00445524288
0.004455281839
0.004455318946
0.004462620535
0.004461960794
0.004461251563
0.004460552783
0.004459904074
0.004459325871
0.004458824451
0.004458397276
0.004458037205
0.004457735343
0.004457482816
0.004457272108
0.004457099649
0.004456976302
0.004463272777
0.004462923066
0.004462494846
0.00446201328
0.004461504696
0.004460992105
0.004460493249
0.004460020365
0.004459580887
0.004459178531
0.004458814543
0.004458489522
0.004458208297
0.004457999232
0.004463667416
0.004463529879
0.004463328453
0.004463062962
0.004462740564
0.004462373105
0.004461974389
0.004461558055
0.00446113624
0.004460718954
0.004460313995
0.004459927382
0.004459564901
0.004459237909
0.004458987448
0.004463524199
0.004463268907
0.004462922417
0.004462504179
0.004462040112
0.004461555446
0.004461070886
0.004460601435
0.004460156789
0.0044597424
0.004459360692
0.004459012291
0.004458697772
0.004458422486
0.0044582159
0.004463159675
0.004462620562
0.004461960815
0.004461251577
0.004460552789
0.004459904074
0.004459325865
0.00445882444
0.004458397259
0.004458037184
0.004457735319
0.004457482789
0.004457272079
0.004457099618
0.00445697627
0.004462491027
0.004461486081
0.004460407155
0.004459393393
0.004458517952
0.004457803478
0.004457243034
0.004456816096
0.00445649829
0.004456266395
0.004456100415
0.004455984075
0.00445590459
0.004455852321
0.004455821755
0.004461805224
0.004460434144
0.004459149359
0.004458073351
0.004457229491
0.004456596392
0.004456137834
0.00445581666
0.004455600205
0.004455461759
0.004455380327
0.004455339759
0.004455327611
0.004455333585
0.004455346402
0.004462491031
0.004461486087
0.004460407164
0.004459393404
0.004458517966
0.004457803495
0.004457243052
0.004456816115
0.004456498311
0.004456266416
0.004456100437
0.004455984098
0.004455904612
0.004455852344
0.004455821778
0.004463159674
0.004462620561
0.004461960817
0.004461251583
0.0044605528
0.00445990409
0.004459325886
0.004458824464
0.004458397287
0.004458037215
0.004457735352
0.004457482824
0.004457272116
0.004457099656
0.004456976308
0.004463524193
0.0044632689
0.004462922411
0.004462504176
0.004462040113
0.004461555453
0.004461070898
0.004460601452
0.00446015681
0.004459742426
0.004459360722
0.004459012326
0.00445869781
0.004458422527
0.004458215944
0.004463529871
0.004463328445
0.004463062956
0.00446274056
0.004462373104
0.004461974393
0.004461558064
0.004461136254
0.004460718973
0.004460314019
0.004459927411
0.004459564935
0.004459237948
0.004458987491
0.004463730792
0.004463647556
0.004463519615
0.004463340862
0.00446311001
0.004462830369
0.004462508816
0.004462154435
0.004461777218
0.004461387032
0.00446099297
0.004460603275
0.004460226606
0.004459878261
0.00445960683
0.004463667415
0.004463529878
0.004463328451
0.004463062961
0.004462740563
0.004462373104
0.004461974389
0.004461558055
0.004461136241
0.004460718956
0.004460313998
0.004459927386
0.004459564906
0.004459237916
0.004458987456
0.004463527104
0.004463272787
0.004462923077
0.004462494855
0.004462013286
0.004461504698
0.004460992104
0.004460493244
0.004460020356
0.004459580874
0.004459178515
0.004458814524
0.004458489501
0.004458208273
0.004457999206
0.004463319376
0.004462901368
0.004462365501
0.004461756587
0.004461119795
0.004460491756
0.004459898012
0.004459353875
0.004458866616
0.004458437821
0.004458065427
0.004457745396
0.004457473408
0.004457248453
0.004457086869
0.004463166077
0.004462640408
0.004462004255
0.004461316791
0.004460626632
0.004459968069
0.004459362268
0.004458820069
0.004458344913
0.00445793534
0.004457586944
0.004457293865
0.00445705022
0.004456853034
0.004456713872
0.004463319379
0.004462901373
0.004462365508
0.004461756596
0.004461119806
0.004460491769
0.004459898026
0.004459353891
0.004458866634
0.004458437839
0.004458065446
0.004457745416
0.004457473429
0.004457248474
0.00445708689
0.004463527106
0.004463272791
0.004462923083
0.004462494864
0.004462013298
0.004461504714
0.004460992124
0.004460493267
0.004460020382
0.004459580903
0.004459178547
0.004458814557
0.004458489536
0.004458208309
0.004457999243
0.004463667415
0.004463529878
0.004463328451
0.004463062962
0.004462740566
0.00446237311
0.004461974399
0.00446155807
0.004461136259
0.004460718978
0.004460314024
0.004459927417
0.00445956494
0.004459237953
0.004458987496
0.00446373079
0.004463647553
0.004463519611
0.004463340859
0.004463110008
0.004462830369
0.004462508819
0.004462154441
0.004461777228
0.004461387046
0.004460992989
0.004460603299
0.004460226635
0.004459878293
0.004459606867
)
;

boundaryField
{
    top
    {
        type            zeroGradient;
    }
    bottom
    {
        type            zeroGradient;
    }
    side-walls
    {
        type            zeroGradient;
    }
    inlet
    {
        type            zeroGradient;
    }
    outlet
    {
        type            zeroGradient;
    }
    procBoundary1to0
    {
        type            processor;
        value           nonuniform List<scalar> 
97
(
0.00446373079
0.00446373079
0.004463667414
0.004463527106
0.004463319382
0.004463166086
0.004463319384
0.004463527111
0.004463667418
0.004463730794
0.004463749746
0.004463524192
0.004463524192
0.004463524192
0.004463159673
0.004462491039
0.004461805251
0.00446249105
0.004463159689
0.004463524205
0.004463667418
0.00446368538
0.004463522097
0.004462050874
0.004462050874
0.004462050874
0.00445940239
0.004455277541
0.004459402464
0.004462050944
0.004463159689
0.004463527111
0.004463592393
0.004463238099
0.004462017674
0.004448982896
0.004448982896
0.004448982896
0.004420254606
0.004448983357
0.004459402457
0.004462491052
0.004463319385
0.004463527062
0.004462974791
0.004460688858
0.004451804962
0.004187600656
0.004187600656
0.004187600656
0.004420254526
0.004420254526
0.004455277524
0.004461805254
0.004463166086
0.004463592394
0.004463238105
0.004462017684
0.004458529693
0.004451804943
0.004458529704
0.004459402322
0.004459402322
0.004459402322
0.004462491026
0.004463319379
0.004463685381
0.0044635221
0.004463050232
0.004462017678
0.004460688848
0.004462017683
0.004463050227
0.004463159662
0.004463159662
0.004463159662
0.004463527103
0.004463749747
0.00446368441
0.004463522098
0.004463238101
0.004462974789
0.004463238104
0.004463522099
0.00446368441
0.004463667412
0.004463667412
0.004463667412
0.00446377921
0.004463749747
0.00446368538
0.004463592393
0.004463527062
0.004463592394
0.004463685381
0.004463749747
0.00446377921
)
;
    }
}


// ************************************************************************* //
