/*--------------------------------*- C++ -*----------------------------------*\
| =========                 |                                                 |
| \\      /  F ield         | OpenFOAM: The Open Source CFD Toolbox           |
|  \\    /   O peration     | Version:  4.x                                   |
|   \\  /    A nd           | Web:      www.OpenFOAM.org                      |
|    \\/     M anipulation  |                                                 |
\*---------------------------------------------------------------------------*/
FoamFile
{
    version     2.0;
    format      ascii;
    class       volScalarField;
    location    "4000";
    object      H2O;
}
// * * * * * * * * * * * * * * * * * * * * * * * * * * * * * * * * * * * * * //

dimensions      [0 0 0 0 0 0 0];

internalField   nonuniform List<scalar> 
1174
(
1.145974841e-05
1.252272098e-05
1.400784461e-05
1.592584952e-05
1.824924171e-05
2.09209219e-05
2.386542929e-05
2.699977407e-05
3.024199728e-05
3.351653078e-05
3.675491855e-05
3.988519053e-05
4.278020848e-05
4.503607023e-05
1.243744944e-05
1.411090516e-05
1.63166001e-05
1.899513262e-05
2.204810914e-05
2.536086048e-05
2.882011976e-05
3.232505431e-05
3.579250147e-05
3.915767334e-05
4.237055644e-05
4.538305673e-05
4.810074552e-05
5.01824194e-05
1.457328156e-05
1.747853274e-05
2.103607172e-05
2.503689249e-05
2.926231659e-05
3.352119526e-05
3.766615374e-05
4.159551146e-05
4.524749817e-05
4.859123287e-05
5.16163393e-05
5.431779309e-05
5.665542421e-05
5.839329551e-05
1.765868946e-05
2.211029252e-05
2.716883509e-05
3.245914521e-05
3.767694719e-05
4.261006916e-05
4.713128165e-05
5.118016068e-05
5.474352437e-05
5.783846338e-05
6.049849273e-05
6.275948176e-05
6.46297193e-05
6.597317486e-05
1.982634055e-05
2.511096287e-05
3.082202383e-05
3.655568343e-05
4.202708939e-05
4.70604203e-05
5.156558776e-05
5.551398922e-05
5.891771288e-05
6.1813333e-05
6.424951865e-05
6.627506334e-05
6.791463564e-05
6.907183649e-05
1.765861848e-05
2.211018588e-05
2.716868619e-05
3.245894133e-05
3.767667819e-05
4.260972327e-05
4.713085945e-05
5.117966558e-05
5.474295119e-05
5.783781923e-05
6.049779648e-05
6.275872823e-05
6.462890086e-05
6.597231444e-05
1.457315182e-05
1.747836214e-05
2.103584402e-05
2.5036592e-05
2.926192011e-05
3.352069045e-05
3.766551802e-05
4.159475274e-05
4.524661155e-05
4.859021712e-05
5.161520534e-05
5.431654426e-05
5.66540656e-05
5.839183888e-05
1.243733283e-05
1.411076421e-05
1.631642335e-05
1.899489534e-05
2.204778382e-05
2.53604237e-05
2.881954992e-05
3.23243308e-05
3.579162064e-05
3.915662659e-05
4.236933735e-05
4.538166979e-05
4.80991859e-05
5.018071651e-05
1.145966525e-05
1.252263501e-05
1.400773794e-05
1.592569808e-05
1.824902098e-05
2.092060079e-05
2.386497812e-05
2.699916758e-05
3.02412111e-05
3.351555496e-05
3.675374264e-05
3.988380712e-05
4.277860433e-05
4.503424323e-05
1.129469257e-05
1.243736799e-05
1.411082748e-05
1.631652973e-05
1.899506182e-05
2.204803608e-05
2.536078595e-05
2.882004711e-05
3.232498423e-05
3.579243508e-05
3.915761089e-05
4.237049263e-05
4.53829955e-05
4.810068365e-05
5.018235862e-05
1.460564634e-05
1.748408252e-05
2.095864316e-05
2.481405818e-05
2.884074269e-05
3.286672816e-05
3.676737021e-05
4.046210872e-05
4.390563437e-05
4.707779298e-05
4.997336356e-05
5.258754214e-05
5.487578367e-05
5.659298955e-05
1.999167277e-05
2.547223156e-05
3.136408501e-05
3.716935817e-05
4.255893415e-05
4.73630355e-05
5.15294929e-05
5.507936058e-05
5.807190868e-05
6.058099839e-05
6.268033155e-05
6.443229429e-05
6.586646093e-05
6.689225252e-05
2.941527299e-05
3.837770779e-05
4.679919429e-05
5.407204576e-05
6.000809321e-05
6.466489494e-05
6.821287933e-05
7.085443581e-05
7.278243283e-05
7.41629229e-05
7.513108013e-05
7.579307768e-05
7.622888145e-05
7.648396555e-05
3.815233624e-05
4.882476509e-05
5.776346516e-05
6.477419291e-05
7.00345163e-05
7.384516696e-05
7.651475645e-05
7.831454571e-05
7.946637657e-05
8.014461579e-05
8.048341303e-05
8.058609405e-05
8.053811866e-05
8.043282204e-05
2.941495628e-05
3.837732983e-05
4.679874122e-05
5.40715043e-05
6.000746218e-05
6.466417664e-05
6.821206457e-05
7.085355264e-05
7.278148126e-05
7.416191533e-05
7.513003983e-05
7.5792007e-05
7.622778924e-05
7.648284361e-05
1.99912777e-05
2.54717978e-05
3.136357171e-05
3.716872855e-05
4.255816143e-05
4.736210403e-05
5.152841106e-05
5.507812693e-05
5.807053439e-05
6.057950255e-05
6.267872813e-05
6.443058872e-05
6.586466824e-05
6.689037682e-05
1.46053959e-05
1.748383661e-05
2.095833745e-05
2.481364826e-05
2.884019271e-05
3.286600639e-05
3.676645429e-05
4.046099297e-05
4.390432399e-05
4.707629299e-05
4.997168148e-05
5.258568491e-05
5.487376859e-05
5.659083041e-05
1.243734019e-05
1.411076373e-05
1.63164051e-05
1.899484858e-05
2.204769614e-05
2.536028549e-05
2.881935226e-05
3.232407152e-05
3.579129294e-05
3.915622907e-05
4.236887271e-05
4.538113705e-05
4.80985926e-05
5.018003403e-05
1.246032859e-05
1.457309289e-05
1.747833643e-05
2.103586905e-05
2.503668835e-05
2.926211293e-05
3.352098834e-05
3.76659426e-05
4.15953098e-05
4.524730454e-05
4.859103809e-05
5.161614397e-05
5.431760584e-05
5.665523624e-05
5.839311392e-05
1.551301502e-05
1.999142156e-05
2.547201965e-05
3.136389483e-05
3.716917633e-05
4.255876196e-05
4.73628794e-05
5.15293444e-05
5.507921009e-05
5.807176477e-05
6.058086515e-05
6.268020081e-05
6.443216237e-05
6.586633523e-05
6.689213006e-05
3.565064927e-05
4.69529339e-05
5.704491934e-05
6.520138448e-05
7.131645883e-05
7.561597065e-05
7.845022957e-05
8.017640594e-05
8.11049132e-05
8.148332499e-05
8.149893491e-05
8.129053132e-05
8.096855309e-05
8.06615003e-05
6.991683282e-05
8.859112771e-05
0.0001011983375
0.0001084135535
0.0001115907398
0.0001120430521
0.0001108054045
0.0001086132733
0.0001059565306
0.0001031459055
0.0001003713488
9.77524342e-05
9.540456312e-05
9.362277357e-05
0.0001140214813
0.0001321716625
0.0001395848012
0.0001404664834
0.0001377584353
0.0001332818719
0.0001280987007
0.0001228021455
0.0001177081197
0.0001129726071
0.0001086631626
0.0001048101544
0.0001014793211
9.900653718e-05
6.991527675e-05
8.858962777e-05
0.0001011968128
0.0001084119652
0.0001115890819
0.0001120413478
0.0001108036821
0.0001086115721
0.0001059548349
0.0001031442362
0.0001003697102
9.775082723e-05
9.540299745e-05
9.362119799e-05
3.564941453e-05
4.695183492e-05
5.704370998e-05
6.519995059e-05
7.131478342e-05
7.561408837e-05
7.844816893e-05
8.017420791e-05
8.110262235e-05
8.148095216e-05
8.149650785e-05
8.128807304e-05
8.096606465e-05
8.06589735e-05
1.999127879e-05
2.547172794e-05
3.136340154e-05
3.716842871e-05
4.255772592e-05
4.73615478e-05
5.152773264e-05
5.507735393e-05
5.806968071e-05
6.057857604e-05
6.267773458e-05
6.442954465e-05
6.586358023e-05
6.688925348e-05
1.457317015e-05
1.747833388e-05
2.103573327e-05
2.503636205e-05
2.926154196e-05
3.352014306e-05
3.766480665e-05
4.159386606e-05
4.524555212e-05
4.858900346e-05
5.161384082e-05
5.431504659e-05
5.665244154e-05
5.839007846e-05
1.41859442e-05
1.765837719e-05
2.210994307e-05
2.716846267e-05
3.24587548e-05
3.767655037e-05
4.260966777e-05
4.713087656e-05
5.117976125e-05
5.474313286e-05
5.783808153e-05
6.049813493e-05
6.275912691e-05
6.462936501e-05
6.59728413e-05
2.106706109e-05
2.941475252e-05
3.837721333e-05
4.679872806e-05
5.407160019e-05
6.000766852e-05
6.466449503e-05
6.821247793e-05
7.085404913e-05
7.278206558e-05
7.416256681e-05
7.513074066e-05
7.579275982e-05
7.622858329e-05
7.648367334e-05
4.672382225e-05
6.991578975e-05
8.859034224e-05
0.0001011977192
0.0001084130178
0.0001115902502
0.0001120426255
0.0001108050102
0.000108612936
0.0001059562232
0.0001031456357
0.0001003710936
9.775220105e-05
9.540434664e-05
9.362254955e-05
0.0001857020683
0.0002081126096
0.0002108512712
0.0002032017697
0.0001911016773
0.0001778281367
0.0001649985234
0.0001533044846
0.0001429599323
0.0001339515687
0.0001261734882
0.0001195090357
0.0001139367332
0.0001098923781
0.0004090600345
0.0003773793943
0.0003309357541
0.0002870769275
0.0002501436221
0.000220204095
0.0001961677159
0.0001768249802
0.0001611444765
0.0001483187518
0.0001377393903
0.000128973745
0.0001218190012
0.0001167046534
0.000185696417
0.0002081085244
0.0002108476096
0.0002031982929
0.0001910983702
0.0001778250272
0.0001649956054
0.0001533017504
0.0001429573765
0.0001339491461
0.0001261712236
0.0001195069128
0.0001139347196
0.0001098903906
6.991541001e-05
8.858916747e-05
0.0001011957876
0.0001084104926
0.0001115873022
0.0001120393967
0.0001108016354
0.0001086094808
0.0001059527702
0.0001031422004
0.0001003677247
9.774889036e-05
9.540109419e-05
9.361932953e-05
2.941497435e-05
3.837703085e-05
4.679803465e-05
5.407038004e-05
6.000595811e-05
6.466235472e-05
6.820999876e-05
7.085127405e-05
7.277904698e-05
7.415938396e-05
7.512741538e-05
7.5789329e-05
7.622505945e-05
7.648006765e-05
1.765864788e-05
2.211007116e-05
2.71683366e-05
3.24582878e-05
3.767569562e-05
4.260840037e-05
4.712920318e-05
5.117769606e-05
5.474069696e-05
5.783531971e-05
6.049507512e-05
6.275581175e-05
6.462582164e-05
6.596905219e-05
1.545930659e-05
1.982595145e-05
2.511050619e-05
3.082150821e-05
3.655512906e-05
4.202651691e-05
4.705983466e-05
5.156500163e-05
5.551341164e-05
5.891714112e-05
6.181277601e-05
6.42489677e-05
6.627453713e-05
6.791412256e-05
6.907133331e-05
2.676297955e-05
3.815154913e-05
4.882391269e-05
5.776259999e-05
6.477335005e-05
7.003369924e-05
7.384439565e-05
7.65140154e-05
7.831384702e-05
7.946572476e-05
8.01440051e-05
8.048283292e-05
8.058554644e-05
8.053759888e-05
8.043232038e-05
8.098087051e-05
0.0001140198163
0.0001321700301
0.0001395833525
0.0001404652296
0.0001377573594
0.0001332809407
0.0001280978614
0.0001228013914
0.0001177074585
0.0001129720135
0.0001086626189
0.0001048096855
0.0001014788837
9.900612402e-05
0.0003718554097
0.0004090549359
0.0003773760868
0.0003309335056
0.0002870752647
0.0002501423589
0.0002202031047
0.0001961669011
0.0001768243208
0.0001611439011
0.0001483182674
0.000137738985
0.0001289733992
0.0001218186913
0.0001167043896
0.001359584237
0.0008687274233
0.0005987790732
0.0004415675231
0.000344548621
0.0002812305124
0.0002377293709
0.000206467333
0.0001831321299
0.0001651654933
0.0001509911252
0.0001396260022
0.0001305653657
0.0001241817286
0.0004090603276
0.0003773740531
0.0003309290461
0.0002870703573
0.0002501376067
0.0002201987742
0.0001961629937
0.000176820765
0.0001611406782
0.0001483153237
0.0001377362455
0.0001289708419
0.0001218163037
0.0001167020833
0.0001140218341
0.0001321695645
0.0001395810571
0.0001404618276
0.0001377533507
0.000133276671
0.0001280935311
0.0001227970829
0.0001177032564
0.0001129679454
0.0001086586728
0.0001048058531
0.0001014751722
9.900246375e-05
3.815242284e-05
4.882403955e-05
5.776189317e-05
6.477186493e-05
7.003157028e-05
7.384174157e-05
7.651097469e-05
7.831051139e-05
7.946216222e-05
8.014029436e-05
8.047901203e-05
8.058164548e-05
8.053363321e-05
8.042830782e-05
1.982640546e-05
2.511075694e-05
3.082139548e-05
3.655456298e-05
4.202545531e-05
4.705826765e-05
5.156295809e-05
5.551092812e-05
5.891426261e-05
6.180955385e-05
6.424544969e-05
6.627076486e-05
6.791012044e-05
6.906709758e-05
1.418591104e-05
1.765827246e-05
2.210975116e-05
2.71681745e-05
3.245837132e-05
3.767606204e-05
4.260907939e-05
4.713019773e-05
5.117899804e-05
5.474228911e-05
5.783716277e-05
6.049714219e-05
6.275808747e-05
6.462827873e-05
6.597170433e-05
2.106674865e-05
2.941420971e-05
3.837647733e-05
4.679783055e-05
5.407057573e-05
6.000652879e-05
6.466326512e-05
6.821119226e-05
7.085270954e-05
7.278068502e-05
7.41611712e-05
7.512932241e-05
7.579132024e-05
7.622712909e-05
7.648220209e-05
4.672140664e-05
6.991350812e-05
8.858787757e-05
0.0001011951582
0.0001084104433
0.0001115877214
0.0001120401365
0.0001108025854
0.0001086105662
0.000105953935
0.0001031434203
0.0001003689648
9.775014417e-05
9.540234873e-05
9.362059285e-05
0.0001332584015
0.0001856921382
0.000208105054
0.0002108448133
0.0002031960169
0.0001910965021
0.0001778234701
0.0001649942547
0.0001533006046
0.0001429563896
0.0001339483067
0.0001261704785
0.0001195062481
0.0001139341157
0.0001098898464
0.0003718542187
0.0004090531071
0.0003773695299
0.0003309259909
0.0002870681504
0.0002501360055
0.0002201974738
0.0001961619581
0.000176819942
0.0001611400147
0.0001483147485
0.0001377357573
0.0001289704243
0.0001218159291
0.0001167017564
0.0001332600921
0.0001856919701
0.0002081031375
0.0002108417844
0.0002031924952
0.0001910928234
0.0001778198459
0.0001649908417
0.0001532973726
0.0001429533757
0.0001339454886
0.00012616783
0.0001195037748
0.0001139317646
0.0001098875826
6.991696176e-05
8.858872163e-05
0.0001011941555
0.0001084082031
0.0001115846678
0.0001120366065
0.0001107988096
0.0001086066864
0.0001059500551
0.0001031395799
0.0001003651889
9.774644791e-05
9.539873898e-05
9.361701725e-05
2.94155339e-05
3.837712816e-05
4.679768516e-05
5.406964157e-05
6.000490077e-05
6.466106586e-05
6.820853558e-05
7.084969179e-05
7.277739131e-05
7.415767139e-05
7.512567262e-05
7.578756089e-05
7.622327928e-05
7.64782717e-05
1.765881525e-05
2.211013474e-05
2.716823608e-05
3.245799847e-05
3.767520496e-05
4.260771952e-05
4.712834997e-05
5.117669172e-05
5.473957616e-05
5.783408585e-05
6.049375276e-05
6.27544121e-05
6.462436365e-05
6.596753864e-05
1.246025765e-05
1.457292535e-05
1.747806059e-05
2.103547368e-05
2.503615422e-05
2.926142527e-05
3.352014406e-05
3.766494483e-05
4.159415123e-05
4.524598854e-05
4.858958003e-05
5.161455564e-05
5.431589947e-05
5.66534174e-05
5.839119243e-05
1.551257163e-05
1.999082994e-05
2.547124509e-05
3.13629402e-05
3.716803843e-05
4.255743241e-05
4.736134884e-05
5.15276404e-05
5.50773635e-05
5.806978375e-05
6.057876732e-05
6.267800307e-05
6.442988045e-05
6.586397542e-05
6.688969824e-05
2.472271504e-05
3.564837749e-05
4.695066914e-05
5.704249983e-05
6.519874649e-05
7.131361437e-05
7.56129627e-05
7.844710837e-05
8.017320376e-05
8.110167695e-05
8.148005749e-05
8.149567017e-05
8.128728168e-05
8.096532468e-05
8.065827865e-05
4.672150946e-05
6.991318009e-05
8.858698046e-05
0.0001011937496
0.0001084086547
0.0001115856598
0.0001120379451
0.0001108003402
0.0001086083221
0.0001059517275
0.0001031412638
0.0001003668702
9.774812372e-05
9.540038351e-05
9.361865021e-05
8.098091785e-05
0.0001140180728
0.0001321664079
0.0001395784892
0.0001404597311
0.0001377516273
0.0001332752218
0.0001280923118
0.0001227960496
0.0001177023452
0.0001129671447
0.0001086579558
0.0001048052177
0.0001014745972
9.9001927e-05
4.672135327e-05
6.991267344e-05
8.858597436e-05
0.0001011922818
0.0001084068449
0.0001115836352
0.0001120358087
0.0001107981677
0.0001086061571
0.0001059495843
0.0001031391695
0.0001003648361
9.774614384e-05
9.53984621e-05
9.361675819e-05
2.472358341e-05
3.564906531e-05
4.695078079e-05
5.704190032e-05
6.519749041e-05
7.131182813e-05
7.56107624e-05
7.844460519e-05
8.017047961e-05
8.10988124e-05
8.147710973e-05
8.149267276e-05
8.128426487e-05
8.09622966e-05
8.065520579e-05
1.999168765e-05
2.547170332e-05
3.136293286e-05
3.716752857e-05
4.255642816e-05
4.735989694e-05
5.152578925e-05
5.507515592e-05
5.806727018e-05
6.057599481e-05
6.267503038e-05
6.442673493e-05
6.586068513e-05
6.688627946e-05
1.457336366e-05
1.74784045e-05
2.103561104e-05
2.503599088e-05
2.926090236e-05
3.351922248e-05
3.766361133e-05
4.159241483e-05
4.524386371e-05
4.858710154e-05
5.161175043e-05
5.431279475e-05
5.665004058e-05
5.838754344e-05
1.129458711e-05
1.243719602e-05
1.411057241e-05
1.631617291e-05
1.899458403e-05
2.204741396e-05
2.535999819e-05
2.88190758e-05
3.232381694e-05
3.579106637e-05
3.915604025e-05
4.236873071e-05
4.538104383e-05
4.809855667e-05
5.018008161e-05
1.248439933e-05
1.460516339e-05
1.748352413e-05
2.095795609e-05
2.481319864e-05
2.883968378e-05
3.286544575e-05
3.676585639e-05
4.046037468e-05
4.390368193e-05
4.707563503e-05
4.997101648e-05
5.258501876e-05
5.487309884e-05
5.659016332e-05
1.551259146e-05
1.999081579e-05
2.547115477e-05
3.13627367e-05
3.716770441e-05
4.255696482e-05
4.736076011e-05
5.152693727e-05
5.507655365e-05
5.806888872e-05
6.057779866e-05
6.267697493e-05
6.442880394e-05
6.58628597e-05
6.688854983e-05
2.106680748e-05
2.941406517e-05
3.83759869e-05
4.679692993e-05
5.406925783e-05
6.000484965e-05
6.466127761e-05
6.820895634e-05
7.085029552e-05
7.277811833e-05
7.415849737e-05
7.512658013e-05
7.578853705e-05
7.622431522e-05
7.647934983e-05
2.676298649e-05
3.81509718e-05
4.882254289e-05
5.776043969e-05
6.477050269e-05
7.003030927e-05
7.384059145e-05
7.650991427e-05
7.830954201e-05
7.946127795e-05
8.01394674e-05
8.047825193e-05
8.058093761e-05
8.053296146e-05
8.042765962e-05
2.106670367e-05
2.941384065e-05
3.837558035e-05
4.679631524e-05
5.406844899e-05
6.000386648e-05
6.466014942e-05
6.820772697e-05
7.084897217e-05
7.277673465e-05
7.41570679e-05
7.512512355e-05
7.57870587e-05
7.622281528e-05
7.647782654e-05
1.551264344e-05
1.999082748e-05
2.547099851e-05
3.136232049e-05
3.71669883e-05
4.25559457e-05
4.735945915e-05
5.152538995e-05
5.507479051e-05
5.806694381e-05
6.057570465e-05
6.267475468e-05
6.44264893e-05
6.586045661e-05
6.688606905e-05
1.248457681e-05
1.46053535e-05
1.748362449e-05
2.095787384e-05
2.48128719e-05
2.883907596e-05
3.286453892e-05
3.676464403e-05
4.045886379e-05
4.390189298e-05
4.707359577e-05
4.996874307e-05
5.258253727e-05
5.487042404e-05
5.658732456e-05
1.243745229e-05
1.411076386e-05
1.63162479e-05
1.899448443e-05
2.204708493e-05
2.535939874e-05
2.88181705e-05
3.23225899e-05
3.578951206e-05
3.915416292e-05
4.236653596e-05
4.537854914e-05
4.809576846e-05
5.017700933e-05
1.076803823e-05
1.145957366e-05
1.252250103e-05
1.400755536e-05
1.592546119e-05
1.824872711e-05
2.092025013e-05
2.38645733e-05
2.699871254e-05
3.024071191e-05
3.351501618e-05
3.675316677e-05
3.988320424e-05
4.277798237e-05
4.503360906e-05
1.129459704e-05
1.243720502e-05
1.41105738e-05
1.631615386e-05
1.899453577e-05
2.204732299e-05
2.535985738e-05
2.881887405e-05
3.232355408e-05
3.579073047e-05
3.915563977e-05
4.236826333e-05
4.538051723e-05
4.809795523e-05
5.01793846e-05
1.246027833e-05
1.457292473e-05
1.747800523e-05
2.103532293e-05
2.503587852e-05
2.926099975e-05
3.351954954e-05
3.766417011e-05
4.159320026e-05
4.524487198e-05
4.85883073e-05
5.161314098e-05
5.431434714e-05
5.665174347e-05
5.838938132e-05
1.418593218e-05
1.765820508e-05
2.210950535e-05
2.71676695e-05
3.245754974e-05
3.767490366e-05
4.260757601e-05
4.712836483e-05
5.117685427e-05
5.473986832e-05
5.783450855e-05
6.049429188e-05
6.275504684e-05
6.462507525e-05
6.596833192e-05
1.545931031e-05
1.982575377e-05
2.510996251e-05
3.082051446e-05
3.655363e-05
4.202450167e-05
4.705732548e-05
5.156203962e-05
5.551003508e-05
5.891341064e-05
6.180874156e-05
6.424468144e-05
6.627003269e-05
6.790942446e-05
6.906642804e-05
1.41858784e-05
1.765809526e-05
2.210931056e-05
2.716736678e-05
3.245711643e-05
3.767433598e-05
4.260688378e-05
4.712756024e-05
5.117593914e-05
5.473886337e-05
5.78334162e-05
6.049312586e-05
6.275382777e-05
6.462381438e-05
6.596701416e-05
1.246025019e-05
1.457285682e-05
1.747785354e-05
2.103503954e-05
2.503541767e-05
2.926034031e-05
3.351867912e-05
3.766308672e-05
4.159191437e-05
4.524339353e-05
4.858665295e-05
5.161133945e-05
5.431240793e-05
5.664967872e-05
5.838720677e-05
1.129461583e-05
1.2437226e-05
1.411055554e-05
1.631604545e-05
1.899428873e-05
2.204689342e-05
2.53592138e-05
2.881799272e-05
3.232242229e-05
3.578934967e-05
3.915400576e-05
4.236638236e-05
4.537840249e-05
4.809563531e-05
5.017688243e-05
1.076809138e-05
1.14596483e-05
1.252256343e-05
1.40075624e-05
1.592536587e-05
1.824847898e-05
2.091980315e-05
2.386388923e-05
2.699775794e-05
3.023946639e-05
3.351346549e-05
3.675130925e-05
3.988103745e-05
4.277551272e-05
4.503084646e-05
)
;

boundaryField
{
    top
    {
        type            zeroGradient;
    }
    bottom
    {
        type            zeroGradient;
    }
    side-walls
    {
        type            zeroGradient;
    }
    inlet
    {
        type            zeroGradient;
    }
    outlet
    {
        type            zeroGradient;
    }
    procBoundary1to0
    {
        type            processor;
        value           nonuniform List<scalar> 
97
(
1.076809033e-05
1.076809033e-05
1.129460183e-05
1.246018899e-05
1.418567665e-05
1.5458921e-05
1.418561575e-05
1.246008291e-05
1.129449954e-05
1.076798796e-05
1.061049981e-05
1.248458272e-05
1.248458272e-05
1.248458272e-05
1.551256113e-05
2.10662133e-05
2.676160651e-05
2.10659157e-05
1.551216011e-05
1.248421723e-05
1.129450356e-05
1.114525842e-05
1.250167468e-05
2.472359125e-05
2.472359125e-05
2.472359125e-05
4.672016925e-05
8.097363174e-05
4.671824805e-05
2.472155271e-05
1.551216546e-05
1.246009742e-05
1.191774924e-05
1.486082024e-05
2.499778701e-05
0.0001332600732
0.0001332600732
0.0001332600732
0.0003718076908
0.0001332467166
4.671838607e-05
2.106594171e-05
1.418563895e-05
1.246045402e-05
1.704795109e-05
3.603465545e-05
0.0001098149859
0.002303657773
0.002303657773
0.002303657773
0.0003718104453
0.0003718104453
8.097426083e-05
2.676172555e-05
1.545897772e-05
1.191776247e-05
1.486085036e-05
2.499821279e-05
5.396861074e-05
0.0001098171224
5.396727239e-05
4.672297375e-05
4.672297375e-05
4.672297375e-05
2.106667992e-05
1.418579817e-05
1.114526942e-05
1.250173287e-05
1.642152654e-05
2.499829755e-05
3.603500998e-05
2.499798968e-05
1.642140975e-05
1.551297143e-05
1.551297143e-05
1.551297143e-05
1.246029737e-05
1.061051042e-05
1.115333366e-05
1.25017448e-05
1.486089058e-05
1.704801034e-05
1.486080933e-05
1.25016957e-05
1.115331644e-05
1.12946916e-05
1.12946916e-05
1.12946916e-05
1.036571879e-05
1.061051538e-05
1.114528111e-05
1.191777679e-05
1.246046798e-05
1.191774428e-05
1.114525305e-05
1.061050546e-05
1.03657172e-05
)
;
    }
}


// ************************************************************************* //
