/*--------------------------------*- C++ -*----------------------------------*\
| =========                 |                                                 |
| \\      /  F ield         | OpenFOAM: The Open Source CFD Toolbox           |
|  \\    /   O peration     | Version:  4.x                                   |
|   \\  /    A nd           | Web:      www.OpenFOAM.org                      |
|    \\/     M anipulation  |                                                 |
\*---------------------------------------------------------------------------*/
FoamFile
{
    version     2.0;
    format      ascii;
    class       volScalarField;
    location    "4000";
    object      molarConc;
}
// * * * * * * * * * * * * * * * * * * * * * * * * * * * * * * * * * * * * * //

dimensions      [0 -3 0 0 1 0 0];

internalField   nonuniform List<scalar> 
1174
(
9.96325903
9.963255466
9.963248531
9.963242047
9.963233594
9.963224046
9.963213257
9.963201512
9.963190109
9.963177095
9.963165631
9.963153343
9.963143796
9.963135717
9.963267608
9.963260009
9.963251968
9.963241792
9.963230897
9.963218149
9.963205462
9.963193966
9.963181173
9.96316828
9.963157418
9.963147307
9.963136767
9.963129086
9.963268513
9.963257795
9.963245434
9.963229792
9.963215208
9.963200276
9.963186182
9.963169023
9.963155989
9.963144764
9.963133997
9.96312369
9.96311424
9.963107851
9.96325198
9.963235481
9.963216301
9.963195945
9.963177159
9.963159207
9.96314162
9.963127353
9.963113794
9.963101652
9.96309136
9.963084515
9.963077776
9.963072927
9.963250625
9.963232151
9.963211316
9.963191208
9.963168908
9.963149829
9.963133331
9.96311697
9.963104934
9.963094453
9.963086295
9.963078181
9.963071568
9.963066646
9.963237033
9.9632203
9.963202295
9.963183285
9.96316357
9.963145274
9.96312811
9.963113175
9.963100099
9.96308997
9.963080814
9.963072621
9.963065807
9.963061081
9.963291143
9.963280949
9.963267043
9.96325371
9.963237843
9.963223294
9.963206487
9.963192022
9.963179274
9.963166014
9.963154496
9.963144175
9.963134908
9.963128
9.963273921
9.963267148
9.963259647
9.963249455
9.963239151
9.963225642
9.963213181
9.963199214
9.963186877
9.963175396
9.963165117
9.963153782
9.963144565
9.963136303
9.963258349
9.963254544
9.963249094
9.963242516
9.963234513
9.963225266
9.963213408
9.963201066
9.963188705
9.963176011
9.963164288
9.963152914
9.963142051
9.963133109
9.96328136
9.963276556
9.963270633
9.963262792
9.963252458
9.96324057
9.963226236
9.963213551
9.963201893
9.963188404
9.963176809
9.963164048
9.963153321
9.963143789
9.963136602
9.963254284
9.96324463
9.963230928
9.963216874
9.963201613
9.963186353
9.963171875
9.963158358
9.963145465
9.963133535
9.963122974
9.963112682
9.963104399
9.963098524
9.963236993
9.963216677
9.963194982
9.963173868
9.963154648
9.963137026
9.96312027
9.963107133
9.963097169
9.963086901
9.963079748
9.963074138
9.963068823
9.96306509
9.963222965
9.963190004
9.963158322
9.963131214
9.963109923
9.963091976
9.963079705
9.963068997
9.963063179
9.963056201
9.963051653
9.963048472
9.963047784
9.963045632
9.963127731
9.963087766
9.963055642
9.963029964
9.963011489
9.962997504
9.962988661
9.962982952
9.962980486
9.962977034
9.962975917
9.962974679
9.962975404
9.96297688
9.963185296
9.963152476
9.963121073
9.963094213
9.963071502
9.963055968
9.963041757
9.963031322
9.963022318
9.963016655
9.963012917
9.963011557
9.963009686
9.96301017
9.96324939
9.963229544
9.963207041
9.963185667
9.963166522
9.963148281
9.963133524
9.963120042
9.963108665
9.963098895
9.963090903
9.963085925
9.963081421
9.96307768
9.963262027
9.96325146
9.963238068
9.963222109
9.963207198
9.963192743
9.963178443
9.963163964
9.963151069
9.963140136
9.96312886
9.963118279
9.963108852
9.963101514
9.963267125
9.963262028
9.963254146
9.963245028
9.963234123
9.963222072
9.963209312
9.963196319
9.963183663
9.963170961
9.963158416
9.96314727
9.963136886
9.963129395
9.96326378
9.963255662
9.9632444
9.963230968
9.963216047
9.963201029
9.96318555
9.963170125
9.963156476
9.963143829
9.963130881
9.96311901
9.963110093
9.9630999
9.96309437
9.963263964
9.963246757
9.963225188
9.963201902
9.963181019
9.963160229
9.963141721
9.963127143
9.963113669
9.963103031
9.96309357
9.963087578
9.963080922
9.963077119
9.963074459
9.963177388
9.963136136
9.963098069
9.963068669
9.963046622
9.963029586
9.963018207
9.963013229
9.963009854
9.96300933
9.96301014
9.963010837
9.963011476
9.963011841
9.96306857
9.962999605
9.96295326
9.962926427
9.962915552
9.962914564
9.962919583
9.96292644
9.962936429
9.96294579
9.962955701
9.962965225
9.962973331
9.962980102
9.962872808
9.962805147
9.962778617
9.962774585
9.962783713
9.962800242
9.962819612
9.962840523
9.962858678
9.962874267
9.962890882
9.962904923
9.962916394
9.962924807
9.963050877
9.962981389
9.96293489
9.962909959
9.96289849
9.96289616
9.962900621
9.962908605
9.962918187
9.962928817
9.962938215
9.962947581
9.962956472
9.962963072
9.963233254
9.963191266
9.963155033
9.963124056
9.963101375
9.963086078
9.963074348
9.963068536
9.963065438
9.963063722
9.963063537
9.963064777
9.96306606
9.96306621
9.963245941
9.963225315
9.963205208
9.963183716
9.963163256
9.963145388
9.963130901
9.963117348
9.963106762
9.963097041
9.96308987
9.963082812
9.963077336
9.963073239
9.963272886
9.963261716
9.963248432
9.963233059
9.963216966
9.963201149
9.963186318
9.963173
9.963159865
9.96314802
9.96313538
9.963125156
9.963117051
9.963111756
9.963292317
9.963278334
9.963262544
9.963243644
9.963224547
9.963205318
9.963186752
9.963169648
9.963153461
9.963140458
9.963128924
9.963119649
9.963110848
9.963103589
9.963100035
9.963186262
9.963155621
9.96312368
9.963092537
9.963065485
9.963044968
9.963028435
9.963013058
9.96300279
9.962997101
9.962992673
9.962988883
9.962986579
9.962984866
9.962983737
9.963128167
9.963043502
9.962972909
9.962927983
9.962900921
9.962890398
9.962887923
9.962892819
9.962902092
9.962912277
9.962922898
9.962933365
9.96294154
9.962950403
9.962955422
9.962587553
9.962503033
9.962493761
9.962522442
9.962566643
9.962616545
9.962665081
9.962708567
9.962746096
9.962780732
9.962809184
9.962833244
9.962853478
9.96286831
9.96190582
9.962024479
9.962197016
9.962359242
9.962495798
9.962605557
9.962693733
9.962763551
9.962820312
9.962867776
9.9629064
9.962938449
9.962965872
9.9629837
9.962667089
9.962583684
9.962571794
9.96260007
9.962644866
9.962693861
9.962741974
9.962785071
9.962823384
9.962855836
9.962884292
9.9629101
9.962930622
9.962944884
9.963028258
9.96295998
9.962912817
9.962886929
9.962874103
9.962872293
9.96287733
9.962885896
9.962896784
9.962907401
9.962917154
9.962925412
9.962934107
9.962941653
9.963229101
9.96319567
9.963164879
9.963136983
9.963114395
9.963096537
9.963082982
9.963072601
9.963062954
9.963057836
9.963054017
9.96305256
9.963051514
9.963050551
9.96323779
9.963220882
9.963202286
9.963183481
9.963164927
9.963147455
9.96312911
9.963114713
9.963099586
9.963088017
9.963077903
9.963069277
9.963060882
9.9630563
9.963253556
9.963236117
9.963216847
9.963194053
9.963173017
9.963153226
9.963134
9.963118137
9.963103392
9.963090915
9.963080113
9.963070451
9.963062864
9.963055787
9.963051866
9.963204618
9.963162463
9.963123519
9.963090736
9.963064023
9.963044589
9.963030816
9.963020888
9.963015939
9.963010594
9.963008986
9.963006405
9.963006874
9.963007094
9.963007695
9.963010466
9.962888412
9.96282347
9.962797096
9.962793926
9.962803866
9.962819271
9.962837576
9.962856059
9.962875217
9.962893556
9.962910106
9.962925178
9.962938813
9.962947371
9.962011781
9.961875495
9.961993017
9.962165312
9.962328608
9.96246425
9.96257509
9.962664173
9.962735124
9.962792215
9.962840009
9.962880199
9.962912989
9.962939352
9.962958844
10.02483606
10.02671788
10.0277806
10.02842286
10.02884199
10.02913524
10.02935663
10.029531
10.0296777
10.02980234
10.02991573
10.03001776
10.03011104
10.03019338
9.9618937
9.962011212
9.962183383
9.962345858
9.962481927
9.962593628
9.962682482
9.962753577
9.962811765
9.962858547
9.962898407
9.962931073
9.962957722
9.962975395
9.962894759
9.962826307
9.962799885
9.962796021
9.962805358
9.962822298
9.962841257
9.962861831
9.962879337
9.962897032
9.962913354
9.962926396
9.962939466
9.962948729
9.96319585
9.963156428
9.963122545
9.963097294
9.96307929
9.963066537
9.963056094
9.963050826
9.963046432
9.963045675
9.963043719
9.963044289
9.963044702
9.963043848
9.963237516
9.963218604
9.963198521
9.963177523
9.963157974
9.963138529
9.963122229
9.963109228
9.963094804
9.963084742
9.963077208
9.963070577
9.963064166
9.963061506
9.963233656
9.963222732
9.96320549
9.963186716
9.963167951
9.963148475
9.96312959
9.963112115
9.963098299
9.963085973
9.963074561
9.963064808
9.963057301
9.963050231
9.963044391
9.963261037
9.963229627
9.963195734
9.96316474
9.963140071
9.963119356
9.963102239
9.963088847
9.963077186
9.963071088
9.963066859
9.96306314
9.963060647
9.963058934
9.963057883
9.9631547
9.963070102
9.963000033
9.962952482
9.962925183
9.962913214
9.962911589
9.962916934
9.962924629
9.962933468
9.962944726
9.962955078
9.962967092
9.96297574
9.962981408
9.962803126
9.96261041
9.962527526
9.962518718
9.962547803
9.962593693
9.962642879
9.962688944
9.962732947
9.962770553
9.962804048
9.96283152
9.962859069
9.962878345
9.962894438
9.962002683
9.961864021
9.961980115
9.962152117
9.96231433
9.962450929
9.962560907
9.962648995
9.962721683
9.962780521
9.962826962
9.962865906
9.962898175
9.962926077
9.962944732
9.962773797
9.962579393
9.962496125
9.962485949
9.962514777
9.962559269
9.962608452
9.962655229
9.962697427
9.962735886
9.962768855
9.962798238
9.962820974
9.962840515
9.962854481
9.963041426
9.962970834
9.962924831
9.962898925
9.962888114
9.962885873
9.962890278
9.9628975
9.962907183
9.962917612
9.962926933
9.962936624
9.962944217
9.962952182
9.963201034
9.963168067
9.963137544
9.963111728
9.96308853
9.963072397
9.963059405
9.963049751
9.963043942
9.963038841
9.963034056
9.963031714
9.963030048
9.963028978
9.963258383
9.963241897
9.96322264
9.963201763
9.963183229
9.963165045
9.963148582
9.963133047
9.963119908
9.963109246
9.963099289
9.963091048
9.963083723
9.963080359
9.963294263
9.963286894
9.963276465
9.963263553
9.963248789
9.96323192
9.963217473
9.963202646
9.963187479
9.963174095
9.963161339
9.963151904
9.963141899
9.963133503
9.963127278
9.963241066
9.963223619
9.963202769
9.963180351
9.963159588
9.963139114
9.963121471
9.963107515
9.963094844
9.963084994
9.963076736
9.963070471
9.963064371
9.963058753
9.963053533
9.963274991
9.963234782
9.963192771
9.963155567
9.963124243
9.96310233
9.963085846
9.963076042
9.963070894
9.96306889
9.963067203
9.963066995
9.963068503
9.963070676
9.963072516
9.963125974
9.963039255
9.962969936
9.962925069
9.962898753
9.962886698
9.96288393
9.962889828
9.962898311
9.962907878
9.962918654
9.962927538
9.962937546
9.962945851
9.962951893
9.962975149
9.962853529
9.962786622
9.962758117
9.962753587
9.962763882
9.962780798
9.962800373
9.962819805
9.962838656
9.962856938
9.962874549
9.962890409
9.962903224
9.962912383
9.963160744
9.963076845
9.963006631
9.962959652
9.962932649
9.962922471
9.962921069
9.962927327
9.962935892
9.962945398
9.962954994
9.962966441
9.962977189
9.962986002
9.962992582
9.963227139
9.96318633
9.963143976
9.963104722
9.963075418
9.963054027
9.963038355
9.963027914
9.963021929
9.963018468
9.963016592
9.963016554
9.963016942
9.96301799
9.963019776
9.963222982
9.963201956
9.963180588
9.963158639
9.963137566
9.963118399
9.963102435
9.963089398
9.96307857
9.9630685
9.963061764
9.963055683
9.963050452
9.963046934
9.963254648
9.963243901
9.963230625
9.963215478
9.963200442
9.963183648
9.963168976
9.963153894
9.963139533
9.963127273
9.963115517
9.963106386
9.963097331
9.963090133
9.963290737
9.963285724
9.963280243
9.963273391
9.963264612
9.963253087
9.963240311
9.963228235
9.963215851
9.963201229
9.963188197
9.96317626
9.963165259
9.963154431
9.963147039
9.963290033
9.963281703
9.963269153
9.963256649
9.963240669
9.963225867
9.96320824
9.963194227
9.963181131
9.963168312
9.963156322
9.963145238
9.963134442
9.963125785
9.963120276
9.963217154
9.963200531
9.963180745
9.963159215
9.963138101
9.963119482
9.963102957
9.963087175
9.963072793
9.963060249
9.963050436
9.963042339
9.963036486
9.963029335
9.963026779
9.96321739
9.963186179
9.96315384
9.963121189
9.963094092
9.963072269
9.96305611
9.963043442
9.963033993
9.963027074
9.963023135
9.963018676
9.963016722
9.963014648
9.963015405
9.963203882
9.963161925
9.963122548
9.963089723
9.963063358
9.963043577
9.963029146
9.963018617
9.963011937
9.963009187
9.963007236
9.963005321
9.963003471
9.963003237
9.963002349
9.963218237
9.963186976
9.963154715
9.963124743
9.963098138
9.963077807
9.9630603
9.963047856
9.963037636
9.963029578
9.963023932
9.963019533
9.963018121
9.963017033
9.963014671
9.963296196
9.963279691
9.963259572
9.963237295
9.96321546
9.963195383
9.963178213
9.963162659
9.963149129
9.963137784
9.963128349
9.963121373
9.963115571
9.963110631
9.963106041
9.963290711
9.963281176
9.963269762
9.96325617
9.963241808
9.963227537
9.963212498
9.963197469
9.963185465
9.963172318
9.963160855
9.963150644
9.963140275
9.963131955
9.96312538
9.963276924
9.963272424
9.963264933
9.963255288
9.963243277
9.963230664
9.963218725
9.963205789
9.963194451
9.963182988
9.963170075
9.963159096
9.963150271
9.963142226
9.963296599
9.963292843
9.963288517
9.963282773
9.963275631
9.963267572
9.963258261
9.963247071
9.963233949
9.963222456
9.963210307
9.963198648
9.963187412
9.963176217
9.963168815
9.963262812
9.963257207
9.963251684
9.963243144
9.963234619
9.963222568
9.963209941
9.963197174
9.963184426
9.963169959
9.963158269
9.963147608
9.963137014
9.96312658
9.963118391
9.963249315
9.963242437
9.963229554
9.963217364
9.963203029
9.963186466
9.963170919
9.963156656
9.9631408
9.963128073
9.963116581
9.96310594
9.963097351
9.963088976
9.963083242
9.963243715
9.963231124
9.963214625
9.963196085
9.963176738
9.963157755
9.963138757
9.963121943
9.96310793
9.963094073
9.963082896
9.963074333
9.963065419
9.963058464
9.963053377
9.963270394
9.963253972
9.963235532
9.963212392
9.963190984
9.963171495
9.963152186
9.96313664
9.963121814
9.963109129
9.963099114
9.963089201
9.963081158
9.963076391
9.963071884
9.963280175
9.96326806
9.9632516
9.963231358
9.963211726
9.963192116
9.963174328
9.963158205
9.963143217
9.963129879
9.963118638
9.963109989
9.963100878
9.963093481
9.96308929
9.963312447
9.963304373
9.963292737
9.963279503
9.96326428
9.963249889
9.963234314
9.963218749
9.96320441
9.963192095
9.963178887
9.963168653
9.963159736
9.963152482
9.96314702
9.963273906
9.963268218
9.963262886
9.963255193
9.963245808
9.963234779
9.963222542
9.963210819
9.963197552
9.96318402
9.963171431
9.963159687
9.963147838
9.9631379
9.963130899
9.963264915
9.963262484
9.963258176
9.963251891
9.963244562
9.963236033
9.963226871
9.963215371
9.963204145
9.963192301
9.96318046
9.96316773
9.963156057
9.963145506
9.963136809
)
;

boundaryField
{
    top
    {
        type            calculated;
        value           nonuniform List<scalar> 
127
(
9.963264915
9.963258349
9.963267125
9.963272886
9.96323779
9.963237516
9.963258383
9.963254648
9.963276924
9.963262484
9.963254544
9.963262028
9.963261716
9.963220882
9.963218604
9.963241897
9.963243901
9.963272424
9.963258176
9.963249094
9.963254146
9.963248432
9.963202286
9.963198521
9.96322264
9.963230625
9.963264933
9.963251891
9.963242516
9.963245028
9.963233059
9.963183481
9.963177523
9.963201763
9.963215478
9.963255288
9.963244562
9.963234513
9.963234123
9.963216966
9.963164927
9.963157974
9.963183229
9.963200442
9.963243277
9.963236033
9.963225266
9.963222072
9.963201149
9.963147455
9.963138529
9.963165045
9.963183648
9.963230664
9.963226871
9.963213408
9.963209312
9.963186318
9.96312911
9.963122229
9.963148582
9.963168976
9.963218725
9.963215371
9.963201066
9.963196319
9.963173
9.963114713
9.963109228
9.963133047
9.963153894
9.963205789
9.963204145
9.963188705
9.963183663
9.963159865
9.963099586
9.963094804
9.963119908
9.963139533
9.963194451
9.963192301
9.963176011
9.963170961
9.96314802
9.963088017
9.963084742
9.963109246
9.963127273
9.963182988
9.96318046
9.963164288
9.963158416
9.96313538
9.963077903
9.963077208
9.963099289
9.963115517
9.963170075
9.96316773
9.963152914
9.96314727
9.963125156
9.963069277
9.963070577
9.963091048
9.963106386
9.963159096
9.963156057
9.963142051
9.963136886
9.963117051
9.963060882
9.963064166
9.963083723
9.963097331
9.963150271
9.963145506
9.963133109
9.963129395
9.963111756
9.9630563
9.963061506
9.963080359
9.963090133
9.963142226
9.963136809
)
;
    }
    bottom
    {
        type            calculated;
        value           nonuniform List<scalar> 
134
(
9.96328136
9.96326378
9.963292317
9.963253556
9.963233656
9.963294263
9.963290737
9.963296599
9.96325903
9.963276556
9.963255662
9.963278334
9.963236117
9.963222732
9.963286894
9.963285724
9.963292843
9.963255466
9.963270633
9.9632444
9.963262544
9.963216847
9.96320549
9.963276465
9.963280243
9.963288517
9.963248531
9.963262792
9.963230968
9.963243644
9.963194053
9.963186716
9.963263553
9.963273391
9.963282773
9.963242047
9.963252458
9.963216047
9.963224547
9.963173017
9.963167951
9.963248789
9.963264612
9.963275631
9.963233594
9.96324057
9.963201029
9.963205318
9.963153226
9.963148475
9.96323192
9.963253087
9.963267572
9.963224046
9.963226236
9.96318555
9.963186752
9.963134
9.96312959
9.963217473
9.963240311
9.963258261
9.963213257
9.963213551
9.963170125
9.963169648
9.963118137
9.963112115
9.963202646
9.963228235
9.963247071
9.963201512
9.963201893
9.963156476
9.963153461
9.963103392
9.963098299
9.963187479
9.963215851
9.963233949
9.963190109
9.963188404
9.963143829
9.963140458
9.963090915
9.963085973
9.963174095
9.963201229
9.963222456
9.963177095
9.963176809
9.963130881
9.963128924
9.963080113
9.963074561
9.963161339
9.963188197
9.963210307
9.963165631
9.963164048
9.96311901
9.963119649
9.963070451
9.963064808
9.963151904
9.96317626
9.963198648
9.963153343
9.963153321
9.963110093
9.963110848
9.963062864
9.963057301
9.963141899
9.963165259
9.963187412
9.963143796
9.963143789
9.9630999
9.963103589
9.963055787
9.963050231
9.963133503
9.963154431
9.963176217
9.963135717
9.963136602
9.96309437
9.963100035
9.963051866
9.963044391
9.963127278
9.963147039
9.963168815
)
;
    }
    side-walls
    {
        type            calculated;
        value           nonuniform List<scalar> 
261
(
9.96325903
9.963267608
9.963268513
9.96325198
9.963250625
9.963237033
9.963291143
9.963273921
9.963258349
9.963255466
9.963260009
9.963257795
9.963235481
9.963232151
9.9632203
9.963280949
9.963267148
9.963254544
9.963248531
9.963251968
9.963245434
9.963216301
9.963211316
9.963202295
9.963267043
9.963259647
9.963249094
9.963242047
9.963241792
9.963229792
9.963195945
9.963191208
9.963183285
9.96325371
9.963249455
9.963242516
9.963233594
9.963230897
9.963215208
9.963177159
9.963168908
9.96316357
9.963237843
9.963239151
9.963234513
9.963224046
9.963218149
9.963200276
9.963159207
9.963149829
9.963145274
9.963223294
9.963225642
9.963225266
9.963213257
9.963205462
9.963186182
9.96314162
9.963133331
9.96312811
9.963206487
9.963213181
9.963213408
9.963201512
9.963193966
9.963169023
9.963127353
9.96311697
9.963113175
9.963192022
9.963199214
9.963201066
9.963190109
9.963181173
9.963155989
9.963113794
9.963104934
9.963100099
9.963179274
9.963186877
9.963188705
9.963177095
9.96316828
9.963144764
9.963101652
9.963094453
9.96308997
9.963166014
9.963175396
9.963176011
9.963165631
9.963157418
9.963133997
9.96309136
9.963086295
9.963080814
9.963154496
9.963165117
9.963164288
9.963153343
9.963147307
9.96312369
9.963084515
9.963078181
9.963072621
9.963144175
9.963153782
9.963152914
9.963143796
9.963136767
9.96311424
9.963077776
9.963071568
9.963065807
9.963134908
9.963144565
9.963142051
9.963135717
9.963129086
9.963107851
9.963072927
9.963066646
9.963061081
9.963128
9.963136303
9.963133109
9.963296599
9.963262812
9.963249315
9.963243715
9.963270394
9.963280175
9.963312447
9.963273906
9.963264915
9.963292843
9.963257207
9.963242437
9.963231124
9.963253972
9.96326806
9.963304373
9.963268218
9.963262484
9.963288517
9.963251684
9.963229554
9.963214625
9.963235532
9.9632516
9.963292737
9.963262886
9.963258176
9.963282773
9.963243144
9.963217364
9.963196085
9.963212392
9.963231358
9.963279503
9.963255193
9.963251891
9.963275631
9.963234619
9.963203029
9.963176738
9.963190984
9.963211726
9.96326428
9.963245808
9.963244562
9.963267572
9.963222568
9.963186466
9.963157755
9.963171495
9.963192116
9.963249889
9.963234779
9.963236033
9.963258261
9.963209941
9.963170919
9.963138757
9.963152186
9.963174328
9.963234314
9.963222542
9.963226871
9.963247071
9.963197174
9.963156656
9.963121943
9.96313664
9.963158205
9.963218749
9.963210819
9.963215371
9.963233949
9.963184426
9.9631408
9.96310793
9.963121814
9.963143217
9.96320441
9.963197552
9.963204145
9.963222456
9.963169959
9.963128073
9.963094073
9.963109129
9.963129879
9.963192095
9.96318402
9.963192301
9.963210307
9.963158269
9.963116581
9.963082896
9.963099114
9.963118638
9.963178887
9.963171431
9.96318046
9.963198648
9.963147608
9.96310594
9.963074333
9.963089201
9.963109989
9.963168653
9.963159687
9.96316773
9.963187412
9.963137014
9.963097351
9.963065419
9.963081158
9.963100878
9.963159736
9.963147838
9.963156057
9.963176217
9.96312658
9.963088976
9.963058464
9.963076391
9.963093481
9.963152482
9.9631379
9.963145506
9.963168815
9.963118391
9.963083242
9.963053377
9.963071884
9.96308929
9.96314702
9.963130899
9.963136809
)
;
    }
    inlet
    {
        type            calculated;
        value           nonuniform 0();
    }
    outlet
    {
        type            calculated;
        value           nonuniform List<scalar> 
81
(
9.963135717
9.963129086
9.963107851
9.963072927
9.963066646
9.963061081
9.963128
9.963136303
9.963133109
9.963136602
9.963098524
9.96306509
9.963045632
9.96297688
9.96301017
9.96307768
9.963101514
9.963129395
9.96309437
9.963074459
9.963011841
9.962980102
9.962924807
9.962963072
9.96306621
9.963073239
9.963111756
9.963100035
9.962983737
9.962955422
9.96286831
9.9629837
9.962944884
9.962941653
9.963050551
9.9630563
9.963051866
9.963007695
9.962947371
9.962958844
10.03019338
9.962975395
9.962948729
9.963043848
9.963061506
9.963044391
9.963057883
9.962981408
9.962894438
9.962944732
9.962854481
9.962952182
9.963028978
9.963080359
9.963127278
9.963053533
9.963072516
9.962951893
9.962912383
9.962992582
9.963019776
9.963046934
9.963090133
9.963147039
9.963120276
9.963026779
9.963015405
9.963002349
9.963014671
9.963106041
9.96312538
9.963142226
9.963168815
9.963118391
9.963083242
9.963053377
9.963071884
9.96308929
9.96314702
9.963130899
9.963136809
)
;
    }
    procBoundary1to0
    {
        type            processor;
        value           nonuniform List<scalar> 
97
(
9.963261434
9.963261434
9.963270025
9.963275052
9.96326403
9.96326821
9.963249285
9.96329873
9.963277799
9.963259931
9.963283395
9.963262453
9.963262453
9.963262453
9.963253838
9.963251982
9.96316895
9.963216136
9.963266063
9.96327061
9.963272674
9.963268105
9.963275579
9.963216743
9.963216743
9.963216743
9.963154827
9.962995753
9.963135097
9.963275228
9.963261665
9.963281694
9.963300003
9.963209678
9.963209259
9.962780838
9.962780838
9.962780838
9.962044029
9.962860936
9.963113749
9.963258018
9.963249924
9.963263625
9.963240343
9.963175845
9.962910346
10.02133287
10.02133287
10.02133287
9.962031374
9.962031374
9.963016912
9.96323926
9.963253316
9.963241565
9.963283554
9.963234685
9.963095871
9.962902798
9.96306736
9.963125669
9.963125669
9.963125669
9.963231681
9.963270821
9.963300128
9.963251227
9.96330448
9.963206103
9.963142533
9.963239098
9.963256582
9.963239289
9.963239289
9.963239289
9.9632625
9.963293202
9.963293547
9.96322827
9.963239824
9.963239482
9.963242678
9.963304547
9.96329622
9.963281696
9.963281696
9.963281696
9.963298461
9.963263789
9.963254525
9.963252498
9.96328218
9.963289778
9.963317593
9.963275616
9.96326632
)
;
    }
}


// ************************************************************************* //
