/*--------------------------------*- C++ -*----------------------------------*\
| =========                 |                                                 |
| \\      /  F ield         | OpenFOAM: The Open Source CFD Toolbox           |
|  \\    /   O peration     | Version:  4.x                                   |
|   \\  /    A nd           | Web:      www.OpenFOAM.org                      |
|    \\/     M anipulation  |                                                 |
\*---------------------------------------------------------------------------*/
FoamFile
{
    version     2.0;
    format      ascii;
    class       volScalarField;
    location    "4000";
    object      N2;
}
// * * * * * * * * * * * * * * * * * * * * * * * * * * * * * * * * * * * * * //

dimensions      [0 0 0 0 0 0 0];

internalField   nonuniform List<scalar> 
1174
(
0.6203615463
0.6203603233
0.6203586145
0.6203564074
0.6203537336
0.6203506587
0.6203472694
0.6203436612
0.6203399282
0.6203361575
0.6203324279
0.6203288221
0.6203254868
0.6203228875
0.6203604218
0.6203584966
0.6203559589
0.6203528768
0.6203493636
0.620345551
0.6203415692
0.6203375343
0.6203335418
0.6203296665
0.6203259658
0.6203224951
0.6203193635
0.6203169644
0.6203579654
0.6203546233
0.6203505305
0.6203459273
0.620341065
0.6203361635
0.6203313923
0.6203268685
0.620322663
0.6203188116
0.6203153263
0.6203122129
0.6203095181
0.6203075141
0.6203544171
0.6203492964
0.620343477
0.6203373902
0.6203313859
0.6203257083
0.6203205036
0.6203158415
0.6203117373
0.6203081714
0.6203051054
0.6203024982
0.6203003406
0.62029879
0.6203519244
0.6203458456
0.6203392756
0.6203326786
0.6203263823
0.620320589
0.6203154024
0.6203108556
0.6203069347
0.6203035978
0.620300789
0.6202984524
0.62029656
0.6202952235
0.6203544172
0.6203492965
0.6203434772
0.6203373904
0.6203313862
0.6203257085
0.6203205039
0.6203158419
0.6203117377
0.6203081719
0.6203051059
0.6203024988
0.6203003412
0.6202987907
0.6203579655
0.6203546235
0.6203505307
0.6203459275
0.6203410653
0.6203361639
0.6203313928
0.6203268691
0.6203226637
0.6203188124
0.6203153272
0.6203122139
0.6203095191
0.6203075152
0.6203604219
0.6203584967
0.620355959
0.6203528771
0.6203493639
0.6203455513
0.6203415697
0.6203375348
0.6203335425
0.6203296673
0.6203259667
0.6203224962
0.6203193647
0.6203169656
0.6203615464
0.6203603234
0.6203586146
0.6203564076
0.6203537338
0.620350659
0.6203472698
0.6203436617
0.6203399289
0.6203361583
0.6203324288
0.6203288231
0.620325488
0.6203228889
0.6203617363
0.6203604218
0.6203584966
0.6203559589
0.6203528769
0.6203493637
0.620345551
0.6203415693
0.6203375343
0.6203335419
0.6203296665
0.6203259658
0.6203224952
0.6203193636
0.6203169644
0.6203579283
0.6203546171
0.6203506198
0.6203461838
0.6203415502
0.6203369167
0.6203324267
0.6203281729
0.6203242074
0.6203205535
0.6203172174
0.6203142045
0.6203115666
0.6203095865
0.6203517344
0.6203454304
0.6203386525
0.6203319733
0.6203257712
0.6203202417
0.6203154448
0.6203113566
0.6203079089
0.6203050168
0.6203025958
0.6203005742
0.6202989182
0.6202977331
0.6203408981
0.6203305894
0.6203209016
0.6203125335
0.6203057017
0.6203003404
0.6202962536
0.6202932089
0.6202909847
0.6202893899
0.6202882693
0.6202875009
0.6202869929
0.620286694
0.6203308518
0.6203185764
0.6203082931
0.6203002257
0.6202941702
0.6202897812
0.6202867041
0.620284627
0.620283295
0.6202825076
0.6202821106
0.6202819853
0.6202820336
0.6202821492
0.6203408983
0.6203305898
0.620320902
0.620312534
0.6203057022
0.6203003409
0.6202962542
0.6202932096
0.6202909854
0.6202893907
0.6202882701
0.6202875016
0.6202869937
0.6202866948
0.6203517348
0.6203454308
0.620338653
0.6203319738
0.6203257718
0.6203202424
0.6203154457
0.6203113575
0.6203079099
0.6203050179
0.620302597
0.6203005754
0.6202989195
0.6202977344
0.6203579285
0.6203546173
0.6203506201
0.6203461842
0.6203415507
0.6203369173
0.6203324274
0.6203281737
0.6203242084
0.6203205546
0.6203172186
0.6203142059
0.6203115681
0.6203095881
0.6203604219
0.6203584967
0.620355959
0.6203528771
0.620349364
0.6203455514
0.6203415698
0.620337535
0.6203335428
0.6203296675
0.620325967
0.6203224965
0.6203193651
0.6203169661
0.6203603958
0.6203579655
0.6203546235
0.6203505307
0.6203459274
0.6203410651
0.6203361636
0.6203313925
0.6203268686
0.6203226632
0.6203188118
0.6203153264
0.6203122131
0.6203095182
0.6203075142
0.6203568854
0.6203517346
0.6203454305
0.6203386526
0.6203319734
0.6203257713
0.6203202418
0.6203154449
0.6203113567
0.620307909
0.6203050169
0.6203025959
0.6203005743
0.6202989183
0.6202977332
0.6203337282
0.6203207284
0.6203091189
0.620299734
0.6202926956
0.6202877445
0.620284478
0.6202824856
0.6202814105
0.620280968
0.6202809428
0.6202811754
0.620281539
0.6202818867
0.6202943279
0.6202728492
0.6202583447
0.6202500393
0.6202463766
0.6202458473
0.6202472616
0.6202497739
0.6202528209
0.6202560452
0.6202592285
0.6202622331
0.6202649265
0.6202669703
0.6202436179
0.6202227394
0.6202142049
0.62021318
0.620216283
0.6202214203
0.6202273708
0.6202334525
0.6202393019
0.6202447397
0.620249688
0.6202541118
0.6202579358
0.6202607743
0.6202943293
0.6202728505
0.620258346
0.6202500406
0.620246378
0.6202458487
0.6202472629
0.6202497752
0.6202528221
0.6202560464
0.6202592296
0.6202622342
0.6202649276
0.6202669714
0.6203337293
0.6203207294
0.62030912
0.6202997352
0.620292697
0.6202877459
0.6202844795
0.6202824872
0.6202814122
0.6202809697
0.6202809446
0.6202811772
0.6202815408
0.6202818885
0.6203517348
0.6203454308
0.6203386531
0.620331974
0.6203257722
0.6203202428
0.6203154462
0.6203113581
0.6203079105
0.6203050186
0.6203025977
0.6203005761
0.6202989203
0.6202977352
0.6203579655
0.6203546235
0.6203505308
0.6203459277
0.6203410656
0.6203361643
0.6203313933
0.6203268697
0.6203226645
0.6203188133
0.6203153281
0.6203122149
0.6203095202
0.6203075164
0.6203584113
0.6203544173
0.6203492967
0.6203434773
0.6203373905
0.6203313862
0.6203257085
0.6203205039
0.6203158418
0.6203117376
0.6203081717
0.6203051057
0.6203024985
0.6203003409
0.6202987903
0.6203504988
0.6203408984
0.6203305898
0.6203209019
0.6203125338
0.620305702
0.6203003406
0.6202962539
0.6202932092
0.6202909849
0.6202893902
0.6202882696
0.6202875011
0.6202869931
0.6202866942
0.6203209992
0.6202943285
0.6202728497
0.6202583452
0.6202500397
0.620246377
0.6202458477
0.6202472619
0.6202497742
0.6202528211
0.6202560454
0.6202592286
0.6202622332
0.6202649267
0.6202669705
0.6201612031
0.6201354209
0.6201322563
0.620141037
0.6201549366
0.6201701872
0.620184929
0.6201983665
0.6202102533
0.6202206046
0.6202295418
0.620237199
0.6202436009
0.620248247
0.619904409
0.6199408062
0.6199941816
0.6200445903
0.6200870405
0.6201214527
0.62014908
0.6201713122
0.6201893349
0.6202040759
0.6202162346
0.6202263084
0.6202345303
0.6202404071
0.6201612082
0.6201354245
0.6201322594
0.6201410397
0.6201549391
0.6201701895
0.6201849311
0.6201983684
0.6202102551
0.6202206062
0.6202295433
0.6202372004
0.6202436023
0.6202482484
0.6202943292
0.6202728508
0.6202583468
0.6202500417
0.6202463792
0.6202458501
0.6202472644
0.6202497767
0.6202528236
0.6202560479
0.620259231
0.6202622356
0.620264929
0.6202669727
0.6203408983
0.62033059
0.6203209026
0.6203125348
0.6203057034
0.6203003423
0.6202962557
0.6202932112
0.6202909871
0.6202893924
0.6202882719
0.6202875035
0.6202869956
0.6202866968
0.6203544172
0.6203492966
0.6203434774
0.6203373909
0.6203313869
0.6203257095
0.6203205051
0.6203158433
0.6203117393
0.6203081737
0.6203051079
0.6203025008
0.6203003433
0.6202987929
0.620356947
0.6203519247
0.620345846
0.620339276
0.620332679
0.6203263828
0.6203205895
0.6203154029
0.620310856
0.6203069351
0.6203035982
0.6203007894
0.6202984528
0.6202965603
0.6202952239
0.6203439496
0.6203308523
0.620318577
0.6203082937
0.6203002263
0.6202941708
0.6202897818
0.6202867047
0.6202846275
0.6202832955
0.6202825081
0.620282111
0.6202819857
0.620282034
0.6202821495
0.6202816126
0.6202436188
0.6202227406
0.620214206
0.6202131809
0.6202162838
0.620221421
0.6202273714
0.620233453
0.6202393024
0.6202447401
0.6202496884
0.6202541122
0.6202579361
0.6202607746
0.6199472067
0.6199044125
0.6199408086
0.6199941833
0.6200445915
0.6200870414
0.6201214535
0.6201490806
0.6201713128
0.6201893353
0.6202040763
0.620216235
0.6202263087
0.6202345306
0.6202404073
0.6188116521
0.6193759052
0.6196862247
0.6198669504
0.6199784815
0.6200512709
0.620101279
0.6201372168
0.6201640417
0.6201846947
0.6202009879
0.6202140513
0.6202244654
0.6202318021
0.6199044088
0.6199408107
0.6199941869
0.6200445952
0.6200870449
0.6201214565
0.6201490833
0.6201713152
0.6201893375
0.6202040783
0.6202162368
0.6202263104
0.6202345322
0.6202404089
0.6202436177
0.6202227412
0.6202142078
0.6202131834
0.6202162867
0.620221424
0.6202273745
0.6202334561
0.6202393054
0.6202447429
0.6202496911
0.6202541148
0.6202579386
0.6202607771
0.6203308518
0.620318577
0.6203082943
0.6203002274
0.6202941724
0.6202897837
0.6202867068
0.6202846299
0.620283298
0.6202825107
0.6202821137
0.6202819884
0.6202820368
0.6202821523
0.6203519244
0.6203458458
0.6203392761
0.6203326795
0.6203263835
0.6203205906
0.6203154043
0.6203108577
0.6203069371
0.6203036004
0.6203007919
0.6202984554
0.6202965631
0.6202952268
0.6203584113
0.6203544174
0.6203492969
0.6203434775
0.6203373908
0.6203313866
0.620325709
0.6203205044
0.6203158423
0.6203117382
0.6203081724
0.6203051064
0.6203024992
0.6203003416
0.6202987911
0.6203504991
0.6203408989
0.6203305904
0.6203209027
0.6203125347
0.6203057029
0.6203003416
0.6202962549
0.6202932102
0.620290986
0.6202893912
0.6202882706
0.6202875022
0.6202869942
0.6202866953
0.6203210011
0.6202943304
0.6202728517
0.6202583472
0.6202500417
0.6202463789
0.6202458495
0.6202472637
0.6202497759
0.6202528228
0.620256047
0.6202592302
0.6202622347
0.6202649281
0.6202669719
0.6202215072
0.620161211
0.6201354269
0.6201322614
0.6201410414
0.6201549404
0.6201701907
0.6201849322
0.6201983693
0.6202102559
0.6202206069
0.6202295439
0.6202372009
0.6202436027
0.6202482488
0.6199472077
0.619904414
0.6199408141
0.6199941892
0.6200445969
0.6200870461
0.6201214576
0.6201490842
0.6201713159
0.6201893381
0.6202040788
0.6202162372
0.6202263108
0.6202345325
0.6202404092
0.620221506
0.6201612113
0.6201354284
0.6201322636
0.6201410439
0.620154943
0.6201701932
0.6201849345
0.6201983716
0.620210258
0.6202206088
0.6202295457
0.6202372027
0.6202436044
0.6202482504
0.6202943278
0.620272851
0.6202583479
0.6202500432
0.620246381
0.620245852
0.6202472663
0.6202497786
0.6202528255
0.6202560497
0.6202592328
0.6202622373
0.6202649306
0.6202669743
0.6203408979
0.6203305899
0.6203209027
0.6203125353
0.620305704
0.6203003431
0.6202962567
0.6202932123
0.6202909882
0.6202893936
0.6202882731
0.6202875047
0.6202869968
0.620286698
0.620354417
0.6203492966
0.6203434775
0.6203373911
0.6203313872
0.6203257099
0.6203205057
0.6203158439
0.6203117401
0.6203081745
0.6203051088
0.6203025018
0.6203003443
0.620298794
0.6203603958
0.6203579657
0.6203546237
0.620350531
0.6203459279
0.6203410657
0.6203361643
0.6203313932
0.6203268695
0.6203226642
0.6203188129
0.6203153276
0.6203122143
0.6203095195
0.6203075156
0.6203568858
0.6203517351
0.6203454312
0.6203386534
0.6203319743
0.6203257724
0.620320243
0.6203154463
0.6203113581
0.6203079104
0.6203050185
0.6203025975
0.6203005759
0.62029892
0.6202977349
0.6203462952
0.62033373
0.6203207302
0.6203091209
0.6202997361
0.6202926978
0.6202877467
0.6202844803
0.620282488
0.6202814128
0.6202809704
0.6202809452
0.6202811777
0.6202815413
0.620281889
0.620321001
0.6202943307
0.6202728524
0.6202583483
0.620250043
0.6202463804
0.6202458511
0.6202472653
0.6202497775
0.6202528243
0.6202560485
0.6202592317
0.6202622361
0.6202649295
0.6202669732
0.6202816126
0.6202436203
0.6202227434
0.6202142096
0.6202131849
0.620216288
0.6202214251
0.6202273754
0.6202334568
0.620239306
0.6202447436
0.6202496917
0.6202541153
0.6202579391
0.6202607775
0.6203210012
0.6202943311
0.6202728531
0.6202583493
0.6202500442
0.6202463818
0.6202458526
0.6202472668
0.620249779
0.6202528258
0.62025605
0.620259233
0.6202622375
0.6202649308
0.6202669745
0.6203462945
0.6203337295
0.6203207301
0.6203091212
0.6202997368
0.620292699
0.6202877482
0.620284482
0.6202824898
0.6202814148
0.6202809724
0.6202809472
0.6202811798
0.6202815434
0.6202818911
0.6203517344
0.6203454308
0.6203386533
0.6203319746
0.620325773
0.6203202439
0.6203154475
0.6203113596
0.6203079121
0.6203050203
0.6203025995
0.6203005781
0.6202989222
0.6202977373
0.6203579653
0.6203546234
0.6203505309
0.6203459279
0.620341066
0.6203361649
0.6203313941
0.6203268706
0.6203226656
0.6203188145
0.6203153295
0.6203122164
0.6203095218
0.6203075181
0.6203617364
0.620360422
0.6203584968
0.6203559592
0.6203528773
0.6203493642
0.6203455517
0.62034157
0.6203375352
0.6203335429
0.6203296677
0.6203259671
0.6203224966
0.6203193651
0.6203169661
0.6203603681
0.6203579287
0.6203546175
0.6203506203
0.6203461845
0.620341551
0.6203369177
0.6203324278
0.6203281742
0.6203242088
0.6203205551
0.6203172191
0.6203142064
0.6203115686
0.6203095886
0.6203568858
0.6203517351
0.6203454312
0.6203386535
0.6203319745
0.6203257727
0.6203202434
0.6203154467
0.6203113586
0.6203079111
0.6203050191
0.6203025982
0.6203005767
0.6202989208
0.6202977357
0.6203504991
0.620340899
0.6203305908
0.6203209033
0.6203125356
0.6203057041
0.620300343
0.6202962565
0.6202932119
0.6202909878
0.6202893931
0.6202882725
0.6202875041
0.6202869961
0.6202866973
0.6203439496
0.6203308528
0.620318578
0.6203082953
0.6203002284
0.6202941733
0.6202897845
0.6202867076
0.6202846306
0.6202832986
0.6202825112
0.6202821143
0.6202819889
0.6202820372
0.6202821528
0.6203504992
0.6203408991
0.620330591
0.6203209038
0.6203125361
0.6203057048
0.6203003438
0.6202962573
0.6202932128
0.6202909887
0.6202893941
0.6202882735
0.6202875051
0.6202869971
0.6202866983
0.6203568858
0.6203517351
0.6203454313
0.6203386538
0.620331975
0.6203257734
0.6203202443
0.6203154478
0.6203113599
0.6203079124
0.6203050206
0.6203025997
0.6203005783
0.6202989224
0.6202977374
0.620360368
0.6203579285
0.6203546174
0.6203506204
0.6203461847
0.6203415514
0.6203369183
0.6203324287
0.6203281752
0.62032421
0.6203205565
0.6203172206
0.6203142081
0.6203115704
0.6203095905
0.6203604218
0.6203584967
0.6203559591
0.6203528773
0.6203493644
0.620345552
0.6203415706
0.620337536
0.620333544
0.620329669
0.6203259686
0.6203224983
0.620319367
0.6203169682
0.620362342
0.6203615464
0.6203603235
0.6203586147
0.6203564077
0.620353734
0.6203506592
0.6203472701
0.620343662
0.6203399292
0.6203361587
0.6203324292
0.6203288236
0.6203254884
0.6203228893
0.6203617364
0.620360422
0.6203584968
0.6203559592
0.6203528773
0.6203493642
0.6203455517
0.6203415701
0.6203375354
0.6203335431
0.620329668
0.6203259674
0.620322497
0.6203193655
0.6203169666
0.6203603958
0.6203579657
0.6203546237
0.6203505311
0.620345928
0.620341066
0.6203361647
0.6203313938
0.6203268701
0.6203226649
0.6203188137
0.6203153286
0.6203122154
0.6203095207
0.6203075169
0.6203584113
0.6203544174
0.620349297
0.6203434779
0.6203373914
0.6203313874
0.6203257101
0.6203205057
0.6203158439
0.6203117399
0.6203081742
0.6203051084
0.6203025014
0.6203003439
0.6202987934
0.620356947
0.6203519248
0.6203458464
0.6203392767
0.6203326801
0.6203263842
0.6203205913
0.620315405
0.6203108584
0.6203069377
0.620303601
0.6203007924
0.620298456
0.6202965636
0.6202952273
0.6203584114
0.6203544175
0.6203492972
0.6203434781
0.6203373917
0.6203313878
0.6203257106
0.6203205062
0.6203158445
0.6203117406
0.620308175
0.6203051092
0.6203025022
0.6203003447
0.6202987944
0.6203603958
0.6203579657
0.6203546238
0.6203505313
0.6203459284
0.6203410664
0.6203361653
0.6203313945
0.620326871
0.620322666
0.6203188149
0.6203153298
0.6203122167
0.6203095221
0.6203075184
0.6203617364
0.620360422
0.6203584968
0.6203559593
0.6203528775
0.6203493645
0.6203455522
0.6203415707
0.6203375362
0.6203335441
0.6203296691
0.6203259687
0.6203224984
0.6203193671
0.6203169683
0.620362342
0.6203615464
0.6203603234
0.6203586147
0.6203564078
0.6203537342
0.6203506595
0.6203472705
0.6203436626
0.62033993
0.6203361597
0.6203324304
0.620328825
0.6203254901
0.6203228912
)
;

boundaryField
{
    top
    {
        type            zeroGradient;
    }
    bottom
    {
        type            zeroGradient;
    }
    side-walls
    {
        type            zeroGradient;
    }
    inlet
    {
        type            zeroGradient;
    }
    outlet
    {
        type            zeroGradient;
    }
    procBoundary1to0
    {
        type            processor;
        value           nonuniform List<scalar> 
97
(
0.620362342
0.620362342
0.6203617364
0.6203603959
0.6203584115
0.6203569473
0.6203584116
0.620360396
0.6203617365
0.6203623421
0.6203625233
0.620360368
0.620360368
0.620360368
0.6203568858
0.6203504995
0.6203439506
0.6203504997
0.6203568861
0.6203603682
0.6203617365
0.6203619083
0.6203603484
0.6203462945
0.6203462945
0.6203462945
0.6203210019
0.6202816176
0.6203210034
0.6203462961
0.6203568861
0.620360396
0.6203610199
0.6203576357
0.6203459797
0.6202215049
0.6202215049
0.6202215049
0.6199472385
0.6202215155
0.6203210033
0.6203504997
0.6203584115
0.6203603959
0.6203551209
0.6203332903
0.6202484628
0.6177262549
0.6177262549
0.6177262549
0.6199472364
0.6199472364
0.6202816171
0.6203439505
0.6203569473
0.6203610199
0.6203576357
0.6203459795
0.6203126706
0.6202484614
0.6203126715
0.6203209998
0.6203209998
0.6203209998
0.6203504992
0.6203584114
0.6203619083
0.6203603484
0.6203558411
0.6203459794
0.62033329
0.6203459796
0.6203558412
0.6203568855
0.6203568855
0.6203568855
0.6203603958
0.6203625233
0.620361899
0.6203603484
0.6203576357
0.6203551209
0.6203576357
0.6203603484
0.620361899
0.6203617363
0.6203617363
0.6203617363
0.6203628048
0.6203625233
0.6203619083
0.6203610199
0.6203603959
0.6203610199
0.6203619083
0.6203625233
0.6203628048
)
;
    }
}


// ************************************************************************* //
