/*--------------------------------*- C++ -*----------------------------------*\
| =========                 |                                                 |
| \\      /  F ield         | OpenFOAM: The Open Source CFD Toolbox           |
|  \\    /   O peration     | Version:  4.x                                   |
|   \\  /    A nd           | Web:      www.OpenFOAM.org                      |
|    \\/     M anipulation  |                                                 |
\*---------------------------------------------------------------------------*/
FoamFile
{
    version     2.0;
    format      ascii;
    class       volScalarField;
    location    "4000";
    object      rho;
}
// * * * * * * * * * * * * * * * * * * * * * * * * * * * * * * * * * * * * * //

dimensions      [1 -3 0 0 0 0 0];

internalField   nonuniform List<scalar> 
1174
(
0.2699633358
0.2699637396
0.2699643067
0.2699651099
0.2699660221
0.2699671167
0.2699682926
0.2699695407
0.269970869
0.2699721444
0.2699734477
0.2699746794
0.2699758659
0.2699767809
0.2699640257
0.2699646994
0.2699655462
0.2699666263
0.2699678765
0.2699691784
0.2699705798
0.2699720001
0.2699733813
0.2699747259
0.2699760223
0.269977233
0.2699783448
0.2699791816
0.2699651288
0.2699662952
0.269967728
0.2699693296
0.2699710345
0.2699727661
0.2699744723
0.2699760026
0.2699774575
0.2699788165
0.2699800305
0.2699810834
0.269982029
0.269982725
0.2699662212
0.2699680223
0.2699700229
0.269972148
0.2699742316
0.2699762143
0.2699780017
0.2699796209
0.2699810558
0.2699822948
0.2699833325
0.2699842756
0.2699850606
0.2699855661
0.2699672927
0.26996939
0.2699717292
0.2699740333
0.269976179
0.2699781828
0.269979958
0.2699815251
0.2699829009
0.2699840435
0.2699850739
0.2699858526
0.2699865115
0.2699869764
0.2699658316
0.2699676234
0.2699696589
0.2699717951
0.2699738748
0.2699758251
0.2699776289
0.2699792567
0.2699806683
0.2699819251
0.2699830243
0.2699839706
0.2699847043
0.2699852439
0.2699657391
0.2699669372
0.269968333
0.2699699638
0.2699716366
0.2699733848
0.2699750031
0.2699765811
0.2699780573
0.2699793892
0.2699806206
0.2699816763
0.2699825985
0.2699832811
0.2699642067
0.2699648642
0.2699657489
0.2699668295
0.2699680605
0.2699693532
0.269970761
0.2699721374
0.2699735597
0.269974931
0.2699762268
0.2699774549
0.2699785305
0.2699794003
0.2699633023
0.2699637418
0.269964323
0.2699651077
0.2699660389
0.2699671351
0.2699682843
0.2699695223
0.2699708084
0.269972104
0.2699734284
0.2699746884
0.2699758368
0.2699767428
0.2699638264
0.269964269
0.2699649255
0.2699658622
0.2699669083
0.2699681193
0.2699693881
0.2699707826
0.2699721972
0.2699735905
0.2699749641
0.2699762399
0.2699774477
0.2699785536
0.2699793914
0.2699647472
0.2699659057
0.2699673338
0.2699688754
0.2699704274
0.2699720506
0.2699736344
0.269975121
0.2699765018
0.2699777488
0.2699789131
0.2699799689
0.2699808854
0.269981579
0.2699670063
0.2699691742
0.2699715534
0.2699738878
0.2699760675
0.2699779749
0.2699796178
0.2699810418
0.2699822385
0.2699832197
0.2699840906
0.2699848402
0.2699854433
0.2699858489
0.2699713271
0.2699748997
0.2699782584
0.2699811761
0.2699835561
0.2699854049
0.2699868605
0.2699879051
0.2699886919
0.2699892312
0.2699896183
0.2699898512
0.2699900031
0.2699900975
0.2699730857
0.2699774028
0.2699809812
0.2699837729
0.2699859117
0.2699874536
0.2699885713
0.2699893008
0.2699897817
0.2699900683
0.2699901934
0.269990248
0.2699902659
0.2699902071
0.2699702887
0.2699738945
0.2699772609
0.2699801702
0.2699825677
0.2699844418
0.2699858178
0.2699868782
0.2699876337
0.2699881299
0.2699885513
0.2699888358
0.2699890161
0.269989131
0.2699673508
0.2699695379
0.2699718863
0.2699742226
0.2699764044
0.2699783043
0.2699799933
0.2699813995
0.2699825686
0.2699835735
0.2699844455
0.2699851487
0.2699857541
0.2699861609
0.2699649882
0.2699661298
0.269967483
0.2699690115
0.2699706099
0.2699722478
0.2699737985
0.2699752738
0.2699766659
0.2699779237
0.2699790758
0.2699800951
0.2699809978
0.2699816668
0.2699640467
0.2699647131
0.2699656082
0.2699667106
0.269967952
0.2699692796
0.2699706746
0.2699720739
0.2699734659
0.2699747939
0.2699760626
0.2699772497
0.2699783516
0.2699791938
0.269963927
0.269964792
0.2699659475
0.269967333
0.2699689483
0.2699706633
0.2699723665
0.2699740145
0.2699756216
0.2699771232
0.2699784421
0.2699796294
0.2699807174
0.2699816224
0.2699823248
0.2699654729
0.2699672645
0.2699694163
0.2699717571
0.2699740446
0.2699761855
0.2699781343
0.2699798019
0.2699811986
0.2699823951
0.269983434
0.2699842941
0.2699849917
0.269985619
0.2699860417
0.2699732031
0.2699777366
0.2699817571
0.2699850377
0.269987505
0.2699892162
0.2699903243
0.269991064
0.2699914149
0.2699916024
0.2699916325
0.2699915327
0.2699914079
0.2699912534
0.2699874142
0.2699948806
0.2699999269
0.2700028415
0.2700041345
0.2700043169
0.2700038565
0.2700029479
0.2700018755
0.2700007308
0.2699996095
0.269998543
0.2699975944
0.2699969136
0.2700041602
0.2700114503
0.2700144191
0.2700147688
0.2700136611
0.2700118391
0.2700097887
0.2700077235
0.2700056498
0.270003718
0.2700020116
0.2700004239
0.2699990965
0.2699981198
0.269986915
0.2699943913
0.2699994422
0.2700023662
0.2700036551
0.270003814
0.2700033392
0.2700024934
0.2700013909
0.2700002658
0.26999916
0.2699980684
0.2699971694
0.2699964334
0.2699747073
0.269979251
0.269983305
0.2699865561
0.2699890074
0.2699907385
0.2699918497
0.2699925807
0.2699929515
0.2699930981
0.2699931096
0.2699930218
0.2699928787
0.269992748
0.2699672308
0.2699694034
0.2699718195
0.2699741297
0.2699762661
0.2699782034
0.2699798665
0.2699813144
0.269982521
0.2699835249
0.2699843604
0.2699850555
0.2699856339
0.2699860426
0.2699652541
0.2699664014
0.2699678048
0.2699694215
0.2699710855
0.2699727886
0.2699744891
0.2699760653
0.2699775302
0.2699789038
0.2699801125
0.2699811748
0.2699821183
0.2699828655
0.2699655953
0.2699669554
0.2699687385
0.2699707782
0.2699728889
0.269974993
0.2699769692
0.2699787407
0.2699803497
0.2699817773
0.269983014
0.2699841141
0.2699850035
0.2699857309
0.2699862926
0.2699661467
0.2699695066
0.2699731158
0.2699764997
0.2699794146
0.269981818
0.2699837099
0.2699850709
0.2699861058
0.269986934
0.2699874684
0.2699878851
0.2699881771
0.2699883496
0.2699884112
0.2699774135
0.269986726
0.269994159
0.2699992714
0.2700021461
0.270003396
0.2700035869
0.2700031128
0.2700022944
0.2700012214
0.2700001303
0.2699989966
0.2699979156
0.2699969737
0.2699962253
0.270032299
0.2700412757
0.2700423572
0.2700393202
0.2700344843
0.2700291826
0.2700240718
0.2700194165
0.2700152711
0.2700117096
0.2700085693
0.2700058676
0.270003624
0.2700020272
0.2701256743
0.2701130411
0.2700944513
0.2700769024
0.2700621057
0.2700500997
0.2700404526
0.2700326639
0.2700263823
0.2700212371
0.2700169938
0.2700134864
0.2700106357
0.2700085501
0.2700344781
0.2700434662
0.2700445217
0.2700414321
0.2700365803
0.2700312898
0.2700261643
0.2700214868
0.2700173409
0.2700137032
0.2700105988
0.2700079603
0.270005748
0.270004104
0.2699863012
0.269993789
0.2699988365
0.2700017557
0.2700030181
0.2700031844
0.2700027004
0.2700018389
0.2700007863
0.269999667
0.2699985785
0.2699974892
0.2699965481
0.2699958755
0.2699714456
0.2699750727
0.2699784371
0.2699813293
0.2699837044
0.2699855595
0.2699869887
0.2699879926
0.2699887084
0.2699892761
0.26998965
0.2699899526
0.2699901182
0.2699902343
0.2699658394
0.2699676284
0.2699696655
0.269971767
0.2699739071
0.2699758892
0.2699776832
0.269979289
0.269980672
0.2699819105
0.2699829634
0.2699838469
0.269984591
0.2699851234
0.2699651409
0.2699668981
0.2699689921
0.2699712625
0.2699735556
0.2699757567
0.269977775
0.2699795736
0.2699811737
0.2699825176
0.2699836725
0.2699846345
0.2699854331
0.2699860801
0.2699865436
0.2699695053
0.2699740699
0.2699783547
0.2699819405
0.2699847442
0.2699868362
0.2699883722
0.2699894328
0.2699901653
0.2699906371
0.2699909162
0.2699910209
0.2699910895
0.2699910977
0.2699910294
0.2699913538
0.270004628
0.2700119252
0.2700149135
0.270015269
0.270014187
0.2700123859
0.2700102892
0.2700081559
0.2700061088
0.2700042029
0.2700025173
0.2700010245
0.2699997044
0.2699987266
0.2701099249
0.2701248532
0.2701121772
0.2700936122
0.2700760527
0.2700612692
0.2700492857
0.2700396523
0.2700319121
0.2700256115
0.2700204836
0.2700162666
0.2700127906
0.2700099283
0.2700078955
0.2723118768
0.2721148798
0.2720073995
0.2719455338
0.2719079832
0.2718840171
0.2718680545
0.2718570715
0.2718492688
0.2718436161
0.2718395226
0.2718365698
0.271834533
0.271833563
0.270125368
0.2701126815
0.2700940758
0.2700765586
0.2700617424
0.270049797
0.270040175
0.2700324073
0.2700261309
0.2700210138
0.2700167555
0.2700132414
0.2700104056
0.2700083295
0.2700047465
0.2700120335
0.2700149927
0.270015329
0.2700142246
0.2700124578
0.2700103982
0.2700082658
0.2700062338
0.270004344
0.2700026115
0.2700010453
0.2699997304
0.2699987283
0.2699749724
0.2699792089
0.2699827852
0.2699856108
0.2699877784
0.2699893
0.2699903827
0.269991127
0.2699915807
0.2699919142
0.2699920438
0.269992109
0.2699920957
0.2699921007
0.2699669024
0.2699690802
0.2699713479
0.2699736666
0.2699758978
0.2699778841
0.2699796913
0.2699812954
0.2699826487
0.2699838074
0.2699848111
0.2699856416
0.2699862967
0.2699867986
0.2699640048
0.2699654134
0.2699671896
0.2699692051
0.26997135
0.2699734233
0.2699753902
0.2699771977
0.2699788458
0.2699803044
0.2699815468
0.2699826018
0.2699835372
0.2699842903
0.2699848201
0.2699681847
0.2699715243
0.2699751023
0.2699784721
0.2699814312
0.269983799
0.269985681
0.2699871035
0.2699881276
0.2699889202
0.2699894886
0.2699898834
0.2699901538
0.2699903224
0.2699904194
0.2699781147
0.2699874468
0.2699949012
0.269999918
0.2700027821
0.2700040735
0.2700042455
0.2700037671
0.270002882
0.2700018142
0.2700007015
0.269999614
0.2699985717
0.2699976632
0.2699969663
0.2700119526
0.2700329448
0.2700419494
0.2700430327
0.2700399995
0.2700351927
0.2700299201
0.2700247183
0.2700200669
0.2700159221
0.2700123338
0.2700092088
0.2700065734
0.2700043434
0.2700027201
0.2701096527
0.2701245507
0.2701118551
0.2700932346
0.2700756717
0.2700609115
0.2700488771
0.2700392491
0.2700315242
0.2700252872
0.270020124
0.2700158754
0.2700123752
0.2700095456
0.270007526
0.270011138
0.2700320887
0.2700410857
0.2700421484
0.2700391283
0.2700342666
0.2700289541
0.2700238151
0.2700190997
0.2700149642
0.2700113734
0.2700082382
0.2700055852
0.2700033014
0.2700016654
0.2699866617
0.2699941194
0.2699991563
0.2700021022
0.27000339
0.2700035506
0.2700030592
0.2700021743
0.2700011223
0.2699999884
0.2699988562
0.2699977692
0.2699968416
0.2699961499
0.2699707305
0.2699743008
0.2699777296
0.2699806584
0.2699829974
0.2699848873
0.2699863254
0.269987348
0.2699881503
0.2699887376
0.269989127
0.2699893927
0.269989545
0.2699896659
0.2699663979
0.269968171
0.2699701679
0.2699722741
0.2699743824
0.2699763615
0.2699781593
0.2699797853
0.2699812501
0.2699824722
0.2699835663
0.2699844585
0.2699852252
0.2699857711
0.2699647905
0.2699656407
0.2699668141
0.2699682475
0.2699698348
0.2699715025
0.2699732239
0.269974927
0.2699764916
0.2699779493
0.2699792802
0.2699804969
0.2699816146
0.2699825332
0.2699832318
0.2699648284
0.2699666174
0.2699688033
0.2699711672
0.2699735046
0.2699756863
0.2699775628
0.2699792415
0.2699807152
0.2699819382
0.2699829816
0.2699838512
0.2699845659
0.2699851414
0.2699855229
0.2699703938
0.2699747713
0.2699792494
0.2699833194
0.2699865766
0.2699890267
0.2699907368
0.2699918887
0.2699926195
0.2699930231
0.2699931713
0.2699931875
0.2699930959
0.2699930084
0.2699929409
0.2699773532
0.2699866375
0.2699940959
0.2699991479
0.2700020648
0.2700033235
0.2700035196
0.2700030483
0.2700021726
0.2700011174
0.2699999789
0.2699988644
0.2699978211
0.2699968696
0.269996124
0.2699904176
0.270003649
0.2700109363
0.2700138927
0.2700142225
0.2700131262
0.2700113178
0.2700092912
0.270007173
0.2700051236
0.2700032638
0.2700015491
0.2700000465
0.2699987412
0.2699977496
0.2699782754
0.2699876026
0.2699950804
0.2700001181
0.2700030097
0.2700042887
0.2700045181
0.2700040689
0.2700032216
0.2700021358
0.2700010006
0.2699999179
0.2699988803
0.2699979611
0.2699972607
0.269969084
0.2699734568
0.2699779838
0.2699819721
0.2699852295
0.2699877334
0.2699894559
0.2699905957
0.2699912713
0.2699916442
0.2699917757
0.2699918046
0.2699917132
0.2699915948
0.2699914688
0.2699666309
0.2699687912
0.2699711657
0.2699734517
0.2699755827
0.2699774886
0.2699791729
0.2699806006
0.2699817696
0.2699827513
0.2699836354
0.2699843302
0.2699849373
0.2699853611
0.2699647741
0.269965944
0.2699673764
0.2699689273
0.2699706188
0.2699723064
0.2699739925
0.2699755617
0.2699769964
0.2699783567
0.2699795493
0.2699806557
0.269981572
0.2699822525
0.269964094
0.2699645399
0.2699652193
0.2699661301
0.2699672237
0.2699684626
0.2699697722
0.2699711978
0.2699725951
0.2699739593
0.2699752765
0.2699765663
0.2699777525
0.2699788524
0.2699797119
0.2699646558
0.2699655075
0.2699665975
0.2699680261
0.2699695307
0.2699711139
0.2699726831
0.2699742116
0.2699757385
0.2699771231
0.2699783764
0.2699795298
0.2699805572
0.269981456
0.2699821597
0.269964189
0.2699660235
0.2699682175
0.2699705704
0.2699729176
0.2699751078
0.2699770415
0.2699786885
0.269980078
0.26998127
0.2699822724
0.2699831095
0.2699838005
0.2699843665
0.2699847946
0.2699670099
0.2699703312
0.269973915
0.2699772743
0.2699801628
0.2699825472
0.2699844245
0.26998586
0.2699869612
0.2699877144
0.2699882904
0.2699886799
0.2699889692
0.269989168
0.2699892715
0.2699694723
0.2699740425
0.2699783159
0.2699818937
0.2699846834
0.2699867945
0.2699883129
0.2699893544
0.2699900968
0.2699905923
0.2699908602
0.2699909942
0.2699910127
0.2699909475
0.2699909176
0.2699670439
0.2699703642
0.2699739396
0.2699773299
0.2699802848
0.2699826888
0.2699845618
0.2699860118
0.26998706
0.2699878002
0.2699883302
0.2699887293
0.2699890212
0.2699891907
0.2699892784
0.2699663224
0.2699681525
0.269970351
0.2699726775
0.2699749954
0.2699771579
0.2699790681
0.2699807678
0.2699821811
0.2699833721
0.2699843956
0.2699852192
0.269985947
0.2699865274
0.2699869493
0.2699647053
0.2699654966
0.2699666205
0.2699680266
0.2699695531
0.2699711781
0.2699727891
0.2699743159
0.2699758279
0.2699772112
0.2699784849
0.2699796508
0.2699807112
0.2699815931
0.2699822969
0.269964296
0.2699649993
0.2699659069
0.2699669838
0.2699681928
0.2699695154
0.2699709234
0.2699723351
0.2699737378
0.2699751165
0.2699764103
0.2699776231
0.2699787144
0.2699795447
0.2699639862
0.2699642376
0.2699646516
0.269965236
0.2699660156
0.2699669434
0.2699680402
0.269969206
0.269970441
0.2699717498
0.2699730435
0.2699743406
0.2699756039
0.2699767572
0.2699776711
0.2699633241
0.2699637657
0.2699644661
0.2699653371
0.2699664325
0.2699676492
0.2699689587
0.2699703418
0.2699717707
0.2699730954
0.2699744567
0.2699757644
0.2699769975
0.2699780738
0.2699788951
0.26996357
0.269964405
0.2699655605
0.269966968
0.2699685845
0.2699702804
0.2699719923
0.2699736493
0.2699752139
0.2699767047
0.2699780581
0.2699792924
0.2699803875
0.2699813446
0.2699820698
0.2699642527
0.2699656625
0.269967436
0.2699694665
0.2699716005
0.2699737079
0.2699756588
0.2699774697
0.269979096
0.2699805121
0.2699817714
0.2699828771
0.2699837671
0.2699844934
0.2699850643
0.2699656414
0.2699673946
0.2699695089
0.2699717692
0.2699740473
0.269976232
0.2699782463
0.269980064
0.2699816317
0.2699830038
0.2699841605
0.2699851559
0.2699859604
0.2699866201
0.2699871006
0.2699652623
0.2699666684
0.2699684364
0.2699704526
0.2699725311
0.2699746101
0.2699765962
0.2699784538
0.2699800464
0.2699814914
0.2699827294
0.2699838199
0.2699847188
0.2699854638
0.2699859949
0.2699652947
0.269966083
0.2699672461
0.2699686767
0.2699702589
0.2699719797
0.269973695
0.2699753464
0.2699769281
0.2699784044
0.2699797303
0.2699810139
0.269982117
0.2699830481
0.2699837687
0.2699636542
0.2699640832
0.2699647669
0.2699656213
0.2699667365
0.2699679473
0.2699692887
0.2699706875
0.2699721208
0.2699734852
0.2699748323
0.2699760887
0.2699772794
0.2699783969
0.2699792447
0.2699631337
0.2699634094
0.2699638286
0.2699644019
0.2699651784
0.2699661008
0.2699671895
0.2699683616
0.2699696028
0.2699709164
0.2699722154
0.2699735343
0.2699747735
0.2699759182
0.2699768161
)
;

boundaryField
{
    top
    {
        type            calculated;
        value           nonuniform List<scalar> 
127
(
0.2699631337
0.2699633023
0.2699640467
0.2699652541
0.2699658394
0.2699669024
0.2699663979
0.2699647741
0.269964296
0.2699634094
0.2699637418
0.2699647131
0.2699664014
0.2699676284
0.2699690802
0.269968171
0.269965944
0.2699649993
0.2699638286
0.269964323
0.2699656082
0.2699678048
0.2699696655
0.2699713479
0.2699701679
0.2699673764
0.2699659069
0.2699644019
0.2699651077
0.2699667106
0.2699694215
0.269971767
0.2699736666
0.2699722741
0.2699689273
0.2699669838
0.2699651784
0.2699660389
0.269967952
0.2699710855
0.2699739071
0.2699758978
0.2699743824
0.2699706188
0.2699681928
0.2699661008
0.2699671351
0.2699692796
0.2699727886
0.2699758892
0.2699778841
0.2699763615
0.2699723064
0.2699695154
0.2699671895
0.2699682843
0.2699706746
0.2699744891
0.2699776832
0.2699796913
0.2699781593
0.2699739925
0.2699709234
0.2699683616
0.2699695223
0.2699720739
0.2699760653
0.269979289
0.2699812954
0.2699797853
0.2699755617
0.2699723351
0.2699696028
0.2699708084
0.2699734659
0.2699775302
0.269980672
0.2699826487
0.2699812501
0.2699769964
0.2699737378
0.2699709164
0.269972104
0.2699747939
0.2699789038
0.2699819105
0.2699838074
0.2699824722
0.2699783567
0.2699751165
0.2699722154
0.2699734284
0.2699760626
0.2699801125
0.2699829634
0.2699848111
0.2699835663
0.2699795493
0.2699764103
0.2699735343
0.2699746884
0.2699772497
0.2699811748
0.2699838469
0.2699856416
0.2699844585
0.2699806557
0.2699776231
0.2699747735
0.2699758368
0.2699783516
0.2699821183
0.269984591
0.2699862967
0.2699852252
0.269981572
0.2699787144
0.2699759182
0.2699767428
0.2699791938
0.2699828655
0.2699851234
0.2699867986
0.2699857711
0.2699822525
0.2699795447
0.2699768161
)
;
    }
    bottom
    {
        type            calculated;
        value           nonuniform List<scalar> 
134
(
0.2699638264
0.269963927
0.2699655953
0.2699651409
0.2699640048
0.2699647905
0.269964094
0.2699639862
0.2699633358
0.269964269
0.269964792
0.2699669554
0.2699668981
0.2699654134
0.2699656407
0.2699645399
0.2699642376
0.2699637396
0.2699649255
0.2699659475
0.2699687385
0.2699689921
0.2699671896
0.2699668141
0.2699652193
0.2699646516
0.2699643067
0.2699658622
0.269967333
0.2699707782
0.2699712625
0.2699692051
0.2699682475
0.2699661301
0.269965236
0.2699651099
0.2699669083
0.2699689483
0.2699728889
0.2699735556
0.26997135
0.2699698348
0.2699672237
0.2699660156
0.2699660221
0.2699681193
0.2699706633
0.269974993
0.2699757567
0.2699734233
0.2699715025
0.2699684626
0.2699669434
0.2699671167
0.2699693881
0.2699723665
0.2699769692
0.269977775
0.2699753902
0.2699732239
0.2699697722
0.2699680402
0.2699682926
0.2699707826
0.2699740145
0.2699787407
0.2699795736
0.2699771977
0.269974927
0.2699711978
0.269969206
0.2699695407
0.2699721972
0.2699756216
0.2699803497
0.2699811737
0.2699788458
0.2699764916
0.2699725951
0.269970441
0.269970869
0.2699735905
0.2699771232
0.2699817773
0.2699825176
0.2699803044
0.2699779493
0.2699739593
0.2699717498
0.2699721444
0.2699749641
0.2699784421
0.269983014
0.2699836725
0.2699815468
0.2699792802
0.2699752765
0.2699730435
0.2699734477
0.2699762399
0.2699796294
0.2699841141
0.2699846345
0.2699826018
0.2699804969
0.2699765663
0.2699743406
0.2699746794
0.2699774477
0.2699807174
0.2699850035
0.2699854331
0.2699835372
0.2699816146
0.2699777525
0.2699756039
0.2699758659
0.2699785536
0.2699816224
0.2699857309
0.2699860801
0.2699842903
0.2699825332
0.2699788524
0.2699767572
0.2699767809
0.2699793914
0.2699823248
0.2699862926
0.2699865436
0.2699848201
0.2699832318
0.2699797119
0.2699776711
)
;
    }
    side-walls
    {
        type            calculated;
        value           nonuniform List<scalar> 
261
(
0.2699633358
0.2699640257
0.2699651288
0.2699662212
0.2699672927
0.2699658316
0.2699657391
0.2699642067
0.2699633023
0.2699637396
0.2699646994
0.2699662952
0.2699680223
0.26996939
0.2699676234
0.2699669372
0.2699648642
0.2699637418
0.2699643067
0.2699655462
0.269967728
0.2699700229
0.2699717292
0.2699696589
0.269968333
0.2699657489
0.269964323
0.2699651099
0.2699666263
0.2699693296
0.269972148
0.2699740333
0.2699717951
0.2699699638
0.2699668295
0.2699651077
0.2699660221
0.2699678765
0.2699710345
0.2699742316
0.269976179
0.2699738748
0.2699716366
0.2699680605
0.2699660389
0.2699671167
0.2699691784
0.2699727661
0.2699762143
0.2699781828
0.2699758251
0.2699733848
0.2699693532
0.2699671351
0.2699682926
0.2699705798
0.2699744723
0.2699780017
0.269979958
0.2699776289
0.2699750031
0.269970761
0.2699682843
0.2699695407
0.2699720001
0.2699760026
0.2699796209
0.2699815251
0.2699792567
0.2699765811
0.2699721374
0.2699695223
0.269970869
0.2699733813
0.2699774575
0.2699810558
0.2699829009
0.2699806683
0.2699780573
0.2699735597
0.2699708084
0.2699721444
0.2699747259
0.2699788165
0.2699822948
0.2699840435
0.2699819251
0.2699793892
0.269974931
0.269972104
0.2699734477
0.2699760223
0.2699800305
0.2699833325
0.2699850739
0.2699830243
0.2699806206
0.2699762268
0.2699734284
0.2699746794
0.269977233
0.2699810834
0.2699842756
0.2699858526
0.2699839706
0.2699816763
0.2699774549
0.2699746884
0.2699758659
0.2699783448
0.269982029
0.2699850606
0.2699865115
0.2699847043
0.2699825985
0.2699785305
0.2699758368
0.2699767809
0.2699791816
0.269982725
0.2699855661
0.2699869764
0.2699852439
0.2699832811
0.2699794003
0.2699767428
0.2699639862
0.2699633241
0.26996357
0.2699642527
0.2699656414
0.2699652623
0.2699652947
0.2699636542
0.2699631337
0.2699642376
0.2699637657
0.269964405
0.2699656625
0.2699673946
0.2699666684
0.269966083
0.2699640832
0.2699634094
0.2699646516
0.2699644661
0.2699655605
0.269967436
0.2699695089
0.2699684364
0.2699672461
0.2699647669
0.2699638286
0.269965236
0.2699653371
0.269966968
0.2699694665
0.2699717692
0.2699704526
0.2699686767
0.2699656213
0.2699644019
0.2699660156
0.2699664325
0.2699685845
0.2699716005
0.2699740473
0.2699725311
0.2699702589
0.2699667365
0.2699651784
0.2699669434
0.2699676492
0.2699702804
0.2699737079
0.269976232
0.2699746101
0.2699719797
0.2699679473
0.2699661008
0.2699680402
0.2699689587
0.2699719923
0.2699756588
0.2699782463
0.2699765962
0.269973695
0.2699692887
0.2699671895
0.269969206
0.2699703418
0.2699736493
0.2699774697
0.269980064
0.2699784538
0.2699753464
0.2699706875
0.2699683616
0.269970441
0.2699717707
0.2699752139
0.269979096
0.2699816317
0.2699800464
0.2699769281
0.2699721208
0.2699696028
0.2699717498
0.2699730954
0.2699767047
0.2699805121
0.2699830038
0.2699814914
0.2699784044
0.2699734852
0.2699709164
0.2699730435
0.2699744567
0.2699780581
0.2699817714
0.2699841605
0.2699827294
0.2699797303
0.2699748323
0.2699722154
0.2699743406
0.2699757644
0.2699792924
0.2699828771
0.2699851559
0.2699838199
0.2699810139
0.2699760887
0.2699735343
0.2699756039
0.2699769975
0.2699803875
0.2699837671
0.2699859604
0.2699847188
0.269982117
0.2699772794
0.2699747735
0.2699767572
0.2699780738
0.2699813446
0.2699844934
0.2699866201
0.2699854638
0.2699830481
0.2699783969
0.2699759182
0.2699776711
0.2699788951
0.2699820698
0.2699850643
0.2699871006
0.2699859949
0.2699837687
0.2699792447
0.2699768161
)
;
    }
    inlet
    {
        type            calculated;
        value           nonuniform 0();
    }
    outlet
    {
        type            calculated;
        value           nonuniform List<scalar> 
81
(
0.2699767809
0.2699791816
0.269982725
0.2699855661
0.2699869764
0.2699852439
0.2699832811
0.2699794003
0.2699767428
0.2699793914
0.269981579
0.2699858489
0.2699900975
0.2699902071
0.269989131
0.2699861609
0.2699816668
0.2699791938
0.2699823248
0.2699860417
0.2699912534
0.2699969136
0.2699981198
0.2699964334
0.269992748
0.2699860426
0.2699828655
0.2699862926
0.2699884112
0.2699962253
0.2700020272
0.2700085501
0.270004104
0.2699958755
0.2699902343
0.2699851234
0.2699865436
0.2699910294
0.2699987266
0.2700078955
0.271833563
0.2700083295
0.2699987283
0.2699921007
0.2699867986
0.2699848201
0.2699904194
0.2699969663
0.2700027201
0.270007526
0.2700016654
0.2699961499
0.2699896659
0.2699857711
0.2699832318
0.2699855229
0.2699929409
0.269996124
0.2699977496
0.2699972607
0.2699914688
0.2699853611
0.2699822525
0.2699797119
0.2699821597
0.2699847946
0.2699892715
0.2699909176
0.2699892784
0.2699869493
0.2699822969
0.2699795447
0.2699776711
0.2699788951
0.2699820698
0.2699850643
0.2699871006
0.2699859949
0.2699837687
0.2699792447
0.2699768161
)
;
    }
    procBoundary1to0
    {
        type            processor;
        value           nonuniform List<scalar> 
97
(
0.269963036
0.269963036
0.269963542
0.2699642656
0.2699648167
0.2699655773
0.2699644131
0.2699648759
0.2699637577
0.2699629988
0.2699635569
0.2699639331
0.2699639331
0.2699639331
0.2699651843
0.2699679275
0.269968578
0.2699669756
0.2699655145
0.2699641328
0.2699636182
0.2699633993
0.2699643033
0.2699688387
0.2699688387
0.2699688387
0.2699781276
0.2699910028
0.2699776096
0.2699703952
0.2699654025
0.2699644635
0.2699646668
0.2699637002
0.2699687194
0.2700113015
0.2700113015
0.2700113015
0.2701107817
0.2700134752
0.2699770033
0.2699681195
0.2699644415
0.2699639548
0.2699656
0.2699733675
0.2700030836
0.2726951438
0.2726951438
0.2726951438
0.2701104506
0.2701104506
0.2699915435
0.2699704573
0.2699651716
0.2699630887
0.2699657121
0.2699694223
0.2699801702
0.2700028801
0.2699793905
0.2699773715
0.2699773715
0.2699773715
0.2699673807
0.2699649973
0.269964277
0.2699636531
0.2699670442
0.2699686587
0.2699724525
0.2699695618
0.2699657312
0.2699648049
0.2699648049
0.2699648049
0.2699639385
0.2699638174
0.269964131
0.2699630095
0.2699644946
0.2699655934
0.2699646145
0.269965079
0.2699641687
0.2699638416
0.2699638416
0.2699638416
0.2699638468
0.2699630328
0.2699630523
0.2699633609
0.269964447
0.2699643737
0.269964749
0.2699633446
0.2699629585
)
;
    }
}


// ************************************************************************* //
