/*--------------------------------*- C++ -*----------------------------------*\
| =========                 |                                                 |
| \\      /  F ield         | OpenFOAM: The Open Source CFD Toolbox           |
|  \\    /   O peration     | Version:  4.x                                   |
|   \\  /    A nd           | Web:      www.OpenFOAM.org                      |
|    \\/     M anipulation  |                                                 |
\*---------------------------------------------------------------------------*/
FoamFile
{
    version     2.0;
    format      ascii;
    class       volScalarField;
    location    "4000";
    object      X_CO;
}
// * * * * * * * * * * * * * * * * * * * * * * * * * * * * * * * * * * * * * //

dimensions      [0 0 0 0 0 0 0];

internalField   nonuniform List<scalar> 
1174
(
0.3000555393
0.3000537986
0.3000513661
0.3000482243
0.3000444176
0.3000400394
0.300035213
0.3000300741
0.3000247569
0.3000193851
0.3000140708
0.3000089322
0.3000041781
0.3000004727
0.3000539393
0.3000511993
0.3000475872
0.3000432
0.3000381984
0.3000327698
0.3000270997
0.3000213529
0.3000156657
0.3000101442
0.3000048705
0.2999999236
0.299995459
0.2999920381
0.3000504443
0.3000456881
0.3000398629
0.3000333104
0.3000263883
0.3000194092
0.3000126146
0.3000061708
0.3000001792
0.2999946907
0.2999897225
0.2999852832
0.2999814394
0.2999785804
0.3000453959
0.3000381089
0.3000298264
0.3000211621
0.3000126139
0.3000045291
0.2999971163
0.2999904745
0.2999846258
0.2999795426
0.2999751702
0.2999714505
0.2999683707
0.2999661566
0.3000418497
0.3000331992
0.3000238484
0.3000144577
0.3000054934
0.2999972434
0.2999898557
0.2999833773
0.299977789
0.2999730311
0.2999690245
0.2999656896
0.299962987
0.2999610774
0.300045396
0.300038109
0.3000298266
0.3000211623
0.3000126142
0.3000045294
0.2999971166
0.2999904749
0.2999846263
0.299979543
0.2999751707
0.299971451
0.2999683713
0.2999661572
0.3000504444
0.3000456883
0.3000398632
0.3000333108
0.3000263887
0.3000194097
0.3000126151
0.3000061714
0.3000001799
0.2999946915
0.2999897233
0.2999852841
0.2999814404
0.2999785814
0.3000539394
0.3000511994
0.3000475874
0.3000432002
0.3000381987
0.3000327703
0.3000271002
0.3000213535
0.3000156664
0.300010145
0.3000048714
0.2999999246
0.2999954602
0.2999920393
0.3000555394
0.3000537987
0.3000513663
0.3000482244
0.3000444179
0.3000400397
0.3000352134
0.3000300747
0.3000247576
0.3000193858
0.3000140717
0.3000089332
0.3000041793
0.300000474
0.30005581
0.3000539393
0.3000511993
0.3000475872
0.3000432
0.3000381984
0.3000327699
0.3000270997
0.300021353
0.3000156657
0.3000101442
0.3000048705
0.2999999236
0.2999954591
0.2999920382
0.3000503916
0.3000456793
0.3000399901
0.3000336758
0.3000270792
0.3000204817
0.3000140873
0.300008028
0.3000023782
0.2999971711
0.2999924154
0.2999881195
0.299984357
0.2999815321
0.3000415795
0.3000326086
0.3000229621
0.3000134545
0.3000046244
0.29999675
0.2999899172
0.2999840917
0.2999791771
0.2999750528
0.2999715983
0.299968712
0.2999663464
0.2999646525
0.3000261632
0.3000114936
0.2999977051
0.2999857923
0.2999760639
0.2999684265
0.2999626021
0.2999582599
0.2999550849
0.2999528055
0.2999512008
0.2999500974
0.299949365
0.2999489321
0.3000118714
0.2999944025
0.2999797653
0.2999682788
0.2999596536
0.2999533987
0.29994901
0.299946044
0.2999441382
0.2999430073
0.2999424321
0.2999422437
0.2999423029
0.2999424597
0.3000261635
0.300011494
0.2999977056
0.2999857928
0.2999760644
0.2999684271
0.2999626027
0.2999582606
0.2999550856
0.2999528062
0.2999512016
0.2999500981
0.2999493657
0.2999489328
0.30004158
0.3000326091
0.3000229627
0.3000134551
0.3000046251
0.2999967509
0.2999899181
0.2999840927
0.2999791782
0.2999750539
0.2999715995
0.2999687132
0.2999663476
0.2999646537
0.3000503919
0.3000456797
0.3000399905
0.3000336763
0.3000270798
0.3000204824
0.3000140881
0.3000080289
0.3000023793
0.2999971722
0.2999924167
0.2999881208
0.2999843584
0.2999815336
0.3000539394
0.3000511994
0.3000475874
0.3000432003
0.3000381988
0.3000327704
0.3000271003
0.3000213537
0.3000156666
0.3000101453
0.3000048717
0.299999925
0.2999954605
0.2999920398
0.3000539027
0.3000504444
0.3000456882
0.300039863
0.3000333106
0.3000263884
0.3000194094
0.3000126147
0.3000061709
0.3000001794
0.2999946908
0.2999897226
0.2999852833
0.2999814395
0.2999785805
0.3000489088
0.3000415797
0.3000326087
0.3000229622
0.3000134546
0.3000046245
0.2999967501
0.2999899173
0.2999840918
0.2999791772
0.2999750528
0.2999715984
0.2999687121
0.2999663465
0.2999646525
0.3000159629
0.2999974635
0.2999809395
0.2999675784
0.2999575546
0.2999504997
0.2999458416
0.2999429962
0.299941456
0.2999408161
0.2999407702
0.2999410913
0.2999415994
0.2999420867
0.2999599087
0.2999293395
0.2999086897
0.2998968587
0.2998916337
0.2998908676
0.2998928679
0.2998964312
0.299900756
0.2999053337
0.2999098534
0.2999141194
0.2999179433
0.2999208446
0.2998877587
0.2998580356
0.2998458751
0.2998444009
0.2998488019
0.2998560987
0.2998645539
0.2998731967
0.2998815096
0.2998892374
0.2998962692
0.2999025551
0.2999079881
0.2999120205
0.2999599103
0.2999293411
0.2999086912
0.2998968601
0.2998916351
0.299890869
0.2998928692
0.2998964324
0.2999007572
0.2999053349
0.2999098545
0.2999141205
0.2999179443
0.2999208456
0.3000159643
0.2999974648
0.2999809408
0.2999675798
0.2999575561
0.2999505013
0.2999458432
0.2999429978
0.2999414576
0.2999408178
0.2999407719
0.299941093
0.299941601
0.2999420884
0.30004158
0.3000326092
0.3000229628
0.3000134554
0.3000046255
0.2999967513
0.2999899185
0.2999840933
0.2999791788
0.2999750545
0.2999716001
0.2999687139
0.2999663483
0.2999646545
0.3000504444
0.3000456883
0.3000398633
0.3000333109
0.300026389
0.3000194101
0.3000126156
0.300006172
0.3000001806
0.2999946923
0.2999897242
0.299985285
0.2999814414
0.2999785825
0.3000510794
0.3000453961
0.3000381091
0.3000298266
0.3000211624
0.3000126142
0.3000045294
0.2999971165
0.2999904748
0.2999846261
0.2999795428
0.2999751705
0.2999714507
0.299968371
0.2999661568
0.3000398233
0.3000261633
0.3000114939
0.2999977054
0.2999857925
0.2999760641
0.2999684267
0.2999626023
0.2999582602
0.2999550851
0.2999528058
0.2999512011
0.2999500976
0.2999493652
0.2999489323
0.2999978586
0.2999599091
0.2999293399
0.2999086901
0.299896859
0.299891634
0.2998908679
0.2998928681
0.2998964314
0.2999007562
0.2999053339
0.2999098536
0.2999141196
0.2999179435
0.2999208447
0.299770474
0.2997337561
0.2997292299
0.2997417082
0.2997614747
0.2997831656
0.2998041337
0.2998232462
0.2998401525
0.2998548741
0.2998675837
0.2998784721
0.2998875748
0.2998941803
0.299404853
0.2994566576
0.2995326403
0.299604393
0.2996648104
0.2997137824
0.2997530949
0.2997847277
0.2998103688
0.2998313395
0.2998486352
0.2998629637
0.2998746573
0.2998830149
0.2997704801
0.2997337604
0.2997292334
0.2997417112
0.2997614772
0.2997831679
0.2998041356
0.299823248
0.2998401542
0.2998548756
0.2998675851
0.2998784734
0.299887576
0.2998941815
0.2999599102
0.2999293415
0.299908692
0.2998968612
0.2998916363
0.2998908703
0.2998928706
0.2998964338
0.2999007585
0.2999053362
0.2999098558
0.2999141217
0.2999179455
0.2999208468
0.3000261635
0.3000114944
0.2999977062
0.2999857937
0.2999760655
0.2999684284
0.2999626041
0.2999582621
0.2999550872
0.2999528079
0.2999512033
0.2999500998
0.2999493675
0.2999489346
0.300045396
0.3000381091
0.3000298269
0.3000211629
0.3000126149
0.3000045304
0.2999971177
0.2999904762
0.2999846278
0.2999795447
0.2999751725
0.2999714529
0.2999683733
0.2999661592
0.3000489963
0.3000418499
0.3000331996
0.3000238488
0.3000144581
0.3000054938
0.2999972439
0.2999898561
0.2999833777
0.2999777894
0.2999730315
0.2999690249
0.29996569
0.2999629873
0.2999610778
0.300030507
0.3000118718
0.2999944031
0.299979766
0.2999682794
0.2999596542
0.2999533993
0.2999490105
0.2999460445
0.2999441386
0.2999430078
0.2999424325
0.2999422441
0.2999423032
0.29994246
0.299941827
0.2998877594
0.2998580366
0.2998458761
0.2998444018
0.2998488026
0.2998560994
0.2998645545
0.2998731972
0.2998815101
0.2998892378
0.2998962696
0.2999025555
0.2999079884
0.2999120208
0.2994658425
0.2994048562
0.2994566599
0.299532642
0.2996043943
0.2996648114
0.2997137832
0.2997530955
0.2997847283
0.2998103693
0.2998313399
0.2998486355
0.299862964
0.2998746576
0.2998830151
0.297845683
0.2986513854
0.2990938771
0.2993513778
0.2995102154
0.2996138485
0.2996850324
0.2997361805
0.2997743543
0.299803742
0.2998269239
0.2998455088
0.2998603233
0.2998707593
0.2994048529
0.2994566628
0.2995326458
0.2996043979
0.2996648147
0.299713786
0.299753098
0.2997847305
0.2998103713
0.2998313417
0.2998486372
0.2998629656
0.299874659
0.2998830165
0.2998877587
0.2998580375
0.299845878
0.2998444043
0.2998488054
0.2998561022
0.2998645574
0.2998732
0.2998815128
0.2998892404
0.299896272
0.2999025578
0.2999079907
0.2999120231
0.3000118715
0.2999944033
0.2999797666
0.2999682805
0.2999596557
0.2999534011
0.2999490126
0.2999460467
0.2999441409
0.2999430101
0.2999424349
0.2999422465
0.2999423057
0.2999424625
0.3000418497
0.3000331995
0.3000238489
0.3000144586
0.3000054946
0.299997245
0.2999898575
0.2999833794
0.2999777913
0.2999730336
0.2999690271
0.2999656923
0.2999629899
0.2999610804
0.3000510794
0.3000453962
0.3000381093
0.3000298269
0.3000211628
0.3000126146
0.3000045299
0.2999971171
0.2999904754
0.2999846267
0.2999795435
0.2999751712
0.2999714515
0.2999683717
0.2999661576
0.3000398236
0.300026164
0.3000114947
0.2999977063
0.2999857935
0.2999760651
0.2999684278
0.2999626034
0.2999582612
0.2999550862
0.2999528068
0.2999512021
0.2999500986
0.2999493662
0.2999489333
0.2999978608
0.2999599113
0.2999293423
0.2999086924
0.2998968612
0.2998916361
0.2998908699
0.29989287
0.2998964331
0.2999007578
0.2999053354
0.2999098551
0.299914121
0.2999179448
0.299920846
0.2998563064
0.2997704824
0.2997337627
0.2997292353
0.2997417128
0.2997614786
0.2997831691
0.2998041367
0.2998232488
0.2998401549
0.2998548763
0.2998675857
0.299878474
0.2998875765
0.299894182
0.2994658434
0.299404858
0.2994566662
0.2995326482
0.2996043997
0.299664816
0.2997137871
0.2997530989
0.2997847312
0.2998103719
0.2998313422
0.2998486376
0.2998629659
0.2998746594
0.2998830168
0.2998563051
0.2997704829
0.2997337642
0.2997292374
0.2997417151
0.2997614809
0.2997831713
0.2998041388
0.2998232509
0.2998401568
0.299854878
0.2998675873
0.2998784755
0.2998875779
0.2998941834
0.2999599085
0.2999293414
0.2999086929
0.2998968625
0.2998916379
0.299890872
0.2998928723
0.2998964355
0.2999007602
0.2999053378
0.2999098574
0.2999141232
0.299917947
0.2999208482
0.300026163
0.3000114941
0.2999977063
0.299985794
0.2999760661
0.2999684291
0.299962605
0.2999582631
0.2999550882
0.2999528089
0.2999512043
0.2999501009
0.2999493686
0.2999489357
0.3000453959
0.300038109
0.3000298269
0.300021163
0.3000126151
0.3000045307
0.2999971182
0.2999904768
0.2999846284
0.2999795454
0.2999751733
0.2999714537
0.2999683741
0.2999661601
0.3000539028
0.3000504446
0.3000456885
0.3000398634
0.3000333111
0.300026389
0.3000194101
0.3000126155
0.3000061718
0.3000001804
0.299994692
0.2999897238
0.2999852845
0.2999814408
0.2999785819
0.3000489092
0.3000415802
0.3000326095
0.3000229631
0.3000134556
0.3000046257
0.2999967514
0.2999899186
0.2999840933
0.2999791787
0.2999750544
0.2999716
0.2999687137
0.2999663481
0.2999646542
0.3000338432
0.3000159649
0.2999974656
0.2999809417
0.2999675806
0.2999575569
0.2999505021
0.2999458439
0.2999429985
0.2999414583
0.2999408184
0.2999407725
0.2999410935
0.2999416015
0.2999420889
0.2999978607
0.2999599115
0.2999293429
0.2999086934
0.2998968624
0.2998916375
0.2998908713
0.2998928715
0.2998964346
0.2999007593
0.2999053368
0.2999098564
0.2999141223
0.2999179461
0.2999208473
0.2999418271
0.2998877611
0.2998580397
0.2998458798
0.2998444057
0.2998488066
0.2998561033
0.2998645583
0.2998732007
0.2998815135
0.299889241
0.2998962726
0.2999025583
0.2999079911
0.2999120235
0.2999978609
0.299959912
0.2999293436
0.2999086944
0.2998968636
0.2998916387
0.2998908726
0.2998928727
0.2998964359
0.2999007605
0.2999053381
0.2999098576
0.2999141234
0.2999179472
0.2999208484
0.3000338424
0.3000159643
0.2999974653
0.2999809418
0.2999675812
0.2999575578
0.2999505033
0.2999458453
0.2999430001
0.29994146
0.2999408202
0.2999407742
0.2999410953
0.2999416034
0.2999420907
0.3000415795
0.300032609
0.300022963
0.3000134558
0.3000046261
0.2999967522
0.2999899197
0.2999840945
0.2999791802
0.299975056
0.2999716017
0.2999687156
0.2999663501
0.2999646563
0.3000504442
0.3000456882
0.3000398632
0.3000333111
0.3000263893
0.3000194106
0.3000126162
0.3000061728
0.3000001816
0.2999946934
0.2999897254
0.2999852863
0.2999814428
0.299978584
0.3000558102
0.3000539395
0.3000511996
0.3000475876
0.3000432005
0.300038199
0.3000327706
0.3000271005
0.3000213539
0.3000156668
0.3000101454
0.3000048718
0.2999999251
0.2999954606
0.2999920398
0.3000538634
0.300050392
0.3000456799
0.3000399907
0.3000336766
0.3000270801
0.3000204827
0.3000140885
0.3000080294
0.3000023797
0.2999971727
0.2999924171
0.2999881212
0.2999843588
0.299981534
0.3000489092
0.3000415802
0.3000326095
0.3000229632
0.3000134558
0.3000046259
0.2999967518
0.299989919
0.2999840938
0.2999791793
0.299975055
0.2999716006
0.2999687144
0.2999663488
0.2999646549
0.3000398236
0.3000261641
0.300011495
0.2999977069
0.2999857944
0.2999760662
0.2999684291
0.2999626048
0.2999582628
0.2999550878
0.2999528085
0.2999512038
0.2999501004
0.299949368
0.2999489351
0.300030507
0.3000118723
0.2999944042
0.2999797676
0.2999682814
0.2999596565
0.2999534019
0.2999490133
0.2999460474
0.2999441415
0.2999430107
0.2999424355
0.299942247
0.2999423062
0.299942463
0.3000398237
0.3000261642
0.3000114953
0.2999977073
0.2999857949
0.2999760668
0.2999684298
0.2999626055
0.2999582636
0.2999550887
0.2999528094
0.2999512047
0.2999501013
0.2999493689
0.299948936
0.3000489091
0.3000415802
0.3000326096
0.3000229635
0.3000134562
0.3000046265
0.2999967525
0.29998992
0.2999840948
0.2999791804
0.2999750563
0.299971602
0.2999687158
0.2999663502
0.2999646564
0.3000538632
0.3000503918
0.3000456797
0.3000399907
0.3000336767
0.3000270804
0.3000204832
0.3000140892
0.3000080302
0.3000023807
0.2999971739
0.2999924184
0.2999881227
0.2999843604
0.2999815357
0.3000539393
0.3000511994
0.3000475875
0.3000432005
0.3000381991
0.3000327709
0.300027101
0.3000213546
0.3000156677
0.3000101465
0.3000048731
0.2999999265
0.2999954622
0.2999920416
0.3000566718
0.3000555395
0.3000537988
0.3000513664
0.3000482246
0.3000444181
0.30004004
0.3000352137
0.300030075
0.3000247579
0.3000193862
0.3000140721
0.3000089336
0.3000041797
0.3000004745
0.3000558101
0.3000539395
0.3000511995
0.3000475876
0.3000432005
0.300038199
0.3000327706
0.3000271006
0.300021354
0.300015667
0.3000101457
0.3000048721
0.2999999254
0.2999954609
0.2999920402
0.3000539027
0.3000504445
0.3000456885
0.3000398635
0.3000333112
0.3000263893
0.3000194105
0.300012616
0.3000061724
0.3000001811
0.2999946927
0.2999897247
0.2999852855
0.2999814418
0.299978583
0.3000510794
0.3000453963
0.3000381095
0.3000298273
0.3000211633
0.3000126154
0.3000045309
0.2999971183
0.2999904768
0.2999846283
0.2999795452
0.299975173
0.2999714534
0.2999683738
0.2999661597
0.3000489963
0.3000418501
0.3000332
0.3000238495
0.3000144592
0.3000054952
0.2999972456
0.2999898581
0.29998338
0.2999777918
0.2999730342
0.2999690277
0.2999656929
0.2999629903
0.2999610809
0.3000510795
0.3000453964
0.3000381096
0.3000298275
0.3000211636
0.3000126158
0.3000045313
0.2999971188
0.2999904773
0.2999846289
0.2999795459
0.2999751737
0.2999714542
0.2999683745
0.2999661605
0.3000539028
0.3000504446
0.3000456886
0.3000398637
0.3000333115
0.3000263897
0.300019411
0.3000126167
0.3000061732
0.300000182
0.2999946938
0.2999897258
0.2999852867
0.2999814431
0.2999785843
0.3000558101
0.3000539395
0.3000511995
0.3000475876
0.3000432006
0.3000381993
0.300032771
0.3000271012
0.3000213547
0.3000156678
0.3000101466
0.3000048732
0.2999999266
0.2999954623
0.2999920417
0.3000566718
0.3000555394
0.3000537987
0.3000513664
0.3000482246
0.3000444182
0.3000400402
0.3000352141
0.3000300755
0.3000247586
0.3000193871
0.3000140731
0.3000089348
0.3000041812
0.3000004761
)
;

boundaryField
{
    top
    {
        type            calculated;
        value           nonuniform List<scalar> 
127
(
0.3000566718
0.3000555394
0.3000539394
0.3000504444
0.300045396
0.3000418497
0.3000453959
0.3000504442
0.3000539393
0.3000555394
0.3000537987
0.3000511994
0.3000456883
0.3000381091
0.3000331995
0.300038109
0.3000456882
0.3000511994
0.3000537987
0.3000513663
0.3000475874
0.3000398633
0.3000298269
0.3000238489
0.3000298269
0.3000398632
0.3000475875
0.3000513664
0.3000482244
0.3000432003
0.3000333109
0.3000211629
0.3000144586
0.300021163
0.3000333111
0.3000432005
0.3000482246
0.3000444179
0.3000381988
0.300026389
0.3000126149
0.3000054946
0.3000126151
0.3000263893
0.3000381991
0.3000444182
0.3000400397
0.3000327704
0.3000194101
0.3000045304
0.299997245
0.3000045307
0.3000194106
0.3000327709
0.3000400402
0.3000352134
0.3000271003
0.3000126156
0.2999971177
0.2999898575
0.2999971182
0.3000126162
0.300027101
0.3000352141
0.3000300747
0.3000213537
0.300006172
0.2999904762
0.2999833794
0.2999904768
0.3000061728
0.3000213546
0.3000300755
0.3000247576
0.3000156666
0.3000001806
0.2999846278
0.2999777913
0.2999846284
0.3000001816
0.3000156677
0.3000247586
0.3000193858
0.3000101453
0.2999946923
0.2999795447
0.2999730336
0.2999795454
0.2999946934
0.3000101465
0.3000193871
0.3000140717
0.3000048717
0.2999897242
0.2999751725
0.2999690271
0.2999751733
0.2999897254
0.3000048731
0.3000140731
0.3000089332
0.299999925
0.299985285
0.2999714529
0.2999656923
0.2999714537
0.2999852863
0.2999999265
0.3000089348
0.3000041793
0.2999954605
0.2999814414
0.2999683733
0.2999629899
0.2999683741
0.2999814428
0.2999954622
0.3000041812
0.300000474
0.2999920398
0.2999785825
0.2999661592
0.2999610804
0.2999661601
0.299978584
0.2999920416
0.3000004761
)
;
    }
    bottom
    {
        type            calculated;
        value           nonuniform List<scalar> 
134
(
0.30005581
0.3000539027
0.3000510794
0.3000489963
0.3000510794
0.3000539028
0.3000558102
0.3000566718
0.3000555393
0.3000539393
0.3000504444
0.3000453961
0.3000418499
0.3000453962
0.3000504446
0.3000539395
0.3000555395
0.3000537986
0.3000511993
0.3000456882
0.3000381091
0.3000331996
0.3000381093
0.3000456885
0.3000511996
0.3000537988
0.3000513661
0.3000475872
0.300039863
0.3000298266
0.3000238488
0.3000298269
0.3000398634
0.3000475876
0.3000513664
0.3000482243
0.3000432
0.3000333106
0.3000211624
0.3000144581
0.3000211628
0.3000333111
0.3000432005
0.3000482246
0.3000444176
0.3000381984
0.3000263884
0.3000126142
0.3000054938
0.3000126146
0.300026389
0.300038199
0.3000444181
0.3000400394
0.3000327699
0.3000194094
0.3000045294
0.2999972439
0.3000045299
0.3000194101
0.3000327706
0.30004004
0.300035213
0.3000270997
0.3000126147
0.2999971165
0.2999898561
0.2999971171
0.3000126155
0.3000271005
0.3000352137
0.3000300741
0.300021353
0.3000061709
0.2999904748
0.2999833777
0.2999904754
0.3000061718
0.3000213539
0.300030075
0.3000247569
0.3000156657
0.3000001794
0.2999846261
0.2999777894
0.2999846267
0.3000001804
0.3000156668
0.3000247579
0.3000193851
0.3000101442
0.2999946908
0.2999795428
0.2999730315
0.2999795435
0.299994692
0.3000101454
0.3000193862
0.3000140708
0.3000048705
0.2999897226
0.2999751705
0.2999690249
0.2999751712
0.2999897238
0.3000048718
0.3000140721
0.3000089322
0.2999999236
0.2999852833
0.2999714507
0.29996569
0.2999714515
0.2999852845
0.2999999251
0.3000089336
0.3000041781
0.2999954591
0.2999814395
0.299968371
0.2999629873
0.2999683717
0.2999814408
0.2999954606
0.3000041797
0.3000004727
0.2999920382
0.2999785805
0.2999661568
0.2999610778
0.2999661576
0.2999785819
0.2999920398
0.3000004745
)
;
    }
    side-walls
    {
        type            calculated;
        value           nonuniform List<scalar> 
261
(
0.3000555393
0.3000539393
0.3000504443
0.3000453959
0.3000418497
0.300045396
0.3000504444
0.3000539394
0.3000555394
0.3000537986
0.3000511993
0.3000456881
0.3000381089
0.3000331992
0.300038109
0.3000456883
0.3000511994
0.3000537987
0.3000513661
0.3000475872
0.3000398629
0.3000298264
0.3000238484
0.3000298266
0.3000398632
0.3000475874
0.3000513663
0.3000482243
0.3000432
0.3000333104
0.3000211621
0.3000144577
0.3000211623
0.3000333108
0.3000432002
0.3000482244
0.3000444176
0.3000381984
0.3000263883
0.3000126139
0.3000054934
0.3000126142
0.3000263887
0.3000381987
0.3000444179
0.3000400394
0.3000327698
0.3000194092
0.3000045291
0.2999972434
0.3000045294
0.3000194097
0.3000327703
0.3000400397
0.300035213
0.3000270997
0.3000126146
0.2999971163
0.2999898557
0.2999971166
0.3000126151
0.3000271002
0.3000352134
0.3000300741
0.3000213529
0.3000061708
0.2999904745
0.2999833773
0.2999904749
0.3000061714
0.3000213535
0.3000300747
0.3000247569
0.3000156657
0.3000001792
0.2999846258
0.299977789
0.2999846263
0.3000001799
0.3000156664
0.3000247576
0.3000193851
0.3000101442
0.2999946907
0.2999795426
0.2999730311
0.299979543
0.2999946915
0.300010145
0.3000193858
0.3000140708
0.3000048705
0.2999897225
0.2999751702
0.2999690245
0.2999751707
0.2999897233
0.3000048714
0.3000140717
0.3000089322
0.2999999236
0.2999852832
0.2999714505
0.2999656896
0.299971451
0.2999852841
0.2999999246
0.3000089332
0.3000041781
0.299995459
0.2999814394
0.2999683707
0.299962987
0.2999683713
0.2999814404
0.2999954602
0.3000041793
0.3000004727
0.2999920381
0.2999785804
0.2999661566
0.2999610774
0.2999661572
0.2999785814
0.2999920393
0.300000474
0.3000566718
0.3000558101
0.3000539027
0.3000510794
0.3000489963
0.3000510795
0.3000539028
0.3000558101
0.3000566718
0.3000555395
0.3000539395
0.3000504445
0.3000453963
0.3000418501
0.3000453964
0.3000504446
0.3000539395
0.3000555394
0.3000537988
0.3000511995
0.3000456885
0.3000381095
0.3000332
0.3000381096
0.3000456886
0.3000511995
0.3000537987
0.3000513664
0.3000475876
0.3000398635
0.3000298273
0.3000238495
0.3000298275
0.3000398637
0.3000475876
0.3000513664
0.3000482246
0.3000432005
0.3000333112
0.3000211633
0.3000144592
0.3000211636
0.3000333115
0.3000432006
0.3000482246
0.3000444181
0.300038199
0.3000263893
0.3000126154
0.3000054952
0.3000126158
0.3000263897
0.3000381993
0.3000444182
0.30004004
0.3000327706
0.3000194105
0.3000045309
0.2999972456
0.3000045313
0.300019411
0.300032771
0.3000400402
0.3000352137
0.3000271006
0.300012616
0.2999971183
0.2999898581
0.2999971188
0.3000126167
0.3000271012
0.3000352141
0.300030075
0.300021354
0.3000061724
0.2999904768
0.29998338
0.2999904773
0.3000061732
0.3000213547
0.3000300755
0.3000247579
0.300015667
0.3000001811
0.2999846283
0.2999777918
0.2999846289
0.300000182
0.3000156678
0.3000247586
0.3000193862
0.3000101457
0.2999946927
0.2999795452
0.2999730342
0.2999795459
0.2999946938
0.3000101466
0.3000193871
0.3000140721
0.3000048721
0.2999897247
0.299975173
0.2999690277
0.2999751737
0.2999897258
0.3000048732
0.3000140731
0.3000089336
0.2999999254
0.2999852855
0.2999714534
0.2999656929
0.2999714542
0.2999852867
0.2999999266
0.3000089348
0.3000041797
0.2999954609
0.2999814418
0.2999683738
0.2999629903
0.2999683745
0.2999814431
0.2999954623
0.3000041812
0.3000004745
0.2999920402
0.299978583
0.2999661597
0.2999610809
0.2999661605
0.2999785843
0.2999920417
0.3000004761
)
;
    }
    inlet
    {
        type            calculated;
        value           nonuniform 0();
    }
    outlet
    {
        type            calculated;
        value           nonuniform List<scalar> 
81
(
0.3000004727
0.2999920381
0.2999785804
0.2999661566
0.2999610774
0.2999661572
0.2999785814
0.2999920393
0.300000474
0.2999920382
0.2999815321
0.2999646525
0.2999489321
0.2999424597
0.2999489328
0.2999646537
0.2999815336
0.2999920398
0.2999785805
0.2999646525
0.2999420867
0.2999208446
0.2999120205
0.2999208456
0.2999420884
0.2999646545
0.2999785825
0.2999661568
0.2999489323
0.2999208447
0.2998941803
0.2998830149
0.2998941815
0.2999208468
0.2999489346
0.2999661592
0.2999610778
0.29994246
0.2999120208
0.2998830151
0.2998707593
0.2998830165
0.2999120231
0.2999424625
0.2999610804
0.2999661576
0.2999489333
0.299920846
0.299894182
0.2998830168
0.2998941834
0.2999208482
0.2999489357
0.2999661601
0.2999785819
0.2999646542
0.2999420889
0.2999208473
0.2999120235
0.2999208484
0.2999420907
0.2999646563
0.299978584
0.2999920398
0.299981534
0.2999646549
0.2999489351
0.299942463
0.299948936
0.2999646564
0.2999815357
0.2999920416
0.3000004745
0.2999920402
0.299978583
0.2999661597
0.2999610809
0.2999661605
0.2999785843
0.2999920417
0.3000004761
)
;
    }
    procBoundary1to0
    {
        type            processor;
        value           nonuniform List<scalar> 
97
(
0.3000566718
0.3000566718
0.3000558101
0.3000539028
0.3000510796
0.3000489966
0.3000510796
0.3000539029
0.3000558102
0.3000566719
0.3000569299
0.3000538632
0.3000538632
0.3000538632
0.3000489092
0.3000398239
0.3000305079
0.3000398242
0.3000489095
0.3000538635
0.3000558102
0.3000560549
0.3000538357
0.3000338423
0.3000338423
0.3000338423
0.2999978613
0.2999418316
0.299997863
0.300033844
0.3000489095
0.3000539029
0.300054791
0.3000499766
0.3000333956
0.2998563026
0.2998563026
0.2998563026
0.299465869
0.2998563139
0.2999978629
0.3000398242
0.3000510796
0.3000539032
0.3000463994
0.3000153456
0.2998946664
0.2962915772
0.2962915772
0.2962915772
0.2994658669
0.2994658669
0.2999418312
0.3000305079
0.3000489966
0.300054791
0.3000499767
0.3000333956
0.299986013
0.2998946653
0.2999860137
0.2999978593
0.2999978593
0.2999978593
0.3000398236
0.3000510795
0.3000560549
0.3000538357
0.3000474237
0.3000333955
0.3000153453
0.3000333956
0.3000474237
0.3000489089
0.3000489089
0.3000489089
0.3000539027
0.3000569299
0.3000560418
0.3000538357
0.3000499766
0.3000463994
0.3000499767
0.3000538358
0.3000560418
0.3000558101
0.3000558101
0.3000558101
0.3000573305
0.3000569299
0.3000560549
0.300054791
0.3000539032
0.300054791
0.3000560549
0.3000569299
0.3000573305
)
;
    }
}


// ************************************************************************* //
