/*--------------------------------*- C++ -*----------------------------------*\
| =========                 |                                                 |
| \\      /  F ield         | OpenFOAM: The Open Source CFD Toolbox           |
|  \\    /   O peration     | Version:  4.x                                   |
|   \\  /    A nd           | Web:      www.OpenFOAM.org                      |
|    \\/     M anipulation  |                                                 |
\*---------------------------------------------------------------------------*/
FoamFile
{
    version     2.0;
    format      ascii;
    class       volScalarField;
    location    "4000";
    object      X_CO2;
}
// * * * * * * * * * * * * * * * * * * * * * * * * * * * * * * * * * * * * * //

dimensions      [0 0 0 0 0 0 0];

internalField   nonuniform List<scalar> 
1174
(
0.04000970835
0.04001144888
0.04001388097
0.04001702243
0.04002082855
0.04002520608
0.04003003169
0.04003516966
0.04004048586
0.0400458566
0.0400511697
0.04005630709
0.04006105986
0.04006476426
0.04001130817
0.04001404789
0.04001765953
0.04002204619
0.04002704712
0.04003247485
0.04003814408
0.04004388983
0.04004957593
0.04005509623
0.04006036868
0.04006531427
0.04006977759
0.04007319749
0.04001480285
0.0400195586
0.04002538315
0.04003193488
0.04003885613
0.04004583417
0.04005262776
0.04005907036
0.04006506065
0.04007054786
0.04007551477
0.04007995277
0.04008379525
0.04008665327
0.0400198508
0.04002713728
0.04003541896
0.04004408229
0.04005262944
0.04006071307
0.0400681247
0.04007476515
0.04008061249
0.04008569438
0.04009006538
0.04009378376
0.04009686224
0.04009907542
0.0400233969
0.04003204669
0.04004139668
0.04005078637
0.04005974957
0.0400679983
0.04007538478
0.04008186181
0.0400874488
0.04009220527
0.04009621054
0.04009954412
0.04010224548
0.04010415406
0.04001985075
0.0400271372
0.04003541886
0.04004408217
0.0400526293
0.04006071291
0.04006812454
0.04007476497
0.0400806123
0.04008569419
0.04009006518
0.04009378355
0.04009686204
0.04009907521
0.04001480274
0.04001955844
0.04002538295
0.04003193464
0.04003885586
0.04004583387
0.04005262744
0.04005907001
0.04006506029
0.04007054749
0.04007551438
0.04007995238
0.04008379485
0.04008665287
0.04001130807
0.04001404775
0.04001765936
0.04002204599
0.04002704688
0.04003247456
0.04003814377
0.04004388948
0.04004957555
0.04005509582
0.04006036825
0.04006531381
0.04006977711
0.040073197
0.04000970827
0.04001144878
0.04001388084
0.04001702228
0.04002082836
0.04002520585
0.04003003142
0.04003516935
0.04004048551
0.04004585622
0.04005116928
0.04005630664
0.04006105938
0.04006476375
0.04000943767
0.04001130816
0.04001404788
0.04001765952
0.04002204618
0.04002704711
0.04003247483
0.04003814407
0.04004388982
0.04004957592
0.04005509621
0.04006036867
0.04006531425
0.04006977757
0.04007319748
0.0400148555
0.04001956731
0.04002525595
0.04003156952
0.04003816528
0.04004476183
0.04005115515
0.04005721327
0.04006286186
0.04006806773
0.0400728221
0.04007711676
0.04008087798
0.04008370191
0.04002366684
0.04003263711
0.04004228277
0.0400517894
0.04006061836
0.04006849153
0.04007532315
0.04008114728
0.04008606059
0.04009018364
0.04009363677
0.04009652175
0.04009888619
0.0401005792
0.04003908247
0.04005375107
0.04006753848
0.04007945006
0.04008917716
0.04009681317
0.04010263622
0.04010697699
0.04011015067
0.04011242872
0.04011403211
0.04011513434
0.04011586556
0.04011629762
0.04005337405
0.04007084188
0.04008547783
0.04009696303
0.0401055868
0.04011184024
0.04011622756
0.04011919215
0.04012109667
0.04012222623
0.04012280017
0.04012298737
0.04012292703
0.04012276942
0.04003908226
0.0400537508
0.04006753818
0.04007944975
0.04008917685
0.04009681286
0.04010263592
0.04010697669
0.04011015037
0.04011242843
0.04011403183
0.04011513407
0.0401158653
0.04011629737
0.04002366653
0.04003263674
0.04004228236
0.04005178896
0.04006061789
0.04006849105
0.04007532266
0.04008114679
0.0400860601
0.04009018315
0.04009363629
0.04009652127
0.04009888572
0.04010057873
0.04001485527
0.04001956706
0.04002525566
0.04003156919
0.0400381649
0.04004476142
0.0400511547
0.0400572128
0.04006286136
0.04006806721
0.04007282157
0.04007711621
0.04008087742
0.04008370135
0.04001130807
0.04001404775
0.04001765935
0.04002204597
0.04002704685
0.04003247453
0.04003814372
0.04004388942
0.04004957548
0.04005509574
0.04006036816
0.04006531372
0.04006977702
0.04007319689
0.04001134487
0.04001480285
0.04001955858
0.04002538313
0.04003193486
0.04003885611
0.04004583415
0.04005262774
0.04005907033
0.04006506062
0.04007054783
0.04007551474
0.04007995273
0.04008379521
0.04008665323
0.04001633821
0.04002366685
0.04003263711
0.04004228276
0.0400517894
0.04006061836
0.04006849153
0.04007532314
0.04008114727
0.04008606057
0.04009018362
0.04009363675
0.04009652173
0.04009888617
0.04010057917
0.04004928193
0.04006778041
0.04008430322
0.04009766301
0.04010768539
0.0401147388
0.04011939558
0.04012223958
0.04012377844
0.04012441702
0.0401244617
0.04012413941
0.04012363026
0.04012314212
0.04010533449
0.0401359024
0.0401565506
0.04016837997
0.04017360332
0.04017436782
0.04017236613
0.04016880148
0.04016447543
0.04015989651
0.04015537568
0.04015110864
0.0401472838
0.04014438184
0.04017748487
0.04020720628
0.04021936476
0.04022083695
0.04021643417
0.04020913571
0.04020067901
0.04019203495
0.04018372076
0.04017599187
0.04016895903
0.0401626721
0.04015723826
0.04015320519
0.04010533337
0.04013590128
0.04015654957
0.04016837906
0.04017360251
0.04017436711
0.0401723655
0.04016880093
0.04016447494
0.04015989608
0.04015537529
0.04015110828
0.04014728346
0.04014438151
0.04004928089
0.04006777946
0.04008430228
0.0400976621
0.04010768451
0.04011473797
0.0401193948
0.04012223886
0.04012377776
0.04012441638
0.04012446109
0.04012413883
0.04012362971
0.04012314158
0.0400236665
0.04003263668
0.04004228226
0.04005178884
0.04006061775
0.04006849088
0.04007532248
0.0400811466
0.04008605989
0.04009018294
0.04009363607
0.04009652105
0.0400988855
0.0401005785
0.04001480273
0.04001955841
0.0400253829
0.04003193455
0.04003885574
0.04004583372
0.04005262725
0.0400590698
0.04006506005
0.04007054723
0.04007551411
0.04007995209
0.04008379455
0.04008665255
0.04001416796
0.04001985079
0.04002713724
0.0400354189
0.04004408223
0.04005262937
0.04006071299
0.04006812462
0.04007476506
0.0400806124
0.04008569429
0.04009006529
0.04009378367
0.04009686216
0.04009907533
0.04002542334
0.04003908256
0.04005375108
0.04006753848
0.04007945006
0.04008917715
0.04009681314
0.04010263618
0.04010697694
0.0401101506
0.04011242865
0.04011403204
0.04011513426
0.04011586549
0.04011629755
0.04006738592
0.04010533461
0.04013590236
0.04015655052
0.04016837987
0.04017360321
0.04017436771
0.04017236601
0.04016880137
0.04016447532
0.04015989641
0.04015537559
0.04015110855
0.04014728371
0.04014438176
0.04029476638
0.04033148326
0.04033600732
0.0403235269
0.04030375853
0.04028206587
0.04026109643
0.04024198267
0.04022507521
0.04021035267
0.04019764213
0.04018675286
0.04017764946
0.0401710434
0.04066039433
0.04060858509
0.04053259808
0.04046084202
0.04040042208
0.04035144817
0.04031213413
0.04028050005
0.04025485783
0.04023388623
0.04021658972
0.04020226037
0.04019056607
0.04018220812
0.04029476196
0.04033148018
0.04033600511
0.04032352528
0.04030375734
0.04028206497
0.04026109573
0.04024198211
0.04022507475
0.04021035227
0.04019764179
0.04018675254
0.04017764917
0.04017104312
0.04010533339
0.04013590106
0.04015654923
0.04016837864
0.04017360206
0.04017436665
0.04017236505
0.04016880049
0.04016447452
0.04015989568
0.0401553749
0.04015110791
0.04014728311
0.04014438118
0.04003908216
0.04005375057
0.04006753784
0.04007944933
0.04008917637
0.04009681234
0.04010263538
0.04010697614
0.04011014982
0.04011242788
0.04011403128
0.04011513352
0.04011586476
0.04011629683
0.0400198507
0.04002713709
0.04003541867
0.04004408191
0.04005262897
0.04006071252
0.04006812409
0.04007476448
0.04008061178
0.04008569364
0.04009006461
0.04009378297
0.04009686144
0.0400990746
0.04001625091
0.04002339684
0.04003204657
0.04004139654
0.04005078622
0.04005974941
0.04006799813
0.04007538461
0.04008186164
0.04008744863
0.04009220511
0.04009621038
0.04009954396
0.04010224533
0.04010415391
0.04003473952
0.04005337395
0.04007084161
0.04008547754
0.04009696274
0.04010558653
0.04011183998
0.04011622732
0.04011919193
0.04012109646
0.04012222603
0.04012279999
0.0401229872
0.04012292687
0.04012276927
0.04012341838
0.04017748517
0.04020720595
0.04021936439
0.04022083662
0.04021643389
0.04020913546
0.04020067879
0.04019203475
0.04018372057
0.0401759917
0.04016895887
0.04016267196
0.04015723813
0.04015320507
0.04059940829
0.04066039361
0.04060858426
0.04053259733
0.04046084138
0.04040042153
0.04035144771
0.04031213376
0.04028049973
0.04025485756
0.040233886
0.04021658952
0.0402022602
0.04019056592
0.04018220799
0.0422196018
0.04141387446
0.04097136915
0.0407138607
0.04055501833
0.04045138225
0.04038019627
0.04032904661
0.04029087164
0.04026148297
0.04023830027
0.04021971457
0.04020489942
0.04019446301
0.04066039433
0.04060858172
0.04053259517
0.04046083981
0.04040042039
0.04035144684
0.04031213306
0.04028049915
0.04025485706
0.04023388556
0.04021658912
0.04020225983
0.04019056558
0.04018220767
0.04017748473
0.04020720509
0.04021936336
0.04022083555
0.04021643286
0.0402091345
0.0402006779
0.04019203393
0.04018371981
0.04017599099
0.0401689582
0.04016267133
0.04015723753
0.04015320448
0.04005337386
0.04007084137
0.04008547715
0.04009696223
0.04010558593
0.04011183933
0.04011622664
0.04011919123
0.04012109576
0.04012222533
0.04012279929
0.04012298651
0.04012292619
0.04012276858
0.04002339684
0.04003204651
0.04004139639
0.04005078597
0.04005974908
0.04006799772
0.04007538413
0.0400818611
0.04008744804
0.04009220448
0.04009620973
0.04009954328
0.04010224462
0.04010415319
0.0400141679
0.04001985069
0.04002713708
0.04003541871
0.040044082
0.04005262911
0.04006071271
0.04006812433
0.04007476477
0.0400806121
0.04008569399
0.04009006498
0.04009378336
0.04009686185
0.04009907503
0.04002542305
0.04003908208
0.0400537505
0.04006753785
0.04007944942
0.04008917653
0.04009681254
0.04010263562
0.04010697641
0.04011015011
0.04011242818
0.0401140316
0.04011513385
0.04011586509
0.04011629717
0.0400673846
0.04010533321
0.04013590087
0.04015654916
0.04016837868
0.04017360217
0.04017436681
0.04017236522
0.04016880066
0.04016447469
0.04015989584
0.04015537507
0.04015110808
0.04014728327
0.04014438134
0.0402089385
0.04029476178
0.04033147954
0.04033600446
0.04032352468
0.04030375677
0.04028206444
0.04026109524
0.04024198167
0.04022507435
0.04021035191
0.04019764146
0.04018675226
0.04017764891
0.04017104289
0.04059940781
0.04066039241
0.04060858024
0.04053259402
0.04046083891
0.04040041966
0.04035144623
0.04031213254
0.04028049872
0.04025485669
0.04023388525
0.04021658885
0.0402022596
0.04019056538
0.04018220749
0.04020893915
0.04029476123
0.04033147872
0.04033600364
0.04032352391
0.04030375606
0.04028206379
0.04026109465
0.04024198113
0.04022507385
0.04021035146
0.04019764104
0.04018675186
0.04017764855
0.04017104254
0.04010533467
0.04013590146
0.04015654922
0.04016837843
0.04017360175
0.04017436628
0.04017236465
0.04016880008
0.0401644741
0.04015989526
0.0401553745
0.04015110752
0.04014728272
0.04014438081
0.04003908253
0.04005375083
0.04006753799
0.04007944939
0.04008917636
0.04009681226
0.04010263525
0.04010697598
0.04011014963
0.04011242767
0.04011403106
0.04011513329
0.04011586452
0.04011629659
0.04001985081
0.04002713718
0.04003541875
0.04004408196
0.04005262899
0.0400607125
0.04006812404
0.0400747644
0.04008061167
0.04008569351
0.04009006446
0.04009378281
0.04009686127
0.04009907442
0.04001134479
0.0400148027
0.04001955837
0.04002538286
0.04003193453
0.04003885574
0.04004583374
0.04005262729
0.04005906986
0.04006506012
0.04007054732
0.04007551421
0.04007995221
0.04008379468
0.0400866527
0.04001633793
0.04002366645
0.0400326366
0.04004228219
0.04005178878
0.04006061771
0.04006849086
0.04007532247
0.04008114659
0.0400860599
0.04009018295
0.04009363609
0.04009652108
0.04009888553
0.04010057854
0.04003140315
0.04004928072
0.04006777917
0.04008430197
0.04009766179
0.04010768421
0.04011473768
0.04011939452
0.04012223859
0.0401237775
0.04012441613
0.04012446085
0.04012413861
0.04012362949
0.04012314138
0.04006738467
0.04010533312
0.04013590062
0.04015654879
0.04016837824
0.04017360169
0.04017436631
0.04017236473
0.04016880019
0.04016447424
0.04015989541
0.04015537465
0.04015110768
0.04014728289
0.04014438097
0.04012341832
0.04017748409
0.0402072044
0.04021936274
0.04022083502
0.04021643239
0.04020913408
0.04020067752
0.04019203359
0.0401837195
0.04017599071
0.04016895795
0.0401626711
0.04015723732
0.04015320429
0.04006738453
0.04010533288
0.04013590033
0.04015654849
0.04016837794
0.04017360139
0.04017436603
0.04017236445
0.04016879992
0.04016447397
0.04015989515
0.0401553744
0.04015110743
0.04014728265
0.04014438073
0.0400314036
0.04004928116
0.04006777949
0.04008430215
0.04009766183
0.04010768413
0.04011473751
0.04011939428
0.0401222383
0.04012377718
0.04012441578
0.04012446048
0.04012413822
0.0401236291
0.04012314098
0.04002366686
0.04003263691
0.0400422824
0.04005178889
0.04006061772
0.04006849079
0.04007532232
0.04008114638
0.04008605963
0.04009018264
0.04009363573
0.04009652069
0.04009888511
0.0401005781
0.04001480286
0.04001955854
0.04002538301
0.04003193463
0.04003885578
0.04004583372
0.04005262721
0.04005906971
0.04006505991
0.04007054705
0.04007551389
0.04007995184
0.04008379427
0.04008665225
0.0400094376
0.04001130805
0.04001404771
0.0400176593
0.04002204591
0.04002704678
0.04003247446
0.04003814365
0.04004388935
0.04004957541
0.04005509567
0.04006036809
0.04006531365
0.04006977695
0.04007319683
0.04001138417
0.04001485524
0.040019567
0.04002525558
0.04003156911
0.04003816481
0.04004476131
0.04005115459
0.04005721267
0.04006286123
0.04006806707
0.04007282142
0.04007711606
0.04008087727
0.0400837012
0.04001633796
0.04002366648
0.04003263661
0.04004228218
0.04005178875
0.04006061765
0.04006849078
0.04007532237
0.04008114648
0.04008605976
0.0400901828
0.04009363593
0.04009652091
0.04009888535
0.04010057835
0.0400254231
0.04003908208
0.04005375042
0.04006753768
0.04007944916
0.0400891762
0.04009681216
0.0401026352
0.04010697596
0.04011014963
0.0401124277
0.0401140311
0.04011513334
0.04011586458
0.04011629666
0.04003473948
0.04005337366
0.04007084112
0.04008547688
0.04009696198
0.04010558569
0.04011183911
0.04011622643
0.04011919103
0.04012109556
0.04012222514
0.04012279911
0.04012298633
0.04012292601
0.04012276842
0.04002542305
0.040039082
0.04005375033
0.04006753756
0.04007944903
0.04008917605
0.040096812
0.04010263503
0.04010697578
0.04011014945
0.04011242751
0.04011403091
0.04011513315
0.04011586439
0.04011629646
0.04001633798
0.0400236665
0.04003263662
0.04004228215
0.04005178866
0.04006061752
0.0400684906
0.04007532215
0.04008114623
0.04008605949
0.04009018251
0.04009363562
0.04009652059
0.04009888502
0.04010057802
0.04001138425
0.04001485534
0.0400195671
0.04002525565
0.04003156913
0.04003816478
0.04004476124
0.04005115446
0.0400572125
0.04006286101
0.04006806682
0.04007282113
0.04007711574
0.04008087692
0.04008370082
0.04001130816
0.04001404782
0.0400176594
0.04002204599
0.04002704683
0.04003247447
0.04003814361
0.04004388927
0.04004957527
0.04005509549
0.04006036786
0.04006531337
0.04006977663
0.04007319648
0.04000857603
0.04000970826
0.04001144875
0.0400138808
0.04001702222
0.04002082828
0.04002520576
0.04003003132
0.04003516923
0.04004048538
0.04004585607
0.04005116912
0.04005630647
0.04006105921
0.04006476358
0.04000943761
0.04001130806
0.04001404773
0.04001765932
0.04002204593
0.0400270468
0.04003247447
0.04003814365
0.04004388935
0.04004957539
0.04005509564
0.04006036806
0.0400653136
0.04006977689
0.04007319676
0.04001134481
0.04001480273
0.04001955839
0.04002538287
0.04003193452
0.0400388557
0.04004583368
0.0400526272
0.04005906974
0.04006505998
0.04007054715
0.04007551402
0.04007995199
0.04008379444
0.04008665244
0.04001416791
0.04001985067
0.04002713702
0.04003541859
0.04004408181
0.04005262886
0.0400607124
0.04006812397
0.04007476435
0.04008061164
0.0400856935
0.04009006447
0.04009378283
0.0400968613
0.04009907446
0.04001625088
0.04002339673
0.04003204635
0.04004139621
0.04005078578
0.04005974888
0.04006799752
0.04007538393
0.04008186091
0.04008744785
0.0400922043
0.04009620955
0.04009954311
0.04010224446
0.04010415303
0.04001416788
0.04001985061
0.04002713694
0.04003541849
0.0400440817
0.04005262873
0.04006071226
0.04006812381
0.04007476418
0.04008061146
0.04008569332
0.04009006428
0.04009378263
0.0400968611
0.04009907426
0.04001134479
0.04001480269
0.04001955833
0.04002538278
0.04003193439
0.04003885554
0.04004583348
0.04005262697
0.04005906948
0.0400650597
0.04007054685
0.0400755137
0.04007995166
0.0400837941
0.0400866521
0.04000943762
0.04001130808
0.04001404774
0.04001765932
0.04002204591
0.04002704675
0.04003247438
0.04003814353
0.04004388919
0.0400495752
0.04005509541
0.0400603678
0.04006531331
0.04006977657
0.04007319643
0.04000857605
0.0400097083
0.0400114488
0.04001388085
0.04001702227
0.04002082832
0.04002520577
0.0400300313
0.04003516918
0.04004048529
0.04004585594
0.04005116896
0.04005630627
0.04006105897
0.0400647633
)
;

boundaryField
{
    top
    {
        type            calculated;
        value           nonuniform List<scalar> 
127
(
0.04000857605
0.04000970827
0.04001130807
0.04001480273
0.0400198507
0.04002339684
0.04001985081
0.04001480286
0.04001130816
0.0400097083
0.04001144878
0.04001404775
0.04001955841
0.04002713709
0.04003204651
0.04002713718
0.04001955854
0.04001404782
0.0400114488
0.04001388084
0.04001765935
0.0400253829
0.04003541867
0.04004139639
0.04003541875
0.04002538301
0.0400176594
0.04001388085
0.04001702228
0.04002204597
0.04003193455
0.04004408191
0.04005078597
0.04004408196
0.04003193463
0.04002204599
0.04001702227
0.04002082836
0.04002704685
0.04003885574
0.04005262897
0.04005974908
0.04005262899
0.04003885578
0.04002704683
0.04002082832
0.04002520585
0.04003247453
0.04004583372
0.04006071252
0.04006799772
0.0400607125
0.04004583372
0.04003247447
0.04002520577
0.04003003142
0.04003814372
0.04005262725
0.04006812409
0.04007538413
0.04006812404
0.04005262721
0.04003814361
0.0400300313
0.04003516935
0.04004388942
0.0400590698
0.04007476448
0.0400818611
0.0400747644
0.04005906971
0.04004388927
0.04003516918
0.04004048551
0.04004957548
0.04006506005
0.04008061178
0.04008744804
0.04008061167
0.04006505991
0.04004957527
0.04004048529
0.04004585622
0.04005509574
0.04007054723
0.04008569364
0.04009220448
0.04008569351
0.04007054705
0.04005509549
0.04004585594
0.04005116928
0.04006036816
0.04007551411
0.04009006461
0.04009620973
0.04009006446
0.04007551389
0.04006036786
0.04005116896
0.04005630664
0.04006531372
0.04007995209
0.04009378297
0.04009954328
0.04009378281
0.04007995184
0.04006531337
0.04005630627
0.04006105938
0.04006977702
0.04008379455
0.04009686144
0.04010224462
0.04009686127
0.04008379427
0.04006977663
0.04006105897
0.04006476375
0.04007319689
0.04008665255
0.0400990746
0.04010415319
0.04009907442
0.04008665225
0.04007319648
0.0400647633
)
;
    }
    bottom
    {
        type            calculated;
        value           nonuniform List<scalar> 
134
(
0.04000943767
0.04001134487
0.04001416796
0.04001625091
0.0400141679
0.04001134479
0.0400094376
0.04000857603
0.04000970835
0.04001130816
0.04001480285
0.04001985079
0.04002339684
0.04001985069
0.0400148027
0.04001130805
0.04000970826
0.04001144888
0.04001404788
0.04001955858
0.04002713724
0.04003204657
0.04002713708
0.04001955837
0.04001404771
0.04001144875
0.04001388097
0.04001765952
0.04002538313
0.0400354189
0.04004139654
0.04003541871
0.04002538286
0.0400176593
0.0400138808
0.04001702243
0.04002204618
0.04003193486
0.04004408223
0.04005078622
0.040044082
0.04003193453
0.04002204591
0.04001702222
0.04002082855
0.04002704711
0.04003885611
0.04005262937
0.04005974941
0.04005262911
0.04003885574
0.04002704678
0.04002082828
0.04002520608
0.04003247483
0.04004583415
0.04006071299
0.04006799813
0.04006071271
0.04004583374
0.04003247446
0.04002520576
0.04003003169
0.04003814407
0.04005262774
0.04006812462
0.04007538461
0.04006812433
0.04005262729
0.04003814365
0.04003003132
0.04003516966
0.04004388982
0.04005907033
0.04007476506
0.04008186164
0.04007476477
0.04005906986
0.04004388935
0.04003516923
0.04004048586
0.04004957592
0.04006506062
0.0400806124
0.04008744863
0.0400806121
0.04006506012
0.04004957541
0.04004048538
0.0400458566
0.04005509621
0.04007054783
0.04008569429
0.04009220511
0.04008569399
0.04007054732
0.04005509567
0.04004585607
0.0400511697
0.04006036867
0.04007551474
0.04009006529
0.04009621038
0.04009006498
0.04007551421
0.04006036809
0.04005116912
0.04005630709
0.04006531425
0.04007995273
0.04009378367
0.04009954396
0.04009378336
0.04007995221
0.04006531365
0.04005630647
0.04006105986
0.04006977757
0.04008379521
0.04009686216
0.04010224533
0.04009686185
0.04008379468
0.04006977695
0.04006105921
0.04006476426
0.04007319748
0.04008665323
0.04009907533
0.04010415391
0.04009907503
0.0400866527
0.04007319683
0.04006476358
)
;
    }
    side-walls
    {
        type            calculated;
        value           nonuniform List<scalar> 
261
(
0.04000970835
0.04001130817
0.04001480285
0.0400198508
0.0400233969
0.04001985075
0.04001480274
0.04001130807
0.04000970827
0.04001144888
0.04001404789
0.0400195586
0.04002713728
0.04003204669
0.0400271372
0.04001955844
0.04001404775
0.04001144878
0.04001388097
0.04001765953
0.04002538315
0.04003541896
0.04004139668
0.04003541886
0.04002538295
0.04001765936
0.04001388084
0.04001702243
0.04002204619
0.04003193488
0.04004408229
0.04005078637
0.04004408217
0.04003193464
0.04002204599
0.04001702228
0.04002082855
0.04002704712
0.04003885613
0.04005262944
0.04005974957
0.0400526293
0.04003885586
0.04002704688
0.04002082836
0.04002520608
0.04003247485
0.04004583417
0.04006071307
0.0400679983
0.04006071291
0.04004583387
0.04003247456
0.04002520585
0.04003003169
0.04003814408
0.04005262776
0.0400681247
0.04007538478
0.04006812454
0.04005262744
0.04003814377
0.04003003142
0.04003516966
0.04004388983
0.04005907036
0.04007476515
0.04008186181
0.04007476497
0.04005907001
0.04004388948
0.04003516935
0.04004048586
0.04004957593
0.04006506065
0.04008061249
0.0400874488
0.0400806123
0.04006506029
0.04004957555
0.04004048551
0.0400458566
0.04005509623
0.04007054786
0.04008569438
0.04009220527
0.04008569419
0.04007054749
0.04005509582
0.04004585622
0.0400511697
0.04006036868
0.04007551477
0.04009006538
0.04009621054
0.04009006518
0.04007551438
0.04006036825
0.04005116928
0.04005630709
0.04006531427
0.04007995277
0.04009378376
0.04009954412
0.04009378355
0.04007995238
0.04006531381
0.04005630664
0.04006105986
0.04006977759
0.04008379525
0.04009686224
0.04010224548
0.04009686204
0.04008379485
0.04006977711
0.04006105938
0.04006476426
0.04007319749
0.04008665327
0.04009907542
0.04010415406
0.04009907521
0.04008665287
0.040073197
0.04006476375
0.04000857603
0.04000943761
0.04001134481
0.04001416791
0.04001625088
0.04001416788
0.04001134479
0.04000943762
0.04000857605
0.04000970826
0.04001130806
0.04001480273
0.04001985067
0.04002339673
0.04001985061
0.04001480269
0.04001130808
0.0400097083
0.04001144875
0.04001404773
0.04001955839
0.04002713702
0.04003204635
0.04002713694
0.04001955833
0.04001404774
0.0400114488
0.0400138808
0.04001765932
0.04002538287
0.04003541859
0.04004139621
0.04003541849
0.04002538278
0.04001765932
0.04001388085
0.04001702222
0.04002204593
0.04003193452
0.04004408181
0.04005078578
0.0400440817
0.04003193439
0.04002204591
0.04001702227
0.04002082828
0.0400270468
0.0400388557
0.04005262886
0.04005974888
0.04005262873
0.04003885554
0.04002704675
0.04002082832
0.04002520576
0.04003247447
0.04004583368
0.0400607124
0.04006799752
0.04006071226
0.04004583348
0.04003247438
0.04002520577
0.04003003132
0.04003814365
0.0400526272
0.04006812397
0.04007538393
0.04006812381
0.04005262697
0.04003814353
0.0400300313
0.04003516923
0.04004388935
0.04005906974
0.04007476435
0.04008186091
0.04007476418
0.04005906948
0.04004388919
0.04003516918
0.04004048538
0.04004957539
0.04006505998
0.04008061164
0.04008744785
0.04008061146
0.0400650597
0.0400495752
0.04004048529
0.04004585607
0.04005509564
0.04007054715
0.0400856935
0.0400922043
0.04008569332
0.04007054685
0.04005509541
0.04004585594
0.04005116912
0.04006036806
0.04007551402
0.04009006447
0.04009620955
0.04009006428
0.0400755137
0.0400603678
0.04005116896
0.04005630647
0.0400653136
0.04007995199
0.04009378283
0.04009954311
0.04009378263
0.04007995166
0.04006531331
0.04005630627
0.04006105921
0.04006977689
0.04008379444
0.0400968613
0.04010224446
0.0400968611
0.0400837941
0.04006977657
0.04006105897
0.04006476358
0.04007319676
0.04008665244
0.04009907446
0.04010415303
0.04009907426
0.0400866521
0.04007319643
0.0400647633
)
;
    }
    inlet
    {
        type            calculated;
        value           nonuniform 0();
    }
    outlet
    {
        type            calculated;
        value           nonuniform List<scalar> 
81
(
0.04006476426
0.04007319749
0.04008665327
0.04009907542
0.04010415406
0.04009907521
0.04008665287
0.040073197
0.04006476375
0.04007319748
0.04008370191
0.0401005792
0.04011629762
0.04012276942
0.04011629737
0.04010057873
0.04008370135
0.04007319689
0.04008665323
0.04010057917
0.04012314212
0.04014438184
0.04015320519
0.04014438151
0.04012314158
0.0401005785
0.04008665255
0.04009907533
0.04011629755
0.04014438176
0.0401710434
0.04018220812
0.04017104312
0.04014438118
0.04011629683
0.0400990746
0.04010415391
0.04012276927
0.04015320507
0.04018220799
0.04019446301
0.04018220767
0.04015320448
0.04012276858
0.04010415319
0.04009907503
0.04011629717
0.04014438134
0.04017104289
0.04018220749
0.04017104254
0.04014438081
0.04011629659
0.04009907442
0.0400866527
0.04010057854
0.04012314138
0.04014438097
0.04015320429
0.04014438073
0.04012314098
0.0401005781
0.04008665225
0.04007319683
0.0400837012
0.04010057835
0.04011629666
0.04012276842
0.04011629646
0.04010057802
0.04008370082
0.04007319648
0.04006476358
0.04007319676
0.04008665244
0.04009907446
0.04010415303
0.04009907426
0.0400866521
0.04007319643
0.0400647633
)
;
    }
    procBoundary1to0
    {
        type            processor;
        value           nonuniform List<scalar> 
97
(
0.04000857606
0.04000857606
0.04000943763
0.0400113448
0.04001416784
0.04001625079
0.04001416781
0.04001134473
0.04000943757
0.04000857601
0.04000831801
0.04001138428
0.04001138428
0.04001138428
0.04001633801
0.04002542298
0.0400347392
0.04002542282
0.04001633779
0.0400113841
0.04000943757
0.04000919294
0.04001141193
0.04003140373
0.04003140373
0.04003140373
0.0400673847
0.04012341708
0.04006738367
0.04003140278
0.04001633779
0.04001134473
0.0400104567
0.04001527079
0.0400318513
0.04020894233
0.04020894233
0.04020894233
0.04059940449
0.04020893609
0.04006738377
0.04002542279
0.0400141678
0.04001134442
0.04001884783
0.04004990105
0.04017058238
0.04377393863
0.04377393863
0.04377393863
0.04059940547
0.04059940547
0.04012341729
0.04003473916
0.04001625078
0.04001045668
0.04001527069
0.04003185108
0.04007923287
0.0401705824
0.04007923284
0.0400673855
0.0400673855
0.0400673855
0.04002542314
0.04001416788
0.04000919292
0.04001141187
0.04001782344
0.04003185115
0.04004990115
0.0400318511
0.04001782353
0.04001633814
0.04001633814
0.04001633814
0.04001134484
0.04000831799
0.04000920606
0.04001141188
0.04001527074
0.04001884786
0.04001527072
0.04001141188
0.04000920608
0.04000943765
0.04000943765
0.04000943765
0.04000791746
0.040008318
0.04000919293
0.0400104567
0.04001134442
0.04001045668
0.04000919292
0.040008318
0.04000791746
)
;
    }
}


// ************************************************************************* //
