/*--------------------------------*- C++ -*----------------------------------*\
| =========                 |                                                 |
| \\      /  F ield         | OpenFOAM: The Open Source CFD Toolbox           |
|  \\    /   O peration     | Version:  4.x                                   |
|   \\  /    A nd           | Web:      www.OpenFOAM.org                      |
|    \\/     M anipulation  |                                                 |
\*---------------------------------------------------------------------------*/
FoamFile
{
    version     2.0;
    format      ascii;
    class       volScalarField;
    location    "4000";
    object      X_H2O;
}
// * * * * * * * * * * * * * * * * * * * * * * * * * * * * * * * * * * * * * //

dimensions      [0 0 0 0 0 0 0];

internalField   nonuniform List<scalar> 
1174
(
1.723667161e-05
1.883576567e-05
2.106993675e-05
2.395533943e-05
2.745062698e-05
3.146990936e-05
3.589968067e-05
4.061510379e-05
4.549287725e-05
5.041931872e-05
5.529144498e-05
6.00009692e-05
6.43566011e-05
6.775063154e-05
1.870748567e-05
2.122497681e-05
2.454317677e-05
2.857274003e-05
3.316566276e-05
3.814944903e-05
4.335371529e-05
4.862676557e-05
5.38434848e-05
5.890640177e-05
6.374025904e-05
6.827268938e-05
7.236160091e-05
7.549362889e-05
2.19205638e-05
2.629117368e-05
3.164313725e-05
3.766205722e-05
4.401897891e-05
5.042632872e-05
5.666238781e-05
6.257416432e-05
6.806871227e-05
7.30995525e-05
7.765105026e-05
8.171563897e-05
8.52328504e-05
8.784768603e-05
2.656220027e-05
3.325920904e-05
4.086943562e-05
4.882849266e-05
5.667862329e-05
6.410059317e-05
7.090295333e-05
7.699477933e-05
8.235617804e-05
8.701285065e-05
9.101520774e-05
9.441717729e-05
9.723122834e-05
9.925267823e-05
2.982320796e-05
3.777349425e-05
4.636549169e-05
5.499167583e-05
6.322347815e-05
7.079633527e-05
7.757468203e-05
8.351541752e-05
8.863670888e-05
9.29935521e-05
9.665915094e-05
9.970691466e-05
0.0001021739256
0.0001039151406
2.656209199e-05
3.325904635e-05
4.086921125e-05
4.882818553e-05
5.667821602e-05
6.410007244e-05
7.090232311e-05
7.699402858e-05
8.235531171e-05
8.701188895e-05
9.101415274e-05
9.441603907e-05
9.723000463e-05
9.925138989e-05
2.192036914e-05
2.629091508e-05
3.164279487e-05
3.766160912e-05
4.401838466e-05
5.042556947e-05
5.666143694e-05
6.257302536e-05
6.806738111e-05
7.309802873e-05
7.764934783e-05
8.171376017e-05
8.523080535e-05
8.784549053e-05
1.870731061e-05
2.122476715e-05
2.454291101e-05
2.857238326e-05
3.316517511e-05
3.814879616e-05
4.335286233e-05
4.862568136e-05
5.384216332e-05
5.890482786e-05
6.373842144e-05
6.82705958e-05
7.235925303e-05
7.549106584e-05
1.723654603e-05
1.88356361e-05
2.106977682e-05
2.395511231e-05
2.745029462e-05
3.146942657e-05
3.589900164e-05
4.061418911e-05
4.549169566e-05
5.041785592e-05
5.528967835e-05
5.99988893e-05
6.435418208e-05
6.774788785e-05
1.698836857e-05
1.870736478e-05
2.122486357e-05
2.454307088e-05
2.857263343e-05
3.316555139e-05
3.814934033e-05
4.335360812e-05
4.862666339e-05
5.384338812e-05
5.890630778e-05
6.374015828e-05
6.827258854e-05
7.236150442e-05
7.549353469e-05
2.196925308e-05
2.629952341e-05
3.152665114e-05
3.73268208e-05
4.338473942e-05
4.944169852e-05
5.531016516e-05
6.086893509e-05
6.604982437e-05
7.08224957e-05
7.51790712e-05
7.91123194e-05
8.255519753e-05
8.513891935e-05
3.007193297e-05
3.831699658e-05
4.718100389e-05
5.591494971e-05
6.402365396e-05
7.125164092e-05
7.752037178e-05
8.286147423e-05
8.736409522e-05
9.113933766e-05
9.429808121e-05
9.693418058e-05
9.909210277e-05
0.0001006355777
4.424908621e-05
5.773291489e-05
7.040329776e-05
8.134584043e-05
9.027729234e-05
9.728412368e-05
0.0001026226527
0.0001065973573
0.000109498408
0.0001115756462
0.0001130324517
0.0001140285737
0.0001146843467
0.0001150681813
5.73938379e-05
7.345087858e-05
8.689996762e-05
9.744856502e-05
0.0001053636128
0.0001110974945
0.0001151144616
0.0001178226533
0.0001195558676
0.0001205764503
0.0001210862589
0.0001212407651
0.0001211685839
0.0001210101523
4.424861034e-05
5.773234261e-05
7.040261648e-05
8.134503219e-05
9.027634168e-05
9.728303506e-05
0.0001026214307
0.0001065960328
0.0001094969784
0.0001115741327
0.0001130308807
0.0001140269701
0.0001146826987
0.000115066494
3.007133768e-05
3.831634205e-05
4.718023238e-05
5.591399872e-05
6.402248766e-05
7.125024056e-05
7.751873483e-05
8.285960939e-05
8.736202038e-05
9.11370809e-05
9.429566533e-05
9.693160628e-05
9.908941171e-05
0.000100632762
2.196887424e-05
2.629915209e-05
3.152619366e-05
3.732620229e-05
4.33839119e-05
4.944061111e-05
5.530878973e-05
6.086726204e-05
6.604785106e-05
7.082023774e-05
7.517654392e-05
7.910952544e-05
8.255215999e-05
8.513566307e-05
1.870732113e-05
2.122476725e-05
2.454288561e-05
2.85723146e-05
3.316504106e-05
3.814858795e-05
4.335256403e-05
4.862529065e-05
5.384166967e-05
5.890423278e-05
6.373772182e-05
6.826979834e-05
7.235835953e-05
7.54900289e-05
1.874190414e-05
2.192027992e-05
2.629087749e-05
3.164283581e-05
3.766175429e-05
4.401867214e-05
5.042601654e-05
5.666206969e-05
6.257386549e-05
6.806842571e-05
7.309926434e-05
7.765076386e-05
8.171536248e-05
8.523257365e-05
8.784742035e-05
2.333427747e-05
3.007155564e-05
3.831667715e-05
4.71807157e-05
5.591467564e-05
6.402339362e-05
7.125139583e-05
7.75201357e-05
8.286124455e-05
8.736387529e-05
9.113914152e-05
9.429788454e-05
9.693397361e-05
9.909191495e-05
0.0001006354093
5.363004896e-05
7.063460776e-05
8.581883339e-05
9.809134173e-05
0.0001072925359
0.0001137620402
0.0001180268156
0.0001206242564
0.0001220214451
0.0001225908623
0.000122614362
0.0001223007755
0.0001218162874
0.0001213542512
0.0001051865062
0.0001332863768
0.0001522579999
0.0001631160249
0.0001678974029
0.0001685781185
0.0001667155714
0.0001634166295
0.0001594185454
0.0001551889137
0.0001510135865
0.0001470725479
0.0001435393905
0.0001408581236
0.0001715554325
0.0001988710941
0.0002100282666
0.0002113552896
0.0002072794962
0.0002005420718
0.0001927412926
0.0001847700367
0.0001771037314
0.0001699770895
0.0001634917468
0.0001576934196
0.0001526809675
0.0001489597804
0.0001051841632
0.0001332841196
0.0001522557042
0.0001631136326
0.0001678949142
0.0001685755721
0.000166712987
0.0001634140691
0.0001594159931
0.0001551864015
0.0001510111265
0.0001470701236
0.0001435370264
0.0001408557559
5.362819092e-05
7.063294498e-05
8.581700972e-05
9.808918573e-05
0.000107290025
0.0001137592049
0.0001180237158
0.0001206209545
0.0001220179773
0.0001225872802
0.0001226107068
0.0001222970688
0.0001218125448
0.0001213504576
3.007133973e-05
3.831623861e-05
4.717997837e-05
5.591355311e-05
6.402183507e-05
7.124940168e-05
7.751772504e-05
8.285844931e-05
8.736074234e-05
9.113569337e-05
9.429417618e-05
9.69300423e-05
9.908776949e-05
0.0001006310639
2.192039457e-05
2.629087467e-05
3.164262981e-05
3.766126079e-05
4.401781522e-05
5.042474643e-05
5.666035821e-05
6.257168798e-05
6.806579201e-05
7.309620105e-05
7.764729409e-05
8.171150282e-05
8.522836332e-05
8.784284075e-05
2.133786418e-05
2.656172777e-05
3.325868325e-05
4.086887577e-05
4.882790641e-05
5.667802348e-05
6.409998517e-05
7.090234925e-05
7.699417568e-05
8.235559052e-05
8.70122797e-05
9.101465832e-05
9.441663995e-05
9.723069491e-05
9.925217577e-05
3.168975604e-05
4.424830174e-05
5.773216589e-05
7.040258637e-05
8.134517401e-05
9.027665861e-05
9.728351797e-05
0.0001026220384
0.0001065967713
0.0001094978548
0.0001115751113
0.0001130319406
0.0001140280978
0.0001146838934
0.000115067751
7.028988369e-05
0.0001051849341
0.0001332851927
0.0001522570603
0.0001631152097
0.0001678966878
0.0001685774845
0.0001667149986
0.0001634161372
0.0001594180865
0.0001551885029
0.0001510132157
0.0001470721884
0.0001435390672
0.0001408577987
0.0002794439287
0.0003131805775
0.0003173035867
0.0003057876978
0.000287572337
0.0002675913982
0.0002482796625
0.0002306780222
0.000215108221
0.0002015500584
0.0001898439148
0.0001798140722
0.00017142806
0.0001653416372
0.0006158104107
0.0005680839879
0.0004981274237
0.0004320752724
0.0003764614757
0.0003313843859
0.0002951987149
0.0002660814421
0.0002424785762
0.0002231738745
0.0002072509679
0.0001940583452
0.0001832904991
0.0001755936305
0.000279435439
0.0003131744318
0.0003172980654
0.0003057824447
0.0002875673625
0.0002675867318
0.0002482752582
0.0002306738995
0.000215104387
0.0002015464259
0.0001898405195
0.0001798108755
0.0001714250194
0.0001653386643
0.0001051843753
0.0001332834315
0.0001522541615
0.0001631114273
0.0001678922422
0.0001685726281
0.0001667098978
0.0001634109377
0.0001594128795
0.0001551833404
0.000151008145
0.0001470672075
0.0001435341752
0.0001408529539
4.424864098e-05
5.773189414e-05
7.040155179e-05
8.134334181e-05
9.027409008e-05
9.728029566e-05
0.0001026183053
0.0001065926014
0.0001094933162
0.0001115703193
0.0001130269361
0.0001140229251
0.000114678597
0.0001150623091
2.656213554e-05
3.325887553e-05
4.086868398e-05
4.882720562e-05
5.667673978e-05
6.409808117e-05
7.089983178e-05
7.699106288e-05
8.235192059e-05
8.700812203e-05
9.101005411e-05
9.44116514e-05
9.722536481e-05
9.924647752e-05
2.325347964e-05
2.982262078e-05
3.777280582e-05
4.636471334e-05
5.499084301e-05
6.322261622e-05
7.079545993e-05
7.75737983e-05
8.351454769e-05
8.863584561e-05
9.299271896e-05
9.66583248e-05
9.970612616e-05
0.0001021731557
0.0001039143916
4.025884566e-05
5.739264787e-05
7.344959719e-05
8.689866792e-05
9.744728389e-05
0.0001053623773
0.0001110963197
0.0001151133422
0.0001178216097
0.0001195548876
0.0001205755287
0.0001210853824
0.0001212399567
0.0001211678037
0.0001210093976
0.0001218347171
0.0001715529111
0.000198868638
0.0002100260848
0.0002113533938
0.0002072778714
0.0002005406676
0.0001927400506
0.0001847689034
0.000177102717
0.000169976191
0.0001634909478
0.0001576927133
0.0001526802956
0.0001489591536
0.0005597625467
0.0006158026524
0.0005680789665
0.0004981240275
0.0004320727987
0.0003764595564
0.0003313828745
0.0002951974821
0.0002660804225
0.0002424777091
0.0002231731528
0.0002072503533
0.0001940578277
0.0001832900427
0.0001755932188
0.002050377417
0.001308926118
0.0009017380216
0.0006647890146
0.000518631215
0.0004232715586
0.0003577701033
0.0003107040262
0.0002755756667
0.000248531095
0.00022719619
0.0002100904907
0.0001964537841
0.0001868463908
0.0006158107964
0.0005680759391
0.000498117293
0.000432065395
0.0003764524049
0.0003313763696
0.0002951915801
0.0002660750872
0.0002424728534
0.0002231686947
0.0002072462298
0.0001940539803
0.0001832864535
0.0001755897592
0.0001715559647
0.0001988679194
0.0002100226281
0.0002113482619
0.0002072718532
0.0002005342535
0.0001927335136
0.0001847624303
0.0001770963887
0.0001699700604
0.000163485002
0.0001576869468
0.0001526747164
0.0001489536555
5.739396003e-05
7.344979538e-05
8.689760311e-05
9.744506362e-05
0.0001053591874
0.0001110923414
0.0001151087656
0.0001178165876
0.000119549522
0.0001205699404
0.0001210796303
0.0001212340878
0.000121161844
0.0001210033482
2.982330454e-05
3.777317814e-05
4.63645492e-05
5.49899931e-05
6.322101809e-05
7.079309539e-05
7.757072415e-05
8.351081426e-05
8.863151599e-05
9.298786951e-05
9.665303942e-05
9.970044639e-05
0.0001021671398
0.0001039080184
2.133781344e-05
2.656157314e-05
3.325839513e-05
4.086844089e-05
4.88273285e-05
5.667729275e-05
6.409910588e-05
7.090133053e-05
7.699302254e-05
8.235431767e-05
8.70108945e-05
9.101317541e-05
9.441507663e-05
9.722906596e-05
9.925046476e-05
3.168928257e-05
4.42474826e-05
5.773105345e-05
7.040124161e-05
8.134363209e-05
9.027494484e-05
9.728166701e-05
0.0001026201038
0.0001065947551
0.0001094957813
0.0001115730121
0.0001130298086
0.0001140259368
0.0001146817067
0.000115065529
7.028625054e-05
0.0001051815043
0.0001332814769
0.0001522532201
0.0001631113507
0.0001678928535
0.0001685737286
0.0001667113331
0.0001634125631
0.000159414636
0.0001551851529
0.0001510100032
0.0001470691013
0.0001435360731
0.0001408548574
0.000200506623
0.0002794289643
0.0003131692053
0.000317293847
0.0003057790526
0.0002875645619
0.0002675843641
0.000248273232
0.0002306721849
0.0002151029125
0.0002015451476
0.0001898393811
0.0001798098645
0.0001714241076
0.0001653378331
0.000559760783
0.0006157999264
0.0005680690493
0.0004981126935
0.0004320620919
0.0003764499902
0.0003313744083
0.0002951900074
0.0002660738651
0.0002424718749
0.0002231678315
0.0002072455062
0.0001940533428
0.000183285891
0.0001755892647
0.0002005091752
0.0002794287521
0.0003131663439
0.0003172893284
0.0003057737325
0.0002875590185
0.0002675789406
0.000248268071
0.0002306673046
0.0002150983634
0.0002015409041
0.0001898354266
0.0001798061374
0.0001714205902
0.0001653344151
0.0001051866988
0.0001332827426
0.0001522517119
0.0001631079734
0.0001678882777
0.0001685684262
0.0001667056509
0.0001634067304
0.0001594087907
0.0001551793878
0.0001510043182
0.0001470635346
0.0001435306294
0.0001408494721
4.424947692e-05
5.773203813e-05
7.040102308e-05
8.134222756e-05
9.027249242e-05
9.727835172e-05
0.0001026161145
0.0001065902225
0.0001094908294
0.0001115677482
0.0001130243136
0.0001140202679
0.0001146759191
0.0001150596048
2.656238895e-05
3.325897192e-05
4.086853759e-05
4.882677033e-05
5.667600085e-05
6.40970577e-05
7.089854522e-05
7.698956233e-05
8.235023438e-05
8.7006261e-05
9.100806811e-05
9.440955334e-05
9.722317195e-05
9.92442023e-05
1.874179669e-05
2.192002784e-05
2.629046271e-05
3.164223865e-05
3.766095075e-05
4.401763743e-05
5.042475094e-05
5.666057143e-05
6.25721188e-05
6.806644312e-05
7.309706737e-05
7.764837134e-05
8.171278861e-05
8.522983128e-05
8.784451896e-05
2.333361105e-05
3.00706655e-05
3.831551164e-05
4.717927883e-05
5.591296007e-05
6.402138997e-05
7.12490988e-05
7.751757876e-05
8.28584664e-05
8.736089936e-05
9.113597583e-05
9.429457364e-05
9.693054572e-05
9.908836742e-05
0.0001006317423
3.718939444e-05
5.36266303e-05
7.063119802e-05
8.581519935e-05
9.808736397e-05
0.0001072882531
0.000113757505
0.0001180221134
0.0001206194447
0.0001220165721
0.0001225859506
0.0001226094415
0.0001222958813
0.0001218114291
0.0001213494084
7.028640565e-05
0.0001051810064
0.0001332801248
0.0001522511009
0.0001631086571
0.0001678897672
0.0001685704273
0.0001667079559
0.0001634091841
0.0001594113259
0.0001551819218
0.0001510068512
0.0001470660515
0.0001435330948
0.0001408519311
0.0001218347895
0.0001715503032
0.0001988631665
0.0002100187392
0.0002113451109
0.0002072692575
0.0002005320684
0.0001927316842
0.0001847608492
0.0001770950278
0.0001699688558
0.0001634839275
0.0001576859919
0.0001526738487
0.0001489528522
7.028616953e-05
0.0001051802528
0.0001332786246
0.0001522488777
0.0001631059068
0.0001678867215
0.0001685672214
0.0001667046838
0.0001634059208
0.0001594080852
0.0001551787622
0.0001510037998
0.0001470630819
0.0001435302195
0.0001408490687
3.719070204e-05
5.362766523e-05
7.063135833e-05
8.58142799e-05
9.808548041e-05
0.0001072855609
0.000113754194
0.0001180183466
0.0001206153491
0.0001220122553
0.0001225815097
0.0001226049429
0.0001222913456
0.0001218068605
0.0001213447832
3.007195469e-05
3.831620087e-05
4.717927141e-05
5.591219942e-05
6.401987897e-05
7.124691475e-05
7.75147862e-05
8.285513899e-05
8.735710882e-05
9.113180914e-05
9.429009777e-05
9.692580888e-05
9.908341672e-05
0.0001006265873
2.192068727e-05
2.629097929e-05
3.164244347e-05
3.766070308e-05
4.401685583e-05
5.04233653e-05
5.665856816e-05
6.256950757e-05
6.806324595e-05
7.309333593e-05
7.76441412e-05
8.170811606e-05
8.522474826e-05
8.783902837e-05
1.698820809e-05
1.870710339e-05
2.122447705e-05
2.454253514e-05
2.85719166e-05
3.31646126e-05
3.814815302e-05
4.335214669e-05
4.86249019e-05
5.384132484e-05
5.890394837e-05
6.373751031e-05
6.826965738e-05
7.235829944e-05
7.549009823e-05
1.877811548e-05
2.196852632e-05
2.629868356e-05
3.152561755e-05
3.732552617e-05
4.338314516e-05
4.94397675e-05
5.530789188e-05
6.086632937e-05
6.604688688e-05
7.081924796e-05
7.517554009e-05
7.910851803e-05
8.255115674e-05
8.513466895e-05
2.333363979e-05
3.00706435e-05
3.831537496e-05
4.717897488e-05
5.591245962e-05
6.402068879e-05
7.124821973e-05
7.751652273e-05
8.285724918e-05
8.735955175e-05
9.113452497e-05
9.429302721e-05
9.692892141e-05
9.908668471e-05
0.0001006300181
3.168937197e-05
4.424727212e-05
5.7730323e-05
7.039988594e-05
8.134165148e-05
9.0272415e-05
9.727867927e-05
0.0001026167499
0.0001065911286
0.0001094919172
0.0001115689983
0.0001130256824
0.0001140217444
0.0001146774705
0.0001150612311
4.025885544e-05
5.73917815e-05
7.344754033e-05
8.68954173e-05
9.7443006e-05
0.000105357288
0.0001110906051
0.0001151071754
0.0001178151237
0.0001195481963
0.0001205687019
0.0001210785006
0.0001212330212
0.0001211608325
0.0001210023829
3.168921619e-05
4.424692772e-05
5.772970976e-05
7.039897123e-05
8.134043992e-05
9.027093768e-05
9.727697738e-05
0.0001026148853
0.0001065891407
0.0001094898368
0.0001115668351
0.0001130234855
0.0001140195241
0.0001146752206
0.0001150589356
2.333371864e-05
3.007066246e-05
3.831514145e-05
4.717835123e-05
5.591138237e-05
6.401915592e-05
7.124626161e-05
7.751419512e-05
8.285459298e-05
8.735661765e-05
9.113136821e-05
9.428968427e-05
9.692543725e-05
9.908307224e-05
0.0001006262744
1.877838327e-05
2.196881343e-05
2.629883401e-05
3.152549484e-05
3.732503592e-05
4.338223198e-05
4.94384015e-05
5.530606532e-05
6.086405522e-05
6.604419657e-05
7.081617613e-05
7.51721277e-05
7.910478843e-05
8.254713473e-05
8.513039341e-05
1.870748932e-05
2.122476623e-05
2.454264822e-05
2.857176628e-05
3.31641189e-05
3.814724933e-05
4.335078704e-05
4.86230616e-05
5.383899139e-05
5.890112419e-05
6.373420367e-05
6.826589996e-05
7.235411595e-05
7.548548468e-05
1.61960936e-05
1.723640923e-05
1.883543502e-05
2.106950173e-05
2.395475508e-05
2.744985075e-05
3.146889854e-05
3.589839427e-05
4.061350507e-05
4.549094437e-05
5.041704149e-05
5.528881225e-05
5.999797887e-05
6.435324783e-05
6.774693017e-05
1.698822487e-05
1.87071178e-05
2.122447922e-05
2.454250481e-05
2.857184344e-05
3.316447944e-05
3.814794276e-05
4.33518445e-05
4.862450863e-05
5.384082418e-05
5.890333984e-05
6.373681026e-05
6.82688549e-05
7.235740465e-05
7.548905452e-05
1.874182862e-05
2.192002738e-05
2.629037673e-05
3.164200921e-05
3.766053596e-05
4.401699536e-05
5.042385071e-05
5.665940012e-05
6.257068721e-05
6.806476186e-05
7.309515029e-05
7.764624619e-05
8.171045395e-05
8.522731804e-05
8.784178885e-05
2.133784605e-05
2.656146929e-05
3.325802399e-05
4.086768193e-05
4.882609354e-05
5.667554851e-05
6.4096839e-05
7.089856848e-05
7.698980399e-05
8.235067714e-05
8.700690326e-05
9.100887994e-05
9.441050604e-05
9.722424967e-05
9.924539732e-05
2.325348464e-05
2.982232491e-05
3.77719859e-05
4.636321732e-05
5.498858989e-05
6.321958764e-05
7.079168548e-05
7.756933892e-05
8.350947239e-05
8.863023936e-05
9.298664278e-05
9.665187426e-05
9.969933695e-05
0.0001021660913
0.0001039070098
2.133776408e-05
2.656130359e-05
3.325773215e-05
4.08672225e-05
4.882544175e-05
5.667469723e-05
6.40958018e-05
7.089735776e-05
7.698842692e-05
8.23491645e-05
8.700525587e-05
9.10071287e-05
9.440866966e-05
9.722234856e-05
9.924342162e-05
1.874178554e-05
2.191992644e-05
2.629015053e-05
3.164158383e-05
3.765984275e-05
4.401600361e-05
5.042254273e-05
5.665777283e-05
6.256875513e-05
6.806254137e-05
7.309266575e-05
7.76435287e-05
8.170753553e-05
8.522420706e-05
8.783851883e-05
1.698825308e-05
1.870714916e-05
2.122445092e-05
2.454234267e-05
2.857147065e-05
3.316383313e-05
3.814697606e-05
4.335051662e-05
4.862280692e-05
5.383874493e-05
5.890088442e-05
6.373398071e-05
6.826568335e-05
7.235391376e-05
7.548529041e-05
1.619617467e-05
1.723652183e-05
1.883552873e-05
2.106951245e-05
2.395461074e-05
2.744947664e-05
3.146822557e-05
3.589736503e-05
4.061206993e-05
4.54890675e-05
5.04147137e-05
5.528601627e-05
5.999471514e-05
6.434953429e-05
6.774277281e-05
)
;

boundaryField
{
    top
    {
        type            calculated;
        value           nonuniform List<scalar> 
127
(
1.619617467e-05
1.723654603e-05
1.870732113e-05
2.192039457e-05
2.656213554e-05
2.982330454e-05
2.656238895e-05
2.192068727e-05
1.870748932e-05
1.723652183e-05
1.88356361e-05
2.122476725e-05
2.629087467e-05
3.325887553e-05
3.777317814e-05
3.325897192e-05
2.629097929e-05
2.122476623e-05
1.883552873e-05
2.106977682e-05
2.454288561e-05
3.164262981e-05
4.086868398e-05
4.63645492e-05
4.086853759e-05
3.164244347e-05
2.454264822e-05
2.106951245e-05
2.395511231e-05
2.85723146e-05
3.766126079e-05
4.882720562e-05
5.49899931e-05
4.882677033e-05
3.766070308e-05
2.857176628e-05
2.395461074e-05
2.745029462e-05
3.316504106e-05
4.401781522e-05
5.667673978e-05
6.322101809e-05
5.667600085e-05
4.401685583e-05
3.31641189e-05
2.744947664e-05
3.146942657e-05
3.814858795e-05
5.042474643e-05
6.409808117e-05
7.079309539e-05
6.40970577e-05
5.04233653e-05
3.814724933e-05
3.146822557e-05
3.589900164e-05
4.335256403e-05
5.666035821e-05
7.089983178e-05
7.757072415e-05
7.089854522e-05
5.665856816e-05
4.335078704e-05
3.589736503e-05
4.061418911e-05
4.862529065e-05
6.257168798e-05
7.699106288e-05
8.351081426e-05
7.698956233e-05
6.256950757e-05
4.86230616e-05
4.061206993e-05
4.549169566e-05
5.384166967e-05
6.806579201e-05
8.235192059e-05
8.863151599e-05
8.235023438e-05
6.806324595e-05
5.383899139e-05
4.54890675e-05
5.041785592e-05
5.890423278e-05
7.309620105e-05
8.700812203e-05
9.298786951e-05
8.7006261e-05
7.309333593e-05
5.890112419e-05
5.04147137e-05
5.528967835e-05
6.373772182e-05
7.764729409e-05
9.101005411e-05
9.665303942e-05
9.100806811e-05
7.76441412e-05
6.373420367e-05
5.528601627e-05
5.99988893e-05
6.826979834e-05
8.171150282e-05
9.44116514e-05
9.970044639e-05
9.440955334e-05
8.170811606e-05
6.826589996e-05
5.999471514e-05
6.435418208e-05
7.235835953e-05
8.522836332e-05
9.722536481e-05
0.0001021671398
9.722317195e-05
8.522474826e-05
7.235411595e-05
6.434953429e-05
6.774788785e-05
7.54900289e-05
8.784284075e-05
9.924647752e-05
0.0001039080184
9.92442023e-05
8.783902837e-05
7.548548468e-05
6.774277281e-05
)
;
    }
    bottom
    {
        type            calculated;
        value           nonuniform List<scalar> 
134
(
1.698836857e-05
1.874190414e-05
2.133786418e-05
2.325347964e-05
2.133781344e-05
1.874179669e-05
1.698820809e-05
1.61960936e-05
1.723667161e-05
1.870736478e-05
2.192027992e-05
2.656172777e-05
2.982262078e-05
2.656157314e-05
2.192002784e-05
1.870710339e-05
1.723640923e-05
1.883576567e-05
2.122486357e-05
2.629087749e-05
3.325868325e-05
3.777280582e-05
3.325839513e-05
2.629046271e-05
2.122447705e-05
1.883543502e-05
2.106993675e-05
2.454307088e-05
3.164283581e-05
4.086887577e-05
4.636471334e-05
4.086844089e-05
3.164223865e-05
2.454253514e-05
2.106950173e-05
2.395533943e-05
2.857263343e-05
3.766175429e-05
4.882790641e-05
5.499084301e-05
4.88273285e-05
3.766095075e-05
2.85719166e-05
2.395475508e-05
2.745062698e-05
3.316555139e-05
4.401867214e-05
5.667802348e-05
6.322261622e-05
5.667729275e-05
4.401763743e-05
3.31646126e-05
2.744985075e-05
3.146990936e-05
3.814934033e-05
5.042601654e-05
6.409998517e-05
7.079545993e-05
6.409910588e-05
5.042475094e-05
3.814815302e-05
3.146889854e-05
3.589968067e-05
4.335360812e-05
5.666206969e-05
7.090234925e-05
7.75737983e-05
7.090133053e-05
5.666057143e-05
4.335214669e-05
3.589839427e-05
4.061510379e-05
4.862666339e-05
6.257386549e-05
7.699417568e-05
8.351454769e-05
7.699302254e-05
6.25721188e-05
4.86249019e-05
4.061350507e-05
4.549287725e-05
5.384338812e-05
6.806842571e-05
8.235559052e-05
8.863584561e-05
8.235431767e-05
6.806644312e-05
5.384132484e-05
4.549094437e-05
5.041931872e-05
5.890630778e-05
7.309926434e-05
8.70122797e-05
9.299271896e-05
8.70108945e-05
7.309706737e-05
5.890394837e-05
5.041704149e-05
5.529144498e-05
6.374015828e-05
7.765076386e-05
9.101465832e-05
9.66583248e-05
9.101317541e-05
7.764837134e-05
6.373751031e-05
5.528881225e-05
6.00009692e-05
6.827258854e-05
8.171536248e-05
9.441663995e-05
9.970612616e-05
9.441507663e-05
8.171278861e-05
6.826965738e-05
5.999797887e-05
6.43566011e-05
7.236150442e-05
8.523257365e-05
9.723069491e-05
0.0001021731557
9.722906596e-05
8.522983128e-05
7.235829944e-05
6.435324783e-05
6.775063154e-05
7.549353469e-05
8.784742035e-05
9.925217577e-05
0.0001039143916
9.925046476e-05
8.784451896e-05
7.549009823e-05
6.774693017e-05
)
;
    }
    side-walls
    {
        type            calculated;
        value           nonuniform List<scalar> 
261
(
1.723667161e-05
1.870748567e-05
2.19205638e-05
2.656220027e-05
2.982320796e-05
2.656209199e-05
2.192036914e-05
1.870731061e-05
1.723654603e-05
1.883576567e-05
2.122497681e-05
2.629117368e-05
3.325920904e-05
3.777349425e-05
3.325904635e-05
2.629091508e-05
2.122476715e-05
1.88356361e-05
2.106993675e-05
2.454317677e-05
3.164313725e-05
4.086943562e-05
4.636549169e-05
4.086921125e-05
3.164279487e-05
2.454291101e-05
2.106977682e-05
2.395533943e-05
2.857274003e-05
3.766205722e-05
4.882849266e-05
5.499167583e-05
4.882818553e-05
3.766160912e-05
2.857238326e-05
2.395511231e-05
2.745062698e-05
3.316566276e-05
4.401897891e-05
5.667862329e-05
6.322347815e-05
5.667821602e-05
4.401838466e-05
3.316517511e-05
2.745029462e-05
3.146990936e-05
3.814944903e-05
5.042632872e-05
6.410059317e-05
7.079633527e-05
6.410007244e-05
5.042556947e-05
3.814879616e-05
3.146942657e-05
3.589968067e-05
4.335371529e-05
5.666238781e-05
7.090295333e-05
7.757468203e-05
7.090232311e-05
5.666143694e-05
4.335286233e-05
3.589900164e-05
4.061510379e-05
4.862676557e-05
6.257416432e-05
7.699477933e-05
8.351541752e-05
7.699402858e-05
6.257302536e-05
4.862568136e-05
4.061418911e-05
4.549287725e-05
5.38434848e-05
6.806871227e-05
8.235617804e-05
8.863670888e-05
8.235531171e-05
6.806738111e-05
5.384216332e-05
4.549169566e-05
5.041931872e-05
5.890640177e-05
7.30995525e-05
8.701285065e-05
9.29935521e-05
8.701188895e-05
7.309802873e-05
5.890482786e-05
5.041785592e-05
5.529144498e-05
6.374025904e-05
7.765105026e-05
9.101520774e-05
9.665915094e-05
9.101415274e-05
7.764934783e-05
6.373842144e-05
5.528967835e-05
6.00009692e-05
6.827268938e-05
8.171563897e-05
9.441717729e-05
9.970691466e-05
9.441603907e-05
8.171376017e-05
6.82705958e-05
5.99988893e-05
6.43566011e-05
7.236160091e-05
8.52328504e-05
9.723122834e-05
0.0001021739256
9.723000463e-05
8.523080535e-05
7.235925303e-05
6.435418208e-05
6.775063154e-05
7.549362889e-05
8.784768603e-05
9.925267823e-05
0.0001039151406
9.925138989e-05
8.784549053e-05
7.549106584e-05
6.774788785e-05
1.61960936e-05
1.698822487e-05
1.874182862e-05
2.133784605e-05
2.325348464e-05
2.133776408e-05
1.874178554e-05
1.698825308e-05
1.619617467e-05
1.723640923e-05
1.87071178e-05
2.192002738e-05
2.656146929e-05
2.982232491e-05
2.656130359e-05
2.191992644e-05
1.870714916e-05
1.723652183e-05
1.883543502e-05
2.122447922e-05
2.629037673e-05
3.325802399e-05
3.77719859e-05
3.325773215e-05
2.629015053e-05
2.122445092e-05
1.883552873e-05
2.106950173e-05
2.454250481e-05
3.164200921e-05
4.086768193e-05
4.636321732e-05
4.08672225e-05
3.164158383e-05
2.454234267e-05
2.106951245e-05
2.395475508e-05
2.857184344e-05
3.766053596e-05
4.882609354e-05
5.498858989e-05
4.882544175e-05
3.765984275e-05
2.857147065e-05
2.395461074e-05
2.744985075e-05
3.316447944e-05
4.401699536e-05
5.667554851e-05
6.321958764e-05
5.667469723e-05
4.401600361e-05
3.316383313e-05
2.744947664e-05
3.146889854e-05
3.814794276e-05
5.042385071e-05
6.4096839e-05
7.079168548e-05
6.40958018e-05
5.042254273e-05
3.814697606e-05
3.146822557e-05
3.589839427e-05
4.33518445e-05
5.665940012e-05
7.089856848e-05
7.756933892e-05
7.089735776e-05
5.665777283e-05
4.335051662e-05
3.589736503e-05
4.061350507e-05
4.862450863e-05
6.257068721e-05
7.698980399e-05
8.350947239e-05
7.698842692e-05
6.256875513e-05
4.862280692e-05
4.061206993e-05
4.549094437e-05
5.384082418e-05
6.806476186e-05
8.235067714e-05
8.863023936e-05
8.23491645e-05
6.806254137e-05
5.383874493e-05
4.54890675e-05
5.041704149e-05
5.890333984e-05
7.309515029e-05
8.700690326e-05
9.298664278e-05
8.700525587e-05
7.309266575e-05
5.890088442e-05
5.04147137e-05
5.528881225e-05
6.373681026e-05
7.764624619e-05
9.100887994e-05
9.665187426e-05
9.10071287e-05
7.76435287e-05
6.373398071e-05
5.528601627e-05
5.999797887e-05
6.82688549e-05
8.171045395e-05
9.441050604e-05
9.969933695e-05
9.440866966e-05
8.170753553e-05
6.826568335e-05
5.999471514e-05
6.435324783e-05
7.235740465e-05
8.522731804e-05
9.722424967e-05
0.0001021660913
9.722234856e-05
8.522420706e-05
7.235391376e-05
6.434953429e-05
6.774693017e-05
7.548905452e-05
8.784178885e-05
9.924539732e-05
0.0001039070098
9.924342162e-05
8.783851883e-05
7.548529041e-05
6.774277281e-05
)
;
    }
    inlet
    {
        type            calculated;
        value           nonuniform 0();
    }
    outlet
    {
        type            calculated;
        value           nonuniform List<scalar> 
81
(
6.775063154e-05
7.549362889e-05
8.784768603e-05
9.925267823e-05
0.0001039151406
9.925138989e-05
8.784549053e-05
7.549106584e-05
6.774788785e-05
7.549353469e-05
8.513891935e-05
0.0001006355777
0.0001150681813
0.0001210101523
0.000115066494
0.000100632762
8.513566307e-05
7.54900289e-05
8.784742035e-05
0.0001006354093
0.0001213542512
0.0001408581236
0.0001489597804
0.0001408557559
0.0001213504576
0.0001006310639
8.784284075e-05
9.925217577e-05
0.000115067751
0.0001408577987
0.0001653416372
0.0001755936305
0.0001653386643
0.0001408529539
0.0001150623091
9.924647752e-05
0.0001039143916
0.0001210093976
0.0001489591536
0.0001755932188
0.0001868463908
0.0001755897592
0.0001489536555
0.0001210033482
0.0001039080184
9.925046476e-05
0.000115065529
0.0001408548574
0.0001653378331
0.0001755892647
0.0001653344151
0.0001408494721
0.0001150596048
9.92442023e-05
8.784451896e-05
0.0001006317423
0.0001213494084
0.0001408519311
0.0001489528522
0.0001408490687
0.0001213447832
0.0001006265873
8.783902837e-05
7.549009823e-05
8.513466895e-05
0.0001006300181
0.0001150612311
0.0001210023829
0.0001150589356
0.0001006262744
8.513039341e-05
7.548548468e-05
6.774693017e-05
7.548905452e-05
8.784178885e-05
9.924539732e-05
0.0001039070098
9.924342162e-05
8.783851883e-05
7.548529041e-05
6.774277281e-05
)
;
    }
    procBoundary1to0
    {
        type            processor;
        value           nonuniform List<scalar> 
97
(
1.619617182e-05
1.619617182e-05
1.698823272e-05
1.874169312e-05
2.133746101e-05
2.32528987e-05
2.133737021e-05
1.874153555e-05
1.698807789e-05
1.61960188e-05
1.595910183e-05