/*--------------------------------*- C++ -*----------------------------------*\
| =========                 |                                                 |
| \\      /  F ield         | OpenFOAM: The Open Source CFD Toolbox           |
|  \\    /   O peration     | Version:  4.x                                   |
|   \\  /    A nd           | Web:      www.OpenFOAM.org                      |
|    \\/     M anipulation  |                                                 |
\*---------------------------------------------------------------------------*/
FoamFile
{
    version     2.0;
    format      ascii;
    class       volScalarField;
    location    "4000";
    object      X_N2;
}
// * * * * * * * * * * * * * * * * * * * * * * * * * * * * * * * * * * * * * //

dimensions      [0 0 0 0 0 0 0];

internalField   nonuniform List<scalar> 
1174
(
0.6000430205
0.6000430201
0.6000430196
0.6000430188
0.6000430179
0.6000430167
0.6000430153
0.6000430137
0.6000430119
0.60004301
0.6000430079
0.6000430057
0.6000430035
0.6000430017
0.6000430202
0.6000430196
0.6000430189
0.6000430179
0.6000430167
0.6000430153
0.6000430137
0.6000430119
0.6000430099
0.6000430078
0.6000430056
0.6000430033
0.600043001
0.6000429993
0.6000430196
0.6000430188
0.6000430177
0.6000430164
0.6000430148
0.6000430131
0.6000430111
0.600043009
0.6000430068
0.6000430045
0.6000430022
0.6000429998
0.6000429976
0.6000429958
0.6000430189
0.6000430179
0.6000430165
0.6000430149
0.600043013
0.6000430109
0.6000430087
0.6000430064
0.6000430041
0.6000430017
0.6000429993
0.6000429969
0.6000429946
0.6000429929
0.6000430187
0.6000430175
0.600043016
0.6000430142
0.6000430123
0.6000430101
0.6000430078
0.6000430055
0.6000430031
0.6000430007
0.6000429983
0.6000429959
0.6000429937
0.600042992
0.600043019
0.6000430179
0.6000430166
0.600043015
0.6000430132
0.6000430112
0.600043009
0.6000430068
0.6000430045
0.6000430021
0.6000429998
0.6000429975
0.6000429953
0.6000429936
0.6000430196
0.6000430189
0.6000430178
0.6000430166
0.6000430151
0.6000430134
0.6000430115
0.6000430095
0.6000430074
0.6000430052
0.600043003
0.6000430008
0.6000429986
0.6000429969
0.6000430202
0.6000430197
0.600043019
0.600043018
0.6000430169
0.6000430156
0.600043014
0.6000430123
0.6000430105
0.6000430085
0.6000430064
0.6000430043
0.6000430022
0.6000430006
0.6000430206
0.6000430202
0.6000430196
0.6000430189
0.600043018
0.6000430169
0.6000430156
0.6000430141
0.6000430125
0.6000430107
0.6000430087
0.6000430067
0.6000430047
0.6000430031
0.6000430206
0.6000430203
0.6000430197
0.6000430189
0.600043018
0.6000430168
0.6000430154
0.6000430137
0.6000430119
0.6000430099
0.6000430078
0.6000430056
0.6000430033
0.6000430011
0.6000429993
0.6000430195
0.6000430188
0.6000430178
0.6000430165
0.600043015
0.6000430133
0.6000430114
0.6000430093
0.6000430072
0.600043005
0.6000430027
0.6000430003
0.6000429981
0.6000429964
0.6000430183
0.6000430171
0.6000430156
0.6000430139
0.6000430119
0.6000430098
0.6000430076
0.6000430053
0.600043003
0.6000430007
0.6000429984
0.6000429961
0.6000429939
0.6000429923
0.6000430169
0.6000430154
0.6000430134
0.6000430112
0.6000430089
0.6000430064
0.600043004
0.6000430016
0.6000429992
0.6000429969
0.6000429946
0.6000429924
0.6000429903
0.6000429888
0.6000430166
0.6000430148
0.6000430126
0.6000430102
0.6000430077
0.6000430052
0.6000430027
0.6000430003
0.6000429979
0.6000429956
0.6000429934
0.6000429912
0.6000429892
0.6000429878
0.6000430171
0.6000430156
0.6000430137
0.6000430115
0.6000430093
0.6000430069
0.6000430046
0.6000430022
0.6000429999
0.6000429976
0.6000429954
0.6000429932
0.6000429912
0.6000429897
0.6000430185
0.6000430173
0.6000430159
0.6000430142
0.6000430124
0.6000430104
0.6000430083
0.6000430062
0.600043004
0.6000430018
0.6000429995
0.6000429973
0.6000429953
0.6000429937
0.6000430196
0.6000430189
0.6000430179
0.6000430167
0.6000430153
0.6000430137
0.600043012
0.6000430101
0.6000430081
0.600043006
0.6000430039
0.6000430017
0.6000429996
0.6000429981
0.6000430202
0.6000430197
0.600043019
0.6000430181
0.600043017
0.6000430157
0.6000430142
0.6000430125
0.6000430107
0.6000430088
0.6000430068
0.6000430047
0.6000430027
0.6000430011
0.6000430203
0.6000430197
0.6000430189
0.6000430179
0.6000430166
0.600043015
0.6000430132
0.6000430113
0.6000430092
0.600043007
0.6000430047
0.6000430023
0.600043
0.6000429977
0.600042996
0.6000430194
0.6000430185
0.6000430173
0.6000430158
0.6000430141
0.6000430121
0.60004301
0.6000430077
0.6000430055
0.6000430031
0.6000430008
0.6000429985
0.6000429962
0.600042994
0.6000429924
0.6000430155
0.6000430139
0.6000430118
0.6000430095
0.600043007
0.6000430045
0.600043002
0.6000429996
0.6000429972
0.6000429949
0.6000429927
0.6000429906
0.6000429887
0.6000429873
0.6000430126
0.6000430104
0.6000430076
0.6000430046
0.6000430017
0.600042999
0.6000429964
0.6000429941
0.6000429918
0.6000429898
0.6000429878
0.6000429859
0.6000429842
0.600042983
0.6000430134
0.6000430103
0.6000430067
0.6000430032
0.600043
0.6000429972
0.6000429946
0.6000429922
0.6000429901
0.6000429881
0.6000429862
0.6000429845
0.6000429829
0.6000429818
0.6000430134
0.6000430112
0.6000430085
0.6000430056
0.6000430028
0.6000430002
0.6000429977
0.6000429953
0.6000429931
0.600042991
0.600042989
0.6000429872
0.6000429855
0.6000429843
0.6000430161
0.6000430145
0.6000430125
0.6000430103
0.600043008
0.6000430057
0.6000430034
0.6000430012
0.6000429989
0.6000429967
0.6000429946
0.6000429926
0.6000429906
0.6000429893
0.6000430185
0.6000430174
0.600043016
0.6000430144
0.6000430127
0.6000430108
0.6000430088
0.6000430068
0.6000430047
0.6000430025
0.6000430003
0.6000429982
0.6000429961
0.6000429946
0.6000430196
0.6000430189
0.6000430179
0.6000430167
0.6000430153
0.6000430138
0.6000430121
0.6000430102
0.6000430083
0.6000430062
0.6000430041
0.6000430019
0.6000429999
0.6000429983
0.6000430199
0.6000430192
0.6000430182
0.6000430168
0.6000430152
0.6000430133
0.6000430113
0.6000430091
0.6000430067
0.6000430044
0.600043002
0.6000429995
0.6000429972
0.6000429949
0.6000429932
0.6000430187
0.6000430175
0.6000430158
0.6000430138
0.6000430116
0.6000430092
0.6000430068
0.6000430044
0.6000430019
0.6000429995
0.6000429972
0.6000429949
0.6000429926
0.6000429906
0.600042989
0.600043015
0.6000430136
0.6000430111
0.6000430081
0.6000430051
0.6000430021
0.6000429993
0.6000429967
0.6000429943
0.6000429921
0.6000429899
0.600042988
0.6000429861
0.6000429844
0.6000429832
0.6000430077
0.6000430058
0.6000430022
0.6000429984
0.600042995
0.6000429921
0.6000429895
0.6000429873
0.6000429854
0.6000429836
0.600042982
0.6000429805
0.6000429792
0.6000429783
0.60004302
0.6000430117
0.6000430041
0.6000429982
0.6000429937
0.6000429903
0.6000429876
0.6000429854
0.6000429835
0.6000429818
0.6000429803
0.6000429789
0.6000429777
0.600042977
0.6000430106
0.600043008
0.6000430044
0.6000430008
0.6000429974
0.6000429944
0.6000429918
0.6000429895
0.6000429874
0.6000429856
0.6000429839
0.6000429823
0.6000429809
0.6000429799
0.6000430133
0.6000430115
0.6000430092
0.6000430067
0.6000430042
0.6000430017
0.6000429993
0.600042997
0.6000429947
0.6000429926
0.6000429906
0.6000429887
0.600042987
0.6000429858
0.6000430171
0.6000430157
0.6000430141
0.6000430123
0.6000430104
0.6000430083
0.6000430062
0.600043004
0.6000430018
0.6000429996
0.6000429974
0.6000429953
0.6000429933
0.6000429919
0.6000430189
0.600043018
0.6000430168
0.6000430154
0.6000430139
0.6000430121
0.6000430103
0.6000430083
0.6000430062
0.6000430041
0.6000430019
0.6000429998
0.6000429977
0.6000429962
0.6000430198
0.600043019
0.6000430179
0.6000430164
0.6000430147
0.6000430127
0.6000430105
0.6000430083
0.6000430059
0.6000430035
0.6000430011
0.6000429987
0.6000429963
0.6000429941
0.6000429924
0.6000430185
0.6000430172
0.6000430154
0.6000430132
0.6000430108
0.6000430083
0.6000430058
0.6000430033
0.6000430008
0.6000429984
0.6000429961
0.6000429938
0.6000429916
0.6000429896
0.6000429881
0.6000430166
0.600043015
0.6000430116
0.6000430078
0.6000430042
0.6000430009
0.6000429979
0.6000429952
0.6000429928
0.6000429906
0.6000429886
0.6000429866
0.6000429848
0.6000429832
0.6000429821
0.600043026
0.6000430243
0.6000430143
0.6000430058
0.6000429994
0.6000429946
0.600042991
0.6000429881
0.6000429858
0.6000429839
0.6000429821
0.6000429806
0.6000429792
0.6000429779
0.6000429772
0.600043086
0.6000430422
0.6000430181
0.6000430043
0.600042996
0.6000429906
0.600042987
0.6000429843
0.6000429822
0.6000429805
0.600042979
0.6000429777
0.6000429766
0.6000429759
0.6000430198
0.600043015
0.6000430088
0.600043003
0.6000429983
0.6000429944
0.6000429913
0.6000429887
0.6000429865
0.6000429846
0.6000429828
0.6000429813
0.6000429799
0.6000429791
0.600043013
0.6000430117
0.6000430094
0.6000430067
0.600043004
0.6000430012
0.6000429987
0.6000429962
0.600042994
0.6000429918
0.6000429898
0.6000429879
0.6000429862
0.6000429851
0.6000430164
0.6000430152
0.6000430137
0.6000430119
0.6000430099
0.6000430078
0.6000430056
0.6000430034
0.6000430012
0.600042999
0.6000429969
0.6000429947
0.6000429928
0.6000429914
0.6000430186
0.6000430176
0.6000430164
0.600043015
0.6000430135
0.6000430117
0.6000430099
0.6000430079
0.6000430058
0.6000430036
0.6000430015
0.6000429993
0.6000429973
0.6000429958
0.60004302
0.6000430192
0.6000430183
0.600043017
0.6000430154
0.6000430136
0.6000430116
0.6000430095
0.6000430073
0.600043005
0.6000430026
0.6000430003
0.6000429979
0.6000429957
0.600042994
0.6000430188
0.6000430177
0.6000430162
0.6000430143
0.6000430122
0.60004301
0.6000430076
0.6000430052
0.6000430029
0.6000430005
0.6000429982
0.6000429959
0.6000429937
0.6000429917
0.6000429902
0.6000430165
0.600043015
0.6000430126
0.6000430098
0.6000430068
0.6000430039
0.6000430011
0.6000429985
0.6000429961
0.6000429938
0.6000429917
0.6000429896
0.6000429877
0.6000429859
0.6000429847
0.6000430156
0.6000430144
0.6000430109
0.6000430067
0.6000430025
0.6000429988
0.6000429956
0.6000429928
0.6000429903
0.6000429881
0.6000429862
0.6000429844
0.6000429827
0.6000429813
0.6000429803
0.6000430269
0.6000430253
0.6000430184
0.600043011
0.6000430046
0.6000429994
0.6000429953
0.600042992
0.6000429892
0.6000429869
0.6000429849
0.6000429831
0.6000429815
0.6000429801
0.6000429793
0.6000430144
0.6000430144
0.6000430122
0.600043009
0.6000430053
0.6000430017
0.6000429985
0.6000429955
0.6000429929
0.6000429906
0.6000429885
0.6000429865
0.6000429847
0.6000429832
0.6000429822
0.6000430126
0.6000430121
0.6000430107
0.6000430087
0.6000430064
0.600043004
0.6000430016
0.6000429992
0.600042997
0.6000429948
0.6000429927
0.6000429907
0.6000429889
0.6000429876
0.6000430168
0.6000430158
0.6000430145
0.600043013
0.6000430113
0.6000430094
0.6000430074
0.6000430053
0.6000430032
0.600043001
0.6000429989
0.6000429968
0.6000429948
0.6000429934
0.6000430188
0.600043018
0.6000430169
0.6000430157
0.6000430143
0.6000430127
0.600043011
0.6000430091
0.6000430072
0.6000430051
0.600043003
0.6000430009
0.6000429989
0.6000429974
0.6000430204
0.6000430198
0.6000430191
0.6000430181
0.6000430169
0.6000430155
0.6000430138
0.600043012
0.60004301
0.6000430079
0.6000430057
0.6000430035
0.6000430013
0.6000429991
0.6000429974
0.6000430197
0.6000430189
0.6000430178
0.6000430164
0.6000430148
0.600043013
0.600043011
0.6000430089
0.6000430068
0.6000430046
0.6000430023
0.6000430001
0.6000429979
0.6000429958
0.6000429943
0.6000430182
0.600043017
0.6000430154
0.6000430134
0.6000430113
0.600043009
0.6000430066
0.6000430043
0.6000430019
0.6000429997
0.6000429974
0.6000429953
0.6000429932
0.6000429912
0.6000429898
0.6000430165
0.6000430152
0.6000430133
0.6000430109
0.6000430082
0.6000430055
0.6000430029
0.6000430003
0.6000429979
0.6000429955
0.6000429934
0.6000429913
0.6000429893
0.6000429875
0.6000429863
0.6000430166
0.6000430161
0.6000430142
0.6000430114
0.6000430084
0.6000430053
0.6000430023
0.6000429996
0.600042997
0.6000429947
0.6000429924
0.6000429903
0.6000429884
0.6000429866
0.6000429855
0.6000430165
0.6000430156
0.600043014
0.600043012
0.6000430097
0.6000430072
0.6000430046
0.6000430021
0.6000429997
0.6000429973
0.6000429951
0.6000429929
0.6000429909
0.6000429891
0.6000429878
0.6000430176
0.6000430166
0.6000430154
0.6000430141
0.6000430124
0.6000430105
0.6000430085
0.6000430064
0.6000430042
0.600043002
0.6000429999
0.6000429977
0.6000429956
0.6000429937
0.6000429923
0.6000430183
0.6000430175
0.6000430165
0.6000430153
0.6000430139
0.6000430123
0.6000430105
0.6000430086
0.6000430067
0.6000430046
0.6000430026
0.6000430005
0.6000429985
0.6000429971
0.6000430195
0.6000430189
0.6000430181
0.6000430171
0.6000430159
0.6000430146
0.6000430131
0.6000430115
0.6000430097
0.6000430078
0.6000430058
0.6000430038
0.6000430019
0.6000430004
0.6000430207
0.6000430204
0.6000430199
0.6000430192
0.6000430183
0.6000430172
0.6000430159
0.6000430144
0.6000430127
0.6000430109
0.600043009
0.6000430069
0.6000430048
0.6000430027
0.6000430011
0.6000430204
0.6000430198
0.6000430191
0.6000430182
0.6000430171
0.6000430157
0.6000430142
0.6000430125
0.6000430106
0.6000430086
0.6000430066
0.6000430044
0.6000430023
0.6000430002
0.6000429986
0.6000430197
0.6000430189
0.6000430179
0.6000430166
0.6000430151
0.6000430134
0.6000430115
0.6000430095
0.6000430074
0.6000430053
0.6000430031
0.6000430009
0.6000429988
0.6000429967
0.6000429952
0.6000430188
0.6000430179
0.6000430166
0.6000430151
0.6000430133
0.6000430113
0.6000430092
0.600043007
0.6000430048
0.6000430026
0.6000430003
0.6000429981
0.6000429959
0.6000429939
0.6000429925
0.6000430185
0.6000430176
0.6000430164
0.6000430149
0.600043013
0.6000430109
0.6000430087
0.6000430065
0.6000430042
0.6000430019
0.6000429997
0.6000429974
0.6000429953
0.6000429933
0.6000429919
0.6000430189
0.600043018
0.6000430169
0.6000430156
0.6000430139
0.6000430121
0.6000430101
0.600043008
0.6000430059
0.6000430037
0.6000430015
0.6000429993
0.6000429972
0.6000429952
0.6000429937
0.6000430196
0.6000430189
0.600043018
0.6000430169
0.6000430157
0.6000430142
0.6000430126
0.6000430108
0.6000430089
0.6000430069
0.6000430048
0.6000430028
0.6000430007
0.6000429987
0.6000429972
0.6000430202
0.6000430197
0.6000430191
0.6000430183
0.6000430174
0.6000430162
0.6000430149
0.6000430135
0.6000430118
0.6000430101
0.6000430082
0.6000430063
0.6000430043
0.6000430024
0.6000430009
0.6000430202
0.6000430197
0.6000430191
0.6000430184
0.6000430175
0.6000430164
0.6000430152
0.6000430138
0.6000430122
0.6000430105
0.6000430087
0.6000430068
0.600043005
0.6000430036
0.6000430209
0.6000430206
0.6000430203
0.6000430198
0.6000430191
0.6000430182
0.6000430172
0.6000430159
0.6000430145
0.6000430129
0.6000430111
0.6000430092
0.6000430072
0.6000430052
0.6000430036
0.6000430207
0.6000430204
0.6000430199
0.6000430192
0.6000430183
0.6000430173
0.600043016
0.6000430146
0.600043013
0.6000430112
0.6000430093
0.6000430073
0.6000430052
0.6000430032
0.6000430016
0.6000430203
0.6000430198
0.6000430192
0.6000430183
0.6000430171
0.6000430158
0.6000430143
0.6000430126
0.6000430108
0.6000430089
0.6000430068
0.6000430047
0.6000430025
0.6000430005
0.6000429989
0.6000430199
0.6000430193
0.6000430185
0.6000430174
0.6000430161
0.6000430146
0.6000430128
0.600043011
0.600043009
0.6000430069
0.6000430048
0.6000430026
0.6000430004
0.6000429983
0.6000429968
0.6000430198
0.6000430191
0.6000430182
0.6000430171
0.6000430158
0.6000430142
0.6000430125
0.6000430106
0.6000430086
0.6000430065
0.6000430043
0.6000430021
0.6000429999
0.6000429978
0.6000429963
0.60004302
0.6000430194
0.6000430186
0.6000430176
0.6000430164
0.600043015
0.6000430134
0.6000430116
0.6000430097
0.6000430077
0.6000430056
0.6000430035
0.6000430014
0.6000429993
0.6000429978
0.6000430204
0.6000430199
0.6000430193
0.6000430185
0.6000430175
0.6000430163
0.600043015
0.6000430135
0.6000430118
0.60004301
0.6000430081
0.6000430061
0.6000430041
0.6000430021
0.6000430007
0.6000430207
0.6000430203
0.6000430199
0.6000430193
0.6000430185
0.6000430176
0.6000430165
0.6000430153
0.6000430139
0.6000430123
0.6000430106
0.6000430088
0.6000430069
0.6000430051
0.6000430037
0.6000430209
0.6000430206
0.6000430202
0.6000430198
0.6000430192
0.6000430185
0.6000430176
0.6000430165
0.6000430153
0.6000430139
0.6000430124
0.6000430107
0.600043009
0.6000430072
0.6000430059
)
;

boundaryField
{
    top
    {
        type            calculated;
        value           nonuniform List<scalar> 
127
(
0.6000430209
0.6000430206
0.6000430202
0.6000430196
0.6000430189
0.6000430186
0.6000430188
0.6000430195
0.6000430202
0.6000430206
0.6000430202
0.6000430197
0.6000430189
0.600043018
0.6000430176
0.600043018
0.6000430189
0.6000430197
0.6000430202
0.6000430196
0.600043019
0.6000430179
0.6000430168
0.6000430164
0.6000430169
0.6000430181
0.6000430191
0.6000430198
0.6000430189
0.6000430181
0.6000430167
0.6000430154
0.600043015
0.6000430157
0.6000430171
0.6000430184
0.6000430192
0.600043018
0.600043017
0.6000430153
0.6000430139
0.6000430135
0.6000430143
0.6000430159
0.6000430175
0.6000430185
0.6000430169
0.6000430157
0.6000430138
0.6000430121
0.6000430117
0.6000430127
0.6000430146
0.6000430164
0.6000430176
0.6000430156
0.6000430142
0.6000430121
0.6000430103
0.6000430099
0.600043011
0.6000430131
0.6000430152
0.6000430165
0.6000430141
0.6000430125
0.6000430102
0.6000430083
0.6000430079
0.6000430091
0.6000430115
0.6000430138
0.6000430153
0.6000430125
0.6000430107
0.6000430083
0.6000430062
0.6000430058
0.6000430072
0.6000430097
0.6000430122
0.6000430139
0.6000430107
0.6000430088
0.6000430062
0.6000430041
0.6000430036
0.6000430051
0.6000430078
0.6000430105
0.6000430124
0.6000430087
0.6000430068
0.6000430041
0.6000430019
0.6000430015
0.600043003
0.6000430058
0.6000430087
0.6000430107
0.6000430067
0.6000430047
0.6000430019
0.6000429998
0.6000429993
0.6000430009
0.6000430038
0.6000430068
0.600043009
0.6000430047
0.6000430027
0.6000429999
0.6000429977
0.6000429973
0.6000429989
0.6000430019
0.600043005
0.6000430072
0.6000430031
0.6000430011
0.6000429983
0.6000429962
0.6000429958
0.6000429974
0.6000430004
0.6000430036
0.6000430059
)
;
    }
    bottom
    {
        type            calculated;
        value           nonuniform List<scalar> 
134
(
0.6000430206
0.6000430203
0.6000430199
0.6000430198
0.60004302
0.6000430204
0.6000430207
0.6000430209
0.6000430205
0.6000430203
0.6000430197
0.6000430192
0.600043019
0.6000430192
0.6000430198
0.6000430204
0.6000430206
0.6000430201
0.6000430197
0.6000430189
0.6000430182
0.6000430179
0.6000430183
0.6000430191
0.6000430199
0.6000430203
0.6000430196
0.6000430189
0.6000430179
0.6000430168
0.6000430164
0.600043017
0.6000430181
0.6000430192
0.6000430198
0.6000430188
0.600043018
0.6000430166
0.6000430152
0.6000430147
0.6000430154
0.6000430169
0.6000430183
0.6000430191
0.6000430179
0.6000430168
0.600043015
0.6000430133
0.6000430127
0.6000430136
0.6000430155
0.6000430172
0.6000430182
0.6000430167
0.6000430154
0.6000430132
0.6000430113
0.6000430105
0.6000430116
0.6000430138
0.6000430159
0.6000430172
0.6000430153
0.6000430137
0.6000430113
0.6000430091
0.6000430083
0.6000430095
0.600043012
0.6000430144
0.6000430159
0.6000430137
0.6000430119
0.6000430092
0.6000430067
0.6000430059
0.6000430073
0.60004301
0.6000430127
0.6000430145
0.6000430119
0.6000430099
0.600043007
0.6000430044
0.6000430035
0.600043005
0.6000430079
0.6000430109
0.6000430129
0.60004301
0.6000430078
0.6000430047
0.600043002
0.6000430011
0.6000430026
0.6000430057
0.600043009
0.6000430111
0.6000430079
0.6000430056
0.6000430023
0.6000429995
0.6000429987
0.6000430003
0.6000430035
0.6000430069
0.6000430092
0.6000430057
0.6000430033
0.600043
0.6000429972
0.6000429963
0.6000429979
0.6000430013
0.6000430048
0.6000430072
0.6000430035
0.6000430011
0.6000429977
0.6000429949
0.6000429941
0.6000429957
0.6000429991
0.6000430027
0.6000430052
0.6000430017
0.6000429993
0.600042996
0.6000429932
0.6000429924
0.600042994
0.6000429974
0.6000430011
0.6000430036
)
;
    }
    side-walls
    {
        type            calculated;
        value           nonuniform List<scalar> 
261
(
0.6000430205
0.6000430202
0.6000430196
0.6000430189
0.6000430187
0.600043019
0.6000430196
0.6000430202
0.6000430206
0.6000430201
0.6000430196
0.6000430188
0.6000430179
0.6000430175
0.6000430179
0.6000430189
0.6000430197
0.6000430202
0.6000430196
0.6000430189
0.6000430177
0.6000430165
0.600043016
0.6000430166
0.6000430178
0.600043019
0.6000430196
0.6000430188
0.6000430179
0.6000430164
0.6000430149
0.6000430142
0.600043015
0.6000430166
0.600043018
0.6000430189
0.6000430179
0.6000430167
0.6000430148
0.600043013
0.6000430123
0.6000430132
0.6000430151
0.6000430169
0.600043018
0.6000430167
0.6000430153
0.6000430131
0.6000430109
0.6000430101
0.6000430112
0.6000430134
0.6000430156
0.6000430169
0.6000430153
0.6000430137
0.6000430111
0.6000430087
0.6000430078
0.600043009
0.6000430115
0.600043014
0.6000430156
0.6000430137
0.6000430119
0.600043009
0.6000430064
0.6000430055
0.6000430068
0.6000430095
0.6000430123
0.6000430141
0.6000430119
0.6000430099
0.6000430068
0.6000430041
0.6000430031
0.6000430045
0.6000430074
0.6000430105
0.6000430125
0.60004301
0.6000430078
0.6000430045
0.6000430017
0.6000430007
0.6000430021
0.6000430052
0.6000430085
0.6000430107
0.6000430079
0.6000430056
0.6000430022
0.6000429993
0.6000429983
0.6000429998
0.600043003
0.6000430064
0.6000430087
0.6000430057
0.6000430033
0.6000429998
0.6000429969
0.6000429959
0.6000429975
0.6000430008
0.6000430043
0.6000430067
0.6000430035
0.600043001
0.6000429976
0.6000429946
0.6000429937
0.6000429953
0.6000429986
0.6000430022
0.6000430047
0.6000430017
0.6000429993
0.6000429958
0.6000429929
0.600042992
0.6000429936
0.6000429969
0.6000430006
0.6000430031
0.6000430209
0.6000430207
0.6000430203
0.6000430199
0.6000430198
0.60004302
0.6000430204
0.6000430207
0.6000430209
0.6000430206
0.6000430204
0.6000430198
0.6000430193
0.6000430191
0.6000430194
0.6000430199
0.6000430203
0.6000430206
0.6000430203
0.6000430199
0.6000430192
0.6000430185
0.6000430182
0.6000430186
0.6000430193
0.6000430199
0.6000430202
0.6000430198
0.6000430192
0.6000430183
0.6000430174
0.6000430171
0.6000430176
0.6000430185
0.6000430193
0.6000430198
0.6000430191
0.6000430183
0.6000430171
0.6000430161
0.6000430158
0.6000430164
0.6000430175
0.6000430185
0.6000430192
0.6000430182
0.6000430173
0.6000430158
0.6000430146
0.6000430142
0.600043015
0.6000430163
0.6000430176
0.6000430185
0.6000430172
0.600043016
0.6000430143
0.6000430128
0.6000430125
0.6000430134
0.600043015
0.6000430165
0.6000430176
0.6000430159
0.6000430146
0.6000430126
0.600043011
0.6000430106
0.6000430116
0.6000430135
0.6000430153
0.6000430165
0.6000430145
0.600043013
0.6000430108
0.600043009
0.6000430086
0.6000430097
0.6000430118
0.6000430139
0.6000430153
0.6000430129
0.6000430112
0.6000430089
0.6000430069
0.6000430065
0.6000430077
0.60004301
0.6000430123
0.6000430139
0.6000430111
0.6000430093
0.6000430068
0.6000430048
0.6000430043
0.6000430056
0.6000430081
0.6000430106
0.6000430124
0.6000430092
0.6000430073
0.6000430047
0.6000430026
0.6000430021
0.6000430035
0.6000430061
0.6000430088
0.6000430107
0.6000430072
0.6000430052
0.6000430025
0.6000430004
0.6000429999
0.6000430014
0.6000430041
0.6000430069
0.600043009
0.6000430052
0.6000430032
0.6000430005
0.6000429983
0.6000429978
0.6000429993
0.6000430021
0.6000430051
0.6000430072
0.6000430036
0.6000430016
0.6000429989
0.6000429968
0.6000429963
0.6000429978
0.6000430007
0.6000430037
0.6000430059
)
;
    }
    inlet
    {
        type            calculated;
        value           nonuniform 0();
    }
    outlet
    {
        type            calculated;
        value           nonuniform List<scalar> 
81
(
0.6000430017
0.6000429993
0.6000429958
0.6000429929
0.600042992
0.6000429936
0.6000429969
0.6000430006
0.6000430031
0.6000429993
0.6000429964
0.6000429923
0.6000429888
0.6000429878
0.6000429897
0.6000429937
0.6000429981
0.6000430011
0.600042996
0.6000429924
0.6000429873
0.600042983
0.6000429818
0.6000429843
0.6000429893
0.6000429946
0.6000429983
0.6000429932
0.600042989
0.6000429832
0.6000429783
0.600042977
0.6000429799
0.6000429858
0.6000429919
0.6000429962
0.6000429924
0.6000429881
0.6000429821
0.6000429772
0.6000429759
0.6000429791
0.6000429851
0.6000429914
0.6000429958
0.600042994
0.6000429902
0.6000429847
0.6000429803
0.6000429793
0.6000429822
0.6000429876
0.6000429934
0.6000429974
0.6000429974
0.6000429943
0.6000429898
0.6000429863
0.6000429855
0.6000429878
0.6000429923
0.6000429971
0.6000430004
0.6000430011
0.6000429986
0.6000429952
0.6000429925
0.6000429919
0.6000429937
0.6000429972
0.6000430009
0.6000430036
0.6000430036
0.6000430016
0.6000429989
0.6000429968
0.6000429963
0.6000429978
0.6000430007
0.6000430037
0.6000430059
)
;
    }
    procBoundary1to0
    {
        type            processor;
        value           nonuniform List<scalar> 
97
(
0.6000430209
0.6000430209
0.6000430207
0.6000430204
0.6000430201
0.6000430201
0.6000430202
0.6000430205
0.6000430208
0.6000430209
0.600043021
0.6000430202
0.6000430202
0.6000430202
0.6000430197
0.6000430193
0.6000430195
0.6000430195
0.60004302
0.6000430205
0.6000430208
0.6000430208
0.6000430205
0.6000430177
0.6000430177
0.6000430177
0.6000430176
0.6000430224
0.6000430189
0.600043019
0.6000430199
0.6000430205
0.6000430206
0.6000430201
0.6000430192
0.6000430158
0.6000430158
0.6000430158
0.6000430661
0.6000430247
0.6000430188
0.6000430194
0.6000430201
0.6000430205
0.6000430198
0.6000430187
0.6000430224
0.6000434937
0.6000434937
0.6000434937
0.6000430642
0.6000430642
0.6000430219
0.6000430194
0.60004302
0.6000430206
0.60004302
0.6000430187
0.6000430174
0.6000430206
0.6000430186
0.6000430155
0.6000430155
0.6000430155
0.6000430189
0.60004302
0.6000430208
0.6000430205
0.6000430197
0.6000430187
0.6000430184
0.6000430189
0.6000430199
0.6000430194
0.6000430194
0.6000430194
0.6000430203
0.600043021
0.6000430208
0.6000430205
0.60004302
0.6000430198
0.6000430201
0.6000430205
0.6000430208
0.6000430206
0.6000430206
0.6000430206
0.6000430211
0.600043021
0.6000430208
0.6000430206
0.6000430205
0.6000430206
0.6000430208
0.600043021
0.6000430211
)
;
    }
}


// ************************************************************************* //
