/*--------------------------------*- C++ -*----------------------------------*\
| =========                 |                                                 |
| \\      /  F ield         | OpenFOAM: The Open Source CFD Toolbox           |
|  \\    /   O peration     | Version:  2.3.0                                 |
|   \\  /    A nd           | Web:      www.OpenFOAM.org                      |
|    \\/     M anipulation  |                                                 |
\*---------------------------------------------------------------------------*/
FoamFile
{
    version     2.0;
    format      ascii;
    class       volScalarField;
    location    "0";
    object      nut;
}
// * * * * * * * * * * * * * * * * * * * * * * * * * * * * * * * * * * * * * //

dimensions      [0 2 -1 0 0 0 0];

internalField   uniform 0;

boundaryField
{
    top
    {
        type            nutkWallFunction;
        value           uniform 0;
    }
    bottom
    {
        type            nutkWallFunction;
        value           uniform 0;
    }
    side
    {
        type            nutkWallFunction;
        value           uniform 0;
    }
    inlet
    {
        type            empty;
    }
    outlet_up
    {
        type		zeroGradient;
    }
    outlet_down
    {
        type		zeroGradient;
    }
}


// ************************************************************************* //
