/*--------------------------------*- C++ -*----------------------------------*\
| =========                 |                                                 |
| \\      /  F ield         | OpenFOAM: The Open Source CFD Toolbox           |
|  \\    /   O peration     | Version:  4.x                                   |
|   \\  /    A nd           | Web:      www.OpenFOAM.org                      |
|    \\/     M anipulation  |                                                 |
\*---------------------------------------------------------------------------*/
FoamFile
{
    version     2.0;
    format      ascii;
    class       volScalarField;
    location    "3000";
    object      CO;
}
// * * * * * * * * * * * * * * * * * * * * * * * * * * * * * * * * * * * * * //

dimensions      [0 0 0 0 0 0 0];

internalField   nonuniform List<scalar> 
1174
(
0.3315784398
0.3315752514
0.331570755
0.3315648972
0.3315577428
0.3315494518
0.3315402465
0.3315303786
0.3315201022
0.3315096562
0.3314992608
0.3314891501
0.3314797386
0.33147235
0.3315754552
0.3315703569
0.3315635764
0.3315552739
0.3315457374
0.3315353147
0.3315243571
0.3315131837
0.3315020629
0.3314912078
0.3314807862
0.3314709607
0.3314620448
0.3314551675
0.331568872
0.3315598819
0.331548773
0.3315361747
0.3315227647
0.3315091493
0.3314958072
0.3314830776
0.331471175
0.3314602149
0.3314502452
0.3314412946
0.3314335062
0.3314276769
0.331559244
0.3315453033
0.3315293199
0.3315124641
0.3314957077
0.3314797461
0.3314650115
0.3314517244
0.3314399519
0.33142966
0.3314207578
0.3314131429
0.3314068025
0.3314022137
0.3315523833
0.3315357316
0.331517588
0.33149923
0.331481579
0.3314652211
0.3314504727
0.3314374533
0.331426149
0.3314164626
0.3314082539
0.3314013782
0.3313957698
0.3313917778
0.3315592442
0.3315453036
0.3315293203
0.3315124646
0.3314957082
0.3314797466
0.331465012
0.331451725
0.3314399525
0.3314296607
0.3314207584
0.3314131435
0.3314068032
0.3314022144
0.3315688722
0.3315598821
0.3315487733
0.3315361751
0.3315227651
0.3315091498
0.3314958078
0.3314830783
0.3314711758
0.3314602157
0.331450246
0.3314412955
0.3314335071
0.3314276779
0.3315754554
0.3315703571
0.3315635766
0.3315552741
0.3315457377
0.3315353151
0.3315243575
0.3315131843
0.3315020636
0.3314912085
0.331480787
0.3314709616
0.3314620458
0.3314551686
0.3315784399
0.3315752515
0.3315707552
0.3315648974
0.3315577431
0.3315494521
0.3315402469
0.3315303791
0.3315201028
0.3315096569
0.3314992616
0.331489151
0.3314797396
0.3314723512
0.3315789023
0.3315754552
0.3315703569
0.3315635765
0.3315552739
0.3315457375
0.3315353147
0.3315243571
0.3315131838
0.331502063
0.3314912078
0.3314807862
0.3314709607
0.3314620448
0.3314551676
0.3315687414
0.3315598141
0.3315489426
0.331536782
0.3315239878
0.33151111
0.3314985567
0.3314865992
0.331475397
0.3314650278
0.3314555191
0.3314468953
0.3314393092
0.33143358
0.331551878
0.3315345803
0.3315158058
0.3314971418
0.3314796702
0.331463977
0.3314502706
0.3314385173
0.3314285509
0.3314201498
0.3314130861
0.3314071635
0.3314022915
0.3313987851
0.3315219697
0.3314932728
0.331466026
0.3314422558
0.3314226593
0.3314071301
0.331395175
0.3313861756
0.3313795273
0.3313747006
0.3313712589
0.3313688562
0.3313672323
0.3313662529
0.3314938133
0.3314593345
0.3314301607
0.3314070401
0.3313894998
0.3313766366
0.3313674939
0.3313612158
0.3313570931
0.3313545624
0.3313531862
0.3313526253
0.3313526004
0.3313528184
0.3315219702
0.3314932734
0.3314660266
0.3314422565
0.33142266
0.3314071308
0.3313951757
0.3313861764
0.3313795281
0.3313747014
0.3313712597
0.331368857
0.3313672331
0.3313662537
0.3315518784
0.3315345809
0.3315158064
0.3314971424
0.331479671
0.3314639778
0.3314502715
0.3314385182
0.3314285519
0.3314201509
0.3314130872
0.3314071646
0.3314022926
0.3313987863
0.3315687417
0.3315598145
0.3315489429
0.3315367824
0.3315239883
0.3315111106
0.3314985574
0.3314866001
0.331475398
0.3314650288
0.3314555202
0.3314468966
0.3314393105
0.3314335814
0.3315754553
0.3315703571
0.3315635767
0.3315552742
0.3315457378
0.3315353151
0.3315243577
0.3315131845
0.3315020638
0.3314912088
0.3314807873
0.3314709619
0.3314620462
0.331455169
0.3315753455
0.3315688721
0.331559882
0.3315487732
0.3315361749
0.3315227649
0.3315091496
0.3314958075
0.3314830779
0.3314711753
0.3314602151
0.3314502454
0.3314412949
0.3314335064
0.3314276771
0.3315658673
0.3315518781
0.3315345806
0.3315158061
0.3314971421
0.3314796705
0.3314639773
0.3314502709
0.3314385175
0.3314285511
0.3314201501
0.3314130863
0.3314071637
0.3314022917
0.3313987853
0.3315021713
0.3314657938
0.331432912
0.331405995
0.331385533
0.3313709156
0.3313610871
0.331354932
0.3313514593
0.3313498653
0.331349533
0.3313499997
0.3313508963
0.3313518031
0.3313918586
0.3313306009
0.3312884515
0.3312636407
0.3312520419
0.3312495157
0.3312527316
0.3312592818
0.331267537
0.3312764458
0.3312853535
0.3312938411
0.3313015104
0.3313073762
0.331247702
0.3311869274
0.3311609483
0.3311564943
0.3311641044
0.3311778315
0.3311941556
0.3312110776
0.3312275093
0.3312428956
0.3312569806
0.3312696391
0.3312806383
0.3312888545
0.3313918607
0.3313306029
0.3312884533
0.3312636424
0.3312520435
0.3312495172
0.331252733
0.3312592831
0.3312675382
0.331276447
0.3312853547
0.3312938422
0.3313015114
0.3313073772
0.331502173
0.3314657952
0.3314329133
0.3314059964
0.3313855345
0.3313709172
0.3313610887
0.3313549337
0.331351461
0.331349867
0.3313495347
0.3313500014
0.3313508979
0.3313518048
0.3315518785
0.3315345809
0.3315158066
0.3314971427
0.3314796713
0.3314639782
0.331450272
0.3314385188
0.3314285525
0.3314201515
0.3314130879
0.3314071653
0.3314022934
0.3313987871
0.3315688722
0.3315598822
0.3315487734
0.3315361753
0.3315227654
0.3315091502
0.3314958083
0.3314830789
0.3314711765
0.3314602165
0.3314502469
0.3314412965
0.3314335082
0.331427679
0.3315700134
0.3315592443
0.3315453037
0.3315293204
0.3315124647
0.3314957083
0.3314797467
0.3314650121
0.331451725
0.3314399524
0.3314296606
0.3314207583
0.3314131434
0.331406803
0.3314022142
0.3315484097
0.3315219701
0.3314932734
0.3314660266
0.3314422565
0.3314226599
0.3314071307
0.3313951756
0.3313861761
0.3313795278
0.3313747011
0.3313712594
0.3313688567
0.3313672327
0.3313662533
0.3314667683
0.3313918592
0.3313306017
0.3312884522
0.3312636413
0.3312520425
0.3312495162
0.331252732
0.3312592822
0.3312675373
0.3312764461
0.3312853538
0.3312938413
0.3313015106
0.3313073764
0.3310144528
0.3309377079
0.3309252755
0.3309476085
0.3309854061
0.3310277967
0.3310692812
0.3311074158
0.3311413655
0.3311710813
0.3311968493
0.3312190142
0.3312376224
0.3312512016
0.3302756033
0.3303726121
0.3305211579
0.3306634604
0.3307843217
0.3308828833
0.330962365
0.3310265491
0.3310787297
0.3311215158
0.3311568885
0.3311862651
0.3312103122
0.3312275809
0.3310144603
0.330937713
0.3309252794
0.3309476118
0.330985409
0.3310277992
0.3310692835
0.3311074178
0.3311413673
0.331171083
0.3311968509
0.3312190156
0.3312376238
0.3312512029
0.3313918607
0.3313306036
0.3312884544
0.3312636437
0.331252045
0.3312495188
0.3312527345
0.3312592847
0.3312675397
0.3312764485
0.3312853561
0.3312938435
0.3313015127
0.3313073785
0.3315219702
0.3314932736
0.3314660272
0.3314422573
0.3314226611
0.3314071321
0.3313951772
0.3313861779
0.3313795297
0.3313747031
0.3313712615
0.3313688588
0.3313672349
0.3313662555
0.3315592442
0.3315453037
0.3315293205
0.331512465
0.3314957089
0.3314797475
0.3314650131
0.3314517262
0.3314399539
0.3314296623
0.3314207602
0.3314131454
0.3314068051
0.3314022164
0.3315660207
0.3315523836
0.3315357321
0.3315175885
0.3314992306
0.3314815797
0.3314652217
0.3314504733
0.331437454
0.3314261497
0.3314164633
0.3314082545
0.3314013788
0.3313957703
0.3313917784
0.3315302246
0.3314938139
0.3314593355
0.3314301618
0.3314070411
0.3313895007
0.3313766375
0.3313674948
0.3313612166
0.3313570938
0.3313545631
0.3313531868
0.3313526259
0.331352601
0.3313528189
0.3313558687
0.3312477029
0.3311869294
0.3311609502
0.3311564959
0.3311641058
0.3311778326
0.3311941566
0.3312110784
0.33122751
0.3312428963
0.3312569812
0.3312696396
0.3312806388
0.3312888549
0.3304060875
0.3302756086
0.3303726157
0.3305211604
0.330663462
0.3307843229
0.3308828842
0.3309623657
0.3310265496
0.3310787301
0.3311215161
0.3311568888
0.3311862654
0.3312103124
0.3312275811
0.3270972705
0.3287138592
0.3296096526
0.3301343653
0.3304594944
0.3306722349
0.3308186111
0.3309238894
0.3310025116
0.3310630721
0.3311108777
0.3311492445
0.3311798869
0.3312015607
0.3302756031
0.33037262
0.3305211655
0.3306634666
0.3307843268
0.3308828876
0.3309623686
0.3310265522
0.3310787324
0.3311215182
0.3311568907
0.3311862671
0.331210314
0.3312275826
0.3312477023
0.3311869304
0.3311609522
0.3311564984
0.3311641086
0.3311778354
0.3311941594
0.3312110812
0.3312275127
0.3312428988
0.3312569836
0.3312696419
0.331280641
0.3312888571
0.3314938135
0.3314593355
0.3314301624
0.3314070421
0.3313895022
0.3313766393
0.3313674967
0.3313612187
0.3313570961
0.3313545654
0.3313531892
0.3313526283
0.3313526034
0.3313528214
0.3315523834
0.331535732
0.3315175887
0.3314992311
0.3314815805
0.3314652228
0.3314504747
0.3314374556
0.3314261515
0.3314164653
0.3314082567
0.3314013811
0.3313957728
0.3313917809
0.3315700135
0.3315592445
0.331545304
0.3315293207
0.3315124651
0.3314957088
0.3314797472
0.3314650127
0.3314517256
0.3314399531
0.3314296613
0.331420759
0.3314131442
0.3314068038
0.331402215
0.33154841
0.3315219707
0.3314932742
0.3314660275
0.3314422574
0.3314226609
0.3314071317
0.3313951766
0.3313861772
0.3313795288
0.3313747021
0.3313712604
0.3313688577
0.3313672338
0.3313662543
0.331466771
0.3313918619
0.3313306047
0.3312884551
0.331263644
0.331252045
0.3312495186
0.3312527342
0.3312592842
0.3312675392
0.3312764479
0.3312853555
0.331293843
0.3313015122
0.3313073779
0.3311873489
0.3310144643
0.3309377172
0.3309252829
0.3309476146
0.3309854113
0.3310278011
0.331069285
0.3311074191
0.3311413684
0.3311710839
0.3311968516
0.3312190163
0.3312376244
0.3312512035
0.3304060867
0.3302756098
0.3303726245
0.3305211686
0.3306634688
0.3307843284
0.3308828888
0.3309623695
0.3310265529
0.331078733
0.3311215187
0.3311568911
0.3311862675
0.3312103143
0.3312275829
0.3311873475
0.3310144655
0.3309377193
0.3309252853
0.330947617
0.3309854135
0.3310278031
0.3310692869
0.3311074208
0.33114137
0.3311710854
0.3311968531
0.3312190176
0.3312376257
0.3312512047
0.3313918587
0.3313306039
0.3312884557
0.3312636455
0.331252047
0.3312495208
0.3312527365
0.3312592866
0.3312675415
0.3312764502
0.3312853577
0.3312938451
0.3313015142
0.3313073799
0.3315219698
0.3314932737
0.3314660277
0.3314422581
0.331422662
0.3314071332
0.3313951783
0.3313861791
0.3313795309
0.3313747043
0.3313712627
0.33136886
0.3313672361
0.3313662567
0.3315592441
0.3315453037
0.3315293206
0.3315124653
0.3314957093
0.331479748
0.3314650138
0.331451727
0.3314399547
0.3314296631
0.3314207611
0.3314131463
0.3314068061
0.3314022174
0.3315753456
0.3315688723
0.3315598823
0.3315487736
0.3315361754
0.3315227655
0.3315091502
0.3314958082
0.3314830788
0.3314711763
0.3314602162
0.3314502465
0.3314412961
0.3314335077
0.3314276784
0.3315658678
0.3315518787
0.3315345813
0.331515807
0.331497143
0.3314796716
0.3314639785
0.3314502722
0.3314385189
0.3314285526
0.3314201516
0.3314130879
0.3314071653
0.3314022933
0.331398787
0.3315369159
0.3315021738
0.3314657963
0.3314329145
0.3314059975
0.3313855356
0.3313709183
0.3313610898
0.3313549346
0.3313514619
0.3313498679
0.3313495355
0.3313500022
0.3313508987
0.3313518055
0.3314667713
0.3313918627
0.331330606
0.3312884567
0.3312636458
0.3312520469
0.3312495204
0.331252736
0.3312592859
0.3312675408
0.3312764494
0.3312853569
0.3312938443
0.3313015135
0.3313073792
0.3313558694
0.3312477061
0.3311869339
0.3311609552
0.3311565008
0.3311641105
0.331177837
0.3311941607
0.3312110822
0.3312275136
0.3312428996
0.3312569843
0.3312696425
0.3312806415
0.3312888576
0.3314667717
0.3313918635
0.331330607
0.3312884579
0.3312636471
0.3312520482
0.3312495217
0.3312527373
0.3312592872
0.3312675421
0.3312764506
0.3312853581
0.3312938454
0.3313015145
0.3313073802
0.3315369152
0.3315021732
0.3314657962
0.3314329149
0.3314059984
0.3313855368
0.3313709197
0.3313610913
0.3313549363
0.3313514636
0.3313498696
0.3313495373
0.3313500039
0.3313509004
0.3313518073
0.331551878
0.331534581
0.331515807
0.3314971435
0.3314796724
0.3314639795
0.3314502735
0.3314385204
0.3314285542
0.3314201534
0.3314130897
0.3314071673
0.3314022953
0.331398789
0.331568872
0.3315598821
0.3315487735
0.3315361755
0.3315227658
0.3315091509
0.3314958091
0.3314830799
0.3314711776
0.3314602177
0.3314502483
0.331441298
0.3314335097
0.3314276806
0.3315789024
0.3315754554
0.3315703572
0.3315635768
0.3315552744
0.331545738
0.3315353154
0.3315243579
0.3315131847
0.331502064
0.331491209
0.3314807876
0.3314709622
0.3314620464
0.3314551692
0.3315752553
0.3315687419
0.3315598148
0.3315489433
0.3315367828
0.3315239888
0.3315111111
0.331498558
0.3314866006
0.3314753986
0.3314650294
0.3314555209
0.3314468972
0.3314393112
0.331433582
0.3315658679
0.3315518789
0.3315345816
0.3315158073
0.3314971435
0.3314796722
0.3314639791
0.3314502729
0.3314385196
0.3314285534
0.3314201524
0.3314130887
0.3314071661
0.3314022941
0.3313987878
0.3315484102
0.3315219711
0.3314932749
0.3314660286
0.3314422587
0.3314226625
0.3314071334
0.3313951784
0.331386179
0.3313795308
0.3313747041
0.3313712624
0.3313688597
0.3313672357
0.3313662562
0.3315302248
0.3314938149
0.3314593372
0.331430164
0.3314070437
0.3313895036
0.3313766406
0.3313674979
0.3313612198
0.331357097
0.3313545663
0.33135319
0.3313526291
0.3313526041
0.331352822
0.3315484102
0.3315219713
0.3314932751
0.3314660289
0.3314422592
0.331422663
0.331407134
0.3313951791
0.3313861798
0.3313795315
0.3313747048
0.3313712632
0.3313688605
0.3313672365
0.3313662571
0.3315658678
0.3315518788
0.3315345816
0.3315158075
0.3314971439
0.3314796727
0.3314639799
0.3314502738
0.3314385207
0.3314285545
0.3314201536
0.3314130899
0.3314071674
0.3314022955
0.3313987892
0.3315752551
0.3315687417
0.3315598146
0.3315489433
0.331536783
0.3315239891
0.3315111117
0.3314985587
0.3314866015
0.3314753996
0.3314650306
0.3314555222
0.3314468987
0.3314393127
0.3314335837
0.3315754552
0.3315703571
0.3315635767
0.3315552744
0.3315457382
0.3315353157
0.3315243585
0.3315131855
0.3315020649
0.3314912101
0.3314807889
0.3314709636
0.331462048
0.331455171
0.3315804935
0.33157844
0.3315752517
0.3315707553
0.3315648976
0.3315577433
0.3315494525
0.3315402473
0.3315303796
0.3315201033
0.3315096575
0.3314992622
0.3314891516
0.3314797403
0.3314723518
0.3315789024
0.3315754555
0.3315703573
0.3315635769
0.3315552745
0.3315457382
0.3315353156
0.3315243582
0.331513185
0.3315020644
0.3314912094
0.331480788
0.3314709626
0.3314620468
0.3314551697
0.3315753456
0.3315688724
0.3315598825
0.3315487738
0.3315361757
0.3315227659
0.3315091508
0.331495809
0.3314830796
0.3314711772
0.3314602172
0.3314502476
0.3314412972
0.3314335089
0.3314276797
0.3315700135
0.3315592446
0.3315453043
0.3315293212
0.3315124658
0.3314957098
0.3314797484
0.331465014
0.3314517272
0.3314399548
0.3314296631
0.331420761
0.3314131462
0.3314068059
0.3314022172
0.3315660208
0.3315523839
0.3315357327
0.3315175895
0.3314992319
0.3314815813
0.3314652237
0.3314504755
0.3314374564
0.3314261522
0.331416466
0.3314082574
0.3314013817
0.3313957734
0.3313917815
0.3315700135
0.3315592446
0.3315453043
0.3315293213
0.3315124659
0.3314957099
0.3314797486
0.3314650143
0.3314517275
0.3314399552
0.3314296636
0.3314207615
0.3314131467
0.3314068065
0.3314022178
0.3315753456
0.3315688724
0.3315598825
0.3315487739
0.3315361759
0.3315227662
0.3315091512
0.3314958095
0.3314830802
0.3314711779
0.331460218
0.3314502485
0.3314412982
0.33143351
0.3314276808
0.3315789024
0.3315754554
0.3315703572
0.3315635769
0.3315552746
0.3315457384
0.3315353159
0.3315243586
0.3315131856
0.3315020651
0.3314912103
0.331480789
0.3314709638
0.3314620481
0.3314551711
0.3315804934
0.3315784399
0.3315752516
0.3315707553
0.3315648976
0.3315577434
0.3315494527
0.3315402477
0.33153038
0.331520104
0.3315096583
0.3314992632
0.3314891528
0.3314797416
0.3314723533
)
;

boundaryField
{
    top
    {
        type            zeroGradient;
    }
    bottom
    {
        type            zeroGradient;
    }
    side-walls
    {
        type            zeroGradient;
    }
    inlet
    {
        type            zeroGradient;
    }
    outlet
    {
        type            zeroGradient;
    }
    procBoundary1to0
    {
        type            processor;
        value           nonuniform List<scalar> 
97
(
0.3315804934
0.3315804934
0.3315789024
0.3315753456
0.3315700136
0.331566021
0.3315700137
0.3315753457
0.3315789025
0.3315804935
0.3315809434
0.3315752551
0.3315752551
0.3315752551
0.3315658677
0.3315484103
0.3315302254
0.3315484107
0.3315658681
0.3315752554
0.3315789025
0.3315793301
0.3315751658
0.3315369149
0.3315369149
0.3315369149
0.3314667712
0.3313558725
0.3314667734
0.3315369168
0.3315658681
0.3315753457
0.3315769707
0.3315678374
0.3315359621
0.3311873415
0.3311873415
0.3311873415
0.3304061064
0.3311873548
0.3314667733
0.3315484106
0.3315700137
0.3315752895
0.3315609395
0.3315006592
0.331262746
0.324015529
0.324015529
0.324015529
0.3304061034
0.3304061034
0.3313558721
0.3315302254
0.331566021
0.3315769707
0.3315678374
0.3315359622
0.3314435385
0.3312627445
0.3314435391
0.3314667693
0.3314667693
0.3314667693
0.3315484101
0.3315700136
0.3315793301
0.3315751658
0.3315629867
0.3315359622
0.3315006592
0.3315359625
0.3315629867
0.3315658675
0.3315658675
0.3315658675
0.3315753456
0.3315809434
0.3315792981
0.3315751658
0.3315678374
0.3315609395
0.3315678375
0.3315751658
0.3315792981
0.3315789023
0.3315789023
0.3315789023
0.3315816749
0.3315809434
0.3315793301
0.3315769707
0.3315752895
0.3315769707
0.3315793301
0.3315809434
0.3315816749
)
;
    }
}


// ************************************************************************* //
