/*--------------------------------*- C++ -*----------------------------------*\
| =========                 |                                                 |
| \\      /  F ield         | OpenFOAM: The Open Source CFD Toolbox           |
|  \\    /   O peration     | Version:  4.x                                   |
|   \\  /    A nd           | Web:      www.OpenFOAM.org                      |
|    \\/     M anipulation  |                                                 |
\*---------------------------------------------------------------------------*/
FoamFile
{
    version     2.0;
    format      ascii;
    class       volScalarField;
    location    "3000";
    object      CO2;
}
// * * * * * * * * * * * * * * * * * * * * * * * * * * * * * * * * * * * * * //

dimensions      [0 0 0 0 0 0 0];

internalField   nonuniform List<scalar> 
1174
(
0.06315502103
0.0631588646
0.06316428501
0.06317134671
0.06317997157
0.0631899668
0.06320106449
0.06321296126
0.06322535076
0.06323794507
0.06325047872
0.06326266941
0.06327401735
0.06328292635
0.06315861871
0.06316476457
0.06317293835
0.06318294712
0.06319444355
0.06320700869
0.06322021889
0.06323368951
0.06324709718
0.0632601849
0.06327275029
0.06328459742
0.06329534809
0.06330364083
0.06316655413
0.06317739136
0.06319078277
0.06320596998
0.06322213602
0.06323854995
0.06325463494
0.06326998194
0.0632843324
0.06329754713
0.06330956821
0.06332036089
0.06332975277
0.06333678248
0.06317815973
0.06319496449
0.06321423193
0.06323455138
0.06325475155
0.0632739942
0.06329175816
0.06330777763
0.06332197169
0.06333438119
0.06334511585
0.06335429881
0.06336194535
0.06336747982
0.0631864295
0.06320650216
0.06322837366
0.06325050405
0.06327178273
0.0632915033
0.06330928411
0.06332498103
0.06333861093
0.06335029073
0.06336018957
0.0633684816
0.0633752459
0.06338006097
0.0631781595
0.06319496416
0.06321423151
0.0632345509
0.06325475102
0.06327399364
0.06329175758
0.06330777703
0.06332197108
0.06333438058
0.06334511524
0.06335429819
0.06336194474
0.06336747922
0.06316655394
0.06317739108
0.06319078242
0.06320596958
0.06322213556
0.06323854943
0.06325463436
0.06326998131
0.06328433171
0.0632975464
0.06330956744
0.06332036008
0.06332975192
0.0633367816
0.06315861855
0.06316476437
0.0631729381
0.06318294683
0.0631944432
0.06320700827
0.0632202184
0.06323368895
0.06324709655
0.06326018419
0.06327274951
0.06328459657
0.06329534717
0.06330363985
0.06315502089
0.06315886445
0.06316428483
0.06317134649
0.0631799713
0.06318996647
0.06320106409
0.06321296079
0.0632253502
0.06323794442
0.06325047797
0.06326266857
0.06327401642
0.06328292534
0.06315446338
0.06315861869
0.06316476454
0.06317293831
0.06318294708
0.06319444351
0.06320700864
0.06322021883
0.06323368945
0.06324709712
0.06326018484
0.06327275023
0.06328459736
0.06329534803
0.06330364077
0.06316671158
0.06317747293
0.06319057833
0.06320523781
0.06322066147
0.06323618627
0.06325132034
0.06326573649
0.06327924256
0.06329174491
0.06330321011
0.06331360882
0.06332275673
0.06332966572
0.0631870386
0.06320788983
0.06323052173
0.06325302102
0.06327408333
0.06329300253
0.06330952715
0.06332369789
0.06333571485
0.06334584517
0.06335436362
0.06336150658
0.0633673831
0.06337161276
0.06322308942
0.06325768152
0.06329052636
0.06331918121
0.0633428057
0.06336152792
0.06337594221
0.06338679393
0.06339481176
0.06340063393
0.06340478658
0.06340768684
0.06340964819
0.06341083197
0.06325702819
0.06329858986
0.06333375783
0.06336163021
0.06338277659
0.0633982856
0.06340931016
0.06341688194
0.06342185562
0.06342491034
0.06342657341
0.06342725364
0.06342728758
0.06342702804
0.06322308887
0.06325768083
0.0632905256
0.06331918042
0.0633428049
0.06336152713
0.06337594144
0.06338679318
0.06339481102
0.0634006332
0.06340478587
0.06340768615
0.06340964751
0.0634108313
0.06318703807
0.06320788924
0.0632305211
0.06325302034
0.0632740826
0.06329300176
0.06330952633
0.06332369702
0.06333571395
0.06334584422
0.06335436264
0.06336150557
0.06336738208
0.06337161172
0.06316671118
0.06317747254
0.06319057791
0.06320523734
0.06322066093
0.06323618566
0.06325131964
0.06326573571
0.06327924169
0.06329174397
0.0633032091
0.06331360774
0.0633227556
0.06332966453
0.06315861856
0.06316476436
0.06317293808
0.0631829468
0.06319444315
0.06320700819
0.0632202183
0.06323368881
0.06324709638
0.06326018399
0.06327274928
0.06328459631
0.06329534689
0.06330363953
0.0631587508
0.06316655406
0.06317739121
0.06319078259
0.06320596978
0.0632221358
0.06323854971
0.06325463469
0.06326998169
0.06328433214
0.06329754687
0.06330956796
0.06332036064
0.06332975253
0.06333678224
0.06317017557
0.06318703845
0.0632078896
0.06323052145
0.06325302072
0.06327408303
0.06329300223
0.06330952686
0.06332369762
0.06333571459
0.06334584492
0.06335436338
0.06336150635
0.06336738289
0.06337161256
0.0632469538
0.0632908042
0.06333044183
0.06336289022
0.06338755834
0.06340518186
0.0634170331
0.06342445655
0.06342864669
0.06343057224
0.06343097694
0.06343041842
0.06342934154
0.06342825154
0.06337992079
0.06345376228
0.06350457235
0.06353448363
0.0635484697
0.06355152
0.06354764882
0.06353975816
0.06352981219
0.06351907806
0.06350834507
0.06349811832
0.0634888776
0.06348181003
0.06355368032
0.0636269408
0.06365826113
0.06366363627
0.06365446943
0.06363792916
0.06361825791
0.06359786572
0.06357806403
0.06355952212
0.06354254857
0.06352729423
0.06351403959
0.0635041388
0.06337991856
0.06345376008
0.06350457035
0.06353448182
0.06354846809
0.06355151855
0.0635476475
0.06353975695
0.06352981107
0.06351907702
0.06350834409
0.0634981174
0.06348887672
0.06348180918
0.0632469519
0.06329080265
0.06333044038
0.06336288877
0.06338755688
0.06340518037
0.06341703161
0.06342445506
0.06342864521
0.06343057078
0.06343097551
0.06343041701
0.06342934016
0.06342825017
0.06318703804
0.06320788915
0.06323052093
0.0632530201
0.06327408229
0.06329300138
0.0633095259
0.06332369655
0.06333571343
0.06334584368
0.06335436208
0.06336150499
0.06336738148
0.0633716111
0.06316655394
0.06317739104
0.06319078232
0.0632059694
0.0632221353
0.06323854907
0.06325463392
0.06326998078
0.0632843311
0.06329754571
0.06330956669
0.06332035927
0.06332975107
0.06333678071
0.06316517807
0.06317815949
0.06319496409
0.06321423144
0.06323455082
0.06325475095
0.06327399359
0.06329175754
0.06330777701
0.06332197109
0.06333438061
0.0633451153
0.06335429828
0.06336194485
0.06336747934
0.06319121863
0.0632230891
0.06325768089
0.06329052566
0.0633191805
0.063342805
0.06336152726
0.0633759416
0.06338679336
0.06339481123
0.06340063343
0.06340478612
0.06340768641
0.06340964778
0.06341083159
0.06328962561
0.06337992042
0.06345376152
0.06350457159
0.06353448294
0.06354846911
0.06355151951
0.06354764839
0.06353975779
0.06352981187
0.06351907777
0.06350834482
0.06349811809
0.06348887739
0.06348180983
0.06383482734
0.0639273407
0.06394233515
0.06391542437
0.06386987227
0.06381878302
0.06376878486
0.06372282393
0.06368190665
0.06364609225
0.063615036
0.06358832266
0.06356589597
0.06354953049
0.06472539251
0.06460847892
0.06442944256
0.06425792888
0.06411225684
0.06399346187
0.06389766366
0.06382030347
0.06375741107
0.06370584199
0.06366320829
0.06362780184
0.06359881917
0.0635780063
0.06383481907
0.06392733519
0.06394233103
0.06391542108
0.06386986954
0.06381878069
0.06376878287
0.06372282218
0.0636819051
0.06364609085
0.06361503474
0.0635883215
0.06356589488
0.06354952946
0.06337991847
0.06345375935
0.06350456929
0.06353448057
0.06354846673
0.06355151716
0.06354764613
0.06353975561
0.06352980978
0.06351907579
0.06350834292
0.06349811628
0.06348887565
0.06348180814
0.06322308889
0.06325768055
0.06329052506
0.06331917965
0.06334280392
0.06336152598
0.06337594017
0.06338679182
0.0633948096
0.06340063174
0.06340478438
0.06340768464
0.06340964599
0.06341082978
0.06317815953
0.06319496407
0.06321423128
0.06323455049
0.06325475043
0.06327399286
0.06329175662
0.06330777592
0.06332196984
0.06333437922
0.06334511378
0.06335429666
0.06336194314
0.06336747755
0.06316999081
0.06318642923
0.0632065017
0.0632283731
0.06325050343
0.06327178206
0.06329150261
0.06330928342
0.06332498034
0.06333861025
0.06335029007
0.06336018893
0.06336848098
0.06337524531
0.0633800604
0.06321313827
0.06325702765
0.06329858884
0.06333375676
0.06336162916
0.06338277559
0.06339828467
0.0634093093
0.06341688113
0.06342185489
0.06342490965
0.06342657277
0.06342725303
0.06342728701
0.06342702749
0.06342329814
0.06355367975
0.0636269388
0.06365825918
0.06366363461
0.06365446806
0.06363792801
0.06361825694
0.06359786487
0.0635780633
0.06355952148
0.06354254801
0.06352729372
0.06351403912
0.06350413836
0.06456810103
0.06472538744
0.06460847529
0.06442944015
0.06425792723
0.06411225567
0.063993461
0.06389766302
0.06382030298
0.06375741069
0.06370584168
0.06366320802
0.0636278016
0.06359881893
0.06357800607
0.06855633127
0.06660784031
0.06552812738
0.06489568181
0.06450379729
0.06424737674
0.0640709466
0.06394405276
0.0638492883
0.06377629408
0.06371867383
0.06367243042
0.06363549759
0.06360937474
0.06472539265
0.06460847026
0.06442943482
0.06425792281
0.06411225204
0.063993458
0.06389766047
0.06382030078
0.06375740876
0.06370583996
0.06366320648
0.06362780022
0.06359881768
0.0635780049
0.06355367992
0.06362693762
0.06365825727
0.06366363233
0.06365446565
0.0636379256
0.06361825461
0.06359786265
0.06357806117
0.06355951946
0.06354254608
0.06352729188
0.06351403736
0.06350413665
0.06325702789
0.06329858874
0.06333375621
0.06336162821
0.06338277432
0.06339828316
0.06340930762
0.06341687935
0.06342185302
0.06342490774
0.06342657083
0.06342725108
0.06342728506
0.06342702554
0.06318642935
0.06320650171
0.06322837291
0.063250503
0.06327178138
0.06329150169
0.06330928228
0.06332497901
0.06333860875
0.06335028843
0.06336018718
0.06336847914
0.06337524339
0.06338005841
0.06316517798
0.06317815928
0.06319496379
0.06321423105
0.06323455037
0.06325475044
0.06327399303
0.06329175695
0.06330777639
0.06332197044
0.06333437994
0.06334511461
0.06335429757
0.06336194413
0.06336747861
0.06319121825
0.06322308841
0.06325768005
0.06329052474
0.06331917954
0.06334280403
0.06336152628
0.06337594062
0.06338679239
0.06339481027
0.06340063248
0.06340478518
0.06340768548
0.06340964687
0.06341083068
0.06328962274
0.06337991749
0.06345375832
0.06350456859
0.06353448019
0.06354846658
0.06355151719
0.06354764628
0.06353975584
0.06352981006
0.0635190761
0.06350834325
0.06349811663
0.063488876
0.0634818085
0.06362642297
0.06383481542
0.06392733092
0.06394232747
0.06391541818
0.06386986719
0.06381877879
0.06376878132
0.0637228209
0.06368190402
0.06364608994
0.06361503394
0.06358832079
0.06356589425
0.06354952888
0.06456810225
0.06472538628
0.06460846582
0.06442943177
0.06425792061
0.06411225043
0.06399345679
0.06389765953
0.06382030004
0.06375740815
0.06370583945
0.06366320605
0.06362779984
0.06359881735
0.06357800461
0.0636264244
0.06383481388
0.06392732876
0.06394232527
0.06391541617
0.0638698654
0.06381877719
0.06376877987
0.06372281957
0.06368190279
0.0636460888
0.06361503288
0.0635883198
0.06356589331
0.06354952797
0.06337992069
0.06345375919
0.06350456812
0.06353447898
0.06354846501
0.06355151543
0.06354764446
0.06353975403
0.06352980829
0.06351907438
0.06350834158
0.06349811501
0.06348887443
0.06348180696
0.06322308925
0.06325768047
0.06329052464
0.06331917897
0.06334280307
0.06336152504
0.06337593917
0.06338679079
0.06339480857
0.06340063071
0.06340478337
0.06340768365
0.06340964501
0.06341082881
0.06317815962
0.06319496407
0.06321423117
0.06323455026
0.06325475007
0.06327399241
0.06329175607
0.0633077753
0.06332196916
0.0633343785
0.06334511302
0.06335429588
0.06336194234
0.06336747673
0.0631587507
0.06316655384
0.0631773909
0.06319078219
0.0632059693
0.06322213524
0.06323854906
0.06325463396
0.06326998087
0.06328433125
0.06329754591
0.06330956694
0.06332035956
0.06332975139
0.06333678106
0.06317017512
0.06318703781
0.06320788881
0.06323052057
0.06325301977
0.063274082
0.06329300113
0.06330952569
0.06332369637
0.06333571329
0.06334584358
0.06335436201
0.06336150495
0.06336738145
0.0633716111
0.06320507291
0.06324695123
0.06329080162
0.06333043924
0.06336288762
0.06338755575
0.06340517929
0.06341703058
0.06342445409
0.06342864429
0.06343056993
0.0634309747
0.06343041625
0.06342933943
0.06342824947
0.06328962241
0.06337991659
0.06345375696
0.06350456695
0.06353447844
0.06354846483
0.0635515155
0.06354764468
0.06353975436
0.06352980869
0.06351907482
0.06350834205
0.06349811549
0.06348887493
0.06348180746
0.06342329728
0.06355367625
0.06362693405
0.06365825425
0.06366362988
0.06365446367
0.06363792399
0.06361825329
0.06359786156
0.06357806027
0.06355951869
0.0635425454
0.06352729128
0.06351403682
0.06350413615
0.06328962191
0.06337991574
0.06345375592
0.06350456585
0.06353447732
0.06354846375
0.06355151446
0.06354764368
0.06353975339
0.06352980776
0.06351907393
0.06350834119
0.06349811467
0.06348887413
0.06348180668
0.06320507368
0.06324695179
0.06329080174
0.06333043891
0.06336288693
0.06338755481
0.06340517817
0.06341702935
0.06342445278
0.06342864296
0.06343056858
0.06343097334
0.0634304149
0.06342933809
0.06342824813
0.06318703849
0.06320788912
0.06323052054
0.06325301939
0.06327408133
0.06329300022
0.06330952459
0.06332369512
0.06333571193
0.06334584212
0.06335436048
0.06336150337
0.06336737984
0.06337160945
0.06316655412
0.06317739113
0.06319078228
0.06320596921
0.06322213494
0.06323854855
0.06325463325
0.06326997997
0.06328433017
0.06329754468
0.06330956557
0.06332035808
0.06332974981
0.0633367794
0.06315446325
0.06315861848
0.06316476424
0.06317293792
0.0631829466
0.06319444292
0.06320700795
0.06322021803
0.06323368853
0.06324709609
0.06326018371
0.06327274899
0.06328459603
0.06329534662
0.06330363928
0.06315885951
0.06316671103
0.06317747229
0.06319057758
0.06320523695
0.06322066049
0.06323618516
0.0632513191
0.06326573515
0.06327924111
0.06329174338
0.06330320849
0.06331360712
0.06332275498
0.06332966391
0.06317017503
0.06318703764
0.06320788853
0.06323052019
0.06325301928
0.06327408142
0.06329300048
0.06330952499
0.06332369566
0.06333571256
0.06334584284
0.06335436127
0.06336150421
0.06336738072
0.06337161037
0.06319121809
0.06322308798
0.06325767931
0.06329052371
0.06331917826
0.06334280256
0.0633615247
0.06337593896
0.06338679069
0.06339480856
0.06340063078
0.0634047835
0.06340768382
0.06340964523
0.06341082905
0.06321313792
0.06325702658
0.06329858715
0.06333375459
0.06336162667
0.0633827729
0.06339828187
0.06340930645
0.06341687829
0.06342185207
0.06342490688
0.06342657005
0.06342725037
0.06342728439
0.06342702491
0.063191218
0.06322308783
0.0632576791
0.06329052342
0.0633191779
0.06334280215
0.06336152423
0.06337593846
0.06338679016
0.063394808
0.0634006302
0.0634047829
0.06340768321
0.06340964461
0.06341082842
0.0631701751
0.0631870377
0.06320788851
0.06323052003
0.06325301898
0.06327408097
0.06329299991
0.06330952432
0.06332369489
0.06333571172
0.06334584194
0.06335436031
0.06336150321
0.06336737969
0.06337160931
0.06315885969
0.06316671123
0.06317747244
0.06319057762
0.06320523685
0.06322066023
0.06323618475
0.06325131855
0.06326573445
0.06327924029
0.06329174244
0.06330320745
0.063313606
0.06332275377
0.06332966264
0.0631586187
0.06316476441
0.06317293802
0.0631829466
0.06319444281
0.06320700769
0.06322021763
0.06323368798
0.06324709539
0.06326018286
0.06327274801
0.06328459492
0.06329534539
0.06330363796
0.0631525454
0.06315502083
0.06315886434
0.06316428467
0.06317134627
0.06317997103
0.06318996613
0.0632010637
0.06321296034
0.0632253497
0.06323794387
0.06325047739
0.06326266797
0.0632740158
0.0632829247
0.06315446324
0.06315861845
0.06316476418
0.06317293783
0.06318294647
0.06319444275
0.06320700774
0.06322021778
0.06323368825
0.06324709577
0.06326018336
0.06327274863
0.06328459564
0.06329534622
0.06330363887
0.06315875068
0.06316655377
0.06317739075
0.06319078194
0.06320596894
0.06322213476
0.06323854848
0.06325463328
0.06326998012
0.06328433042
0.06329754503
0.06330956601
0.06332035859
0.06332975039
0.06333678003
0.06316517795
0.06317815915
0.06319496351
0.06321423058
0.0632345497
0.06325474956
0.06327399197
0.06329175572
0.06330777502
0.06332196896
0.06333437837
0.06334511296
0.06335429587
0.06336194238
0.06336747682
0.0631699907
0.0631864289
0.06320650109
0.06322837218
0.06325050221
0.06327178056
0.06329150087
0.06330928148
0.06332497823
0.06333860801
0.06335028773
0.06336018651
0.0633684785
0.06337524278
0.06338005782
0.06316517795
0.06317815916
0.06319496352
0.06321423058
0.06323454967
0.06325474951
0.06327399187
0.06329175557
0.06330777483
0.06332196871
0.06333437807
0.06334511262
0.0633542955
0.06336194197
0.06336747638
0.06315875067
0.06316655376
0.06317739073
0.06319078188
0.06320596881
0.06322213457
0.06323854821
0.06325463292
0.06326997967
0.06328432989
0.06329754442
0.06330956533
0.06332035785
0.06332974959
0.06333677919
0.06315446327
0.0631586185
0.06316476422
0.06317293784
0.06318294642
0.06319444262
0.06320700751
0.06322021745
0.06323368781
0.06324709522
0.0632601827
0.06327274785
0.06328459477
0.06329534525
0.06330363783
0.06315254546
0.06315502091
0.06315886442
0.06316428473
0.0631713463
0.06317997099
0.06318996601
0.06320106347
0.06321296
0.06322534924
0.06323794328
0.06325047668
0.06326266712
0.06327401483
0.06328292363
)
;

boundaryField
{
    top
    {
        type            zeroGradient;
    }
    bottom
    {
        type            zeroGradient;
    }
    side-walls
    {
        type            zeroGradient;
    }
    inlet
    {
        type            zeroGradient;
    }
    outlet
    {
        type            zeroGradient;
    }
    procBoundary1to0
    {
        type            processor;
        value           nonuniform List<scalar> 
97
(
0.06315254547
0.06315254547
0.06315446329
0.06315875067
0.0631651779
0.06316999056
0.06316517776
0.06315875055
0.06315446318
0.06315254537
0.06315200297
0.06315885973
0.06315885973
0.06315885973
0.06317017518
0.06319121805
0.06321313751
0.06319121762
0.06317017479
0.06315885938
0.06315446319
0.06315394771
0.06315896732
0.06320507401
0.06320507401
0.06320507401
0.06328962281
0.06342329525
0.06328962058
0.06320507206
0.06317017479
0.06315875056
0.06315679173
0.06316780075
0.06320622216
0.06362643209
0.06362643209
0.06362643209
0.06456809089
0.06362641866
0.06328962069
0.06319121772
0.06316517782
0.06315881812
0.06317611526
0.06324877446
0.0635355422
0.07227087305
0.07227087305
0.07227087305
0.06456809391
0.06456809391
0.06342329565
0.06321313754
0.06316999055
0.06315679171
0.06316780071
0.06320622195
0.06331762496
0.06353554349
0.0633176246
0.06328962451
0.06328962451
0.06328962451
0.06319121821
0.06316517792
0.0631539477
0.0631589673
0.06317364762
0.06320622188
0.06324877434
0.06320622164
0.06317364763
0.06317017543
0.06317017543
0.06317017543
0.06315875073
0.06315200295
0.06315398618
0.06315896727
0.06316780068
0.06317611521
0.06316780064
0.06315896726
0.0631539862
0.06315446335
0.06315446335
0.06315446335
0.06315112122
0.06315200295
0.0631539477
0.06315679172
0.06315881811
0.06315679173
0.06315394769
0.06315200295
0.06315112124
)
;
    }
}


// ************************************************************************* //
