/*--------------------------------*- C++ -*----------------------------------*\
| =========                 |                                                 |
| \\      /  F ield         | OpenFOAM: The Open Source CFD Toolbox           |
|  \\    /   O peration     | Version:  4.x                                   |
|   \\  /    A nd           | Web:      www.OpenFOAM.org                      |
|    \\/     M anipulation  |                                                 |
\*---------------------------------------------------------------------------*/
FoamFile
{
    version     2.0;
    format      ascii;
    class       volScalarField;
    location    "3000";
    object      H2;
}
// * * * * * * * * * * * * * * * * * * * * * * * * * * * * * * * * * * * * * //

dimensions      [0 0 0 0 0 0 0];

internalField   nonuniform List<scalar> 
1174
(
0.002172413663
0.002172339505
0.00217223494
0.00217209874
0.002171932431
0.00217173975
0.00217152588
0.002171296688
0.002171058091
0.002170815647
0.002170574475
0.002170340009
0.002170121847
0.002169950632
0.00217234419
0.00217222558
0.002172067864
0.002171874788
0.002171653077
0.002171410833
0.002171156246
0.002170896744
0.00217063857
0.002170386678
0.002170144968
0.002169917201
0.002169710627
0.002169551351
0.002172190924
0.002171981723
0.002171723277
0.002171430257
0.002171118459
0.002170802004
0.002170492031
0.002170196432
0.002169920188
0.002169665973
0.002169434891
0.002169227587
0.002169047334
0.002168912504
0.002171966722
0.002171642268
0.002171270372
0.002170878305
0.002170488699
0.002170117739
0.002169775477
0.002169467029
0.002169193937
0.002168955394
0.00216874926
0.002168573131
0.002168426652
0.002168320746
0.002171806922
0.002171419347
0.002170997177
0.002170570177
0.002170159798
0.002169779671
0.002169437149
0.002169134993
0.002168872855
0.002168648454
0.002168458505
0.002168299616
0.002168170203
0.002168078207
0.002171966726
0.002171642274
0.002171270379
0.002170878313
0.002170488708
0.002170117748
0.002169775487
0.002169467039
0.002169193947
0.002168955404
0.00216874927
0.002168573141
0.002168426663
0.002168320756
0.002172190927
0.002171981727
0.002171723282
0.002171430263
0.002171118466
0.002170802012
0.00217049204
0.002170196442
0.002169920199
0.002169665985
0.002169434904
0.002169227601
0.002169047348
0.002168912519
0.002172344192
0.002172225583
0.002172067867
0.002171874792
0.002171653082
0.00217141084
0.002171156254
0.002170896753
0.00217063858
0.00217038669
0.002170144981
0.002169917215
0.002169710642
0.002169551367
0.002172413665
0.002172339507
0.002172234942
0.002172098743
0.002171932435
0.002171739755
0.002171525886
0.002171296696
0.0021710581
0.002170815657
0.002170574487
0.002170340022
0.002170121862
0.002169950649
0.002172424396
0.00217234419
0.00217222558
0.002172067864
0.002171874788
0.002171653077
0.002171410834
0.002171156247
0.002170896745
0.002170638571
0.002170386679
0.002170144969
0.002169917202
0.002169710628
0.002169551352
0.002172187871
0.002171980127
0.002171727196
0.002171444356
0.00217114688
0.002170847577
0.002170555945
0.002170278294
0.002170018327
0.002169777838
0.002169557459
0.002169357733
0.002169182164
0.002169049645
0.002171795161
0.002171392537
0.002170955664
0.002170521521
0.002170115301
0.002169750629
0.00216943234
0.002169159625
0.002168928597
0.002168734077
0.002168570738
0.002168433994
0.002168321681
0.002168240956
0.002171098503
0.002170430449
0.002169796394
0.002169243523
0.002168788031
0.002168427398
0.002168150097
0.002167941695
0.002167788087
0.002167676923
0.002167598023
0.002167543308
0.002167506674
0.002167484813
0.002170442482
0.002169639811
0.002168960986
0.002168423377
0.002168015909
0.002167717486
0.002167505786
0.00216736084
0.002167266112
0.002167208465
0.002167177698
0.002167165897
0.002167166511
0.002167172541
0.002171098511
0.002170430459
0.002169796406
0.002169243535
0.002168788044
0.00216842741
0.00216815011
0.002167941708
0.002167788099
0.002167676935
0.002167598035
0.00216754332
0.002167506685
0.002167484825
0.002171795169
0.002171392546
0.002170955673
0.002170521531
0.002170115312
0.002169750641
0.002169432353
0.002169159639
0.002168928612
0.002168734092
0.002168570755
0.002168434011
0.002168321698
0.002168240974
0.002172187877
0.002171980133
0.002171727202
0.002171444363
0.002171146888
0.002170847586
0.002170555956
0.002170278307
0.002170018341
0.002169777853
0.002169557475
0.002169357751
0.002169182183
0.002169049665
0.002172344192
0.002172225583
0.002172067868
0.002171874792
0.002171653083
0.002171410841
0.002171156255
0.002170896755
0.002170638582
0.002170386693
0.002170144985
0.00216991722
0.002169710647
0.002169551373
0.002172341586
0.002172190926
0.002171981726
0.00217172328
0.002171430261
0.002171118463
0.002170802008
0.002170492035
0.002170196436
0.002169920192
0.002169665978
0.002169434895
0.002169227591
0.002169047338
0.002168912508
0.00217212085
0.002171795164
0.002171392542
0.002170955669
0.002170521526
0.002170115306
0.002169750634
0.002169432345
0.00216915963
0.002168928602
0.002168734081
0.002168570743
0.002168433998
0.002168321685
0.00216824096
0.002170637342
0.002169790433
0.002169025215
0.002168399162
0.002167923634
0.002167584351
0.002167356675
0.002167214589
0.002167134989
0.002167099141
0.002167092663
0.002167104769
0.002167126818
0.002167148869
0.0021680672
0.002166640964
0.002165660294
0.002165083793
0.002164815185
0.002164757937
0.00216483441
0.002164988491
0.002165182212
0.002165391089
0.002165599874
0.002165798806
0.002165978584
0.002166116109
0.002164707709
0.002163293153
0.002162689704
0.002162587879
0.00216276709
0.0021630887
0.002163470683
0.002163866461
0.002164250701
0.002164610487
0.002164939871
0.002165235946
0.00216549327
0.002165685525
0.002168067234
0.002166640998
0.002165660325
0.002165083821
0.00216481521
0.002164757961
0.002164834431
0.002164988511
0.002165182231
0.002165391107
0.00216559989
0.002165798821
0.002165978599
0.002166116124
0.00217063737
0.002169790456
0.002169025236
0.002168399184
0.002167923657
0.002167584374
0.002167356699
0.002167214614
0.002167135014
0.002167099165
0.002167092688
0.002167104793
0.002167126842
0.002167148893
0.002171795169
0.002171392547
0.002170955676
0.002170521535
0.002170115317
0.002169750647
0.00216943236
0.002169159647
0.002168928621
0.002168734102
0.002168570764
0.002168434021
0.002168321709
0.002168240985
0.002172190927
0.002171981728
0.002171723284
0.002171430266
0.00217111847
0.002170802018
0.002170492047
0.002170196451
0.002169920209
0.002169665997
0.002169434917
0.002169227615
0.002169047363
0.002168912535
0.002172217416
0.002171966727
0.002171642276
0.002171270381
0.002170878315
0.002170488709
0.002170117749
0.002169775488
0.002169467039
0.002169193948
0.002168955404
0.002168749269
0.00216857314
0.002168426661
0.002168320754
0.002171714184
0.002171098509
0.00217043046
0.002169796407
0.002169243535
0.002168788043
0.002168427409
0.002168150108
0.002167941705
0.002167788096
0.002167676931
0.002167598031
0.002167543316
0.002167506681
0.00216748482
0.002169812002
0.002168067208
0.002166640978
0.002165660307
0.002165083805
0.002164815195
0.002164757946
0.002164834417
0.002164988497
0.002165182218
0.002165391094
0.002165599878
0.002165798809
0.002165978587
0.002166116112
0.002159272416
0.002157486385
0.002157199324
0.002157722283
0.002158605331
0.002159595098
0.002160563476
0.002161453561
0.002162245952
0.002162939549
0.002163541053
0.002164058515
0.002164493014
0.00216481013
0.002142050875
0.002144316476
0.002147782456
0.002151102032
0.002153921172
0.002156220063
0.002158073903
0.002159570963
0.002160788095
0.002161786162
0.002162611376
0.002163296789
0.002163857931
0.002164260948
0.002159272539
0.002157486467
0.002157199386
0.002157722334
0.002158605374
0.002159595136
0.002160563509
0.002161453591
0.002162245978
0.002162939573
0.002163541075
0.002164058535
0.002164493033
0.002164810148
0.002168067235
0.002166641009
0.002165660341
0.002165083841
0.002164815233
0.002164757984
0.002164834455
0.002164988534
0.002165182253
0.002165391128
0.002165599911
0.002165798841
0.002165978618
0.002166116142
0.002171098511
0.002170430463
0.002169796415
0.002169243548
0.00216878806
0.00216842743
0.002168150132
0.002167941731
0.002167788124
0.002167676961
0.002167598061
0.002167543347
0.002167506712
0.002167484852
0.002171966725
0.002171642275
0.002171270382
0.002170878319
0.002170488717
0.002170117761
0.002169775503
0.002169467058
0.002169193969
0.002168955428
0.002168749296
0.002168573168
0.002168426691
0.002168320785
0.002172124412
0.002171806927
0.002171419355
0.002170997187
0.002170570187
0.002170159809
0.002169779683
0.002169437161
0.002169135005
0.002168872866
0.002168648465
0.002168458515
0.002168299626
0.002168170213
0.002168078216
0.002171290454
0.002170442492
0.002169639829
0.002168961005
0.002168423395
0.002168015925
0.002167717502
0.0021675058
0.002167360854
0.002167266125
0.002167208477
0.002167177709
0.002167165907
0.002167166521
0.002167172549
0.002167227307
0.002164707723
0.002163293187
0.002162689737
0.002162587907
0.002162767113
0.002163088718
0.002163470699
0.002163866475
0.002164250713
0.002164610497
0.00216493988
0.002165235955
0.002165493278
0.002165685532
0.002145088057
0.002142050965
0.002144316538
0.002147782496
0.002151102059
0.002153921191
0.002156220077
0.002158073913
0.00215957097
0.002160788101
0.002161786167
0.00216261138
0.002163296792
0.002163857934
0.002164260951
0.002067958247
0.002105652864
0.002126539393
0.002138773253
0.002146353564
0.002151313513
0.002154726227
0.002157180811
0.002159013973
0.002160426092
0.002161540885
0.002162435665
0.002163150378
0.002163655956
0.002142050867
0.002144316606
0.002147782577
0.002151102131
0.002153921252
0.002156220129
0.002158073958
0.002159571009
0.002160788136
0.002161786198
0.002162611408
0.002163296817
0.002163857957
0.002164260972
0.002164707713
0.002163293201
0.002162689766
0.002162587943
0.002162767153
0.00216308876
0.002163470739
0.002163866514
0.002164250751
0.002164610533
0.002164939914
0.002165235987
0.002165493309
0.002165685563
0.002170442487
0.002169639829
0.002168961013
0.00216842341
0.002168015947
0.002167717528
0.002167505829
0.002167360885
0.002167266158
0.002167208511
0.002167177743
0.002167165942
0.002167166556
0.002167172585
0.002171806924
0.002171419355
0.00217099719
0.002170570195
0.002170159821
0.002169779699
0.002169437181
0.002169135029
0.002168872893
0.002168648495
0.002168458547
0.00216829966
0.002168170247
0.002168078253
0.002172217417
0.00217196673
0.00217164228
0.002171270386
0.002170878321
0.002170488717
0.002170117758
0.002169775497
0.002169467049
0.002169193958
0.002168955415
0.00216874928
0.002168573151
0.002168426673
0.002168320766
0.00217171419
0.002171098519
0.002170430472
0.00216979642
0.002169243549
0.002168788058
0.002168427424
0.002168150123
0.00216794172
0.002167788112
0.002167676947
0.002167598046
0.002167543331
0.002167506696
0.002167484835
0.002169812046
0.002168067252
0.002166641025
0.002165660352
0.002165083847
0.002164815234
0.002164757982
0.002164834451
0.002164988529
0.002165182247
0.002165391122
0.002165599904
0.002165798834
0.002165978611
0.002166116135
0.002163299981
0.002159272602
0.002157486537
0.002157199444
0.002157722381
0.002158605413
0.002159595167
0.002160563534
0.002161453612
0.002162245996
0.002162939588
0.002163541088
0.002164058547
0.002164493043
0.002164810158
0.002145088027
0.002142050974
0.002144316679
0.002147782627
0.002151102167
0.002153921278
0.002156220148
0.002158073973
0.002159571021
0.002160788146
0.002161786206
0.002162611415
0.002163296824
0.002163857962
0.002164260977
0.002163299957
0.002159272622
0.002157486569
0.002157199479
0.002157722415
0.002158605444
0.002159595195
0.00216056356
0.002161453636
0.002162246018
0.002162939609
0.002163541107
0.002164058565
0.00216449306
0.002164810175
0.002168067202
0.002166641013
0.002165660362
0.002165083869
0.002164815263
0.002164758014
0.002164834484
0.002164988562
0.00216518228
0.002165391153
0.002165599935
0.002165798864
0.002165978639
0.002166116163
0.002171098506
0.002170430466
0.002169796423
0.002169243561
0.002168788076
0.002168427447
0.00216815015
0.00216794175
0.002167788143
0.002167676979
0.002167598079
0.002167543365
0.00216750673
0.002167484869
0.002171966724
0.002171642276
0.002171270385
0.002170878324
0.002170488724
0.00217011777
0.002169775513
0.002169467069
0.002169193982
0.002168955441
0.00216874931
0.002168573183
0.002168426706
0.0021683208
0.002172341587
0.002172190929
0.00217198173
0.002171723285
0.002171430268
0.00217111847
0.002170802017
0.002170492046
0.002170196448
0.002169920206
0.002169665993
0.002169434911
0.002169227608
0.002169047356
0.002168912527
0.002172120856
0.002171795173
0.002171392553
0.002170955682
0.002170521539
0.002170115321
0.00216975065
0.002169432363
0.002169159649
0.002168928622
0.002168734102
0.002168570765
0.00216843402
0.002168321708
0.002168240984
0.002171446442
0.00217063738
0.002169790472
0.002169025254
0.002168399202
0.002167923674
0.002167584391
0.002167356715
0.002167214629
0.002167135028
0.002167099179
0.0021670927
0.002167104805
0.002167126853
0.002167148904
0.002169812051
0.002168067267
0.002166641048
0.002165660379
0.002165083876
0.002164815264
0.002164758011
0.002164834478
0.002164988554
0.002165182271
0.002165391144
0.002165599925
0.002165798854
0.002165978629
0.002166116153
0.00216722732
0.002164707776
0.002163293261
0.002162689816
0.002162587984
0.002162767185
0.002163088786
0.002163470761
0.002163866531
0.002164250765
0.002164610545
0.002164939925
0.002165235997
0.002165493318
0.002165685571
0.00216981206
0.002168067281
0.002166641066
0.002165660399
0.002165083896
0.002164815284
0.002164758031
0.002164834497
0.002164988572
0.002165182289
0.00216539116
0.002165599941
0.002165798869
0.002165978644
0.002166116168
0.00217144643
0.002170637373
0.002169790472
0.002169025261
0.002168399216
0.002167923693
0.002167584413
0.002167356738
0.002167214654
0.002167135053
0.002167099204
0.002167092726
0.002167104831
0.002167126879
0.00216714893
0.002171795163
0.002171392549
0.002170955684
0.002170521548
0.002170115335
0.002169750668
0.002169432384
0.002169159673
0.002168928648
0.00216873413
0.002168570793
0.00216843405
0.002168321738
0.002168241014
0.002172190925
0.002171981727
0.002171723285
0.00217143027
0.002171118477
0.002170802028
0.00217049206
0.002170196466
0.002169920226
0.002169666016
0.002169434937
0.002169227637
0.002169047386
0.002168912559
0.002172424397
0.002172344193
0.002172225585
0.00217206787
0.002171874795
0.002171653086
0.002171410845
0.002171156259
0.002170896759
0.002170638587
0.002170386697
0.002170144989
0.002169917224
0.002169710651
0.002169551376
0.002172339478
0.002172187879
0.002171980137
0.002171727207
0.002171444369
0.002171146895
0.002170847594
0.002170555964
0.002170278316
0.00217001835
0.002169777863
0.002169557485
0.00216935776
0.002169182193
0.002169049675
0.002172120858
0.002171795176
0.002171392557
0.002170955688
0.002170521548
0.002170115331
0.002169750662
0.002169432375
0.002169159661
0.002168928635
0.002168734115
0.002168570777
0.002168434033
0.002168321721
0.002168240996
0.002171714192
0.002171098526
0.002170430484
0.002169796437
0.002169243571
0.002168788082
0.002168427451
0.002168150151
0.002167941749
0.002167788141
0.002167676976
0.002167598075
0.00216754336
0.002167506724
0.002167484863
0.002171290459
0.002170442509
0.002169639855
0.00216896104
0.002168423436
0.00216801597
0.002167717549
0.002167505848
0.002167360902
0.002167266173
0.002167208524
0.002167177756
0.002167165953
0.002167166566
0.002167172595
0.002171714194
0.002171098529
0.002170430488
0.002169796442
0.002169243577
0.00216878809
0.00216842746
0.002168150161
0.00216794176
0.002167788152
0.002167676987
0.002167598086
0.002167543371
0.002167506736
0.002167484875
0.002172120857
0.002171795176
0.002171392559
0.002170955692
0.002170521554
0.00217011534
0.002169750673
0.002169432388
0.002169159677
0.002168928651
0.002168734133
0.002168570796
0.002168434052
0.00216832174
0.002168241016
0.002172339475
0.002172187877
0.002171980135
0.002171727207
0.002171444372
0.0021711469
0.002170847602
0.002170555975
0.002170278329
0.002170018366
0.002169777881
0.002169557505
0.002169357782
0.002169182216
0.002169049699
0.00217234419
0.002172225582
0.002172067869
0.002171874796
0.002171653089
0.00217141085
0.002171156268
0.00217089677
0.0021706386
0.002170386714
0.002170145008
0.002169917245
0.002169710675
0.002169551401
0.002172461433
0.002172413666
0.002172339509
0.002172234945
0.002172098747
0.002171932439
0.00217173976
0.002171525893
0.002171296703
0.002171058108
0.002170815666
0.002170574496
0.002170340032
0.002170121872
0.002169950659
0.002172424398
0.002172344194
0.002172225586
0.002172067872
0.002171874798
0.002171653089
0.002171410848
0.002171156264
0.002170896764
0.002170638592
0.002170386703
0.002170144995
0.002169917231
0.002169710658
0.002169551383
0.002172341587
0.00217219093
0.002171981732
0.00217172329
0.002171430274
0.002171118479
0.002170802027
0.002170492057
0.002170196461
0.00216992022
0.002169666008
0.002169434927
0.002169227625
0.002169047374
0.002168912545
0.002172217417
0.002171966731
0.002171642284
0.002171270394
0.002170878332
0.002170488731
0.002170117775
0.002169775517
0.002169467072
0.002169193983
0.002168955442
0.002168749309
0.002168573181
0.002168426703
0.002168320797
0.002172124413
0.002171806932
0.002171419365
0.002170997202
0.002170570207
0.002170159834
0.002169779712
0.002169437194
0.002169135041
0.002168872904
0.002168648506
0.002168458557
0.00216829967
0.002168170257
0.002168078262
0.002172217417
0.002171966731
0.002171642284
0.002171270394
0.002170878333
0.002170488732
0.002170117777
0.00216977552
0.002169467076
0.002169193988
0.002168955447
0.002168749315
0.002168573188
0.002168426711
0.002168320806
0.002172341587
0.00217219093
0.002171981733
0.002171723291
0.002171430276
0.002171118483
0.002170802033
0.002170492065
0.00217019647
0.00216992023
0.00216966602
0.002169434941
0.00216922764
0.002169047389
0.002168912562
0.002172424397
0.002172344193
0.002172225585
0.002172067872
0.002171874799
0.002171653092
0.002171410853
0.002171156271
0.002170896773
0.002170638603
0.002170386717
0.00217014501
0.002169917248
0.002169710677
0.002169551403
0.002172461432
0.002172413665
0.002172339508
0.002172234944
0.002172098747
0.002171932441
0.002171739763
0.002171525898
0.00217129671
0.002171058117
0.002170815678
0.002170574511
0.002170340049
0.002170121891
0.00216995068
)
;

boundaryField
{
    top
    {
        type            zeroGradient;
    }
    bottom
    {
        type            zeroGradient;
    }
    side-walls
    {
        type            zeroGradient;
    }
    inlet
    {
        type            zeroGradient;
    }
    outlet
    {
        type            zeroGradient;
    }
    procBoundary1to0
    {
        type            processor;
        value           nonuniform List<scalar> 
97
(
0.002172461432
0.002172461432
0.002172424397
0.002172341588
0.002172217418
0.002172124415
0.002172217421
0.00217234159
0.002172424399
0.002172461434
0.00217247189
0.002172339475
0.002172339475
0.002172339475
0.002172120856
0.002171714193
0.002171290467
0.0021717142
0.002172120862
0.00217233948
0.002172424399
0.002172434329
0.00217233735
0.002171446426
0.002171446426
0.002171446426
0.002169812048
0.002167227359
0.002169812083
0.002171446456
0.002172120862
0.002172341589
0.002172379387
0.00217216665
0.002171424027
0.00216329985
0.00216329985
0.00216329985
0.002145088281
0.002163300062
0.002169812081
0.002171714198
0.00217221742
0.00217234023
0.002172005935
0.00217060132
0.00216505627
0.001996094496
0.001996094496
0.001996094496
0.002145088227
0.002145088227
0.002167227353
0.002171290467
0.002172124416
0.002172379387
0.00217216665
0.002171424029
0.002169270257
0.002165056241
0.002169270265
0.002169812019
0.002169812019
0.002169812019
0.002171714191
0.002172217418
0.002172434329
0.002172337349
0.002172053661
0.00217142403
0.002170601321
0.002171424035
0.002172053662
0.002172120852
0.002172120852
0.002172120852
0.002172341587
0.00217247189
0.002172433583
0.00217233735
0.00217216665
0.002172005935
0.002172166651
0.00217233735
0.002172433582
0.002172424396
0.002172424396
0.002172424396
0.002172488917
0.00217247189
0.002172434329
0.002172379387
0.00217234023
0.002172379387
0.002172434329
0.00217247189
0.002172488916
)
;
    }
}


// ************************************************************************* //
