/*--------------------------------*- C++ -*----------------------------------*\
| =========                 |                                                 |
| \\      /  F ield         | OpenFOAM: The Open Source CFD Toolbox           |
|  \\    /   O peration     | Version:  4.x                                   |
|   \\  /    A nd           | Web:      www.OpenFOAM.org                      |
|    \\/     M anipulation  |                                                 |
\*---------------------------------------------------------------------------*/
FoamFile
{
    version     2.0;
    format      ascii;
    class       volScalarField;
    location    "3000";
    object      H2O;
}
// * * * * * * * * * * * * * * * * * * * * * * * * * * * * * * * * * * * * * //

dimensions      [0 0 0 0 0 0 0];

internalField   nonuniform List<scalar> 
1174
(
1.837348765e-06
2.460274747e-06
3.338612522e-06
4.482684955e-06
5.879691465e-06
7.49825149e-06
9.294831802e-06
1.122017439e-05
1.322457832e-05
1.526136085e-05
1.728752085e-05
1.925740936e-05
2.109037373e-05
2.252892647e-05
2.420936975e-06
3.41722117e-06
4.741986583e-06
6.363785769e-06
8.226144276e-06
1.026101719e-05
1.239964034e-05
1.457961416e-05
1.674851212e-05
1.886470312e-05
2.089544301e-05
2.280910915e-05
2.454479121e-05
2.588308374e-05
3.708303123e-06
5.465449556e-06
7.636243208e-06
1.009747882e-05
1.271651513e-05
1.537474163e-05
1.797861419e-05
2.046184042e-05
2.278257773e-05
2.491835382e-05
2.685990341e-05
2.860176727e-05
3.011642695e-05
3.124942177e-05
5.591381858e-06
8.316477881e-06
1.144010983e-05
1.473324249e-05
1.800580948e-05
2.112187386e-05
2.399700147e-05
2.658821321e-05
2.888254349e-05
3.088676505e-05
3.261882991e-05
3.409891354e-05
3.532993854e-05
3.622003175e-05
6.933437663e-06
1.018863412e-05
1.373449203e-05
1.732103007e-05
2.076808149e-05
2.396115756e-05
2.683849481e-05
2.937688649e-05
3.157924779e-05
3.346470419e-05
3.506085302e-05
3.63961443e-05
3.748385118e-05
3.825710456e-05
5.591323865e-06
8.316394004e-06
1.143999368e-05
1.47330902e-05
1.800561706e-05
2.112163693e-05
2.399672004e-05
2.658789012e-05
2.888217708e-05
3.088635734e-05
3.261838683e-05
3.409843466e-05
3.532943058e-05
3.621949501e-05
3.70823845e-06
5.46536485e-06
7.63613125e-06
1.009732508e-05
1.271630764e-05
1.537446827e-05
1.797826806e-05
2.04614194e-05
2.278207492e-05
2.491777278e-05
2.685924525e-05
2.860103845e-05
3.011563067e-05
3.124855942e-05
2.420880591e-06
3.417156117e-06
4.741905194e-06
6.363674312e-06
8.225987757e-06
1.026079934e-05
1.2399346e-05
1.457923106e-05
1.674803283e-05
1.886412207e-05
2.08947569e-05
2.280832194e-05
2.454389972e-05
2.588210196e-05
1.83730793e-06
2.46023507e-06
3.338565578e-06
4.482617213e-06
5.879588145e-06
7.498094649e-06
9.294602825e-06
1.121985935e-05
1.322416067e-05
1.526082686e-05
1.72868622e-05
1.925662301e-05
2.108945378e-05
2.252787231e-05
1.747177894e-06
2.420891411e-06
3.41717794e-06
4.741942855e-06
6.363741681e-06
8.226100145e-06
1.026097276e-05
1.239959783e-05
1.457957084e-05
1.674846882e-05
1.886465815e-05
2.089539768e-05
2.280906819e-05
2.454475012e-05
2.588304327e-05
3.733983103e-06
5.478862774e-06
7.603328336e-06
9.979057908e-06
1.247780315e-05
1.499197469e-05
1.744180639e-05
1.977428635e-05
2.195832046e-05
2.397881668e-05
2.583046499e-05
2.750868004e-05
2.898399164e-05
3.009755168e-05
7.032441325e-06
1.041401871e-05
1.408334256e-05
1.772986314e-05
2.114198424e-05
2.420527233e-05
2.687909662e-05
2.917023783e-05
3.111132241e-05
3.274583971e-05
3.411849445e-05
3.526780695e-05
3.621189063e-05
3.68904651e-05
1.288335075e-05
1.849406414e-05
2.381943229e-05
2.846316507e-05
3.228921502e-05
3.531871447e-05
3.764842429e-05
3.93995446e-05
4.069051602e-05
4.162504027e-05
4.22886063e-05
4.274902756e-05
4.305754921e-05
4.324175247e-05
1.839244235e-05
2.513368354e-05
3.083512224e-05
3.535078315e-05
3.877361556e-05
4.128073579e-05
4.305957953e-05
4.427782462e-05
4.507433198e-05
4.555943273e-05
4.581877339e-05
4.591881172e-05
4.59145032e-05
4.586446698e-05
1.288315463e-05
1.849383066e-05
2.381914978e-05
2.846283364e-05
3.228882615e-05
3.531826628e-05
3.764792393e-05
3.939900708e-05
4.068993782e-05
4.162443151e-05
4.228796834e-05
4.274836973e-05
4.305687296e-05
4.324105665e-05
7.032242325e-06
1.041380759e-05
1.408309369e-05
1.772954795e-05
2.114158165e-05
2.420477039e-05
2.687849641e-05
2.916953695e-05
3.111053202e-05
3.274496533e-05
3.411754606e-05
3.526679912e-05
3.62108248e-05
3.688935001e-05
3.733856747e-06
5.478748062e-06
7.603189213e-06
9.978862471e-06
1.247752658e-05
1.499159868e-05
1.744131621e-05
1.977367393e-05
2.195758768e-05
2.397796473e-05
2.582950071e-05
2.750760369e-05
2.898281423e-05
3.009628603e-05
2.420885748e-06
3.417156998e-06
4.741895778e-06
6.363647535e-06
8.225937384e-06
1.026071906e-05
1.239922965e-05
1.457907663e-05
1.674783952e-05
1.886388367e-05
2.08944783e-05
2.280800233e-05
2.454353789e-05
2.588168523e-05
2.442742234e-06
3.708186324e-06
5.465322643e-06
7.636109017e-06
1.009733791e-05
1.271636987e-05
1.537459574e-05
1.79784664e-05
2.046169347e-05
2.27824322e-05
2.491821038e-05
2.68597595e-05
2.860162919e-05
3.011629293e-05
3.124929207e-05
4.296906712e-06
7.032272886e-06
1.041386401e-05
1.408319541e-05
1.772972125e-05
2.114184472e-05
2.420513555e-05
2.687896646e-05
2.917011325e-05
3.111120751e-05
3.27457269e-05
3.411838482e-05
3.526770301e-05
3.621179063e-05
3.689037232e-05
1.675678838e-05
2.386937863e-05
3.029622836e-05
3.555455225e-05
3.954891568e-05
4.239917313e-05
4.43121837e-05
4.550640847e-05
4.617588147e-05
4.647790339e-05
4.653324805e-05
4.643250256e-05
4.624817436e-05
4.60635772e-05
3.834119038e-05
5.031889524e-05
5.855525461e-05
6.339770259e-05
6.565460083e-05
6.613652297e-05
6.549545921e-05
6.420259204e-05
6.257677587e-05
6.082362714e-05
5.907120825e-05
5.740146894e-05
5.589250051e-05
5.473809924e-05
6.655188655e-05
7.843192739e-05
8.350100018e-05
8.435761944e-05
8.285408737e-05
8.015462903e-05
7.694804464e-05
7.362550971e-05
7.039978161e-05
6.737933708e-05
6.461414957e-05
6.212861049e-05
5.996840639e-05
5.835437663e-05
3.834032289e-05
5.031807104e-05
5.855440526e-05
6.339679796e-05
6.56536444e-05
6.613552386e-05
6.549443324e-05
6.420155577e-05
6.257573868e-05
6.082260654e-05
5.907019772e-05
5.740047823e-05
5.589152431e-05
5.473712545e-05
1.675615173e-05
2.386883643e-05
3.029561895e-05
3.555379979e-05
3.954800305e-05
4.239810232e-05
4.431098474e-05
4.550510808e-05
4.617449711e-05
4.647646282e-05
4.653177127e-05
4.643099888e-05
4.624665509e-05
4.606202775e-05
7.032249238e-06
1.041377597e-05
1.408300038e-05
1.772938136e-05
2.114133399e-05
2.420444533e-05
2.687809889e-05
2.916907754e-05
3.111001836e-05
3.274440232e-05
3.411695108e-05
3.526616535e-05
3.621016082e-05
3.688865342e-05
3.708251519e-06
5.465352894e-06
7.636072178e-06
1.009719557e-05
1.271609067e-05
1.537415061e-05
1.797784197e-05
2.046088543e-05
2.27814393e-05
2.491704044e-05
2.685841524e-05
2.860012241e-05
3.011463444e-05
3.124747935e-05
3.485657057e-06
5.591171972e-06
8.316235142e-06
1.143984143e-05
1.473295657e-05
1.800551339e-05
2.112157715e-05
2.399670124e-05
2.658791862e-05
2.88822529e-05
3.088648151e-05
3.261855899e-05
3.409865115e-05
3.532968531e-05
3.62197853e-05
7.712258032e-06
1.288296528e-05
1.849367806e-05
2.381905332e-05
2.84628009e-05
3.228886914e-05
3.531838569e-05
3.764811701e-05
3.939925632e-05
4.069024352e-05
4.16247838e-05
4.228836045e-05
4.274879394e-05
4.305732913e-05
4.324154163e-05
2.368805368e-05
3.834047392e-05
5.031833482e-05
5.85548033e-05
6.339731802e-05
6.56542722e-05
6.613624966e-05
6.549521061e-05
6.420237667e-05
6.257657621e-05
6.082344294e-05
5.907104691e-05
5.740132802e-05
5.589236618e-05
5.473797164e-05
0.0001121983292
0.0001271967306
0.0001296086905
0.0001252187019
0.0001178047544
0.0001094944411
0.0001013635823
9.389003739e-05
8.723679319e-05
8.141307319e-05
7.636263673e-05
7.201789585e-05
6.836975078e-05
6.570709606e-05
0.0002568086449
0.0002377868885
0.0002086849352
0.0001808115798
0.00015713993
0.0001378365902
0.0001222702319
0.0001096996941
9.947969976e-05
9.109919113e-05
8.417012829e-05
7.841498754e-05
7.370332229e-05
7.031927133e-05
0.0001121952822
0.0001271945566
0.0001296066562
0.0001252166695
0.000117802736
0.0001094924999
0.0001013617301
9.388828916e-05
8.723514107e-05
8.14115157e-05
7.636117745e-05
7.201650486e-05
6.836842935e-05
6.570580987e-05
3.834039399e-05
5.031778114e-05
5.855376048e-05
6.339586949e-05
6.565252833e-05
6.613429534e-05
6.549313766e-05
6.420024427e-05
6.25744303e-05
6.082131529e-05
5.906894068e-05
5.739924806e-05
5.589032412e-05
5.473594062e-05
1.288320583e-05
1.849370211e-05
2.381878043e-05
2.846220328e-05
3.228795521e-05
3.531719136e-05
3.764667925e-05
3.939762448e-05
4.068845771e-05
4.162287387e-05
4.228635072e-05
4.274670559e-05
4.305518304e-05
4.323932835e-05
5.59136071e-06
8.31635443e-06
1.143982341e-05
1.473274522e-05
1.80050688e-05
2.112087991e-05
2.399575209e-05
2.658672651e-05
2.888083372e-05
3.088485544e-05
3.261673992e-05
3.409666579e-05
3.532755274e-05
3.621749678e-05
4.266753955e-06
6.933197478e-06
1.018834565e-05
1.373416512e-05
1.732067568e-05
2.076771105e-05
2.396077383e-05
2.683810942e-05
2.937650523e-05
3.157886847e-05
3.346433433e-05
3.506049258e-05
3.639579529e-05
3.748351198e-05
3.825677747e-05
1.127062886e-05
1.839194076e-05
2.513314262e-05
3.083456341e-05
3.535023464e-05
3.877309053e-05
4.128023001e-05
4.305910953e-05
4.42773799e-05
4.507391895e-05
4.5559042e-05
4.581839971e-05
4.59184568e-05
4.591416828e-05
4.586415078e-05
4.539201103e-05
6.655073198e-05
7.843077786e-05
8.349997147e-05
8.435673673e-05
8.2853353e-05
8.015399599e-05
7.694749714e-05
7.362502977e-05
7.039935359e-05
6.737896678e-05
6.461380731e-05
6.212829719e-05
5.996811809e-05
5.835410719e-05
0.0002313016391
0.0002568051386
0.0002377846874
0.0002086834724
0.0001808105578
0.0001571391922
0.0001378360321
0.0001222698048
0.0001096993504
9.947941848e-05
9.109895121e-05
8.416991811e-05
7.841480194e-05
7.370314909e-05
7.03191113e-05
0.0008789640071
0.0005624457364
0.0003870638256
0.0002843374411
0.000220686323
0.0001790380379
0.0001503817596
0.000129770824
0.0001143779145
0.0001025205205
9.315976267e-05
8.56464933e-05
7.964521777e-05
7.539989193e-05
0.0002568088658
0.0002377836312
0.0002086807411
0.0001808074345
0.0001571361223
0.0001378331995
0.0001222672159
0.0001096970093
9.94772746e-05
9.109699073e-05
8.416811041e-05
7.841313649e-05
7.370160212e-05
7.031762593e-05
6.655210252e-05
7.84306282e-05
8.349867437e-05
8.435470746e-05
8.28509074e-05
8.01513523e-05
7.694478477e-05
7.362233796e-05
7.039670402e-05
6.737639409e-05
6.461131328e-05
6.21258863e-05
5.996577414e-05
5.835180358e-05
1.839251802e-05
2.513328325e-05
3.083419215e-05
3.534938214e-05
3.877182547e-05
4.127863438e-05
4.305725105e-05
4.427533238e-05
4.507172659e-05
4.555674018e-05
4.581602615e-05
4.591602618e-05
4.591169769e-05
4.586163012e-05
6.933475556e-06
1.018850744e-05
1.373411606e-05
1.732035519e-05
2.076709037e-05
2.395984822e-05
2.683688767e-05
2.937500975e-05
3.15771316e-05
3.346237877e-05
3.50583483e-05
3.639348482e-05
3.748105969e-05
3.825417048e-05
3.485644286e-06
5.591120233e-06
8.316137412e-06
1.143969106e-05
1.473275004e-05
1.800524757e-05
2.112124826e-05
2.399631481e-05
2.658747974e-05
2.888176493e-05
3.088594878e-05
3.261797974e-05
3.409803388e-05
3.532904061e-05
3.62191133e-05
7.712125925e-06
1.288272095e-05
1.849333313e-05
2.381861621e-05
2.846228199e-05
3.228827486e-05
3.531772772e-05
3.764740565e-05
3.93984997e-05
4.068945372e-05
4.162396764e-05
4.228752801e-05
4.274794274e-05
4.305646186e-05
4.324066075e-05
2.36866929e-05
3.833920393e-05
5.031693599e-05
5.855332786e-05
6.339580715e-05
6.565274136e-05
6.613472105e-05
6.54937072e-05
6.420090104e-05
6.257514369e-05
6.082206283e-05
5.906970237e-05
5.740002699e-05
5.589110024e-05
5.473672182e-05
7.837232152e-05
0.0001121922723
0.0001271920916
0.0001296046836
0.0001252150886
0.0001178014777
0.00010949147
0.0001013608844
9.388757822e-05
8.7234537e-05
8.141100308e-05
7.636072131e-05
7.20160993e-05
6.836806591e-05
6.570546929e-05
0.0002313013714
0.0002568043015
0.0002377807558
0.0002086788619
0.0001808061008
0.0001571351719
0.0001378324728
0.0001222666518
0.0001096965645
9.947691112e-05
9.109668223e-05
8.416784877e-05
7.84128974e-05
7.370139532e-05
7.031743335e-05
7.837329063e-05
0.0001121921177
0.0001271908825
0.0001296028131
0.0001252129105
0.0001177992051
0.0001094892366
0.0001013587532
9.388557569e-05
8.723265145e-05
8.140923876e-05
7.635906555e-05
7.201455365e-05
6.836660609e-05
6.570405668e-05
3.834118388e-05
5.031734908e-05
5.855262661e-05
6.339434351e-05
6.565079498e-05
6.613248828e-05
6.549132414e-05
6.419846173e-05
6.257270798e-05
6.081964705e-05
5.906733179e-05
5.73977067e-05
5.588883657e-05
5.473448688e-05
1.288345482e-05
1.849365779e-05
2.381845324e-05
2.846164037e-05
3.228720845e-05
3.531631266e-05
3.764570427e-05
3.939658586e-05
4.068737345e-05
4.162176165e-05
4.228522553e-05
4.274558112e-05
4.305404712e-05
4.323817969e-05
5.591435951e-06
8.316359945e-06
1.143972336e-05
1.473252341e-05
1.800472468e-05
2.112041919e-05
2.399518818e-05
2.658607156e-05
2.888010307e-05
3.08840578e-05
3.261589089e-05
3.409577454e-05
3.53266252e-05
3.62165367e-05
2.442714409e-06
3.708111945e-06
5.465195243e-06
7.63591919e-06
1.009707487e-05
1.271602257e-05
1.53741552e-05
1.797793203e-05
2.046106366e-05
2.278170507e-05
2.491739424e-05
2.685885624e-05
2.860064393e-05
3.011523317e-05
3.12481626e-05
4.296683155e-06
7.031980247e-06
1.041348097e-05
1.408271725e-05
1.772913062e-05
2.114113921e-05
2.420431303e-05
2.687803063e-05
2.916907565e-05
3.111007038e-05
3.274451039e-05
3.411709826e-05
3.526635691e-05
3.621039297e-05
3.68889237e-05
9.96089183e-06
1.675551148e-05
2.386811277e-05
3.029485897e-05
3.555304055e-05
3.954726488e-05
4.239739976e-05
4.431031069e-05
4.550447382e-05
4.617389739e-05
4.647590367e-05
4.653124255e-05
4.643050222e-05
4.624618012e-05
4.606157613e-05
2.368666652e-05
3.83388939e-05
5.031627835e-05
5.8552366e-05
6.33946205e-05
6.56514099e-05
6.613331452e-05
6.54922781e-05
6.41994892e-05
6.257375579e-05
6.082070595e-05
5.90683951e-05
5.739875746e-05
5.588986663e-05
5.473551053e-05
4.539192462e-05
6.654954931e-05
7.842845814e-05
8.349690748e-05
8.435328548e-05
8.28497507e-05
8.015040452e-05
7.694399807e-05
7.36216674e-05
7.039613499e-05
6.73758945e-05
6.461087793e-05
6.21254991e-05
5.996542609e-05
5.835146896e-05
2.36865432e-05
3.83385509e-05
5.031562212e-05
5.855141572e-05
6.339345382e-05
6.565011984e-05
6.613195455e-05
6.549088809e-05
6.419809698e-05
6.25723979e-05
6.081938388e-05
5.906709972e-05
5.739750093e-05
5.588865054e-05
5.473431252e-05
9.961345003e-06
1.675583554e-05
2.386807099e-05
3.029438559e-05
3.555216856e-05
3.954606639e-05
4.23959508e-05
4.430868502e-05
4.550272412e-05
4.617207282e-05
4.647403127e-05
4.652934499e-05
4.642858948e-05
4.624426226e-05
4.6059642e-05
7.032428561e-06
1.041367641e-05
1.408261919e-05
1.772872797e-05
2.114043183e-05
2.420333069e-05
2.687680012e-05
2.916762965e-05
3.110844921e-05
3.274273628e-05
3.411520403e-05
3.526436158e-05
3.620830979e-05
3.688675612e-05
3.708341422e-06
5.465361179e-06
7.635954527e-06
1.009692502e-05
1.271565023e-05
1.537353902e-05
1.797706524e-05
2.045995032e-05
2.27803583e-05
2.491582513e-05
2.685708635e-05
2.859869294e-05
3.011311565e-05
3.124588199e-05
1.74712437e-06
2.420804546e-06
3.417048189e-06
4.741761406e-06
6.363493614e-06
8.225771454e-06
1.026055081e-05
1.239906632e-05
1.45789259e-05
1.674770365e-05
1.886377118e-05
2.08943905e-05
2.280793999e-05
2.4543508e-05
2.588170307e-05
2.460426624e-06
3.733716363e-06
5.478557593e-06
7.602951062e-06
9.978580904e-06
1.247720598e-05
1.49912473e-05
1.744094191e-05
1.977328004e-05
2.195718101e-05
2.397754786e-05
2.582907165e-05
2.750717779e-05
2.898238711e-05
3.009585822e-05
4.296672424e-06
7.031936949e-06
1.041337897e-05
1.408253863e-05
1.772887245e-05
2.114079834e-05
2.420389533e-05
2.687754141e-05
2.916852842e-05
3.110947732e-05
3.27438726e-05
3.411643281e-05
3.526566494e-05
3.620967739e-05
3.688818808e-05
7.712118465e-06
1.288257284e-05
1.849296369e-05
2.381799059e-05
2.846140278e-05
3.22871713e-05
3.53164368e-05
3.764596029e-05
3.93969505e-05
4.068782245e-05
4.162227901e-05
4.228579522e-05
4.274618652e-05
4.305468739e-05
4.32388603e-05
1.127060121e-05
1.839154839e-05
2.5132263e-05
3.083319424e-05
3.534844196e-05
3.877095814e-05
4.127784489e-05
4.305653123e-05
4.427467356e-05
4.507112298e-05
4.555619259e-05
4.58155224e-05
4.591556566e-05
4.591126846e-05
4.586122506e-05
7.712060716e-06
1.288244169e-05
1.849272061e-05
2.381762449e-05
2.846091442e-05
3.228657031e-05
3.531574501e-05
3.764520107e-05
3.939613562e-05
4.068696557e-05
4.162139321e-05
4.22848864e-05
4.274526502e-05
4.30537542e-05
4.323791123e-05
4.296701277e-06
7.031940142e-06
1.041328087e-05
1.408228477e-05
1.772843291e-05
2.114017326e-05
2.420309722e-05
2.687658923e-05
2.916743925e-05
3.110827806e-05
3.274257898e-05
3.411505818e-05
3.52642273e-05
3.620818465e-05
3.688663923e-05
2.460522068e-06
3.733816377e-06
5.478599921e-06
7.60288277e-06
9.978364838e-06
1.247681744e-05
1.499067542e-05
1.744018203e-05
1.977234335e-05
2.195607237e-05
2.397628233e-05
2.582766431e-05
2.750563541e-05
2.898072812e-05
3.009409383e-05
2.420940048e-06
3.417141346e-06
4.741782661e-06
6.363408661e-06
8.225546841e-06
1.026016e-05
1.239849182e-05
1.457815427e-05
1.674672971e-05
1.886259665e-05
2.089302295e-05
2.28063887e-05
2.454177899e-05
2.587980009e-05
1.436016541e-06
1.837255832e-06
2.460157719e-06
3.338457635e-06
4.482476053e-06
5.879410855e-06
7.497881894e-06
9.294357039e-06
1.121958083e-05
1.32238522e-05
1.526049158e-05
1.728650535e-05
1.925624901e-05
2.108906402e-05
2.252747184e-05
1.747123895e-06
2.420799286e-06
3.417032962e-06
4.741729333e-06
6.363439221e-06
8.225687293e-06
1.026043121e-05
1.239891059e-05
1.457872717e-05
1.674746562e-05
1.886349083e-05
2.089407116e-05
2.28075851e-05
2.45431128e-05
2.588125513e-05
2.44271395e-06
3.708091011e-06
5.4651331e-06
7.635793434e-06
1.009686627e-05
1.271571604e-05
1.537374156e-05
1.797740708e-05
2.046043231e-05
2.278097581e-05
2.491656459e-05
2.685794525e-05
2.859965752e-05
3.011417098e-05
3.124701802e-05
3.485650497e-06
5.591069965e-06
8.315975722e-06
1.143936968e-05
1.473223639e-05
1.800452416e-05
2.112031434e-05
2.39951779e-05
2.658615423e-05
2.888026829e-05
3.088430545e-05
3.261620791e-05
3.409615295e-05
3.532705594e-05
3.621702062e-05
4.266751291e-06
6.933075381e-06
1.018801651e-05
1.373356554e-05
1.731977084e-05
2.076649103e-05
2.395925233e-05
2.683630499e-05
2.937444645e-05
3.157658644e-05
3.346185931e-05
3.505785635e-05
3.63930221e-05
3.748061918e-05
3.825375286e-05
3.485631936e-06
5.591025793e-06
8.315888686e-06
1.143922443e-05
1.473201874e-05
1.800423139e-05
2.111994277e-05
2.399473569e-05
2.658564153e-05
2.887969521e-05
3.088367387e-05
3.261552849e-05
3.409543226e-05
3.532630034e-05
3.621622657e-05
2.442705271e-06
3.708066056e-06
5.46506475e-06
7.635652585e-06
1.009662617e-05
1.271536008e-05
1.537325904e-05
1.797679776e-05
2.045969627e-05
2.278011984e-05
2.491560187e-05
2.685687548e-05
2.85984938e-05
3.01129278e-05
3.124570382e-05
1.747134868e-06
2.420811969e-06
3.417023726e-06
4.74166935e-06
6.363297338e-06
8.225437788e-06
1.026005168e-05
1.239838697e-05
1.457805375e-05
1.67466353e-05
1.886250562e-05
2.089293539e-05
2.280630715e-05
2.454170165e-05
2.587973041e-05
1.43604391e-06
1.837293408e-06
2.460186052e-06
3.338452703e-06
4.482408929e-06
5.879252243e-06
7.497604273e-06
9.29393497e-06
1.121899474e-05
1.322308916e-05
1.525954536e-05
1.728536937e-05
1.925492418e-05
2.108755251e-05
2.252578168e-05
)
;

boundaryField
{
    top
    {
        type            zeroGradient;
    }
    bottom
    {
        type            zeroGradient;
    }
    side-walls
    {
        type            zeroGradient;
    }
    inlet
    {
        type            zeroGradient;
    }
    outlet
    {
        type            zeroGradient;
    }
    procBoundary1to0
    {
        type            processor;
        value           nonuniform List<scalar> 
97
(
1.43604343e-06
1.43604343e-06
1.747127055e-06
2.44266659e-06
3.485520212e-06
4.266534864e-06
3.485474354e-06
2.44261251e-06
1.747074337e-06
1.435989511e-06
1.348147832e-06
2.460523677e-06
2.460523677e-06
2.460523677e-06
4.296655787e-06
7.71180752e-06
1.12698249e-05
7.711624915e-06
4.296443764e-06
2.460326697e-06
1.747077134e-06
1.663657669e-06
2.478199892e-06
9.961349741e-06
9.961349741e-06
9.961349741e-06
2.368591795e-05
4.538769678e-05
2.368482092e-05
9.960214412e-06
4.296449717e-06
2.442620956e-06
2.125142202e-06
3.911897558e-06
1.014855138e-05
7.837328207e-05
7.837328207e-05
7.837328207e-05
0.0002312726167
7.836553688e-05
2.368489046e-05
7.711666461e-06
3.485500077e-06
2.454022032e-06
5.261649921e-06
1.705756156e-05
6.361972083e-05
0.001482178844
0.001482178844
0.001482178844
0.0002312743822
0.0002312743822
4.538808232e-05
1.12699158e-05
4.266566848e-06
2.125152653e-06
3.911942544e-06
1.014885052e-05
2.823589736e-05
6.362117097e-05
2.823505158e-05
2.368753881e-05
2.368753881e-05
2.368753881e-05
7.712048054e-06
3.485578518e-06
1.663670018e-06
2.478250668e-06
4.860946484e-06
1.014885853e-05
1.705770859e-05
1.01486602e-05
4.860847544e-06
4.296880785e-06
4.296880785e-06
4.296880785e-06
2.442723236e-06
1.348156751e-06
1.669938678e-06
2.478246618e-06
3.91194523e-06
5.261668588e-06
3.911899673e-06
2.478218399e-06
1.669926764e-06
1.747177978e-06
1.747177978e-06
1.747177978e-06
1.205125064e-06
1.348156535e-06
1.66367034e-06
2.125158551e-06
2.454027941e-06
2.125146183e-06
1.663658477e-06
1.34815155e-06
1.205123756e-06
)
;
    }
}


// ************************************************************************* //
