/*--------------------------------*- C++ -*----------------------------------*\
| =========                 |                                                 |
| \\      /  F ield         | OpenFOAM: The Open Source CFD Toolbox           |
|  \\    /   O peration     | Version:  4.x                                   |
|   \\  /    A nd           | Web:      www.OpenFOAM.org                      |
|    \\/     M anipulation  |                                                 |
\*---------------------------------------------------------------------------*/
FoamFile
{
    version     2.0;
    format      ascii;
    class       volScalarField;
    location    "3000";
    object      molarConc;
}
// * * * * * * * * * * * * * * * * * * * * * * * * * * * * * * * * * * * * * //

dimensions      [0 -3 0 0 1 0 0];

internalField   nonuniform List<scalar> 
1174
(
9.963270514
9.963268131
9.96326498
9.963260287
9.96325658
9.963249669
9.963242742
9.963234813
9.96322724
9.963221082
9.963214207
9.963207419
9.963201037
9.963195038
9.963265103
9.963261292
9.963258076
9.963252918
9.963245589
9.963237204
9.963229064
9.963219939
9.963212452
9.963205735
9.963198059
9.963189238
9.963183018
9.963178558
9.963289257
9.963283362
9.96327446
9.963266237
9.963257391
9.963247137
9.96323702
9.963228509
9.963219529
9.963211044
9.963204777
9.963198195
9.963192838
9.963188825
9.96324166
9.963231606
9.963221368
9.963208728
9.963197526
9.963186084
9.963174451
9.963163741
9.963155498
9.963149336
9.963141496
9.963135717
9.963129446
9.963126201
9.963255817
9.963244511
9.963232795
9.963219483
9.963205996
9.963194472
9.963184625
9.963175427
9.963166838
9.96316034
9.963155295
9.963150308
9.963147273
9.963144085
9.963289107
9.963279234
9.963268966
9.963256882
9.963244901
9.963233437
9.96322292
9.963214287
9.963205517
9.963197486
9.963191968
9.963185852
9.963180751
9.96317701
9.963282802
9.963277254
9.963269879
9.963259965
9.963249435
9.963239999
9.963230308
9.963220849
9.963211748
9.963203793
9.963197373
9.963191137
9.963185783
9.963180803
9.963252034
9.963248047
9.963244303
9.963239022
9.963233176
9.96322492
9.963216823
9.963209424
9.963200814
9.963194954
9.963186652
9.963179981
9.963175174
9.963169118
9.963272141
9.963269421
9.963265966
9.963261087
9.963255249
9.963248803
9.963242278
9.963235905
9.963229719
9.963221797
9.963214165
9.963207247
9.963200431
9.963195944
9.963260364
9.963257411
9.963253817
9.963249419
9.963244836
9.963238105
9.963231149
9.963222912
9.963215066
9.963206848
9.963198552
9.963190166
9.963182259
9.963175804
9.963170575
9.963267416
9.963259676
9.9632496
9.9632422
9.96323389
9.963223033
9.963214632
9.963208009
9.96319931
9.96319112
9.963186104
9.96317877
9.963173275
9.963169177
9.963248482
9.96323645
9.963222363
9.963208231
9.963195909
9.963184768
9.96317595
9.963167907
9.963160633
9.963155237
9.963150345
9.963145005
9.963141341
9.963138125
9.96322517
9.963203513
9.963183212
9.963165311
9.963151764
9.963140219
9.963130921
9.963123694
9.963119057
9.963114503
9.963112193
9.963109904
9.963108146
9.963109618
9.963197785
9.963171758
9.963152071
9.963133975
9.96311925
9.963111132
9.963104066
9.96310092
9.963098673
9.963096635
9.963096143
9.963095544
9.963095748
9.963095544
9.963235173
9.963215153
9.963196428
9.963179158
9.963164925
9.963153838
9.963145482
9.963139945
9.963135762
9.96313218
9.963129744
9.963127964
9.963126953
9.963126343
9.963222688
9.96321044
9.963197214
9.963183928
9.963171029
9.963159437
9.963148868
9.963140016
9.963133392
9.963127371
9.963122509
9.963118273
9.963116555
9.963114522
9.963294421
9.963288544
9.963280711
9.963271209
9.963261961
9.963252206
9.963242472
9.963232905
9.963227988
9.96321945
9.96321313
9.963207058
9.963200649
9.963196664
9.96324402
9.963239218
9.963235363
9.963229567
9.963222397
9.963215358
9.963207237
9.963199285
9.963190602
9.963183171
9.963177462
9.963170598
9.963164914
9.963161725
9.963261538
9.963255147
9.963247039
9.963238697
9.963229445
9.963220194
9.963210442
9.963201341
9.963190407
9.963182946
9.963174185
9.963167855
9.963161528
9.963154981
9.963150976
9.96328206
9.963273435
9.963260434
9.963245978
9.963230932
9.963218847
9.963207103
9.963196596
9.963189306
9.963182635
9.963176226
9.963171811
9.963166627
9.963161945
9.963159634
9.963228165
9.963201669
9.96317787
9.963158094
9.963143209
9.963133395
9.963126324
9.963121126
9.963118448
9.963116597
9.963116217
9.96311705
9.96311701
9.963117545
9.963135946
9.963091977
9.963061189
9.963043098
9.963034597
9.963032692
9.963036258
9.963041992
9.963048908
9.963054554
9.963060377
9.963064939
9.963070392
9.963073501
9.963009086
9.962964544
9.962945975
9.962943498
9.962949031
9.962958658
9.962969653
9.962981622
9.96299342
9.963004466
9.963017573
9.963027406
9.963034174
9.963041242
9.963154908
9.963111207
9.96308199
9.963063258
9.963055858
9.963052139
9.963056268
9.963061867
9.963067238
9.963073943
9.963079285
9.963085431
9.963090452
9.963094398
9.963201558
9.963174589
9.963149397
9.963130306
9.963116123
9.963105939
9.963098879
9.963094158
9.963092501
9.963091321
9.963090378
9.96309156
9.963093048
9.963092459
9.963248054
9.963233806
9.963219949
9.963205548
9.963191559
9.963180095
9.96317094
9.963162843
9.963155442
9.963148793
9.963145679
9.963141997
9.963136868
9.963133927
9.963288333
9.963282102
9.963274475
9.963265067
9.963254111
9.963243907
9.963233954
9.963224087
9.96321586
9.963208333
9.963200658
9.963194145
9.963189646
9.963184953
9.96328041
9.963273295
9.963262773
9.963251363
9.963239327
9.963227315
9.963216187
9.963206408
9.963196207
9.963187135
9.963177302
9.963171346
9.963165082
9.963160476
9.963157346
9.963264663
9.963246414
9.963225514
9.963207217
9.963190526
9.963176524
9.963166173
9.963156447
9.963148478
9.963139904
9.963136384
9.96313363
9.963131076
9.96313125
9.963131741
9.963208544
9.963153921
9.963109337
9.963080147
9.963061757
9.963052785
9.963051818
9.963053874
9.963058628
9.963063157
9.963069687
9.96307627
9.963083075
9.963088486
9.963093582
9.962867191
9.962810796
9.962801843
9.962819191
9.962847943
9.962877655
9.962906242
9.962932955
9.962957483
9.962977471
9.962995679
9.963013327
9.96302553
9.963037243
9.962400447
9.962471333
9.962579887
9.96268407
9.962771867
9.962842034
9.962899479
9.962944988
9.962983455
9.963014635
9.963040261
9.963063179
9.963080661
9.963092899
9.962873204
9.9628185
9.962809908
9.962826029
9.962852634
9.962883397
9.962913033
9.962941787
9.962966516
9.96298759
9.963005708
9.963021568
9.963035659
9.963044591
9.963147871
9.963103107
9.963071649
9.963052597
9.963043374
9.963041304
9.96304389
9.963048907
9.963054517
9.963061036
9.963068824
9.963073996
9.963080441
9.96308579
9.963202151
9.963181666
9.963162114
9.963144377
9.963129861
9.963117823
9.963108855
9.963100736
9.963095322
9.963093437
9.963089582
9.963087532
9.963088253
9.963086918
9.963256473
9.963246066
9.963233898
9.963222874
9.963210989
9.963200355
9.963189446
9.96317995
9.963170341
9.963162145
9.963154819
9.963149904
9.963145377
9.963142009
9.963258365
9.963249273
9.96323768
9.963224914
9.963210826
9.963199448
9.963186665
9.963176955
9.963168277
9.963161516
9.963154053
9.963146787
9.963142115
9.963138159
9.963136462
9.963242969
9.963217944
9.963192143
9.963171739
9.963154769
9.963143116
9.963133679
9.96312721
9.963122838
9.96311999
9.96311767
9.96311676
9.963116699
9.963116416
9.963116977
9.963088745
9.963011743
9.962966067
9.962948094
9.962945234
9.962950062
9.962961734
9.962972923
9.962984871
9.962996471
9.963007691
9.963017667
9.963027704
9.963036543
9.963042254
9.962515281
9.962422082
9.962491806
9.962598841
9.96270332
9.962790626
9.9628613
9.962919805
9.962966671
9.963005047
9.963036505
9.963061079
9.963082173
9.963099467
9.963112682
10.03299503
10.03424371
10.03496769
10.03542063
10.03572649
10.0359516
10.03612925
10.03627641
10.03640278
10.03651695
10.03662309
10.03672171
10.03681439
10.03690121
9.962380451
9.962452186
9.962559538
9.96266373
9.962751472
9.962822901
9.962879909
9.96292683
9.962965088
9.962997602
9.963023342
9.96304479
9.963062362
9.963075837
9.963033445
9.962989421
9.96297105
9.962966108
9.962970667
9.962981697
9.962993984
9.963006725
9.963018196
9.96302979
9.96303966
9.963049158
9.963055997
9.963062877
9.963219321
9.963194751
9.963175118
9.96315798
9.963145332
9.963135028
9.963129301
9.963125531
9.96312364
9.963121967
9.963120961
9.96312056
9.963119522
9.963119303
9.963282167
9.96327096
9.963257255
9.963243222
9.963231771
9.963219012
9.963209113
9.963198676
9.963190521
9.963183417
9.963176881
9.963169938
9.963167298
9.963163227
9.963300694
9.963292915
9.963281792
9.963271296
9.963257872
9.9632462
9.963235246
9.963222885
9.963213441
9.963204176
9.963196865
9.963190583
9.963184485
9.963181092
9.963178584
9.963259345
9.963239146
9.963219507
9.963200267
9.963184229
9.963168537
9.9631576
9.963148914
9.963142644
9.963136116
9.963133662
9.963131964
9.963128544
9.963126928
9.963124973
9.96317427
9.963118305
9.963073656
9.963043186
9.963024883
9.963017178
9.963015164
9.963016741
9.963022223
9.963027494
9.963034757
9.963041426
9.963047769
9.963051162
9.963054392
9.962988791
9.962864674
9.962808688
9.962799678
9.962814895
9.962843035
9.962873447
9.962903716
9.962931403
9.962956232
9.962977436
9.962997895
9.963012743
9.963027046
9.963037772
9.962474406
9.962379178
9.962450333
9.962558404
9.962661398
9.962749317
9.962821414
9.96287831
9.962925768
9.962963829
9.962994634
9.963017824
9.963039795
9.963057991
9.963070847
9.963008864
9.962884179
9.962828704
9.962820757
9.96283711
9.962864191
9.9628947
9.962924988
9.962952637
9.962976712
9.962998309
9.963017249
9.963033043
9.963046553
9.963055756
9.963159339
9.963113754
9.963081484
9.963063906
9.963054653
9.963052826
9.963054705
9.963059288
9.963065321
9.963071586
9.963078013
9.963084899
9.963090172
9.963094372
9.96326823
9.963248232
9.963229638
9.96321229
9.963197248
9.963185246
9.963177443
9.963170588
9.963164246
9.963161775
9.963158476
9.963157458
9.963155884
9.963154221
9.963255602
9.963245302
9.963232018
9.963219876
9.963208432
9.963196821
9.963185845
9.963176916
9.9631689
9.963162122
9.963156053
9.963150934
9.96314701
9.963142918
9.963253449
9.963248369
9.963241729
9.963232561
9.963223083
9.963214087
9.963203219
9.963195272
9.963186199
9.963178147
9.963170718
9.963164722
9.963157731
9.963151639
9.963147401
9.963214272
9.963203893
9.963192152
9.963178997
9.963163018
9.963150841
9.963138934
9.963128486
9.963119754
9.963112175
9.963105348
9.963101028
9.963096856
9.963094118
9.963093378
9.963205962
9.963180714
9.963154421
9.963130362
9.963113112
9.963097863
9.963087984
9.963080116
9.963076299
9.963072785
9.963070438
9.963069082
9.963071088
9.963071258
9.963072913
9.963191129
9.963137056
9.96309313
9.963064058
9.963047027
9.963038401
9.963037023
9.963039308
9.963045185
9.963051002
9.963057523
9.96306403
9.963070526
9.963075042
9.963079479
9.963141203
9.963063374
9.963019799
9.96300137
9.962997364
9.963000959
9.963011402
9.963024867
9.963036131
9.963045922
9.963057072
9.963068183
9.96307852
9.963087106
9.963092997
9.9632207
9.963166216
9.963121448
9.963090708
9.963070597
9.963063905
9.963061774
9.963064313
9.963068299
9.96307417
9.963079954
9.963086505
9.963092268
9.963097101
9.963101177
9.963230026
9.963202974
9.963176835
9.963152437
9.963132547
9.963118964
9.963107835
9.963101038
9.963096294
9.963093497
9.963091743
9.963093314
9.963095545
9.963095286
9.963096334
9.963271535
9.963260116
9.963245558
9.963232307
9.963219597
9.963208832
9.963199884
9.963189738
9.963181523
9.963174733
9.963168833
9.963164256
9.963161916
9.963161853
9.963265826
9.963259257
9.963251359
9.963240753
9.963231473
9.963222314
9.96321358
9.963204474
9.963196683
9.96318837
9.963181042
9.963174746
9.963170039
9.963164969
9.963257976
9.963256404
9.963251764
9.963247243
9.963241213
9.963234277
9.963227885
9.963220704
9.96321313
9.963205135
9.963197188
9.963190057
9.963181539
9.963174718
9.963170021
9.963284295
9.963278827
9.963271652
9.963263722
9.963254236
9.963244995
9.963237309
9.963227069
9.963216525
9.963209392
9.96320161
9.963192843
9.963186459
9.963182164
9.963178221
9.963268746
9.963260307
9.963247343
9.963234793
9.963222672
9.963208893
9.963197673
9.963187297
9.963180009
9.963173237
9.963166949
9.963162527
9.963158784
9.963156464
9.96315431
9.96325917
9.963239478
9.963218325
9.963198594
9.963180393
9.963165662
9.963152725
9.963143556
9.963136614
9.963130352
9.963127388
9.963126001
9.963123484
9.963122182
9.963120881
9.963229484
9.963204111
9.963181128
9.963159919
9.963141167
9.96312884
9.963118277
9.963111681
9.96310823
9.963105456
9.963105032
9.963103054
9.96310359
9.963102247
9.963103099
9.963233014
9.963214368
9.963193185
9.963173802
9.963158702
9.96314529
9.963131975
9.963123364
9.963117422
9.963112928
9.963108356
9.963106544
9.963105123
9.963104134
9.963102156
9.963280605
9.963270325
9.963259145
9.963245925
9.963230854
9.963217442
9.96320697
9.963197379
9.963188302
9.963180548
9.963173069
9.963167804
9.963164075
9.963159735
9.963157063
9.963261698
9.963256546
9.96325048
9.963241661
9.963232983
9.963223233
9.96321592
9.963206701
9.963198741
9.963191099
9.963182983
9.963175531
9.963168216
9.963162548
9.963159501
9.963262978
9.963258891
9.963254301
9.96324898
9.963240501
9.963233328
9.963226279
9.96321839
9.963210416
9.963202606
9.963195105
9.963187539
9.963182961
9.963177355
9.96328925
9.963288354
9.963286157
9.963282309
9.96327762
9.963272132
9.963267091
9.963260546
9.963253197
9.963245563
9.963237838
9.963230121
9.96322385
9.96321802
9.963212367
9.963287044
9.963283801
9.963280987
9.963277418
9.963272123
9.963265449
9.963257645
9.963249405
9.963240413
9.963232377
9.963225189
9.96321809
9.963211004
9.963203101
9.963197766
9.963256277
9.963251133
9.963246468
9.963237947
9.96322833
9.963219513
9.963209526
9.963198439
9.963189924
9.963182044
9.963174243
9.963166735
9.963160857
9.963154145
9.963149718
9.963264636
9.963257655
9.963248286
9.963236702
9.963225214
9.96321344
9.963202149
9.963191662
9.963181713
9.963172797
9.963165486
9.963158606
9.963153776
9.963149242
9.96314626
9.963265255
9.96325606
9.963244082
9.96323095
9.963218691
9.963206462
9.963194692
9.963183682
9.963174167
9.963165454
9.963158381
9.963153382
9.963148066
9.963143987
9.963141951
9.963227355
9.963219062
9.963208956
9.963196829
9.963183986
9.963173189
9.963161823
9.963150781
9.963141596
9.963133504
9.963126291
9.963119678
9.963113867
9.963108603
9.963106696
9.963270123
9.963264654
9.963258208
9.963251051
9.963242121
9.963233374
9.963222275
9.963213726
9.963205216
9.963197572
9.963189259
9.963182153
9.963175603
9.963170333
9.963165224
9.963297567
9.963295774
9.963293076
9.963288245
9.963282416
9.963274846
9.963268081
9.963259276
9.963251594
9.963243951
9.963235524
9.963229404
9.963223545
9.963216319
9.963212194
9.963277384
9.963276002
9.963272956
9.963269903
9.963265433
9.963260304
9.963254646
9.963247458
9.963239406
9.963232206
9.963225305
9.96321791
9.963210583
9.963203161
9.963197855
)
;

boundaryField
{
    top
    {
        type            calculated;
        value           nonuniform List<scalar> 
127
(
9.963277384
9.963272141
9.96324402
9.963288333
9.963256473
9.963282167
9.963255602
9.963265826
9.963262978
9.963276002
9.963269421
9.963239218
9.963282102
9.963246066
9.96327096
9.963245302
9.963259257
9.963258891
9.963272956
9.963265966
9.963235363
9.963274475
9.963233898
9.963257255
9.963232018
9.963251359
9.963254301
9.963269903
9.963261087
9.963229567
9.963265067
9.963222874
9.963243222
9.963219876
9.963240753
9.96324898
9.963265433
9.963255249
9.963222397
9.963254111
9.963210989
9.963231771
9.963208432
9.963231473
9.963240501
9.963260304
9.963248803
9.963215358
9.963243907
9.963200355
9.963219012
9.963196821
9.963222314
9.963233328
9.963254646
9.963242278
9.963207237
9.963233954
9.963189446
9.963209113
9.963185845
9.96321358
9.963226279
9.963247458
9.963235905
9.963199285
9.963224087
9.96317995
9.963198676
9.963176916
9.963204474
9.96321839
9.963239406
9.963229719
9.963190602
9.96321586
9.963170341
9.963190521
9.9631689
9.963196683
9.963210416
9.963232206
9.963221797
9.963183171
9.963208333
9.963162145
9.963183417
9.963162122
9.96318837
9.963202606
9.963225305
9.963214165
9.963177462
9.963200658
9.963154819
9.963176881
9.963156053
9.963181042
9.963195105
9.96321791
9.963207247
9.963170598
9.963194145
9.963149904
9.963169938
9.963150934
9.963174746
9.963187539
9.963210583
9.963200431
9.963164914
9.963189646
9.963145377
9.963167298
9.96314701
9.963170039
9.963182961
9.963203161
9.963195944
9.963161725
9.963184953
9.963142009
9.963163227
9.963142918
9.963164969
9.963177355
9.963197855
)
;
    }
    bottom
    {
        type            calculated;
        value           nonuniform List<scalar> 
134
(
9.963260364
9.963261538
9.96328041
9.963258365
9.963300694
9.963253449
9.963257976
9.96328925
9.963270514
9.963257411
9.963255147
9.963273295
9.963249273
9.963292915
9.963248369
9.963256404
9.963288354
9.963268131
9.963253817
9.963247039
9.963262773
9.96323768
9.963281792
9.963241729
9.963251764
9.963286157
9.96326498
9.963249419
9.963238697
9.963251363
9.963224914
9.963271296
9.963232561
9.963247243
9.963282309
9.963260287
9.963244836
9.963229445
9.963239327
9.963210826
9.963257872
9.963223083
9.963241213
9.96327762
9.96325658
9.963238105
9.963220194
9.963227315
9.963199448
9.9632462
9.963214087
9.963234277
9.963272132
9.963249669
9.963231149
9.963210442
9.963216187
9.963186665
9.963235246
9.963203219
9.963227885
9.963267091
9.963242742
9.963222912
9.963201341
9.963206408
9.963176955
9.963222885
9.963195272
9.963220704
9.963260546
9.963234813
9.963215066
9.963190407
9.963196207
9.963168277
9.963213441
9.963186199
9.96321313
9.963253197
9.96322724
9.963206848
9.963182946
9.963187135
9.963161516
9.963204176
9.963178147
9.963205135
9.963245563
9.963221082
9.963198552
9.963174185
9.963177302
9.963154053
9.963196865
9.963170718
9.963197188
9.963237838
9.963214207
9.963190166
9.963167855
9.963171346
9.963146787
9.963190583
9.963164722
9.963190057
9.963230121
9.963207419
9.963182259
9.963161528
9.963165082
9.963142115
9.963184485
9.963157731
9.963181539
9.96322385
9.963201037
9.963175804
9.963154981
9.963160476
9.963138159
9.963181092
9.963151639
9.963174718
9.96321802
9.963195038
9.963170575
9.963150976
9.963157346
9.963136462
9.963178584
9.963147401
9.963170021
9.963212367
)
;
    }
    side-walls
    {
        type            calculated;
        value           nonuniform List<scalar> 
261
(
9.963270514
9.963265103
9.963289257
9.96324166
9.963255817
9.963289107
9.963282802
9.963252034
9.963272141
9.963268131
9.963261292
9.963283362
9.963231606
9.963244511
9.963279234
9.963277254
9.963248047
9.963269421
9.96326498
9.963258076
9.96327446
9.963221368
9.963232795
9.963268966
9.963269879
9.963244303
9.963265966
9.963260287
9.963252918
9.963266237
9.963208728
9.963219483
9.963256882
9.963259965
9.963239022
9.963261087
9.96325658
9.963245589
9.963257391
9.963197526
9.963205996
9.963244901
9.963249435
9.963233176
9.963255249
9.963249669
9.963237204
9.963247137
9.963186084
9.963194472
9.963233437
9.963239999
9.96322492
9.963248803
9.963242742
9.963229064
9.96323702
9.963174451
9.963184625
9.96322292
9.963230308
9.963216823
9.963242278
9.963234813
9.963219939
9.963228509
9.963163741
9.963175427
9.963214287
9.963220849
9.963209424
9.963235905
9.96322724
9.963212452
9.963219529
9.963155498
9.963166838
9.963205517
9.963211748
9.963200814
9.963229719
9.963221082
9.963205735
9.963211044
9.963149336
9.96316034
9.963197486
9.963203793
9.963194954
9.963221797
9.963214207
9.963198059
9.963204777
9.963141496
9.963155295
9.963191968
9.963197373
9.963186652
9.963214165
9.963207419
9.963189238
9.963198195
9.963135717
9.963150308
9.963185852
9.963191137
9.963179981
9.963207247
9.963201037
9.963183018
9.963192838
9.963129446
9.963147273
9.963180751
9.963185783
9.963175174
9.963200431
9.963195038
9.963178558
9.963188825
9.963126201
9.963144085
9.96317701
9.963180803
9.963169118
9.963195944
9.96328925
9.963287044
9.963256277
9.963264636
9.963265255
9.963227355
9.963270123
9.963297567
9.963277384
9.963288354
9.963283801
9.963251133
9.963257655
9.96325606
9.963219062
9.963264654
9.963295774
9.963276002
9.963286157
9.963280987
9.963246468
9.963248286
9.963244082
9.963208956
9.963258208
9.963293076
9.963272956
9.963282309
9.963277418
9.963237947
9.963236702
9.96323095
9.963196829
9.963251051
9.963288245
9.963269903
9.96327762
9.963272123
9.96322833
9.963225214
9.963218691
9.963183986
9.963242121
9.963282416
9.963265433
9.963272132
9.963265449
9.963219513
9.96321344
9.963206462
9.963173189
9.963233374
9.963274846
9.963260304
9.963267091
9.963257645
9.963209526
9.963202149
9.963194692
9.963161823
9.963222275
9.963268081
9.963254646
9.963260546
9.963249405
9.963198439
9.963191662
9.963183682
9.963150781
9.963213726
9.963259276
9.963247458
9.963253197
9.963240413
9.963189924
9.963181713
9.963174167
9.963141596
9.963205216
9.963251594
9.963239406
9.963245563
9.963232377
9.963182044
9.963172797
9.963165454
9.963133504
9.963197572
9.963243951
9.963232206
9.963237838
9.963225189
9.963174243
9.963165486
9.963158381
9.963126291
9.963189259
9.963235524
9.963225305
9.963230121
9.96321809
9.963166735
9.963158606
9.963153382
9.963119678
9.963182153
9.963229404
9.96321791
9.96322385
9.963211004
9.963160857
9.963153776
9.963148066
9.963113867
9.963175603
9.963223545
9.963210583
9.96321802
9.963203101
9.963154145
9.963149242
9.963143987
9.963108603
9.963170333
9.963216319
9.963203161
9.963212367
9.963197766
9.963149718
9.96314626
9.963141951
9.963106696
9.963165224
9.963212194
9.963197855
)
;
    }
    inlet
    {
        type            calculated;
        value           nonuniform 0();
    }
    outlet
    {
        type            calculated;
        value           nonuniform List<scalar> 
81
(
9.963195038
9.963178558
9.963188825
9.963126201
9.963144085
9.96317701
9.963180803
9.963169118
9.963195944
9.963170575
9.963169177
9.963138125
9.963109618
9.963095544
9.963126343
9.963114522
9.963196664
9.963161725
9.963150976
9.963159634
9.963117545
9.963073501
9.963041242
9.963094398
9.963092459
9.963133927
9.963184953
9.963157346
9.963131741
9.963093582
9.963037243
9.963092899
9.963044591
9.96308579
9.963086918
9.963142009
9.963136462
9.963116977
9.963042254
9.963112682
10.03690121
9.963075837
9.963062877
9.963119303
9.963163227
9.963178584
9.963124973
9.963054392
9.963037772
9.963070847
9.963055756
9.963094372
9.963154221
9.963142918
9.963147401
9.963093378
9.963072913
9.963079479
9.963092997
9.963101177
9.963096334
9.963161853
9.963164969
9.963170021
9.963178221
9.96315431
9.963120881
9.963103099
9.963102156
9.963157063
9.963159501
9.963177355
9.963212367
9.963197766
9.963149718
9.96314626
9.963141951
9.963106696
9.963165224
9.963212194
9.963197855
)
;
    }
    procBoundary1to0
    {
        type            processor;
        value           nonuniform List<scalar> 
97
(
9.963271357
9.963271357
9.963268872
9.963293386
9.963249622
9.963266042
9.963295513
9.963288074
9.963253592
9.96327294
9.963263044
9.963271028
9.963271028
9.963271028
9.963258469
9.963243227
9.963224452
9.963253106
9.96323373
9.963297989
9.963248756
9.963264024
9.963289464
9.96325285
9.96325285
9.96325285
9.96318956
9.963086165
9.96320907
9.963227172
9.963256657
9.963292626
9.963284521
9.963280188
9.963259406
9.962991782
9.962991782
9.962991782
9.962494072
9.962998252
9.963200998
9.963220492
9.963263516
9.963267158
9.963266204
9.963192815
9.963051349
10.03074555
10.03074555
10.03074555
9.962475302
9.962475302
9.963112876
9.963245023
9.963291959
9.963306764
9.963272462
9.963223591
9.963174593
9.963009196
9.963194423
9.963212666
9.963212666
9.963212666
9.963288532
9.963262745
9.963255303
9.963221637
9.963224355
9.963239721
9.963247542
9.963268946
9.963247817
9.96328156
9.96328156
9.96328156
9.963271015
9.963260096
9.963288289
9.963276912
9.963273315
9.963253226
9.963245216
9.963288139
9.963265043
9.963266222
9.963266222
9.963266222
9.963289813
9.963287283
9.963258271
9.963269401
9.963272022
9.963232172
9.96327259
9.963299691
9.963277803
)
;
    }
}


// ************************************************************************* //
