/*--------------------------------*- C++ -*----------------------------------*\
| =========                 |                                                 |
| \\      /  F ield         | OpenFOAM: The Open Source CFD Toolbox           |
|  \\    /   O peration     | Version:  4.x                                   |
|   \\  /    A nd           | Web:      www.OpenFOAM.org                      |
|    \\/     M anipulation  |                                                 |
\*---------------------------------------------------------------------------*/
FoamFile
{
    version     2.0;
    format      ascii;
    class       volScalarField;
    location    "3000";
    object      N2;
}
// * * * * * * * * * * * * * * * * * * * * * * * * * * * * * * * * * * * * * //

dimensions      [0 0 0 0 0 0 0];

internalField   nonuniform List<scalar> 
1174
(
0.6030922882
0.6030910842
0.6030893864
0.6030871747
0.6030844735
0.6030813434
0.6030778683
0.6030741433
0.6030702643
0.6030663217
0.6030623985
0.6030585831
0.6030550319
0.6030522441
0.603091161
0.6030892357
0.6030866754
0.6030835404
0.6030799398
0.6030760048
0.6030718682
0.6030676504
0.6030634528
0.603059356
0.6030554231
0.6030517156
0.6030483517
0.6030457572
0.6030886746
0.6030852796
0.6030810847
0.6030763276
0.6030712643
0.603066124
0.6030610872
0.6030562822
0.6030517898
0.6030476537
0.6030438918
0.6030405151
0.6030375773
0.6030353787
0.6030850381
0.6030797735
0.6030737377
0.6030673729
0.6030610462
0.6030550201
0.6030494579
0.6030444428
0.60304
0.6030361166
0.6030327583
0.6030298863
0.6030274956
0.6030257657
0.6030824468
0.6030761582
0.6030693067
0.6030623747
0.6030557104
0.6030495348
0.6030439676
0.6030390538
0.603034788
0.6030311335
0.6030280372
0.6030254445
0.6030233303
0.6030218259
0.6030850382
0.6030797736
0.6030737379
0.6030673731
0.6030610464
0.6030550204
0.6030494582
0.6030444431
0.6030400003
0.603036117
0.6030327587
0.6030298867
0.603027496
0.6030257661
0.6030886747
0.6030852797
0.6030810848
0.6030763278
0.6030712646
0.6030661242
0.6030610875
0.6030562826
0.6030517903
0.6030476542
0.6030438924
0.6030405157
0.603037578
0.6030353794
0.603091161
0.6030892358
0.6030866755
0.6030835406
0.60307994
0.603076005
0.6030718685
0.6030676508
0.6030634533
0.6030593565
0.6030554237
0.6030517163
0.6030483525
0.603045758
0.6030922882
0.6030910843
0.6030893865
0.6030871748
0.6030844736
0.6030813435
0.6030778685
0.6030741436
0.6030702647
0.6030663222
0.6030623991
0.6030585838
0.6030550326
0.603052245
0.6030924627
0.603091161
0.6030892358
0.6030866754
0.6030835405
0.6030799399
0.6030760048
0.6030718682
0.6030676505
0.6030634529
0.603059356
0.6030554232
0.6030517157
0.6030483518
0.6030457573
0.6030886252
0.6030852539
0.6030811486
0.6030765568
0.6030717261
0.6030668642
0.6030621252
0.6030576117
0.6030533838
0.6030494707
0.6030458829
0.6030426294
0.6030397679
0.6030376071
0.6030822558
0.6030757233
0.6030686334
0.6030615858
0.6030549891
0.6030490646
0.6030438908
0.603039455
0.6030356943
0.6030325251
0.6030298611
0.6030276281
0.6030257919
0.6030244707
0.603070959
0.6030601212
0.6030498319
0.6030408563
0.6030334578
0.6030275959
0.6030230843
0.6030196893
0.6030171824
0.6030153635
0.6030140679
0.6030131646
0.6030125552
0.6030121886
0.6030603236
0.6030473021
0.6030362853
0.6030275556
0.6030209341
0.6030160796
0.6030126306
0.6030102636
0.6030087108
0.6030077594
0.6030072439
0.6030070363
0.603007031
0.6030071166
0.6030709593
0.6030601215
0.6030498322
0.6030408567
0.6030334582
0.6030275964
0.6030230848
0.6030196898
0.6030171829
0.6030153641
0.6030140684
0.6030131651
0.6030125558
0.6030121891
0.6030822561
0.6030757236
0.6030686337
0.6030615862
0.6030549895
0.603049065
0.6030438913
0.6030394556
0.603035695
0.6030325258
0.6030298619
0.603027629
0.6030257928
0.6030244716
0.6030886254
0.6030852541
0.6030811488
0.603076557
0.6030717264
0.6030668645
0.6030621257
0.6030576122
0.6030533844
0.6030494714
0.6030458837
0.6030426303
0.6030397689
0.6030376081
0.603091161
0.6030892358
0.6030866755
0.6030835406
0.60307994
0.6030760051
0.6030718685
0.6030676509
0.6030634534
0.6030593567
0.6030554239
0.6030517165
0.6030483528
0.6030457584
0.6030911194
0.6030886747
0.6030852797
0.6030810848
0.6030763277
0.6030712645
0.6030661241
0.6030610873
0.6030562823
0.6030517899
0.6030476538
0.603043892
0.6030405153
0.6030375774
0.6030353789
0.6030875393
0.603082256
0.6030757234
0.6030686336
0.603061586
0.6030549893
0.6030490647
0.6030438909
0.6030394551
0.6030356945
0.6030325252
0.6030298612
0.6030276282
0.603025792
0.6030244708
0.6030634807
0.6030497422
0.6030373248
0.6030271611
0.6030194361
0.603013919
0.6030102109
0.6030078904
0.6030065831
0.6030059854
0.6030058641
0.6030060446
0.6030063872
0.6030067329
0.6030218122
0.602998677
0.6029827606
0.6029733942
0.6029690186
0.6029680698
0.6029692898
0.6029717689
0.6029748918
0.6029782614
0.6029816303
0.6029848403
0.6029877409
0.6029899596
0.602967358
0.6029444067
0.6029345998
0.602932924
0.602935805
0.6029409961
0.6029471677
0.6029535647
0.6029597762
0.6029655924
0.6029709168
0.6029757022
0.6029798605
0.6029829668
0.6030218132
0.602998678
0.6029827616
0.6029733952
0.6029690195
0.6029680707
0.6029692907
0.6029717698
0.6029748927
0.6029782622
0.6029816311
0.6029848411
0.6029877417
0.6029899603
0.6030634815
0.6030497428
0.6030373254
0.6030271619
0.603019437
0.60301392
0.603010212
0.6030078916
0.6030065843
0.6030059866
0.6030058653
0.6030060458
0.6030063884
0.6030067341
0.6030822561
0.6030757236
0.6030686338
0.6030615863
0.6030549898
0.6030490653
0.6030438917
0.603039456
0.6030356954
0.6030325263
0.6030298624
0.6030276295
0.6030257933
0.6030244722
0.6030886747
0.6030852797
0.6030810849
0.6030763279
0.6030712647
0.6030661245
0.6030610879
0.603056283
0.6030517908
0.6030476548
0.6030438931
0.6030405165
0.6030375788
0.6030353803
0.6030891054
0.6030850383
0.6030797737
0.603073738
0.6030673732
0.6030610465
0.6030550204
0.6030494582
0.6030444431
0.6030400003
0.6030361169
0.6030327586
0.6030298866
0.6030274958
0.6030257659
0.6030809452
0.6030709593
0.6030601216
0.6030498322
0.6030408567
0.6030334582
0.6030275963
0.6030230846
0.6030196896
0.6030171826
0.6030153638
0.6030140681
0.6030131648
0.6030125555
0.6030121888
0.6030501061
0.6030218127
0.6029986775
0.6029827611
0.6029733946
0.6029690189
0.6029680701
0.60296929
0.6029717692
0.602974892
0.6029782616
0.6029816305
0.6029848404
0.602987741
0.6029899597
0.6028792491
0.6028502683
0.6028455813
0.6028540261
0.6028683115
0.6028843308
0.6029000068
0.6029144167
0.6029272451
0.6029384738
0.602948211
0.6029565868
0.6029636188
0.6029687506
0.6026001446
0.6026368057
0.6026929321
0.6027466971
0.6027923604
0.6028295982
0.6028596272
0.6028838768
0.6029035914
0.6029197569
0.6029331217
0.6029442213
0.6029533074
0.6029598326
0.6028792528
0.6028502708
0.6028455835
0.6028540281
0.6028683134
0.6028843325
0.6029000084
0.6029144181
0.6029272465
0.6029384751
0.6029482122
0.6029565879
0.6029636199
0.6029687517
0.6030218132
0.6029986783
0.6029827622
0.602973396
0.6029690205
0.6029680718
0.6029692918
0.6029717709
0.6029748938
0.6029782633
0.6029816322
0.6029848421
0.6029877427
0.6029899613
0.6030709592
0.6030601216
0.6030498325
0.6030408573
0.603033459
0.6030275973
0.6030230858
0.6030196909
0.6030171841
0.6030153653
0.6030140697
0.6030131665
0.6030125572
0.6030121905
0.6030850382
0.6030797736
0.603073738
0.6030673734
0.6030610469
0.603055021
0.603049459
0.603044444
0.6030400014
0.6030361182
0.60303276
0.6030298881
0.6030274975
0.6030257677
0.6030875973
0.603082447
0.6030761585
0.603069307
0.6030623751
0.6030557107
0.6030495352
0.603043968
0.6030390542
0.6030347884
0.6030311339
0.6030280376
0.6030254448
0.6030233306
0.6030218262
0.6030740761
0.603060324
0.6030473027
0.6030362859
0.6030275561
0.6030209346
0.6030160801
0.603012631
0.6030102641
0.6030087113
0.6030077598
0.6030072443
0.6030070367
0.6030070313
0.6030071169
0.6030082139
0.6029673589
0.6029444078
0.6029346009
0.6029329249
0.6029358057
0.6029409967
0.6029471683
0.6029535652
0.6029597766
0.6029655928
0.6029709172
0.6029757025
0.6029798607
0.6029829671
0.6026494217
0.6026001479
0.6026368078
0.6026929335
0.6027466981
0.6027923611
0.6028295987
0.6028596276
0.6028838771
0.6029035917
0.6029197571
0.6029331219
0.6029442214
0.6029533076
0.6029598328
0.601399476
0.6020102019
0.6023486168
0.6025468422
0.6026696684
0.6027500368
0.6028053343
0.6028451062
0.6028748082
0.6028976872
0.6029157478
0.6029302429
0.6029418199
0.6029500088
0.6026001445
0.6026368095
0.6026929364
0.602746701
0.6027923638
0.6028296011
0.6028596298
0.602883879
0.6029035934
0.6029197587
0.6029331233
0.6029442228
0.6029533088
0.6029598339
0.602967358
0.6029444082
0.6029346021
0.6029329266
0.6029358077
0.6029409988
0.6029471704
0.6029535673
0.6029597787
0.6029655948
0.6029709191
0.6029757043
0.6029798626
0.6029829689
0.6030603236
0.6030473026
0.6030362862
0.6030275569
0.6030209357
0.6030160814
0.6030126326
0.6030102657
0.603008713
0.6030077616
0.6030072462
0.6030070386
0.6030070333
0.6030071189
0.6030824468
0.6030761584
0.6030693071
0.6030623754
0.6030557113
0.603049536
0.603043969
0.6030390554
0.6030347898
0.6030311354
0.6030280393
0.6030254466
0.6030233325
0.6030218282
0.6030891055
0.6030850384
0.6030797738
0.6030737381
0.6030673735
0.6030610468
0.6030550208
0.6030494586
0.6030444435
0.6030400007
0.6030361174
0.6030327591
0.6030298871
0.6030274964
0.6030257665
0.6030809454
0.6030709596
0.603060122
0.6030498327
0.6030408572
0.6030334587
0.6030275969
0.6030230853
0.6030196902
0.6030171833
0.6030153645
0.6030140688
0.6030131655
0.6030125562
0.6030121895
0.6030501075
0.6030218141
0.602998679
0.6029827626
0.6029733961
0.6029690204
0.6029680715
0.6029692914
0.6029717705
0.6029748933
0.6029782628
0.6029816316
0.6029848415
0.6029877421
0.6029899607
0.6029445558
0.6028792555
0.6028502733
0.6028455855
0.6028540297
0.6028683146
0.6028843335
0.6029000093
0.6029144189
0.6029272471
0.6029384756
0.6029482126
0.6029565883
0.6029636203
0.602968752
0.6026494217
0.6026001487
0.6026368123
0.6026929382
0.6027467023
0.6027923647
0.6028296018
0.6028596303
0.6028838794
0.6029035937
0.602919759
0.6029331236
0.602944223
0.602953309
0.6029598341
0.6029445549
0.6028792559
0.6028502745
0.6028455871
0.6028540315
0.6028683164
0.6028843352
0.6029000109
0.6029144204
0.6029272485
0.602938477
0.6029482139
0.6029565895
0.6029636214
0.6029687531
0.6030218122
0.6029986786
0.6029827632
0.6029733973
0.6029690219
0.6029680733
0.6029692932
0.6029717724
0.6029748952
0.6029782646
0.6029816334
0.6029848433
0.6029877439
0.6029899624
0.603070959
0.6030601217
0.6030498328
0.6030408578
0.6030334596
0.603027598
0.6030230866
0.6030196918
0.603017185
0.6030153662
0.6030140706
0.6030131674
0.6030125581
0.6030121915
0.6030850381
0.6030797736
0.6030737381
0.6030673736
0.6030610472
0.6030550214
0.6030494595
0.6030444446
0.603040002
0.6030361189
0.6030327607
0.6030298888
0.6030274982
0.6030257685
0.6030911194
0.6030886748
0.6030852798
0.603081085
0.603076328
0.6030712648
0.6030661245
0.6030610878
0.6030562829
0.6030517906
0.6030476545
0.6030438928
0.6030405161
0.6030375783
0.6030353798
0.6030875396
0.6030822563
0.6030757238
0.6030686341
0.6030615865
0.6030549899
0.6030490655
0.6030438918
0.603039456
0.6030356954
0.6030325262
0.6030298623
0.6030276294
0.6030257932
0.603024472
0.6030766038
0.6030634821
0.6030497435
0.6030373262
0.6030271626
0.6030194377
0.6030139207
0.6030102126
0.6030078922
0.6030065849
0.6030059871
0.6030058658
0.6030060463
0.6030063889
0.6030067346
0.6030501076
0.6030218145
0.6029986797
0.6029827636
0.6029733972
0.6029690216
0.6029680728
0.6029692926
0.6029717717
0.6029748945
0.6029782639
0.6029816327
0.6029848426
0.6029877431
0.6029899617
0.6030082141
0.6029673604
0.6029444103
0.6029346038
0.602932928
0.6029358089
0.6029409998
0.6029471712
0.602953568
0.6029597792
0.6029655953
0.6029709195
0.6029757047
0.6029798629
0.6029829692
0.6030501078
0.6030218149
0.6029986804
0.6029827644
0.6029733982
0.6029690226
0.6029680738
0.6029692937
0.6029717727
0.6029748955
0.6029782649
0.6029816337
0.6029848435
0.602987744
0.6029899626
0.6030766034
0.6030634818
0.6030497435
0.6030373265
0.6030271633
0.6030194386
0.6030139218
0.6030102139
0.6030078935
0.6030065863
0.6030059886
0.6030058673
0.6030060478
0.6030063903
0.603006736
0.6030822559
0.6030757237
0.6030686341
0.6030615869
0.6030549905
0.6030490663
0.6030438928
0.6030394572
0.6030356967
0.6030325277
0.6030298638
0.6030276309
0.6030257948
0.6030244737
0.6030886746
0.6030852797
0.603081085
0.6030763281
0.6030712651
0.603066125
0.6030610885
0.6030562837
0.6030517916
0.6030476558
0.6030438941
0.6030405176
0.60303758
0.6030353816
0.6030924628
0.6030911611
0.6030892359
0.6030866756
0.6030835407
0.6030799402
0.6030760053
0.6030718687
0.603067651
0.6030634536
0.6030593568
0.603055424
0.6030517166
0.6030483528
0.6030457584
0.6030910853
0.6030886255
0.6030852543
0.603081149
0.6030765573
0.6030717266
0.6030668649
0.603062126
0.6030576126
0.6030533848
0.6030494718
0.6030458841
0.6030426307
0.6030397693
0.6030376085
0.6030875396
0.6030822564
0.603075724
0.6030686343
0.6030615868
0.6030549903
0.6030490658
0.6030438922
0.6030394565
0.603035696
0.6030325268
0.6030298628
0.60302763
0.6030257938
0.6030244727
0.6030809454
0.6030709598
0.6030601224
0.6030498333
0.6030408581
0.6030334597
0.603027598
0.6030230865
0.6030196916
0.6030171847
0.6030153659
0.6030140703
0.603013167
0.6030125577
0.603012191
0.6030740762
0.6030603245
0.6030473036
0.6030362872
0.6030275578
0.6030209365
0.6030160822
0.6030126332
0.6030102663
0.6030087136
0.6030077621
0.6030072466
0.603007039
0.6030070337
0.6030071193
0.6030809455
0.6030709599
0.6030601226
0.6030498336
0.6030408584
0.6030334602
0.6030275985
0.6030230871
0.6030196922
0.6030171854
0.6030153666
0.6030140709
0.6030131677
0.6030125584
0.6030121917
0.6030875396
0.6030822563
0.603075724
0.6030686345
0.6030615871
0.6030549908
0.6030490665
0.6030438929
0.6030394573
0.6030356969
0.6030325278
0.6030298639
0.6030276311
0.6030257949
0.6030244738
0.6030910852
0.6030886254
0.6030852542
0.603081149
0.6030765574
0.6030717269
0.6030668653
0.6030621266
0.6030576133
0.6030533856
0.6030494728
0.6030458852
0.6030426319
0.6030397706
0.6030376099
0.603091161
0.6030892358
0.6030866756
0.6030835408
0.6030799403
0.6030760056
0.6030718691
0.6030676516
0.6030634543
0.6030593577
0.6030554251
0.6030517178
0.6030483542
0.6030457599
0.6030930637
0.6030922883
0.6030910843
0.6030893866
0.6030871749
0.6030844738
0.6030813437
0.6030778687
0.6030741438
0.603070265
0.6030663225
0.6030623994
0.6030585841
0.603055033
0.6030522454
0.6030924628
0.6030911611
0.6030892359
0.6030866757
0.6030835408
0.6030799403
0.6030760054
0.6030718689
0.6030676512
0.6030634538
0.603059357
0.6030554243
0.6030517169
0.6030483532
0.6030457588
0.6030911194
0.6030886748
0.6030852799
0.6030810851
0.6030763282
0.6030712651
0.6030661249
0.6030610883
0.6030562834
0.6030517912
0.6030476552
0.6030438935
0.6030405169
0.6030375792
0.6030353807
0.6030891055
0.6030850385
0.603079774
0.6030737384
0.6030673739
0.6030610474
0.6030550216
0.6030494596
0.6030444446
0.603040002
0.6030361187
0.6030327605
0.6030298886
0.603027498
0.6030257682
0.6030875974
0.6030824472
0.6030761589
0.6030693076
0.6030623759
0.6030557118
0.6030495365
0.6030439695
0.6030390559
0.6030347902
0.6030311359
0.6030280397
0.6030254471
0.603023333
0.6030218286
0.6030891055
0.6030850385
0.603079774
0.6030737385
0.6030673741
0.6030610476
0.6030550218
0.6030494599
0.6030444449
0.6030400024
0.6030361192
0.603032761
0.6030298891
0.6030274985
0.6030257688
0.6030911194
0.6030886748
0.60308528
0.6030810852
0.6030763284
0.6030712654
0.6030661253
0.6030610888
0.603056284
0.6030517918
0.6030476559
0.6030438943
0.6030405178
0.6030375801
0.6030353817
0.6030924628
0.6030911611
0.6030892359
0.6030866757
0.6030835409
0.6030799405
0.6030760057
0.6030718692
0.6030676517
0.6030634544
0.6030593578
0.6030554252
0.6030517179
0.6030483542
0.6030457599
0.6030930637
0.6030922882
0.6030910843
0.6030893866
0.6030871749
0.6030844739
0.6030813439
0.603077869
0.6030741443
0.6030702656
0.6030663232
0.6030624003
0.6030585851
0.6030550341
0.6030522466
)
;

boundaryField
{
    top
    {
        type            zeroGradient;
    }
    bottom
    {
        type            zeroGradient;
    }
    side-walls
    {
        type            zeroGradient;
    }
    inlet
    {
        type            zeroGradient;
    }
    outlet
    {
        type            zeroGradient;
    }
    procBoundary1to0
    {
        type            processor;
        value           nonuniform List<scalar> 
97
(
0.6030930636
0.6030930636
0.6030924628
0.6030911194
0.6030891056
0.6030875975
0.6030891056
0.6030911195
0.6030924628
0.6030930637
0.6030932336
0.6030910852
0.6030910852
0.6030910852
0.6030875396
0.6030809456
0.6030740767
0.6030809459
0.6030875398
0.6030910854
0.6030924628
0.6030926242
0.6030910514
0.6030766033
0.6030766033
0.6030766033
0.603050108
0.6030082172
0.6030501091
0.6030766044
0.6030875398
0.6030911195
0.6030917331
0.6030882833
0.6030762431
0.6029445532
0.6029445532
0.6029445532
0.6026494418
0.6029445609
0.6030501091
0.6030809458
0.6030891056
0.6030910981
0.6030856777
0.6030629075
0.6029730358
0.6002353246
0.6002353246
0.6002353246
0.6026494401
0.6026494401
0.6030082168
0.6030740767
0.6030875975
0.6030917331
0.6030882833
0.603076243
0.6030413304
0.6029730346
0.603041331
0.6030501066
0.6030501066
0.6030501066
0.6030809455
0.6030891055
0.6030926242
0.6030910513
0.6030864511
0.603076243
0.6030629074
0.6030762432
0.6030864511
0.6030875394
0.6030875394
0.6030875394
0.6030911194
0.6030932336
0.6030926122
0.6030910513
0.6030882833
0.6030856777
0.6030882833
0.6030910514
0.6030926122
0.6030924627
0.6030924627
0.6030924627
0.6030935098
0.6030932336
0.6030926242
0.6030917331
0.6030910981
0.6030917331
0.6030926242
0.6030932336
0.6030935098
)
;
    }
}


// ************************************************************************* //
