/*--------------------------------*- C++ -*----------------------------------*\
| =========                 |                                                 |
| \\      /  F ield         | OpenFOAM: The Open Source CFD Toolbox           |
|  \\    /   O peration     | Version:  4.x                                   |
|   \\  /    A nd           | Web:      www.OpenFOAM.org                      |
|    \\/     M anipulation  |                                                 |
\*---------------------------------------------------------------------------*/
FoamFile
{
    version     2.0;
    format      ascii;
    class       surfaceScalarField;
    location    "3000";
    object      phi;
}
// * * * * * * * * * * * * * * * * * * * * * * * * * * * * * * * * * * * * * //

dimensions      [1 0 -1 0 0 0 0];

internalField   nonuniform List<scalar> 
3172
(
9.428596557e-06
-4.108276191e-11
-3.971066365e-11
9.428671155e-06
-3.628980838e-11
-3.561275723e-11
9.428724939e-06
-2.709087037e-11
-2.664759618e-11
9.428762086e-06
-1.915234492e-11
-1.792883029e-11
9.428785504e-06
-1.201354142e-11
-1.276483497e-11
9.428795224e-06
-7.798480779e-12
-7.346028717e-12
9.428794803e-06
-3.214426635e-12
-2.654847684e-12
9.428791298e-06
1.859832547e-12
1.552731712e-12
9.428782422e-06
2.785833714e-12
4.441239485e-12
9.428771812e-06
3.45406544e-12
7.354049846e-12
9.428757768e-06
4.958293891e-12
7.684242932e-12
9.428745749e-06
6.655623015e-12
8.442413298e-12
9.428726904e-06
7.465750317e-12
8.351546588e-12
7.262331278e-12
7.103812034e-12
9.428616698e-06
-7.35156061e-11
-5.030136826e-11
9.428689107e-06
-6.339165245e-11
-4.502283546e-11
9.428738336e-06
-4.42591382e-11
-3.19608226e-11
9.428767438e-06
-2.807256837e-11
-1.983860903e-11
9.428780831e-06
-1.616801337e-11
-9.172373665e-12
9.428784146e-06
-7.359053631e-12
-1.244145661e-12
9.428779577e-06
5.914045927e-13
3.47834509e-12
9.428765657e-06
4.785979721e-12
6.335506009e-12
9.428754855e-06
6.701320599e-12
8.987446688e-12
9.428742951e-06
9.800037966e-12
1.194268504e-11
9.428728941e-06
1.054935238e-11
1.066712353e-11
9.428714768e-06
1.144195305e-11
9.946283869e-12
9.42869772e-06
1.273240026e-11
1.147336229e-11
1.242337407e-11
1.017161705e-11
9.428689431e-06
-7.048759693e-11
-9.562075535e-11
9.428762338e-06
-5.794426271e-11
-7.925867409e-11
9.428795852e-06
-3.693483768e-11
-4.480590151e-11
9.42880619e-06
-1.844928025e-11
-2.043158199e-11
9.428802986e-06
-7.663802441e-12
-2.798103573e-12
9.428793057e-06
-1.051159592e-13
7.128056313e-12
9.428775382e-06
2.397244782e-12
9.940990312e-12
9.428756884e-06
4.765144566e-12
1.390981435e-11
9.428743957e-06
1.030226472e-11
1.554716321e-11
9.428729743e-06
1.000287722e-11
1.595734389e-11
9.428717613e-06
1.013936454e-11
1.36134054e-11
9.428706405e-06
1.132674552e-11
1.254814014e-11
9.428693334e-06
1.225874092e-11
1.399954254e-11
1.204652264e-11
1.211416608e-11
9.428683471e-06
-5.260956287e-11
-8.74090276e-11
9.428742258e-06
-3.486883819e-11
-8.396254629e-11
9.428762429e-06
-1.843114241e-11
-3.594925066e-11
9.42875646e-06
-8.614595978e-12
-5.393754633e-12
9.428741178e-06
-2.296706405e-12
1.138475435e-11
9.428720724e-06
-1.682035577e-13
2.115150949e-11
9.428699544e-06
2.721789149e-12
2.279369932e-11
9.428682009e-06
2.658681174e-12
2.219816378e-11
9.428665715e-06
2.662680999e-12
2.149321248e-11
9.428655149e-06
3.804853461e-12
2.035355395e-11
9.428644253e-06
4.837375504e-12
1.788418701e-11
9.428633802e-06
3.876717431e-12
1.354908816e-11
9.428625028e-06
5.019363192e-12
1.610007248e-11
3.53373746e-12
1.341740405e-11
9.428781416e-06
4.945587941e-11
-1.619541958e-10
9.428809841e-06
3.068358054e-11
-9.476036518e-11
9.428801978e-06
1.532688852e-11
-2.568988565e-11
9.428779689e-06
5.259668243e-12
1.010012156e-11
9.428751116e-06
2.001312464e-12
2.258636255e-11
9.428726138e-06
-1.026369947e-12
2.958019654e-11
9.428703868e-06
-1.739243337e-12
2.848122094e-11
9.428685893e-06
-2.257066206e-12
2.640804186e-11
9.428669746e-06
-3.708491525e-12
2.249102341e-11
9.428660841e-06
-3.514254925e-12
2.050680369e-11
9.428652081e-06
-4.925628916e-12
1.658759744e-11
9.428645276e-06
-4.873966276e-12
1.511276157e-11
9.42863977e-06
-5.280778314e-12
1.756951126e-11
-4.257058906e-12
1.428736401e-11
9.428725893e-06
6.842553759e-11
-8.647537201e-11
9.428787959e-06
5.641768595e-11
-8.255004304e-11
9.428806197e-06
3.362869791e-11
-3.532571102e-11
9.428804683e-06
1.692374259e-11
-2.757237018e-12
9.428786159e-06
5.031331742e-12
1.118588073e-11
9.428767086e-06
-6.70225283e-13
1.99090935e-11
9.428745587e-06
-5.473964336e-12
2.297409013e-11
9.428727613e-06
-7.093441442e-12
2.321942871e-11
9.428713115e-06
-9.061213924e-12
2.184652603e-11
9.428700724e-06
-1.101845306e-11
1.749179738e-11
9.428691482e-06
-9.969649319e-12
1.715292371e-11
9.428682568e-06
-1.151303213e-11
1.61521725e-11
9.428674962e-06
-1.176881872e-11
1.801457945e-11
-9.85147497e-12
1.392765363e-11
9.428683565e-06
7.238311242e-11
-9.461499422e-11
9.428755533e-06
6.314470514e-11
-7.740348128e-11
9.428791405e-06
4.561184743e-11
-4.275933265e-11
9.428802236e-06
2.853449442e-11
-1.733750535e-11
9.428798207e-06
1.545918602e-11
-3.17931009e-12
9.428787434e-06
5.63138481e-12
8.041678017e-12
9.428770576e-06
-1.753247987e-12
1.307143782e-11
9.428751791e-06
-7.465827725e-12
1.417188465e-11
9.428736499e-06
-9.892220789e-12
1.352759835e-11
9.428724807e-06
-9.808738431e-12
1.527894363e-11
9.428709554e-06
-1.134330818e-11
1.29181673e-11
9.428698698e-06
-1.187993999e-11
1.352800667e-11
9.428688949e-06
-1.349097195e-11
1.422876432e-11
-1.403028257e-11
1.03351817e-11
9.428604172e-06
4.088430484e-11
-5.184261586e-11
9.428677721e-06
3.534901201e-11
-4.753941844e-11
9.428724488e-06
2.650758398e-11
-3.227283399e-11
9.428755013e-06
1.701386709e-11
-1.75029841e-11
9.428769738e-06
1.177950621e-11
-7.696307566e-12
9.42877301e-06
6.521012776e-12
1.285000996e-12
9.428767102e-06
8.1297975e-13
4.857244902e-12
9.428758832e-06
-2.461364488e-12
8.331822143e-12
9.428746158e-06
-4.539351734e-12
8.603185365e-12
9.428732646e-06
-5.644788952e-12
9.760011045e-12
9.428717841e-06
-6.773389355e-12
9.933784707e-12
9.428707287e-06
-6.830604977e-12
1.007077597e-11
9.428691043e-06
-8.659285687e-12
1.034940611e-11
-8.735660793e-12
8.573819614e-12
9.428598524e-06
-4.007376247e-11
9.428673869e-06
-3.579554867e-11
9.428726092e-06
-2.632926299e-11
9.428763249e-06
-1.659487596e-11
9.428785018e-06
-1.049038073e-11
9.428794746e-06
-5.231581765e-12
9.428796149e-06
-2.191652197e-13
9.428794095e-06
2.163940657e-12
9.428785082e-06
6.206101963e-12
9.428774556e-06
7.047152549e-12
9.428761298e-06
6.922545333e-12
9.428745828e-06
8.299500293e-12
9.428729557e-06
9.351681791e-12
9.906031539e-12
9.428524424e-06
-1.212498046e-10
9.428608236e-06
-4.975716517e-11
-7.238025663e-11
9.428681205e-06
-4.532881949e-11
-6.238982832e-11
9.428732372e-06
-3.215469811e-11
-4.405440499e-11
9.428759429e-06
-2.010136884e-11
-2.747122163e-11
9.428776104e-06
-8.688018986e-12
-1.281768605e-11
9.428778412e-06
-1.094291039e-12
-4.556188992e-12
9.428770946e-06
2.90966451e-12
1.764789189e-12
9.428760964e-06
6.932149897e-12
6.189742609e-12
9.428749723e-06
8.115877636e-12
9.612256776e-12
9.428734881e-06
1.052120484e-11
1.163671993e-11
9.428721669e-06
9.972790114e-12
1.08829404e-11
9.428706519e-06
9.282888867e-12
1.195663933e-11
9.428691229e-06
1.135132801e-11
1.461820095e-11
1.088086399e-11
1.269547693e-11
9.428653154e-06
-9.17705783e-11
-9.10299631e-11
9.428716409e-06
-8.251736401e-11
-8.038494091e-11
9.428753584e-06
-5.036025881e-11
-5.031728912e-11
9.428768424e-06
-2.573123223e-11
-2.470841219e-11
9.428769505e-06
-8.813446846e-12
-7.555294721e-12
9.428761316e-06
1.959929718e-12
2.376089104e-12
9.428750716e-06
8.266317618e-12
1.057546611e-11
9.42873561e-06
1.329975031e-11
1.379710812e-11
9.428725452e-06
1.542729982e-11
1.728555599e-11
9.428710151e-06
1.481424368e-11
1.557050002e-11
9.428699561e-06
1.515973524e-11
1.57673746e-11
9.428691277e-06
1.610112296e-11
1.690826781e-11
9.428677755e-06
1.68873499e-11
1.752607086e-11
1.564551512e-11
1.405400484e-11
9.428717812e-06
-8.515406587e-11
-1.690653665e-10
9.428762928e-06
-7.134105505e-11
-1.310713671e-10
9.428763979e-06
-3.561717192e-11
-6.142238449e-11
9.428748802e-06
-9.433925292e-12
-1.708203309e-11
9.42872751e-06
3.390724751e-12
8.216290948e-12
9.428704684e-06
1.164551882e-11
2.225141737e-11
9.428688868e-06
1.457748833e-11
2.7504353e-11
9.428672084e-06
1.4047781e-11
2.837494914e-11
9.428663952e-06
1.529111316e-11
2.647756315e-11
9.42865246e-06
1.458276154e-11
2.326726672e-11
9.428647299e-06
1.479570628e-11
2.247083141e-11
9.428641927e-06
1.295393051e-11
1.927353468e-11
9.428638152e-06
1.509118303e-11
2.195482961e-11
1.297034257e-11
1.833405411e-11
9.428735998e-06
-4.86404212e-11
-1.042007747e-10
9.428739742e-06
-3.497996888e-11
-1.245145473e-10
9.428714951e-06
-1.408797814e-11
-3.361739581e-11
9.428681162e-06
-1.843143911e-12
1.958082417e-11
9.428653584e-06
4.427862306e-12
4.078931785e-11
9.428629767e-06
6.284725805e-12
4.645418202e-11
9.428614946e-06
7.598489226e-12
4.650205512e-11
9.428608043e-06
7.260817648e-12
4.192748982e-11
9.428602154e-06
5.140774991e-12
3.586347122e-11
9.428599794e-06
5.811617673e-12
3.063424203e-11
9.42859775e-06
5.755494745e-12
2.765630043e-11
9.428601003e-06
5.4913907e-12
2.527190524e-11
9.428603409e-06
6.511450912e-12
2.593174212e-11
5.195710624e-12
2.044198245e-11
9.428855685e-06
4.640326567e-11
-1.346552148e-10
9.428773544e-06
3.242002772e-11
-7.81964732e-11
9.428701531e-06
1.129014374e-11
1.664618891e-11
9.428649304e-06
3.205293174e-13
6.391167731e-11
9.428613959e-06
-4.043691352e-12
6.724076795e-11
9.428591866e-06
-6.733661932e-12
6.286552338e-11
9.428582174e-06
-6.55755564e-12
5.626687192e-11
9.428578573e-06
-6.182152893e-12
4.598490407e-11
9.428578081e-06
-6.098136491e-12
3.891742256e-11
9.428579246e-06
-7.554492461e-12
3.201669352e-11
9.42858269e-06
-6.399193054e-12
2.718953132e-11
9.428583586e-06
-6.38792632e-12
2.348296132e-11
9.428588405e-06
-6.761273268e-12
2.598469847e-11
-4.793468066e-12
2.203813553e-11
9.428745468e-06
8.292054964e-11
-1.03803727e-10
9.428752107e-06
7.013887642e-11
-1.254538938e-10
9.428729223e-06
3.322921623e-11
-3.51174152e-11
9.428694016e-06
7.428736212e-12
1.958398504e-11
9.42866469e-06
-5.693839253e-12
4.013664371e-11
9.428645316e-06
-1.207993406e-11
4.750392567e-11
9.428630346e-06
-1.482850863e-11
4.648417805e-11
9.428622008e-06
-1.653200322e-11
4.12563529e-11
9.428615631e-06
-1.815796732e-11
3.571337758e-11
9.428615608e-06
-1.442481313e-11
3.225906753e-11
9.428617126e-06
-1.53401516e-11
2.838703332e-11
9.428617208e-06
-1.462664205e-11
2.494912435e-11
9.428619346e-06
-1.608546505e-11
2.605207113e-11
-1.417053723e-11
2.147330315e-11
9.428693044e-06
8.945271968e-11
-1.689473235e-10
9.42873719e-06
7.973996321e-11
-1.315734865e-10
9.428741696e-06
5.008806886e-11
-6.184515034e-11
9.428725058e-06
2.586389798e-11
-1.545251294e-11
9.42870514e-06
9.698203814e-12
7.937041273e-12
9.428682268e-06
-1.818919953e-12
2.173515059e-11
9.428661676e-06
-9.959915441e-12
2.653568714e-11
9.428646608e-06
-1.344379298e-11
2.787716263e-11
9.428638228e-06
-1.478081327e-11
2.66952353e-11
9.428627992e-06
-1.617815529e-11
2.424344287e-11
9.428623851e-06
-1.501250094e-11
2.373075985e-11
9.428617404e-06
-1.595514852e-11
2.159604912e-11
9.428614437e-06
-1.693276577e-11
2.333934543e-11
-1.538127972e-11
1.88860199e-11
9.428679556e-06
5.193291822e-11
-8.997189701e-11
9.42874581e-06
4.70528343e-11
-7.913133513e-11
9.428782804e-06
3.189253314e-11
-4.998776766e-11
9.428796781e-06
1.923504986e-11
-2.540520797e-11
9.428798765e-06
9.741728456e-12
-8.872512273e-12
9.428787588e-06
8.156065246e-13
1.902265786e-12
9.428775702e-06
-4.702358275e-12
1.07991253e-11
9.428762505e-06
-8.98190705e-12
1.344175178e-11
9.428751541e-06
-6.993164449e-12
1.541301423e-11
9.428738102e-06
-7.735380424e-12
1.698389924e-11
9.428726625e-06
-1.034038179e-11
1.631176593e-11
9.42871697e-06
-8.26651075e-12
1.688177478e-11
9.42870452e-06
-8.623885851e-12
1.871101067e-11
-7.607879189e-12
1.660029037e-11
9.428595911e-06
-7.240387696e-11
9.428670342e-06
-6.236680866e-11
9.428719162e-06
-4.287454559e-11
9.428749534e-06
-2.709171948e-11
9.42876004e-06
-1.584274658e-11
9.428762319e-06
-6.507613743e-12
9.42875801e-06
7.51898814e-13
9.428749916e-06
7.246969797e-12
9.428736565e-06
8.861330418e-12
9.428722116e-06
9.986873399e-12
9.428711146e-06
1.279401825e-11
9.428699114e-06
1.287596903e-11
9.428685406e-06
1.249485588e-11
1.225547349e-11
9.428563928e-06
-2.03318496e-10
-1.481555532e-10
9.428655715e-06
-9.453277094e-11
-7.221035566e-11
9.428726832e-06
-7.771752504e-11
-5.728713511e-11
9.428762591e-06
-4.371793284e-11
-3.501331023e-11
9.428773071e-06
-1.806853582e-11
-1.713332405e-11
9.428768775e-06
-3.74400189e-12
-6.850454573e-12
9.428756852e-06
6.149780484e-12
2.01441725e-12
9.428740309e-06
1.330243242e-11
5.592389211e-12
9.428723633e-06
1.48486839e-11
7.959626689e-12
9.428709675e-06
1.660974096e-11
8.247879229e-12
9.428693894e-06
1.492110126e-11
9.640437187e-12
9.428684457e-06
1.557724484e-11
1.214452552e-11
9.428672141e-06
1.471261435e-11
1.368371941e-11
9.428658009e-06
1.531472543e-11
1.257187269e-11
1.401781941e-11
1.113807992e-11
9.428669986e-06
-2.789708997e-10
9.428739581e-06
-1.684515089e-10
-8.643168466e-11
9.428782113e-06
-1.322368283e-10
-7.243133857e-11
9.428786172e-06
-6.16860451e-11
-3.570159086e-11
9.428768248e-06
-1.904295817e-11
-1.022127354e-11
9.428747703e-06
6.370318833e-12
3.149556163e-12
9.428727046e-06
2.137660598e-11
1.071529845e-11
9.428706469e-06
2.531114916e-11
1.473593793e-11
9.428693911e-06
2.729184851e-11
1.698239945e-11
9.428681878e-06
2.577234471e-11
1.638479524e-11
9.428672009e-06
2.40205734e-11
1.513517177e-11
9.428669298e-06
2.306969783e-11
1.666934747e-11
9.428662318e-06
1.923561578e-11
1.507263412e-11
9.428656797e-06
2.183380887e-11
1.576567383e-11
2.074000144e-11
1.361471459e-11
9.428845815e-06
-1.694663882e-10
-1.701111421e-10
9.428807644e-06
-1.135047325e-10
-1.141609071e-10
9.428734843e-06
-2.821049397e-11
-2.743009772e-11
9.428673561e-06
1.488509704e-11
1.60849395e-11
9.428631951e-06
3.007203845e-11
3.069379906e-11
9.428605075e-06
3.331648833e-11
3.349815639e-11
9.428592561e-06
3.183435762e-11
3.266164892e-11
9.428586507e-06
2.756061675e-11
2.929882301e-11
9.428588621e-06
2.477042808e-11
2.693635805e-11
9.428594004e-06
2.111626628e-11
2.086929692e-11
9.428601315e-06
2.058009592e-11
2.07558757e-11
9.428608554e-06
1.884610833e-11
1.874256657e-11
9.428615509e-06
1.982799689e-11
2.033240086e-11
1.565271863e-11
1.540822193e-11
9.428775788e-06
-5.707320204e-11
5.562349694e-11
9.428639136e-06
-4.196221661e-11
-5.742526599e-11
9.428534972e-06
-1.108505689e-13
4.327710271e-11
9.428475526e-06
1.706443005e-11
7.993223362e-11
9.428454021e-06
1.773781413e-11
7.428410618e-11
9.42845539e-06
1.702733313e-11
6.403515575e-11
9.428468772e-06
1.597155291e-11
5.362402078e-11
9.428488712e-06
1.239334286e-11
4.29029693e-11
9.42850974e-06
1.077888364e-11
3.426058338e-11
9.428528216e-06
8.526537701e-12
2.741847303e-11
9.428545073e-06
6.399574368e-12
2.413185641e-11
9.428560127e-06
5.974157124e-12
2.032808759e-11
9.428574858e-06
6.328233222e-12
2.234172213e-11
6.604468367e-12
1.915172387e-11
9.428940033e-06
5.554343992e-11
4.077084163e-10
9.428574827e-06
3.937529103e-11
2.082413418e-10
9.428415456e-06
-3.540464565e-12
1.78006894e-10
9.42836085e-06
-1.854357365e-11
1.581882978e-10
9.42835976e-06
-1.810403921e-11
1.114406082e-10
9.428380228e-06
-1.59870746e-11
7.902236333e-11
9.428404139e-06
-1.454294092e-11
5.756058839e-11
9.428434514e-06
-1.24628509e-11
4.450660189e-11
9.428461515e-06
-1.173575718e-11
3.495553156e-11
9.428487086e-06
-8.859427691e-12
2.774112076e-11
9.428512389e-06
-6.546933505e-12
2.430561756e-11
9.428529598e-06
-6.411098869e-12
2.044111555e-11
9.428549406e-06
-7.428135767e-12
2.296359567e-11
-6.240414221e-12
1.884468831e-11
9.428793286e-06
1.681249208e-10
5.43866462e-11
9.428656549e-06
1.125016113e-10
-5.713934828e-11
9.428557992e-06
2.80693206e-11
4.381206169e-11
9.428496778e-06
-1.447221806e-11
7.829693042e-11
9.428473574e-06
-3.127578393e-11
7.385482117e-11
9.428475419e-06
-3.5364893e-11
6.445545813e-11
9.428488046e-06
-3.383045999e-11
5.170640657e-11
9.428506949e-06
-3.001640514e-11
4.195588195e-11
9.428527342e-06
-2.628128721e-11
3.397810554e-11
9.428545456e-06
-2.14144765e-11
2.801312837e-11
9.428564745e-06
-1.945889638e-11
2.33678565e-11
9.428577762e-06
-1.784002015e-11
1.933567024e-11
9.428595499e-06
-1.985416377e-11
2.194600092e-11
-1.765498558e-11
1.955486048e-11
9.428820596e-06
1.675064637e-10
-1.693253207e-10
9.428781313e-06
1.320035868e-10
-1.114921994e-10
9.428713681e-06
6.187649539e-11
-2.594170174e-11
9.42864877e-06
1.645345159e-11
1.377724402e-11
9.428608249e-06
-7.038713551e-12
3.094518276e-11
9.428581652e-06
-2.118495471e-11
3.534278868e-11
9.428566904e-06
-2.479526602e-11
3.251889294e-11
9.428563118e-06
-2.728149016e-11
2.992843729e-11
9.428568293e-06
-2.617857438e-11
2.612804537e-11
9.428570854e-06
-2.329435346e-11
2.241656877e-11
9.428576538e-06
-2.297263769e-11
1.97512721e-11
9.428581185e-06
-1.987563228e-11
1.732395969e-11
9.428588783e-06
-2.22339441e-11
1.942891681e-11
-1.84822987e-11
1.640324639e-11
9.428717411e-06
9.523658152e-11
-8.587270475e-11
9.428758413e-06
7.761985372e-11
-7.188023162e-11
9.428763901e-06
4.406731525e-11
-3.466631392e-11
9.428744327e-06
1.823447767e-11
-1.059542484e-11
9.428725286e-06
3.835561614e-12
3.979113364e-12
9.428702813e-06
-7.374354346e-12
1.187742376e-11
9.428680848e-06
-1.450862383e-11
1.228344125e-11
9.428667312e-06
-1.456500717e-11
1.514940611e-11
9.428660335e-06
-1.283260388e-11
1.730889992e-11
9.428648372e-06
-1.375536712e-11
1.445337431e-11
9.428643046e-06
-1.377639647e-11
1.549424822e-11
9.428639004e-06
-1.221170616e-11
1.435914137e-11
9.428634036e-06
-1.410330094e-11
1.656527305e-11
-1.071096484e-11
1.351395086e-11
9.42869008e-06
-7.129324777e-11
9.428762156e-06
-5.837703314e-11
9.42879531e-06
-3.538836835e-11
9.428805876e-06
-1.648298403e-11
9.428803143e-06
-6.466136344e-12
9.428790099e-06
3.133470046e-13
9.428774186e-06
5.009719516e-12
9.428757361e-06
7.161394018e-12
9.428741677e-06
8.960220758e-12
9.428727099e-06
9.615331631e-12
9.428714851e-06
1.220198802e-11
9.428702903e-06
1.143698965e-11
9.428693692e-06
1.319359438e-11
1.062517029e-11
9.428646216e-06
-3.120517517e-10
-1.331588979e-10
9.42871553e-06
-8.568266209e-11
-4.911297704e-11
9.4287722e-06
-8.424328294e-11
-3.403916586e-11
9.42879193e-06
-3.765533395e-11
-1.751883731e-11
9.428787133e-06
-4.982843073e-12
-6.195175815e-12
9.428770837e-06
1.063073016e-11
-5.291219027e-13
9.428748451e-06
1.737063314e-11
2.327061997e-13
9.428729503e-06
2.317567213e-11
4.660650653e-13
9.428710635e-06
2.36353494e-11
3.215339273e-12
9.428695239e-06
2.295453975e-11
4.217899025e-12
9.428680812e-06
1.966918877e-11
4.655609969e-12
9.428674254e-06
1.813542877e-11
4.956297945e-12
9.428661827e-06
1.568085995e-11
3.372260141e-12
9.428653155e-06
1.724697129e-11
6.259897064e-12
1.431480076e-11
6.59283798e-12
9.428779976e-06
-7.430869032e-10
-2.730021845e-10
9.428756744e-06
-1.016268604e-10
-4.703992422e-11
9.428759792e-06
-1.239294895e-10
-3.385227987e-11
9.428738439e-06
-3.247687706e-11
-1.276905485e-11
9.428703792e-06
2.014267147e-11
-2.246758816e-13
9.428675249e-06
4.109258287e-11
4.962470111e-12
9.428655602e-06
4.808870938e-11
6.748127412e-12
9.428637709e-06
4.505123654e-11
5.684402381e-12
9.428628886e-06
4.05470164e-11
6.229762843e-12
9.428619861e-06
3.534245115e-11
5.524522644e-12
9.428619384e-06
2.886578374e-11
5.984018599e-12
9.428620512e-06
2.640256053e-11
4.814823822e-12
9.428621331e-06
2.262275026e-11
3.521412427e-12
9.42862489e-06
2.614924359e-11
5.729429736e-12
2.168712928e-11
7.31019658e-12
9.429061143e-06
-8.007174849e-10
9.428791878e-06
5.558378698e-11
-5.725806299e-11
9.428657518e-06
-5.803932803e-11
-4.246278528e-11
9.428551569e-06
4.237384613e-11
-1.117723632e-12
9.428491486e-06
7.838207955e-11
1.635935747e-11
9.428471168e-06
7.419030332e-11
1.923172366e-11
9.428472659e-06
6.395434714e-11
1.761130497e-11
9.428486477e-06
5.229823954e-11
1.534967053e-11
9.428503869e-06
4.026662754e-11
1.26539531e-11
9.428520689e-06
3.136770198e-11
9.300347171e-12
9.428543588e-06
2.720525406e-11
9.377808423e-12
9.428561532e-06
2.379806783e-11
8.729502279e-12
9.428577749e-06
2.000281126e-11
6.47196654e-12
9.428593456e-06
2.13677068e-11
8.143407416e-12
1.962330716e-11
7.957720816e-12
9.428139351e-06
4.548080473e-10
4.552572245e-10
9.428056392e-06
-1.469769743e-11
-1.4416362e-11
9.428068041e-06
3.624137286e-11
3.63196765e-11
9.428121705e-06
5.268813957e-11
5.230808684e-11
9.428194851e-06
3.912484997e-11
4.026762388e-11
9.428270568e-06
2.896568668e-11
2.916785954e-11
9.428333872e-06
2.223638199e-11
2.211211239e-11
9.428388691e-06
1.578885467e-11
1.614170043e-11
9.428431998e-06
1.364293416e-11
1.299925812e-11
9.428469903e-06
1.070249239e-11
9.887091022e-12
9.428502585e-06
7.590323875e-12
9.867559643e-12
9.428529198e-06
7.505291315e-12
7.883270319e-12
9.428558157e-06
8.006198054e-12
8.22451095e-12
7.792130182e-12
6.985845123e-12
9.427736527e-06
-4.586768516e-10
3.122819159e-09
9.427691714e-06
1.188561582e-11
2.351771507e-10
9.427862213e-06
-4.042113065e-11
8.841227457e-11
9.428035413e-06
-5.590324562e-11
9.222694207e-11
9.428178383e-06
-4.056845595e-11
5.198073831e-11
9.428289648e-06
-2.881698725e-11
3.18702731e-11
9.42837268e-06
-2.264226009e-11
1.936073477e-11
9.428439263e-06
-1.721712942e-11
1.460320501e-11
9.428487119e-06
-1.393386732e-11
1.018178902e-11
9.428526475e-06
-1.148518644e-11
8.415296853e-12
9.428565042e-06
-8.133609073e-12
8.409035609e-12
9.428593126e-06
-8.339722815e-12
5.791032757e-12
9.428626781e-06
-8.826347919e-12
7.236948732e-12
-6.214874072e-12
2.754983757e-12
9.428147883e-06
-5.611344567e-11
4.571203526e-10
9.428060694e-06
5.87042001e-11
-1.322488493e-11
9.428075412e-06
-4.192273331e-11
3.785909038e-11
9.428129499e-06
-7.867594243e-11
5.459791259e-11
9.428203365e-06
-7.418364093e-11
4.069149956e-11
9.42827538e-06
-6.535408827e-11
2.959186021e-11
9.428340693e-06
-5.439986479e-11
2.23155976e-11
9.428397548e-06
-4.256671509e-11
1.806595723e-11
9.428442063e-06
-3.423153704e-11
1.302699986e-11
9.428477959e-06
-2.738341864e-11
8.539989541e-12
9.428510605e-06
-2.309771726e-11
7.776918799e-12
9.428537282e-06
-2.025531936e-11
6.734806421e-12
9.42856888e-06
-2.332580231e-11
7.938619195e-12
-2.070760619e-11
6.319747986e-12
9.428785967e-06
1.014377977e-10
-5.497118552e-11
9.428647132e-06
1.227481288e-10
-4.113388026e-11
9.428543572e-06
3.205963654e-11
3.218955432e-13
9.428485462e-06
-1.960004061e-11
1.929527301e-11
9.42846255e-06
-4.08026862e-11
2.002356022e-11
9.428463431e-06
-4.750982262e-11
1.73270815e-11
9.428478114e-06
-4.620237414e-11
1.452800791e-11
9.428496555e-06
-4.285859454e-11
1.254457991e-11
9.42851572e-06
-3.680591094e-11
1.092339231e-11
9.428534013e-06
-3.164107066e-11
8.663678678e-12
9.428551735e-06
-2.714488538e-11
7.939496604e-12
9.428569027e-06
-2.374630161e-11
7.478674358e-12
9.428587749e-06
-2.382063511e-11
7.440653454e-12
-2.082029401e-11
7.064842864e-12
9.428716131e-06
8.630068782e-11
-4.352390043e-11
9.428717419e-06
8.200197243e-11
-3.197684892e-11
9.428695097e-06
3.772313931e-11
-1.169887935e-11
9.428661318e-06
6.31040721e-12
5.34980341e-13
9.42863343e-06
-1.021774001e-11
5.578292017e-12
9.428609623e-06
-1.949159548e-11
6.483027018e-12
9.428593958e-06
-2.250781977e-11
7.202703078e-12
9.428586555e-06
-2.238054175e-11
8.008226264e-12
9.428581422e-06
-2.119315106e-11
7.50035376e-12
9.428578218e-06
-1.910275938e-11
5.402260438e-12
9.428578089e-06
-1.675570307e-11
6.128658182e-12
9.428582607e-06
-1.484870297e-11
6.632193016e-12
9.428582173e-06
-1.715111626e-11
5.33337332e-12
-1.310844285e-11
5.445622626e-12
9.428699594e-06
-4.87541139e-11
9.428758042e-06
-3.013878253e-11
9.428775407e-06
-1.547771848e-11
9.428769326e-06
-6.326567776e-12
9.42875454e-06
-2.162505392e-12
9.42873369e-06
9.218653841e-13
9.428713727e-06
2.997194496e-12
9.428697478e-06
4.079212337e-12
9.428681146e-06
5.292377358e-12
9.42866869e-06
5.183355407e-12
9.428655585e-06
4.445975262e-12
9.428648931e-06
4.174204074e-12
9.42863994e-06
5.543854036e-12
5.438868225e-12
9.428712646e-06
-7.493837773e-10
1.332142394e-10
9.428774169e-06
-1.606744007e-10
4.956775462e-11
9.428804313e-06
-9.438335137e-11
3.385561544e-11
9.428796584e-06
-2.539468147e-11
1.640060997e-11
9.428771522e-06
1.107601224e-11
5.845848267e-12
9.428744839e-06
2.292544693e-11
-1.072556032e-13
9.42871898e-06
2.76048659e-11
-3.292198886e-12
9.428696239e-06
2.905896145e-11
-2.262575217e-12
9.428678469e-06
2.580110196e-11
-3.671572378e-12
9.428665162e-06
2.421205443e-11
-4.042851644e-12
9.428650609e-06
1.997402191e-11
-5.911095231e-12
9.428645042e-06
1.803900367e-11
-5.594011813e-12
9.428638059e-06
1.476628675e-11
-6.535744997e-12
9.428630562e-06
1.715111648e-11
-5.58914428e-12
1.534599869e-11
-4.558340369e-12
9.42899066e-06
-2.130777276e-09
2.711572762e-10
9.428874321e-06
-1.346535399e-10
4.64401458e-11
9.428790586e-06
-7.966715017e-11
3.453823946e-11
9.428722658e-06
1.620090605e-11
1.308818822e-11
9.428667569e-06
6.267724251e-11
-3.063393254e-13
9.428633186e-06
6.898703098e-11
-4.249667373e-12
9.428614286e-06
6.41030054e-11
-6.489130026e-12
9.428602268e-06
5.559485039e-11
-6.838882351e-12
9.428597801e-06
4.637686002e-11
-7.313375425e-12
9.428596724e-06
3.855639306e-11
-7.033015394e-12
9.428596363e-06
3.072959672e-11
-7.573643355e-12
9.428601336e-06
2.909856634e-11
-5.605718426e-12
9.428606213e-06
2.528069957e-11
-5.271068098e-12
9.428608726e-06
2.778761064e-11
-7.233638733e-12
2.271165097e-11
-5.390174968e-12
9.429591599e-06
-5.643101311e-09
7.977428946e-10
9.428942605e-06
4.06829367e-10
5.658079159e-11
9.428577911e-06
2.06603401e-10
4.227167905e-11
9.428420489e-06
1.773644925e-10
-1.563849167e-12
9.428364436e-06
1.564207489e-10
-1.872922483e-11
9.428358546e-06
1.097497931e-10
-1.986439167e-11
9.428380646e-06
7.790402359e-11
-1.676629807e-11
9.428406265e-06
5.727657787e-11
-1.65167496e-11
9.428435538e-06
4.224577801e-11
-1.361496577e-11
9.428463107e-06
3.309733778e-11
-1.055184411e-11
9.428489143e-06
2.546266353e-11
-9.468710351e-12
9.428510103e-06
2.393095888e-11
-7.635505342e-12
9.428531288e-06
2.034209809e-11
-6.403048644e-12
9.428550453e-06
2.142247224e-11
-7.461499692e-12
1.733104661e-11
-6.484601812e-12
9.429552397e-06
1.573733882e-09
9.427754755e-06
3.122296013e-09
-4.5731824e-10
9.427710262e-06
2.356001283e-10
1.386010356e-11
9.427879589e-06
8.843142778e-11
-3.89356654e-11
9.428055425e-06
9.257881569e-11
-5.420816904e-11
9.428195922e-06
5.053777094e-11
-3.891255409e-11
9.428307296e-06
3.083526489e-11
-2.837721501e-11
9.428392142e-06
1.880985595e-11
-2.234467723e-11
9.428456449e-06
1.466067579e-11
-1.718563205e-11
9.42850597e-06
1.050250602e-11
-1.404963146e-11
9.42854985e-06
8.999864449e-12
-9.469031338e-12
9.428580591e-06
5.873305247e-12
-9.362889743e-12
9.428610016e-06
5.325858601e-12
-7.585243962e-12
9.428643975e-06
6.706726074e-12
-8.147462626e-12
2.540722427e-12
-6.582299642e-12
9.495296584e-06
-3.123874494e-09
-3.124098901e-09
9.496316826e-06
-2.370192341e-10
-2.346531373e-10
9.496750224e-06
-9.184929313e-11
-8.914956855e-11
9.497191631e-06
-9.288248336e-11
-9.269650528e-11
9.497467951e-06
-5.182013771e-11
-5.1326827e-11
9.497661166e-06
-3.084705823e-11
-2.979208897e-11
9.497813782e-06
-1.954314224e-11
-1.996107092e-11
9.497940138e-06
-1.332284102e-11
-1.568516135e-11
9.498054096e-06
-1.094621844e-11
-1.221884239e-11
9.498159685e-06
-1.09106205e-11
-9.390602338e-12
9.498262105e-06
-8.943352025e-12
-8.732688166e-12
9.49835559e-06
-7.589583182e-12
-6.814727398e-12
9.498458993e-06
-7.628334416e-12
-8.567473135e-12
-1.72754378e-12
-3.862303547e-12
9.427716217e-06
-4.085995822e-10
-4.568449828e-10
9.427670701e-06
-2.077579299e-10
1.43196662e-11
9.427843902e-06
-1.774851824e-10
-3.708132129e-11
9.428018683e-06
-1.585243603e-10
-5.373984585e-11
9.428161168e-06
-1.111079105e-10
-3.892501248e-11
9.428269185e-06
-8.034587892e-11
-2.873902152e-11
9.428355003e-06
-5.977153517e-11
-2.129293197e-11
9.42841936e-06
-4.647418146e-11
-1.725837276e-11
9.428468056e-06
-3.551057588e-11
-1.388377225e-11
9.428512963e-06
-2.588533649e-11
-9.634885299e-12
9.428547733e-06
-2.155416034e-11
-8.781408306e-12
9.428575978e-06
-1.904294449e-11
-7.219848543e-12
9.428610933e-06
-2.310309916e-11
-7.553087942e-12
-1.907311736e-11
-6.404613625e-12
9.428961905e-06
1.333408449e-10
5.671745296e-11
9.428596088e-06
7.811212172e-11
4.13311859e-11
9.428438778e-06
-1.702346386e-11
6.846057155e-13
9.428383243e-06
-6.392822019e-11
-1.714727717e-11
9.428379353e-06
-6.84806443e-11
-1.80666908e-11
9.42839994e-06
-6.370051198e-11
-1.721706348e-11
9.42842792e-06
-5.480345669e-11
-1.429119985e-11
9.428458729e-06
-4.657992525e-11
-1.268880735e-11
9.428485611e-06
-3.856824835e-11
-1.035515794e-11
9.428509344e-06
-3.205091483e-11
-8.192297849e-12
9.428531878e-06
-2.78894162e-11
-8.423651371e-12
9.428549959e-06
-2.360563905e-11
-7.351197337e-12
9.428571722e-06
-2.601146732e-11
-6.995846878e-12
-2.209207998e-11
-6.523064444e-12
9.428872258e-06
1.589254912e-10
4.694220806e-11
9.428790467e-06
9.417064177e-11
3.338547524e-11
9.428723864e-06
2.734103919e-11
1.430361643e-11
9.428670595e-06
-9.370745558e-12
1.56064386e-12
9.428635245e-06
-2.33673986e-11
-4.420024386e-12
9.428615696e-06
-2.823079395e-11
-5.837401437e-12
9.428604856e-06
-2.759239858e-11
-6.989505116e-12
9.428601966e-06
-2.489572879e-11
-7.306192274e-12
9.428601125e-06
-2.176533929e-11
-6.384557739e-12
9.428603279e-06
-1.92259172e-11
-6.263443745e-12
9.428606899e-06
-1.702587683e-11
-4.345837743e-12
9.428609123e-06
-1.584924656e-11
-5.076066032e-12
9.428614037e-06
-1.673877641e-11
-5.198549873e-12
-1.397494655e-11
-5.528265397e-12
9.428806282e-06
5.249241834e-11
9.428835234e-06
3.29565816e-11
9.428826047e-06
1.806820582e-11
9.428801294e-06
8.213809715e-12
9.428774153e-06
2.444236279e-12
9.42874992e-06
-3.957639393e-13
9.428725717e-06
-1.898600502e-12
9.428708155e-06
-3.728089058e-12
9.428691935e-06
-4.421984216e-12
9.428680681e-06
-4.357028218e-12
9.428670199e-06
-4.748226736e-12
9.428664802e-06
-4.393654676e-12