/*--------------------------------*- C++ -*----------------------------------*\
| =========                 |                                                 |
| \\      /  F ield         | OpenFOAM: The Open Source CFD Toolbox           |
|  \\    /   O peration     | Version:  4.x                                   |
|   \\  /    A nd           | Web:      www.OpenFOAM.org                      |
|    \\/     M anipulation  |                                                 |
\*---------------------------------------------------------------------------*/
FoamFile
{
    version     2.0;
    format      ascii;
    class       volScalarField;
    location    "3000";
    object      rhoeps;
}
// * * * * * * * * * * * * * * * * * * * * * * * * * * * * * * * * * * * * * //

dimensions      [1 -3 0 0 0 0 0];

internalField   nonuniform List<scalar> 
1174
(
0.2777052923
0.2777057713
0.2777064593
0.2777073685
0.277708483
0.2777097609
0.2777111685
0.2777126376
0.2777142125
0.277715859
0.2777174856
0.2777190439
0.2777205182
0.2777216353
0.2777056638
0.2777064351
0.2777075302
0.2777088487
0.2777102787
0.2777118475
0.2777135221
0.2777152331
0.2777169478
0.2777186408
0.277720248
0.2777216865
0.2777230718
0.2777241283
0.2777074776
0.2777088606
0.2777105372
0.2777125093
0.277714609
0.2777167032
0.2777187536
0.2777206781
0.2777225182
0.2777241854
0.2777257425
0.2777271237
0.2777283105
0.2777292142
0.2777078208
0.2777099708
0.2777124542
0.2777150386
0.2777176452
0.2777200892
0.2777223581
0.2777243538
0.2777261657
0.2777277421
0.2777290924
0.2777302563
0.2777312102
0.2777319162
0.2777094055
0.277711995
0.2777148159
0.2777176321
0.2777203152
0.2777228538
0.2777251277
0.2777271324
0.277728886
0.2777303762
0.2777316451
0.2777327068
0.2777335776
0.2777341911
0.2777091316
0.277711316
0.2777137638
0.2777163556
0.2777189636
0.2777214091
0.2777237071
0.2777257491
0.2777275504
0.2777290993
0.2777304861
0.2777316463
0.2777326046
0.2777333168
0.2777072937
0.2777087245
0.2777104252
0.2777123362
0.2777143875
0.2777164634
0.277718527
0.2777204855
0.2777222872
0.2777239722
0.277725518
0.2777269163
0.2777281166
0.2777289831
0.277705306
0.2777060578
0.2777071407
0.2777084556
0.2777099212
0.2777115049
0.2777131869
0.2777149047
0.2777166283
0.2777183431
0.2777199488
0.2777214457
0.277722822
0.2777239098
0.2777053243
0.2777057948
0.277706505
0.2777073615
0.2777084683
0.2777097412
0.2777111338
0.277712672
0.2777142726
0.2777158906
0.2777174836
0.2777190422
0.2777204867
0.2777216355
0.2777049621
0.2777054492
0.2777062413
0.277707277
0.2777086025
0.2777100595
0.2777116394
0.2777133779
0.2777150841
0.2777167994
0.2777184543
0.2777200333
0.2777215107
0.2777228883
0.2777239393
0.2777068925
0.2777082286
0.2777098475
0.277711741
0.2777137195
0.2777156883
0.2777176175
0.2777194942
0.2777212325
0.2777228093
0.2777242836
0.2777256114
0.2777267742
0.2777276348
0.2777092678
0.2777119465
0.2777148324
0.2777176858
0.2777203788
0.2777228057
0.2777249375
0.2777267556
0.2777282674
0.2777295915
0.2777306822
0.2777315618
0.2777322952
0.2777328227
0.2777138635
0.2777182176
0.2777224228
0.2777260443
0.277729066
0.2777314412
0.2777332726
0.2777346246
0.2777356181
0.2777363531
0.277736896
0.2777372472
0.2777374871
0.2777376612
0.277717983
0.2777232541
0.2777277567
0.2777312796
0.2777339519
0.2777359338
0.2777373172
0.2777383099
0.2777389354
0.2777393663
0.2777395835
0.2777396932
0.2777396916
0.2777396402
0.277714104
0.2777185467
0.2777227479
0.2777264375
0.2777294512
0.277731815
0.2777336595
0.2777350754
0.277736089
0.2777368546
0.2777373897
0.2777377507
0.2777379912
0.2777381553
0.27770856
0.2777112433
0.2777141392
0.2777170011
0.277719694
0.2777220959
0.2777242161
0.2777259957
0.2777275269
0.2777288206
0.2777298947
0.2777308102
0.2777315642
0.2777321752
0.2777076362
0.2777090413
0.2777106925
0.277712544
0.2777145136
0.2777164927
0.2777184122
0.2777202256
0.2777219761
0.2777235621
0.2777250572
0.2777263596
0.277727534
0.2777284212
0.2777051039
0.2777058222
0.2777068813
0.2777081724
0.2777096496
0.2777112411
0.2777128962
0.2777146122
0.277716354
0.2777180028
0.2777196495
0.2777211782
0.2777225653
0.2777236691
0.2777055661
0.2777065483
0.2777078834
0.2777095574
0.2777114926
0.2777135516
0.2777156852
0.2777177288
0.2777196471
0.2777214743
0.2777231466
0.2777246646
0.2777260664
0.2777272492
0.277728144
0.2777078138
0.2777099734
0.277712626
0.2777155088
0.2777183569
0.2777210261
0.277723402
0.2777255281
0.2777273486
0.2777289035
0.2777301984
0.2777312664
0.2777321494
0.2777328716
0.2777334405
0.277717384
0.2777229506
0.2777280106
0.2777321292
0.2777352785
0.2777375512
0.2777390696
0.2777399814
0.2777405277
0.2777407257
0.2777407501
0.2777407001
0.277740557
0.2777404036
0.2777339983
0.2777434041
0.2777498699
0.2777536955
0.2777554819
0.2777558389
0.2777553842
0.2777544057
0.2777531746
0.2777517787
0.2777504081
0.2777490459
0.2777478525
0.2777469202
0.277755508
0.2777648859
0.2777688963
0.2777695553
0.2777683507
0.2777662683
0.2777637543
0.2777611344
0.2777585915
0.2777561964
0.2777540783
0.27775216
0.2777504701
0.2777492413
0.2777345122
0.2777439665
0.2777504652
0.277754271
0.2777560748
0.2777564262
0.2777559478
0.2777549383
0.2777536697
0.2777523152
0.277750924
0.2777495889
0.2777484054
0.2777474906
0.2777166044
0.2777221779
0.2777272202
0.2777313307
0.2777345156
0.2777367742
0.2777383087
0.2777392428
0.277739778
0.2777399975
0.2777400689
0.2777400099
0.277739896
0.2777397274
0.2777092496
0.2777119049
0.2777147571
0.2777176168
0.2777202632
0.2777226732
0.2777248023
0.2777266079
0.2777281506
0.2777294285
0.2777305736
0.2777314595
0.2777321641
0.2777326767
0.2777074459
0.2777088484
0.277710578
0.2777124763
0.2777145392
0.2777165946
0.2777186204
0.277720578
0.2777224167
0.2777241232
0.2777256136
0.2777269974
0.2777282051
0.2777291187
0.2777070277
0.2777086977
0.2777108337
0.2777132715
0.2777158623
0.2777184572
0.2777209622
0.2777232023
0.2777252296
0.2777270221
0.2777285623
0.2777299435
0.2777310841
0.27773205
0.2777327419
0.2777103564
0.2777144273
0.2777188514
0.2777230671
0.2777267202
0.2777297629
0.2777321382
0.2777339671
0.2777353014
0.2777362486
0.2777369779
0.2777374925
0.2777378391
0.2777381067
0.2777382771
0.2777229834
0.2777344788
0.2777438928
0.2777504208
0.2777542226
0.2777559992
0.2777564078
0.2777558702
0.2777548756
0.2777535756
0.2777521662
0.2777508425
0.2777495453
0.2777483484
0.2777474445
0.2777921438
0.2778039477
0.2778058545
0.2778024537
0.2777966675
0.277790115
0.2777836887
0.2777777763
0.2777725594
0.277767972
0.2777639752
0.2777605893
0.2777577193
0.2777556518
0.2779077911
0.277892847
0.2778700031
0.2778481331
0.277829517
0.2778143327
0.2778020993
0.2777921789
0.2777841807
0.2777776099
0.2777721611
0.2777676556
0.2777639645
0.2777613327
0.2777923163
0.2778041572
0.2778060478
0.2778026303
0.2777967971
0.2777902646
0.2777838726
0.277778017
0.2777728115
0.2777682254
0.2777642695
0.2777608293
0.2777579774
0.2777558832
0.2777343275
0.2777437462
0.277750183
0.2777539646
0.2777557537
0.2777561163
0.2777555905
0.2777545963
0.2777533187
0.2777519415
0.2777506101
0.2777492787
0.2777481162
0.2777472204
0.2777131871
0.2777176298
0.2777218228
0.2777254441
0.2777284382
0.2777308072
0.2777326258
0.2777339939
0.2777350148
0.2777357648
0.2777362743
0.2777365958
0.2777369028
0.2777370628
0.2777082164
0.2777103654
0.2777128296
0.2777154445
0.2777180258
0.2777204909
0.2777227369
0.2777247799
0.2777265723
0.2777281343
0.2777294673
0.277730644
0.27773163
0.2777323298
0.2777071535
0.2777092107
0.2777117733
0.2777145924
0.2777174061
0.2777201347
0.2777226278
0.277724922
0.2777269565
0.2777286935
0.2777302053
0.2777314553
0.2777325079
0.2777333463
0.2777339781
0.2777129071
0.2777185081
0.2777238391
0.2777283192
0.27773188
0.2777346171
0.2777365402
0.2777379616
0.2777389258
0.2777395755
0.277739964
0.2777401593
0.2777402582
0.2777402623
0.2777402436
0.2777389186
0.2777555834
0.2777648873
0.2777688919
0.2777695822
0.2777684371
0.2777663574
0.2777638384
0.2777612058
0.2777586533
0.2777562988
0.2777541271
0.2777522022
0.2777505327
0.2777492755
0.2778882588
0.277908386
0.2778934326
0.2778705602
0.2778486716
0.2778300496
0.2778148625
0.2778026716
0.2777927726
0.2777848007
0.2777782273
0.2777727569
0.2777682279
0.2777644974
0.277761871
0.2804355594
0.2801858815
0.2800487039
0.2799691939
0.2799207097
0.2798896287
0.279868907
0.2798545686
0.2798443136
0.2798368756
0.2798314008
0.2798274378
0.2798246671
0.2798232722
0.2779072429
0.2778923237
0.2778694417
0.2778475921
0.2778289547
0.2778137999
0.2778015668
0.2777916871
0.2777836579
0.2777771123
0.2777716546
0.2777671733
0.2777634754
0.277760842
0.2777562184
0.2777655461
0.277769533
0.2777701802
0.2777689959
0.2777669064
0.2777644048
0.277761839
0.2777592487
0.2777569219
0.2777547335
0.2777528028
0.2777510759
0.2777498431
0.2777185666
0.2777238974
0.2777283803
0.2777319442
0.2777346772
0.2777366227
0.2777380195
0.2777390236
0.2777396778
0.2777400517
0.2777402618
0.2777403153
0.2777403249
0.2777402891
0.2777101391
0.2777127238
0.2777155107
0.2777183075
0.2777210304
0.2777235345
0.2777258114
0.2777277997
0.2777295458
0.2777310308
0.2777322679
0.2777332841
0.2777341454
0.2777347407
0.2777076161
0.2777092536
0.2777113917
0.2777138262
0.2777164137
0.2777190121
0.2777214595
0.2777236701
0.2777257178
0.2777275183
0.277729091
0.2777304471
0.2777316084
0.2777326253
0.2777333585
0.2777101673
0.2777142437
0.2777186725
0.2777228639
0.2777265351
0.2777295461
0.2777319233
0.2777337835
0.277735144
0.2777361551
0.2777369019
0.2777374672
0.2777377745
0.2777379831
0.2777381481
0.2777220111
0.2777335248
0.2777429138
0.2777493738
0.2777531964
0.2777549571
0.2777553442
0.2777548509
0.2777538313
0.2777525546
0.2777511868
0.277749817
0.2777485395
0.2777473175
0.2777463681
0.2777654477
0.2777920755
0.2778038966
0.2778057894
0.2778023123
0.2777965112
0.2777899803
0.2777835963
0.2777777145
0.2777725088
0.2777679735
0.2777640312
0.2777605903
0.2777577571
0.2777556636
0.2778871283
0.277907221
0.277892278
0.2778694061
0.2778474865
0.2778289086
0.277813743
0.2778015095
0.2777916628
0.2777836147
0.2777770226
0.2777715449
0.2777670127
0.2777633607
0.2777607067
0.2777660415
0.2777926213
0.277804452
0.2778063717
0.2778029384
0.2777971121
0.2777905834
0.277784208
0.2777783359
0.2777730911
0.2777685357
0.2777645491
0.2777611332
0.277758285
0.2777561623
0.2777346048
0.2777440109
0.27775048
0.277754276
0.2777560256
0.2777563963
0.2777558691
0.2777548567
0.2777536338
0.2777522287
0.2777508662
0.2777495649
0.2777483957
0.2777475151
0.2777150722
0.2777194738
0.2777236969
0.277727345
0.2777303282
0.2777327094
0.2777345337
0.2777359177
0.2777369122
0.2777376547
0.2777381753
0.2777385756
0.2777388203
0.2777389139
0.2777082061
0.2777103602
0.2777127852
0.2777153637
0.2777179484
0.277720401
0.2777226484
0.2777247046
0.2777265386
0.2777281153
0.2777294901
0.2777306849
0.2777316783
0.2777323892
0.2777053406
0.2777063337
0.2777077098
0.2777093687
0.2777112997
0.2777133574
0.2777154471
0.2777175445
0.2777195106
0.2777213396
0.2777230573
0.2777245902
0.2777259699
0.2777271557
0.2777280425
0.2777059281
0.2777080653
0.2777107354
0.2777136461
0.2777164294
0.2777191172
0.2777215078
0.2777236198
0.2777254442
0.2777269187
0.2777282166
0.2777292891
0.2777302014
0.2777309852
0.2777315873
0.2777107035
0.2777160317
0.277721615
0.2777266936
0.2777308616
0.2777340366
0.2777363165
0.2777377802
0.2777387347
0.2777392301
0.2777394671
0.2777394842
0.2777394381
0.2777392883
0.2777391585
0.2777224686
0.2777340047
0.2777434433
0.2777499576
0.2777538179
0.2777555749
0.2777559612
0.2777554627
0.2777545144
0.2777532412
0.2777518318
0.2777505071
0.2777491948
0.2777479833
0.2777470568
0.2777404235
0.2777570458
0.2777663917
0.2777704126
0.277771074
0.2777698605
0.2777677342
0.2777652393
0.2777626273
0.2777600565
0.2777576987
0.2777555335
0.2777536078
0.2777519119
0.2777506464
0.2777233071
0.2777348611
0.2777442528
0.2777506978
0.2777544876
0.27775629
0.2777566799
0.2777561578
0.2777551266
0.2777538949
0.2777525009
0.2777511117
0.2777497962
0.2777485976
0.2777477073
0.277711359
0.2777167039
0.277722276
0.2777273007
0.277731426
0.2777346148
0.2777368689
0.2777383408
0.2777392804
0.2777398
0.2777400481
0.2777401174
0.2777400722
0.2777399063
0.2777397904
0.277709939
0.2777126089
0.2777154882
0.2777183683
0.277721037
0.2777234886
0.2777255975
0.2777273679
0.2777288634
0.2777301154
0.2777312114
0.2777321093
0.277732871
0.2777334468
0.2777068477
0.2777082287
0.2777099018
0.2777118056
0.2777138621
0.2777159774
0.2777180648
0.2777200379
0.2777218785
0.2777235503
0.277725065
0.2777264582
0.2777276468
0.2777285407
0.2777048671
0.2777054345
0.2777062043
0.2777072436
0.2777085192
0.277709986
0.2777116084
0.2777132721
0.2777150268
0.2777167462
0.2777184122
0.277720027
0.2777214923
0.2777228515
0.2777239259
0.2777062487
0.2777072187
0.2777085744
0.2777102275
0.2777120813
0.2777140347
0.2777160394
0.2777179744
0.2777197469
0.2777215138
0.2777230812
0.2777244753
0.277725826
0.2777270162
0.2777279192
0.2777074465
0.27770965
0.2777122779
0.2777151859
0.2777180697
0.2777207607
0.2777231626
0.2777252441
0.2777271058
0.2777286328
0.2777299136
0.2777310395
0.2777319436
0.2777327075
0.2777332828
0.2777101866
0.277714236
0.2777186473
0.2777228239
0.277726434
0.2777294413
0.2777317927
0.2777335854
0.2777349695
0.2777359719
0.2777367211
0.2777372696
0.27773761
0.2777378388
0.2777379951
0.2777125332
0.2777181445
0.2777235218
0.2777279718
0.2777315053
0.277734209
0.277736171
0.2777375521
0.2777385269
0.2777391548
0.2777395771
0.2777397754
0.2777398739
0.2777398513
0.2777398226
0.2777094494
0.2777135206
0.2777179022
0.2777221445
0.2777258474
0.2777288626
0.2777312099
0.2777330565
0.2777344755
0.2777354638
0.2777362012
0.277736731
0.2777371048
0.2777373474
0.2777374961
0.2777077756
0.2777099145
0.2777126047
0.2777155004
0.2777182968
0.2777209798
0.2777234154
0.2777255222
0.2777273089
0.2777288379
0.2777300964
0.277731179
0.2777320829
0.2777328153
0.2777333549
0.277705574
0.2777065679
0.2777079691
0.2777096271
0.2777115167
0.2777134549
0.2777154907
0.2777173934
0.2777192624
0.2777209886
0.2777225701
0.2777240069
0.2777252928
0.277726459
0.2777273458
0.2777056066
0.2777063615
0.2777074209
0.2777087211
0.2777101626
0.2777117637
0.2777134596
0.2777151791
0.27771687
0.2777185379
0.2777201712
0.2777216774
0.2777230706
0.2777241157
0.2777054437
0.2777057837
0.2777062788
0.277706963
0.2777078518
0.277708934
0.2777102303
0.277711674
0.2777131895
0.277714746
0.2777163287
0.2777179217
0.2777195067
0.2777209543
0.2777220928
0.2777056436
0.277706196
0.2777069958
0.2777080345
0.2777093657
0.2777108369
0.2777124246
0.2777141213
0.2777157874
0.2777175213
0.2777191728
0.2777207938
0.2777222972
0.2777236391
0.2777246892
0.2777054266
0.2777064069
0.2777078267
0.2777095223
0.2777114708
0.2777135294
0.2777156119
0.2777176443
0.2777196153
0.2777214911
0.2777231329
0.277724694
0.277726097
0.2777272503
0.2777281364
0.2777065972
0.2777082697
0.2777104362
0.2777128687
0.2777154826
0.2777180809
0.2777205562
0.2777228041
0.2777248452
0.2777266244
0.277728226
0.2777295823
0.2777307577
0.2777317241
0.2777324751
0.2777073148
0.277709416
0.2777119753
0.2777147976
0.277717615
0.2777203226
0.277722845
0.277725126
0.2777271245
0.2777288372
0.2777303144
0.2777315893
0.2777326529
0.2777335348
0.2777341784
0.2777055714
0.2777071908
0.2777093257
0.2777117651
0.2777143228
0.2777169533
0.2777194123
0.2777216932
0.2777237319
0.2777255495
0.2777271195
0.2777284693
0.2777296475
0.277730616
0.2777313332
0.2777058036
0.2777067921
0.2777081734
0.2777098901
0.2777118359
0.2777139173
0.2777159825
0.2777180658
0.2777200323
0.2777219062
0.277723602
0.2777251045
0.2777264757
0.2777276679
0.2777285635
0.2777059772
0.2777065154
0.2777073132
0.2777083731
0.2777096541
0.2777111093
0.2777126767
0.2777143772
0.2777161152
0.2777178364
0.2777194789
0.2777211023
0.2777226443
0.2777240003
0.2777250826
0.2777051062
0.2777054471
0.2777059141
0.2777066263
0.277707505
0.2777085901
0.277709892
0.2777113045
0.2777127985
0.2777143682
0.2777160016
0.2777175898
0.2777191508
0.2777205621
0.2777216867
)
;

boundaryField
{
    top
    {
        type            calculated;
        value           nonuniform List<scalar> 
127
(
0.2777051062
0.2777053243
0.2777051039
0.2777074459
0.2777082164
0.2777101391
0.2777082061
0.2777068477
0.2777056066
0.2777054471
0.2777057948
0.2777058222
0.2777088484
0.2777103654
0.2777127238
0.2777103602
0.2777082287
0.2777063615
0.2777059141
0.277706505
0.2777068813
0.277710578
0.2777128296
0.2777155107
0.2777127852
0.2777099018
0.2777074209
0.2777066263
0.2777073615
0.2777081724
0.2777124763
0.2777154445
0.2777183075
0.2777153637
0.2777118056
0.2777087211
0.277707505
0.2777084683
0.2777096496
0.2777145392
0.2777180258
0.2777210304
0.2777179484
0.2777138621
0.2777101626
0.2777085901
0.2777097412
0.2777112411
0.2777165946
0.2777204909
0.2777235345
0.277720401
0.2777159774
0.2777117637
0.277709892
0.2777111338
0.2777128962
0.2777186204
0.2777227369
0.2777258114
0.2777226484
0.2777180648
0.2777134596
0.2777113045
0.277712672
0.2777146122
0.277720578
0.2777247799
0.2777277997
0.2777247046
0.2777200379
0.2777151791
0.2777127985
0.2777142726
0.277716354
0.2777224167
0.2777265723
0.2777295458
0.2777265386
0.2777218785
0.27771687
0.2777143682
0.2777158906
0.2777180028
0.2777241232
0.2777281343
0.2777310308
0.2777281153
0.2777235503
0.2777185379
0.2777160016
0.2777174836
0.2777196495
0.2777256136
0.2777294673
0.2777322679
0.2777294901
0.277725065
0.2777201712
0.2777175898
0.2777190422
0.2777211782
0.2777269974
0.277730644
0.2777332841
0.2777306849
0.2777264582
0.2777216774
0.2777191508
0.2777204867
0.2777225653
0.2777282051
0.27773163
0.2777341454
0.2777316783
0.2777276468
0.2777230706
0.2777205621
0.2777216355
0.2777236691
0.2777291187
0.2777323298
0.2777347407
0.2777323892
0.2777285407
0.2777241157
0.2777216867
)
;
    }
    bottom
    {
        type            calculated;
        value           nonuniform List<scalar> 
134
(
0.2777049621
0.2777055661
0.2777070277
0.2777071535
0.2777076161
0.2777053406
0.2777048671
0.2777054437
0.2777052923
0.2777054492
0.2777065483
0.2777086977
0.2777092107
0.2777092536
0.2777063337
0.2777054345
0.2777057837
0.2777057713
0.2777062413
0.2777078834
0.2777108337
0.2777117733
0.2777113917
0.2777077098
0.2777062043
0.2777062788
0.2777064593
0.277707277
0.2777095574
0.2777132715
0.2777145924
0.2777138262
0.2777093687
0.2777072436
0.277706963
0.2777073685
0.2777086025
0.2777114926
0.2777158623
0.2777174061
0.2777164137
0.2777112997
0.2777085192
0.2777078518
0.277708483
0.2777100595
0.2777135516
0.2777184572
0.2777201347
0.2777190121
0.2777133574
0.277709986
0.277708934
0.2777097609
0.2777116394
0.2777156852
0.2777209622
0.2777226278
0.2777214595
0.2777154471
0.2777116084
0.2777102303
0.2777111685
0.2777133779
0.2777177288
0.2777232023
0.277724922
0.2777236701
0.2777175445
0.2777132721
0.277711674
0.2777126376
0.2777150841
0.2777196471
0.2777252296
0.2777269565
0.2777257178
0.2777195106
0.2777150268
0.2777131895
0.2777142125
0.2777167994
0.2777214743
0.2777270221
0.2777286935
0.2777275183
0.2777213396
0.2777167462
0.277714746
0.277715859
0.2777184543
0.2777231466
0.2777285623
0.2777302053
0.277729091
0.2777230573
0.2777184122
0.2777163287
0.2777174856
0.2777200333
0.2777246646
0.2777299435
0.2777314553
0.2777304471
0.2777245902
0.277720027
0.2777179217
0.2777190439
0.2777215107
0.2777260664
0.2777310841
0.2777325079
0.2777316084
0.2777259699
0.2777214923
0.2777195067
0.2777205182
0.2777228883
0.2777272492
0.27773205
0.2777333463
0.2777326253
0.2777271557
0.2777228515
0.2777209543
0.2777216353
0.2777239393
0.277728144
0.2777327419
0.2777339781
0.2777333585
0.2777280425
0.2777239259
0.2777220928
)
;
    }
    side-walls
    {
        type            calculated;
        value           nonuniform List<scalar> 
261
(
0.2777052923
0.2777056638
0.2777074776
0.2777078208
0.2777094055
0.2777091316
0.2777072937
0.277705306
0.2777053243
0.2777057713
0.2777064351
0.2777088606
0.2777099708
0.277711995
0.277711316
0.2777087245
0.2777060578
0.2777057948
0.2777064593
0.2777075302
0.2777105372
0.2777124542
0.2777148159
0.2777137638
0.2777104252
0.2777071407
0.277706505
0.2777073685
0.2777088487
0.2777125093
0.2777150386
0.2777176321
0.2777163556
0.2777123362
0.2777084556
0.2777073615
0.277708483
0.2777102787
0.277714609
0.2777176452
0.2777203152
0.2777189636
0.2777143875
0.2777099212
0.2777084683
0.2777097609
0.2777118475
0.2777167032
0.2777200892
0.2777228538
0.2777214091
0.2777164634
0.2777115049
0.2777097412
0.2777111685
0.2777135221
0.2777187536
0.2777223581
0.2777251277
0.2777237071
0.277718527
0.2777131869
0.2777111338
0.2777126376
0.2777152331
0.2777206781
0.2777243538
0.2777271324
0.2777257491
0.2777204855
0.2777149047
0.277712672
0.2777142125
0.2777169478
0.2777225182
0.2777261657
0.277728886
0.2777275504
0.2777222872
0.2777166283
0.2777142726
0.277715859
0.2777186408
0.2777241854
0.2777277421
0.2777303762
0.2777290993
0.2777239722
0.2777183431
0.2777158906
0.2777174856
0.277720248
0.2777257425
0.2777290924
0.2777316451
0.2777304861
0.277725518
0.2777199488
0.2777174836
0.2777190439
0.2777216865
0.2777271237
0.2777302563
0.2777327068
0.2777316463
0.2777269163
0.2777214457
0.2777190422
0.2777205182
0.2777230718
0.2777283105
0.2777312102
0.2777335776
0.2777326046
0.2777281166
0.277722822
0.2777204867
0.2777216353
0.2777241283
0.2777292142
0.2777319162
0.2777341911
0.2777333168
0.2777289831
0.2777239098
0.2777216355
0.2777054437
0.2777056436
0.2777054266
0.2777065972
0.2777073148
0.2777055714
0.2777058036
0.2777059772
0.2777051062
0.2777057837
0.277706196
0.2777064069
0.2777082697
0.277709416
0.2777071908
0.2777067921
0.2777065154
0.2777054471
0.2777062788
0.2777069958
0.2777078267
0.2777104362
0.2777119753
0.2777093257
0.2777081734
0.2777073132
0.2777059141
0.277706963
0.2777080345
0.2777095223
0.2777128687
0.2777147976
0.2777117651
0.2777098901
0.2777083731
0.2777066263
0.2777078518
0.2777093657
0.2777114708
0.2777154826
0.277717615
0.2777143228
0.2777118359
0.2777096541
0.277707505
0.277708934
0.2777108369
0.2777135294
0.2777180809
0.2777203226
0.2777169533
0.2777139173
0.2777111093
0.2777085901
0.2777102303
0.2777124246
0.2777156119
0.2777205562
0.277722845
0.2777194123
0.2777159825
0.2777126767
0.277709892
0.277711674
0.2777141213
0.2777176443
0.2777228041
0.277725126
0.2777216932
0.2777180658
0.2777143772
0.2777113045
0.2777131895
0.2777157874
0.2777196153
0.2777248452
0.2777271245
0.2777237319
0.2777200323
0.2777161152
0.2777127985
0.277714746
0.2777175213
0.2777214911
0.2777266244
0.2777288372
0.2777255495
0.2777219062
0.2777178364
0.2777143682
0.2777163287
0.2777191728
0.2777231329
0.277728226
0.2777303144
0.2777271195
0.277723602
0.2777194789
0.2777160016
0.2777179217
0.2777207938
0.277724694
0.2777295823
0.2777315893
0.2777284693
0.2777251045
0.2777211023
0.2777175898
0.2777195067
0.2777222972
0.277726097
0.2777307577
0.2777326529
0.2777296475
0.2777264757
0.2777226443
0.2777191508
0.2777209543
0.2777236391
0.2777272503
0.2777317241
0.2777335348
0.277730616
0.2777276679
0.2777240003
0.2777205621
0.2777220928
0.2777246892
0.2777281364
0.2777324751
0.2777341784
0.2777313332
0.2777285635
0.2777250826
0.2777216867
)
;
    }
    inlet
    {
        type            calculated;
        value           nonuniform 0();
    }
    outlet
    {
        type            calculated;
        value           nonuniform List<scalar> 
81
(
0.2777216353
0.2777241283
0.2777292142
0.2777319162
0.2777341911
0.2777333168
0.2777289831
0.2777239098
0.2777216355
0.2777239393
0.2777276348
0.2777328227
0.2777376612
0.2777396402
0.2777381553
0.2777321752
0.2777284212
0.2777236691
0.277728144
0.2777334405
0.2777404036
0.2777469202
0.2777492413
0.2777474906
0.2777397274
0.2777326767
0.2777291187
0.2777327419
0.2777382771
0.2777474445
0.2777556518
0.2777613327
0.2777558832
0.2777472204
0.2777370628
0.2777323298
0.2777339781
0.2777402436
0.2777492755
0.277761871
0.2798232722
0.277760842
0.2777498431
0.2777402891
0.2777347407
0.2777333585
0.2777381481
0.2777463681
0.2777556636
0.2777607067
0.2777561623
0.2777475151
0.2777389139
0.2777323892
0.2777280425
0.2777315873
0.2777391585
0.2777470568
0.2777506464
0.2777477073
0.2777397904
0.2777334468
0.2777285407
0.2777239259
0.2777279192
0.2777332828
0.2777379951
0.2777398226
0.2777374961
0.2777333549
0.2777273458
0.2777241157
0.2777220928
0.2777246892
0.2777281364
0.2777324751
0.2777341784
0.2777313332
0.2777285635
0.2777250826
0.2777216867
)
;
    }
    procBoundary1to0
    {
        type            processor;
        value           nonuniform List<scalar> 
97
(
0.2777049592
0.2777049592
0.2777051565
0.2777064626
0.277706177
0.2777073268
0.2777074389
0.2777063045
0.277704758
0.2777050079
0.2777046299
0.2777058395
0.2777058395
0.2777058395
0.2777071361
0.2777097449
0.2777123974
0.2777100481
0.2777064461
0.2777066122
0.277704609
0.2777049394
0.2777063739
0.2777119846
0.2777119846
0.2777119846
0.2777224401
0.2777388664
0.2777230087
0.2777113145
0.2777071195
0.2777064373
0.2777059398
0.277707405
0.2777123451
0.2777655507
0.2777655507
0.2777655507
0.2778876788
0.2777657285
0.2777227883
0.2777090996
0.2777065527
0.277705752
0.2777082235
0.2777166696
0.2777540919
0.279611593
0.279611593
0.279611593
0.2778871621
0.2778871621
0.2777396307
0.2777129771
0.277708035
0.2777065306
0.2777071982
0.2777114024
0.2777260995
0.2777529298
0.2777266243
0.2777230784
0.2777230784
0.2777230784
0.2777110107
0.2777065465
0.2777047642
0.277704487
0.2777066802
0.2777118463
0.277718171
0.277712639
0.2777073515
0.2777077479
0.2777077479
0.2777077479
0.2777058324
0.277704547
0.2777056382
0.2777060391
0.2777071984
0.2777078611
0.2777064723
0.2777063299
0.2777050061
0.277705095
0.277705095
0.277705095
0.2777052658
0.2777053359
0.2777047829
0.2777055322
0.2777058864
0.2777044847
0.2777051935
0.2777056538
0.2777049335
)
;
    }
}


// ************************************************************************* //
