/*--------------------------------*- C++ -*----------------------------------*\
| =========                 |                                                 |
| \\      /  F ield         | OpenFOAM: The Open Source CFD Toolbox           |
|  \\    /   O peration     | Version:  4.x                                   |
|   \\  /    A nd           | Web:      www.OpenFOAM.org                      |
|    \\/     M anipulation  |                                                 |
\*---------------------------------------------------------------------------*/
FoamFile
{
    version     2.0;
    format      ascii;
    class       volScalarField;
    location    "3000";
    object      T;
}
// * * * * * * * * * * * * * * * * * * * * * * * * * * * * * * * * * * * * * //

dimensions      [0 0 0 1 0 0 0];

internalField   nonuniform List<scalar> 
1174
(
1223.151109
1223.15144
1223.151853
1223.152333
1223.152902
1223.15362
1223.154467
1223.15555
1223.156478
1223.157221
1223.158011
1223.158884
1223.159591
1223.160323
1223.151759
1223.152265
1223.152634
1223.153183
1223.154187
1223.155256
1223.156269
1223.157285
1223.158244
1223.159095
1223.15999
1223.161171
1223.16189
1223.162497
1223.148812
1223.149605
1223.150727
1223.151688
1223.152708
1223.153908
1223.15509
1223.156358
1223.157362
1223.158406
1223.159175
1223.159938
1223.160668
1223.161145
1223.154674
1223.155881
1223.157184
1223.158708
1223.160057
1223.161513
1223.1628
1223.164179
1223.165208
1223.166138
1223.167001
1223.167697
1223.168342
1223.16874
1223.15295
1223.154298
1223.155768
1223.157422
1223.15912
1223.160462
1223.161737
1223.162871
1223.163798
1223.164644
1223.165333
1223.165913
1223.166364
1223.166711
1223.148901
1223.149957
1223.151415
1223.152907
1223.15425
1223.1557
1223.156858
1223.158034
1223.159109
1223.160161
1223.160863
1223.161575
1223.162201
1223.162571
1223.149621
1223.150204
1223.15122
1223.15245
1223.153683
1223.154963
1223.156088
1223.157205
1223.158379
1223.159345
1223.160164
1223.160852
1223.161521
1223.162163
1223.153334
1223.153927
1223.154349
1223.154915
1223.155761
1223.156765
1223.157744
1223.158731
1223.159651
1223.160406
1223.161308
1223.162232
1223.162991
1223.16346
1223.150968
1223.151337
1223.151652
1223.152364
1223.152966
1223.153707
1223.15462
1223.155398
1223.156214
1223.157082
1223.15802
1223.158892
1223.15973
1223.160322
1223.152209
1223.152703
1223.153119
1223.153749
1223.154268
1223.155152
1223.156173
1223.156904
1223.157941
1223.158898
1223.159916
1223.160936
1223.161946
1223.162699
1223.16333
1223.151489
1223.152441
1223.153635
1223.154607
1223.155689
1223.156877
1223.157989
1223.158875
1223.159792
1223.160782
1223.161563
1223.162311
1223.162991
1223.163582
1223.153943
1223.155393
1223.157061
1223.158785
1223.160302
1223.161627
1223.162729
1223.163717
1223.164683
1223.165277
1223.165874
1223.166527
1223.167019
1223.167373
1223.156612
1223.159415
1223.161762
1223.164014
1223.16571
1223.167136
1223.168219
1223.169148
1223.169854
1223.170304
1223.170538
1223.170821
1223.170998
1223.170973
1223.16004
1223.163233
1223.165746
1223.167935
1223.169593
1223.170709
1223.171609
1223.172035
1223.172427
1223.172456
1223.172543
1223.172478
1223.172493
1223.172544
1223.155553
1223.157966
1223.16033
1223.162282
1223.164013
1223.16549
1223.166514
1223.167162
1223.167781
1223.168095
1223.168364
1223.168603
1223.168778
1223.168797
1223.157061
1223.15849
1223.160113
1223.1618
1223.163318
1223.164753
1223.165907
1223.167063
1223.167945
1223.168673
1223.169343
1223.169837
1223.170238
1223.170225
1223.148213
1223.148861
1223.149913
1223.15107
1223.152191
1223.153333
1223.154489
1223.155654
1223.156517
1223.157466
1223.158155
1223.159015
1223.159645
1223.160118
1223.154224
1223.154965
1223.155492
1223.156162
1223.156957
1223.157927
1223.159025
1223.160019
1223.160859
1223.161904
1223.162626
1223.16341
1223.164121
1223.16452
1223.152273
1223.152905
1223.153909
1223.155042
1223.156166
1223.157364
1223.158391
1223.159604
1223.160898
1223.16196
1223.162981
1223.163923
1223.164595
1223.165342
1223.165858
1223.149633
1223.150836
1223.1524
1223.154081
1223.155829
1223.157451
1223.159001
1223.160128
1223.161105
1223.161882
1223.162604
1223.163301
1223.163939
1223.16448
1223.164652
1223.156273
1223.15962
1223.162518
1223.164992
1223.166789
1223.167967
1223.168798
1223.169487
1223.16973
1223.170067
1223.170203
1223.170055
1223.169987
1223.16996
1223.167614
1223.173116
1223.176924
1223.179073
1223.180079
1223.180428
1223.179953
1223.179229
1223.178313
1223.177622
1223.176822
1223.176307
1223.175676
1223.17528
1223.183348
1223.188607
1223.190837
1223.19133
1223.190786
1223.189421
1223.187968
1223.186525
1223.18512
1223.183866
1223.18239
1223.181128
1223.180133
1223.179241
1223.16535
1223.170639
1223.174302
1223.176539
1223.177468
1223.177842
1223.17747
1223.176884
1223.176133
1223.17526
1223.17455
1223.173915
1223.173241
1223.172768
1223.159706
1223.163022
1223.165999
1223.168508
1223.170148
1223.171389
1223.172149
1223.17274
1223.173031
1223.173274
1223.173203
1223.173094
1223.172898
1223.172938
1223.154023
1223.155576
1223.157392
1223.159089
1223.16081
1223.16221
1223.163325
1223.164367
1223.165198
1223.165995
1223.166353
1223.166977
1223.167596
1223.168016
1223.148951
1223.149658
1223.150547
1223.151833
1223.153015
1223.154385
1223.155677
1223.156798
1223.157809
1223.15868
1223.159743
1223.160494
1223.161132
1223.161565
1223.14992
1223.150812
1223.152081
1223.153583
1223.15508
1223.156481
1223.157668
1223.159081
1223.160322
1223.161436
1223.162526
1223.163252
1223.164051
1223.164644
1223.165103
1223.151807
1223.154129
1223.156624
1223.158924
1223.161037
1223.16264
1223.164066
1223.16516
1223.166167
1223.167078
1223.167552
1223.167911
1223.168214
1223.168269
1223.16826
1223.158739
1223.165498
1223.170964
1223.174498
1223.176752
1223.177801
1223.177923
1223.177812
1223.17716
1223.176547
1223.175916
1223.174909
1223.174107
1223.173492
1223.172971
1223.200766
1223.207591
1223.2087
1223.206534
1223.203023
1223.199369
1223.195858
1223.192655
1223.189599
1223.187018
1223.184863
1223.18278
1223.181151
1223.179844
1223.258078
1223.249429
1223.236057
1223.223211
1223.212499
1223.203786
1223.196716
1223.191194
1223.186411
1223.182546
1223.179424
1223.176746
1223.174565
1223.172916
1223.200003
1223.206666
1223.207848
1223.205756
1223.202452
1223.19871
1223.195048
1223.191595
1223.188489
1223.185902
1223.183567
1223.181723
1223.180015
1223.178826
1223.166163
1223.171608
1223.175545
1223.177888
1223.178882
1223.179206
1223.179044
1223.17839
1223.177679
1223.176905
1223.175932
1223.175282
1223.174515
1223.173958
1223.159592
1223.162004
1223.164404
1223.166657
1223.168475
1223.169928
1223.171067
1223.171925
1223.172511
1223.172895
1223.173276
1223.17369
1223.173571
1223.173608
1223.152932
1223.154143
1223.15553
1223.15692
1223.158381
1223.159744
1223.161131
1223.162302
1223.163417
1223.164411
1223.165349
1223.16599
1223.166493
1223.166918
1223.152424
1223.153808
1223.155274
1223.156752
1223.158417
1223.159914
1223.161457
1223.162642
1223.163646
1223.164645
1223.165397
1223.166168
1223.166789
1223.167382
1223.167649
1223.154505
1223.157727
1223.160657
1223.163268
1223.16529
1223.166663
1223.168038
1223.168771
1223.169323
1223.169608
1223.169824
1223.170006
1223.169989
1223.16998
1223.169887
1223.173533
1223.183016
1223.1886
1223.190855
1223.191211
1223.190405
1223.189028
1223.187598
1223.18621
1223.184847
1223.183414
1223.182175
1223.180942
1223.179857
1223.179091
1223.244036
1223.255458
1223.246851
1223.233604
1223.22084
1223.210153
1223.201453
1223.194196
1223.188579
1223.183681
1223.179828
1223.176801
1223.174225
1223.172218
1223.170546
1214.652235
1214.501233
1214.413432
1214.35867
1214.321459
1214.294368
1214.27287
1214.254966
1214.239634
1214.225827
1214.213207
1214.20121
1214.189917
1214.179478
1223.260491
1223.251729
1223.238526
1223.225592
1223.214974
1223.206132
1223.199061
1223.193359
1223.188713
1223.184738
1223.181655
1223.178869
1223.176719
1223.175077
1223.180219
1223.185698
1223.188032
1223.188578
1223.187944
1223.186611
1223.185103
1223.183422
1223.182226
1223.180671
1223.179505
1223.178297
1223.177465
1223.176591
1223.157469
1223.1604
1223.162999
1223.165007
1223.166399
1223.167674
1223.168516
1223.168892
1223.169157
1223.169438
1223.169555
1223.169738
1223.169704
1223.169686
1223.149719
1223.151088
1223.152708
1223.154447
1223.155969
1223.157464
1223.158725
1223.159932
1223.160892
1223.161761
1223.16259
1223.163371
1223.163863
1223.164291
1223.147328
1223.148363
1223.149623
1223.15114
1223.152651
1223.154037
1223.155478
1223.157021
1223.158172
1223.15925
1223.160198
1223.161034
1223.161742
1223.16211
1223.162388
1223.15264
1223.154938
1223.157411
1223.159819
1223.161852
1223.163595
1223.165013
1223.165968
1223.16686
1223.167489
1223.167887
1223.168022
1223.168498
1223.168813
1223.168828
1223.163019
1223.169698
1223.175274
1223.179108
1223.181271
1223.18239
1223.182606
1223.1823
1223.181758
1223.181043
1223.180229
1223.179425
1223.178537
1223.178032
1223.177711
1223.185837
1223.201063
1223.207812
1223.208984
1223.207156
1223.20371
1223.199961
1223.196265
1223.192927
1223.189822
1223.187011
1223.184616
1223.182775
1223.180985
1223.179792
1223.249013
1223.260586
1223.251929
1223.238682
1223.226056
1223.215176
1223.206382
1223.199313
1223.193466
1223.188903
1223.185133
1223.182138
1223.179576
1223.177224
1223.175673
1223.183222
1223.198659
1223.205366
1223.20642
1223.204398
1223.201064
1223.197306
1223.193571
1223.190191
1223.187258
1223.184536
1223.182336
1223.180385
1223.17866
1223.177597
1223.164943
1223.170443
1223.174237
1223.176516
1223.177684
1223.177973
1223.177817
1223.177243
1223.176291
1223.175641
1223.174804
1223.174021
1223.173284
1223.17266
1223.151289
1223.153882
1223.156149
1223.158285
1223.16015
1223.161551
1223.162665
1223.163453
1223.164155
1223.164571
1223.164904
1223.16497
1223.165126
1223.165456
1223.152977
1223.154166
1223.155725
1223.157276
1223.158721
1223.16014
1223.161521
1223.162634
1223.163565
1223.164495
1223.165249
1223.16581
1223.166281
1223.166657
1223.153266
1223.15385
1223.154673
1223.155874
1223.157015
1223.15822
1223.15944
1223.160415
1223.161499
1223.162553
1223.163374
1223.16425
1223.16502
1223.165753
1223.166305
1223.157939
1223.15924
1223.160727
1223.162285
1223.164319
1223.165858
1223.167343
1223.168533
1223.169492
1223.170623
1223.171333
1223.172009
1223.172518
1223.172788
1223.172814
1223.159083
1223.162228
1223.165501
1223.168318
1223.170574
1223.172257
1223.173404
1223.174476
1223.174977
1223.175444
1223.17561
1223.175778
1223.175612
1223.175574
1223.175443
1223.161004
1223.167584
1223.172942
1223.176536
1223.178533
1223.179668
1223.179889
1223.179606
1223.17875
1223.17802
1223.177388
1223.176385
1223.175651
1223.1751
1223.174678
1223.166905
1223.176574
1223.181973
1223.184158
1223.184641
1223.184136
1223.182965
1223.181428
1223.17995
1223.178668
1223.17725
1223.175981
1223.174752
1223.173783
1223.173054
1223.157311
1223.163812
1223.169376
1223.173276
1223.175584
1223.17652
1223.176724
1223.176545
1223.176055
1223.175141
1223.174442
1223.173723
1223.173003
1223.172395
1223.171814
1223.156196
1223.159268
1223.16259
1223.165644
1223.168088
1223.169711
1223.170971
1223.172008
1223.172574
1223.172934
1223.173051
1223.172989
1223.17282
1223.172853
1223.17266
1223.150987
1223.152475
1223.154172
1223.155779
1223.157402
1223.158619
1223.159823
1223.16102
1223.162058
1223.16297
1223.163543
1223.164115
1223.164483
1223.164625
1223.151586
1223.152388
1223.153526
1223.154787
1223.155997
1223.157104
1223.158124
1223.159177
1223.16018
1223.161203
1223.162159
1223.162869
1223.163591
1223.164111
1223.152628
1223.152768
1223.153282
1223.153896
1223.154635
1223.155475
1223.156309
1223.157369
1223.158193
1223.159132
1223.160101
1223.160963
1223.162026
1223.16286
1223.163389
1223.149336
1223.150052
1223.150917
1223.151961
1223.153108
1223.1543
1223.15533
1223.156417
1223.157762
1223.158553
1223.159584
1223.160718
1223.161366
1223.161925
1223.162329
1223.151251
1223.15226
1223.153933
1223.155503
1223.157094
1223.158619
1223.160055
1223.161379
1223.162174
1223.163074
1223.163858
1223.164301
1223.164845
1223.165203
1223.165347
1223.152555
1223.154972
1223.157522
1223.159994
1223.162297
1223.164056
1223.165588
1223.16684
1223.167628
1223.168296
1223.168683
1223.168892
1223.169223
1223.169449
1223.169502
1223.156152
1223.159328
1223.162053
1223.164798
1223.166939
1223.16846
1223.169663
1223.170574
1223.171079
1223.17146
1223.171528
1223.171697
1223.171682
1223.17179
1223.171741
1223.155802
1223.158122
1223.160804
1223.162986
1223.16488
1223.166605
1223.168154
1223.16917
1223.169804
1223.170534
1223.170973
1223.171265
1223.171448
1223.171613
1223.1717
1223.149801
1223.151095
1223.152494
1223.154118
1223.156094
1223.157654
1223.158941
1223.160154
1223.161279
1223.162171
1223.163053
1223.163686
1223.164232
1223.164728
1223.165029
1223.152308
1223.152918
1223.153583
1223.154606
1223.155594
1223.156854
1223.157747
1223.158976
1223.159896
1223.160867
1223.161835
1223.162781
1223.163714
1223.164379
1223.164854
1223.15201
1223.152589
1223.153115
1223.153745
1223.154698
1223.155625
1223.156543
1223.157523
1223.158587
1223.159548
1223.160328
1223.161211
1223.161896
1223.162553
1223.14887
1223.148945
1223.149205
1223.149634
1223.150205
1223.150915
1223.151553
1223.15224
1223.153119
1223.154129
1223.155152
1223.15609
1223.156845
1223.15767
1223.158308
1223.149208
1223.149414
1223.149796
1223.150413
1223.150906
1223.151728
1223.152714
1223.153629
1223.154843
1223.155718
1223.156751
1223.157586
1223.158482
1223.159392
1223.160027
1223.152887
1223.153527
1223.154158
1223.155197
1223.156262
1223.157462
1223.158713
1223.159976
1223.161038
1223.161886
1223.163041
1223.163793
1223.16446
1223.165337
1223.165891
1223.151816
1223.152697
1223.153831
1223.155357
1223.156752
1223.158138
1223.159456
1223.160835
1223.162015
1223.163187
1223.164007
1223.164843
1223.165488
1223.166079
1223.166278
1223.151714
1223.152904
1223.154384
1223.155848
1223.157497
1223.159087
1223.1605
1223.161743
1223.162906
1223.164012
1223.164916
1223.165579
1223.16615
1223.166552
1223.166767
1223.156334
1223.157449
1223.158722
1223.160218
1223.16186
1223.163105
1223.164494
1223.165728
1223.166918
1223.167921
1223.168881
1223.169745
1223.170378
1223.170959
1223.171308
1223.151227
1223.151831
1223.152631
1223.153577
1223.154654
1223.155754
1223.157081
1223.158119
1223.159201
1223.160058
1223.160975
1223.161985
1223.162792
1223.163498
1223.164011
1223.147739
1223.148007
1223.148398
1223.148921
1223.149636
1223.150528
1223.151604
1223.152502
1223.1534
1223.15433
1223.155403
1223.156227
1223.156953
1223.157801
1223.158294
1223.150356
1223.150427
1223.150812
1223.151117
1223.151732
1223.15243
1223.153043
1223.153868
1223.154841
1223.155793
1223.156593
1223.157553
1223.158413
1223.159398
1223.160097
)
;

boundaryField
{
    top
    {
        type            zeroGradient;
    }
    bottom
    {
        type            zeroGradient;
    }
    side-walls
    {
        type            zeroGradient;
    }
    inlet
    {
        type            zeroGradient;
    }
    outlet
    {
        type            zeroGradient;
    }
    procBoundary1to0
    {
        type            processor;
        value           nonuniform List<scalar> 
97
(
1223.151004
1223.151004
1223.151353
1223.148325
1223.153667
1223.151661
1223.148108
1223.149021
1223.153108
1223.150789
1223.15211
1223.151138
1223.151138
1223.151138
1223.152618
1223.154501
1223.15675
1223.153165
1223.155657
1223.147735
1223.153765
1223.151982
1223.148854
1223.153441
1223.153441
1223.153441
1223.161131
1223.173763
1223.158626
1223.156392
1223.152691
1223.148436
1223.149383
1223.149926
1223.152586
1223.185388
1223.185388
1223.185388
1223.246601
1223.184601
1223.159596
1223.157343
1223.152012
1223.151498
1223.151605
1223.160586
1223.178077
1214.925266
1214.925266
1214.925266
1223.248876
1223.248876
1223.170397
1223.154197
1223.148542
1223.146781
1223.150836
1223.156737
1223.162817
1223.183196
1223.160506
1223.15832
1223.15832
1223.15832
1223.148925
1223.152039
1223.152754
1223.157164
1223.156833
1223.154782
1223.153973
1223.151291
1223.153877
1223.149923
1223.149923
1223.149923
1223.1511
1223.152475
1223.148929
1223.150328
1223.150835
1223.153201
1223.154033
1223.149047
1223.151713
1223.151624
1223.151624
1223.151624
1223.148749
1223.149
1223.152671
1223.151178
1223.150906
1223.155792
1223.150863
1223.1476
1223.150212
)
;
    }
}


// ************************************************************************* //
