/*--------------------------------*- C++ -*----------------------------------*\
| =========                 |                                                 |
| \\      /  F ield         | OpenFOAM: The Open Source CFD Toolbox           |
|  \\    /   O peration     | Version:  4.x                                   |
|   \\  /    A nd           | Web:      www.OpenFOAM.org                      |
|    \\/     M anipulation  |                                                 |
\*---------------------------------------------------------------------------*/
FoamFile
{
    version     2.0;
    format      ascii;
    class       volVectorField;
    location    "3000";
    object      U;
}
// * * * * * * * * * * * * * * * * * * * * * * * * * * * * * * * * * * * * * //

dimensions      [0 1 -1 0 0 0 0];

internalField   nonuniform List<vector> 
1174
(
(0.01100035415 -2.141262134e-08 -2.07768883e-08)
(0.01100041049 -1.948912972e-08 -1.906325037e-08)
(0.01100046622 -1.398862303e-08 -1.344144184e-08)
(0.0110004778 -1.036260987e-08 -9.463788906e-09)
(0.01100047086 -6.767339507e-09 -6.606386437e-09)
(0.01100043783 -3.825281612e-09 -4.040281959e-09)
(0.01100038549 -2.947719412e-09 -1.703446971e-09)
(0.0110003264 1.891161178e-09 1.473308058e-09)
(0.01100025364 3.251416203e-09 3.665237084e-09)
(0.01100017822 -1.881255879e-10 6.82950207e-09)
(0.01100009964 3.025531257e-09 5.312764246e-09)
(0.01100002135 3.780371315e-09 6.356107015e-09)
(0.01099995161 4.502679468e-09 5.67796332e-09)
(0.01099987192 5.145851841e-09 5.156688281e-09)
(0.01100037141 -8.723965072e-08 -2.312430998e-08)
(0.01100040614 -7.638332467e-08 -2.250114026e-08)
(0.01100044249 -5.67587787e-08 -1.684326477e-08)
(0.01100043205 -3.877717285e-08 -1.092015961e-08)
(0.01100039946 -2.315991609e-08 -3.87226944e-09)
(0.01100034629 -1.400770563e-08 9.685234023e-10)
(0.01100027612 -3.606100293e-09 3.200119596e-09)
(0.01100019833 2.769902421e-09 3.626375794e-09)
(0.01100011513 5.260615511e-09 5.770098518e-09)
(0.01100003426 9.402224235e-09 7.61548721e-09)
(0.01099995659 1.091674978e-08 5.428810021e-09)
(0.01099988024 1.308057801e-08 6.764013481e-09)
(0.01099981308 1.438844557e-08 8.131948692e-09)
(0.0109997431 1.419384095e-08 7.337948271e-09)
(0.0110003994 -8.284258018e-08 -4.717110102e-08)
(0.01100039513 -7.490364006e-08 -4.079536214e-08)
(0.01100040308 -5.172191323e-08 -2.551601413e-08)
(0.01100034241 -2.988508454e-08 -1.227471269e-08)
(0.01100026458 -1.527619932e-08 8.225928769e-10)
(0.01100017159 -4.04480867e-09 3.339839316e-09)
(0.01100007053 3.199472362e-09 5.05642319e-09)
(0.01099997403 7.335678598e-09 6.920156295e-09)
(0.0109998828 1.306391524e-08 8.108546765e-09)
(0.01099980016 1.421334628e-08 8.456587976e-09)
(0.0109997238 1.457654964e-08 6.321339994e-09)
(0.01099965471 1.653819234e-08 6.489872702e-09)
(0.01099959664 1.771510257e-08 7.81528223e-09)
(0.01099954132 1.716038339e-08 5.86477082e-09)
(0.01100042297 -1.176831364e-07 -3.175847434e-08)
(0.01100032821 -7.907638907e-08 -4.073195467e-08)
(0.01100029648 -4.410009371e-08 -1.882797229e-08)
(0.01100019396 -1.846839228e-08 -3.877285471e-09)
(0.011000076 -6.600494102e-09 3.686099402e-09)
(0.01099995685 1.30671645e-09 1.182121203e-08)
(0.01099984124 3.394218132e-09 1.267552333e-08)
(0.0109997411 7.471433201e-09 1.217010409e-08)
(0.01099964761 1.047515488e-08 1.267514942e-08)
(0.01099957047 1.085455913e-08 1.271968005e-08)
(0.01099950402 1.083327116e-08 1.031774036e-08)
(0.01099944532 1.05122417e-08 9.509241692e-09)
(0.01099940124 1.320102549e-08 9.935606519e-09)
(0.01099935826 1.119035562e-08 7.607906683e-09)
(0.01100052599 -2.054756473e-09 -7.064585587e-08)
(0.01100034083 -3.167553725e-09 -4.916385623e-08)
(0.01100026342 -3.036184033e-09 -1.66578188e-08)
(0.01100012562 -3.87023367e-09 2.924687879e-09)
(0.01099998855 -4.903462974e-10 1.071004536e-08)
(0.01099985453 -1.728240131e-09 1.517062458e-08)
(0.01099973453 2.091897277e-09 1.368195863e-08)
(0.01099963554 -6.13254167e-10 1.323060556e-08)
(0.01099954367 -3.834174315e-10 1.084465251e-08)
(0.01099947199 -1.797801121e-10 1.173146278e-08)
(0.01099941114 1.497651071e-10 9.870245189e-09)
(0.01099935915 -6.017831774e-10 8.623703853e-09)
(0.01099932044 -1.371419952e-09 9.894572194e-09)
(0.0109992871 -7.541293696e-10 7.562538445e-09)
(0.01100042236 1.147017775e-07 -3.272055271e-08)
(0.01100032614 7.65168142e-08 -3.996974491e-08)
(0.01100029676 4.092657463e-08 -1.875670061e-08)
(0.01100019505 1.766991958e-08 -1.782989162e-09)
(0.01100007819 5.147471631e-09 5.979560125e-09)
(0.0109999588 -1.592985514e-09 1.159138206e-08)
(0.01099984144 -6.645903553e-09 1.390870972e-08)
(0.01099973902 -7.517660778e-09 1.379964059e-08)
(0.01099964743 -1.004987847e-08 1.263625803e-08)
(0.0109995698 -9.766693556e-09 1.140321366e-08)
(0.01099950333 -1.115862366e-08 1.195273139e-08)
(0.01099944631 -1.122187726e-08 1.043489859e-08)
(0.01099940204 -1.241598706e-08 1.234580704e-08)
(0.01099936095 -9.914063533e-09 9.787646946e-09)
(0.01100039951 8.088299321e-08 -4.44628021e-08)
(0.01100039237 7.46135677e-08 -3.941821179e-08)
(0.01100040081 5.120039211e-08 -2.333624744e-08)
(0.01100034581 2.972551606e-08 -9.003184444e-09)
(0.01100026673 1.149898957e-08 -1.196745258e-09)
(0.01100017237 2.778588688e-09 5.637454138e-09)
(0.01100007499 -5.346886567e-09 7.627661884e-09)
(0.01099997494 -1.120353044e-08 9.445158582e-09)
(0.01099988376 -1.360258469e-08 9.496585061e-09)
(0.0109998017 -1.537173853e-08 1.097602308e-08)
(0.01099972481 -1.477016517e-08 9.009641635e-09)
(0.01099965417 -1.723968105e-08 9.3131272e-09)
(0.01099959785 -1.727233395e-08 9.166242685e-09)
(0.01099954297 -1.635461857e-08 6.439120948e-09)
(0.01100037102 8.580737426e-08 -2.568141272e-08)
(0.01100040425 7.511025257e-08 -2.365183751e-08)
(0.01100044413 5.63071205e-08 -1.669481347e-08)
(0.01100043244 3.687073339e-08 -8.794138499e-09)
(0.01100040009 2.366263938e-08 -5.701640494e-09)
(0.01100034589 1.07809875e-08 4.820799167e-10)
(0.01100027646 1.538969728e-09 3.363278976e-09)
(0.01100020017 -4.446265362e-09 6.016048885e-09)
(0.01100011831 -8.518594372e-09 4.928807416e-09)
(0.01100003532 -1.015433914e-08 6.521583e-09)
(0.01099995694 -1.251759781e-08 6.567795792e-09)
(0.01099987799 -1.253239965e-08 7.366512444e-09)
(0.01099981465 -1.578795656e-08 7.399943453e-09)
(0.0109997436 -1.560779104e-08 6.395439237e-09)
(0.01100035463 2.006820167e-08 -2.100287825e-08)
(0.01100041329 1.744595949e-08 -2.022837472e-08)
(0.01100046394 1.296441364e-08 -1.473797504e-08)
(0.01100048079 8.425845703e-09 -7.259178928e-09)
(0.01100047096 5.859332489e-09 -8.227113709e-09)
(0.01100043784 4.436390147e-09 -2.524777042e-09)
(0.01100038678 6.938277752e-10 4.532666223e-11)
(0.01100032734 -1.331708156e-09 1.348398209e-09)
(0.01100025602 -3.802096307e-09 3.9515079e-09)
(0.01100017926 -3.992306121e-09 4.3534334e-09)
(0.01100010308 -4.457381131e-09 4.468963336e-09)
(0.01100002212 -4.962399835e-09 6.142455479e-09)
(0.01099995399 -5.913090462e-09 6.928444803e-09)
(0.01099987818 -6.284578616e-09 6.951004767e-09)
(0.01100020573 -5.34057419e-08 -1.27725769e-07)
(0.01100036947 -2.3089845e-08 -8.443662686e-08)
(0.01100040413 -2.208941267e-08 -7.39867851e-08)
(0.01100044482 -1.701179798e-08 -5.505535432e-08)
(0.01100043311 -9.73162319e-09 -3.700026654e-08)
(0.0110004002 -5.198198823e-09 -2.198002874e-08)
(0.01100034735 9.08601566e-10 -1.077004653e-08)
(0.01100027304 1.867305025e-09 -2.308279557e-09)
(0.01100019769 5.195479462e-09 4.683364893e-09)
(0.01100011615 4.152559827e-09 8.604875312e-09)
(0.01100003515 5.065452897e-09 1.236393322e-08)
(0.01099995659 6.83176167e-09 1.300058168e-08)
(0.01099987875 6.901015167e-09 1.46203286e-08)
(0.01099981335 7.563917238e-09 1.562837388e-08)
(0.0109997414 8.051343114e-09 1.492538903e-08)
(0.01100038844 -1.119092516e-07 -1.123079715e-07)
(0.0110003692 -1.002742865e-07 -9.796965735e-08)
(0.01100037833 -6.687192321e-08 -6.634554366e-08)
(0.01100032604 -3.99110877e-08 -3.828670615e-08)
(0.0110002566 -1.792426396e-08 -1.744933356e-08)
(0.01100017271 -3.846373292e-09 -3.351177929e-09)
(0.01100008248 4.494086755e-09 6.447828525e-09)
(0.01099999583 1.198213151e-08 1.22512544e-08)
(0.01099991111 1.638209874e-08 1.768418531e-08)
(0.01099983172 1.788285497e-08 1.736497007e-08)
(0.01099975985 1.723032298e-08 1.902469164e-08)
(0.01099969565 1.8837222e-08 1.816217264e-08)
(0.01099964055 1.974367638e-08 2.06210965e-08)
(0.0109995826 1.899625641e-08 1.702608852e-08)
(0.01100041862 -9.318875492e-08 -2.050291278e-07)
(0.01100027908 -9.555271568e-08 -1.618613814e-07)
(0.01100021575 -5.645381987e-08 -8.915545214e-08)
(0.01100008404 -2.334152432e-08 -3.954325765e-08)
(0.010999953 -2.511363201e-09 -7.490218001e-09)
(0.01099983073 1.061936359e-08 1.391055705e-08)
(0.01099972337 1.75706746e-08 2.233114162e-08)
(0.01099963177 2.062648432e-08 2.813412857e-08)
(0.0109995571 2.227984903e-08 2.950494459e-08)
(0.010999495 2.080014671e-08 2.791910085e-08)
(0.01099944166 2.117869045e-08 2.684999029e-08)
(0.01099940074 1.965159632e-08 2.401177022e-08)
(0.01099936769 2.27855563e-08 2.632351564e-08)
(0.01099933692 1.930572024e-08 2.221427412e-08)
(0.01100036504 -1.475992191e-07 -2.019295201e-07)
(0.01100000333 -9.06101346e-08 -1.771148221e-07)
(0.01099987026 -3.624638101e-08 -7.506683344e-08)
(0.01099968225 -4.043344884e-09 -1.107547432e-08)
(0.01099952406 9.242029025e-09 2.214752167e-08)
(0.01099940114 1.586768545e-08 3.830655971e-08)
(0.01099930446 1.896106163e-08 4.330642559e-08)
(0.01099923945 1.655314684e-08 4.386296289e-08)
(0.01099919333 1.62489279e-08 4.046518074e-08)
(0.01099915913 1.637126866e-08 3.642493404e-08)
(0.01099913466 1.517770361e-08 3.376442826e-08)
(0.01099912336 1.343779727e-08 2.733691343e-08)
(0.01099911747 1.545074459e-08 3.060609852e-08)
(0.01099911281 1.366473404e-08 2.601575256e-08)
(0.01100052604 -2.036624032e-09 -3.456243843e-07)
(0.01099986314 -1.309386738e-09 -1.99346489e-07)
(0.01099966106 -2.174677204e-09 -5.069464179e-08)
(0.01099944389 -9.936363554e-10 1.919827033e-08)
(0.01099928684 5.057726909e-10 4.454324373e-08)
(0.01099917566 9.091353608e-11 5.441271763e-08)
(0.01099910252 8.076353635e-11 5.674729138e-08)
(0.01099905617 7.117492578e-10 5.014178563e-08)
(0.01099902956 -6.691444699e-10 4.404645655e-08)
(0.01099901479 -1.180618817e-09 3.913149318e-08)
(0.01099900904 -3.366928649e-10 3.271506653e-08)
(0.01099900758 -8.161328555e-10 2.872186417e-08)
(0.01099901197 -6.390681921e-11 3.225894443e-08)
(0.0109990204 7.285572163e-10 2.732187752e-08)
(0.01100036648 1.454582553e-07 -2.011154815e-07)
(0.01099999917 8.734552467e-08 -1.770203008e-07)
(0.01099987371 3.390733705e-08 -7.470121781e-08)
(0.01099968382 3.050773546e-09 -1.058083556e-08)
(0.0109995224 -1.208275865e-08 2.143964396e-08)
(0.0109994022 -1.747827396e-08 3.789726705e-08)
(0.01099930712 -1.765358161e-08 4.366481354e-08)
(0.01099923659 -1.75526912e-08 4.365303003e-08)
(0.01099919199 -1.782243061e-08 4.137566079e-08)
(0.01099915661 -1.733278068e-08 3.644928968e-08)
(0.01099913798 -1.549049763e-08 3.371558563e-08)
(0.01099912329 -1.426113406e-08 3.004204655e-08)
(0.01099911889 -1.687956541e-08 3.239398706e-08)
(0.01099911147 -1.388036581e-08 2.489412613e-08)
(0.01100041492 9.026448939e-08 -2.054126559e-07)
(0.01100028007 9.498825741e-08 -1.614685027e-07)
(0.01100021399 5.49930327e-08 -8.815467708e-08)
(0.01100008391 2.107550381e-08 -3.762219528e-08)
(0.01099995483 1.55589819e-09 -6.648952892e-09)
(0.01099983255 -1.009742854e-08 1.277668674e-08)
(0.01099972168 -1.929831701e-08 2.378199373e-08)
(0.01099963429 -2.252844194e-08 2.761463118e-08)
(0.01099955627 -2.405401505e-08 2.729696734e-08)
(0.01099949572 -2.244372133e-08 2.731383807e-08)
(0.01099944416 -2.202135386e-08 2.697796751e-08)
(0.0109994014 -2.239322116e-08 2.439321597e-08)
(0.01099936975 -2.322151876e-08 2.742202665e-08)
(0.01099933688 -2.139738936e-08 2.127514223e-08)
(0.01100038792 1.112091214e-07 -1.111386026e-07)
(0.01100036847 9.720234061e-08 -9.877604569e-08)
(0.01100037855 6.671980602e-08 -6.655408437e-08)
(0.01100032898 3.857783392e-08 -3.856409095e-08)
(0.01100025843 1.995737723e-08 -1.761904584e-08)
(0.01100017332 2.32913332e-09 -1.698268054e-09)
(0.01100008236 -6.383866772e-09 6.126080437e-09)
(0.01099999445 -1.302417516e-08 1.351596953e-08)
(0.01099991121 -1.526704082e-08 1.663175758e-08)
(0.01099983476 -1.623843431e-08 1.886865282e-08)
(0.01099976041 -1.829793965e-08 1.81318388e-08)
(0.01099969506 -1.666038941e-08 1.860697372e-08)
(0.01099964204 -1.807293595e-08 1.987126462e-08)
(0.01099958664 -1.714851015e-08 1.850989874e-08)
(0.01100037224 2.469752316e-08 -8.512076654e-08)
(0.01100040538 2.381075353e-08 -7.461492602e-08)
(0.01100044537 1.535329866e-08 -5.428202363e-08)
(0.01100043788 1.045130642e-08 -3.640543919e-08)
(0.01100040276 5.596830279e-09 -2.187379632e-08)
(0.01100034396 1.192113967e-10 -1.208877914e-08)
(0.01100027502 -4.996678036e-09 -2.110822318e-09)
(0.01100020142 -6.802093814e-09 5.0191731e-09)
(0.01100011845 -3.802562372e-09 9.127324372e-09)
(0.01100003681 -5.830794405e-09 1.065189326e-08)
(0.01099995825 -6.685315824e-09 1.250330412e-08)
(0.01099987941 -5.600020141e-09 1.428053539e-08)
(0.01099981793 -6.417910856e-09 1.517289483e-08)
(0.01099974569 -6.010661488e-09 1.516744622e-08)
(0.01100017379 -1.063975508e-07 -1.601042887e-07)
(0.011000399 -4.24002681e-08 -8.394020527e-08)
(0.01100039367 -3.916388378e-08 -7.423596965e-08)
(0.01100040245 -2.137052052e-08 -5.196808475e-08)
(0.01100034412 -7.788477731e-09 -2.84616124e-08)
(0.0110002647 -1.911079561e-09 -1.32042909e-08)
(0.01100017017 5.108017786e-09 -2.902295015e-10)
(0.01100007092 1.080043157e-08 6.145126393e-09)
(0.01099997634 1.018399091e-08 1.043836057e-08)
(0.01099988395 1.302744831e-08 1.206568428e-08)
(0.01099979821 1.074379316e-08 1.451969439e-08)
(0.01099972615 1.209358588e-08 1.5803378e-08)
(0.01099965624 1.225436385e-08 1.742800088e-08)
(0.01099959839 1.256610554e-08 2.081060809e-08)
(0.01099953982 1.173147925e-08 1.597120816e-08)
(0.01100013679 -4.278116924e-07 -2.652215846e-07)
(0.01100041457 -2.063237821e-07 -9.342203401e-08)
(0.01100027778 -1.630355538e-07 -9.614087245e-08)
(0.01100021351 -9.002039216e-08 -5.573268631e-08)
(0.01100008056 -3.944219453e-08 -2.302946286e-08)
(0.01099995239 -8.611507658e-09 -2.530474617e-09)
(0.01099983245 1.217901847e-08 8.887810226e-09)
(0.0109997212 2.235508792e-08 1.828866112e-08)
(0.01099963217 2.816753126e-08 2.325604954e-08)
(0.01099955759 2.861126371e-08 2.386807721e-08)
(0.01099949125 2.706713718e-08 2.300420325e-08)
(0.01099944229 2.69572529e-08 2.276834562e-08)
(0.01099940149 2.350363118e-08 2.37926371e-08)
(0.01099937002 2.675723608e-08 2.423041359e-08)
(0.01099933703 2.453699752e-08 1.980015186e-08)
(0.01100038315 -1.775378699e-07 -1.78719081e-07)
(0.01099992452 -1.594603644e-07 -1.592717392e-07)
(0.01099969933 -6.314809114e-08 -6.242181557e-08)
(0.01099944226 -4.046424466e-09 -1.728494915e-09)
(0.01099925787 2.550560543e-08 2.817447121e-08)
(0.01099912925 3.890245194e-08 3.987596925e-08)
(0.01099904678 4.17013379e-08 4.410640461e-08)
(0.01099900276 3.97128028e-08 4.111192627e-08)
(0.01099897736 3.587899289e-08 3.798699485e-08)
(0.01099897469 3.189351639e-08 3.122406992e-08)
(0.01099898118 3.127271742e-08 2.987930669e-08)
(0.01099899304 2.760628973e-08 2.656636703e-08)
(0.01099900626 2.837553259e-08 2.962527311e-08)
(0.01099902076 2.425151362e-08 2.396377864e-08)
(0.01099992204 -2.709602645e-07 8.557503127e-10)
(0.01099889011 -1.238638092e-07 -1.490722011e-07)
(0.01099861021 -9.657031169e-09 -9.219544997e-09)
(0.01099835185 3.697699778e-08 6.126050083e-08)
(0.01099823302 4.62233303e-08 7.736758523e-08)
(0.01099821321 4.500234963e-08 7.851942669e-08)
(0.01099824124 4.00469622e-08 7.250031713e-08)
(0.01099830356 3.288359549e-08 6.089874811e-08)
(0.01099837458 2.744656761e-08 5.065847639e-08)
(0.01099845484 2.320584809e-08 4.159507022e-08)
(0.01099852866 1.978623172e-08 3.523590816e-08)
(0.01099860342 1.775905328e-08 3.185185451e-08)
(0.01099866422 2.058995208e-08 3.416767685e-08)
(0.01099872541 1.657930859e-08 2.772276668e-08)
(0.01099987834 -4.063624205e-10 2.616832238e-07)
(0.01099797351 -2.124710163e-09 -4.968251561e-08)
(0.01099772118 -3.478434549e-09 7.889395651e-08)
(0.01099758289 1.806152109e-10 1.359512848e-07)
(0.01099759945 -4.2745073e-10 1.211547786e-07)
(0.01099770299 1.501018602e-09 1.002290829e-07)
(0.01099783071 3.924333888e-10 8.208259054e-08)
(0.01099796791 -1.201400865e-09 6.562093604e-08)
(0.0109981018 -1.873702919e-11 5.265840342e-08)
(0.01099822698 -1.212932579e-09 4.235173642e-08)
(0.01099833872 8.657972784e-11 3.574158557e-08)
(0.01099844156 -3.006469546e-10 3.095952023e-08)
(0.01099852584 -1.104658978e-09 3.420444509e-08)
(0.01099860933 2.041332678e-10 2.813693892e-08)
(0.01099992605 2.682620062e-07 1.246036573e-09)
(0.01099888809 1.214409852e-07 -1.492410627e-07)
(0.0109986108 8.62336512e-09 -1.043791829e-08)
(0.01099835593 -3.94872582e-08 6.077370689e-08)
(0.01099823441 -4.772929115e-08 7.77881663e-08)
(0.01099821344 -4.611937845e-08 8.00015574e-08)
(0.01099824088 -4.046154232e-08 7.023579989e-08)
(0.01099830274 -3.365551135e-08 5.870508336e-08)
(0.01099837697 -3.052844037e-08 5.030234799e-08)
(0.01099845307 -2.347524344e-08 4.180566164e-08)
(0.01099853142 -2.011967613e-08 3.576725863e-08)
(0.01099860093 -1.825262874e-08 3.061691924e-08)
(0.01099866427 -1.978830992e-08 3.289018967e-08)
(0.01099872801 -1.721480799e-08 2.982217709e-08)
(0.01100038408 1.774065094e-07 -1.7804081e-07)
(0.01099992496 1.602055018e-07 -1.58131853e-07)
(0.01099970158 6.42461088e-08 -6.169051899e-08)
(0.01099944773 2.729469845e-09 -2.472125502e-09)
(0.01099925821 -2.618025509e-08 2.642451824e-08)
(0.0109991329 -4.094321396e-08 4.10647275e-08)
(0.01099904578 -4.245228132e-08 4.271647243e-08)
(0.01099900305 -4.084044798e-08 4.059313137e-08)
(0.01099898185 -3.760857367e-08 3.794871223e-08)
(0.01099897879 -3.216248883e-08 3.250927519e-08)
(0.01099898016 -3.040879309e-08 3.021174556e-08)
(0.01099899173 -2.687067402e-08 2.765582488e-08)
(0.01099900069 -3.017340858e-08 2.971729885e-08)
(0.01099901928 -2.52148771e-08 2.491316807e-08)
(0.01100041656 2.037840252e-07 -9.328830152e-08)
(0.01100028098 1.609850241e-07 -9.416837218e-08)
(0.01100021477 8.826039362e-08 -5.604692863e-08)
(0.01100008386 3.852458368e-08 -2.314964956e-08)
(0.01099995451 7.307340339e-09 -2.242875832e-09)
(0.01099983349 -1.286795968e-08 1.018811366e-08)
(0.01099972151 -2.310341174e-08 1.730963039e-08)
(0.01099963201 -2.659613083e-08 2.037917093e-08)
(0.01099955732 -2.613331753e-08 2.427359703e-08)
(0.01099949775 -2.5909032e-08 2.234542259e-08)
(0.01099944021 -2.571683955e-08 2.253726064e-08)
(0.01099939957 -2.335511577e-08 2.214184884e-08)
(0.01099937124 -2.554426978e-08 2.52525709e-08)
(0.0109993355 -2.156819026e-08 2.057815178e-08)
(0.01100040184 4.538299445e-08 -8.331509063e-08)
(0.01100039542 4.024825002e-08 -7.563406165e-08)
(0.01100040042 2.402000622e-08 -4.997964135e-08)
(0.01100034554 1.067973035e-08 -2.810527715e-08)
(0.01100026586 1.778701309e-09 -1.310942375e-08)
(0.01100017125 -5.417700636e-09 -2.527123622e-09)
(0.01100007444 -9.433361325e-09 4.744174568e-09)
(0.01099997771 -9.904889442e-09 1.161241676e-08)
(0.01099988444 -8.918467663e-09 1.308024539e-08)
(0.01099980093 -1.012016737e-08 1.418098098e-08)
(0.01099972627 -1.036490077e-08 1.783415001e-08)
(0.01099965385 -7.652019452e-09 1.665276662e-08)
(0.01099960061 -9.798902117e-09 1.822404873e-08)
(0.01099953963 -6.867234918e-09 1.554554086e-08)
(0.01100016643 -1.52101121e-07 -2.49766148e-07)
(0.01100042338 -3.063574395e-08 -1.167349023e-07)
(0.01100032879 -4.107189279e-08 -7.868314762e-08)
(0.01100029802 -1.905042068e-08 -4.190359347e-08)
(0.01100019625 -2.885182459e-09 -1.812419946e-08)
(0.01100007931 8.326963631e-09 -3.996310324e-09)
(0.0109999552 1.058346737e-08 3.027087322e-09)
(0.01099984214 1.439139677e-08 5.004843445e-09)
(0.01099973945 1.55737397e-08 9.313960398e-09)
(0.01099964693 1.473459639e-08 1.088346442e-08)
(0.01099957023 1.184952578e-08 1.211447976e-08)
(0.01099950456 1.092654655e-08 1.368716826e-08)
(0.01099944493 1.140631202e-08 1.21102849e-08)
(0.01099940035 1.175603478e-08 1.23883556e-08)
(0.01099935761 9.86745729e-09 1.308075681e-08)
(0.01100011498 -6.727577446e-07 -5.15386981e-07)
(0.01100036888 -2.004780339e-07 -1.47566228e-07)
(0.01100000016 -1.772826208e-07 -8.975295398e-08)
(0.01099987061 -7.550551856e-08 -3.645715477e-08)
(0.0109996821 -1.082874648e-08 -3.536529882e-09)
(0.01099952184 2.018929058e-08 9.587382797e-09)
(0.01099940005 3.584040043e-08 1.640758747e-08)
(0.01099930543 4.296561668e-08 1.822214384e-08)
(0.0109992391 4.293494431e-08 1.816262675e-08)
(0.01099919033 4.0719179e-08 1.719242471e-08)
(0.01099915772 3.577523403e-08 1.648212387e-08)
(0.01099913581 3.245027019e-08 1.579515642e-08)
(0.01099912471 2.73768729e-08 1.283968373e-08)
(0.01099911799 3.146440378e-08 1.506919482e-08)
(0.01099911305 2.600500224e-08 1.431807813e-08)
(0.01099971672 -9.87063766e-07 -1.477541192e-06)
(0.01099992321 3.366968405e-09 -2.724391661e-07)
(0.01099888985 -1.492988953e-07 -1.261144232e-07)
(0.01099860996 -9.132365356e-09 -1.112461783e-08)
(0.01099835024 6.05604674e-08 3.89000948e-08)
(0.01099823358 7.843315734e-08 4.748640123e-08)
(0.01099821054 8.001023842e-08 4.592729421e-08)
(0.01099824339 7.025008221e-08 4.001873986e-08)
(0.01099830465 5.806351775e-08 3.407378593e-08)
(0.0109983729 4.816815497e-08 2.786019187e-08)
(0.01099845533 4.030110441e-08 2.346531144e-08)
(0.01099852978 3.589618408e-08 2.162004427e-08)
(0.01099860194 2.942773972e-08 1.833050287e-08)
(0.01099866563 3.313264645e-08 2.090792989e-08)
(0.01099872649 2.857450411e-08 1.716041596e-08)
(0.01099735008 2.898617393e-07 2.907058141e-07)
(0.01099553078 1.900953475e-08 1.969443685e-08)
(0.01099580612 1.066707675e-07 1.072549803e-07)
(0.01099595217 1.343645539e-07 1.348520962e-07)
(0.01099625043 1.077796853e-07 1.08453599e-07)
(0.0109966041 8.211631959e-08 8.24613297e-08)
(0.01099693985 6.081169377e-08 6.218740305e-08)
(0.0109972454 4.513127497e-08 4.692695119e-08)
(0.01099750474 3.479951831e-08 3.479130173e-08)
(0.01099773774 2.81920549e-08 2.671083918e-08)
(0.01099793269 2.271151345e-08 2.606929853e-08)
(0.01099810364 2.153128809e-08 2.157456933e-08)
(0.01099824197 2.21775468e-08 2.274756218e-08)
(0.01099837248 2.083185165e-08 1.936242166e-08)
(0.01099408356 -1.372119903e-09 2.132710378e-06)
(0.01099108227 -1.469612551e-09 6.450748465e-07)
(0.01099293778 -3.132135777e-09 3.394097357e-07)
(0.01099400674 -2.152064616e-09 2.564119731e-07)
(0.01099489787 -5.266443271e-10 1.565243714e-07)
(0.01099565293 -3.14297353e-10 9.924040477e-08)
(0.01099624719 -2.171319697e-10 6.341100774e-08)
(0.01099672774 -2.038530908e-09 4.633247449e-08)
(0.01099710822 2.204575369e-10 3.473871113e-08)
(0.01099741912 -2.647452692e-11 2.562112726e-08)
(0.01099767879 3.527987747e-10 2.4345347e-08)
(0.01099789702 -9.587930555e-10 1.902670904e-08)
(0.01099807006 -3.495834967e-10 2.147636219e-08)
(0.01099823205 1.878802011e-09 1.545984425e-08)
(0.01099735118 -2.935825053e-07 2.910526237e-07)
(0.01099552906 -2.072287801e-08 2.037103195e-08)
(0.01099580567 -1.089979449e-07 1.086741049e-07)
(0.01099595524 -1.362357772e-07 1.360076921e-07)
(0.01099625231 -1.085773864e-07 1.08305555e-07)
(0.01099660488 -8.318491117e-08 8.254492308e-08)
(0.01099693952 -6.304664901e-08 6.120403904e-08)
(0.01099724348 -4.62850035e-08 4.809559396e-08)
(0.01099750642 -3.783046111e-08 3.516111946e-08)
(0.01099773721 -2.844787691e-08 2.736342616e-08)
(0.01099793122 -2.436079843e-08 2.383241067e-08)
(0.0109981039 -2.086922896e-08 2.001883643e-08)
(0.01099824214 -2.497694314e-08 2.138112474e-08)
(0.01099837443 -2.110390965e-08 1.803973177e-08)
(0.01099992489 -4.277398986e-09 -2.702182348e-07)
(0.01099888532 1.489563046e-07 -1.234731969e-07)
(0.01099860891 1.093814497e-08 -9.68378654e-09)
(0.01099835425 -6.086866517e-08 4.018540714e-08)
(0.01099823431 -7.81314194e-08 4.986627225e-08)
(0.01099821237 -7.975218187e-08 4.687310975e-08)
(0.01099824385 -7.244548819e-08 3.939883495e-08)
(0.01099830457 -6.162865442e-08 3.410030337e-08)
(0.01099837685 -5.012912009e-08 2.794320824e-08)
(0.01099845503 -4.256181815e-08 2.315159174e-08)
(0.0109985267 -3.477090544e-08 2.177101897e-08)
(0.01099860398 -3.072258532e-08 1.845341545e-08)
(0.01099866333 -3.182128981e-08 2.010940906e-08)
(0.01099872931 -2.964657472e-08 1.709808347e-08)
(0.01100036884 2.0019401e-07 -1.457873623e-07)
(0.01100000035 1.745706967e-07 -8.869259034e-08)
(0.01099986952 7.40029035e-08 -3.561903563e-08)
(0.01099968376 1.249682677e-08 -3.936122466e-09)
(0.01099952516 -2.162606665e-08 1.003014279e-08)
(0.01099940168 -3.7439976e-08 1.688012891e-08)
(0.01099930603 -4.281926277e-08 1.803165139e-08)
(0.01099924102 -4.297826931e-08 1.821261231e-08)
(0.01099919226 -4.06592907e-08 1.796327229e-08)
(0.01099916078 -3.549314958e-08 1.615411533e-08)
(0.01099913556 -3.243519317e-08 1.722201394e-08)
(0.01099912694 -2.868874769e-08 1.477277683e-08)
(0.01099911671 -2.984658108e-08 1.563302373e-08)
(0.01099911163 -2.503994444e-08 1.419380247e-08)
(0.01100042645 3.227440989e-08 -1.162011452e-07)
(0.01100032955 4.03248685e-08 -7.640204489e-08)
(0.0110002984 2.093240081e-08 -4.27478266e-08)
(0.01100019429 4.139897938e-09 -1.72412243e-08)
(0.0110000778 -4.910877538e-09 -6.546961816e-09)
(0.0109999563 -1.14068468e-08 1.391492408e-09)
(0.01099984089 -1.379495338e-08 7.224827659e-09)
(0.01099974149 -1.465159418e-08 7.279102099e-09)
(0.01099964902 -1.399471716e-08 1.051444714e-08)
(0.01099956981 -1.279623844e-08 1.10553247e-08)
(0.01099950293 -1.151620813e-08 1.235412679e-08)
(0.01099944576 -9.135077886e-09 1.200883588e-08)
(0.01099940071 -1.200789881e-08 1.350464488e-08)
(0.01099935669 -8.263499905e-09 1.130193655e-08)
(0.01100011254 -3.603155027e-07 1.469956364e-10)
(0.01100052468 -6.558219567e-08 2.988464612e-11)
(0.01100034331 -4.609033438e-08 -3.737652485e-10)
(0.01100026524 -1.289850798e-08 -5.036996023e-10)
(0.01100012713 7.271008633e-09 -2.671645182e-10)
(0.01099998478 1.492289039e-08 -1.949804651e-10)
(0.0109998555 1.776849256e-08 -2.443886943e-09)
(0.01099973608 1.931962554e-08 -4.179224368e-10)
(0.01099963161 1.886207833e-08 -1.256074842e-09)
(0.01099954428 1.714322287e-08 -3.131640547e-10)
(0.01099947068 1.176913129e-08 -1.586923481e-09)
(0.01099940963 1.247469219e-08 -1.071233494e-09)
(0.01099935914 1.073572193e-08 -1.933849107e-09)
(0.010999318 1.215677894e-08 1.019813898e-09)
(0.01099928286 1.208844684e-08 9.412217118e-10)
(0.01099998107 -1.631481682e-06 -1.503842399e-09)
(0.01100052749 -3.455911116e-07 -9.644852964e-10)
(0.0109998616 -2.014609984e-07 -3.851686957e-10)
(0.01099965934 -5.368653774e-08 -6.340429231e-10)
(0.0109994448 1.865997711e-08 -3.506405323e-10)
(0.01099927951 4.573862939e-08 1.29116025e-09)
(0.01099917595 5.409283329e-08 2.94325797e-10)
(0.01099910198 5.391976651e-08 -1.279929667e-09)
(0.01099905597 4.870103297e-08 -1.924042277e-09)
(0.01099902689 4.321409267e-08 -4.420558976e-10)
(0.01099901328 3.795391315e-08 -1.068436644e-09)
(0.01099900596 3.31482574e-08 -8.233449937e-10)
(0.01099900924 3.009092691e-08 -9.001712828e-10)
(0.01099901337 3.236697068e-08 -5.025263783e-10)
(0.01099901908 2.750752639e-08 1.488325803e-09)
(0.01099884533 -3.323350257e-06 -1.35624876e-09)
(0.01099987713 2.611422098e-07 1.91874281e-10)
(0.01099797424 -5.155677863e-08 -8.245368945e-10)
(0.01099772482 8.004820816e-08 -1.951117184e-09)
(0.01099758555 1.333015081e-07 -1.648078581e-09)
(0.0109975976 1.199861004e-07 7.760560019e-11)
(0.01099769867 1.013706159e-07 2.730634673e-10)
(0.01099782927 8.271311155e-08 -1.137690507e-09)
(0.01099796619 6.411243126e-08 -8.080444088e-10)
(0.01099810134 5.207323658e-08 -5.098651205e-10)
(0.01099822635 4.093073549e-08 -6.877511431e-10)
(0.01099833717 3.832571189e-08 4.636501672e-10)
(0.0109984404 3.160729579e-08 3.753020624e-10)
(0.01099852562 3.426499773e-08 1.359533517e-09)
(0.01099860556 2.873288069e-08 1.407630153e-09)
(0.01099174449 -1.504271164e-05 -3.571311315e-10)
(0.01099408046 2.130951649e-06 -5.781943365e-10)
(0.01099108051 6.457488667e-07 -7.281329281e-10)
(0.01099293626 3.393415278e-07 -9.378796583e-10)
(0.01099400757 2.554680623e-07 -1.009050616e-09)
(0.01099489754 1.552222616e-07 8.273286343e-10)
(0.0109956534 9.706258879e-08 3.601451284e-10)
(0.01099624632 6.248650499e-08 -4.309472773e-11)
(0.01099672579 4.415096526e-08 -8.802397841e-10)
(0.01099710513 3.357332609e-08 1.729877364e-10)
(0.01099742126 2.537802419e-08 1.386539191e-09)
(0.01099767811 2.175298662e-08 4.474709404e-12)
(0.0109978952 1.927027922e-08 -4.726067357e-10)
(0.01099806862 2.139029598e-08 -9.992169008e-10)
(0.01099823222 1.495630559e-08 4.217067912e-10)
(0.0109845963 6.783529809e-10 -1.769378984e-10)
(0.01097835014 -1.981807703e-09 4.137586887e-10)
(0.01098677797 -2.093780619e-09 3.593223232e-10)
(0.01099067989 3.716721578e-10 -7.204535157e-10)
(0.01099288773 1.991596632e-10 7.453146685e-10)
(0.01099437465 -6.847421006e-12 7.100400228e-10)
(0.01099538218 -3.207955035e-10 -7.558764296e-11)
(0.01099610609 1.081719907e-09 -1.007070995e-10)
(0.01099664539 -5.11659684e-10 -1.854532269e-09)
(0.01099706437 -1.770875713e-09 1.317465401e-10)
(0.01099739411 -2.353131673e-09 -1.625061287e-10)
(0.01099767079 -1.457271e-09 -2.631680173e-10)
(0.01099787472 -3.315536118e-10 4.898606128e-10)
(0.01099808943 3.174354842e-10 -7.824267555e-10)
(0.01099408221 -2.134103439e-06 -9.271772743e-11)
(0.01099107736 -6.45625046e-07 -1.855437486e-10)
(0.0109929385 -3.413032355e-07 6.642022601e-10)
(0.01099400892 -2.572884194e-07 -2.633751316e-10)
(0.01099489901 -1.582105629e-07 8.979665866e-10)
(0.01099565196 -9.935208025e-08 1.993676895e-10)
(0.01099624647 -6.532991613e-08 1.241208935e-09)
(0.01099672582 -4.54610796e-08 7.592886417e-11)
(0.0109971064 -3.49973171e-08 -5.451252559e-10)
(0.01099742005 -2.659771377e-08 -1.502139103e-09)
(0.01099767865 -2.274003721e-08 -1.231078371e-09)
(0.01099789695 -1.983318969e-08 -2.373396923e-10)
(0.01099807037 -2.334100446e-08 7.903708716e-10)
(0.01099823142 -1.469781017e-08 3.087143449e-10)
(0.01099987561 -2.63664549e-07 7.955492546e-10)
(0.01099796987 4.916394931e-08 -3.447176803e-10)