/*--------------------------------*- C++ -*----------------------------------*\
| =========                 |                                                 |
| \\      /  F ield         | OpenFOAM: The Open Source CFD Toolbox           |
|  \\    /   O peration     | Version:  4.x                                   |
|   \\  /    A nd           | Web:      www.OpenFOAM.org                      |
|    \\/     M anipulation  |                                                 |
\*---------------------------------------------------------------------------*/
FoamFile
{
    version     2.0;
    format      ascii;
    class       volScalarField;
    location    "3000";
    object      X_CO;
}
// * * * * * * * * * * * * * * * * * * * * * * * * * * * * * * * * * * * * * //

dimensions      [0 0 0 0 0 0 0];

internalField   nonuniform List<scalar> 
1174
(
0.3299555253
0.3299530105
0.329949464
0.3299448436
0.3299392004
0.3299326605
0.3299253992
0.3299176149
0.3299095081
0.3299012671
0.3298930657
0.3298850885
0.3298776627
0.3298718329
0.3299531714
0.3299491503
0.3299438023
0.3299372536
0.3299297314
0.3299215099
0.3299128661
0.3299040519
0.3298952786
0.3298867146
0.3298784921
0.3298707396
0.3298637045
0.3298582777
0.3299479794
0.3299408887
0.3299321268
0.3299221897
0.3299116119
0.3299008718
0.3298903467
0.3298803042
0.3298709137
0.3298622661
0.3298543996
0.3298473367
0.3298411905
0.3298365901
0.329940386
0.3299293908
0.3299167839
0.3299034885
0.3298902707
0.3298776792
0.329866055
0.3298555721
0.3298462835
0.3298381625
0.3298311375
0.3298251278
0.3298201235
0.3298165014
0.3299349752
0.3299218417
0.3299075308
0.3298930502
0.3298791265
0.329866222
0.3298545866
0.3298443145
0.329835395
0.3298277514
0.3298212732
0.3298158464
0.3298114194
0.3298082681
0.3299403862
0.329929391
0.3299167842
0.3299034888
0.3298902711
0.3298776796
0.3298660555
0.3298555726
0.329846284
0.3298381631
0.3298311381
0.3298251284
0.3298201241
0.329816502
0.3299479795
0.3299408889
0.329932127
0.32992219
0.3299116123
0.3299008723
0.3298903472
0.3298803048
0.3298709143
0.3298622669
0.3298544004
0.3298473376
0.3298411914
0.3298365911
0.3299531715
0.3299491504
0.3299438025
0.3299372538
0.3299297317
0.3299215103
0.3299128666
0.3299040524
0.3298952792
0.3298867153
0.329878493
0.3298707406
0.3298637055
0.3298582789
0.3299555254
0.3299530106
0.3299494642
0.3299448438
0.3299392006
0.3299326608
0.3299253995
0.3299176153
0.3299095086
0.3299012678
0.3298930665
0.3298850895
0.3298776638
0.329871834
0.3299558902
0.3299531714
0.3299491503
0.3299438023
0.3299372536
0.3299297315
0.3299215099
0.3299128662
0.3299040519
0.3298952787
0.3298867146
0.3298784922
0.3298707397
0.3298637045
0.3298582778
0.3299478763
0.3299408353
0.3299322605
0.3299226688
0.3299125768
0.3299024184
0.3298925155
0.3298830822
0.3298742442
0.3298660629
0.3298585601
0.3298517552
0.3298457686
0.3298412472
0.3299345766
0.3299209336
0.3299061252
0.3298914032
0.329877621
0.3298652409
0.3298544274
0.3298451541
0.32983729
0.3298306604
0.3298250855
0.3298204108
0.3298165648
0.3298137966
0.3299109884
0.3298883539
0.3298668618
0.3298481108
0.329832651
0.3298203988
0.3298109655
0.3298038636
0.3297986161
0.3297948055
0.3297920874
0.329790189
0.329788905
0.3297881301
0.3298887817
0.3298615858
0.3298385725
0.3298203326
0.3298064938
0.3297963439
0.3297891287
0.329784173
0.3297809175
0.329778918
0.3297778291
0.3297773836
0.329777361
0.3297775306
0.3299109888
0.3298883544
0.3298668624
0.3298481114
0.3298326516
0.3298203995
0.3298109663
0.3298038643
0.3297986168
0.3297948062
0.3297920882
0.3297901898
0.3297889058
0.3297881308
0.329934577
0.3299209341
0.3299061257
0.3298914037
0.3298776217
0.3298652416
0.3298544282
0.329845155
0.3298372909
0.3298306614
0.3298250866
0.3298204119
0.3298165659
0.3298137978
0.3299478766
0.3299408356
0.3299322609
0.3299226691
0.3299125772
0.329902419
0.3298925162
0.329883083
0.3298742451
0.3298660639
0.3298585613
0.3298517564
0.3298457699
0.3298412486
0.3299531715
0.3299491504
0.3299438025
0.3299372538
0.3299297318
0.3299215103
0.3299128667
0.3299040526
0.3298952794
0.3298867155
0.3298784933
0.3298707409
0.3298637059
0.3298582793
0.329953085
0.3299479795
0.3299408889
0.329932127
0.3299221899
0.3299116122
0.329900872
0.3298903469
0.3298803044
0.3298709139
0.3298622664
0.3298543998
0.329847337
0.3298411907
0.3298365903
0.3299456099
0.3299345767
0.3299209338
0.3299061254
0.3298914034
0.3298776213
0.3298652411
0.3298544276
0.3298451543
0.3298372902
0.3298306606
0.3298250857
0.329820411
0.3298165649
0.3298137967
0.3298953732
0.32986668
0.3298407422
0.3298195078
0.3298033643
0.3297918306
0.3297840743
0.3297792156
0.3297764729
0.3297752123
0.3297749471
0.3297753122
0.3297760166
0.3297767297
0.3298083633
0.3297600384
0.3297267838
0.3297072061
0.3296980513
0.3296960543
0.3296985876
0.3297037518
0.3297102612
0.3297172864
0.3297243108
0.3297310038
0.3297370514
0.3297416769
0.3296946432
0.3296466897
0.329626187
0.3296226677
0.3296286677
0.3296394943
0.3296523702
0.3296657178
0.3296786787
0.3296908147
0.329701924
0.3297119079
0.3297205829
0.3297270628
0.3298083651
0.3297600401
0.3297267854
0.3297072076
0.3296980528
0.3296960557
0.329698589
0.3297037531
0.3297102624
0.3297172875
0.3297243119
0.3297310049
0.3297370525
0.3297416779
0.3298953747
0.3298666813
0.3298407434
0.3298195091
0.3298033657
0.3297918321
0.3297840758
0.3297792172
0.3297764746
0.329775214
0.3297749487
0.3297753138
0.3297760182
0.3297767314
0.329934577
0.3299209342
0.3299061259
0.329891404
0.329877622
0.329865242
0.3298544287
0.3298451555
0.3298372915
0.3298306621
0.3298250873
0.3298204126
0.3298165667
0.3298137985
0.3299479795
0.329940889
0.3299321271
0.3299221902
0.3299116126
0.3299008726
0.3298903477
0.3298803054
0.3298709151
0.3298622677
0.3298544013
0.3298473386
0.3298411925
0.3298365922
0.3299488798
0.3299403863
0.3299293911
0.3299167844
0.3299034889
0.3298902712
0.3298776797
0.3298660555
0.3298555726
0.329846284
0.329838163
0.3298311379
0.3298251282
0.3298201239
0.3298165018
0.3299318417
0.3299109888
0.3298883545
0.3298668624
0.3298481114
0.3298326515
0.3298203993
0.3298109661
0.329803864
0.3297986165
0.3297948059
0.3297920878
0.3297901894
0.3297889054
0.3297881304
0.3298674513
0.3298083639
0.3297600391
0.3297267844
0.3297072067
0.3296980519
0.3296960548
0.329698588
0.3297037521
0.3297102615
0.3297172866
0.329724311
0.329731004
0.3297370516
0.329741677
0.3295105954
0.3294500222
0.3294402035
0.3294578236
0.3294876486
0.3295210976
0.3295538306
0.3295839189
0.3296107043
0.3296341482
0.3296544768
0.329671962
0.3296866411
0.3296973527
0.3289272579
0.3290038682
0.3291211688
0.3292335205
0.3293289287
0.3294067232
0.3294694509
0.3295201011
0.3295612757
0.3295950351
0.3296229436
0.3296461201
0.3296650911
0.3296787141
0.329510602
0.3294500266
0.329440207
0.3294578266
0.3294876513
0.3295211
0.3295538327
0.3295839209
0.3296107061
0.3296341499
0.3296544783
0.3296719635
0.3296866425
0.329697354
0.3298083651
0.3297600407
0.3297267864
0.3297072089
0.3296980542
0.3296960572
0.3296985905
0.3297037546
0.3297102639
0.329717289
0.3297243133
0.3297310062
0.3297370538
0.3297416791
0.3299109888
0.3298883547
0.3298668629
0.3298481122
0.3298326527
0.3298204008
0.3298109677
0.3298038659
0.3297986185
0.3297948079
0.3297920899
0.3297901916
0.3297889076
0.3297881327
0.3299403861
0.3299293911
0.3299167845
0.3299034892
0.3298902718
0.3298776805
0.3298660566
0.3298555739
0.3298462855
0.3298381647
0.3298311398
0.3298251303
0.3298201261
0.3298165041
0.3299457309
0.3299349755
0.3299218421
0.3299075313
0.3298930508
0.3298791271
0.3298662226
0.3298545872
0.3298443151
0.3298353956
0.329827752
0.3298212737
0.329815847
0.3298114199
0.3298082686
0.3299174999
0.3298887823
0.3298615867
0.3298385734
0.3298203335
0.3298064947
0.3297963447
0.3297891294
0.3297841737
0.3297809182
0.3297789186
0.3297778297
0.3297773841
0.3297773615
0.3297775311
0.3297799771
0.3296946442
0.3296466915
0.3296261887
0.3296226692
0.3296286689
0.3296394953
0.3296523711
0.3296657186
0.3296786793
0.3296908153
0.3297019245
0.3297119084
0.3297205833
0.3297270632
0.3290303277
0.3289272628
0.3290038716
0.329121171
0.329233522
0.3293289298
0.329406724
0.3294694516
0.3295201016
0.3295612761
0.3295950354
0.3296229439
0.3296461204
0.3296650913
0.3296787144
0.3264117434
0.3276924359
0.3284009848
0.3288156502
0.329072454
0.329240431
0.3293559816
0.329439076
0.3295011238
0.3295489131
0.3295866346
0.3296169064
0.3296410824
0.3296581817
0.3289272577
0.3290038751
0.3291211756
0.3292335263
0.3293289337
0.3294067273
0.3294694545
0.3295201041
0.3295612784
0.3295950375
0.3296229458
0.3296461221
0.3296650929
0.3296787159
0.3296946433
0.3296466923
0.3296261905
0.3296226716
0.3296286717
0.3296394982
0.3296523739
0.3296657214
0.329678682
0.3296908179
0.329701927
0.3297119108
0.3297205856
0.3297270655
0.3298887818
0.3298615866
0.329838574
0.3298203346
0.3298064961
0.3297963465
0.3297891314
0.3297841758
0.3297809205
0.329778921
0.3297778322
0.3297773866
0.329777364
0.3297775336
0.3299349753
0.329921842
0.3299075315
0.3298930512
0.3298791278
0.3298662237
0.3298545885
0.3298443167
0.3298353974
0.329827754
0.3298212759
0.3298158493
0.3298114224
0.3298082712
0.3299488798
0.3299403864
0.3299293914
0.3299167847
0.3299034893
0.3298902717
0.3298776802
0.3298660561
0.3298555732
0.3298462846
0.3298381637
0.3298311387
0.329825129
0.3298201247
0.3298165026
0.329931842
0.3299109894
0.3298883552
0.3298668632
0.3298481122
0.3298326524
0.3298204003
0.329810967
0.329803865
0.3297986175
0.3297948069
0.3297920888
0.3297901904
0.3297889064
0.3297881314
0.3298674537
0.3298083663
0.3297600418
0.329726787
0.3297072091
0.3296980542
0.3296960569
0.3296985901
0.3297037541
0.3297102633
0.3297172884
0.3297243127
0.3297310056
0.3297370531
0.3297416785
0.3296470297
0.3295106057
0.3294500305
0.3294402102
0.3294578292
0.3294876534
0.3295211017
0.3295538341
0.3295839221
0.329610707
0.3296341507
0.329654479
0.3296719641
0.329686643
0.3296973545
0.3290303272
0.328927264
0.3290038793
0.3291211784
0.3292335283
0.3293289351
0.3294067284
0.3294694553
0.3295201048
0.3295612789
0.329595038
0.3296229462
0.3296461225
0.3296650932
0.3296787161
0.3296470283
0.3295106067
0.3294500324
0.3294402125
0.3294578315
0.3294876557
0.3295211039
0.3295538361
0.3295839239
0.3296107088
0.3296341523
0.3296544806
0.3296719656
0.3296866444
0.3296973559
0.3298083634
0.329760041
0.3297267877
0.3297072106
0.3296980562
0.3296960592
0.3296985924
0.3297037565
0.3297102657
0.3297172907
0.3297243149
0.3297310078
0.3297370553
0.3297416806
0.3299109885
0.3298883547
0.3298668634
0.3298481129
0.3298326536
0.3298204018
0.3298109688
0.329803867
0.3297986197
0.3297948091
0.3297920912
0.3297901927
0.3297889088
0.3297881339
0.329940386
0.3299293911
0.3299167846
0.3299034895
0.3298902722
0.329877681
0.3298660572
0.3298555746
0.3298462863
0.3298381656
0.3298311407
0.3298251312
0.3298201271
0.3298165051
0.3299530851
0.3299479796
0.3299408891
0.3299321273
0.3299221903
0.3299116127
0.3299008726
0.3298903476
0.3298803053
0.3298709148
0.3298622674
0.3298544009
0.3298473381
0.329841192
0.3298365916
0.3299456103
0.3299345773
0.3299209345
0.3299061262
0.3298914043
0.3298776223
0.3298652422
0.3298544289
0.3298451556
0.3298372916
0.3298306621
0.3298250873
0.3298204125
0.3298165666
0.3298137984
0.3299227769
0.3298953754
0.3298666823
0.3298407445
0.3298195102
0.3298033668
0.3297918331
0.3297840768
0.3297792181
0.3297764754
0.3297752148
0.3297749495
0.3297753146
0.3297760189
0.329776732
0.3298674539
0.329808367
0.3297600429
0.3297267885
0.3297072108
0.3296980559
0.3296960587
0.3296985918
0.3297037557
0.3297102649
0.3297172899
0.3297243141
0.3297310069
0.3297370544
0.3297416798
0.3297799777
0.3296946469
0.3296466955
0.3296261933
0.3296226738
0.3296286735
0.3296394996
0.3296523751
0.3296657224
0.3296786829
0.3296908186
0.3297019277
0.3297119114
0.3297205861
0.3297270659
0.3298674542
0.3298083677
0.3297600439
0.3297267897
0.3297072121
0.3296980573
0.3296960601
0.3296985931
0.329703757
0.3297102662
0.3297172911
0.3297243153
0.3297310081
0.3297370556
0.3297416809
0.3299227762
0.3298953749
0.3298666822
0.3298407449
0.3298195111
0.329803368
0.3297918345
0.3297840784
0.3297792198
0.3297764772
0.3297752166
0.3297749513
0.3297753164
0.3297760208
0.3297767339
0.3299345766
0.3299209342
0.3299061263
0.3298914047
0.329877623
0.3298652433
0.3298544302
0.3298451571
0.3298372933
0.3298306639
0.3298250892
0.3298204145
0.3298165686
0.3298138005
0.3299479794
0.3299408889
0.3299321272
0.3299221904
0.3299116131
0.3299008733
0.3298903485
0.3298803064
0.3298709162
0.329862269
0.3298544027
0.3298473401
0.3298411941
0.3298365938
0.3299558903
0.3299531716
0.3299491506
0.3299438026
0.329937254
0.329929732
0.3299215106
0.329912867
0.3299040528
0.3298952797
0.3298867158
0.3298784935
0.3298707411
0.3298637061
0.3298582794
0.3299530139
0.3299478768
0.3299408359
0.3299322612
0.3299226695
0.3299125777
0.3299024195
0.3298925167
0.3298830835
0.3298742457
0.3298660645
0.3298585619
0.329851757
0.3298457705
0.3298412492
0.3299456103
0.3299345774
0.3299209347
0.3299061265
0.3298914047
0.3298776228
0.3298652428
0.3298544295
0.3298451563
0.3298372923
0.3298306628
0.3298250881
0.3298204133
0.3298165674
0.3298137992
0.3299318421
0.3299109897
0.3298883558
0.3298668642
0.3298481135
0.3298326539
0.3298204019
0.3298109688
0.3298038669
0.3297986194
0.3297948088
0.3297920908
0.3297901923
0.3297889083
0.3297881334
0.3299175001
0.3298887831
0.3298615881
0.3298385755
0.329820336
0.3298064974
0.3297963477
0.3297891325
0.3297841768
0.3297809214
0.3297789218
0.3297778329
0.3297773873
0.3297773646
0.3297775342
0.3299318422
0.3299109899
0.3298883561
0.3298668645
0.329848114
0.3298326545
0.3298204026
0.3298109695
0.3298038676
0.3297986202
0.3297948097
0.3297920916
0.3297901932
0.3297889092
0.3297881343
0.3299456103
0.3299345774
0.3299209348
0.3299061268
0.3298914051
0.3298776234
0.3298652436
0.3298544304
0.3298451574
0.3298372935
0.3298306641
0.3298250894
0.3298204147
0.3298165688
0.3298138007
0.3299530137
0.3299478766
0.3299408358
0.3299322612
0.3299226697
0.329912578
0.32990242
0.3298925175
0.3298830845
0.3298742468
0.3298660657
0.3298585632
0.3298517585
0.3298457721
0.3298412509
0.3299531714
0.3299491504
0.3299438026
0.3299372541
0.3299297322
0.3299215109
0.3299128675
0.3299040536
0.3298952806
0.3298867169
0.3298784948
0.3298707426
0.3298637077
0.3298582812
0.3299571451
0.3299555255
0.3299530107
0.3299494643
0.329944844
0.3299392009
0.3299326611
0.3299253999
0.3299176158
0.3299095091
0.3299012683
0.329893067
0.32988509
0.3298776644
0.3298718346
0.3299558903
0.3299531716
0.3299491506
0.3299438027
0.3299372541
0.3299297321
0.3299215108
0.3299128672
0.3299040531
0.32989528
0.3298867161
0.3298784939
0.3298707415
0.3298637065
0.3298582799
0.3299530851
0.3299479797
0.3299408893
0.3299321275
0.3299221906
0.3299116131
0.3299008732
0.3298903483
0.3298803061
0.3298709157
0.3298622684
0.3298544019
0.3298473393
0.3298411931
0.3298365928
0.3299488799
0.3299403865
0.3299293916
0.3299167851
0.32990349
0.3298902726
0.3298776813
0.3298660574
0.3298555747
0.3298462863
0.3298381655
0.3298311406
0.329825131
0.3298201268
0.3298165048
0.329945731
0.3299349758
0.3299218427
0.3299075322
0.329893052
0.3298791286
0.3298662245
0.3298545893
0.3298443175
0.3298353981
0.3298277547
0.3298212766
0.3298158499
0.329811423
0.3298082718
0.3299488799
0.3299403865
0.3299293916
0.3299167852
0.3299034901
0.3298902728
0.3298776816
0.3298660577
0.3298555751
0.3298462868
0.3298381661
0.3298311412
0.3298251316
0.3298201275
0.3298165055
0.3299530851
0.3299479797
0.3299408893
0.3299321276
0.3299221908
0.3299116134
0.3299008736
0.3298903488
0.3298803067
0.3298709165
0.3298622692
0.3298544029
0.3298473403
0.3298411943
0.329836594
0.3299558903
0.3299531716
0.3299491506
0.3299438027
0.3299372542
0.3299297324
0.3299215111
0.3299128677
0.3299040537
0.3298952808
0.329886717
0.329878495
0.3298707427
0.3298637078
0.3298582813
0.329957145
0.3299555254
0.3299530107
0.3299494643
0.329944844
0.329939201
0.3299326613
0.3299254003
0.3299176163
0.3299095098
0.3299012691
0.329893068
0.3298850912
0.3298776658
0.3298718362
)
;

boundaryField
{
    top
    {
        type            calculated;
        value           nonuniform List<scalar> 
127
(
0.329957145
0.3299555254
0.3299531715
0.3299479795
0.3299403861
0.3299349753
0.329940386
0.3299479794
0.3299531714
0.3299555254
0.3299530106
0.3299491504
0.329940889
0.3299293911
0.329921842
0.3299293911
0.3299408889
0.3299491504
0.3299530107
0.3299494642
0.3299438025
0.3299321271
0.3299167845
0.3299075315
0.3299167846
0.3299321272
0.3299438026
0.3299494643
0.3299448438
0.3299372538
0.3299221902
0.3299034892
0.3298930512
0.3299034895
0.3299221904
0.3299372541
0.329944844
0.3299392006
0.3299297318
0.3299116126
0.3298902718
0.3298791278
0.3298902722
0.3299116131
0.3299297322
0.329939201
0.3299326608
0.3299215103
0.3299008726
0.3298776805
0.3298662237
0.329877681
0.3299008733
0.3299215109
0.3299326613
0.3299253995
0.3299128667
0.3298903477
0.3298660566
0.3298545885
0.3298660572
0.3298903485
0.3299128675
0.3299254003
0.3299176153
0.3299040526
0.3298803054
0.3298555739
0.3298443167
0.3298555746
0.3298803064
0.3299040536
0.3299176163
0.3299095086
0.3298952794
0.3298709151
0.3298462855
0.3298353974
0.3298462863
0.3298709162
0.3298952806
0.3299095098
0.3299012678
0.3298867155
0.3298622677
0.3298381647
0.329827754
0.3298381656
0.329862269
0.3298867169
0.3299012691
0.3298930665
0.3298784933
0.3298544013
0.3298311398
0.3298212759
0.3298311407
0.3298544027
0.3298784948
0.329893068
0.3298850895
0.3298707409
0.3298473386
0.3298251303
0.3298158493
0.3298251312
0.3298473401
0.3298707426
0.3298850912
0.3298776638
0.3298637059
0.3298411925
0.3298201261
0.3298114224
0.3298201271
0.3298411941
0.3298637077
0.3298776658
0.329871834
0.3298582793
0.3298365922
0.3298165041
0.3298082712
0.3298165051
0.3298365938
0.3298582812
0.3298718362
)
;
    }
    bottom
    {
        type            calculated;
        value           nonuniform List<scalar> 
134
(
0.3299558902
0.329953085
0.3299488798
0.3299457309
0.3299488798
0.3299530851
0.3299558903
0.3299571451
0.3299555253
0.3299531714
0.3299479795
0.3299403863
0.3299349755
0.3299403864
0.3299479796
0.3299531716
0.3299555255
0.3299530105
0.3299491503
0.3299408889
0.3299293911
0.3299218421
0.3299293914
0.3299408891
0.3299491506
0.3299530107
0.329949464
0.3299438023
0.329932127
0.3299167844
0.3299075313
0.3299167847
0.3299321273
0.3299438026
0.3299494643
0.3299448436
0.3299372536
0.3299221899
0.3299034889
0.3298930508
0.3299034893
0.3299221903
0.329937254
0.329944844
0.3299392004
0.3299297315
0.3299116122
0.3298902712
0.3298791271
0.3298902717
0.3299116127
0.329929732
0.3299392009
0.3299326605
0.3299215099
0.329900872
0.3298776797
0.3298662226
0.3298776802
0.3299008726
0.3299215106
0.3299326611
0.3299253992
0.3299128662
0.3298903469
0.3298660555
0.3298545872
0.3298660561
0.3298903476
0.329912867
0.3299253999
0.3299176149
0.3299040519
0.3298803044
0.3298555726
0.3298443151
0.3298555732
0.3298803053
0.3299040528
0.3299176158
0.3299095081
0.3298952787
0.3298709139
0.329846284
0.3298353956
0.3298462846
0.3298709148
0.3298952797
0.3299095091
0.3299012671
0.3298867146
0.3298622664
0.329838163
0.329827752
0.3298381637
0.3298622674
0.3298867158
0.3299012683
0.3298930657
0.3298784922
0.3298543998
0.3298311379
0.3298212737
0.3298311387
0.3298544009
0.3298784935
0.329893067
0.3298850885
0.3298707397
0.329847337
0.3298251282
0.329815847
0.329825129
0.3298473381
0.3298707411
0.32988509
0.3298776627
0.3298637045
0.3298411907
0.3298201239
0.3298114199
0.3298201247
0.329841192
0.3298637061
0.3298776644
0.3298718329
0.3298582778
0.3298365903
0.3298165018
0.3298082686
0.3298165026
0.3298365916
0.3298582794
0.3298718346
)
;
    }
    side-walls
    {
        type            calculated;
        value           nonuniform List<scalar> 
261
(
0.3299555253
0.3299531714
0.3299479794
0.329940386
0.3299349752
0.3299403862
0.3299479795
0.3299531715
0.3299555254
0.3299530105
0.3299491503
0.3299408887
0.3299293908
0.3299218417
0.329929391
0.3299408889
0.3299491504
0.3299530106
0.329949464
0.3299438023
0.3299321268
0.3299167839
0.3299075308
0.3299167842
0.329932127
0.3299438025
0.3299494642
0.3299448436
0.3299372536
0.3299221897
0.3299034885
0.3298930502
0.3299034888
0.32992219
0.3299372538
0.3299448438
0.3299392004
0.3299297314
0.3299116119
0.3298902707
0.3298791265
0.3298902711
0.3299116123
0.3299297317
0.3299392006
0.3299326605
0.3299215099
0.3299008718
0.3298776792
0.329866222
0.3298776796
0.3299008723
0.3299215103
0.3299326608
0.3299253992
0.3299128661
0.3298903467
0.329866055
0.3298545866
0.3298660555
0.3298903472
0.3299128666
0.3299253995
0.3299176149
0.3299040519
0.3298803042
0.3298555721
0.3298443145
0.3298555726
0.3298803048
0.3299040524
0.3299176153
0.3299095081
0.3298952786
0.3298709137
0.3298462835
0.329835395
0.329846284
0.3298709143
0.3298952792
0.3299095086
0.3299012671
0.3298867146
0.3298622661
0.3298381625
0.3298277514
0.3298381631
0.3298622669
0.3298867153
0.3299012678
0.3298930657
0.3298784921
0.3298543996
0.3298311375
0.3298212732
0.3298311381
0.3298544004
0.329878493
0.3298930665
0.3298850885
0.3298707396
0.3298473367
0.3298251278
0.3298158464
0.3298251284
0.3298473376
0.3298707406
0.3298850895
0.3298776627
0.3298637045
0.3298411905
0.3298201235
0.3298114194
0.3298201241
0.3298411914
0.3298637055
0.3298776638
0.3298718329
0.3298582777
0.3298365901
0.3298165014
0.3298082681
0.329816502
0.3298365911
0.3298582789
0.329871834
0.3299571451
0.3299558903
0.3299530851
0.3299488799
0.329945731
0.3299488799
0.3299530851
0.3299558903
0.329957145
0.3299555255
0.3299531716
0.3299479797
0.3299403865
0.3299349758
0.3299403865
0.3299479797
0.3299531716
0.3299555254
0.3299530107
0.3299491506
0.3299408893
0.3299293916
0.3299218427
0.3299293916
0.3299408893
0.3299491506
0.3299530107
0.3299494643
0.3299438027
0.3299321275
0.3299167851
0.3299075322
0.3299167852
0.3299321276
0.3299438027
0.3299494643
0.329944844
0.3299372541
0.3299221906
0.32990349
0.329893052
0.3299034901
0.3299221908
0.3299372542
0.329944844
0.3299392009
0.3299297321
0.3299116131
0.3298902726
0.3298791286
0.3298902728
0.3299116134
0.3299297324
0.329939201
0.3299326611
0.3299215108
0.3299008732
0.3298776813
0.3298662245
0.3298776816
0.3299008736
0.3299215111
0.3299326613
0.3299253999
0.3299128672
0.3298903483
0.3298660574
0.3298545893
0.3298660577
0.3298903488
0.3299128677
0.3299254003
0.3299176158
0.3299040531
0.3298803061
0.3298555747
0.3298443175
0.3298555751
0.3298803067
0.3299040537
0.3299176163
0.3299095091
0.32989528
0.3298709157
0.3298462863
0.3298353981
0.3298462868
0.3298709165
0.3298952808
0.3299095098
0.3299012683
0.3298867161
0.3298622684
0.3298381655
0.3298277547
0.3298381661
0.3298622692
0.329886717
0.3299012691
0.329893067
0.3298784939
0.3298544019
0.3298311406
0.3298212766
0.3298311412
0.3298544029
0.329878495
0.329893068
0.32988509
0.3298707415
0.3298473393
0.329825131
0.3298158499
0.3298251316
0.3298473403
0.3298707427
0.3298850912
0.3298776644
0.3298637065
0.3298411931
0.3298201268
0.329811423
0.3298201275
0.3298411943
0.3298637078
0.3298776658
0.3298718346
0.3298582799
0.3298365928
0.3298165048
0.3298082718
0.3298165055
0.329836594
0.3298582813
0.3298718362
)
;
    }
    inlet
    {
        type            calculated;
        value           nonuniform 0();
    }
    outlet
    {
        type            calculated;
        value           nonuniform List<scalar> 
81
(
0.3298718329
0.3298582777
0.3298365901
0.3298165014
0.3298082681
0.329816502
0.3298365911
0.3298582789
0.329871834
0.3298582778
0.3298412472
0.3298137966
0.3297881301
0.3297775306
0.3297881308
0.3298137978
0.3298412486
0.3298582793
0.3298365903
0.3298137967
0.3297767297
0.3297416769
0.3297270628
0.3297416779
0.3297767314
0.3298137985
0.3298365922
0.3298165018
0.3297881304
0.329741677
0.3296973527
0.3296787141
0.329697354
0.3297416791
0.3297881327
0.3298165041
0.3298082686
0.3297775311
0.3297270632
0.3296787144
0.3296581817
0.3296787159
0.3297270655
0.3297775336
0.3298082712
0.3298165026
0.3297881314
0.3297416785
0.3296973545
0.3296787161
0.3296973559
0.3297416806
0.3297881339
0.3298165051
0.3298365916
0.3298137984
0.329776732
0.3297416798
0.3297270659
0.3297416809
0.3297767339
0.3298138005
0.3298365938
0.3298582794
0.3298412492
0.3298137992
0.3297881334
0.3297775342
0.3297881343
0.3298138007
0.3298412509
0.3298582812
0.3298718346
0.3298582799
0.3298365928
0.3298165048
0.3298082718
0.3298165055
0.329836594
0.3298582813
0.3298718362
)
;
    }
    procBoundary1to0
    {
        type            processor;
        value           nonuniform List<scalar> 
97
(
0.329957145
0.329957145
0.3299558903
0.3299530851
0.32994888
0.3299457312
0.3299488801
0.3299530852
0.3299558903
0.3299571451
0.3299575
0.3299530137
0.3299530137
0.3299530137
0.3299456103
0.3299318423
0.3299175008
0.3299318427
0.3299456106
0.329953014
0.3299558903
0.3299562276
0.3299529434
0.329922776
0.329922776
0.329922776
0.3298674541
0.3297799812
0.329867456
0.3299227778
0.3299456106
0.3299530852
0.3299543668
0.3299471639
0.3299220253
0.3296470238
0.3296470238
0.3296470238
0.3290303497
0.3296470359
0.3298674559
0.3299318426
0.32994888
0.329953041
0.3299417239
0.3298941828
0.3297065178
0.3239631734
0.3239631734
0.3239631734
0.329030347
0.329030347
0.3297799808
0.3299175007
0.3299457312
0.3299543668
0.3299471639
0.3299220252
0.3298491304
0.3297065163
0.3298491311
0.3298674522
0.3298674522
0.3298674522
0.3299318421
0.3299488799
0.3299562276
0.3299529434
0.3299433383
0.3299220253
0.3298941828
0.3299220255
0.3299433384
0.32994561
0.32994561
0.32994561
0.3299530851
0.3299575
0.3299562024
0.3299529434
0.3299471639
0.3299417239
0.3299471639
0.3299529434
0.3299562024
0.3299558902
0.3299558902
0.3299558902
0.3299580769
0.3299575
0.3299562276
0.3299543668
0.329953041
0.3299543668
0.3299562276
0.3299575
0.3299580769
)
;
    }
}


// ************************************************************************* //
