/*--------------------------------*- C++ -*----------------------------------*\
| =========                 |                                                 |
| \\      /  F ield         | OpenFOAM: The Open Source CFD Toolbox           |
|  \\    /   O peration     | Version:  4.x                                   |
|   \\  /    A nd           | Web:      www.OpenFOAM.org                      |
|    \\/     M anipulation  |                                                 |
\*---------------------------------------------------------------------------*/
FoamFile
{
    version     2.0;
    format      ascii;
    class       volScalarField;
    location    "3000";
    object      X_CO2;
}
// * * * * * * * * * * * * * * * * * * * * * * * * * * * * * * * * * * * * * //

dimensions      [0 0 0 0 0 0 0];

internalField   nonuniform List<scalar> 
1174
(
0.03999804411
0.04000055875
0.04000410505
0.04000872518
0.04001436805
0.04002090753
0.04002816838
0.0400359521
0.04004405828
0.04005229853
0.04006049917
0.04006847548
0.04007590045
0.04008172966
0.0400003979
0.04000441884
0.04000976657
0.04001631492
0.04002383664
0.04003205765
0.0400407008
0.04004951443
0.04005828695
0.04006685022
0.04007507179
0.04008282347
0.04008985777
0.04009528384
0.0400055897
0.04001268007
0.04002144162
0.04003137824
0.04004195542
0.04005269492
0.04006321935
0.04007326101
0.04008265073
0.0400912974
0.04009916308
0.04010622502
0.04011237041
0.04011697016
0.04001318283
0.04002417771
0.04003678404
0.04005007892
0.04006329599
0.04007588675
0.04008751013
0.04009799218
0.04010727989
0.04011539993
0.04012242407
0.04012843287
0.04013343631
0.04013705772
0.04001859353
0.04003172664
0.04004603696
0.04006051695
0.04007443991
0.0400873436
0.04009897821
0.04010924936
0.04011816804
0.0401258107
0.04013228799
0.04013771385
0.04014214002
0.0401452907
0.04001318269
0.04002417749
0.04003678377
0.04005007861
0.04006329564
0.04007588638
0.04008750976
0.04009799179
0.04010727949
0.04011539954
0.04012242368
0.04012843247
0.04013343592
0.04013705734
0.04000558958
0.04001267989
0.0400214414
0.04003137798
0.04004195512
0.04005269459
0.04006321897
0.04007326061
0.04008265029
0.04009129693
0.04009916259
0.04010622451
0.04011236987
0.04011696961
0.04000039779
0.0400044187
0.04000976641
0.04001631472
0.04002383641
0.04003205738
0.04004070049
0.04004951407
0.04005828655
0.04006684977
0.0400750713
0.04008282293
0.04008985718
0.04009528322
0.03999804402
0.04000055865
0.04000410493
0.04000872504
0.04001436788
0.04002090732
0.04002816812
0.04003595179
0.04004405792
0.04005229811
0.04006049869
0.04006847495
0.04007589986
0.04008172902
0.03999767928
0.04000039789
0.04000441882
0.04000976655
0.04001631489
0.04002383661
0.04003205762
0.04004070077
0.04004951439
0.04005828692
0.04006685018
0.04007507176
0.04008282343
0.04008985773
0.0400952838
0.04000569271
0.04001273345
0.04002130787
0.04003089921
0.04004099064
0.04005114838
0.04006105057
0.04007048314
0.04007932031
0.04008750079
0.0400950027
0.0401018068
0.04010779251
0.04011231324
0.04001899204
0.04003263457
0.04004744245
0.04006216385
0.04007594529
0.04008832464
0.04009913728
0.04010840976
0.04011627297
0.04012290167
0.04012847564
0.04013314953
0.04013699472
0.0401397623
0.04004257971
0.04006521365
0.04008670502
0.04010545526
0.0401209142
0.04013316546
0.0401425978
0.04014969885
0.04015494542
0.04015875514
0.04016147231
0.04016336989
0.04016465305
0.04016542743
0.04006478635
0.04009198162
0.04011499407
0.04013323306
0.04014707094
0.04015721988
0.0401644342
0.04016938897
0.04017264349
0.04017464217
0.04017573011
0.04017617485
0.04017619666
0.04017602649
0.04004257935
0.0400652132
0.04008670453
0.04010545474
0.04012091369
0.04013316496
0.0401425973
0.04014969837
0.04015494495
0.04015875468
0.04016147186
0.04016336945
0.04016465262
0.04016542701
0.0400189917
0.04003263419
0.04004744204
0.04006216342
0.04007594482
0.04008832414
0.04009913674
0.0401084092
0.04011627239
0.04012290107
0.04012847502
0.0401331489
0.04013699407
0.04013976164
0.04000569245
0.04001273319
0.0400213076
0.0400308989
0.04004099029
0.04005114798
0.04006105012
0.04007048263
0.04007931975
0.0400875002
0.04009500205
0.04010180612
0.04010779179
0.04011231249
0.0400003978
0.0400044187
0.0400097664
0.0400163147
0.04002383637
0.04003205733
0.04004070042
0.04004951398
0.04005828644
0.04006684964
0.04007507115
0.04008282276
0.040089857
0.04009528302
0.04000048433
0.04000558965
0.04001267997
0.04002144151
0.04003137811
0.04004195528
0.04005269477
0.04006321919
0.04007326085
0.04008265056
0.04009129723
0.04009916292
0.04010622487
0.04011237025
0.04011697001
0.04000795911
0.04001899195
0.04003263442
0.04004744227
0.04006216367
0.04007594509
0.04008832445
0.04009913709
0.04010840958
0.0401162728
0.04012290151
0.04012847549
0.04013314939
0.04013699458
0.04013976217
0.04005819439
0.040086887
0.04011282409
0.04013405755
0.04015020013
0.0401617329
0.04016948829
0.04017434602
0.04017708779
0.04017834752
0.04017861194
0.04017824601
0.04017754086
0.04017682721
0.04014520328
0.04019352741
0.04022678101
0.04024635757
0.0402555112
0.04025750716
0.04025497286
0.04024980776
0.0402432975
0.04023627148
0.04022924631
0.04022255256
0.04021650426
0.04021187837
0.04025892382
0.04030687623
0.04032737755
0.04033089548
0.04032489425
0.04031406653
0.04030118959
0.04028784106
0.04027487935
0.04026274252
0.04025163247
0.04024164788
0.04023297228
0.04022649196
0.04014520184
0.04019352598
0.04022677971
0.04024635641
0.04025551016
0.04025750623
0.04025497201
0.04024980699
0.04024329679
0.04023627082
0.04022924569
0.04022255198
0.0402165037
0.04021187783
0.04005819316
0.04008688599
0.04011282316
0.04013405662
0.04015019919
0.04016173195
0.04016948733
0.04017434507
0.04017708684
0.04017834659
0.04017861103
0.04017824511
0.04017753998
0.04017682633
0.04001899168
0.04003263413
0.04004744193
0.04006216326
0.04007594462
0.0400883239
0.04009913647
0.0401084089
0.04011627206
0.04012290072
0.04012847466
0.04013314853
0.04013699369
0.04013976125
0.04000558958
0.04001267986
0.04002144134
0.04003137786
0.04004195495
0.04005269436
0.04006321869
0.04007326027
0.0400826499
0.04009129649
0.04009916212
0.040106224
0.04011236933
0.04011696904
0.04000468943
0.04001318268
0.04002417745
0.04003678373
0.04005007856
0.0400632956
0.04007588635
0.04008750973
0.04009799178
0.0401072795
0.04011539956
0.04012242371
0.04012843253
0.04013343599
0.04013705742
0.04002172701
0.0400425795
0.04006521325
0.04008670456
0.0401054548
0.04012091376
0.04013316504
0.0401425974
0.04014969848
0.04015494508
0.04015875482
0.04016147201
0.04016336961
0.04016465279
0.04016542719
0.04008611616
0.04014520305
0.04019352692
0.04022678052
0.04024635713
0.04025551082
0.04025750684
0.04025497258
0.04024980752
0.04024329729
0.0402362713
0.04022924615
0.04022255242
0.04021650413
0.04021187824
0.04044296959
0.04050354219
0.04051335952
0.04049573793
0.0404659115
0.04043246133
0.04039972734
0.04036963806
0.04034285193
0.04031940727
0.04029907807
0.0402815922
0.04026691261
0.04025620065
0.0410263127
0.0409496991
0.04083239541
0.04072004124
0.04062463107
0.04054683517
0.04048410629
0.0404334552
0.0403922798
0.0403585197
0.04033061057
0.0403074335
0.04028846204
0.0402748387
0.04044296423
0.04050353861
0.04051335688
0.04049573583
0.04046590976
0.04043245985
0.04039972607
0.04036963695
0.04034285094
0.04031940639
0.04029907727
0.04028159147
0.04026691193
0.0402562
0.04014520177
0.04019352552
0.04022677904
0.04024635561
0.04025550929
0.04025750534
0.04025497114
0.04024980614
0.04024329597
0.04023627004
0.04022924495
0.04022255127
0.04021650303
0.04021187718
0.04004257936
0.04006521302
0.04008670418
0.04010545425
0.04012091306
0.04013316423
0.04014259649
0.0401496975
0.04015494405
0.04015875375
0.04016147091
0.0401633685
0.04016465166
0.04016542605
0.04001318271
0.04002417744
0.04003678363
0.04005007835
0.04006329527
0.04007588589
0.04008750915
0.04009799109
0.04010727871
0.04011539868
0.04012242276
0.0401284315
0.04013343491
0.04013705629
0.04000783823
0.04001859336
0.04003172634
0.0400460366
0.04006051655
0.04007443949
0.04008734316
0.04009897776
0.04010924892
0.0401181676
0.04012581028
0.04013228759
0.04013771346
0.04014213964
0.04014529033
0.04003606881
0.04006478601
0.04009198096
0.04011499337
0.04013323238
0.0401470703
0.04015721928
0.04016443364
0.04016938845
0.04017264301
0.04017464173
0.0401757297
0.04017617446
0.0401761963
0.04017602614
0.040173591
0.04025892347
0.04030687493
0.0403273763
0.04033089442
0.04032489336
0.04031406579
0.04030118896
0.04028784051
0.04027487889
0.04026274212
0.04025163211
0.04024164755
0.04023297198
0.04022649167
0.04092324496
0.04102630946
0.04094969674
0.04083239383
0.04072004016
0.04062463031
0.04054683461
0.04048410587
0.04043345489
0.04039227956
0.04035851951
0.0403306104
0.04030743334
0.04028846189
0.04027483855
0.04354185661
0.04226114516
0.04155258582
0.04113791443
0.040881107
0.04071312765
0.04059757547
0.04051447997
0.04045243129
0.04040464119
0.04036691913
0.04033664671
0.04031247032
0.04029537073
0.0410263128
0.04094969347
0.04083239041
0.04072003733
0.040624628
0.0405468327
0.04048410425
0.04043345349
0.04039227833
0.04035851842
0.04033060943
0.04030743247
0.0402884611
0.04027483782
0.04025892356
0.04030687417
0.04032737508
0.04033089297
0.04032489183
0.04031406427
0.04030118749
0.04028783911
0.04027487755
0.04026274084
0.04025163089
0.0402416464
0.04023297087
0.0402264906
0.04006478615
0.0400919809
0.04011499302
0.04013323177
0.04014706949
0.04015721832
0.04016443258
0.04016938732
0.04017264183
0.04017464052
0.04017572848
0.04017617324
0.04017619507
0.04017602491
0.04001859343
0.04003172635
0.04004603648
0.04006051628
0.04007443906
0.04008734257
0.04009897704
0.04010924807
0.04011816666
0.04012580925
0.04013228648
0.0401377123
0.04014213843
0.04014528908
0.04000468937
0.04001318255
0.04002417726
0.04003678348
0.04005007828
0.04006329528
0.04007588599
0.04008750935
0.04009799138
0.04010727908
0.04011539913
0.04012242327
0.04012843208
0.04013343553
0.04013705695
0.04002172676
0.04004257906
0.0400652127
0.04008670397
0.04010545418
0.04012091313
0.04013316441
0.04014259677
0.04014969786
0.04015494446
0.04015875422
0.04016147142
0.04016336903
0.04016465221
0.04016542661
0.04008611431
0.04014520116
0.04019352486
0.04022677859
0.04024635536
0.0402555092
0.04025750536
0.04025497123
0.04024980628
0.04024329615
0.04023627024
0.04022924515
0.04022255148
0.04021650324
0.0402118774
0.04030653826
0.04044296191
0.04050353587
0.04051335458
0.04049573395
0.04046590824
0.04043245862
0.04039972507
0.04036963613
0.04034285025
0.0403194058
0.04029907675
0.04028159101
0.04026691152
0.04025619963
0.04092324581
0.04102630871
0.04094969062
0.04083238846
0.04072003593
0.04062462697
0.04054683192
0.04048410365
0.04043345302
0.04039227794
0.0403585181
0.04033060915
0.04030743223
0.04028846088
0.04027483763
0.04030653918
0.0404429609
0.04050353449
0.04051335317
0.04049573269
0.04046590711
0.04043245762
0.04039972416
0.04036963529
0.04034284949
0.04031940509
0.04029907609
0.04028159039
0.04026691093
0.04025619906
0.04014520321
0.04019352541
0.04022677829
0.0402463546
0.0402555082
0.04025750426
0.04025497009
0.04024980514
0.04024329503
0.04023626915
0.0402292441
0.04022255047
0.04021650226
0.04021187643
0.04004257959
0.04006521297
0.04008670391
0.04010545382
0.04012091253
0.04013316363
0.04014259586
0.04014969686
0.0401549434
0.0401587531
0.04016147027
0.04016336787
0.04016465104
0.04016542543
0.04001318276
0.04002417744
0.04003678355
0.04005007821
0.04006329504
0.0400758856
0.0400875088
0.0400979907
0.04010727828
0.04011539822
0.04012242228
0.04012843101
0.0401334344
0.04013705577
0.04000048427
0.04000558952
0.04001267977
0.04002144125
0.0400313778
0.04004195491
0.04005269436
0.04006321872
0.04007326033
0.04008265
0.04009129662
0.04009916227
0.04010622418
0.04011236953
0.04011696926
0.04000795881
0.04001899154
0.04003263391
0.04004744171
0.04006216306
0.04007594443
0.04008832374
0.04009913634
0.04010840879
0.04011627197
0.04012290066
0.04012847461
0.04013314849
0.04013699367
0.04013976124
0.04003079166
0.04005819273
0.04008688533
0.04011282242
0.04013405588
0.04015019846
0.04016173126
0.04016948667
0.04017434445
0.04017708626
0.04017834604
0.04017861051
0.04017824463
0.04017753951
0.04017682589
0.0400861141
0.04014520057
0.04019352398
0.04022677753
0.04024635423
0.04025550807
0.04025750428
0.04025497021
0.04024980534
0.04024329527
0.04023626942
0.04022924439
0.04022255076
0.04021650256
0.04021187674
0.04017359045
0.04025892121
0.04030687187
0.04032737313
0.04033089138
0.04032489055
0.04031406323
0.04030118665
0.04028783841
0.04027487697
0.04026274034
0.04025163046
0.04024164601
0.04023297053
0.04022649028
0.04008611377
0.04014520002
0.04019352332
0.04022677683
0.04024635353
0.04025550739
0.04025750362
0.04025496958
0.04024980473
0.04024329469
0.04023626886
0.04022924385
0.04022255025
0.04021650206
0.04021187625
0.04003079215
0.0400581931
0.04008688542
0.04011282222
0.04013405544
0.04015019787
0.04016173055
0.0401694859
0.04017434363
0.04017708542
0.04017834519
0.04017860967
0.04017824378
0.04017753868
0.04017682505
0.04001899197
0.04003263412
0.04004744168
0.04006216282
0.04007594401
0.04008832316
0.04009913564
0.040108408
0.04011627111
0.04012289974
0.04012847365
0.0401331475
0.04013699266
0.0401397602
0.04000558969
0.04001267992
0.04002144131
0.04003137774
0.04004195473
0.04005269404
0.04006321827
0.04007325976
0.04008264932
0.04009129584
0.04009916141
0.04010622325
0.04011236853
0.04011696822
0.03999767919
0.04000039775
0.04000441862
0.0400097663
0.04001631458
0.04002383623
0.04003205718
0.04004070025
0.04004951381
0.04005828626
0.04006684946
0.04007507097
0.04008282258
0.04008985683
0.04009528286
0.04000055546
0.04000569236
0.04001273303
0.04002130739
0.04003089865
0.04004099001
0.04005114766
0.04006104978
0.04007048228
0.04007931938
0.04008749981
0.04009500167
0.04010180573
0.04010779139
0.04011231209
0.04000795876
0.04001899143
0.04003263374
0.04004744146
0.04006216273
0.04007594406
0.04008832332
0.04009913589
0.04010840833
0.04011627151
0.04012290019
0.04012847414
0.04013314803
0.04013699321
0.04013976078
0.04002172666
0.04004257878
0.04006521223
0.04008670331
0.04010545336
0.04012091219
0.0401331634
0.04014259572
0.04014969678
0.04015494338
0.04015875314
0.04016147035
0.04016336797
0.04016465117
0.04016542558
0.04003606858
0.04006478532
0.04009197988
0.04011499198
0.04013323078
0.04014706857
0.04015721749
0.04016443183
0.04016938664
0.04017264123
0.04017463997
0.04017572798
0.04017617278
0.04017619464
0.04017602451
0.0400217266
0.04004257868
0.04006521209
0.04008670312
0.04010545313
0.04012091193
0.04013316311
0.0401425954
0.04014969645
0.04015494303
0.04015875277
0.04016146997
0.04016336759
0.04016465078
0.04016542519
0.0400079588
0.04001899146
0.04003263372
0.04004744136
0.04006216255
0.04007594378
0.04008832297
0.04009913547
0.04010840785
0.04011627098
0.04012289962
0.04012847354
0.0401331474
0.04013699256
0.04013976012
0.04000055558
0.04000569249
0.04001273313
0.04002130742
0.04003089859
0.04004098985
0.04005114741
0.04006104943
0.04007048184
0.04007931887
0.04008749923
0.04009500102
0.04010180502
0.04010779064
0.0401123113
0.04000039789
0.04000441873
0.04000976636
0.04001631458
0.04002383616
0.04003205702
0.0400407
0.04004951346
0.04005828582
0.04006684893
0.04007507035
0.04008282189
0.04008985606
0.04009528203
0.03999642444
0.03999804398
0.04000055858
0.04000410483
0.0400087249
0.0400143677
0.04002090711
0.04002816787
0.0400359515
0.0400440576
0.04005229776
0.04006049832
0.04006847456
0.04007589946
0.04008172861
0.03999767919
0.04000039773
0.04000441859
0.04000976624
0.0400163145
0.04002383612
0.04003205704
0.04004070009
0.04004951362
0.04005828606
0.04006684924
0.04007507074
0.04008282234
0.04008985657
0.04009528259
0.04000048425
0.04000558946
0.04001267968
0.04002144109
0.04003137757
0.04004195461
0.04005269398
0.04006321829
0.04007325985
0.04008264947
0.04009129606
0.04009916168
0.04010622356
0.04011236889
0.04011696861
0.04000468935
0.04001318247
0.04002417708
0.04003678318
0.04005007784
0.04006329471
0.04007588531
0.04008750857
0.04009799052
0.04010727814
0.04011539813
0.04012242223
0.040128431
0.04013343442
0.04013705582
0.04000783816
0.04001859314
0.04003172595
0.04004603601
0.04006051577
0.04007443853
0.04008734205
0.04009897653
0.04010924758
0.04011816618
0.04012580879
0.04013228605
0.04013771189
0.04014213804
0.04014528871
0.04000468935
0.04001318247
0.04002417708
0.04003678318
0.04005007783
0.04006329468
0.04007588526
0.04008750848
0.0400979904
0.04010727799
0.04011539795
0.04012242203
0.04012843077
0.04013343417
0.04013705555
0.04000048425
0.04000558946
0.04001267966
0.04002144106
0.04003137749
0.04004195449
0.04005269381
0.04006321806
0.04007325957
0.04008264914
0.04009129568
0.04009916126
0.0401062231
0.0401123684
0.04011696809
0.0399976792
0.04000039776
0.04000441861
0.04000976625
0.04001631447
0.04002383604
0.0400320569
0.04004069988
0.04004951335
0.04005828571
0.04006684882
0.04007507025
0.04008282179
0.04008985597
0.04009528195
0.03999642448
0.03999804403
0.04000055864
0.04000410487
0.04000872492
0.04001436768
0.04002090703
0.04002816773
0.0400359513
0.04004405731
0.0400522974
0.04006049787
0.04006847404
0.04007589886
0.04008172794
)
;

boundaryField
{
    top
    {
        type            calculated;
        value           nonuniform List<scalar> 
127
(
0.03999642448
0.03999804402
0.0400003978
0.04000558958
0.04001318271
0.04001859343
0.04001318276
0.04000558969
0.04000039789
0.03999804403
0.04000055865
0.0400044187
0.04001267986
0.04002417744
0.04003172635
0.04002417744
0.04001267992
0.04000441873
0.04000055864
0.04000410493
0.0400097664
0.04002144134
0.04003678363
0.04004603648
0.04003678355
0.04002144131
0.04000976636
0.04000410487
0.04000872504
0.0400163147
0.04003137786
0.04005007835
0.04006051628
0.04005007821
0.04003137774
0.04001631458
0.04000872492
0.04001436788
0.04002383637
0.04004195495
0.04006329527
0.04007443906
0.04006329504
0.04004195473
0.04002383616
0.04001436768
0.04002090732
0.04003205733
0.04005269436
0.04007588589
0.04008734257
0.0400758856
0.04005269404
0.04003205702
0.04002090703
0.04002816812
0.04004070042
0.04006321869
0.04008750915
0.04009897704
0.0400875088
0.04006321827
0.0400407
0.04002816773
0.04003595179
0.04004951398
0.04007326027
0.04009799109
0.04010924807
0.0400979907
0.04007325976
0.04004951346
0.0400359513
0.04004405792
0.04005828644
0.0400826499
0.04010727871
0.04011816666
0.04010727828
0.04008264932
0.04005828582
0.04004405731
0.04005229811
0.04006684964
0.04009129649
0.04011539868
0.04012580925
0.04011539822
0.04009129584
0.04006684893
0.0400522974
0.04006049869
0.04007507115
0.04009916212
0.04012242276
0.04013228648
0.04012242228
0.04009916141
0.04007507035
0.04006049787
0.04006847495
0.04008282276
0.040106224
0.0401284315
0.0401377123
0.04012843101
0.04010622325
0.04008282189
0.04006847404
0.04007589986
0.040089857
0.04011236933
0.04013343491
0.04014213843
0.0401334344
0.04011236853
0.04008985606
0.04007589886
0.04008172902
0.04009528302
0.04011696904
0.04013705629
0.04014528908
0.04013705577
0.04011696822
0.04009528203
0.04008172794
)
;
    }
    bottom
    {
        type            calculated;
        value           nonuniform List<scalar> 
134
(
0.03999767928
0.04000048433
0.04000468943
0.04000783823
0.04000468937
0.04000048427
0.03999767919
0.03999642444
0.03999804411
0.04000039789
0.04000558965
0.04001318268
0.04001859336
0.04001318255
0.04000558952
0.04000039775
0.03999804398
0.04000055875
0.04000441882
0.04001267997
0.04002417745
0.04003172634
0.04002417726
0.04001267977
0.04000441862
0.04000055858
0.04000410505
0.04000976655
0.04002144151
0.04003678373
0.0400460366
0.04003678348
0.04002144125
0.0400097663
0.04000410483
0.04000872518
0.04001631489
0.04003137811
0.04005007856
0.04006051655
0.04005007828
0.0400313778
0.04001631458
0.0400087249
0.04001436805
0.04002383661
0.04004195528
0.0400632956
0.04007443949
0.04006329528
0.04004195491
0.04002383623
0.0400143677
0.04002090753
0.04003205762
0.04005269477
0.04007588635
0.04008734316
0.04007588599
0.04005269436
0.04003205718
0.04002090711
0.04002816838
0.04004070077
0.04006321919
0.04008750973
0.04009897776
0.04008750935
0.04006321872
0.04004070025
0.04002816787
0.0400359521
0.04004951439
0.04007326085
0.04009799178
0.04010924892
0.04009799138
0.04007326033
0.04004951381
0.0400359515
0.04004405828
0.04005828692
0.04008265056
0.0401072795
0.0401181676
0.04010727908
0.04008265
0.04005828626
0.0400440576
0.04005229853
0.04006685018
0.04009129723
0.04011539956
0.04012581028
0.04011539913
0.04009129662
0.04006684946
0.04005229776
0.04006049917
0.04007507176
0.04009916292
0.04012242371
0.04013228759
0.04012242327
0.04009916227
0.04007507097
0.04006049832
0.04006847548
0.04008282343
0.04010622487
0.04012843253
0.04013771346
0.04012843208
0.04010622418
0.04008282258
0.04006847456
0.04007590045
0.04008985773
0.04011237025
0.04013343599
0.04014213964
0.04013343553
0.04011236953
0.04008985683
0.04007589946
0.04008172966
0.0400952838
0.04011697001
0.04013705742
0.04014529033
0.04013705695
0.04011696926
0.04009528286
0.04008172861
)
;
    }
    side-walls
    {
        type            calculated;
        value           nonuniform List<scalar> 
261
(
0.03999804411
0.0400003979
0.0400055897
0.04001318283
0.04001859353
0.04001318269
0.04000558958
0.04000039779
0.03999804402
0.04000055875
0.04000441884
0.04001268007
0.04002417771
0.04003172664
0.04002417749
0.04001267989
0.0400044187
0.04000055865
0.04000410505
0.04000976657
0.04002144162
0.04003678404
0.04004603696
0.04003678377
0.0400214414
0.04000976641
0.04000410493
0.04000872518
0.04001631492
0.04003137824
0.04005007892
0.04006051695
0.04005007861
0.04003137798
0.04001631472
0.04000872504
0.04001436805
0.04002383664
0.04004195542
0.04006329599
0.04007443991
0.04006329564
0.04004195512
0.04002383641
0.04001436788
0.04002090753
0.04003205765
0.04005269492
0.04007588675
0.0400873436
0.04007588638
0.04005269459
0.04003205738
0.04002090732
0.04002816838
0.0400407008
0.04006321935
0.04008751013
0.04009897821
0.04008750976
0.04006321897
0.04004070049
0.04002816812
0.0400359521
0.04004951443
0.04007326101
0.04009799218
0.04010924936
0.04009799179
0.04007326061
0.04004951407
0.04003595179
0.04004405828
0.04005828695
0.04008265073
0.04010727989
0.04011816804
0.04010727949
0.04008265029
0.04005828655
0.04004405792
0.04005229853
0.04006685022
0.0400912974
0.04011539993
0.0401258107
0.04011539954
0.04009129693
0.04006684977
0.04005229811
0.04006049917
0.04007507179
0.04009916308
0.04012242407
0.04013228799
0.04012242368
0.04009916259
0.0400750713
0.04006049869
0.04006847548
0.04008282347
0.04010622502
0.04012843287
0.04013771385
0.04012843247
0.04010622451
0.04008282293
0.04006847495
0.04007590045
0.04008985777
0.04011237041
0.04013343631
0.04014214002
0.04013343592
0.04011236987
0.04008985718
0.04007589986
0.04008172966
0.04009528384
0.04011697016
0.04013705772
0.0401452907
0.04013705734
0.04011696961
0.04009528322
0.04008172902
0.03999642444
0.03999767919
0.04000048425
0.04000468935
0.04000783816
0.04000468935
0.04000048425
0.0399976792
0.03999642448
0.03999804398
0.04000039773
0.04000558946
0.04001318247
0.04001859314
0.04001318247
0.04000558946
0.04000039776
0.03999804403
0.04000055858
0.04000441859
0.04001267968
0.04002417708
0.04003172595
0.04002417708
0.04001267966
0.04000441861
0.04000055864
0.04000410483
0.04000976624
0.04002144109
0.04003678318
0.04004603601
0.04003678318
0.04002144106
0.04000976625
0.04000410487
0.0400087249
0.0400163145
0.04003137757
0.04005007784
0.04006051577
0.04005007783
0.04003137749
0.04001631447
0.04000872492
0.0400143677
0.04002383612
0.04004195461
0.04006329471
0.04007443853
0.04006329468
0.04004195449
0.04002383604
0.04001436768
0.04002090711
0.04003205704
0.04005269398
0.04007588531
0.04008734205
0.04007588526
0.04005269381
0.0400320569
0.04002090703
0.04002816787
0.04004070009
0.04006321829
0.04008750857
0.04009897653
0.04008750848
0.04006321806
0.04004069988
0.04002816773
0.0400359515
0.04004951362
0.04007325985
0.04009799052
0.04010924758
0.0400979904
0.04007325957
0.04004951335
0.0400359513
0.0400440576
0.04005828606
0.04008264947
0.04010727814
0.04011816618
0.04010727799
0.04008264914
0.04005828571
0.04004405731
0.04005229776
0.04006684924
0.04009129606
0.04011539813
0.04012580879
0.04011539795
0.04009129568
0.04006684882
0.0400522974
0.04006049832
0.04007507074
0.04009916168
0.04012242223
0.04013228605
0.04012242203
0.04009916126
0.04007507025
0.04006049787
0.04006847456
0.04008282234
0.04010622356
0.040128431
0.04013771189
0.04012843077
0.0401062231
0.04008282179
0.04006847404
0.04007589946
0.04008985657
0.04011236889
0.04013343442
0.04014213804
0.04013343417
0.0401123684
0.04008985597
0.04007589886
0.04008172861
0.04009528259
0.04011696861
0.04013705582
0.04014528871
0.04013705555
0.04011696809
0.04009528195
0.04008172794
)
;
    }
    inlet
    {
        type            calculated;
        value           nonuniform 0();
    }
    outlet
    {
        type            calculated;
        value           nonuniform List<scalar> 
81
(
0.04008172966
0.04009528384
0.04011697016
0.04013705772
0.0401452907
0.04013705734
0.04011696961
0.04009528322
0.04008172902
0.0400952838
0.04011231324
0.0401397623
0.04016542743
0.04017602649
0.04016542701
0.04013976164
0.04011231249
0.04009528302
0.04011697001
0.04013976217
0.04017682721
0.04021187837
0.04022649196
0.04021187783
0.04017682633
0.04013976125
0.04011696904
0.04013705742
0.04016542719
0.04021187824
0.04025620065
0.0402748387
0.0402562
0.04021187718
0.04016542605
0.04013705629
0.04014529033
0.04017602614
0.04022649167
0.04027483855
0.04029537073
0.04027483782
0.0402264906
0.04017602491
0.04014528908
0.04013705695
0.04016542661
0.0402118774
0.04025619963
0.04027483763
0.04025619906
0.04021187643
0.04016542543
0.04013705577
0.04011696926
0.04013976124
0.04017682589
0.04021187674
0.04022649028
0.04021187625
0.04017682505
0.0401397602
0.04011696822
0.04009528286
0.04011231209
0.04013976078
0.04016542558
0.04017602451
0.04016542519
0.04013976012
0.0401123113
0.04009528203
0.04008172861
0.04009528259
0.04011696861
0.04013705582
0.04014528871
0.04013705555
0.04011696809
0.04009528195
0.04008172794
)
;
    }
    procBoundary1to0
    {
        type            processor;
        value           nonuniform List<scalar> 
97
(
0.03999642449
0.03999642449
0.03999767922
0.04000048425
0.04000468932
0.04000783807
0.04000468923
0.04000048417
0.03999767915
0.03999642442
0.03999606956
0.0400005556
0.0400005556
0.0400005556
0.04000795885
0.04002172664
0.04003606833
0.04002172636
0.0400079586
0.04000055538
0.03999767915
0.03999734191
0.04000062601
0.04003079237
0.04003079237
0.04003079237
0.04008611436
0.04017358919
0.04008611293
0.04003079111
0.0400079586
0.04000048418
0.03999920262
0.04000640538
0.04003154367
0.04030654422
0.04030654422
0.04030654422
0.04092323889
0.04030653556
0.040086113
0.04002172643
0.04000468926
0.0400005284
0.0400118453
0.04005938596
0.04024705264
0.0459905917
0.0459905917
0.0459905917
0.04092324075
0.04092324075
0.04017358945
0.04003606834
0.04000783806
0.03999920261
0.04000640535
0.04003154353
0.04010443794
0.04024705346
0.04010443771
0.04008611544
0.04008611544
0.04008611544
0.04002172674
0.04000468933
0.0399973419
0.040000626
0.04001023078
0.04003154348
0.04005938588
0.04003154333
0.04001023079
0.04000795901
0.04000795901
0.04000795901
0.04000048429
0.03999606955
0.03999736708
0.04000062598
0.04000640533
0.04001184526
0.0400064053
0.04000062597
0.03999736709
0.03999767926
0.03999767926
0.03999767926
0.03999549268
0.03999606955
0.0399973419
0.03999920261
0.04000052839
0.03999920262
0.03999734189
0.03999606955
0.03999549269
)
;
    }
}


// ************************************************************************* //
