/*--------------------------------*- C++ -*----------------------------------*\
| =========                 |                                                 |
| \\      /  F ield         | OpenFOAM: The Open Source CFD Toolbox           |
|  \\    /   O peration     | Version:  4.x                                   |
|   \\  /    A nd           | Web:      www.OpenFOAM.org                      |
|    \\/     M anipulation  |                                                 |
\*---------------------------------------------------------------------------*/
FoamFile
{
    version     2.0;
    format      ascii;
    class       volScalarField;
    location    "3000";
    object      X_H2O;
}
// * * * * * * * * * * * * * * * * * * * * * * * * * * * * * * * * * * * * * //

dimensions      [0 0 0 0 0 0 0];

internalField   nonuniform List<scalar> 
1174
(
2.842966599e-06
3.806925617e-06
5.166133048e-06
6.936570095e-06
9.098437964e-06
1.160318345e-05
1.438344908e-05
1.736301564e-05
2.046497251e-05
2.361707945e-05
2.675278664e-05
2.980145053e-05
3.263823838e-05
3.486464106e-05
3.746051072e-06
5.287777687e-06
7.337837148e-06
9.847576753e-06
1.272961564e-05
1.587866411e-05
1.91883139e-05
2.256200454e-05
2.591860323e-05
2.919367548e-05
3.233654711e-05
3.529826734e-05
3.798455567e-05
4.005583569e-05
5.738221437e-06
8.457394361e-06
1.181672524e-05
1.562557631e-05
1.967869693e-05
2.379253632e-05
2.782232554e-05
3.166546769e-05
3.525719323e-05
3.856270416e-05
4.156765386e-05
4.42635834e-05
4.660788619e-05
4.836149141e-05
8.652273444e-06
1.286940497e-05
1.77033696e-05
2.279974909e-05
2.786440916e-05
3.268696492e-05
3.713672043e-05
4.114714352e-05
4.469813691e-05
4.780016782e-05
5.048100035e-05
5.277184551e-05
5.467722699e-05
5.605492469e-05
1.072911819e-05
1.576663991e-05
2.125409156e-05
2.680462765e-05
3.21394107e-05
3.708124297e-05
4.153450135e-05
4.546324443e-05
4.887195462e-05
5.179021585e-05
5.426072162e-05
5.632750022e-05
5.801107849e-05
5.920794679e-05
8.652184003e-06
1.286927555e-05
1.77031899e-05
2.279951499e-05
2.786410805e-05
3.268659769e-05
3.713628469e-05
4.114664009e-05
4.469756967e-05
4.779953607e-05
5.048031328e-05
5.277110887e-05
5.467644124e-05
5.605409264e-05
5.738121742e-06
8.457263005e-06
1.181655229e-05
1.562534009e-05
1.967837653e-05
2.379211351e-05
2.782179116e-05
3.166481415e-05
3.525641198e-05
3.856180703e-05
4.156663773e-05
4.426245869e-05
4.660665932e-05
4.836015631e-05
3.745963879e-06
5.287677596e-06
7.337711265e-06
9.84740463e-06
1.272937358e-05
1.587832702e-05
1.918785885e-05
2.256141244e-05
2.59178613e-05
2.919277595e-05
3.233548409e-05
3.529704777e-05
3.798317749e-05
4.005431256e-05
2.842903388e-06
3.806864372e-06
5.166060272e-06
6.936465732e-06
9.098277778e-06
1.160294085e-05
1.438309491e-05
1.736252792e-05
2.046432577e-05
2.361625312e-05
2.675176838e-05
2.980023255e-05
3.263681397e-05
3.486301034e-05
2.703430081e-06
3.7459804e-06
5.28771071e-06
7.337770039e-06
9.847509024e-06
1.272954846e-05
1.587859683e-05
1.91882484e-05
2.256193739e-05
2.59185356e-05
2.919360739e-05
3.233647724e-05
3.52982009e-05
3.79844932e-05
4.005577209e-05
5.777961145e-06
8.478150502e-06
1.176578862e-05
1.544231544e-05
1.930927317e-05
2.320016644e-05
2.699155034e-05
3.060137675e-05
3.398151285e-05
3.710858832e-05
3.997438256e-05
4.25717821e-05
4.485517052e-05
4.657867964e-05
1.088232825e-05
1.611543454e-05
2.179396685e-05
2.74373465e-05
3.271808406e-05
3.745905446e-05
4.159734454e-05
4.514340149e-05
4.814771832e-05
5.067757123e-05
5.280214924e-05
5.458105824e-05
5.604231613e-05
5.709262484e-05
1.993687797e-05
2.862003847e-05
3.686188027e-05
4.404902356e-05
4.997079391e-05
5.46598028e-05
5.826575939e-05
6.097620703e-05
6.297443934e-05
6.44209571e-05
6.544807151e-05
6.616075349e-05
6.66383153e-05
6.692344483e-05
2.846276014e-05
3.889593208e-05
4.772019494e-05
5.470943311e-05
6.000734585e-05
6.388799005e-05
6.66414089e-05
6.852711764e-05
6.976004033e-05
7.051092793e-05
7.091236858e-05
7.106722553e-05
7.10605678e-05
7.098313079e-05
1.993657547e-05
2.861967429e-05
3.686144529e-05
4.404850909e-05
4.99701891e-05
5.465911286e-05
5.826498976e-05
6.097537448e-05
6.297354823e-05
6.442001662e-05
6.544708669e-05
6.615973749e-05
6.663727266e-05
6.692237069e-05
1.088201966e-05
1.611510724e-05
2.179358323e-05
2.743685494e-05
3.271746242e-05
3.745827711e-05
4.159640581e-05
4.514232118e-05
4.814650058e-05
5.067622134e-05
5.280068251e-05
5.457948838e-05
5.604066644e-05
5.709090057e-05
5.77776552e-06
8.477973344e-06
1.176557333e-05
1.544201138e-05
1.930884366e-05
2.319958332e-05
2.699079182e-05
3.060042978e-05
3.398037965e-05
3.710727336e-05
3.99728911e-05
4.257012107e-05
4.485335152e-05
4.65767219e-05
3.745971646e-06
5.287678609e-06
7.33769659e-06
9.847363239e-06
1.272929507e-05
1.587820228e-05
1.918767965e-05
2.256117417e-05
2.591755965e-05
2.919240749e-05
3.233505258e-05
3.529655095e-05
3.798261648e-05
4.005366778e-05
3.779793999e-06
5.738040766e-06
8.457197255e-06
1.181651779e-05
1.562535857e-05
1.967847152e-05
2.379231097e-05
2.782209899e-05
3.166523913e-05
3.525696563e-05
3.856248088e-05
4.156743508e-05
4.426337482e-05
4.66076814e-05
4.836128908e-05
6.649077074e-06
1.088206693e-05
1.611519516e-05
2.1793738e-05
2.743712195e-05
3.27178677e-05
3.745884333e-05
4.159713779e-05
4.514321336e-05
4.814753511e-05
5.067739772e-05
5.280198077e-05
5.458089054e-05
5.604215923e-05
5.70924828e-05
2.593138775e-05
3.693917996e-05
4.688612089e-05
5.502482772e-05
6.12073882e-05
6.561917745e-05
6.858029388e-05
7.04288338e-05
7.146512241e-05
7.193263399e-05
7.201831017e-05
7.186237699e-05
7.157706143e-05
7.129132734e-05
5.933800181e-05
7.787813279e-05
9.062792207e-05
9.812429351e-05
0.0001016181866
0.0001023642593
0.000101371844
9.937039245e-05
9.685350709e-05
9.413953918e-05
9.142673058e-05
8.884194184e-05
8.650605293e-05
8.471905318e-05
0.0001030072211
0.0001213994979
0.0001292477041
0.0001305740218
0.0001282461619
0.0001240667173
0.0001191022134
0.0001139582994
0.0001089643637
0.0001042883411
0.0001000075577
9.61597624e-05
9.281565639e-05
9.031709305e-05
5.933665163e-05
7.787685279e-05
9.062661039e-05
9.812288473e-05
0.0001016167024
0.0001023627155
0.0001013702538
9.936878138e-05
9.685189911e-05
9.413795718e-05
9.142517472e-05
8.884040935e-05
8.65045442e-05
8.471753884e-05
2.593040388e-05
3.693834207e-05
4.688517663e-05
5.502365721e-05
6.120597679e-05
6.561752019e-05
6.857843121e-05
7.04268159e-05
7.146298285e-05
7.193040923e-05
7.201602877e-05
7.186004535e-05
7.157470996e-05
7.128892631e-05
1.088203074e-05
1.611505742e-05
2.179343905e-05
2.743659715e-05
3.27170767e-05
3.74577765e-05
4.15957915e-05
4.514160908e-05
4.81457031e-05
5.067534829e-05
5.279975741e-05
5.457851338e-05
5.603964083e-05
5.708982704e-05
5.738141576e-06
8.457244457e-06
1.181646025e-05
1.562513888e-05
1.967803804e-05
2.379162175e-05
2.782113261e-05
3.166398987e-05
3.525543028e-05
3.856066874e-05
4.156535152e-05
4.426103976e-05
4.660511685e-05
4.83584807e-05
5.393680356e-06
8.651949033e-06
1.286902958e-05
1.77029535e-05
2.279930842e-05
2.786395103e-05
3.268650292e-05
3.713625806e-05
4.114668682e-05
4.469768756e-05
4.779972695e-05
5.048058029e-05
5.277143794e-05
5.467683829e-05
5.605454344e-05
1.19343564e-05
1.993628169e-05
2.861943855e-05
3.68612977e-05
4.404846111e-05
4.997025989e-05
5.465930132e-05
5.826528436e-05
6.097576139e-05
6.297401203e-05
6.442055945e-05
6.544769098e-05
6.616038987e-05
6.663797711e-05
6.692312318e-05
3.665853712e-05
5.933688768e-05
7.787726878e-05
9.062721573e-05
9.812369859e-05
0.0001016176732
0.0001023638403
0.00010137146
9.937005728e-05
9.685319166e-05
9.41392652e-05
9.142647933e-05
8.8841716e-05
8.650584474e-05
8.471885525e-05
0.000173683074
0.0001969101345
0.0002006456345
0.0001938468548
0.000182365259
0.0001694961547
0.0001569055914
0.0001453334539
0.0001350319456
0.0001260151806
0.0001181959574
0.0001114695066
0.0001058216602
0.0001016995778
0.0003977243758
0.0003682427135
0.0003231446094
0.0002799582663
0.0002432880463
0.0002133889375
0.0001892807486
0.0001698140639
0.0001539885683
0.0001410122514
0.0001302838705
0.0001213734614
0.0001140788617
0.0001088398009
0.0001736783673
0.0001969067858
0.0002006424912
0.0001938437117
0.0001823621455
0.0001694931343
0.0001569027218
0.000145330753
0.0001350293931
0.0001260127777
0.0001181936894
0.0001114673579
0.0001058196229
0.000101697584
5.933676514e-05
7.787640174e-05
9.062560606e-05
9.812145586e-05
0.0001016149752
0.0001023608128
0.0001013682534
9.936675478e-05
9.684987493e-05
9.413595318e-05
9.142322234e-05
8.883850615e-05
8.650269069e-05
8.471570889e-05
1.993665482e-05
2.861947547e-05
3.686087238e-05
4.404753606e-05
4.996884222e-05
5.465744741e-05
5.82630615e-05
6.097323691e-05
6.297125266e-05
6.441760335e-05
6.544458574e-05
6.615716289e-05
6.663465117e-05
6.691969265e-05
8.652241423e-06
1.286921398e-05
1.770292429e-05
2.279897788e-05
2.78632626e-05
3.268542435e-05
3.71347891e-05
4.114484268e-05
4.469549032e-05
4.77972072e-05
5.04777617e-05
5.276836974e-05
5.46735348e-05
5.605100107e-05
6.602415957e-06
1.072874623e-05
1.576619542e-05
2.125358676e-05
2.680407592e-05
3.213883815e-05
3.708064938e-05
4.153390285e-05
4.546265063e-05
4.887136932e-05
5.178964307e-05
5.42601656e-05
5.632695578e-05
5.801054904e-05
5.92074343e-05
1.744108114e-05
2.846198603e-05
3.889509233e-05
4.771932723e-05
5.470858042e-05
6.000653727e-05
6.388721107e-05
6.664068043e-05
6.852643192e-05
6.975939267e-05
7.051031821e-05
7.091179452e-05
7.106668008e-05
7.106004761e-05
7.098262611e-05
7.025169529e-05
0.0001030054323
0.0001213977198
0.0001292461184
0.000130572652
0.0001282450092
0.0001240657436
0.0001191013732
0.0001139575603
0.0001089637053
0.000104287763
0.000100007026
9.615927026e-05
9.281520928e-05
9.031666673e-05
0.0003581919318
0.0003977189523
0.0003682392984
0.0003231423525
0.0002799567108
0.0002432869129
0.0002133880686
0.0001892800946
0.0001698135318
0.0001539881307
0.0001410118851
0.0001302835395
0.0001213731702
0.0001140785872
0.000108839549
0.001363987255
0.0008719250492
0.0005997041668
0.0004403982503
0.0003417420264
0.0002772109327
0.0002328200178
0.0002008969989
0.0001770586312
0.0001586971811
0.000144202835
0.0001325697663
0.000123278186
0.0001167054969
0.0003977247509
0.0003682376775
0.0003231381337
0.0002799518644
0.0002432821437
0.0002133836669
0.0001892760625
0.0001698098997
0.0001539848023
0.0001410088587
0.0001302807634
0.0001213706004
0.0001140761917
0.0001088372556
0.0001030075511
0.0001213974873
0.0001292441044
0.0001305695185
0.000128241232
0.000124061647
0.0001190971735
0.0001139533931
0.0001089596064
0.0001042837815
0.0001000031596
9.615554251e-05
9.281158083e-05
9.031309889e-05
2.846287945e-05
3.889530917e-05
4.771875599e-05
5.47072614e-05
6.000457625e-05
6.388473583e-05
6.663780596e-05
6.8523262e-05
6.975599906e-05
7.050676482e-05
7.090812445e-05
7.106291894e-05
7.105622795e-05
7.09787317e-05
1.072917686e-05
1.576644412e-05
2.125350784e-05
2.680358095e-05
3.213787752e-05
3.707921503e-05
4.153201424e-05
4.546033916e-05
4.886867907e-05
5.178661728e-05
5.425684359e-05
5.632338379e-05
5.800675315e-05
5.920339912e-05
5.393660353e-06
8.651868983e-06
1.286887784e-05
1.770272159e-05
2.279898568e-05
2.786353992e-05
3.268599727e-05
3.713565828e-05
4.114600841e-05
4.469693203e-05
4.779890062e-05
5.047968668e-05
5.277048966e-05
5.46758391e-05
5.605350098e-05
1.193415274e-05
1.993590361e-05
2.861890353e-05
3.686062089e-05
4.404766029e-05
4.996933578e-05
5.465827924e-05
5.826418047e-05
6.09745888e-05
6.297279535e-05
6.441929535e-05
6.544640626e-05
6.615907831e-05
6.663663416e-05
6.692175707e-05
3.665643393e-05
5.933491928e-05
7.787509737e-05
9.06249309e-05
9.812135625e-05
0.0001016153083
0.0001023614713
0.0001013691384
9.936777318e-05
9.685097972e-05
9.413712515e-05
9.142440531e-05
8.883970894e-05
8.650388119e-05
8.47169188e-05
0.0001213071821
0.0001736737141
0.0001969029679
0.000200639439
0.0001938412565
0.0001823601839
0.0001694915486
0.000156901417
0.0001453296632
0.0001350284688
0.00012601198
0.0001181929902
0.0001114667232
0.0001058190474
0.0001016970599
0.0003581914281
0.0003977176495
0.000368233205
0.0003231352126
0.0002799497962
0.0002432806774
0.0002133825464
0.0001892752068
0.0001698092286
0.0001539842489
0.0001410083737
0.0001302803554
0.0001213702287
0.0001140758812
0.000108836968
0.0001213086735
0.0001736734768
0.000196901076
0.0002006365245
0.0001938378771
0.0001823566595
0.0001694880823
0.0001568981182
0.0001453265478
0.0001350255427
0.0001260092546
0.0001181904345
0.0001114643404
0.0001058167938
0.0001016948656
5.933799254e-05
7.787574115e-05
9.062384773e-05
9.811909463e-05
0.0001016122891
0.0001023580147
0.0001013654498
9.936399702e-05
9.684720978e-05
9.41333777e-05
9.142073086e-05
8.883612361e-05
8.650038047e-05
8.471345558e-05
1.99370387e-05
2.861940632e-05
3.686036853e-05
4.404666231e-05
4.99676888e-05
5.465609002e-05
5.826155676e-05
6.097162948e-05
6.296957383e-05
6.441587914e-05
6.544283807e-05
6.615541761e-05
6.663289674e-05
6.691791675e-05
8.652357694e-06
1.286922281e-05
1.770276977e-05
2.279863405e-05
2.786272932e-05
3.268471141e-05
3.713391139e-05
4.114382597e-05
4.46943577e-05
4.779597608e-05
5.047645239e-05
5.27669926e-05
5.467209769e-05
5.604951188e-05
3.779750748e-06
5.737925824e-06
8.457000696e-06
1.181622384e-05
1.562495192e-05
1.967793459e-05
2.379162765e-05
2.782127172e-05
3.166426614e-05
3.525584254e-05
3.856121865e-05
4.156603854e-05
4.426184696e-05
4.660604055e-05
4.835954294e-05
6.648731457e-06
1.088161263e-05
1.611460214e-05
2.179299753e-05
2.743621025e-05
3.271677827e-05
3.745757122e-05
4.159569244e-05
4.514160395e-05
4.814577815e-05
5.067551744e-05
5.27999916e-05
5.457881053e-05
5.60399972e-05
5.709023961e-05
1.541419405e-05
2.592941096e-05
3.693722001e-05
4.688399934e-05
5.5022487e-05
6.120482886e-05
6.561642939e-05
6.857738975e-05
7.042583699e-05
7.146205198e-05
7.19295382e-05
7.201520203e-05
7.185927731e-05
7.157397452e-05
7.128823167e-05
3.665639177e-05
5.933444236e-05
7.787408023e-05
9.062344813e-05
9.811952569e-05
0.0001016132452
0.0001023592965
0.0001013669133
9.936558061e-05
9.684883535e-05
9.413502105e-05
9.142238325e-05
8.883774459e-05
8.650197893e-05
8.471505337e-05
7.025155296e-05
0.0001030035933
0.0001213941328
0.0001292413751
0.0001305673087
0.0001282394409
0.0001240601702
0.0001190959689
0.0001139523571
0.0001089587243
0.0001042830089
0.0001000024882
9.61549461e-05
9.281104623e-05
9.03125941e-05
3.665620071e-05
5.933390817e-05
7.787306359e-05
9.062197354e-05
9.811770806e-05
0.0001016112493
0.0001023571862
0.0001013647736
9.936342546e-05
9.684672631e-05
9.413297425e-05
9.14203752e-05
8.883581018e-05
8.650009226e-05
8.471319489e-05
1.541489708e-05
2.592991044e-05
3.693715476e-05
4.688326713e-05
5.502113106e-05
6.120297285e-05
6.561418116e-05
6.857487292e-05
7.042313095e-05
7.145922895e-05
7.192663745e-05
7.201227196e-05
7.185632981e-05
7.157101123e-05
7.128524681e-05
1.088230744e-05
1.611490485e-05
2.179284771e-05
2.743558414e-05
3.271568018e-05
3.745604814e-05
4.1593786e-05
4.5139367e-05
4.814327164e-05
5.067277179e-05
5.279705517e-05
5.457571717e-05
5.603677277e-05
5.708688838e-05
5.738280407e-06
8.457257098e-06
1.181627871e-05
1.562471869e-05
1.9677357e-05
2.379067673e-05
2.781992997e-05
3.166254494e-05
3.525375452e-05
3.855879077e-05
4.156329837e-05
4.425883056e-05
4.660276751e-05
4.835601528e-05
2.703347229e-06
3.745846068e-06
5.287509574e-06
7.337488204e-06
9.84712409e-06
1.272903864e-05
1.587794134e-05
1.918742574e-05
2.256094042e-05
2.591735029e-05
2.919223279e-05
3.233491495e-05
3.529645615e-05
3.798257125e-05
4.005369564e-05
3.807159738e-06
5.777547681e-06
8.477678159e-06
1.176520487e-05
1.544157479e-05
1.93083479e-05
2.319904051e-05
2.699021053e-05
3.059981693e-05
3.397974835e-05
3.710662541e-05
3.997222558e-05
4.256945672e-05
4.485268861e-05
4.65760544e-05
6.648714456e-06
1.088154578e-05
1.611444322e-05
2.179272144e-05
2.743581121e-05
3.271624877e-05
3.745692393e-05
4.159493234e-05
4.514076094e-05
4.81448614e-05
5.067452992e-05
5.279895465e-05
5.457773913e-05
5.603889377e-05
5.708910087e-05
1.193414098e-05
1.99356742e-05
2.861833054e-05
3.68596538e-05
4.404629531e-05
4.996763327e-05
5.465628184e-05
5.8261952e-05
6.097219182e-05
6.297026845e-05
6.441668291e-05
6.544372463e-05
6.61563595e-05
6.663388776e-05
6.691897047e-05
1.744103877e-05
2.846137899e-05
3.889373303e-05
4.771720769e-05
5.470580432e-05
6.000323341e-05
6.388351228e-05
6.663669314e-05
6.852224166e-05
6.975506852e-05
7.050591806e-05
7.090734248e-05
7.106220757e-05
7.105556082e-05
7.097810326e-05
1.193405123e-05
1.993547278e-05
2.861795775e-05
3.685908566e-05
4.40455395e-05
4.99667016e-05
5.465520534e-05
5.826077315e-05
6.097093079e-05
6.296894369e-05
6.441530498e-05
6.544231342e-05
6.615493063e-05
6.663244372e-05
6.691749879e-05
6.648759286e-06
1.088155159e-05
1.611429117e-05
2.17923307e-05
2.743513162e-05
3.271528025e-05
3.745568754e-05
4.159345828e-05
4.513907331e-05
4.814300472e-05
5.067252691e-05
5.27968306e-05
5.457551262e-05
5.603657683e-05
5.708670314e-05
3.807307738e-06
5.777703084e-06
8.477743864e-06
1.176509832e-05
1.544124011e-05
1.930774517e-05
2.319815511e-05
2.69890377e-05
3.059837143e-05
3.397803163e-05
3.710466763e-05
3.997004921e-05
4.256706846e-05
4.485011836e-05
4.657332925e-05
3.746055727e-06
5.287654771e-06
7.337521534e-06
9.846992868e-06
1.272869009e-05
1.587733573e-05
1.918653703e-05
2.255974463e-05
2.591584325e-05
2.919041749e-05
3.233279943e-05
3.529405228e-05
3.797989549e-05
4.005075318e-05
2.221919402e-06
2.842822827e-06
3.806744496e-06
5.16589307e-06
6.936246683e-06
9.098003471e-06
1.160261196e-05
1.438271454e-05
1.736209563e-05
2.04638473e-05
2.361573457e-05
2.675121733e-05
2.979965455e-05
3.263621247e-05
3.486239228e-05
2.70334652e-06
3.745837974e-06
5.287486639e-06
7.337439395e-06
9.847040138e-06
1.272890839e-05
1.587775691e-05
1.918718413e-05
2.256063249e-05
2.591698219e-05
2.919180123e-05
3.233442256e-05
3.529590609e-05
3.798195576e-05
4.005300485e-05
3.779750075e-06
5.737893381e-06
8.45690457e-06
1.181602954e-05
1.562462857e-05
1.967746045e-05
2.379098971e-05
2.782045826e-05
3.166329069e-05
3.525471111e-05
3.855993743e-05
4.156462454e-05
4.426031909e-05
4.66043972e-05
4.83577719e-05
5.393669971e-06
8.651790724e-06
1.286862782e-05
1.770222385e-05
2.279819182e-05
2.78624201e-05
3.268455017e-05
3.713390089e-05
4.114395755e-05
4.469461567e-05
4.779635654e-05
5.047694169e-05
5.276757397e-05
5.467276572e-05
5.605026309e-05
6.60241255e-06
1.072855705e-05
1.576568302e-05
2.125265522e-05
2.680267621e-05
3.213695034e-05
3.70782949e-05
4.153111377e-05
4.545946481e-05
4.886783762e-05
5.178581416e-05
5.425608528e-05
5.632266294e-05
5.800607175e-05
5.920274692e-05
5.39364116e-06
8.651722276e-06
1.286849409e-05
1.77019992e-05
2.279785571e-05
2.786196731e-05
3.26839758e-05
3.713321011e-05
4.11431626e-05
4.469372798e-05
4.779538149e-05
5.047588982e-05
5.276646157e-05
5.467159355e-05
5.604903387e-05
3.779736516e-06
5.737855263e-06
8.456798381e-06
1.181581112e-05
1.562425735e-05
1.967690885e-05
2.37902402e-05
2.781951619e-05
3.166214953e-05
3.525338873e-05
3.855844305e-05
4.156296841e-05
4.425852067e-05
4.660247645e-05
4.835573669e-05
2.703363648e-06
3.745857561e-06
5.287472286e-06
7.337346176e-06
9.846821163e-06
1.272852166e-05
1.58771706e-05
1.918637403e-05
2.255958961e-05
2.591569749e-05
2.91902743e-05
3.233266412e-05
3.529393016e-05
3.797977458e-05
4.005064487e-05
2.221961819e-06
2.842880986e-06
3.806788318e-06
5.165885509e-06
6.93614325e-06
9.097758578e-06
1.160218182e-05
1.438206108e-05
1.736118895e-05
2.046266696e-05
2.361426859e-05
2.674945722e-05
2.979760179e-05
3.263387219e-05
3.485977231e-05
)
;

boundaryField
{
    top
    {
        type            calculated;
        value           nonuniform List<scalar> 
127
(
2.221961819e-06
2.842903388e-06
3.745971646e-06
5.738141576e-06
8.652241423e-06
1.072917686e-05
8.652357694e-06
5.738280407e-06
3.746055727e-06
2.842880986e-06
3.806864372e-06
5.287678609e-06
8.457244457e-06
1.286921398e-05
1.576644412e-05
1.286922281e-05
8.457257098e-06
5.287654771e-06
3.806788318e-06
5.166060272e-06
7.33769659e-06
1.181646025e-05
1.770292429e-05
2.125350784e-05
1.770276977e-05
1.181627871e-05
7.337521534e-06
5.165885509e-06
6.936465732e-06
9.847363239e-06
1.562513888e-05
2.279897788e-05
2.680358095e-05
2.279863405e-05
1.562471869e-05
9.846992868e-06
6.93614325e-06
9.098277778e-06
1.272929507e-05
1.967803804e-05
2.78632626e-05
3.213787752e-05
2.786272932e-05
1.9677357e-05
1.272869009e-05
9.097758578e-06
1.160294085e-05
1.587820228e-05
2.379162175e-05
3.268542435e-05
3.707921503e-05
3.268471141e-05
2.379067673e-05
1.587733573e-05
1.160218182e-05
1.438309491e-05
1.918767965e-05
2.782113261e-05
3.71347891e-05
4.153201424e-05
3.713391139e-05
2.781992997e-05
1.918653703e-05
1.438206108e-05
1.736252792e-05
2.256117417e-05
3.166398987e-05
4.114484268e-05
4.546033916e-05
4.114382597e-05
3.166254494e-05
2.255974463e-05
1.736118895e-05
2.046432577e-05
2.591755965e-05
3.525543028e-05
4.469549032e-05
4.886867907e-05
4.46943577e-05
3.525375452e-05
2.591584325e-05
2.046266696e-05
2.361625312e-05
2.919240749e-05
3.856066874e-05
4.77972072e-05
5.178661728e-05
4.779597608e-05
3.855879077e-05
2.919041749e-05
2.361426859e-05
2.675176838e-05
3.233505258e-05
4.156535152e-05
5.04777617e-05
5.425684359e-05
5.047645239e-05
4.156329837e-05
3.233279943e-05
2.674945722e-05
2.980023255e-05
3.529655095e-05
4.426103976e-05
5.276836974e-05
5.632338379e-05
5.27669926e-05
4.425883056e-05
3.529405228e-05
2.979760179e-05
3.263681397e-05
3.798261648e-05
4.660511685e-05
5.46735348e-05
5.800675315e-05
5.467209769e-05
4.660276751e-05
3.797989549e-05
3.263387219e-05
3.486301034e-05
4.005366778e-05
4.83584807e-05
5.605100107e-05
5.920339912e-05
5.604951188e-05
4.835601528e-05
4.005075318e-05
3.485977231e-05
)
;
    }
    bottom
    {
        type            calculated;
        value           nonuniform List<scalar> 
134
(
2.703430081e-06
3.779793999e-06
5.393680356e-06
6.602415957e-06
5.393660353e-06
3.779750748e-06
2.703347229e-06
2.221919402e-06
2.842966599e-06
3.7459804e-06
5.738040766e-06
8.651949033e-06
1.072874623e-05
8.651868983e-06
5.737925824e-06
3.745846068e-06
2.842822827e-06
3.806925617e-06
5.28771071e-06
8.457197255e-06
1.286902958e-05
1.576619542e-05
1.286887784e-05
8.457000696e-06
5.287509574e-06
3.806744496e-06
5.166133048e-06
7.337770039e-06
1.181651779e-05
1.77029535e-05
2.125358676e-05
1.770272159e-05
1.181622384e-05
7.337488204e-06
5.16589307e-06
6.936570095e-06
9.847509024e-06
1.562535857e-05
2.279930842e-05
2.680407592e-05
2.279898568e-05
1.562495192e-05
9.84712409e-06
6.936246683e-06
9.098437964e-06
1.272954846e-05
1.967847152e-05
2.786395103e-05
3.213883815e-05
2.786353992e-05
1.967793459e-05
1.272903864e-05
9.098003471e-06
1.160318345e-05
1.587859683e-05
2.379231097e-05
3.268650292e-05
3.708064938e-05
3.268599727e-05
2.379162765e-05
1.587794134e-05
1.160261196e-05
1.438344908e-05
1.91882484e-05
2.782209899e-05
3.713625806e-05
4.153390285e-05
3.713565828e-05
2.782127172e-05
1.918742574e-05
1.438271454e-05
1.736301564e-05
2.256193739e-05
3.166523913e-05
4.114668682e-05
4.546265063e-05
4.114600841e-05
3.166426614e-05
2.256094042e-05
1.736209563e-05
2.046497251e-05
2.59185356e-05
3.525696563e-05
4.469768756e-05
4.887136932e-05
4.469693203e-05
3.525584254e-05
2.591735029e-05
2.04638473e-05
2.361707945e-05
2.919360739e-05
3.856248088e-05
4.779972695e-05
5.178964307e-05
4.779890062e-05
3.856121865e-05
2.919223279e-05
2.361573457e-05
2.675278664e-05
3.233647724e-05
4.156743508e-05
5.048058029e-05
5.42601656e-05
5.047968668e-05
4.156603854e-05
3.233491495e-05
2.675121733e-05
2.980145053e-05
3.52982009e-05
4.426337482e-05
5.277143794e-05
5.632695578e-05
5.277048966e-05
4.426184696e-05
3.529645615e-05
2.979965455e-05
3.263823838e-05
3.79844932e-05
4.66076814e-05
5.467683829e-05
5.801054904e-05
5.46758391e-05
4.660604055e-05
3.798257125e-05
3.263621247e-05
3.486464106e-05
4.005577209e-05
4.836128908e-05
5.605454344e-05
5.92074343e-05
5.605350098e-05
4.835954294e-05
4.005369564e-05
3.486239228e-05
)
;
    }
    side-walls
    {
        type            calculated;
        value           nonuniform List<scalar> 
261
(
2.842966599e-06
3.746051072e-06
5.738221437e-06
8.652273444e-06
1.072911819e-05
8.652184003e-06
5.738121742e-06
3.745963879e-06
2.842903388e-06
3.806925617e-06
5.287777687e-06
8.457394361e-06
1.286940497e-05
1.576663991e-05
1.286927555e-05
8.457263005e-06
5.287677596e-06
3.806864372e-06
5.166133048e-06
7.337837148e-06
1.181672524e-05
1.77033696e-05
2.125409156e-05
1.77031899e-05
1.181655229e-05
7.337711265e-06
5.166060272e-06
6.936570095e-06
9.847576753e-06
1.562557631e-05
2.279974909e-05
2.680462765e-05
2.279951499e-05
1.562534009e-05
9.84740463e-06
6.936465732e-06
9.098437964e-06
1.272961564e-05
1.967869693e-05
2.786440916e-05
3.21394107e-05
2.786410805e-05
1.967837653e-05
1.272937358e-05
9.098277778e-06
1.160318345e-05
1.587866411e-05
2.379253632e-05
3.268696492e-05
3.708124297e-05
3.268659769e-05
2.379211351e-05
1.587832702e-05
1.160294085e-05
1.438344908e-05
1.91883139e-05
2.782232554e-05
3.713672043e-05
4.153450135e-05
3.713628469e-05
2.782179116e-05
1.918785885e-05
1.438309491e-05
1.736301564e-05
2.256200454e-05
3.166546769e-05
4.114714352e-05
4.546324443e-05
4.114664009e-05
3.166481415e-05
2.256141244e-05
1.736252792e-05
2.046497251e-05
2.591860323e-05
3.525719323e-05
4.469813691e-05
4.887195462e-05
4.469756967e-05
3.525641198e-05
2.59178613e-05
2.046432577e-05
2.361707945e-05
2.919367548e-05
3.856270416e-05
4.780016782e-05
5.179021585e-05
4.779953607e-05
3.856180703e-05
2.919277595e-05
2.361625312e-05
2.675278664e-05
3.233654711e-05
4.156765386e-05
5.048100035e-05
5.426072162e-05
5.048031328e-05
4.156663773e-05
3.233548409e-05
2.675176838e-05
2.980145053e-05
3.529826734e-05
4.42635834e-05
5.277184551e-05
5.632750022e-05
5.277110887e-05
4.426245869e-05
3.529704777e-05
2.980023255e-05
3.263823838e-05
3.798455567e-05
4.660788619e-05
5.467722699e-05
5.801107849e-05
5.467644124e-05
4.660665932e-05
3.798317749e-05
3.263681397e-05
3.486464106e-05
4.005583569e-05
4.836149141e-05
5.605492469e-05
5.920794679e-05
5.605409264e-05
4.836015631e-05
4.005431256e-05
3.486301034e-05
2.221919402e-06
2.70334652e-06
3.779750075e-06
5.393669971e-06
6.60241255e-06
5.39364116e-06
3.779736516e-06
2.703363648e-06
2.221961819e-06
2.842822827e-06
3.745837974e-06
5.737893381e-06
8.651790724e-06
1.072855705e-05
8.651722276e-06
5.737855263e-06
3.745857561e-06
2.842880986e-06
3.806744496e-06
5.287486639e-06
8.45690457e-06
1.286862782e-05
1.576568302e-05
1.286849409e-05
8.456798381e-06
5.287472286e-06
3.806788318e-06
5.16589307e-06
7.337439395e-06
1.181602954e-05
1.770222385e-05
2.125265522e-05
1.77019992e-05
1.181581112e-05
7.337346176e-06
5.165885509e-06
6.936246683e-06
9.847040138e-06
1.562462857e-05
2.279819182e-05
2.680267621e-05
2.279785571e-05
1.562425735e-05
9.846821163e-06
6.93614325e-06
9.098003471e-06
1.272890839e-05
1.967746045e-05
2.78624201e-05
3.213695034e-05
2.786196731e-05
1.967690885e-05
1.272852166e-05
9.097758578e-06
1.160261196e-05
1.587775691e-05
2.379098971e-05
3.268455017e-05
3.70782949e-05
3.26839758e-05
2.37902402e-05
1.58771706e-05
1.160218182e-05
1.438271454e-05
1.918718413e-05
2.782045826e-05
3.713390089e-05
4.153111377e-05
3.713321011e-05
2.781951619e-05
1.918637403e-05
1.438206108e-05
1.736209563e-05
2.256063249e-05
3.166329069e-05
4.114395755e-05
4.545946481e-05
4.11431626e-05
3.166214953e-05
2.255958961e-05
1.736118895e-05
2.04638473e-05
2.591698219e-05
3.525471111e-05
4.469461567e-05
4.886783762e-05
4.469372798e-05
3.525338873e-05
2.591569749e-05
2.046266696e-05
2.361573457e-05
2.919180123e-05
3.855993743e-05
4.779635654e-05
5.178581416e-05
4.779538149e-05
3.855844305e-05
2.91902743e-05
2.361426859e-05
2.675121733e-05
3.233442256e-05
4.156462454e-05
5.047694169e-05
5.425608528e-05
5.047588982e-05
4.156296841e-05
3.233266412e-05
2.674945722e-05
2.979965455e-05
3.529590609e-05
4.426031909e-05
5.276757397e-05
5.632266294e-05
5.276646157e-05
4.425852067e-05
3.529393016e-05
2.979760179e-05
3.263621247e-05
3.798195576e-05
4.66043972e-05
5.467276572e-05
5.800607175e-05
5.467159355e-05
4.660247645e-05
3.797977458e-05
3.263387219e-05
3.486239228e-05
4.005300485e-05
4.83577719e-05
5.605026309e-05
5.920274692e-05
5.604903387e-05
4.835573669e-05
4.005064487e-05
3.485977231e-05
)
;
    }
    inlet
    {
        type            calculated;
        value           nonuniform 0();
    }
    outlet
    {
        type            calculated;
        value           nonuniform List<scalar> 
81
(
3.486464106e-05
4.005583569e-05
4.836149141e-05
5.605492469e-05
5.920794679e-05
5.605409264e-05
4.836015631e-05
4.005431256e-05
3.486301034e-05
4.005577209e-05
4.657867964e-05
5.709262484e-05
6.692344483e-05
7.098313079e-05
6.692237069e-05
5.709090057e-05
4.65767219e-05
4.005366778e-05
4.836128908e-05
5.70924828e-05
7.129132734e-05
8.471905318e-05
9.031709305e-05
8.471753884e-05
7.128892631e-05
5.708982704e-05
4.83584807e-05
5.605454344e-05
6.692312318e-05
8.471885525e-05
0.0001016995778
0.0001088398009
0.000101697584
8.471570889e-05
6.691969265e-05
5.605100107e-05
5.92074343e-05
7.098262611e-05
9.031666673e-05
0.000108839549
0.0001167054969
0.0001088372556
9.031309889e-05
7.09787317e-05
5.920339912e-05
5.605350098e-05
6.692175707e-05
8.47169188e-05
0.0001016970599
0.000108836968
0.0001016948656
8.471345558e-05
6.691791675e-05
5.604951188e-05
4.835954294e-05
5.709023961e-05
7.128823167e-05
8.471505337e-05
9.03125941e-05
8.471319489e-05
7.128524681e-05
5.708688838e-05
4.835601528e-05
4.005369564e-05
4.65760544e-05
5.708910087e-05
6.691897047e-05
7.097810326e-05
6.691749879e-05
5.708670314e-05
4.657332925e-05
4.005075318e-05
3.486239228e-05
4.005300485e-05
4.83577719e-05
5.605026309e-05
5.920274692e-05
5.604903387e-05
4.835573669e-05
4.005064487e-05
3.485977231e-05
)
;
    }
    procBoundary1to0
    {
        type            processor;
        value           nonuniform List<scalar> 
97
(
2.221960983e-06
2.221960983e-06
2.703351432e-06
3.779676749e-06
5.393468533e-06
6.60207719e-06
5.393397637e-06
3.779593198e-06
2.703269742e-06
2.22187758e-06
2.085945955e-06
3.807310252e-06