/*--------------------------------*- C++ -*----------------------------------*\
| =========                 |                                                 |
| \\      /  F ield         | OpenFOAM: The Open Source CFD Toolbox           |
|  \\    /   O peration     | Version:  4.x                                   |
|   \\  /    A nd           | Web:      www.OpenFOAM.org                      |
|    \\/     M anipulation  |                                                 |
\*---------------------------------------------------------------------------*/
FoamFile
{
    version     2.0;
    format      ascii;
    class       volScalarField;
    location    "3000";
    object      X_H2;
}
// * * * * * * * * * * * * * * * * * * * * * * * * * * * * * * * * * * * * * //

dimensions      [0 0 0 0 0 0 0];

internalField   nonuniform List<scalar> 
1174
(
0.0299759796
0.02997501599
0.0299736573
0.02997188755
0.02996972657
0.02996722293
0.02996444397
0.02996146592
0.02995836568
0.02995521546
0.02995208179
0.02994903527
0.02994620061
0.02994397596
0.02997507684
0.02997353561
0.02997148625
0.02996897742
0.02996609651
0.0299629488
0.02995964071
0.02995626876
0.02995291407
0.02994964106
0.02994650036
0.02994354087
0.02994085677
0.02993878725
0.02997308523
0.02997036681
0.02996700847
0.02996320087
0.02995914923
0.02995503709
0.02995100919
0.02994716808
0.02994357852
0.02994027525
0.02993727261
0.02993457901
0.02993223695
0.02993048511
0.02997017179
0.02996595565
0.02996112297
0.02995602816
0.0299509653
0.02994614474
0.02994169713
0.02993768896
0.0299341403
0.02993104064
0.0299283622
0.02992607372
0.02992417059
0.02992279463
0.02996809519
0.02996305875
0.02995757271
0.02995202386
0.02994669098
0.02994175125
0.02993730021
0.02993337378
0.02992996744
0.02992705157
0.02992458346
0.02992251905
0.02992083769
0.02991964254
0.02997017184
0.02996595572
0.02996112306
0.02995602826
0.02995096541
0.02994614486
0.02994169726
0.0299376891
0.02993414044
0.02993104078
0.02992836234
0.02992607387
0.02992417073
0.02992279478
0.02997308527
0.02997036686
0.02996700854
0.02996320095
0.02995914933
0.0299550372
0.02995100931
0.02994716822
0.02994357867
0.02994027541
0.02993727279
0.0299345792
0.02993223714
0.02993048531
0.02997507687
0.02997353565
0.0299714863
0.02996897748
0.02996609658
0.02996294889
0.0299596408
0.02995626888
0.02995291421
0.02994964121
0.02994650053
0.02994354106
0.02994085698
0.02993878748
0.02997597962
0.02997501602
0.02997365733
0.02997188759
0.02996972662
0.02996722299
0.02996444405
0.02996146602
0.0299583658
0.0299552156
0.02995208196
0.02994903545
0.02994620082
0.0299439762
0.02997611904
0.02997507684
0.02997353562
0.02997148626
0.02996897743
0.02996609652
0.02996294882
0.02995964072
0.02995626877
0.02995291409
0.02994964107
0.02994650037
0.02994354088
0.02994085679
0.02993878726
0.02997304555
0.02997034606
0.02996705938
0.02996338406
0.02995951854
0.02995562929
0.02995183973
0.02994823189
0.02994485385
0.02994172896
0.02993886543
0.02993627031
0.02993398912
0.02993226733
0.02996794236
0.02996271035
0.02995703321
0.02995139151
0.02994611267
0.02994137376
0.02993723764
0.02993369383
0.0299306918
0.02992816426
0.029926042
0.02992426538
0.02992280628
0.0299217576
0.02995888906
0.02995020739
0.02994196741
0.0299347824
0.02992886292
0.02992417629
0.02992057275
0.02991786471
0.02991586886
0.02991442469
0.02991339987
0.02991268942
0.02991221393
0.02991193034
0.02995036345
0.02993993196
0.02993110982
0.02992412293
0.02991882746
0.02991494931
0.02991219836
0.02991031509
0.02990908454
0.02990833598
0.02990793681
0.02990778414
0.02990779282
0.02990787174
0.02995888917
0.02995020753
0.02994196757
0.02993478256
0.02992886309
0.02992417646
0.02992057292
0.02991786488
0.02991586903
0.02991442485
0.02991340004
0.02991268958
0.02991221409
0.0299119305
0.02996794246
0.02996271046
0.02995703333
0.02995139164
0.02994611281
0.02994137391
0.02993723782
0.02993369401
0.029930692
0.02992816448
0.02992604223
0.02992426561
0.02992280652
0.02992175785
0.02997304563
0.02997034614
0.02996705946
0.02996338415
0.02995951865
0.02995562942
0.02995183988
0.02994823205
0.02994485404
0.02994172917
0.02993886566
0.02993627056
0.02993398939
0.0299322676
0.02997507686
0.02997353565
0.0299714863
0.02996897748
0.02996609659
0.0299629489
0.02995964083
0.02995626891
0.02995291425
0.02994964126
0.02994650058
0.02994354112
0.02994085705
0.02993878756
0.02997504297
0.02997308526
0.02997036685
0.02996700852
0.02996320092
0.02995914929
0.02995503715
0.02995100924
0.02994716814
0.02994357857
0.02994027531
0.02993727267
0.02993457907
0.029932237
0.02993048516
0.02997217457
0.0299679424
0.0299627104
0.02995703328
0.02995139158
0.02994611274
0.02994137383
0.02993723771
0.02993369389
0.02993069186
0.02992816432
0.02992604206
0.02992426544
0.02992280633
0.02992175765
0.02995289593
0.02994188962
0.02993194468
0.02992380827
0.02991762817
0.02991321889
0.02991026026
0.02990841415
0.02990738022
0.02990691499
0.02990683152
0.02990698959
0.02990727687
0.02990756404
0.029919492
0.02990095393
0.02988820683
0.02988071339
0.02987722242
0.02987647912
0.02987747416
0.02987947806
0.02988199723
0.02988471333
0.02988742817
0.02989001486
0.02989235249
0.02989414072
0.02987582157
0.02985743224
0.02984958764
0.02984826486
0.02985059597
0.02985477837
0.02985974555
0.02986489189
0.02986988806
0.02987456615
0.02987884889
0.02988269851
0.02988604425
0.02988854396
0.02991949245
0.02990095437
0.02988820723
0.02988071376
0.02987722276
0.02987647944
0.02987747446
0.02987947834
0.02988199748
0.02988471357
0.02988742839
0.02989001508
0.0298923527
0.02989414092
0.02995289629
0.02994188992
0.02993194495
0.02992380856
0.02991762847
0.02991321921
0.02991026059
0.02990841448
0.02990738056
0.02990691533
0.02990683186
0.02990698992
0.0299072772
0.02990756437
0.02996794247
0.02996271048
0.02995703337
0.0299513917
0.02994611288
0.029941374
0.02993723792
0.02993369413
0.02993069212
0.02992816461
0.02992604236
0.02992426575
0.02992280666
0.029921758
0.02997308527
0.02997036687
0.02996700856
0.02996320099
0.02995914939
0.02995503728
0.02995100941
0.02994716834
0.02994357881
0.02994027558
0.02993727297
0.02993457939
0.02993223735
0.02993048554
0.02997342943
0.02997017185
0.02996595574
0.02996112309
0.02995602829
0.02995096544
0.02994614488
0.02994169727
0.0299376891
0.02993414044
0.02993104078
0.02992836233
0.02992607384
0.0299241707
0.02992279474
0.02996688995
0.02995888915
0.02995020754
0.02994196758
0.02993478256
0.02992886309
0.02992417644
0.02992057289
0.02991786484
0.02991586898
0.0299144248
0.02991339998
0.02991268952
0.02991221402
0.02991193042
0.02994216927
0.02991949213
0.02990095412
0.02988820701
0.02988071355
0.02987722255
0.02987647923
0.02987747426
0.02987947814
0.0298819973
0.02988471339
0.02988742822
0.02989001491
0.02989235253
0.02989414076
0.02980515102
0.02978192562
0.0297781938
0.0297849965
0.02979648168
0.02980935391
0.02982194718
0.02983352166
0.02984382526
0.02985284388
0.02986066481
0.02986739284
0.02987304208
0.02987716509
0.02958109501
0.02961058534
0.02965569172
0.02969888452
0.02973555968
0.02976546258
0.02978957376
0.0298090429
0.02982487048
0.0298378486
0.02984857859
0.02985749047
0.02986478636
0.02987002623
0.02980515263
0.02978192669
0.02977819461
0.02978499717
0.02979648227
0.02980935443
0.02982194763
0.02983352206
0.02984382562
0.02985284421
0.02986066512
0.02986739312
0.02987304234
0.02987716534
0.02991949246
0.02990095451
0.02988820746
0.02988071404
0.02987722307
0.02987647976
0.02987747478
0.02987947865
0.02988199779
0.02988471387
0.02988742868
0.02989001535
0.02989235296
0.02989414118
0.02995888916
0.02995020758
0.02994196768
0.02993478273
0.02992886331
0.02992417673
0.02992057322
0.0299178652
0.02991586937
0.0299144252
0.0299134004
0.02991268995
0.02991221446
0.02991193087
0.02997017183
0.02996595573
0.02996112311
0.02995602835
0.02995096555
0.02994614504
0.02994169748
0.02993768936
0.02993414073
0.02993104111
0.02992836269
0.02992607424
0.02992417112
0.02992279519
0.02997222086
0.02996809525
0.02996305885
0.02995757284
0.029952024
0.02994669113
0.0299417514
0.02993730037
0.02993337394
0.02992996759
0.02992705172
0.0299245836
0.02992251918
0.02992083782
0.02991964266
0.02996138338
0.02995036359
0.0299399322
0.02993111007
0.02992412316
0.02991882769
0.02991494952
0.02991219855
0.02991031526
0.02990908471
0.02990833613
0.02990793695
0.02990778427
0.02990779295
0.02990787186
0.02990857422
0.02987582178
0.02985743269
0.02984958807
0.02984826522
0.02985059627
0.02985477863
0.02985974576
0.02986489208
0.02986988822
0.02987456629
0.02987884901
0.02988269862
0.02988604435
0.02988854405
0.02962062205
0.02958109621
0.02961058618
0.02965569226
0.02969888489
0.02973555994
0.02976546277
0.0297895739
0.029809043
0.02982487056
0.02983784866
0.02984857864
0.02985749052
0.02986478641
0.02987002628
0.02861475503
0.02910686692
0.02937911516
0.02953843678
0.02963710253
0.02970163972
0.02974603483
0.02977796087
0.02980180157
0.02982016493
0.02983466091
0.02984629541
0.02985558822
0.02986216163
0.0295810949
0.02961058705
0.02965569334
0.02969888585
0.02973556076
0.02976546347
0.02978957452
0.02980904354
0.02982487104
0.02983784909
0.02984857903
0.02985749087
0.02986478672
0.02987002657
0.02987582163
0.02985743288
0.02984958845
0.02984826572
0.02985059683
0.02985477919
0.02985974632
0.02986489262
0.02986988875
0.02987456679
0.02987884949
0.02988269908
0.0298860448
0.02988854449
0.02995036351
0.0299399322
0.02993111018
0.02992412338
0.02991882798
0.02991494988
0.02991219896
0.0299103157
0.02990908517
0.02990833661
0.02990793743
0.02990778476
0.02990779344
0.02990787235
0.02996809522
0.02996305884
0.02995757287
0.0299520241
0.02994669129
0.02994175163
0.02993730065
0.02993337426
0.02992996796
0.02992705213
0.02992458404
0.02992251965
0.02992083831
0.02991964317
0.02997342945
0.02997017189
0.0299659558
0.02996112316
0.02995602837
0.02995096554
0.02994614499
0.0299416974
0.02993768923
0.02993414057
0.02993104092
0.02992836248
0.029926074
0.02992417086
0.02992279491
0.02996689002
0.02995888928
0.0299502077
0.02994196776
0.02993478275
0.02992886328
0.02992417664
0.0299205731
0.02991786505
0.02991586919
0.02991442501
0.02991340019
0.02991268972
0.02991221423
0.02991193063
0.02994216984
0.0299194927
0.02990095474
0.0298882076
0.02988071411
0.02987722308
0.02987647973
0.02987747472
0.02987947857
0.0298819977
0.02988471377
0.02988742858
0.02989001525
0.02989235286
0.02989414107
0.0298575193
0.02980515348
0.02978192763
0.02977819539
0.02978499781
0.02979648278
0.02980935485
0.02982194797
0.02983352234
0.02984382586
0.02985284441
0.02986066529
0.02986739328
0.02987304248
0.02987716547
0.02962062166
0.02958109634
0.02961058804
0.029655694
0.02969888633
0.02973556111
0.02976546374
0.02978957472
0.0298090437
0.02982487117
0.0298378492
0.02984857912
0.02985749095
0.0298647868
0.02987002664
0.02985751897
0.02980515374
0.02978192805
0.02977819587
0.02978499827
0.02979648322
0.02980935525
0.02982194834
0.02983352269
0.02984382618
0.02985284471
0.02986066557
0.02986739354
0.02987304273
0.02987716571
0.02991949203
0.02990095458
0.02988820774
0.02988071442
0.02987722348
0.02987648017
0.02987747518
0.02987947904
0.02988199816
0.02988471421
0.02988742901
0.02989001567
0.02989235326
0.02989414147
0.0299588891
0.02995020762
0.0299419678
0.02993478291
0.02992886353
0.02992417696
0.02992057347
0.02991786546
0.02991586962
0.02991442546
0.02991340065
0.0299126902
0.0299122147
0.02991193111
0.02997017181
0.02996595574
0.02996112314
0.02995602841
0.02995096564
0.02994614516
0.02994169762
0.02993768952
0.02993414091
0.02993104129
0.02992836289
0.02992607444
0.02992417133
0.0299227954
0.02997504299
0.02997308529
0.0299703669
0.02996700859
0.02996320101
0.02995914939
0.02995503727
0.02995100939
0.0299471683
0.02994357876
0.02994027551
0.02993727289
0.0299345793
0.02993223725
0.02993048543
0.02997217466
0.02996794252
0.02996271055
0.02995703344
0.02995139176
0.02994611294
0.02994137404
0.02993723795
0.02993369415
0.02993069214
0.02992816461
0.02992604236
0.02992426575
0.02992280665
0.02992175798
0.02996341056
0.02995289644
0.02994189013
0.02993194519
0.0299238088
0.02991762871
0.02991321944
0.02991026081
0.02990841468
0.02990738075
0.02990691551
0.02990683203
0.02990699009
0.02990727735
0.02990756452
0.02994216991
0.02991949289
0.02990095504
0.02988820797
0.0298807145
0.02987722348
0.02987648012
0.02987747509
0.02987947892
0.02988199802
0.02988471408
0.02988742887
0.02989001552
0.02989235312
0.02989414132
0.02990857438
0.02987582247
0.02985743367
0.02984958912
0.02984826626
0.02985059726
0.02985477955
0.02985974661
0.02986489286
0.02986988894
0.02987456696
0.02987884964
0.02988269921
0.02988604491
0.02988854459
0.02994217002
0.02991949308
0.02990095528
0.02988820824
0.02988071478
0.02987722376
0.02987648039
0.02987747536
0.02987947918
0.02988199827
0.02988471431
0.0298874291
0.02989001574
0.02989235333
0.02989414153
0.02996341041
0.02995289634
0.02994189013
0.0299319453
0.02992380899
0.02991762896
0.02991321974
0.02991026114
0.02990841503
0.02990738111
0.02990691587
0.02990683239
0.02990699044
0.02990727771
0.02990756487
0.02996794238
0.0299627105
0.02995703348
0.02995139188
0.02994611312
0.02994137429
0.02993723824
0.02993369448
0.0299306925
0.02992816499
0.02992604276
0.02992426616
0.02992280707
0.02992175841
0.02997308524
0.02997036686
0.02996700858
0.02996320104
0.02995914948
0.02995503742
0.02995100959
0.02994716855
0.02994357905
0.02994027584
0.02993727325
0.0299345797
0.02993223767
0.02993048587
0.02997611906
0.02997507688
0.02997353568
0.02997148633
0.02996897752
0.02996609663
0.02996294895
0.02995964088
0.02995626896
0.0299529143
0.02994964131
0.02994650064
0.02994354117
0.0299408571
0.0299387876
0.02997501558
0.02997304566
0.02997034619
0.02996705953
0.02996338423
0.02995951874
0.02995562952
0.02995183999
0.02994823217
0.02994485416
0.02994172929
0.02993886578
0.02993627069
0.02993398952
0.02993226774
0.02997217468
0.02996794256
0.02996271061
0.02995703353
0.02995139188
0.02994611307
0.0299413742
0.02993723811
0.02993369432
0.02993069231
0.02992816479
0.02992604254
0.02992426592
0.02992280682
0.02992175815
0.02996689005
0.02995888936
0.02995020786
0.02994196798
0.02993478304
0.02992886361
0.02992417701
0.02992057348
0.02991786544
0.02991586959
0.02991442541
0.02991340059
0.02991269012
0.02991221462
0.02991193102
0.02996138344
0.02995036381
0.02993993255
0.02993111053
0.02992412372
0.0299188283
0.02991495016
0.02991219921
0.02991031593
0.02990908537
0.02990833679
0.0299079376
0.02990778491
0.02990779358
0.02990787249
0.02996689007
0.0299588894
0.02995020791
0.02994196806
0.02993478313
0.02992886372
0.02992417714
0.02992057362
0.02991786559
0.02991586974
0.02991442557
0.02991340075
0.02991269029
0.02991221479
0.02991193119
0.02997217467
0.02996794255
0.02996271063
0.02995703358
0.02995139196
0.0299461132
0.02994137435
0.0299372383
0.02993369453
0.02993069254
0.02992816503
0.0299260428
0.02992426619
0.0299228071
0.02992175844
0.02997501554
0.02997304562
0.02997034617
0.02996705953
0.02996338427
0.02995951882
0.02995562964
0.02995184015
0.02994823236
0.02994485438
0.02994172955
0.02993886606
0.02993627099
0.02993398984
0.02993226807
0.02997507684
0.02997353565
0.02997148632
0.02996897753
0.02996609668
0.02996294903
0.029959641
0.02995626912
0.0299529145
0.02994964154
0.0299465009
0.02994354147
0.02994085743
0.02993878796
0.02997660031
0.02997597964
0.02997501605
0.02997365736
0.02997188764
0.02996972668
0.02996722306
0.02996444414
0.02996146612
0.02995836591
0.02995521572
0.02995208208
0.02994903559
0.02994620096
0.02994397634
0.02997611906
0.02997507689
0.02997353569
0.02997148636
0.02996897755
0.02996609667
0.029962949
0.02995964094
0.02995626903
0.02995291438
0.02994964139
0.02994650072
0.02994354126
0.0299408572
0.0299387877
0.02997504299
0.02997308531
0.02997036693
0.02996700864
0.02996320109
0.0299591495
0.02995503741
0.02995100955
0.02994716848
0.02994357895
0.02994027572
0.02993727311
0.02993457954
0.02993223749
0.02993048568
0.02997342945
0.02997017191
0.02996595586
0.02996112326
0.02995602852
0.02995096573
0.02994614524
0.02994169768
0.02993768955
0.02993414092
0.02993104129
0.02992836287
0.02992607441
0.02992417128
0.02992279534
0.02997222088
0.02996809532
0.02996305898
0.02995757303
0.02995202427
0.02994669147
0.0299417518
0.02993730082
0.02993337443
0.02992996812
0.02992705227
0.02992458418
0.02992251978
0.02992083844
0.02991964329
0.02997342945
0.02997017191
0.02996595586
0.02996112326
0.02995602853
0.02995096575
0.02994614527
0.02994169772
0.02993768961
0.02993414099
0.02993104138
0.02992836297
0.02992607451
0.0299241714
0.02992279547
0.02997504299
0.02997308531
0.02997036694
0.02996700867
0.02996320113
0.02995914956
0.02995503749
0.02995100965
0.02994716861
0.0299435791
0.02994027589
0.0299372733
0.02993457974
0.02993223771
0.02993048591
0.02997611906
0.02997507688
0.02997353569
0.02997148636
0.02996897758
0.02996609672
0.02996294907
0.02995964104
0.02995626916
0.02995291453
0.02994964158
0.02994650094
0.02994354151
0.02994085746
0.02993878798
0.0299766003
0.02997597962
0.02997501603
0.02997365736
0.02997188764
0.0299697267
0.02996722311
0.02996444421
0.02996146622
0.02995836604
0.02995521589
0.02995208228
0.02994903582
0.02994620123
0.02994397664
)
;

boundaryField
{
    top
    {
        type            calculated;
        value           nonuniform List<scalar> 
127
(
0.0299766003
0.02997597962
0.02997507686
0.02997308527
0.02997017183
0.02996809522
0.02997017181
0.02997308524
0.02997507684
0.02997597962
0.02997501602
0.02997353565
0.02997036687
0.02996595573
0.02996305884
0.02996595574
0.02997036686
0.02997353565
0.02997501603
0.02997365733
0.0299714863
0.02996700856
0.02996112311
0.02995757287
0.02996112314
0.02996700858
0.02997148632
0.02997365736
0.02997188759
0.02996897748
0.02996320099
0.02995602835
0.0299520241
0.02995602841
0.02996320104
0.02996897753
0.02997188764
0.02996972662
0.02996609659
0.02995914939
0.02995096555
0.02994669129
0.02995096564
0.02995914948
0.02996609668
0.0299697267
0.02996722299
0.0299629489
0.02995503728
0.02994614504
0.02994175163
0.02994614516
0.02995503742
0.02996294903
0.02996722311
0.02996444405
0.02995964083
0.02995100941
0.02994169748
0.02993730065
0.02994169762
0.02995100959
0.029959641
0.02996444421
0.02996146602
0.02995626891
0.02994716834
0.02993768936
0.02993337426
0.02993768952
0.02994716855
0.02995626912
0.02996146622
0.0299583658
0.02995291425
0.02994357881
0.02993414073
0.02992996796
0.02993414091
0.02994357905
0.0299529145
0.02995836604
0.0299552156
0.02994964126
0.02994027558
0.02993104111
0.02992705213
0.02993104129
0.02994027584
0.02994964154
0.02995521589
0.02995208196
0.02994650058
0.02993727297
0.02992836269
0.02992458404
0.02992836289
0.02993727325
0.0299465009
0.02995208228
0.02994903545
0.02994354112
0.02993457939
0.02992607424
0.02992251965
0.02992607444
0.0299345797
0.02994354147
0.02994903582
0.02994620082
0.02994085705
0.02993223735
0.02992417112
0.02992083831
0.02992417133
0.02993223767
0.02994085743
0.02994620123
0.0299439762
0.02993878756
0.02993048554
0.02992279519
0.02991964317
0.0299227954
0.02993048587
0.02993878796
0.02994397664
)
;
    }
    bottom
    {
        type            calculated;
        value           nonuniform List<scalar> 
134
(
0.02997611904
0.02997504297
0.02997342943
0.02997222086
0.02997342945
0.02997504299
0.02997611906
0.02997660031
0.0299759796
0.02997507684
0.02997308526
0.02997017185
0.02996809525
0.02997017189
0.02997308529
0.02997507688
0.02997597964
0.02997501599
0.02997353562
0.02997036685
0.02996595574
0.02996305885
0.0299659558
0.0299703669
0.02997353568
0.02997501605
0.0299736573
0.02997148626
0.02996700852
0.02996112309
0.02995757284
0.02996112316
0.02996700859
0.02997148633
0.02997365736
0.02997188755
0.02996897743
0.02996320092
0.02995602829
0.029952024
0.02995602837
0.02996320101
0.02996897752
0.02997188764
0.02996972657
0.02996609652
0.02995914929
0.02995096544
0.02994669113
0.02995096554
0.02995914939
0.02996609663
0.02996972668
0.02996722293
0.02996294882
0.02995503715
0.02994614488
0.0299417514
0.02994614499
0.02995503727
0.02996294895
0.02996722306
0.02996444397
0.02995964072
0.02995100924
0.02994169727
0.02993730037
0.0299416974
0.02995100939
0.02995964088
0.02996444414
0.02996146592
0.02995626877
0.02994716814
0.0299376891
0.02993337394
0.02993768923
0.0299471683
0.02995626896
0.02996146612
0.02995836568
0.02995291409
0.02994357857
0.02993414044
0.02992996759
0.02993414057
0.02994357876
0.0299529143
0.02995836591
0.02995521546
0.02994964107
0.02994027531
0.02993104078
0.02992705172
0.02993104092
0.02994027551
0.02994964131
0.02995521572
0.02995208179
0.02994650037
0.02993727267
0.02992836233
0.0299245836
0.02992836248
0.02993727289
0.02994650064
0.02995208208
0.02994903527
0.02994354088
0.02993457907
0.02992607384
0.02992251918
0.029926074
0.0299345793
0.02994354117
0.02994903559
0.02994620061
0.02994085679
0.029932237
0.0299241707
0.02992083782
0.02992417086
0.02993223725
0.0299408571
0.02994620096
0.02994397596
0.02993878726
0.02993048516
0.02992279474
0.02991964266
0.02992279491
0.02993048543
0.0299387876
0.02994397634
)
;
    }
    side-walls
    {
        type            calculated;
        value           nonuniform List<scalar> 
261
(
0.0299759796
0.02997507684
0.02997308523
0.02997017179
0.02996809519
0.02997017184
0.02997308527
0.02997507687
0.02997597962
0.02997501599
0.02997353561
0.02997036681
0.02996595565
0.02996305875
0.02996595572
0.02997036686
0.02997353565
0.02997501602
0.0299736573
0.02997148625
0.02996700847
0.02996112297
0.02995757271
0.02996112306
0.02996700854
0.0299714863
0.02997365733
0.02997188755
0.02996897742
0.02996320087
0.02995602816
0.02995202386
0.02995602826
0.02996320095
0.02996897748
0.02997188759
0.02996972657
0.02996609651
0.02995914923
0.0299509653
0.02994669098
0.02995096541
0.02995914933
0.02996609658
0.02996972662
0.02996722293
0.0299629488
0.02995503709
0.02994614474
0.02994175125
0.02994614486
0.0299550372
0.02996294889
0.02996722299
0.02996444397
0.02995964071
0.02995100919
0.02994169713
0.02993730021
0.02994169726
0.02995100931
0.0299596408
0.02996444405
0.02996146592
0.02995626876
0.02994716808
0.02993768896
0.02993337378
0.0299376891
0.02994716822
0.02995626888
0.02996146602
0.02995836568
0.02995291407
0.02994357852
0.0299341403
0.02992996744
0.02993414044
0.02994357867
0.02995291421
0.0299583658
0.02995521546
0.02994964106
0.02994027525
0.02993104064
0.02992705157
0.02993104078
0.02994027541
0.02994964121
0.0299552156
0.02995208179
0.02994650036
0.02993727261
0.0299283622
0.02992458346
0.02992836234
0.02993727279
0.02994650053
0.02995208196
0.02994903527
0.02994354087
0.02993457901
0.02992607372
0.02992251905
0.02992607387
0.0299345792
0.02994354106
0.02994903545
0.02994620061
0.02994085677
0.02993223695
0.02992417059
0.02992083769
0.02992417073
0.02993223714
0.02994085698
0.02994620082
0.02994397596
0.02993878725
0.02993048511
0.02992279463
0.02991964254
0.02992279478
0.02993048531
0.02993878748
0.0299439762
0.02997660031
0.02997611906
0.02997504299
0.02997342945
0.02997222088
0.02997342945
0.02997504299
0.02997611906
0.0299766003
0.02997597964
0.02997507689
0.02997308531
0.02997017191
0.02996809532
0.02997017191
0.02997308531
0.02997507688
0.02997597962
0.02997501605
0.02997353569
0.02997036693
0.02996595586
0.02996305898
0.02996595586
0.02997036694
0.02997353569
0.02997501603
0.02997365736
0.02997148636
0.02996700864
0.02996112326
0.02995757303
0.02996112326
0.02996700867
0.02997148636
0.02997365736
0.02997188764
0.02996897755
0.02996320109
0.02995602852
0.02995202427
0.02995602853
0.02996320113
0.02996897758
0.02997188764
0.02996972668
0.02996609667
0.0299591495
0.02995096573
0.02994669147
0.02995096575
0.02995914956
0.02996609672
0.0299697267
0.02996722306
0.029962949
0.02995503741
0.02994614524
0.0299417518
0.02994614527
0.02995503749
0.02996294907
0.02996722311
0.02996444414
0.02995964094
0.02995100955
0.02994169768
0.02993730082
0.02994169772
0.02995100965
0.02995964104
0.02996444421
0.02996146612
0.02995626903
0.02994716848
0.02993768955
0.02993337443
0.02993768961
0.02994716861
0.02995626916
0.02996146622
0.02995836591
0.02995291438
0.02994357895
0.02993414092
0.02992996812
0.02993414099
0.0299435791
0.02995291453
0.02995836604
0.02995521572
0.02994964139
0.02994027572
0.02993104129
0.02992705227
0.02993104138
0.02994027589
0.02994964158
0.02995521589
0.02995208208
0.02994650072
0.02993727311
0.02992836287
0.02992458418
0.02992836297
0.0299372733
0.02994650094
0.02995208228
0.02994903559
0.02994354126
0.02993457954
0.02992607441
0.02992251978
0.02992607451
0.02993457974
0.02994354151
0.02994903582
0.02994620096
0.0299408572
0.02993223749
0.02992417128
0.02992083844
0.0299241714
0.02993223771
0.02994085746
0.02994620123
0.02994397634
0.0299387877
0.02993048568
0.02992279534
0.02991964329
0.02992279547
0.02993048591
0.02993878798
0.02994397664
)
;
    }
    inlet
    {
        type            calculated;
        value           nonuniform 0();
    }
    outlet
    {
        type            calculated;
        value           nonuniform List<scalar> 
81
(
0.02994397596
0.02993878725
0.02993048511
0.02992279463
0.02991964254
0.02992279478
0.02993048531
0.02993878748
0.0299439762
0.02993878726
0.02993226733
0.0299217576
0.02991193034
0.02990787174
0.0299119305
0.02992175785
0.0299322676
0.02993878756
0.02993048516
0.02992175765
0.02990756404
0.02989414072
0.02988854396
0.02989414092
0.02990756437
0.029921758
0.02993048554
0.02992279474
0.02991193042
0.02989414076
0.02987716509
0.02987002623
0.02987716534
0.02989414118
0.02991193087
0.02992279519
0.02991964266
0.02990787186
0.02988854405
0.02987002628
0.02986216163
0.02987002657
0.02988854449
0.02990787235
0.02991964317
0.02992279491
0.02991193063
0.02989414107
0.02987716547
0.02987002664
0.02987716571
0.02989414147
0.02991193111
0.0299227954
0.02993048543
0.02992175798
0.02990756452
0.02989414132
0.02988854459
0.02989414153
0.02990756487
0.02992175841
0.02993048587
0.0299387876
0.02993226774
0.02992175815
0.02991193102
0.02990787249
0.02991193119
0.02992175844
0.02993226807
0.02993878796
0.02994397634
0.0299387877
0.02993048568
0.02992279534
0.02991964329
0.02992279547
0.02993048591
0.02993878798
0.02994397664
)
;
    }
    procBoundary1to0
    {
        type            processor;
        value           nonuniform List<scalar> 
97
(
0.0299766003
0.0299766003
0.02997611906
0.029975043
0.02997342947
0.02997222091
0.0299734295
0.02997504302
0.02997611908
0.02997660032
0.02997673618
0.02997501554
0.02997501554
0.02997501554
0.02997217466
0.02996689007
0.02996138355
0.02996689016
0.02997217474
0.02997501561
0.02997611908
0.0299762481
0.0299749879
0.02996341035
0.02996341035
0.02996341035
0.02994216988
0.02990857496
0.02994217035
0.02996341076
0.02997217474
0.02997504302
0.02997553416
0.02997276969
0.02996311918
0.02985751762
0.02985751762
0.02985751762
0.02962062545
0.02985752046
0.02994217033
0.02996689014
0.02997342948
0.02997502533
0.0299706812
0.02995242736
0.02988035188
0.02767378392
0.02767378392
0.02767378392
0.02962062475
0.02962062475
0.02990857487
0.02996138355
0.02997222092
0.02997553416
0.02997276969
0.02996311919
0.02993512807
0.02988035149
0.02993512818
0.0299421695
0.0299421695
0.0299421695
0.02996689004
0.02997342946
0.0299762481
0.02997498789
0.02997130142
0.0299631192
0.02995242737
0.02996311927
0.02997130144
0.0299721746
0.0299721746
0.0299721746
0.02997504298
0.02997673618
0.0299762384
0.0299749879
0.0299727697
0.02997068121
0.02997276971
0.02997498791
0.0299762384
0.02997611904
0.02997611904
0.02997611904
0.02997695743
0.02997673618
0.0299762481
0.02997553416
0.02997502533
0.02997553416
0.0299762481
0.02997673618
0.02997695743
)
;
    }
}


// ************************************************************************* //
