/*--------------------------------*- C++ -*----------------------------------*\
| =========                 |                                                 |
| \\      /  F ield         | OpenFOAM: The Open Source CFD Toolbox           |
|  \\    /   O peration     | Version:  4.x                                   |
|   \\  /    A nd           | Web:      www.OpenFOAM.org                      |
|    \\/     M anipulation  |                                                 |
\*---------------------------------------------------------------------------*/
FoamFile
{
    version     2.0;
    format      ascii;
    class       volScalarField;
    location    "11000";
    object      CO;
}
// * * * * * * * * * * * * * * * * * * * * * * * * * * * * * * * * * * * * * //

dimensions      [0 0 0 0 0 0 0];

internalField   nonuniform List<scalar> 
1174
(
0.3101806417
0.3101799348
0.3101789473
0.3101776721
0.3101761275
0.3101743516
0.3101723947
0.310170312
0.310168158
0.310165983
0.3101638325
0.3101617541
0.3101598323
0.3101583351
0.3101799914
0.3101788785
0.3101774118
0.3101756309
0.3101736013
0.3101713995
0.3101691007
0.3101667721
0.3101644689
0.3101622342
0.310160101
0.3101581014
0.3101562979
0.3101549167
0.3101785707
0.3101766385
0.3101742728
0.3101716128
0.310168804
0.3101659737
0.3101632198
0.3101606098
0.3101581848
0.3101559651
0.3101539576
0.3101521654
0.3101506151
0.3101494628
0.3101765183
0.3101735575
0.3101701937
0.3101666765
0.3101632084
0.3101599306
0.3101569274
0.3101542389
0.3101518737
0.3101498202
0.310148056
0.3101465572
0.310145318
0.3101444282
0.3101750765
0.3101715616
0.3101677639
0.3101639521
0.3101603159
0.3101569718
0.3101539798
0.3101513585
0.3101490997
0.310147179
0.3101455639
0.3101442217
0.310143136
0.31014237
0.3101765183
0.3101735576
0.3101701937
0.3101666765
0.3101632085
0.3101599307
0.3101569275
0.310154239
0.3101518738
0.3101498203
0.3101480562
0.3101465574
0.3101453182
0.3101444283
0.3101785707
0.3101766386
0.3101742729
0.3101716129
0.3101688041
0.3101659738
0.3101632199
0.3101606099
0.3101581849
0.3101559653
0.3101539578
0.3101521656
0.3101506153
0.310149463
0.3101799915
0.3101788786
0.3101774119
0.310175631
0.3101736014
0.3101713996
0.3101691009
0.3101667723
0.3101644691
0.3101622344
0.3101601013
0.3101581017
0.3101562982
0.310154917
0.3101806417
0.3101799349
0.3101789474
0.3101776721
0.3101761276
0.3101743517
0.3101723948
0.3101703122
0.3101681582
0.3101659832
0.3101638327
0.3101617544
0.3101598326
0.3101583354
0.3101807514
0.3101799914
0.3101788785
0.3101774118
0.3101756309
0.3101736014
0.3101713995
0.3101691007
0.3101667721
0.3101644689
0.3101622342
0.310160101
0.3101581014
0.3101562979
0.3101549167
0.3101785492
0.3101766348
0.3101743242
0.3101717609
0.3101690843
0.3101664089
0.3101638174
0.3101613634
0.3101590769
0.3101569711
0.3101550496
0.3101533153
0.3101517977
0.310150659
0.3101749662
0.3101713209
0.310167403
0.3101635436
0.3101599619
0.3101567705
0.3101540038
0.3101516477
0.3101496623
0.3101479986
0.3101466074
0.310145447
0.3101444976
0.3101438189
0.3101686966
0.3101627353
0.3101571358
0.3101523022
0.3101483592
0.3101452678
0.3101429143
0.3101411637
0.3101398874
0.310138975
0.3101383364
0.3101379011
0.3101376156
0.3101374493
0.3101628844
0.3101557856
0.3101498431
0.3101451855
0.3101416934
0.3101391659
0.3101373973
0.3101362069
0.310135447
0.3101350016
0.3101347815
0.310134718
0.3101347541
0.3101348273
0.3101686967
0.3101627355
0.3101571359
0.3101523023
0.3101483593
0.310145268
0.3101429145
0.3101411639
0.3101398876
0.3101389752
0.3101383366
0.3101379013
0.3101376158
0.3101374495
0.3101749663
0.3101713211
0.3101674032
0.3101635439
0.3101599622
0.3101567708
0.3101540041
0.310151648
0.3101496627
0.3101479989
0.3101466077
0.3101454473
0.310144498
0.3101438192
0.3101785493
0.3101766349
0.3101743244
0.3101717611
0.3101690845
0.3101664091
0.3101638176
0.3101613636
0.3101590772
0.3101569715
0.31015505
0.3101533157
0.3101517981
0.3101506594
0.3101799914
0.3101788786
0.3101774119
0.310175631
0.3101736015
0.3101713996
0.3101691009
0.3101667723
0.3101644692
0.3101622344
0.3101601014
0.3101581018
0.3101562983
0.3101549171
0.3101799759
0.3101785707
0.3101766386
0.3101742728
0.3101716128
0.310168804
0.3101659737
0.3101632198
0.3101606098
0.3101581848
0.3101559651
0.3101539576
0.3101521654
0.3101506151
0.3101494628
0.3101779452
0.3101749662
0.310171321
0.310167403
0.3101635437
0.3101599619
0.3101567705
0.3101540039
0.3101516477
0.3101496624
0.3101479986
0.3101466074
0.310145447
0.3101444977
0.3101438189
0.3101645479
0.31015703
0.3101503199
0.3101448998
0.3101408392
0.310137987
0.3101361094
0.3101349685
0.3101343576
0.3101341119
0.3101341069
0.3101342504
0.3101344687
0.310134676
0.310141746
0.310129326
0.310120949
0.3101161623
0.3101140623
0.3101137739
0.3101146079
0.3101160748
0.310117849
0.3101197242
0.3101215742
0.3101233199
0.3101248846
0.3101260717
0.3101123979
0.3101003318
0.3100954196
0.3100948535
0.3100966727
0.3100996644
0.3101031226
0.3101066533
0.3101100472
0.3101132012
0.3101160707
0.3101186359
0.3101208532
0.3101224991
0.3101417466
0.3101293266
0.3101209495
0.3101161628
0.3101140628
0.3101137744
0.3101146083
0.3101160752
0.3101178494
0.3101197245
0.3101215745
0.3101233202
0.3101248848
0.310126072
0.3101645484
0.3101570305
0.3101503204
0.3101449004
0.3101408398
0.3101379875
0.31013611
0.310134969
0.3101343581
0.3101341124
0.3101341074
0.3101342508
0.3101344692
0.3101346765
0.3101749663
0.3101713211
0.3101674032
0.3101635439
0.3101599623
0.3101567709
0.3101540043
0.3101516481
0.3101496628
0.3101479991
0.3101466079
0.3101454475
0.3101444982
0.3101438194
0.3101785708
0.3101766386
0.3101742729
0.3101716129
0.3101688042
0.3101659739
0.31016322
0.3101606101
0.3101581851
0.3101559655
0.310153958
0.3101521659
0.3101506156
0.3101494633
0.310178828
0.3101765183
0.3101735576
0.3101701937
0.3101666765
0.3101632085
0.3101599306
0.3101569275
0.310154239
0.3101518737
0.3101498202
0.3101480561
0.3101465573
0.3101453181
0.3101444282
0.3101742501
0.3101686966
0.3101627354
0.3101571358
0.3101523022
0.3101483592
0.3101452678
0.3101429143
0.3101411637
0.3101398875
0.310138975
0.3101383365
0.3101379011
0.3101376157
0.3101374494
0.3101571788
0.310141746
0.3101293261
0.310120949
0.3101161623
0.3101140624
0.310113774
0.310114608
0.3101160749
0.3101178491
0.3101197243
0.3101215743
0.31012332
0.3101248846
0.3101260718
0.3100646803
0.3100497956
0.3100480123
0.3100531371
0.3100612142
0.3100700631
0.3100786094
0.3100863952
0.3100932799
0.3100992737
0.3101044479
0.3101088806
0.3101125865
0.310115276
0.3099159807
0.3099371853
0.309968186
0.3099974234
0.3100220217
0.3100419484
0.3100579381
0.3100708008
0.3100812255
0.3100897509
0.3100967823
0.310102608
0.3101073627
0.3101107611
0.3100646821
0.3100497969
0.3100480133
0.3100531379
0.3100612149
0.3100700636
0.3100786099
0.3100863956
0.3100932803
0.310099274
0.3101044482
0.3101088809
0.3101125868
0.3101152763
0.3101417466
0.3101293267
0.3101209497
0.310116163
0.3101140631
0.3101137747
0.3101146087
0.3101160755
0.3101178497
0.3101197248
0.3101215749
0.3101233205
0.3101248851
0.3101260723
0.3101686968
0.3101627356
0.3101571362
0.3101523026
0.3101483597
0.3101452684
0.310142915
0.3101411643
0.3101398881
0.3101389757
0.3101383371
0.3101379017
0.3101376163
0.31013745
0.3101765183
0.3101735576
0.3101701938
0.3101666767
0.3101632088
0.310159931
0.3101569279
0.3101542394
0.3101518742
0.3101498208
0.3101480566
0.3101465579
0.3101453187
0.3101444289
0.3101779812
0.3101750766
0.3101715617
0.310167764
0.3101639522
0.310160316
0.3101569719
0.3101539799
0.3101513586
0.3101490998
0.3101471791
0.310145564
0.3101442218
0.3101431361
0.3101423701
0.3101704624
0.3101628846
0.3101557858
0.3101498434
0.3101451857
0.3101416935
0.3101391661
0.3101373975
0.3101362071
0.3101354472
0.3101350017
0.3101347816
0.3101347181
0.3101347542
0.3101348274
0.310134394
0.3101123982
0.3101003322
0.31009542
0.3100948539
0.3100966729
0.3100996646
0.3101031227
0.3101066535
0.3101100474
0.3101132013
0.3101160708
0.310118636
0.3101208533
0.3101224992
0.30994073
0.3099159819
0.309937186
0.3099681864
0.3099974237
0.3100220219
0.3100419485
0.3100579382
0.3100708008
0.3100812255
0.3100897509
0.3100967824
0.310102608
0.3101073627
0.3101107611
0.3092838709
0.3096111426
0.3097907997
0.3098952738
0.3099596788
0.3100016832
0.3100305307
0.3100512593
0.3100667322
0.3100786466
0.3100880475
0.3100955861
0.3101015961
0.3101058285
0.3099159811
0.3099371868
0.3099681874
0.3099974246
0.3100220227
0.3100419492
0.3100579388
0.3100708013
0.310081226
0.3100897513
0.3100967828
0.3101026084
0.3101073631
0.3101107614
0.3101123982
0.3101003326
0.3100954205
0.3100948545
0.3100966736
0.3100996653
0.3101031234
0.3101066542
0.310110048
0.3101132019
0.3101160714
0.3101186365
0.3101208538
0.3101224997
0.3101628846
0.3101557859
0.3101498437
0.3101451861
0.3101416941
0.3101391666
0.3101373981
0.3101362077
0.3101354478
0.3101350024
0.3101347823
0.3101347188
0.3101347549
0.310134828
0.3101750766
0.3101715617
0.3101677641
0.3101639525
0.3101603163
0.3101569723
0.3101539803
0.3101513591
0.3101491003
0.3101471797
0.3101455646
0.3101442225
0.3101431368
0.3101423708
0.310178828
0.3101765183
0.3101735576
0.3101701938
0.3101666766
0.3101632086
0.3101599308
0.3101569276
0.3101542391
0.3101518739
0.3101498204
0.3101480563
0.3101465575
0.3101453183
0.3101444284
0.3101742502
0.3101686968
0.3101627356
0.3101571361
0.3101523025
0.3101483595
0.3101452682
0.3101429147
0.310141164
0.3101398878
0.3101389753
0.3101383367
0.3101379014
0.310137616
0.3101374496
0.3101571795
0.3101417468
0.3101293269
0.3101209498
0.310116163
0.3101140631
0.3101137746
0.3101146085
0.3101160754
0.3101178495
0.3101197247
0.3101215747
0.3101233203
0.3101248849
0.3101260721
0.3100995776
0.3100646828
0.3100497977
0.3100480138
0.3100531384
0.3100612153
0.3100700639
0.3100786102
0.3100863959
0.3100932805
0.3100992742
0.3101044483
0.310108881
0.3101125869
0.3101152764
0.3099407299
0.3099159822
0.3099371877
0.3099681881
0.3099974252
0.3100220231
0.3100419496
0.3100579391
0.3100708016
0.3100812262
0.3100897515
0.3100967829
0.3101026085
0.3101073632
0.3101107615
0.3100995771
0.3100646829
0.310049798
0.3100480143
0.3100531389
0.3100612159
0.3100700645
0.3100786107
0.3100863964
0.310093281
0.3100992746
0.3101044487
0.3101088814
0.3101125873
0.3101152767
0.3101417461
0.3101293267
0.3101209499
0.3101161634
0.3101140635
0.3101137751
0.3101146091
0.310116076
0.3101178501
0.3101197252
0.3101215752
0.3101233209
0.3101248855
0.3101260727
0.3101686967
0.3101627356
0.3101571362
0.3101523027
0.3101483598
0.3101452686
0.3101429152
0.3101411646
0.3101398883
0.3101389759
0.3101383373
0.310137902
0.3101376166
0.3101374503
0.3101765183
0.3101735576
0.3101701938
0.3101666767
0.3101632088
0.3101599311
0.310156928
0.3101542395
0.3101518744
0.3101498209
0.3101480568
0.3101465581
0.3101453189
0.3101444291
0.310179976
0.3101785708
0.3101766386
0.310174273
0.3101716129
0.3101688042
0.3101659739
0.31016322
0.3101606101
0.3101581851
0.3101559654
0.3101539579
0.3101521657
0.3101506154
0.3101494631
0.3101779453
0.3101749664
0.3101713212
0.3101674033
0.310163544
0.3101599623
0.3101567709
0.3101540043
0.3101516481
0.3101496628
0.3101479991
0.3101466078
0.3101454474
0.3101444981
0.3101438193
0.3101718174
0.3101645485
0.3101570307
0.3101503206
0.3101449005
0.31014084
0.3101379877
0.3101361101
0.3101349692
0.3101343583
0.3101341126
0.3101341076
0.310134251
0.3101344693
0.3101346766
0.3101571795
0.3101417469
0.3101293271
0.3101209501
0.3101161634
0.3101140634
0.310113775
0.3101146089
0.3101160757
0.3101178499
0.310119725
0.310121575
0.3101233206
0.3101248852
0.3101260724
0.3101343939
0.3101123985
0.3101003329
0.3100954208
0.3100948548
0.3100966739
0.3100996656
0.3101031237
0.3101066544
0.3101100482
0.3101132021
0.3101160715
0.3101186367
0.3101208539
0.3101224998
0.3101571795
0.3101417469
0.3101293272
0.3101209502
0.3101161636
0.3101140637
0.3101137753
0.3101146092
0.310116076
0.3101178502
0.3101197253
0.3101215753
0.3101233209
0.3101248855
0.3101260727
0.3101718172
0.3101645483
0.3101570305
0.3101503206
0.3101449006
0.3101408401
0.310137988
0.3101361104
0.3101349696
0.3101343586
0.310134113
0.310134108
0.3101342514
0.3101344697
0.310134677
0.3101749662
0.3101713211
0.3101674032
0.310163544
0.3101599624
0.3101567711
0.3101540045
0.3101516484
0.3101496632
0.3101479995
0.3101466083
0.3101454479
0.3101444986
0.3101438198
0.3101785707
0.3101766386
0.3101742729
0.310171613
0.3101688043
0.310165974
0.3101632202
0.3101606103
0.3101581854
0.3101559658
0.3101539583
0.3101521662
0.310150616
0.3101494637
0.3101807514
0.3101799915
0.3101788786
0.3101774119
0.310175631
0.3101736015
0.3101713997
0.310169101
0.3101667724
0.3101644692
0.3101622345
0.3101601014
0.3101581018
0.3101562983
0.3101549171
0.3101799599
0.3101785493
0.3101766349
0.3101743244
0.3101717611
0.3101690846
0.3101664092
0.3101638177
0.3101613637
0.3101590773
0.3101569716
0.3101550501
0.3101533158
0.3101517982
0.3101506595
0.3101779453
0.3101749664
0.3101713212
0.3101674033
0.310163544
0.3101599624
0.310156771
0.3101540044
0.3101516482
0.3101496629
0.3101479992
0.310146608
0.3101454476
0.3101444983
0.3101438195
0.3101742502
0.3101686969
0.3101627358
0.3101571363
0.3101523028
0.3101483598
0.3101452686
0.3101429151
0.3101411645
0.3101398882
0.3101389758
0.3101383372
0.3101379019
0.3101376164
0.3101374501
0.3101704624
0.3101628847
0.3101557861
0.3101498438
0.3101451862
0.3101416941
0.3101391667
0.3101373982
0.3101362078
0.3101354479
0.3101350025
0.3101347824
0.3101347188
0.310134755
0.3101348281
0.3101742502
0.3101686969
0.3101627358
0.3101571363
0.3101523028
0.3101483599
0.3101452687
0.3101429152
0.3101411646
0.3101398884
0.310138976
0.3101383374
0.3101379021
0.3101376166
0.3101374503
0.3101779453
0.3101749664
0.3101713212
0.3101674033
0.3101635441
0.3101599625
0.3101567712
0.3101540046
0.3101516485
0.3101496632
0.3101479995
0.3101466083
0.3101454479
0.3101444986
0.3101438199
0.3101799599
0.3101785493
0.3101766349
0.3101743244
0.3101717612
0.3101690847
0.3101664093
0.3101638179
0.3101613639
0.3101590775
0.3101569719
0.3101550504
0.3101533162
0.3101517986
0.3101506599
0.3101799914
0.3101788786
0.3101774119
0.310175631
0.3101736015
0.3101713998
0.3101691011
0.3101667726
0.3101644694
0.3101622348
0.3101601017
0.3101581022
0.3101562987
0.3101549176
0.3101811017
0.3101806418
0.3101799349
0.3101789474
0.3101776722
0.3101761276
0.3101743518
0.3101723949
0.3101703123
0.3101681583
0.3101659833
0.3101638328
0.3101617545
0.3101598328
0.3101583355
0.3101807514
0.3101799915
0.3101788786
0.3101774119
0.310175631
0.3101736015
0.3101713997
0.310169101
0.3101667724
0.3101644693
0.3101622346
0.3101601015
0.3101581019
0.3101562984
0.3101549172
0.310179976
0.3101785708
0.3101766387
0.310174273
0.310171613
0.3101688043
0.310165974
0.3101632201
0.3101606102
0.3101581852
0.3101559656
0.3101539581
0.310152166
0.3101506157
0.3101494634
0.310178828
0.3101765184
0.3101735577
0.3101701939
0.3101666768
0.3101632088
0.3101599311
0.310156928
0.3101542395
0.3101518743
0.3101498209
0.3101480567
0.310146558
0.3101453188
0.310144429
0.3101779812
0.3101750766
0.3101715618
0.3101677642
0.3101639525
0.3101603164
0.3101569724
0.3101539804
0.3101513591
0.3101491004
0.3101471798
0.3101455647
0.3101442226
0.3101431369
0.3101423709
0.310178828
0.3101765184
0.3101735577
0.3101701939
0.3101666769
0.3101632089
0.3101599312
0.3101569281
0.3101542396
0.3101518745
0.310149821
0.3101480569
0.3101465581
0.310145319
0.3101444292
0.310179976
0.3101785708
0.3101766387
0.310174273
0.3101716131
0.3101688044
0.3101659741
0.3101632203
0.3101606104
0.3101581855
0.3101559659
0.3101539584
0.3101521663
0.310150616
0.3101494637
0.3101807514
0.3101799915
0.3101788786
0.3101774119
0.3101756311
0.3101736016
0.3101713998
0.3101691011
0.3101667726
0.3101644695
0.3101622348
0.3101601018
0.3101581022
0.3101562988
0.3101549176
0.3101811016
0.3101806417
0.3101799349
0.3101789474
0.3101776722
0.3101761276
0.3101743518
0.310172395
0.3101703124
0.3101681585
0.3101659836
0.3101638331
0.3101617548
0.3101598331
0.3101583359
)
;

boundaryField
{
    top
    {
        type            zeroGradient;
    }
    bottom
    {
        type            zeroGradient;
    }
    side-walls
    {
        type            zeroGradient;
    }
    inlet
    {
        type            zeroGradient;
    }
    outlet
    {
        type            zeroGradient;
    }
    procBoundary1to0
    {
        type            processor;
        value           nonuniform List<scalar> 
97
(
0.3101811016
0.3101811016
0.3101807514
0.310179976
0.3101788281
0.3101779813
0.3101788281
0.310179976
0.3101807514
0.3101811017
0.3101812063
0.3101799598
0.3101799598
0.3101799598
0.3101779453
0.3101742503
0.3101704626
0.3101742504
0.3101779454
0.3101799599
0.3101807514
0.3101808505
0.3101799478
0.3101718171
0.3101718171
0.3101718171
0.3101571795
0.3101343949
0.3101571801
0.3101718176
0.3101779454
0.310179976
0.3101803365
0.3101783777
0.3101716284
0.3100995762
0.3100995762
0.3100995762
0.3099407356
0.3100995793
0.3101571801
0.3101742504
0.3101788281
0.3101799754
0.3101769218
0.3101642776
0.3101151028
0.3086528349
0.3086528349
0.3086528349
0.3099407357
0.3099407357
0.3101343951
0.3101704627
0.3101779813
0.3101803365
0.3101783777
0.3101716285
0.3101523314
0.3101151024
0.3101523315
0.3101571791
0.3101571791
0.3101571791
0.3101742502
0.3101788281
0.3101808505
0.3101799479
0.3101773388
0.3101716285
0.3101642775
0.3101716285
0.3101773388
0.3101779452
0.3101779452
0.3101779452
0.310179976
0.3101812063
0.3101808452
0.3101799478
0.3101783777
0.3101769218
0.3101783777
0.3101799478
0.3101808452
0.3101807514
0.3101807514
0.3101807514
0.3101813692
0.3101812063
0.3101808505
0.3101803365
0.3101799754
0.3101803365
0.3101808505
0.3101812063
0.3101813692
)
;
    }
}


// ************************************************************************* //
