/*--------------------------------*- C++ -*----------------------------------*\
| =========                 |                                                 |
| \\      /  F ield         | OpenFOAM: The Open Source CFD Toolbox           |
|  \\    /   O peration     | Version:  4.x                                   |
|   \\  /    A nd           | Web:      www.OpenFOAM.org                      |
|    \\/     M anipulation  |                                                 |
\*---------------------------------------------------------------------------*/
FoamFile
{
    version     2.0;
    format      ascii;
    class       volScalarField;
    location    "11000";
    object      CO2;
}
// * * * * * * * * * * * * * * * * * * * * * * * * * * * * * * * * * * * * * //

dimensions      [0 0 0 0 0 0 0];

internalField   nonuniform List<scalar> 
1174
(
0.06498239877
0.06498317058
0.06498424884
0.06498564126
0.06498732776
0.0649892668
0.0649914035
0.06499367756
0.06499602945
0.06499840431
0.06500075247
0.06500302177
0.06500512012
0.06500675496
0.0649831088
0.06498432395
0.06498592543
0.06498786997
0.064990086
0.06499249015
0.06499500013
0.0649975427
0.06500005753
0.06500249761
0.06500482672
0.06500701005
0.06500897926
0.0650104874
0.06498466002
0.06498676974
0.06498935283
0.06499225729
0.06499532414
0.06499841454
0.0650014215
0.06500427127
0.06500691911
0.06500934272
0.06501153469
0.06501349152
0.06501518428
0.06501644247
0.06498690105
0.06499013384
0.0649938068
0.06499764717
0.06500143388
0.0650050129
0.06500829203
0.06501122757
0.06501381013
0.06501605229
0.06501797854
0.06501961504
0.06502096808
0.0650219397
0.06498847531
0.06499231319
0.06499645991
0.06500062189
0.06500459228
0.06500824357
0.06501151058
0.06501437274
0.06501683905
0.06501893623
0.06502069974
0.06502216517
0.06502335066
0.065024187
0.06498690103
0.06499013381
0.06499380677
0.06499764713
0.06500143383
0.06500501285
0.06500829197
0.06501122751
0.06501381006
0.06501605222
0.06501797847
0.06501961497
0.06502096801
0.06502193963
0.06498465999
0.0649867697
0.06498935277
0.06499225722
0.06499532406
0.06499841445
0.0650014214
0.06500427117
0.065006919
0.06500934261
0.06501153458
0.0650134914
0.06501518416
0.06501644234
0.06498310877
0.0649843239
0.06498592536
0.06498786989
0.06499008591
0.06499249004
0.064995
0.06499754257
0.06500005738
0.06500249746
0.06500482656
0.06500700988
0.06500897909
0.06501048723
0.06498239874
0.06498317055
0.0649842488
0.0649856412
0.06498732769
0.06498926671
0.0649914034
0.06499367744
0.06499602932
0.06499840416
0.06500075231
0.0650030216
0.06500511994
0.06500675477
0.06498227903
0.0649831088
0.06498432394
0.06498592542
0.06498786997
0.064990086
0.06499249015
0.06499500012
0.0649975427
0.06500005752
0.06500249761
0.06500482672
0.06500701004
0.06500897926
0.0650104874
0.06498468353
0.06498677383
0.06498929667
0.06499209553
0.06499501807
0.06499793936
0.06500076894
0.06500344843
0.06500594502
0.06500824419
0.06501034227
0.06501223589
0.06501389295
0.06501513628
0.06498859572
0.06499257592
0.06499685393
0.06500106787
0.06500497869
0.06500846334
0.06501148422
0.06501405689
0.06501622462
0.0650180412
0.06501956027
0.06502082724
0.0650218638
0.06502260494
0.06499544139
0.06500195046
0.06500806458
0.06501334236
0.06501764769
0.06502102307
0.0650235928
0.06502550428
0.06502689779
0.06502789405
0.06502859126
0.06502906658
0.06502937821
0.06502955982
0.06500178774
0.06500953895
0.06501602743
0.06502111309
0.06502492609
0.06502768577
0.06502961683
0.06503091658
0.06503174627
0.06503223257
0.06503247287
0.0650325422
0.06503250273
0.06503242284
0.0649954413
0.06500195034
0.06500806445
0.06501334222
0.06501764756
0.06502102293
0.06502359267
0.06502550415
0.06502689766
0.06502789393
0.06502859115
0.06502906647
0.0650293781
0.06502955971
0.06498859559
0.06499257576
0.06499685375
0.06500106767
0.06500497848
0.06500846313
0.06501148401
0.06501405669
0.06501622442
0.065018041
0.06501956008
0.06502082705
0.06502186362
0.06502260477
0.06498468344
0.06498677373
0.06498929655
0.06499209539
0.06499501791
0.06499793919
0.06500076877
0.06500344824
0.06500594482
0.065008244
0.06501034207
0.06501223569
0.06501389275
0.06501513608
0.06498310877
0.0649843239
0.06498592536
0.06498786989
0.0649900859
0.06499249004
0.064995
0.06499754256
0.06500005737
0.06500249744
0.06500482654
0.06500700985
0.06500897907
0.0650104872
0.06498312569
0.06498466003
0.06498676974
0.06498935283
0.06499225729
0.06499532414
0.06499841454
0.0650014215
0.06500427127
0.06500691911
0.06500934272
0.06501153469
0.06501349151
0.06501518427
0.06501644246
0.064985343
0.06498859573
0.06499257593
0.06499685394
0.06500106787
0.0650049787
0.06500846335
0.06501148423
0.0650140569
0.06501622462
0.0650180412
0.06501956027
0.06502082724
0.0650218638
0.06502260494
0.06499997129
0.06500818005
0.0650155068
0.06502142495
0.06502585867
0.06502897298
0.06503102305
0.06503226875
0.06503293578
0.06503320398
0.06503320938
0.06503305273
0.0650328143
0.06503258794
0.0650248685
0.06503842991
0.06504757686
0.06505280343
0.06505509629
0.06505541115
0.06505450052
0.06505289875
0.06505096144
0.06504891392
0.06504689382
0.0650449877
0.06504327923
0.06504198293
0.06505691399
0.06507008899
0.0650754526
0.06507607058
0.06507408421
0.06507081751
0.06506704145
0.06506318616
0.06505948031
0.06505603648
0.06505290322
0.06505010227
0.06504768116
0.06504588399
0.06502486799
0.06503842938
0.06504757637
0.065052803
0.06505509592
0.06505541084
0.06505450026
0.06505289853
0.06505096125
0.06504891376
0.06504689368
0.06504498758
0.06504327912
0.06504198282
0.06499997078
0.06500817954
0.06501550628
0.06502142445
0.0650258582
0.06502897255
0.06503102266
0.0650322684
0.06503293546
0.06503320369
0.06503320912
0.06503305249
0.06503281407
0.06503258772
0.06498859558
0.06499257573
0.06499685371
0.06500106761
0.06500497841
0.06500846305
0.06501148393
0.0650140566
0.06501622433
0.06501804091
0.06501955999
0.06502082696
0.06502186353
0.06502260468
0.06498465998
0.06498676968
0.06498935274
0.06499225717
0.06499532401
0.06499841438
0.06500142132
0.06500427107
0.0650069189
0.0650093425
0.06501153446
0.06501349128
0.06501518404
0.06501644222
0.0649843791
0.06498690105
0.06499013384
0.0649938068
0.06499764717
0.06500143387
0.0650050129
0.06500829203
0.06501122756
0.06501381012
0.06501605228
0.06501797852
0.06501961503
0.06502096807
0.06502193968
0.06498937766
0.06499544145
0.0650019505
0.06500806463
0.0650133424
0.06501764773
0.0650210231
0.06502359283
0.06502550429
0.06502689779
0.06502789405
0.06502859126
0.06502906657
0.0650293782
0.0650295598
0.06500801747
0.06502486859
0.06503842995
0.06504757687
0.06505280342
0.06505509626
0.06505541112
0.06505450047
0.06505289871
0.06505096139
0.06504891387
0.06504689377
0.06504498766
0.06504327919
0.0650419829
0.06510901647
0.06512526934
0.06512721669
0.06512162084
0.06511280137
0.06510313922
0.06509380739
0.06508530601
0.06507778855
0.0650712439
0.06506559418
0.06506075403
0.06505670747
0.06505377084
0.06527138348
0.06524823001
0.06521437998
0.06518245525
0.06515559613
0.06513383799
0.0651163787
0.06510233383
0.06509095098
0.06508164203
0.0650739643
0.06506760323
0.06506241148
0.06505870081
0.06510901485
0.06512526821
0.06512721589
0.06512162028
0.06511280097
0.06510313894
0.06509380718
0.06508530586
0.06507778843
0.0650712438
0.0650655941
0.06506075395
0.0650567074
0.06505377076
0.065024868
0.06503842931
0.06504757625
0.06505280285
0.06505509575
0.06505541066
0.06505450008
0.06505289836
0.06505096109
0.06504891361
0.06504689353
0.06504498744
0.06504327898
0.0650419827
0.0649954412
0.06500195018
0.06500806425
0.06501334199
0.06501764731
0.06502102268
0.06502359241
0.0650255039
0.06502689742
0.06502789369
0.06502859092
0.06502906625
0.06502937789
0.0650295595
0.06498690099
0.06499013374
0.06499380666
0.06499764699
0.06500143366
0.06500501266
0.06500829176
0.06501122728
0.06501380983
0.06501605199
0.06501797823
0.06501961473
0.06502096777
0.06502193938
0.06498530374
0.06498847528
0.06499231315
0.06499645985
0.06500062183
0.06500459222
0.06500824352
0.06501151053
0.06501437269
0.065016839
0.06501893618
0.0650206997
0.06502216513
0.06502335062
0.06502418696
0.06499351341
0.06500178766
0.06500953882
0.06501602729
0.06502111297
0.06502492599
0.06502768568
0.06502961675
0.06503091651
0.06503174621
0.06503223251
0.06503247282
0.06503254215
0.06503250268
0.0650324228
0.06503289648
0.06505691384
0.06507008867
0.06507545233
0.06507607037
0.06507408406
0.0650708174
0.06506704136
0.06506318609
0.06505948024
0.06505603642
0.06505290316
0.06505010222
0.06504768111
0.06504588394
0.06524435972
0.06527138284
0.06524822962
0.06521437977
0.06518245514
0.06515559608
0.06513383796
0.06511637868
0.06510233382
0.06509095097
0.06508164202
0.06507396429
0.06506760322
0.06506241146
0.0650587008
0.06596159255
0.06560424089
0.06540807102
0.0652939943
0.0652236696
0.06517780442
0.06514630539
0.0651236716
0.06510677653
0.06509376705
0.0650835021
0.06507527059
0.06506870819
0.06506408686
0.06527138303
0.06524822873
0.06521437904
0.06518245464
0.06515559572
0.06513383769
0.06511637847
0.06510233365
0.06509095082
0.0650816419
0.06507396417
0.06506760311
0.06506241137
0.0650587007
0.06505691359
0.06507008829
0.0650754519
0.06507606995
0.06507408367
0.06507081704
0.06506704104
0.0650631858
0.06505947998
0.06505603618
0.06505290294
0.06505010201
0.06504768092
0.06504588375
0.0650017875
0.06500953858
0.06501602699
0.06502111263
0.06502492563
0.06502768532
0.06502961639
0.06503091616
0.06503174587
0.06503223219
0.06503247251
0.06503254186
0.0650325024
0.06503242252
0.06498847522
0.06499231305
0.06499645971
0.06500062164
0.065004592
0.06500824326
0.06501151025
0.0650143724
0.0650168387
0.06501893587
0.06502069938
0.06502216482
0.06502335031
0.06502418665
0.06498437908
0.06498690101
0.06499013378
0.06499380673
0.06499764709
0.06500143379
0.06500501281
0.06500829193
0.06501122746
0.06501381002
0.06501605218
0.06501797842
0.06501961493
0.06502096797
0.06502193958
0.06498937752
0.06499544124
0.06500195024
0.06500806435
0.06501334212
0.06501764746
0.06502102284
0.06502359258
0.06502550407
0.06502689759
0.06502789386
0.06502859109
0.06502906641
0.06502937805
0.06502955966
0.0650080169
0.06502486795
0.06503842926
0.06504757624
0.06505280287
0.0650550958
0.06505541072
0.06505450015
0.06505289843
0.06505096116
0.06504891367
0.06504689359
0.0650449875
0.06504327904
0.06504198275
0.06507091258
0.06510901459
0.06512526784
0.06512721557
0.06512162002
0.06511280075
0.06510313876
0.06509380702
0.06508530572
0.06507778831
0.06507124369
0.065065594
0.06506075387
0.06505670733
0.06505377069
0.06524435992
0.06527138263
0.06524822829
0.0652143786
0.06518245422
0.06515559535
0.06513383737
0.0651163782
0.06510233341
0.06509095062
0.06508164173
0.06507396403
0.06506760299
0.06506241126
0.06505870061
0.06507091293
0.06510901453
0.06512526764
0.06512721534
0.06512161976
0.0651128005
0.06510313851
0.06509380679
0.0650853055
0.06507778811
0.06507124351
0.06506559383
0.06506075371
0.06505670718
0.06505377056
0.06502486839
0.06503842941
0.06504757622
0.06505280276
0.06505509563
0.06505541053
0.06505449994
0.06505289822
0.06505096094
0.06504891346
0.06504689339
0.0650449873
0.06504327885
0.06504198257
0.0649954413
0.06500195024
0.06500806427
0.06501334198
0.06501764728
0.06502102263
0.06502359236
0.06502550383
0.06502689734
0.06502789361
0.06502859084
0.06502906616
0.0650293778
0.06502955941
0.06498690102
0.06499013376
0.06499380668
0.064997647
0.06500143366
0.06500501265
0.06500829174
0.06501122725
0.06501380979
0.06501605194
0.06501797817
0.06501961467
0.0650209677
0.06502193931
0.06498312567
0.06498465997
0.06498676967
0.06498935273
0.06499225717
0.06499532401
0.0649984144
0.06500142134
0.06500427111
0.06500691894
0.06500934255
0.06501153452
0.06501349134
0.0650151841
0.06501644228
0.06498534289
0.06498859557
0.06499257571
0.0649968537
0.06500106761
0.06500497842
0.06500846307
0.06501148395
0.06501405663
0.06501622436
0.06501804094
0.06501956002
0.065020827
0.06502186357
0.06502260471
0.06499203386
0.06499997076
0.06500817948
0.06501550622
0.06502142439
0.06502585813
0.06502897248
0.06503102259
0.06503226833
0.06503293539
0.06503320363
0.06503320905
0.06503305242
0.065032814
0.06503258766
0.06500801686
0.06502486784
0.0650384291
0.06504757606
0.06505280268
0.06505509561
0.06505541054
0.06505449997
0.06505289826
0.065050961
0.06504891352
0.06504689346
0.06504498737
0.06504327892
0.06504198264
0.06503289664
0.06505691366
0.06507008829
0.06507545186
0.06507606988
0.06507408357
0.06507081692
0.06506704092
0.06506318567
0.06505947986
0.06505603606
0.06505290283
0.06505010191
0.06504768082
0.06504588367
0.06500801694
0.06502486793
0.06503842918
0.0650475761
0.06505280269
0.06505509558
0.06505541049
0.0650544999
0.06505289818
0.06505096091
0.06504891343
0.06504689335
0.06504498726
0.06504327881
0.06504198253
0.06499203405
0.06499997096
0.06500817965
0.06501550634
0.06502142446
0.06502585815
0.06502897246
0.06503102254
0.06503226825
0.06503293529
0.06503320351
0.06503320893
0.06503305229
0.06503281386
0.06503258752
0.0649885957
0.06499257581
0.06499685375
0.06500106763
0.06500497841
0.06500846302
0.06501148388
0.06501405652
0.06501622423
0.0650180408
0.06501955986
0.06502082683
0.06502186339
0.06502260453
0.06498466001
0.0649867697
0.06498935275
0.06499225717
0.06499532399
0.06499841435
0.06500142126
0.065004271
0.06500691882
0.06500934241
0.06501153436
0.06501349116
0.06501518391
0.06501644209
0.064982279
0.06498310875
0.06498432388
0.06498592533
0.06498786986
0.06499008586
0.06499249
0.06499499995
0.06499754251
0.06500005732
0.0650024974
0.06500482649
0.06500700981
0.06500897902
0.06501048716
0.06498314322
0.06498468343
0.0649867737
0.06498929652
0.06499209536
0.06499501787
0.06499793915
0.06500076872
0.06500344819
0.06500594477
0.06500824395
0.06501034202
0.06501223563
0.06501389269
0.06501513602
0.06498534289
0.06498859557
0.06499257571
0.06499685369
0.06500106759
0.0650049784
0.06500846303
0.06501148391
0.06501405657
0.0650162243
0.06501804088
0.06501955995
0.06502082692
0.06502186349
0.06502260463
0.06498937751
0.06499544119
0.06500195016
0.06500806422
0.06501334196
0.06501764728
0.06502102265
0.06502359239
0.06502550387
0.06502689738
0.06502789365
0.06502859088
0.06502906621
0.06502937785
0.06502955946
0.06499351339
0.06500178756
0.06500953864
0.06501602705
0.06502111268
0.06502492567
0.06502768535
0.06502961641
0.06503091616
0.06503174587
0.06503223217
0.06503247249
0.06503254183
0.06503250237
0.06503242249
0.06498937754
0.06499544123
0.0650019502
0.06500806427
0.065013342
0.06501764731
0.06502102266
0.06502359238
0.06502550385
0.06502689735
0.06502789362
0.06502859084
0.06502906616
0.06502937779
0.0650295594
0.06498534291
0.0649885956
0.06499257574
0.0649968537
0.06500106759
0.06500497838
0.065008463
0.06501148386
0.06501405651
0.06501622422
0.06501804079
0.06501955985
0.06502082682
0.06502186338
0.06502260452
0.06498314325
0.06498468347
0.06498677374
0.06498929655
0.06499209537
0.06499501787
0.06499793913
0.06500076868
0.06500344814
0.0650059447
0.06500824385
0.06501034191
0.06501223551
0.06501389256
0.06501513588
0.0649831088
0.06498432392
0.06498592537
0.06498786989
0.06499008588
0.06499249
0.06499499994
0.06499754249
0.06500005728
0.06500249734
0.06500482642
0.06500700972
0.06500897892
0.06501048704
0.06498189658
0.06498239873
0.06498317053
0.06498424878
0.06498564117
0.06498732766
0.06498926667
0.06499140336
0.0649936774
0.06499602926
0.0649984041
0.06500075225
0.06500302154
0.06500511987
0.0650067547
0.06498227901
0.06498310876
0.06498432388
0.06498592534
0.06498786986
0.06499008587
0.06499249
0.06499499995
0.06499754251
0.06500005732
0.06500249739
0.06500482648
0.06500700979
0.065008979
0.06501048713
0.06498312567
0.06498465997
0.06498676966
0.06498935272
0.06499225715
0.06499532398
0.06499841435
0.06500142128
0.06500427104
0.06500691886
0.06500934246
0.06501153442
0.06501349124
0.06501518399
0.06501644217
0.06498437908
0.06498690099
0.06499013373
0.06499380665
0.06499764699
0.06500143365
0.06500501265
0.06500829175
0.06501122727
0.06501380982
0.06501605197
0.06501797821
0.06501961471
0.06502096775
0.06502193935
0.06498530373
0.06498847524
0.06499231306
0.06499645973
0.06500062166
0.06500459202
0.06500824328
0.06501151026
0.06501437241
0.0650168387
0.06501893587
0.06502069938
0.06502216481
0.0650233503
0.06502418663
0.06498437907
0.06498690098
0.06499013373
0.06499380665
0.06499764698
0.06500143364
0.06500501263
0.06500829173
0.06501122724
0.06501380978
0.06501605192
0.06501797816
0.06501961465
0.06502096769
0.0650219393
0.06498312566
0.06498465996
0.06498676965
0.0649893527
0.06499225711
0.06499532393
0.06499841429
0.06500142121
0.06500427095
0.06500691877
0.06500934236
0.06501153431
0.06501349112
0.06501518387
0.06501644205
0.06498227901
0.06498310876
0.06498432389
0.06498592534
0.06498786986
0.06499008585
0.06499248997
0.06499499991
0.06499754245
0.06500005725
0.06500249731
0.06500482639
0.06500700969
0.06500897889
0.06501048701
0.06498189659
0.06498239875
0.06498317055
0.0649842488
0.06498564119
0.06498732767
0.06498926668
0.06499140335
0.06499367738
0.06499602923
0.06499840406
0.06500075219
0.06500302147
0.06500511979
0.06500675461
)
;

boundaryField
{
    top
    {
        type            zeroGradient;
    }
    bottom
    {
        type            zeroGradient;
    }
    side-walls
    {
        type            zeroGradient;
    }
    inlet
    {
        type            zeroGradient;
    }
    outlet
    {
        type            zeroGradient;
    }
    procBoundary1to0
    {
        type            processor;
        value           nonuniform List<scalar> 
97
(
0.06498189659
0.06498189659
0.06498227902
0.06498312567
0.06498437906
0.06498530371
0.06498437905
0.06498312565
0.064982279
0.06498189657
0.06498178229
0.06498314327
0.06498314327
0.06498314327
0.06498534293
0.06498937751
0.06499351333
0.06498937745
0.06498534284
0.0649831432
0.064982279
0.06498217077
0.06498315641
0.06499203414
0.06499203414
0.06499203414
0.06500801702
0.06503289628
0.06500801657
0.06499203372
0.06498534284
0.06498312565
0.06498273201
0.06498487086
0.0649922403
0.0650709142
0.0650709142
0.0650709142
0.06524435916
0.06507091198
0.06500801661
0.0649893774
0.06498437903
0.06498312631
0.06498646048
0.06500026663
0.06505396127
0.06665067148
0.06665067148
0.06665067148
0.06524435877
0.06524435877
0.06503289603
0.06499351319
0.06498530367
0.06498273201
0.06498487081
0.06499224016
0.06501331057
0.06505396143
0.06501331065
0.06500801716
0.06500801716
0.06500801716
0.0649893775
0.06498437906
0.06498217076
0.06498315638
0.06498600513
0.06499224015
0.06500026674
0.0649922402
0.06498600518
0.06498534296
0.06498534296
0.06498534296
0.06498312567
0.06498178228
0.06498217664
0.06498315639
0.06498487081
0.06498646048
0.06498487082
0.06498315639
0.06498217665
0.06498227902
0.06498227902
0.06498227902
0.06498160446
0.06498178228
0.06498217077
0.06498273201
0.06498312631
0.06498273201
0.06498217076
0.06498178228
0.06498160447
)
;
    }
}


// ************************************************************************* //
