/*--------------------------------*- C++ -*----------------------------------*\
| =========                 |                                                 |
| \\      /  F ield         | OpenFOAM: The Open Source CFD Toolbox           |
|  \\    /   O peration     | Version:  4.x                                   |
|   \\  /    A nd           | Web:      www.OpenFOAM.org                      |
|    \\/     M anipulation  |                                                 |
\*---------------------------------------------------------------------------*/
FoamFile
{
    version     2.0;
    format      ascii;
    class       volScalarField;
    location    "11000";
    object      H2;
}
// * * * * * * * * * * * * * * * * * * * * * * * * * * * * * * * * * * * * * //

dimensions      [0 0 0 0 0 0 0];

internalField   nonuniform List<scalar> 
1174
(
0.004463764226
0.004463721298
0.004463661326
0.004463583883
0.004463490087
0.004463382248
0.004463263421
0.00446313696
0.004463006177
0.004462874122
0.004462743558
0.004462617386
0.004462500725
0.004462409837
0.00446372473
0.004463657142
0.004463568067
0.004463459914
0.004463336665
0.004463202959
0.004463063373
0.00446292198
0.004462782138
0.00446264646
0.00446251696
0.004462395574
0.004462286099
0.004462202261
0.004463638441
0.004463521091
0.004463377416
0.004463215871
0.0044630453
0.004462873428
0.004462706205
0.004462547733
0.0044624005
0.004462265745
0.004462143881
0.0044620351
0.004461941007
0.004461871076
0.004463513777
0.004463333956
0.004463129657
0.004462916055
0.004462705449
0.004462506404
0.004462324049
0.004462160815
0.004462017221
0.004461892567
0.004461785489
0.004461694531
0.004461619339
0.004461565351
0.004463426202
0.004463212721
0.004462982071
0.004462750582
0.004462529761
0.0044623267
0.004462145024
0.004461985874
0.004461848751
0.004461732164
0.004461634142
0.004461552702
0.004461486832
0.00446144037
0.004463513778
0.004463333957
0.004463129659
0.004462916058
0.004462705452
0.004462506407
0.004462324053
0.004462160819
0.004462017225
0.004461892571
0.004461785494
0.004461694536
0.004461619345
0.004461565357
0.004463638442
0.004463521094
0.004463377419
0.004463215875
0.004463045305
0.004462873433
0.004462706211
0.00446254774
0.004462400507
0.004462265753
0.004462143889
0.004462035109
0.004461941016
0.004461871085
0.004463724732
0.004463657144
0.00446356807
0.004463459918
0.004463336671
0.004463202965
0.00446306338
0.004462921989
0.004462782147
0.00446264647
0.004462516971
0.004462395586
0.004462286111
0.004462202274
0.004463764228
0.0044637213
0.004463661329
0.004463583887
0.004463490091
0.004463382254
0.004463263427
0.004463136968
0.004463006185
0.004462874132
0.004462743569
0.004462617398
0.004462500738
0.004462409851
0.004463770884
0.00446372473
0.004463657142
0.004463568067
0.004463459914
0.004463336665
0.004463202959
0.004463063373
0.00446292198
0.004462782138
0.00446264646
0.004462516961
0.004462395575
0.004462286099
0.004462202261
0.004463637132
0.004463520863
0.004463380538
0.004463224866
0.004463062322
0.004462899856
0.004462742497
0.004462593496
0.004462454674
0.00446232684
0.004462210196
0.00446210493
0.004462012821
0.004461943715
0.004463419503
0.004463198105
0.00446296015
0.00446272577
0.004462508261
0.004462314468
0.004462146481
0.004462003433
0.004461882916
0.004461781935
0.004461697507
0.004461627104
0.004461569515
0.004461528346
0.00446303868
0.004462676609
0.004462336522
0.004462042975
0.004461803534
0.004461615833
0.004461472956
0.0044613667
0.00446128926
0.004461233919
0.004461195214
0.004461168852
0.004461151592
0.00446114155
0.004462685625
0.004462254457
0.004461893554
0.004461610702
0.004461398657
0.004461245215
0.004461137872
0.00446106565
0.004461019578
0.004460992609
0.004460979323
0.004460975546
0.004460977818
0.004460982323
0.004463038685
0.004462676615
0.00446233653
0.004462042983
0.004461803542
0.004461615842
0.004461472964
0.004461366708
0.004461289268
0.004461233927
0.004461195222
0.00446116886
0.0044611516
0.004461141558
0.00446341951
0.004463198115
0.004462960161
0.004462725782
0.004462508274
0.004462314481
0.004462146495
0.004462003447
0.004461882929
0.004461781949
0.004461697521
0.004461627117
0.004461569528
0.00446152836
0.004463637137
0.004463520869
0.004463380545
0.004463224874
0.004463062332
0.004462899866
0.004462742509
0.004462593508
0.004462454687
0.004462326854
0.004462210211
0.004462104944
0.004462012836
0.00446194373
0.004463724732
0.004463657144
0.00446356807
0.004463459918
0.004463336671
0.004463202966
0.004463063381
0.00446292199
0.004462782149
0.004462646472
0.004462516974
0.004462395589
0.004462286114
0.004462202277
0.004463723787
0.004463638441
0.004463521092
0.004463377416
0.004463215872
0.004463045301
0.004462873428
0.004462706205
0.004462547733
0.0044624005
0.004462265746
0.004462143882
0.004462035101
0.004461941008
0.004461871076
0.00446360044
0.004463419503
0.004463198105
0.00446296015
0.00446272577
0.004462508261
0.004462314468
0.004462146481
0.004462003433
0.004461882916
0.004461781935
0.004461697507
0.004461627104
0.004461569515
0.004461528347
0.004462786681
0.004462330061
0.004461922523
0.004461593359
0.004461346784
0.004461173614
0.00446105965
0.004460990435
0.004460953411
0.004460938572
0.004460938353
0.004460947145
0.004460960484
0.004460973135
0.004461401617
0.004460647247
0.00446013848
0.00445984782
0.00445972037
0.004459702957
0.004459753714
0.004459842915
0.004459950778
0.004460064767
0.004460177226
0.00446028334
0.004460378454
0.004460450623
0.004459618842
0.004458885995
0.004458587729
0.004458553474
0.004458664099
0.004458845943
0.004459056113
0.004459270683
0.004459476932
0.004459668599
0.004459842983
0.004459998875
0.004460133631
0.004460233663
0.004461401648
0.004460647278
0.004460138509
0.004459847846
0.004459720393
0.004459702976
0.004459753732
0.004459842931
0.004459950792
0.004460064779
0.004460177237
0.004460283351
0.004460378464
0.004460450632
0.00446278671
0.00446233009
0.004461922553
0.004461593389
0.004461346813
0.004461173641
0.004461059676
0.004460990459
0.004460953433
0.004460938593
0.004460938372
0.004460947164
0.004460960501
0.004460973152
0.004463419511
0.004463198116
0.004462960164
0.004462725786
0.004462508279
0.004462314487
0.004462146501
0.004462003453
0.004461882936
0.004461781956
0.004461697527
0.004461627124
0.004461569535
0.004461528367
0.004463638443
0.004463521095
0.004463377421
0.004463215878
0.004463045309
0.004462873438
0.004462706217
0.004462547747
0.004462400515
0.004462265762
0.004462143898
0.004462035118
0.004461941026
0.004461871096
0.004463654062
0.004463513777
0.004463333957
0.004463129658
0.004462916056
0.00446270545
0.004462506405
0.00446232405
0.004462160816
0.004462017222
0.004461892568
0.004461785491
0.004461694533
0.004461619341
0.004461565353
0.004463375992
0.004463038677
0.004462676607
0.004462336521
0.004462042973
0.004461803532
0.004461615833
0.004461472955
0.0044613667
0.00446128926
0.00446123392
0.004461195215
0.004461168853
0.004461151594
0.004461141552
0.004462339027
0.004461401615
0.004460647246
0.004460138481
0.004459847822
0.004459720372
0.004459702959
0.004459753717
0.004459842919
0.004459950781
0.00446006477
0.004460177229
0.004460283343
0.004460378457
0.004460450626
0.004456720254
0.004455816229
0.004455708065
0.004456019536
0.004456510326
0.004457047975
0.004457567231
0.004458040272
0.004458458565
0.00445882273
0.004459137102
0.004459406431
0.004459631606
0.004459795021
0.004447687166
0.004448975567
0.004450858999
0.004452635264
0.004454129667
0.004455340253
0.004456311658
0.004457093092
0.004457726419
0.00445824436
0.004458671549
0.004459025483
0.004459314361
0.004459520833
0.00445672035
0.004455816296
0.004455708114
0.004456019572
0.004456510353
0.004457047997
0.004457567248
0.004458040286
0.004458458577
0.00445882274
0.004459137111
0.00445940644
0.004459631614
0.004459795029
0.004461401647
0.004460647282
0.004460138518
0.004459847858
0.004459720406
0.00445970299
0.004459753745
0.004459842944
0.004459950805
0.004460064792
0.004460177249
0.004460283362
0.004460378475
0.004460450643
0.00446303869
0.004462676625
0.004462336542
0.004462042998
0.004461803559
0.00446161586
0.004461472983
0.004461366727
0.004461289287
0.004461233946
0.00446119524
0.004461168878
0.004461151618
0.004461141575
0.00446351378
0.004463333961
0.004463129666
0.004462916067
0.004462705463
0.00446250642
0.004462324068
0.004462160835
0.004462017242
0.00446189259
0.004461785513
0.004461694556
0.004461619364
0.004461565377
0.004463602624
0.004463426204
0.004463212725
0.004462982075
0.004462750586
0.004462529765
0.004462326704
0.004462145028
0.004461985878
0.004461848754
0.004461732168
0.004461634145
0.004461552705
0.004461486835
0.004461440373
0.004463145913
0.004462685631
0.004462254466
0.004461893563
0.00446161071
0.004461398664
0.004461245221
0.004461137878
0.004461065655
0.004461019583
0.004460992613
0.004460979327
0.00446097555
0.004460977822
0.004460982326
0.004460954929
0.004459618855
0.004458886016
0.004458587747
0.004458553488
0.00445866411
0.00445884595
0.004459056119
0.004459270688
0.004459476937
0.004459668603
0.004459842987
0.004459998879
0.004460133634
0.004460233666
0.004449190331
0.004447687212
0.004448975595
0.004450859015
0.004452635273
0.004454129672
0.004455340256
0.00445631166
0.004457093093
0.00445772642
0.004458244362
0.00445867155
0.004459025484
0.004459314362
0.004459520834
0.004409287587
0.004429169323
0.004440083424
0.004446430162
0.004450342714
0.004452894446
0.004454646912
0.004455906159
0.004456846133
0.004457569934
0.004458141045
0.004458599028
0.00445896415
0.004459221279
0.00444768719
0.004448975644
0.004450859062
0.004452635309
0.004454129701
0.00445534028
0.004456311679
0.00445709311
0.004457726434
0.004458244375
0.004458671562
0.004459025495
0.004459314373
0.004459520844
0.004459618863
0.004458886037
0.004458587774
0.004458553518
0.004458664139
0.004458845979
0.004459056146
0.004459270713
0.00445947696
0.004459668625
0.004459843007
0.004459998898
0.004460133653
0.004460233684
0.004462685637
0.004462254479
0.00446189358
0.004461610731
0.004461398688
0.004461245246
0.004461137903
0.004461065681
0.004461019608
0.004460992638
0.004460979352
0.004460975574
0.004460977846
0.00446098235
0.004463426206
0.00446321273
0.004462982083
0.004462750598
0.00446252978
0.004462326721
0.004462145047
0.004461985899
0.004461848777
0.004461732192
0.00446163417
0.00446155273
0.00446148686
0.004461440399
0.004463654063
0.00446351378
0.00446333396
0.004463129662
0.004462916061
0.004462705455
0.004462506411
0.004462324057
0.004462160822
0.004462017229
0.004461892575
0.004461785498
0.00446169454
0.004461619348
0.004461565361
0.004463375999
0.00446303869
0.004462676623
0.004462336538
0.00446204299
0.004461803549
0.004461615849
0.004461472971
0.004461366714
0.004461289274
0.004461233932
0.004461195227
0.004461168865
0.004461151605
0.004461141562
0.004462339063
0.004461401654
0.004460647288
0.004460138519
0.004459847856
0.004459720402
0.004459702985
0.00445975374
0.004459842938
0.004459950799
0.004460064785
0.004460177243
0.004460283356
0.004460378469
0.004460450637
0.004458839983
0.004456720374
0.004455816323
0.004455708137
0.004456019591
0.004456510369
0.00445704801
0.004457567259
0.004458040296
0.004458458585
0.004458822748
0.004459137118
0.004459406446
0.004459631619
0.004459795034
0.004449190322
0.004447687226
0.004448975677
0.004450859092
0.004452635336
0.004454129724
0.004455340299
0.004456311696
0.004457093124
0.004457726447
0.004458244385
0.00445867157
0.004459025503
0.004459314379
0.00445952085
0.00445883996
0.004456720376
0.004455816337
0.004455708156
0.004456019612
0.00445651039
0.004457048031
0.004457567279
0.004458040315
0.004458458603
0.004458822764
0.004459137133
0.00445940646
0.004459631632
0.004459795046
0.004461401623
0.004460647279
0.004460138523
0.004459847867
0.004459720418
0.004459703003
0.004459753759
0.004459842958
0.004459950818
0.004460064805
0.004460177262
0.004460283375
0.004460378487
0.004460450655
0.004463038684
0.004462676622
0.004462336542
0.004462043
0.004461803563
0.004461615865
0.004461472989
0.004461366734
0.004461289294
0.004461233954
0.004461195248
0.004461168886
0.004461151626
0.004461141584
0.004463513778
0.00446333396
0.004463129665
0.004462916067
0.004462705464
0.004462506422
0.004462324071
0.004462160839
0.004462017247
0.004461892595
0.004461785519
0.004461694562
0.004461619371
0.004461565384
0.004463723788
0.004463638444
0.004463521096
0.004463377422
0.004463215879
0.004463045309
0.004462873437
0.004462706215
0.004462547744
0.004462400512
0.004462265758
0.004462143894
0.004462035113
0.004461941021
0.00446187109
0.004463600447
0.004463419513
0.004463198118
0.004462960165
0.004462725786
0.004462508279
0.004462314486
0.004462146499
0.004462003451
0.004461882934
0.004461781953
0.004461697525
0.004461627121
0.004461569533
0.004461528364
0.004463228227
0.004462786714
0.004462330096
0.004461922559
0.004461593395
0.004461346819
0.004461173647
0.004461059682
0.004460990464
0.004460953438
0.004460938598
0.004460938377
0.004460947169
0.004460960506
0.004460973157
0.004462339065
0.00446140166
0.004460647298
0.004460138532
0.00445984787
0.004459720417
0.004459703
0.004459753754
0.004459842952
0.004459950812
0.004460064798
0.004460177255
0.004460283368
0.00446037848
0.004460450648
0.00446095492
0.004459618867
0.004458886043
0.004458587781
0.004458553525
0.004458664147
0.004458845988
0.004459056155
0.004459270722
0.004459476969
0.004459668632
0.004459843014
0.004459998905
0.004460133659
0.004460233689
0.00446233906
0.004461401656
0.004460647296
0.004460138532
0.004459847873
0.004459720422
0.004459703007
0.004459753762
0.004459842961
0.004459950821
0.004460064808
0.004460177265
0.004460283378
0.004460378489
0.004460450658
0.004463228215
0.004462786702
0.004462330086
0.004461922554
0.004461593394
0.004461346822
0.004461173653
0.00446105969
0.004460990475
0.00446095345
0.004460938611
0.004460938391
0.004460947183
0.00446096052
0.004460973171
0.004463419504
0.004463198112
0.004462960162
0.004462725787
0.004462508282
0.004462314492
0.004462146508
0.004462003462
0.004461882946
0.004461781967
0.00446169754
0.004461627137
0.004461569549
0.004461528381
0.004463638441
0.004463521094
0.004463377421
0.004463215879
0.004463045311
0.004462873443
0.004462706223
0.004462547754
0.004462400523
0.004462265771
0.004462143909
0.00446203513
0.004461941038
0.004461871108
0.004463770886
0.004463724733
0.004463657146
0.004463568072
0.004463459921
0.004463336674
0.004463202968
0.004463063384
0.004462921993
0.004462782152
0.004462646475
0.004462516976
0.004462395591
0.004462286116
0.004462202279
0.004463722811
0.004463637138
0.00446352087
0.004463380547
0.004463224877
0.004463062335
0.004462899869
0.004462742512
0.004462593512
0.004462454691
0.004462326858
0.004462210215
0.004462104948
0.00446201284
0.004461943735
0.004463600446
0.004463419512
0.004463198118
0.004462960166
0.004462725788
0.004462508281
0.00446231449
0.004462146503
0.004462003456
0.004461882939
0.004461781959
0.004461697531
0.004461627128
0.004461569539
0.004461528371
0.004463376
0.004463038693
0.004462676628
0.004462336546
0.004462043001
0.004461803562
0.004461615863
0.004461472986
0.00446136673
0.00446128929
0.004461233949
0.004461195244
0.004461168882
0.004461151621
0.004461141579
0.004463145913
0.004462685637
0.004462254479
0.00446189358
0.004461610731
0.004461398688
0.004461245247
0.004461137905
0.004461065683
0.00446101961
0.004460992641
0.004460979354
0.004460975577
0.004460977848
0.004460982353
0.004463375999
0.004463038691
0.004462676626
0.004462336545
0.004462043001
0.004461803563
0.004461615865
0.004461472989
0.004461366734
0.004461289295
0.004461233954
0.004461195249
0.004461168888
0.004461151628
0.004461141586
0.004463600445
0.004463419511
0.004463198117
0.004462960166
0.00446272579
0.004462508284
0.004462314494
0.00446214651
0.004462003463
0.004461882948
0.004461781968
0.004461697541
0.004461627138
0.00446156955
0.004461528382
0.004463722809
0.004463637136
0.004463520868
0.004463380546
0.004463224877
0.004463062336
0.004462899872
0.004462742517
0.004462593518
0.004462454699
0.004462326867
0.004462210226
0.00446210496
0.004462012853
0.004461943748
0.00446372473
0.004463657143
0.00446356807
0.004463459919
0.004463336673
0.004463202969
0.004463063386
0.004462921997
0.004462782158
0.004462646482
0.004462516985
0.004462395602
0.004462286128
0.004462202292
0.004463792159
0.004463764228
0.004463721301
0.00446366133
0.004463583889
0.004463490093
0.004463382256
0.004463263431
0.004463136971
0.004463006189
0.004462874136
0.004462743574
0.004462617403
0.004462500743
0.004462409856
0.004463770886
0.004463724733
0.004463657146
0.004463568072
0.004463459921
0.004463336674
0.004463202969
0.004463063384
0.004462921994
0.004462782153
0.004462646476
0.004462516978
0.004462395593
0.004462286119
0.004462202282
0.004463723788
0.004463638444
0.004463521097
0.004463377423
0.00446321588
0.004463045312
0.004462873441
0.00446270622
0.00446254775
0.004462400518
0.004462265766
0.004462143902
0.004462035122
0.00446194103
0.0044618711
0.004463654063
0.004463513781
0.004463333963
0.004463129667
0.004462916069
0.004462705465
0.004462506422
0.00446232407
0.004462160837
0.004462017245
0.004461892592
0.004461785516
0.004461694558
0.004461619367
0.00446156538
0.004463602625
0.004463426207
0.00446321273
0.004462982084
0.004462750598
0.00446252978
0.004462326722
0.004462145048
0.0044619859
0.004461848778
0.004461732193
0.004461634171
0.004461552732
0.004461486862
0.004461440401
0.004463654064
0.004463513781
0.004463333963
0.004463129668
0.00446291607
0.004462705467
0.004462506425
0.004462324073
0.004462160841
0.004462017249
0.004461892597
0.004461785521
0.004461694564
0.004461619373
0.004461565386
0.004463723789
0.004463638445
0.004463521098
0.004463377425
0.004463215883
0.004463045316
0.004462873446
0.004462706227
0.004462547757
0.004462400527
0.004462265775
0.004462143912
0.004462035132
0.004461941041
0.004461871111
0.004463770885
0.004463724732
0.004463657145
0.004463568072
0.004463459921
0.004463336675
0.004463202972
0.004463063389
0.004462921999
0.00446278216
0.004462646484
0.004462516987
0.004462395603
0.00446228613
0.004462202294
0.004463792158
0.004463764227
0.0044637213
0.004463661329
0.004463583888
0.004463490093
0.004463382257
0.004463263432
0.004463136974
0.004463006194
0.004462874142
0.004462743581
0.004462617412
0.004462500753
0.004462409867
)
;

boundaryField
{
    top
    {
        type            zeroGradient;
    }
    bottom
    {
        type            zeroGradient;
    }
    side-walls
    {
        type            zeroGradient;
    }
    inlet
    {
        type            zeroGradient;
    }
    outlet
    {
        type            zeroGradient;
    }
    procBoundary1to0
    {
        type            processor;
        value           nonuniform List<scalar> 
97
(
0.004463792158
0.004463792158
0.004463770885
0.004463723788
0.004463654065
0.004463602627
0.004463654065
0.00446372379
0.004463770886
0.004463792159
0.004463798515
0.004463722809
0.004463722809
0.004463722809
0.004463600444
0.004463376001
0.00446314592
0.004463376005
0.00446360045
0.004463722813
0.004463770886
0.004463776905
0.004463722075
0.00446322821
0.00446322821
0.00446322821
0.004462339059
0.004460954955
0.004462339087
0.004463228236
0.00446360045
0.00446372379
0.004463745684
0.004463626701
0.004463216731
0.004458839896
0.004458839896
0.004458839896
0.00444919047
0.00445884004
0.004462339084
0.004463376008
0.004463654066
0.004463723749
0.004463538267
0.004462770204
0.004459782994
0.004370950351
0.004370950351
0.004370950351
0.004449190486
0.004449190486
0.004460954968
0.004463145927
0.004463602629
0.004463745684
0.004463626703
0.004463216738
0.004462044537
0.00445978298
0.004462044536
0.004462339046
0.004462339046
0.004462339046
0.004463376001
0.004463654065
0.004463776905
0.004463722076
0.0044635636
0.004463216738
0.004462770197
0.004463216736
0.004463563598
0.004463600442
0.004463600442
0.004463600442
0.004463723788
0.004463798515
0.004463776578
0.004463722076
0.004463626703
0.004463538267
0.004463626702
0.004463722076
0.004463776578
0.004463770884
0.004463770884
0.004463770884
0.004463808406
0.004463798515
0.004463776905
0.004463745684
0.004463723749
0.004463745684
0.004463776905
0.004463798515
0.004463808406
)
;
    }
}


// ************************************************************************* //
