/*--------------------------------*- C++ -*----------------------------------*\
| =========                 |                                                 |
| \\      /  F ield         | OpenFOAM: The Open Source CFD Toolbox           |
|  \\    /   O peration     | Version:  4.x                                   |
|   \\  /    A nd           | Web:      www.OpenFOAM.org                      |
|    \\/     M anipulation  |                                                 |
\*---------------------------------------------------------------------------*/
FoamFile
{
    version     2.0;
    format      ascii;
    class       volScalarField;
    location    "11000";
    object      H2O;
}
// * * * * * * * * * * * * * * * * * * * * * * * * * * * * * * * * * * * * * //

dimensions      [0 0 0 0 0 0 0];

internalField   nonuniform List<scalar> 
1174
(
1.049279809e-05
1.085134366e-05
1.135224208e-05
1.199906831e-05
1.278250648e-05
1.368325013e-05
1.467581052e-05
1.573217315e-05
1.682468408e-05
1.792786266e-05
1.901863552e-05
2.007276953e-05
2.104749037e-05
2.180689706e-05
1.082267652e-05
1.138716385e-05
1.213111188e-05
1.303441863e-05
1.406383545e-05
1.518063758e-05
1.634659286e-05
1.752769257e-05
1.869589633e-05
1.982937851e-05
2.091130366e-05
2.192550658e-05
2.284024569e-05
2.354078764e-05
1.154332458e-05
1.252336244e-05
1.372328455e-05
1.507248355e-05
1.649712157e-05
1.793269091e-05
1.932949789e-05
2.065328553e-05
2.188326912e-05
2.300909028e-05
2.402731099e-05
2.493629334e-05
2.572260654e-05
2.630703354e-05
1.258438501e-05
1.408609831e-05
1.57922766e-05
1.75762152e-05
1.933522345e-05
2.099775831e-05
2.252098001e-05
2.388459488e-05
2.508424387e-05
2.612577154e-05
2.702054171e-05
2.778072113e-05
2.840922118e-05
2.886052064e-05
1.331565928e-05
1.509843379e-05
1.702466744e-05
1.895799172e-05
2.08023166e-05
2.249841154e-05
2.401599332e-05
2.534551747e-05
2.649115337e-05
2.746531923e-05
2.828449168e-05
2.896519753e-05
2.951585988e-05
2.990431389e-05
1.258436091e-05
1.408606439e-05
1.579222843e-05
1.757615269e-05
1.933513796e-05
2.099765129e-05
2.252085071e-05
2.388444213e-05
2.508406923e-05
2.612557426e-05
2.702032695e-05
2.778048854e-05
2.840897425e-05
2.886025628e-05
1.154329039e-05
1.252331584e-05
1.37232228e-05
1.50724016e-05
1.649701021e-05
1.793254565e-05
1.9329312e-05
2.065306256e-05
2.188300858e-05
2.300879271e-05
2.402696859e-05
2.493591612e-05
2.572219553e-05
2.630659287e-05
1.082263904e-05
1.138711983e-05
1.213105725e-05
1.303434537e-05
1.406373364e-05
1.518050155e-05
1.634641614e-05
1.752746933e-05
1.869562295e-05
1.982905143e-05
2.091092409e-05
2.19250747e-05
2.283976189e-05
2.354026261e-05
1.049277252e-05
1.085131721e-05
1.13522077e-05
1.199901992e-05
1.27824362e-05
1.368314763e-05
1.467566839e-05
1.573198295e-05
1.682444004e-05
1.792755747e-05
1.901826777e-05
2.007233787e-05
2.104699307e-05
2.18063305e-05
1.043717614e-05
1.082265213e-05
1.138714158e-05
1.213108894e-05
1.303439693e-05
1.406381471e-05
1.518061789e-05
1.634657406e-05
1.752767082e-05
1.869587473e-05
1.982935775e-05
2.091128292e-05
2.192548389e-05
2.284022466e-05
2.354076697e-05
1.155426964e-05
1.252527155e-05
1.369720375e-05
1.499735414e-05
1.635495584e-05
1.771198101e-05
1.902640438e-05
2.027110179e-05
2.143083768e-05
2.249886613e-05
2.347347898e-05
2.435310651e-05
2.512284354e-05
2.570036449e-05
1.337171743e-05
1.522059459e-05
1.720781293e-05
1.916526942e-05
2.098193042e-05
2.26006303e-05
2.400390116e-05
2.519896863e-05
2.620592983e-05
2.704977482e-05
2.775541823e-05
2.834395237e-05
2.882545013e-05
2.916968637e-05
1.655173942e-05
1.957527277e-05
2.241536643e-05
2.486697227e-05
2.686687128e-05
2.843479359e-05
2.962848165e-05
3.051640165e-05
3.116372076e-05
3.162650772e-05
3.195038345e-05
3.217117718e-05
3.231592473e-05
3.240023997e-05
1.949960508e-05
2.310010638e-05
2.611408566e-05
2.847645328e-05
3.024766093e-05
3.152958255e-05
3.242659328e-05
3.303035587e-05
3.341576736e-05
3.364166767e-05
3.375329745e-05
3.378550254e-05
3.376715929e-05
3.373000113e-05
1.655163437e-05
1.957514441e-05
2.241521359e-05
2.486679182e-05
2.686666218e-05
2.843455508e-05
2.962822062e-05
3.051611899e-05
3.116341733e-05
3.162619335e-05
3.195005649e-05
3.217084216e-05
3.231557962e-05
3.239987956e-05
1.337158424e-05
1.522044605e-05
1.72076387e-05
1.916505731e-05
2.0981673e-05
2.2600325e-05
2.400354855e-05
2.519856994e-05
2.620549272e-05
2.70493024e-05
2.775491322e-05
2.834342357e-05
2.88248945e-05
2.916910681e-05
1.155418824e-05
1.252519064e-05
1.369710538e-05
1.499722009e-05
1.635477727e-05
1.771174691e-05
1.902611467e-05
2.027075184e-05
2.14304241e-05
2.249839729e-05
2.347295491e-05
2.435253287e-05
2.512222076e-05
2.569969885e-05
1.082264335e-05
1.138712182e-05
1.213105342e-05
1.30343332e-05
1.406370954e-05
1.518046081e-05
1.634635834e-05
1.752738989e-05
1.869552348e-05
1.982893261e-05
2.091078579e-05
2.19249164e-05
2.283958356e-05
2.354005256e-05
1.083050513e-05
1.154326746e-05
1.252330272e-05
1.372322416e-05
1.507242362e-05
1.64970596e-05
1.793262799e-05
1.932943473e-05
2.065322699e-05
2.188321141e-05
2.300903455e-05
2.402725586e-05
2.493623781e-05
2.572255114e-05
2.630697685e-05
1.18606692e-05
1.337164236e-05
1.522053193e-05
1.720775872e-05
1.916522049e-05
2.098188383e-05
2.260058409e-05
2.40038582e-05
2.51989262e-05
2.620588993e-05
2.704973885e-05
2.775538369e-05
2.83439163e-05
2.882541291e-05
2.916964971e-05
1.865621141e-05
2.24691533e-05
2.587245285e-05
2.862148242e-05
3.068099236e-05
3.212763399e-05
3.307992927e-05
3.365858445e-05
3.396844309e-05
3.409304463e-05
3.409556689e-05
3.402281293e-05
3.391204963e-05
3.380685921e-05
3.022143118e-05
3.652056022e-05
4.076926607e-05
4.319699082e-05
4.426201791e-05
4.440826358e-05
4.398527731e-05
4.32412596e-05
4.234137781e-05
4.139031152e-05
4.045197133e-05
3.956657778e-05
3.877297348e-05
3.817078393e-05
4.510603226e-05
5.122574072e-05
5.371717447e-05
5.400426935e-05
5.308162879e-05
5.15642653e-05
4.98103015e-05
4.801953195e-05
4.629817466e-05
4.469852405e-05
4.324313097e-05
4.194209048e-05
4.081748246e-05
3.998262639e-05
3.022089251e-05
3.652004132e-05
4.076874332e-05
4.319645404e-05
4.426146786e-05
4.440771644e-05
4.398472657e-05
4.324071613e-05
4.234084784e-05
4.138978536e-05
4.04514654e-05
3.956608069e-05
3.877249297e-05
3.817030356e-05
1.865576815e-05
2.246873663e-05
2.587199673e-05
2.862095794e-05
3.068039883e-05
3.212698307e-05
3.307923071e-05
3.365785684e-05
3.396769316e-05
3.409227739e-05
3.409478987e-05
3.402203468e-05
3.391126953e-05
3.380607322e-05
1.337158323e-05
1.522042086e-05
1.720757959e-05
1.916495909e-05
2.098153216e-05
2.260014505e-05
2.400333437e-05
2.51983247e-05
2.620522101e-05
2.704901134e-05
2.775460493e-05
2.834309559e-05
2.882455521e-05
2.916875578e-05
1.154329118e-05
1.252330142e-05
1.372318246e-05
1.507232185e-05
1.649688382e-05
1.793236748e-05
1.932908276e-05
2.06527775e-05
2.18826712e-05
2.300840665e-05
2.402654112e-05
2.493544652e-05
2.572168873e-05
2.630604312e-05
1.141278053e-05
1.258429021e-05
1.408599521e-05
1.579216505e-05
1.757610345e-05
1.933510907e-05
2.099764224e-05
2.252086581e-05
2.388448311e-05
2.508413578e-05
2.61256631e-05
2.702043728e-05
2.778061761e-05
2.840911879e-05
2.886042154e-05
1.373487526e-05
1.655158868e-05
1.957513289e-05
2.241523586e-05
2.486684878e-05
2.686675331e-05
2.843467996e-05
2.962837761e-05
3.051630028e-05
3.116362086e-05
3.162640779e-05
3.195028814e-05
3.217108698e-05
3.231583285e-05
3.24001484e-05
2.239397915e-05
3.02211282e-05
3.65203382e-05
4.076908376e-05
4.319683059e-05
4.426187291e-05
4.44081394e-05
4.39851568e-05
4.324115083e-05
4.234127731e-05
4.139021628e-05
4.045188337e-05
3.956649602e-05
3.877290078e-05
3.81707189e-05
6.930898348e-05
7.685748034e-05
7.77616883e-05
7.516230586e-05
7.106563313e-05
6.657756807e-05
6.224295262e-05
5.82940909e-05
5.480226461e-05
5.176230476e-05
4.913803282e-05
4.688980496e-05
4.501017769e-05
4.364605223e-05
0.0001447246517
0.0001339700187
0.0001182471322
0.0001034184822
9.094271295e-05
8.083629214e-05
7.272663963e-05
6.6202939e-05
6.091571889e-05
5.659180966e-05
5.302557538e-05
5.007092135e-05
4.765937924e-05
4.593572603e-05
6.930720505e-05
7.685620079e-05
7.77605516e-05
7.516123516e-05
7.106461273e-05
6.657661686e-05
6.224206309e-05
5.829326469e-05
5.48014894e-05
5.176158112e-05
4.913735286e-05
4.688916031e-05
4.500956691e-05
4.364545333e-05
3.022093458e-05
3.651989539e-05
4.076841835e-05
4.31959864e-05
4.426090656e-05
4.440710033e-05
4.398408761e-05
4.324006455e-05
4.234020048e-05
4.138915388e-05
4.045084333e-05
3.956547615e-05
3.87719034e-05
3.816972525e-05
1.655161465e-05
1.957501832e-05
2.241495737e-05
2.486640417e-05
2.68661625e-05
2.84339586e-05
2.962754892e-05
3.051539199e-05
3.116264612e-05
3.162538471e-05
3.194923025e-05
3.217000033e-05
3.231472957e-05
3.239902049e-05
1.25843605e-05
1.408601558e-05
1.579210523e-05
1.757593123e-05
1.933481444e-05
2.09972196e-05
2.252031418e-05
2.388381142e-05
2.508334954e-05
2.612477918e-05
2.701946763e-05
2.777957488e-05
2.840800808e-05
2.885923824e-05
1.184230239e-05
1.331553451e-05
1.509828682e-05
1.702450497e-05
1.895781771e-05
2.080214071e-05
2.249822968e-05
2.401581383e-05
2.534533964e-05
2.649097867e-05
2.746515107e-05
2.828432609e-05
2.896503785e-05
2.951570385e-05
2.990416505e-05
1.565592714e-05
1.949933605e-05
2.309982007e-05
2.611380062e-05
2.847618269e-05
3.024739852e-05
3.152933884e-05
3.242636872e-05
3.303014534e-05
3.341556929e-05
3.364148309e-05
3.375312233e-05
3.378534001e-05
3.376700195e-05
3.372985424e-05
3.394963381e-05
4.51053776e-05
5.122511975e-05
5.371664423e-05
5.400382153e-05
5.308125871e-05
5.156395895e-05
4.981003196e-05
4.801930171e-05
4.629796851e-05
4.46983442e-05
4.3242967e-05
4.194194222e-05
4.081733567e-05
3.998249367e-05
0.0001321723743
0.0001447228256
0.0001339689202
0.0001182464356
0.0001034180113
9.09423842e-05
8.083604899e-05
7.272644253e-05
6.620278606e-05
6.091559175e-05
5.659170355e-05
5.302548158e-05
5.007082727e-05
4.765929364e-05
4.593564577e-05
0.0004653117253
0.0002993275568
0.0002082104996
0.000155224325
0.0001225600912
0.000101256742
8.662614415e-05
7.611322526e-05
6.826580662e-05
6.222314915e-05
5.745525934e-05
5.363186787e-05
5.058371895e-05
4.843709859e-05
0.0001447245267
0.0001339683204
0.0001182450913
0.0001034165188
9.094094173e-05
8.083472617e-05
7.272524565e-05
6.620169538e-05
6.091461348e-05
5.659079849e-05
5.302464658e-05
5.00700557e-05
4.765857241e-05
4.593495912e-05
4.510597604e-05
5.122494557e-05
5.371591658e-05
5.400275693e-05
5.308001117e-05
5.156263002e-05
4.980869598e-05
4.801797233e-05
4.629667171e-05
4.469708169e-05
4.324175524e-05
4.194077182e-05
4.081620631e-05
3.99813812e-05
1.94995522e-05
2.309979532e-05
2.611351289e-05
2.847565388e-05
3.024667658e-05
3.152846341e-05
3.242537273e-05
3.302906635e-05
3.341443293e-05
3.364029861e-05
3.375191193e-05
3.378411559e-05
3.37657651e-05
3.372858871e-05
1.33156526e-05
1.509833216e-05
1.702443306e-05
1.895759854e-05
2.080176482e-05
2.249769974e-05
2.401513485e-05
2.534452772e-05
2.649004774e-05
2.746411663e-05
2.828320406e-05
2.896384427e-05
2.95144392e-05
2.990282537e-05
1.141277017e-05
1.258425703e-05
1.408593451e-05
1.579207777e-05
1.757598044e-05
1.933495799e-05
2.099746364e-05
2.252065681e-05
2.388424693e-05
2.508387458e-05
2.612537968e-05
2.702013379e-05
2.778029949e-05
2.840878842e-05
2.886007379e-05
1.373476476e-05
1.655139979e-05
1.957487949e-05
2.241492996e-05
2.486650255e-05
2.686637666e-05
2.843427759e-05
2.962795477e-05
3.051586891e-05
3.116318035e-05
3.162596713e-05
3.194983974e-05
3.217063554e-05
3.231538333e-05
3.239969393e-05
2.239316935e-05
3.022033506e-05
3.651948504e-05
4.076821481e-05
4.319596898e-05
4.426103053e-05
4.440732159e-05
4.398437276e-05
4.324040271e-05
4.234056045e-05
4.138952729e-05
4.045122392e-05
3.956586055e-05
3.877228749e-05
3.817010759e-05
5.160818877e-05
6.930572276e-05
7.685500301e-05
7.775961015e-05
7.516048856e-05
7.106401275e-05
6.657612514e-05
6.224165523e-05
5.829292311e-05
5.480119798e-05
5.176132357e-05
4.913712841e-05
4.688895512e-05
4.500937947e-05
4.364528347e-05
0.0001321721445
0.0001447223289
0.00013396689
0.0001182440884
0.0001034157819
9.094038721e-05
8.083428178e-05
7.272489594e-05
6.620141127e-05
6.09143668e-05
5.659059245e-05
5.302447693e-05
5.006990816e-05
4.765844369e-05
4.593484054e-05
5.160878308e-05
6.930574261e-05
7.68544558e-05
7.775869826e-05
7.515939858e-05
7.106287288e-05
6.657500446e-05
6.22405879e-05
5.829192077e-05
5.480025606e-05
5.176044256e-05
4.913630376e-05
4.688818993e-05
4.500865555e-05
4.364457818e-05
3.022138645e-05
3.651972541e-05
4.076789217e-05
4.31952598e-05
4.426008037e-05
4.440622844e-05
4.398320773e-05
4.323920342e-05
4.233935627e-05
4.138834008e-05
4.045005765e-05
3.956471996e-05
3.877117538e-05
3.816901241e-05
1.655177317e-05
1.95750321e-05
2.24148289e-05
2.48661605e-05
2.686581985e-05
2.843354874e-05
2.962709101e-05
3.051489428e-05
3.116212547e-05
3.16248528e-05
3.194868579e-05
3.216944898e-05
3.231417555e-05
3.239845964e-05
1.258441081e-05
1.408603289e-05
1.579206898e-05
1.7575838e-05
1.933465864e-05
2.099700409e-05
2.252004476e-05
2.388349761e-05
2.508300207e-05
2.612439615e-05
2.701905619e-05
2.777913929e-05
2.840755823e-05
2.885876766e-05
1.083048525e-05
1.154321633e-05
1.252321731e-05
1.372310088e-05
1.507225779e-05
1.649684872e-05
1.793236867e-05
1.932912745e-05
2.065287203e-05
2.188280954e-05
2.300858937e-05
2.402676685e-05
2.493571278e-05
2.572199211e-05
2.630639227e-05
1.186052302e-05
1.337144458e-05
1.52202711e-05
1.720743745e-05
1.916484067e-05
2.098144537e-05
2.26000904e-05
2.400331196e-05
2.519833453e-05
2.620525928e-05
2.704907394e-05
2.775468935e-05
2.834320464e-05
2.882468467e-05
2.916889371e-05
1.49687639e-05
1.865545016e-05
2.246838481e-05
2.587162813e-05
2.862058728e-05
3.068004236e-05
3.212664246e-05
3.307890959e-05
3.365755256e-05
3.396740784e-05
3.4092013e-05
3.409454162e-05
3.402179227e-05
3.391104226e-05
3.380585335e-05
2.239316869e-05
3.022019385e-05
3.651916814e-05
4.076774973e-05
4.319538801e-05
4.42603788e-05
4.440663451e-05
4.398367841e-05
4.32397046e-05
4.233987511e-05
4.138886069e-05
4.045058265e-05
3.95652379e-05
3.877168295e-05
3.816951623e-05
3.394971693e-05
4.51049126e-05
5.122404975e-05
5.371516993e-05
5.400214571e-05
5.307949715e-05
5.156218491e-05
4.980830816e-05
4.801763714e-05
4.62963729e-05
4.46968216e-05
4.324152282e-05
4.19405582e-05
4.081601109e-05
3.998120575e-05
2.239318507e-05
3.022012226e-05
3.651894013e-05
4.076736393e-05
4.319488096e-05
4.425978858e-05
4.440599794e-05
4.39830153e-05
4.323903907e-05
4.233922078e-05
4.138821464e-05
4.044995017e-05
3.956462646e-05
3.877108341e-05
3.816892389e-05
1.496904719e-05
1.865568533e-05
2.246844197e-05
2.587147153e-05
2.862023072e-05
3.067951199e-05
3.212597649e-05
3.307815041e-05
3.365672346e-05
3.396652831e-05
3.409110596e-05
3.409361898e-05
3.402086725e-05
3.391011261e-05
3.380491072e-05
1.337170629e-05
1.522040808e-05
1.720743103e-05
1.916467604e-05
2.098112831e-05
2.259963034e-05
2.400272582e-05
2.519763988e-05
2.620447219e-05
2.704820958e-05
2.775376311e-05
2.834222282e-05
2.882366047e-05
2.916783387e-05
1.154334544e-05
1.252331332e-05
1.372312839e-05
1.50721918e-05
1.649666885e-05
1.793206352e-05
1.932869376e-05
2.065230846e-05
2.188213171e-05
2.300780341e-05
2.402587956e-05
2.493473656e-05
2.572093154e-05
2.630524658e-05
1.043714208e-05
1.082259521e-05
1.138705888e-05
1.213097479e-05
1.303424389e-05
1.406361256e-05
1.51803638e-05
1.634626331e-05
1.752730152e-05
1.869544436e-05
1.982886431e-05
2.091073022e-05
2.192487695e-05
2.283955924e-05
2.354005488e-05
1.083864206e-05
1.155411311e-05
1.252509046e-05
1.369698185e-05
1.499707684e-05
1.635461529e-05
1.771156817e-05
1.902592594e-05
2.027055037e-05
2.14302217e-05
2.249818923e-05
2.347274392e-05
2.43523189e-05
2.512200888e-05
2.569948786e-05
1.18605268e-05
1.337143596e-05
1.52202397e-05
1.720737102e-05
1.916473097e-05
2.09812954e-05
2.259989911e-05
2.400308508e-05
2.519807815e-05
2.620497765e-05
2.704877047e-05
2.775437105e-05
2.834287021e-05
2.882433135e-05
2.916853723e-05
1.37347667e-05
1.655133004e-05
1.957469465e-05
2.241461536e-05
2.486606085e-05
2.686582225e-05
2.843363241e-05
2.962723871e-05
3.051509353e-05
3.116236423e-05
3.162512062e-05
3.194897705e-05
3.216976315e-05
3.231449743e-05
3.239879719e-05
1.565592967e-05
1.949915412e-05
2.309938574e-05
2.611311952e-05
2.847528218e-05
3.024633097e-05
3.152814029e-05
3.242507803e-05
3.302879189e-05
3.341417732e-05
3.36400636e-05
3.375169369e-05
3.378390654e-05
3.376556582e-05
3.372840362e-05
1.373475538e-05
1.655129302e-05
1.957460671e-05
2.241446536e-05
2.486584975e-05
2.686555441e-05
2.84333152e-05
2.962688314e-05
3.051470591e-05
3.116195323e-05
3.162469386e-05
3.194854164e-05
3.216931391e-05
3.231404765e-05
3.239833566e-05
1.186055002e-05
1.337145141e-05
1.522020466e-05
1.72072589e-05
1.916452699e-05
2.098099668e-05
2.259951416e-05
2.400262063e-05
2.519754398e-05
2.620438579e-05
2.704813105e-05
2.775369181e-05
2.834215972e-05
2.882359737e-05
2.916777179e-05
1.083869829e-05
1.155417568e-05
1.25251251e-05
1.369696021e-05
1.499698001e-05
1.635443132e-05
1.771129203e-05
1.902555204e-05
2.027009019e-05
2.142967248e-05
2.249756124e-05
2.347204236e-05
2.435155582e-05
2.512118507e-05
2.56986094e-05
1.082267612e-05
1.13871202e-05
1.213100122e-05
1.303421501e-05
1.406351544e-05
1.518018242e-05
1.634598625e-05
1.752692438e-05
1.869496774e-05
1.98282867e-05
2.091005653e-05
2.192410819e-05
2.283870302e-05
2.35391113e-05
1.025946902e-05
1.049274351e-05
1.085127456e-05
1.135214925e-05
1.199894384e-05
1.278234278e-05
1.368303651e-05
1.467553948e-05
1.573183768e-05
1.682427961e-05
1.792738458e-05
1.901808704e-05
2.007214975e-05
2.104679673e-05
2.180613066e-05
1.043714446e-05
1.082259706e-05
1.138705747e-05
1.21309679e-05
1.303422591e-05
1.406358311e-05
1.51803163e-05
1.634619706e-05
1.752721625e-05
1.869533764e-05
1.982873816e-05
2.091058525e-05
2.192470921e-05
2.283937371e-05
2.353984268e-05
1.083048666e-05
1.154321016e-05
1.25231923e-05
1.372304416e-05
1.507216054e-05
1.649670253e-05
1.793217116e-05
1.932887318e-05
2.065256143e-05
2.188244854e-05
2.300818162e-05
2.402631657e-05
2.493522166e-05
2.572146802e-05
2.630582528e-05
1.141277056e-05
1.258422639e-05
1.408584526e-05
1.579190198e-05
1.757570774e-05
1.933457381e-05
2.099697132e-05
2.252006542e-05
2.388356256e-05
2.508310732e-05
2.612454221e-05
2.701923559e-05
2.777934598e-05
2.840778587e-05
2.885902256e-05
1.184230267e-05
1.331546956e-05
1.509811372e-05
1.70241887e-05
1.895734345e-05
2.080150387e-05
2.249744089e-05
2.401488072e-05
2.534427971e-05
2.648981282e-05
2.746389235e-05
2.828299241e-05
2.896363733e-05
2.951424318e-05
2.990263591e-05
1.141275865e-05
1.258420046e-05
1.408579554e-05
1.579182347e-05
1.757559055e-05
1.933441632e-05
2.099677354e-05
2.251982964e-05
2.388329351e-05
2.508280622e-05
2.61242124e-05
2.70188853e-05
2.77789829e-05
2.840740433e-05
2.885862057e-05
1.083048004e-05
1.154319396e-05
1.25231519e-05
1.372296339e-05
1.507202589e-05
1.64965084e-05
1.793191026e-05
1.932854849e-05
2.065217187e-05
2.188200124e-05
2.300767838e-05
2.40257628e-05
2.493462956e-05
2.572083154e-05
2.630515173e-05
1.043715165e-05
1.08226064e-05
1.138705439e-05
1.213093735e-05
1.303415284e-05
1.406345534e-05
1.518012037e-05
1.634592784e-05
1.75268676e-05
1.869491069e-05
1.982823466e-05
2.091000542e-05
2.192406203e-05
2.283866041e-05
2.353906967e-05
1.025948578e-05
1.049276699e-05
1.08512949e-05
1.135215304e-05
1.199891668e-05
1.278226752e-05
1.368289996e-05
1.46753286e-05
1.573154421e-05
1.682389552e-05
1.792690816e-05
1.901751373e-05
2.00714845e-05
2.10460388e-05
2.180528487e-05
)
;

boundaryField
{
    top
    {
        type            zeroGradient;
    }
    bottom
    {
        type            zeroGradient;
    }
    side-walls
    {
        type            zeroGradient;
    }
    inlet
    {
        type            zeroGradient;
    }
    outlet
    {
        type            zeroGradient;
    }
    procBoundary1to0
    {
        type            processor;
        value           nonuniform List<scalar> 
97
(
1.025948432e-05
1.025948432e-05
1.043714815e-05
1.083046304e-05
1.141269493e-05
1.184218536e-05
1.14126771e-05
1.08304301e-05
1.04371155e-05
1.025945436e-05
1.020635809e-05
1.083870287e-05
1.083870287e-05
1.083870287e-05
1.186052737e-05
1.373460821e-05
1.565551974e-05
1.373450742e-05
1.186039546e-05
1.083858736e-05
1.04371184e-05
1.038684269e-05
1.084472855e-05
1.496907007e-05
1.496907007e-05
1.496907007e-05
2.239282671e-05
3.394749974e-05
2.23921922e-05
1.496839576e-05
1.186039623e-05
1.083043532e-05
1.064758033e-05
1.164117937e-05
1.506441794e-05
5.160888231e-05
5.160888231e-05
5.160888231e-05
0.0001321579466
5.160471318e-05
2.239223743e-05
1.373449858e-05
1.141267805e-05
1.083075786e-05
1.237961614e-05
1.879276497e-05
4.373256524e-05
0.0007852668543
0.0007852668543
0.0007852668543
0.000132158436
0.000132158436
3.39475497e-05
1.565550097e-05
1.184218662e-05
1.064758651e-05
1.164118354e-05
1.506451985e-05
2.485195423e-05
4.373328733e-05
2.485156909e-05
2.239363833e-05
2.239363833e-05
2.239363833e-05
1.37347162e-05
1.141272545e-05
1.038684825e-05
1.084474269e-05
1.216815028e-05
1.506452868e-05
1.879290765e-05
1.506446605e-05
1.21681228e-05
1.18606444e-05
1.18606444e-05
1.18606444e-05
1.08304925e-05
1.020636055e-05
1.038957714e-05
1.084474561e-05
1.164118713e-05
1.237963199e-05
1.164117181e-05
1.084473372e-05
1.038957322e-05
1.043717594e-05
1.043717594e-05
1.043717594e-05
1.012374694e-05
1.020636247e-05
1.038684906e-05
1.064758709e-05
1.083076023e-05
1.064757895e-05
1.038684155e-05
1.020636021e-05
1.012374629e-05
)
;
    }
}


// ************************************************************************* //
