/*--------------------------------*- C++ -*----------------------------------*\
| =========                 |                                                 |
| \\      /  F ield         | OpenFOAM: The Open Source CFD Toolbox           |
|  \\    /   O peration     | Version:  4.x                                   |
|   \\  /    A nd           | Web:      www.OpenFOAM.org                      |
|    \\/     M anipulation  |                                                 |
\*---------------------------------------------------------------------------*/
FoamFile
{
    version     2.0;
    format      ascii;
    class       volScalarField;
    location    "11000";
    object      molarConc;
}
// * * * * * * * * * * * * * * * * * * * * * * * * * * * * * * * * * * * * * //

dimensions      [0 -3 0 0 1 0 0];

internalField   nonuniform List<scalar> 
1174
(
9.96327164
9.963270293
9.963268433
9.963267689
9.963264798
9.963261981
9.96325845
9.963253759
9.963249994
9.963247032
9.963241939
9.96323743
9.963233614
9.963230972
9.96325168
9.963249279
9.963245128
9.963241976
9.963238281
9.963233707
9.963229341
9.963225808
9.963222231
9.963218405
9.963213953
9.963211475
9.963208751
9.963205282
9.963307718
9.963305011
9.963300092
9.963295047
9.963288434
9.963284088
9.963279572
9.963273528
9.963269548
9.963264042
9.963260759
9.963256463
9.963252632
9.963250385
9.963298758
9.963293168
9.963287416
9.963281734
9.963276539
9.963269401
9.963265023
9.963260216
9.963256446
9.963252674
9.963249406
9.963246568
9.963244914
9.963244386
9.963268866
9.963263107
9.963254794
9.963246954
9.963239816
9.963233235
9.963228181
9.963222845
9.963217953
9.963213045
9.963209512
9.963206741
9.963204844
9.963203242
9.963288078
9.963282102
9.963276609
9.963270727
9.963264539
9.963257644
9.963252027
9.963246798
9.96324216
9.963237735
9.963234166
9.963230766
9.963228787
9.963227309
9.96326326
9.96325902
9.963255438
9.96324998
9.963245935
9.9632402
9.963234462
9.963229817
9.963225642
9.963221021
9.963216695
9.963213733
9.963210208
9.963208477
9.963280418
9.963278802
9.963276305
9.963272846
9.963268902
9.963265547
9.963260868
9.963256103
9.963253205
9.963248607
9.963245035
9.96324189
9.963238205
9.963236619
9.963282123
9.963280068
9.963278112
9.963275919
9.963272923
9.96326951
9.96326616
9.963263233
9.963260389
9.963254873
9.96325089
9.963246868
9.963243918
9.963240222
9.963260059
9.963259189
9.963257941
9.96325488
9.963251649
9.963247558
9.963243285
9.963239555
9.963235107
9.963230096
9.963226298
9.963222712
9.963219698
9.963216373
9.963215173
9.963270116
9.963265745
9.963261033
9.963255971
9.963251282
9.963246287
9.963241227
9.963236777
9.963233559
9.963231571
9.963228455
9.96322545
9.963224076
9.963221394
9.963283385
9.963276579
9.963269256
9.963263249
9.96325615
9.963251935
9.963245701
9.963241546
9.963238484
9.963233312
9.963231441
9.963228344
9.963225611
9.963224565
9.963263235
9.963251837
9.963241975
9.963234973
9.963227159
9.963221879
9.963217445
9.963212982
9.963210433
9.963207839
9.9632076
9.963206381
9.963206396
9.963206107
9.963167715
9.963154693
9.963143229
9.963132396
9.963125873
9.96312104
9.963117457
9.963115331
9.963114118
9.963112317
9.963112627
9.963112001
9.963112271
9.963114508
9.963193109
9.963183017
9.963172559
9.963164176
9.96315526
9.963148784
9.963143491
9.963141168
9.963140021
9.9631376
9.963138718
9.96313736
9.963137043
9.963136923
9.963253276
9.963246981
9.963239292
9.963232308
9.963225084
9.963220535
9.963214957
9.963211938
9.963208676
9.963205541
9.96320181
9.963200134
9.963198887
9.963197958
9.96328161
9.963276354
9.963273726
9.963268284
9.963264089
9.963259541
9.963255037
9.963250563
9.963244252
9.96324085
9.963235954
9.963232946
9.963228684
9.963227977
9.963238738
9.963237574
9.963235777
9.96323217
9.96322906
9.963224805
9.963220796
9.963216748
9.963211424
9.963206913
9.963202998
9.963198957
9.963195606
9.963193316
9.963307701
9.963304612
9.963299889
9.963295463
9.963289938
9.963283732
9.963277675
9.963273278
9.963269002
9.963265648
9.96325966
9.963257404
9.963255436
9.963252811
9.963250836
9.963305629
9.963300022
9.963293065
9.963287236
9.963279889
9.963272138
9.96326573
9.963260833
9.963257793
9.963255065
9.96325097
9.963248375
9.963244906
9.963242829
9.963241451
9.963205568
9.963192052
9.963179395
9.963169191
9.963162288
9.963157558
9.963153731
9.963152774
9.963151803
9.963153686
9.963154694
9.963154333
9.96315468
9.963155212
9.963230056
9.963207251
9.963190012
9.963182123
9.963178637
9.963177566
9.963178962
9.963179955
9.963183539
9.963187412
9.963191816
9.963195047
9.963197507
9.96319965
9.963118175
9.963096587
9.963085943
9.96308392
9.963086821
9.963093561
9.963100053
9.963106765
9.963112864
9.963119223
9.963123487
9.96312875
9.963133617
9.963135971
9.963261862
9.963239755
9.963224617
9.963215272
9.963211224
9.963210334
9.963210875
9.963212395
9.963215641
9.963217625
9.963221314
9.963224631
9.96322743
9.963229363
9.963327535
9.963313303
9.963300496
9.963289078
9.963281369
9.963275888
9.963272076
9.963269895
9.963270325
9.963268669
9.963269109
9.963269776
9.963268923
9.963268874
9.963224983
9.963217345
9.9632097
9.963203444
9.963197112
9.963192222
9.963188184
9.963184445
9.963179743
9.963177992
9.963175496
9.963172202
9.9631699
9.963168367
9.963249213
9.963245661
9.963242648
9.963237663
9.963232447
9.963227291
9.963222282
9.963217669
9.963213746
9.963209986
9.963206494
9.963202368
9.963200617
9.963200543
9.963322147
9.963317599
9.963312193
9.963304376
9.963299023
9.963293477
9.963288358
9.963283359
9.963277628
9.963274289
9.963269761
9.963265837
9.963261788
9.963259609
9.963257734
9.963201094
9.963189345
9.963178161
9.963167987
9.963158089
9.963150816
9.963143122
9.96313976
9.963136342
9.963133149
9.963132588
9.96313154
9.963131003
9.963131061
9.963129258
9.963169284
9.963141274
9.963118351
9.963101604
9.96309293
9.963090114
9.963089847
9.963091382
9.963093896
9.963097165
9.9631011
9.963104514
9.963106795
9.963108684
9.963111678
9.962993536
9.96296691
9.962961962
9.962971196
9.962986535
9.963004222
9.963019181
9.963033915
9.963046869
9.96305664
9.963066067
9.963073867
9.963080484
9.963085395
9.96275153
9.96279048
9.962847337
9.962903075
9.962948184
9.962986412
9.963018139
9.963042476
9.963062311
9.963078345
9.963093132
9.963105196
9.963114691
9.963120474
9.963081262
9.96305479
9.963051054
9.963060138
9.963077085
9.963093245
9.963107602
9.963120635
9.963132807
9.963145688
9.963154367
9.963162621
9.963168809
9.963174187
9.963188391
9.963166335
9.963150911
9.963141118
9.963136258
9.963135753
9.963138249
9.963141394
9.963143439
9.963146434
9.963150376
9.963152942
9.963156992
9.963159575
9.963281079
9.963269101
9.963259378
9.96325113
9.963244666
9.963239705
9.963234912
9.963230715
9.963229786
9.963227036
9.96322632
9.963225402
9.963225852
9.963225232
9.963250865
9.963246675
9.963240669
9.963233449
9.963228057
9.963220775
9.963214276
9.963208615
9.96320273
9.963199106
9.963196714
9.963193678
9.963190964
9.963189268
9.963272277
9.963265407
9.963259565
9.963253125
9.963246705
9.963241017
9.96323515
9.963229705
9.963223903
9.963219463
9.963215105
9.963211768
9.963210401
9.963209529
9.963208496
9.963197021
9.963183575
9.963170552
9.963160925
9.963151992
9.963145152
9.963140707
9.96313928
9.963137712
9.96313543
9.963134486
9.963133537
9.963133715
9.963135067
9.963134974
9.963191394
9.963151143
9.963129699
9.963120341
9.963118934
9.963122282
9.963128116
9.963134753
9.963139296
9.963145348
9.963151672
9.96315683
9.963161328
9.963164665
9.96316659
9.962828042
9.962783155
9.962822053
9.962878411
9.962933166
9.96297877
9.963015101
9.963044408
9.963069142
9.963088712
9.963104173
9.963116692
9.96312635
9.963135466
9.963141862
9.982388201
9.98300749
9.983354651
9.98356154
9.98369694
9.98378941
9.983858467
9.983912767
9.983957585
9.983994192
9.984025254
9.984053562
9.984081243
9.984104121
9.96280419
9.962844044
9.962901641
9.962956147
9.963002142
9.963039653
9.96307052
9.963094248
9.963115491
9.963130297
9.963143459
9.96315356
9.963161606
9.963168779
9.963178535
9.963157486
9.963148305
9.963146643
9.963149097
9.963154286
9.963161373
9.963166305
9.963171592
9.963179136
9.963184646
9.963190207
9.963194141
9.963196074
9.96328805
9.963274575
9.963263148
9.963254983
9.963247822
9.96324309
9.963239202
9.963237142
9.963237382
9.963236895
9.963236607
9.963237372
9.963236949
9.963238642
9.963266154
9.963259775
9.963251796
9.963244708
9.963239836
9.963234039
9.963228116
9.963224092
9.963219633
9.963216075
9.963212104
9.963210143
9.963208366
9.96320613
9.963238517
9.963233994
9.963228297
9.963222399
9.963213742
9.963208009
9.963201398
9.963194389
9.963191282
9.963186028
9.963181485
9.963178201
9.963175885
9.96317347
9.963171993
9.963258337
9.963247292
9.96323556
9.963222998
9.963214096
9.963206949
9.963201197
9.963197362
9.96319448
9.963191819
9.963191016
9.963188606
9.963187255
9.96318635
9.963185977
9.963221323
9.963193741
9.963170876
9.96315485
9.963147205
9.96314484
9.963145261
9.963146678
9.963150303
9.963155073
9.963157214
9.963159722
9.963163749
9.963166496
9.963168517
9.96313437
9.963070084
9.963043677
9.963042022
9.96305251
9.963066875
9.963081368
9.963096387
9.963109838
9.963122163
9.963131891
9.963142336
9.963150623
9.9631573
9.963163709
9.962791151
9.962745186
9.962784925
9.962842264
9.962895917
9.962941774
9.962978828
9.963007636
9.963031773
9.963050405
9.963067737
9.963082424
9.963092951
9.963101764
9.9631076
9.963073489
9.963007734
9.962980737
9.962978026
9.962988589
9.963003134
9.96301975
9.963036489
9.963051806
9.963063108
9.96307484
9.963084088
9.963092115
9.963098344
9.963103452
9.963216381
9.963191506
9.963175112
9.963165437
9.963162064
9.963161914
9.963161569
9.963163588
9.963167164
9.963169835
9.963173305
9.963176071
9.963178785
9.963182871
9.963289843
9.963279613
9.963268822
9.963260861
9.963252153
9.963245981
9.963240948
9.963236942
9.963235368
9.963232765
9.963232702
9.963230849
9.963230565
9.96323051
9.96324705
9.963242496
9.963236811
9.963231323
9.963224505
9.963218069
9.963213146
9.963206979
9.963203552
9.963197846
9.96319454
9.96319242
9.963189205
9.963188055
9.963299232
9.963295335
9.963290267
9.963285653
9.963279471
9.963273959
9.963268301
9.963263223
9.963260271
9.963253921
9.963250581
9.96324637
9.963242683
9.963239938
9.963236744
9.963263282
9.963257412
9.963251325
9.963242578
9.963235788
9.963229757
9.963224408
9.963218554
9.963215017
9.96321211
9.963207578
9.963205722
9.963204244
9.963200795
9.963199287
9.963303027
9.963288027
9.963275863
9.963261898
9.963251309
9.963242577
9.963237236
9.963234854
9.963231294
9.963229903
9.963230204
9.963229874
9.96322975
9.963229915
9.963230859
9.96327456
9.963246089
9.963223464
9.963209032
9.963198125
9.963193879
9.963193913
9.963195131
9.963198047
9.963200307
9.96320432
9.963208803
9.963212852
9.963217275
9.963218813
9.963126337
9.963084376
9.963063125
9.963052601
9.96305183
9.963056329
9.963060777
9.963066152
9.963071047
9.963076254
9.963082996
9.963087869
9.963091534
9.963094257
9.963097123
9.963226959
9.963200444
9.963177337
9.963160302
9.963151389
9.963147264
9.963147529
9.963150905
9.963152527
9.963155449
9.96315899
9.963161894
9.963164664
9.963166239
9.96316811
9.963231026
9.963217756
9.96320461
9.963193442
9.963183691
9.963174342
9.963169606
9.963166131
9.963164267
9.963162771
9.96316272
9.963162748
9.963163366
9.963165053
9.963165732
9.963248801
9.96324225
9.963235222
9.96322805
9.963221776
9.963216239
9.96321147
9.963207233
9.963203912
9.963200538
9.963198362
9.963195407
9.963193898
9.963192838
9.963299456
9.96329534
9.963290112
9.963285705
9.963279562
9.963273807
9.963267696
9.963263679
9.963260185
9.963256114
9.963251168
9.963247713
9.963244295
9.963241877
9.963305069
9.963303779
9.963302912
9.963300706
9.963297428
9.963293485
9.963290529
9.96328612
9.963281193
9.963278607
9.963274355
9.963270388
9.963266489
9.963263236
9.963260547
9.96329794
9.963295179
9.963291526
9.963288232
9.963282436
9.963276743
9.963271289
9.963266392
9.963262716
9.963257621
9.963252938
9.963249435
9.963245624
9.963242292
9.963240637
9.963218903
9.963214429
9.963208684
9.963200666
9.963192806
9.963186376
9.963181761
9.963176258
9.963173355
9.963169468
9.963166144
9.963164304
9.963161444
9.963160494
9.963160142
9.96325077
9.963238027
9.963226757
9.963214859
9.963206433
9.963198416
9.963192986
9.963187393
9.963185421
9.963183359
9.963181231
9.963179058
9.963179392
9.963178885
9.963177657
9.963244912
9.963230984
9.963217439
9.963208189
9.963199375
9.963192394
9.963188106
9.963184715
9.963182518
9.963181406
9.963180533
9.963181156
9.963180314
9.963180795
9.963180144
9.963228474
9.963217521
9.963206919
9.963195534
9.963187607
9.963180637
9.963174264
9.963169698
9.963166001
9.963163169
9.963162457
9.963160486
9.963157925
9.963156348
9.963156083
9.963312056
9.963305703
9.963298346
9.963290523
9.963282188
9.963275335
9.963269034
9.963265687
9.963261336
9.963257667
9.963255789
9.963253217
9.963250998
9.963249956
9.963246915
9.963280663
9.963278816
9.963275439
9.963272431
9.963268386
9.963264097
9.963258808
9.963253547
9.963250607
9.963246675
9.963241986
9.96323726
9.963233668
9.963229802
9.963228081
9.963243381
9.963241591
9.963237809
9.963234391
9.963231329
9.96322738
9.963220713
9.963217816
9.96321482
9.963211291
9.963207332
9.963203719
9.963201046
9.963198571
9.963290397
9.963289426
9.963287665
9.963286128
9.963283119
9.963280432
9.963277747
9.963273408
9.963270124
9.963266447
9.963262177
9.9632583
9.96325425
9.96325035
9.963248435
9.963263116
9.963261169
9.963259185
9.963256558
9.963254262
9.963250309
9.963246233
9.963242196
9.963237465
9.963232708
9.963227567
9.96322365
9.963220073
9.963217625
9.963215308
9.963279269
9.963276924
9.963273501
9.963269741
9.963264913
9.963258917
9.963254628
9.963249716
9.963245548
9.963241485
9.963236848
9.963233479
9.963229418
9.963227436
9.963226849
9.963259668
9.963255148
9.963249771
9.963243509
9.963238568
9.963232951
9.963228596
9.963223754
9.963218547
9.963215399
9.963211566
9.963206799
9.9632037
9.96320121
9.963200099
9.963267895
9.963262086
9.963255963
9.963248135
9.963242414
9.963235811
9.963227889
9.963223211
9.963217974
9.963213334
9.963209627
9.963206765
9.963205281
9.96320211
9.963200179
9.963292904
9.96328847
9.96328259
9.963276623
9.963269132
9.963261946
9.963257067
9.963252529
9.963247153
9.963243284
9.963239907
9.96323607
9.963235058
9.963232577
9.963230546
9.96334591
9.963343158
9.963340838
9.963336276
9.963331126
9.963326707
9.963322629
9.963318002
9.963314152
9.963308775
9.963304157
9.963300452
9.963299112
9.963296058
9.963293986
9.963279651
9.963278033
9.963275915
9.963273431
9.963269485
9.96326654
9.963262265
9.963257482
9.963252632
9.96324943
9.963245882
9.963241725
9.963237553
9.963234823
9.963231431
9.9632721
9.963271002
9.963270878
9.9632696
9.963267192
9.963264608
9.963261383
9.963257203
9.963253374
9.963249415
9.963245612
9.963241409
9.96323835
9.963234703
9.963232919
)
;

boundaryField
{
    top
    {
        type            calculated;
        value           nonuniform List<scalar> 
127
(
9.9632721
9.963282123
9.963238738
9.963249213
9.963250865
9.963266154
9.96324705
9.963299456
9.963243381
9.963271002
9.963280068
9.963237574
9.963245661
9.963246675
9.963259775
9.963242496
9.96329534
9.963241591
9.963270878
9.963278112
9.963235777
9.963242648
9.963240669
9.963251796
9.963236811
9.963290112
9.963237809
9.9632696
9.963275919
9.96323217
9.963237663
9.963233449
9.963244708
9.963231323
9.963285705
9.963234391
9.963267192
9.963272923
9.96322906
9.963232447
9.963228057
9.963239836
9.963224505
9.963279562
9.963231329
9.963264608
9.96326951
9.963224805
9.963227291
9.963220775
9.963234039
9.963218069
9.963273807
9.96322738
9.963261383
9.96326616
9.963220796
9.963222282
9.963214276
9.963228116
9.963213146
9.963267696
9.963220713
9.963257203
9.963263233
9.963216748
9.963217669
9.963208615
9.963224092
9.963206979
9.963263679
9.963217816
9.963253374
9.963260389
9.963211424
9.963213746
9.96320273
9.963219633
9.963203552
9.963260185
9.96321482
9.963249415
9.963254873
9.963206913
9.963209986
9.963199106
9.963216075
9.963197846
9.963256114
9.963211291
9.963245612
9.96325089
9.963202998
9.963206494
9.963196714
9.963212104
9.96319454
9.963251168
9.963207332
9.963241409
9.963246868
9.963198957
9.963202368
9.963193678
9.963210143
9.96319242
9.963247713
9.963203719
9.96323835
9.963243918
9.963195606
9.963200617
9.963190964
9.963208366
9.963189205
9.963244295
9.963201046
9.963234703
9.963240222
9.963193316
9.963200543
9.963189268
9.96320613
9.963188055
9.963241877
9.963198571
9.963232919
)
;
    }
    bottom
    {
        type            calculated;
        value           nonuniform List<scalar> 
134
(
9.963260059
9.963307701
9.963322147
9.963272277
9.963238517
9.963299232
9.963305069
9.963290397
9.96327164
9.963259189
9.963304612
9.963317599
9.963265407
9.963233994
9.963295335
9.963303779
9.963289426
9.963270293
9.963257941
9.963299889
9.963312193
9.963259565
9.963228297
9.963290267
9.963302912
9.963287665
9.963268433
9.96325488
9.963295463
9.963304376
9.963253125
9.963222399
9.963285653
9.963300706
9.963286128
9.963267689
9.963251649
9.963289938
9.963299023
9.963246705
9.963213742
9.963279471
9.963297428
9.963283119
9.963264798
9.963247558
9.963283732
9.963293477
9.963241017
9.963208009
9.963273959
9.963293485
9.963280432
9.963261981
9.963243285
9.963277675
9.963288358
9.96323515
9.963201398
9.963268301
9.963290529
9.963277747
9.96325845
9.963239555
9.963273278
9.963283359
9.963229705
9.963194389
9.963263223
9.96328612
9.963273408
9.963253759
9.963235107
9.963269002
9.963277628
9.963223903
9.963191282
9.963260271
9.963281193
9.963270124
9.963249994
9.963230096
9.963265648
9.963274289
9.963219463
9.963186028
9.963253921
9.963278607
9.963266447
9.963247032
9.963226298
9.96325966
9.963269761
9.963215105
9.963181485
9.963250581
9.963274355
9.963262177
9.963241939
9.963222712
9.963257404
9.963265837
9.963211768
9.963178201
9.96324637
9.963270388
9.9632583
9.96323743
9.963219698
9.963255436
9.963261788
9.963210401
9.963175885
9.963242683
9.963266489
9.96325425
9.963233614
9.963216373
9.963252811
9.963259609
9.963209529
9.96317347
9.963239938
9.963263236
9.96325035
9.963230972
9.963215173
9.963250836
9.963257734
9.963208496
9.963171993
9.963236744
9.963260547
9.963248435
)
;
    }
    side-walls
    {
        type            calculated;
        value           nonuniform List<scalar> 
261
(
9.96327164
9.96325168
9.963307718
9.963298758
9.963268866
9.963288078
9.96326326
9.963280418
9.963282123
9.963270293
9.963249279
9.963305011
9.963293168
9.963263107
9.963282102
9.96325902
9.963278802
9.963280068
9.963268433
9.963245128
9.963300092
9.963287416
9.963254794
9.963276609
9.963255438
9.963276305
9.963278112
9.963267689
9.963241976
9.963295047
9.963281734
9.963246954
9.963270727
9.96324998
9.963272846
9.963275919
9.963264798
9.963238281
9.963288434
9.963276539
9.963239816
9.963264539
9.963245935
9.963268902
9.963272923
9.963261981
9.963233707
9.963284088
9.963269401
9.963233235
9.963257644
9.9632402
9.963265547
9.96326951
9.96325845
9.963229341
9.963279572
9.963265023
9.963228181
9.963252027
9.963234462
9.963260868
9.96326616
9.963253759
9.963225808
9.963273528
9.963260216
9.963222845
9.963246798
9.963229817
9.963256103
9.963263233
9.963249994
9.963222231
9.963269548
9.963256446
9.963217953
9.96324216
9.963225642
9.963253205
9.963260389
9.963247032
9.963218405
9.963264042
9.963252674
9.963213045
9.963237735
9.963221021
9.963248607
9.963254873
9.963241939
9.963213953
9.963260759
9.963249406
9.963209512
9.963234166
9.963216695
9.963245035
9.96325089
9.96323743
9.963211475
9.963256463
9.963246568
9.963206741
9.963230766
9.963213733
9.96324189
9.963246868
9.963233614
9.963208751
9.963252632
9.963244914
9.963204844
9.963228787
9.963210208
9.963238205
9.963243918
9.963230972
9.963205282
9.963250385
9.963244386
9.963203242
9.963227309
9.963208477
9.963236619
9.963240222
9.963290397
9.963263116
9.963279269
9.963259668
9.963267895
9.963292904
9.96334591
9.963279651
9.9632721
9.963289426
9.963261169
9.963276924
9.963255148
9.963262086
9.96328847
9.963343158
9.963278033
9.963271002
9.963287665
9.963259185
9.963273501
9.963249771
9.963255963
9.96328259
9.963340838
9.963275915
9.963270878
9.963286128
9.963256558
9.963269741
9.963243509
9.963248135
9.963276623
9.963336276
9.963273431
9.9632696
9.963283119
9.963254262
9.963264913
9.963238568
9.963242414
9.963269132
9.963331126
9.963269485
9.963267192
9.963280432
9.963250309
9.963258917
9.963232951
9.963235811
9.963261946
9.963326707
9.96326654
9.963264608
9.963277747
9.963246233
9.963254628
9.963228596
9.963227889
9.963257067
9.963322629
9.963262265
9.963261383
9.963273408
9.963242196
9.963249716
9.963223754
9.963223211
9.963252529
9.963318002
9.963257482
9.963257203
9.963270124
9.963237465
9.963245548
9.963218547
9.963217974
9.963247153
9.963314152
9.963252632
9.963253374
9.963266447
9.963232708
9.963241485
9.963215399
9.963213334
9.963243284
9.963308775
9.96324943
9.963249415
9.963262177
9.963227567
9.963236848
9.963211566
9.963209627
9.963239907
9.963304157
9.963245882
9.963245612
9.9632583
9.96322365
9.963233479
9.963206799
9.963206765
9.96323607
9.963300452
9.963241725
9.963241409
9.96325425
9.963220073
9.963229418
9.9632037
9.963205281
9.963235058
9.963299112
9.963237553
9.96323835
9.96325035
9.963217625
9.963227436
9.96320121
9.96320211
9.963232577
9.963296058
9.963234823
9.963234703
9.963248435
9.963215308
9.963226849
9.963200099
9.963200179
9.963230546
9.963293986
9.963231431
9.963232919
)
;
    }
    inlet
    {
        type            calculated;
        value           nonuniform 0();
    }
    outlet
    {
        type            calculated;
        value           nonuniform List<scalar> 
81
(
9.963230972
9.963205282
9.963250385
9.963244386
9.963203242
9.963227309
9.963208477
9.963236619
9.963240222
9.963215173
9.963221394
9.963224565
9.963206107
9.963114508
9.963136923
9.963197958
9.963227977
9.963193316
9.963250836
9.963241451
9.963155212
9.96319965
9.963135971
9.963229363
9.963268874
9.963168367
9.963200543
9.963257734
9.963129258
9.963111678
9.963085395
9.963120474
9.963174187
9.963159575
9.963225232
9.963189268
9.963208496
9.963134974
9.96316659
9.963141862
9.984104121
9.963168779
9.963196074
9.963238642
9.96320613
9.963171993
9.963185977
9.963168517
9.963163709
9.9631076
9.963103452
9.963182871
9.96323051
9.963188055
9.963236744
9.963199287
9.963230859
9.963218813
9.963097123
9.96316811
9.963165732
9.963192838
9.963241877
9.963260547
9.963240637
9.963160142
9.963177657
9.963180144
9.963156083
9.963246915
9.963228081
9.963198571
9.963248435
9.963215308
9.963226849
9.963200099
9.963200179
9.963230546
9.963293986
9.963231431
9.963232919
)
;
    }
    procBoundary1to0
    {
        type            processor;
        value           nonuniform List<scalar> 
97
(
9.963271217
9.963271217
9.963254275
9.963309993
9.963304757
9.96327383
9.963292539
9.963264693
9.963281133
9.963283104
9.963260061
9.963272199
9.963272199
9.963272199
9.963289338
9.963273526
9.963180497
9.963204159
9.963257777
9.963284406
9.963240607
9.963310045
9.963308157
9.963218618
9.963218618
9.963218618
9.963258173
9.963158669
9.963288634
9.963340956
9.963231319
9.963253236
9.963324919
9.963208802
9.963196811
9.963056929
9.963056929
9.963056929
9.962794682
9.963145901
9.96321732
9.963289574
9.963255787
9.963276065
9.963209306
9.963247053
9.963145081
9.981229984
9.981229984
9.981229984
9.962848726
9.962848726
9.963220298
9.963302037
9.963272395
9.963240011
9.96326561
9.963248143
9.963232366
9.963107292
9.963171414
9.963246185
9.963246185
9.963246185
9.963301187
9.963250298
9.963300832
9.963265874
9.963312824
9.963302136
9.963181343
9.963254692
9.963241059
9.963252918
9.963252918
9.963252918
9.963302951
9.96330598
9.963299952
9.963223959
9.963257386
9.963256223
9.963236421
9.963317074
9.963284065
9.963245016
9.963245016
9.963245016
9.963290683
9.96326355
9.963282268
9.963261923
9.963270172
9.963295868
9.963348344
9.963280255
9.963273363
)
;
    }
}


// ************************************************************************* //
