/*--------------------------------*- C++ -*----------------------------------*\
| =========                 |                                                 |
| \\      /  F ield         | OpenFOAM: The Open Source CFD Toolbox           |
|  \\    /   O peration     | Version:  4.x                                   |
|   \\  /    A nd           | Web:      www.OpenFOAM.org                      |
|    \\/     M anipulation  |                                                 |
\*---------------------------------------------------------------------------*/
FoamFile
{
    version     2.0;
    format      ascii;
    class       volScalarField;
    location    "11000";
    object      N2;
}
// * * * * * * * * * * * * * * * * * * * * * * * * * * * * * * * * * * * * * //

dimensions      [0 0 0 0 0 0 0];

internalField   nonuniform List<scalar> 
1174
(
0.6203627025
0.6203623219
0.6203617903
0.6203611037
0.6203602722
0.6203593161
0.6203582626
0.6203571413
0.6203559817
0.6203548107
0.6203536529
0.620352534
0.6203514993
0.6203506932
0.6203623524
0.6203617532
0.6203609636
0.6203600048
0.6203589122
0.6203577268
0.6203564892
0.6203552355
0.6203539955
0.6203527924
0.620351644
0.6203505674
0.6203495965
0.6203488529
0.6203615875
0.6203605473
0.6203592737
0.6203578416
0.6203563294
0.6203548057
0.6203533231
0.6203519179
0.6203506124
0.6203494174
0.6203483365
0.6203473717
0.620346537
0.6203459167
0.6203604825
0.6203588886
0.6203570776
0.6203551841
0.620353317
0.6203515523
0.6203499355
0.6203484881
0.6203472147
0.6203461092
0.6203451594
0.6203443525
0.6203436853
0.6203432063
0.6203597063
0.6203578141
0.6203557695
0.6203537174
0.6203517598
0.6203499595
0.6203483486
0.6203469374
0.6203457214
0.6203446873
0.6203438178
0.6203430952
0.6203425107
0.6203420983
0.6203604825
0.6203588886
0.6203570776
0.6203551841
0.6203533171
0.6203515524
0.6203499356
0.6203484882
0.6203472149
0.6203461093
0.6203451596
0.6203443526
0.6203436855
0.6203432064
0.6203615875
0.6203605473
0.6203592737
0.6203578416
0.6203563295
0.6203548058
0.6203533232
0.6203519181
0.6203506125
0.6203494176
0.6203483368
0.620347372
0.6203465373
0.620345917
0.6203623524
0.6203617533
0.6203609636
0.6203600049
0.6203589122
0.6203577269
0.6203564893
0.6203552357
0.6203539957
0.6203527926
0.6203516443
0.6203505677
0.6203495968
0.6203488532
0.6203627025
0.620362322
0.6203617903
0.6203611038
0.6203602722
0.6203593162
0.6203582627
0.6203571414
0.6203559818
0.6203548109
0.6203536531
0.6203525343
0.6203514997
0.6203506936
0.6203627615
0.6203623524
0.6203617532
0.6203609636
0.6203600048
0.6203589122
0.6203577268
0.6203564892
0.6203552355
0.6203539955
0.6203527924
0.620351644
0.6203505675
0.6203495965
0.6203488529
0.6203615759
0.6203605453
0.6203593013
0.6203579213
0.6203564803
0.62035504
0.6203536448
0.6203523236
0.6203510926
0.620349959
0.6203489244
0.6203479907
0.6203471737
0.6203465606
0.6203596469
0.6203576844
0.6203555752
0.6203534974
0.6203515692
0.620349851
0.6203483615
0.620347093
0.6203460242
0.6203451285
0.6203443794
0.6203437547
0.6203432436
0.6203428782
0.6203562716
0.6203530623
0.6203500477
0.6203474455
0.6203453228
0.6203436585
0.6203423914
0.6203414489
0.6203407618
0.6203402705
0.6203399267
0.6203396923
0.6203395386
0.6203394491
0.6203531426
0.6203493209
0.6203461218
0.6203436143
0.6203417342
0.6203403735
0.6203394214
0.6203387805
0.6203383713
0.6203381315
0.620338013
0.6203379787
0.6203379982
0.6203380375
0.6203562717
0.6203530624
0.6203500479
0.6203474457
0.6203453229
0.6203436587
0.6203423916
0.6203414491
0.620340762
0.6203402708
0.620339927
0.6203396926
0.6203395389
0.6203394493
0.620359647
0.6203576846
0.6203555753
0.6203534976
0.6203515694
0.6203498513
0.6203483618
0.6203470933
0.6203460245
0.6203451288
0.6203443798
0.6203437551
0.620343244
0.6203428786
0.620361576
0.6203605453
0.6203593014
0.6203579214
0.6203564805
0.6203550401
0.620353645
0.6203523239
0.6203510929
0.6203499593
0.6203489248
0.6203479911
0.6203471741
0.6203465611
0.6203623524
0.6203617533
0.6203609636
0.6203600049
0.6203589123
0.6203577269
0.6203564893
0.6203552357
0.6203539958
0.6203527927
0.6203516443
0.6203505679
0.6203495969
0.6203488534
0.6203623441
0.6203615875
0.6203605473
0.6203592737
0.6203578416
0.6203563295
0.6203548057
0.6203533231
0.620351918
0.6203506124
0.6203494174
0.6203483366
0.6203473717
0.6203465371
0.6203459167
0.6203612507
0.6203596469
0.6203576845
0.6203555752
0.6203534975
0.6203515692
0.6203498511
0.6203483616
0.6203470931
0.6203460242
0.6203451285
0.6203443795
0.6203437547
0.6203432436
0.6203428782
0.620354038
0.6203499907
0.6203463783
0.6203434604
0.6203412743
0.6203397388
0.620338728
0.6203381137
0.6203377848
0.6203376525
0.6203376498
0.6203377269
0.6203378444
0.620337956
0.6203417625
0.6203350762
0.6203305664
0.6203279895
0.620326859
0.6203267037
0.6203271526
0.6203279423
0.6203288974
0.6203299068
0.6203309027
0.6203318425
0.6203326848
0.6203333239
0.6203259632
0.6203194675
0.6203168229
0.6203165181
0.6203174974
0.6203191079
0.6203209696
0.6203228703
0.6203246974
0.6203263952
0.62032794
0.6203293209
0.6203305146
0.6203314006
0.6203417629
0.6203350767
0.6203305669
0.6203279899
0.6203268594
0.6203267041
0.620327153
0.6203279426
0.6203288977
0.6203299072
0.6203309031
0.6203318428
0.6203326851
0.6203333242
0.6203540384
0.6203499911
0.6203463787
0.6203434608
0.6203412748
0.6203397393
0.6203387285
0.6203381142
0.6203377853
0.620337653
0.6203376503
0.6203377275
0.620337845
0.6203379566
0.620359647
0.6203576846
0.6203555753
0.6203534977
0.6203515695
0.6203498514
0.620348362
0.6203470935
0.6203460247
0.620345129
0.62034438
0.6203437553
0.6203432442
0.6203428788
0.6203615875
0.6203605473
0.6203592737
0.6203578417
0.6203563296
0.6203548059
0.6203533233
0.6203519183
0.6203506128
0.6203494178
0.6203483371
0.6203473723
0.6203465377
0.6203459173
0.620361726
0.6203604826
0.6203588886
0.6203570777
0.6203551841
0.6203533171
0.6203515524
0.6203499356
0.6203484882
0.6203472148
0.6203461093
0.6203451595
0.6203443526
0.6203436854
0.6203432063
0.6203592614
0.6203562717
0.6203530624
0.6203500478
0.6203474456
0.6203453228
0.6203436585
0.6203423915
0.620341449
0.6203407619
0.6203402706
0.6203399268
0.6203396924
0.6203395387
0.6203394491
0.6203500707
0.6203417626
0.6203350764
0.6203305666
0.6203279896
0.6203268591
0.6203267038
0.6203271527
0.6203279423
0.6203288974
0.6203299069
0.6203309028
0.6203318425
0.6203326848
0.620333324
0.620300274
0.6202922613
0.6202913013
0.6202940602
0.6202984085
0.6203031722
0.620307773
0.6203119644
0.6203156707
0.6203188974
0.6203216828
0.6203240691
0.6203260642
0.6203275121
0.620220224
0.6202316391
0.6202483279
0.6202640676
0.6202773098
0.6202880371
0.6202966449
0.6203035694
0.6203091814
0.6203137709
0.6203175563
0.6203206924
0.6203232521
0.6203250816
0.6203002755
0.6202922623
0.6202913022
0.620294061
0.6202984092
0.6203031728
0.6203077736
0.620311965
0.6203156712
0.6203188979
0.6203216833
0.6203240696
0.6203260646
0.6203275125
0.6203417629
0.6203350768
0.6203305671
0.6203279903
0.6203268598
0.6203267045
0.6203271534
0.6203279431
0.6203288982
0.6203299076
0.6203309035
0.6203318432
0.6203326855
0.6203333246
0.6203562717
0.6203530625
0.6203500481
0.620347446
0.6203453233
0.6203436591
0.6203423921
0.6203414496
0.6203407626
0.6203402713
0.6203399275
0.6203396931
0.6203395395
0.6203394499
0.6203604826
0.6203588886
0.6203570777
0.6203551843
0.6203533173
0.6203515527
0.620349936
0.6203484887
0.6203472154
0.6203461099
0.6203451601
0.6203443533
0.6203436862
0.6203432071
0.6203612701
0.6203597064
0.6203578142
0.6203557696
0.6203537175
0.6203517599
0.6203499596
0.6203483488
0.6203469375
0.6203457215
0.6203446874
0.6203438179
0.6203430953
0.6203425108
0.6203420984
0.6203572223
0.6203531428
0.6203493211
0.620346122
0.6203436145
0.6203417344
0.6203403737
0.6203394215
0.6203387806
0.6203383715
0.6203381316
0.6203380131
0.6203379789
0.6203379983
0.6203380376
0.6203378049
0.6203259637
0.6203194679
0.6203168233
0.6203165185
0.6203174977
0.6203191081
0.6203209698
0.6203228705
0.6203246975
0.6203263954
0.6203279401
0.620329321
0.6203305147
0.6203314007
0.6202335476
0.6202202253
0.6202316399
0.6202483284
0.6202640679
0.62027731
0.6202880372
0.620296645
0.6203035695
0.6203091815
0.620313771
0.6203175563
0.6203206925
0.6203232521
0.6203250816
0.6198799373
0.6200561197
0.6201528354
0.6202090774
0.6202437488
0.6202663612
0.6202818908
0.6202930497
0.6203013793
0.6203077933
0.6203128541
0.6203169124
0.6203201478
0.6203224263
0.6202202241
0.6202316405
0.6202483294
0.6202640689
0.620277311
0.6202880381
0.6202966458
0.6203035702
0.6203091821
0.6203137716
0.6203175569
0.620320693
0.6203232526
0.6203250821
0.6203259634
0.6203194681
0.6203168239
0.6203165192
0.6203174985
0.620319109
0.6203209707
0.6203228714
0.6203246984
0.6203263962
0.6203279409
0.6203293218
0.6203305154
0.6203314015
0.6203531427
0.6203493212
0.6203461222
0.6203436149
0.620341735
0.6203403743
0.6203394222
0.6203387814
0.6203383723
0.6203381325
0.6203380139
0.6203379797
0.6203379991
0.6203380385
0.6203597064
0.6203578141
0.6203557697
0.6203537177
0.6203517602
0.62034996
0.6203483493
0.6203469381
0.6203457221
0.6203446881
0.6203438187
0.6203430961
0.6203425116
0.6203420993
0.6203617261
0.6203604826
0.6203588887
0.6203570777
0.6203551842
0.6203533172
0.6203515525
0.6203499357
0.6203484883
0.620347215
0.6203461095
0.6203451597
0.6203443528
0.6203436856
0.6203432066
0.6203592615
0.6203562718
0.6203530626
0.6203500481
0.6203474459
0.6203453231
0.6203436589
0.6203423918
0.6203414493
0.6203407622
0.6203402709
0.6203399271
0.6203396927
0.620339539
0.6203394495
0.6203500714
0.6203417633
0.6203350771
0.6203305672
0.6203279903
0.6203268597
0.6203267044
0.6203271532
0.6203279429
0.6203288979
0.6203299074
0.6203309033
0.620331843
0.6203326853
0.6203333244
0.6203190616
0.6203002765
0.6202922632
0.6202913028
0.6202940615
0.6202984096
0.6203031732
0.6203077739
0.6203119652
0.6203156714
0.620318898
0.6203216834
0.6203240697
0.6203260647
0.6203275126
0.6202335477
0.6202202256
0.6202316415
0.6202483301
0.6202640695
0.6202773114
0.6202880384
0.6202966461
0.6203035704
0.6203091823
0.6203137718
0.620317557
0.6203206931
0.6203232527
0.6203250822
0.6203190612
0.6203002765
0.6202922636
0.6202913035
0.6202940623
0.6202984104
0.6203031739
0.6203077746
0.6203119659
0.6203156721
0.6203188986
0.620321684
0.6203240702
0.6203260652
0.6203275131
0.6203417625
0.6203350769
0.6203305674
0.6203279907
0.6203268603
0.6203267051
0.620327154
0.6203279437
0.6203288987
0.6203299082
0.620330904
0.6203318437
0.620332686
0.6203333251
0.6203562716
0.6203530625
0.6203500482
0.6203474461
0.6203453235
0.6203436594
0.6203423924
0.62034145
0.6203407629
0.6203402717
0.6203399279
0.6203396935
0.6203395398
0.6203394503
0.6203604825
0.6203588886
0.6203570778
0.6203551843
0.6203533174
0.6203515529
0.6203499362
0.6203484889
0.6203472156
0.6203461101
0.6203451604
0.6203443536
0.6203436865
0.6203432074
0.6203623441
0.6203615876
0.6203605474
0.6203592738
0.6203578417
0.6203563296
0.6203548059
0.6203533233
0.6203519182
0.6203506127
0.6203494177
0.6203483369
0.6203473721
0.6203465375
0.6203459171
0.6203612508
0.6203596471
0.6203576847
0.6203555754
0.6203534978
0.6203515695
0.6203498514
0.620348362
0.6203470935
0.6203460247
0.620345129
0.62034438
0.6203437552
0.6203432441
0.6203428787
0.6203579517
0.6203540386
0.6203499913
0.620346379
0.6203434611
0.6203412751
0.6203397395
0.6203387287
0.6203381145
0.6203377855
0.6203376532
0.6203376505
0.6203377276
0.6203378451
0.6203379567
0.6203500714
0.6203417634
0.6203350773
0.6203305676
0.6203279907
0.6203268602
0.6203267048
0.6203271537
0.6203279433
0.6203288984
0.6203299078
0.6203309037
0.6203318434
0.6203326857
0.6203333248
0.6203378048
0.620325964
0.6203194687
0.6203168244
0.6203165196
0.6203174989
0.6203191094
0.6203209709
0.6203228716
0.6203246986
0.6203263964
0.6203279411
0.620329322
0.6203305156
0.6203314016
0.6203500713
0.6203417634
0.6203350774
0.6203305678
0.620327991
0.6203268605
0.6203267052
0.6203271541
0.6203279438
0.6203288988
0.6203299082
0.6203309041
0.6203318438
0.6203326861
0.6203333252
0.6203579515
0.6203540384
0.6203499913
0.6203463791
0.6203434613
0.6203412754
0.6203397399
0.6203387292
0.620338115
0.6203377861
0.6203376538
0.6203376511
0.6203377283
0.6203378458
0.6203379574
0.6203596469
0.6203576846
0.6203555754
0.6203534979
0.6203515697
0.6203498517
0.6203483624
0.620347094
0.6203460252
0.6203451295
0.6203443806
0.6203437559
0.6203432448
0.6203428794
0.6203615875
0.6203605473
0.6203592738
0.6203578418
0.6203563297
0.6203548061
0.6203533236
0.6203519186
0.6203506131
0.6203494182
0.6203483375
0.6203473727
0.6203465382
0.6203459179
0.6203627616
0.6203623524
0.6203617533
0.6203609637
0.6203600049
0.6203589123
0.620357727
0.6203564894
0.6203552358
0.6203539959
0.6203527928
0.6203516444
0.6203505679
0.620349597
0.6203488534
0.6203623354
0.620361576
0.6203605454
0.6203593015
0.6203579215
0.6203564806
0.6203550403
0.6203536451
0.620352324
0.620351093
0.6203499594
0.620348925
0.6203479913
0.6203471743
0.6203465612
0.6203612508
0.6203596471
0.6203576847
0.6203555755
0.6203534978
0.6203515696
0.6203498516
0.6203483621
0.6203470937
0.6203460249
0.6203451292
0.6203443802
0.6203437555
0.6203432444
0.620342879
0.6203592615
0.6203562719
0.6203530627
0.6203500483
0.6203474462
0.6203453235
0.6203436593
0.6203423923
0.6203414498
0.6203407627
0.6203402715
0.6203399277
0.6203396933
0.6203395396
0.6203394501
0.6203572223
0.6203531429
0.6203493214
0.6203461225
0.6203436151
0.6203417352
0.6203403745
0.6203394224
0.6203387816
0.6203383724
0.6203381326
0.6203380141
0.6203379798
0.6203379992
0.6203380386
0.6203592615
0.6203562719
0.6203530628
0.6203500484
0.6203474463
0.6203453237
0.6203436595
0.6203423925
0.6203414501
0.620340763
0.6203402718
0.620339928
0.6203396936
0.6203395399
0.6203394504
0.6203612508
0.6203596471
0.6203576847
0.6203555756
0.620353498
0.6203515698
0.6203498518
0.6203483624
0.620347094
0.6203460252
0.6203451296
0.6203443806
0.6203437559
0.6203432449
0.6203428795
0.6203623354
0.620361576
0.6203605454
0.6203593015
0.6203579216
0.6203564807
0.6203550404
0.6203536454
0.6203523243
0.6203510934
0.6203499598
0.6203489254
0.6203479918
0.6203471748
0.6203465618
0.6203623524
0.6203617533
0.6203609637
0.620360005
0.6203589124
0.6203577271
0.6203564896
0.620355236
0.6203539962
0.6203527931
0.6203516448
0.6203505684
0.6203495975
0.620348854
0.6203629501
0.6203627025
0.620362322
0.6203617903
0.6203611038
0.6203602723
0.6203593162
0.6203582628
0.6203571415
0.6203559819
0.620354811
0.6203536533
0.6203525344
0.6203514998
0.6203506938
0.6203627616
0.6203623524
0.6203617533
0.6203609637
0.6203600049
0.6203589123
0.620357727
0.6203564895
0.6203552358
0.6203539959
0.6203527928
0.6203516445
0.620350568
0.6203495971
0.6203488535
0.6203623441
0.6203615876
0.6203605474
0.6203592738
0.6203578418
0.6203563297
0.620354806
0.6203533235
0.6203519184
0.6203506129
0.620349418
0.6203483372
0.6203473724
0.6203465378
0.6203459175
0.6203617261
0.6203604826
0.6203588888
0.6203570779
0.6203551844
0.6203533175
0.6203515529
0.6203499362
0.6203484888
0.6203472155
0.62034611
0.6203451603
0.6203443534
0.6203436863
0.6203432073
0.6203612701
0.6203597065
0.6203578143
0.6203557698
0.6203537179
0.6203517603
0.6203499601
0.6203483494
0.6203469383
0.6203457223
0.6203446883
0.6203438188
0.6203430963
0.6203425117
0.6203420994
0.6203617261
0.6203604827
0.6203588888
0.6203570779
0.6203551845
0.6203533176
0.620351553
0.6203499363
0.620348489
0.6203472157
0.6203461102
0.6203451605
0.6203443537
0.6203436866
0.6203432075
0.6203623441
0.6203615876
0.6203605474
0.6203592739
0.6203578419
0.6203563299
0.6203548062
0.6203533237
0.6203519187
0.6203506132
0.6203494183
0.6203483376
0.6203473728
0.6203465382
0.6203459179
0.6203627616
0.6203623524
0.6203617533
0.6203609637
0.620360005
0.6203589124
0.6203577271
0.6203564896
0.6203552361
0.6203539962
0.6203527932
0.6203516449
0.6203505684
0.6203495976
0.620348854
0.6203629501
0.6203627025
0.620362322
0.6203617903
0.6203611038
0.6203602723
0.6203593163
0.6203582629
0.6203571417
0.6203559822
0.6203548113
0.6203536536
0.6203525348
0.6203515003
0.6203506943
)
;

boundaryField
{
    top
    {
        type            zeroGradient;
    }
    bottom
    {
        type            zeroGradient;
    }
    side-walls
    {
        type            zeroGradient;
    }
    inlet
    {
        type            zeroGradient;
    }
    outlet
    {
        type            zeroGradient;
    }
    procBoundary1to0
    {
        type            processor;
        value           nonuniform List<scalar> 
97
(
0.6203629501
0.6203629501
0.6203627616
0.6203623441
0.6203617261
0.6203612702
0.6203617261
0.6203623441
0.6203627616
0.6203629501
0.6203630065
0.6203623354
0.6203623354
0.6203623354
0.6203612508
0.6203592616
0.6203572226
0.6203592617
0.6203612509
0.6203623355
0.6203627616
0.6203628149
0.620362329
0.6203579515
0.6203579515
0.6203579515
0.6203500716
0.6203378063
0.620350072
0.620357952
0.6203612509
0.6203623441
0.6203625382
0.6203614836
0.6203578501
0.6203190609
0.6203190609
0.6203190609
0.6202335569
0.6203190639
0.620350072
0.6203592617
0.6203617261
0.6203623438
0.6203606998
0.6203538928
0.6203274203
0.6195402764
0.6195402764
0.6195402764
0.6202335566
0.6202335566
0.6203378063
0.6203572226
0.6203612702
0.6203625382
0.6203614836
0.6203578501
0.6203474615
0.6203274199
0.6203474617
0.620350071
0.620350071
0.620350071
0.6203592615
0.6203617261
0.6203628149
0.6203623289
0.6203609243
0.6203578501
0.6203538927
0.6203578501
0.6203609243
0.6203612507
0.6203612507
0.6203612507
0.6203623441
0.6203630065
0.620362812
0.6203623289
0.6203614836
0.6203606998
0.6203614836
0.620362329
0.620362812
0.6203627615
0.6203627615
0.6203627615
0.6203630942
0.6203630065
0.6203628149
0.6203625382
0.6203623438
0.6203625382
0.6203628149
0.6203630065
0.6203630942
)
;
    }
}


// ************************************************************************* //
