/*--------------------------------*- C++ -*----------------------------------*\
| =========                 |                                                 |
| \\      /  F ield         | OpenFOAM: The Open Source CFD Toolbox           |
|  \\    /   O peration     | Version:  4.x                                   |
|   \\  /    A nd           | Web:      www.OpenFOAM.org                      |
|    \\/     M anipulation  |                                                 |
\*---------------------------------------------------------------------------*/
FoamFile
{
    version     2.0;
    format      ascii;
    class       surfaceScalarField;
    location    "11000";
    object      phi;
}
// * * * * * * * * * * * * * * * * * * * * * * * * * * * * * * * * * * * * * //

dimensions      [1 0 -1 0 0 0 0];

internalField   nonuniform List<scalar> 
3172
(
9.165577208e-06
-6.103049967e-12
-5.779052701e-12
9.165590489e-06
-5.887547481e-12
-5.109081164e-12
9.16559387e-06
-3.76256417e-12
-3.317213891e-12
9.165599156e-06
-1.00643272e-12
-1.038401019e-12
9.165595798e-06
-1.280364545e-12
4.504779207e-13
9.165594082e-06
-2.604393082e-13
3.982643266e-12
9.165593091e-06
1.015797713e-12
4.174953051e-12
9.165587107e-06
1.427944309e-12
2.238707969e-12
9.165582342e-06
1.262957716e-12
2.485977174e-12
9.16557501e-06
1.948684242e-12
4.387061463e-12
9.165569217e-06
1.007677697e-12
4.067121071e-12
9.165564692e-06
1.992251561e-12
4.494660035e-12
9.165557506e-06
2.023963764e-12
4.053563205e-12
2.75782705e-12
4.237831267e-12
9.165564806e-06
-8.442663049e-12
-5.854943646e-12
9.165577275e-06
-8.663570721e-12
-7.094199362e-12
9.165580064e-06
-2.758042802e-12
-2.818240405e-12
9.165577678e-06
-1.89481781e-12
-7.15106222e-13
9.165572566e-06
1.898942831e-13
2.15805618e-12
9.165569929e-06
2.977814405e-12
4.118703118e-12
9.16556651e-06
2.516147917e-12
4.262178225e-12
9.165559162e-06
2.474158818e-12
4.530045598e-12
9.165553417e-06
3.546681881e-12
5.800371015e-12
9.165546111e-06
3.79026786e-12
4.539610531e-12
9.165540194e-06
4.141176476e-12
4.548889146e-12
9.165536593e-06
4.547855399e-12
4.416499029e-12
9.165531455e-06
5.07022812e-12
4.611139646e-12
4.214697208e-12
4.870519874e-12
9.165637388e-06
-3.523799946e-12
-7.250325586e-12
9.165643562e-06
-5.090678992e-12
-6.804116819e-12
9.165637243e-06
4.194442074e-14
5.627799857e-13
9.165631286e-06
4.673360804e-12
5.857071249e-12
9.165620206e-06
3.843867805e-12
7.434332984e-12
9.165611801e-06
4.988165007e-12
7.330812057e-12
9.165605661e-06
6.855774998e-12
7.995437525e-12
9.165598469e-06
5.174248103e-12
7.664763047e-12
9.165591291e-06
4.41611472e-12
7.048612543e-12
9.165583784e-06
4.824861139e-12
6.573375551e-12
9.165577091e-06
5.800313027e-12
5.246048211e-12
9.165573806e-06
5.718840549e-12
5.900997839e-12
9.165568718e-06
5.288974567e-12
5.317294064e-12
4.395710491e-12
3.953608751e-12
9.165632629e-06
2.076346016e-12
1.020309082e-11
9.165634872e-06
4.54179705e-12
-1.002228385e-11
9.165629073e-06
6.293569705e-12
2.430297283e-12
9.165618164e-06
6.63125594e-12
8.550988787e-12
9.165606166e-06
4.47008702e-12
1.181695912e-11
9.165596118e-06
3.637135987e-12
1.144719505e-11
9.165585892e-06
1.62559175e-12
1.002884776e-11
9.165581406e-06
3.288217135e-12
1.064764069e-11
9.165575553e-06
2.923652535e-12
9.406324588e-12
9.165568556e-06
2.316657462e-12
8.27378547e-12
9.16556521e-06
2.483597745e-12
6.760803442e-12
9.165561343e-06
2.961854482e-12
6.362924282e-12
9.165561366e-06
2.822961352e-12
5.152322835e-12
2.915443046e-12
4.538979453e-12
9.165644211e-06
-2.283390459e-12
6.278992602e-11
9.16562074e-06
-2.917161618e-12
2.946056427e-11
9.16559991e-06
-5.774080288e-12
3.20215803e-11
9.165579349e-06
-5.46152952e-12
2.710415632e-11
9.165567948e-06
-3.763940023e-12
2.31663631e-11
9.165556129e-06
-2.698821696e-12
1.850055954e-11
9.165549624e-06
-6.562915447e-13
1.604146605e-11
9.165540481e-06
-1.433879462e-12
1.22834759e-11
9.165534609e-06
-2.069198331e-12
9.407905247e-12
9.165532378e-06
-7.608197871e-13
9.906638333e-12
9.165527419e-06
-9.443777115e-13
7.808816576e-12
9.165522604e-06
4.263989854e-13
5.939915617e-12
9.165521471e-06
-2.525343153e-13
4.857837249e-12
-9.639315887e-13
3.598642584e-12
9.165624081e-06
3.745778574e-12
1.303774244e-11
9.165624804e-06
6.737397897e-12
-1.02853016e-11
9.165618514e-06
1.570343042e-12
2.484372571e-12
9.165605574e-06
-6.428334188e-13
8.615376791e-12
9.165596211e-06
-1.011011657e-12
1.21855885e-11
9.165584443e-06
-3.499590651e-12
1.160538208e-11
9.165576121e-06
-4.086682233e-12
1.156845713e-11
9.165565582e-06
-4.35968006e-12
9.857114359e-12
9.16556242e-06
-1.616740407e-12
9.475040911e-12
9.165556437e-06
-2.024805442e-12
8.07583581e-12
9.165551409e-06
-2.62645397e-12
8.424271372e-12
9.165546214e-06
-3.308869953e-12
5.517508304e-12
9.165542961e-06
-4.757779821e-12
5.673719989e-12
-3.478602001e-12
4.04066716e-12
9.165595561e-06
8.583708889e-12
-6.566024947e-12
9.165598664e-06
8.941340922e-12
-8.236694308e-12
9.165595782e-06
3.36151855e-12
1.834706648e-12
9.165586368e-06
4.925667295e-13
4.183436128e-12
9.165578272e-06
-1.282904703e-12
6.223256602e-12
9.165571733e-06
-2.519449665e-12
6.958482829e-12
9.165562768e-06
-2.33323001e-12
8.327725272e-12
9.165558127e-06
-2.682611404e-12
7.754604824e-12
9.1655505e-06
-3.969533181e-12
5.96028049e-12
9.165543796e-06
-5.867407918e-12
5.079134923e-12
9.165539085e-06
-5.06456752e-12
5.522231973e-12
9.165533087e-06
-5.949143218e-12
5.121196935e-12
9.165530181e-06
-5.64344189e-12
5.27266475e-12
-3.298858277e-12
4.745107416e-12
9.165592415e-06
5.144389084e-12
-5.407251153e-12
9.165602148e-06
5.521305009e-12
-7.63487027e-12
9.165606378e-06
2.59303924e-12
-2.65049872e-12
9.165603398e-06
-1.158371141e-12
-7.580803923e-13
9.165602574e-06
-1.129546765e-12
2.152203527e-13
9.165598241e-06
-2.622054039e-12
1.109018956e-12
9.165592037e-06
-2.313609518e-12
2.861572653e-12
9.165587145e-06
-3.858742681e-12
3.257690289e-12
9.165578942e-06
-4.297469532e-12
2.429188634e-12
9.165576335e-06
-3.046386518e-12
4.300331061e-12
9.165570857e-06
-2.846278438e-12
4.699479978e-12
9.165563945e-06
-3.376483253e-12
5.172218371e-12
9.16556048e-06
-1.117676537e-12
5.840198522e-12
-2.067941169e-12
3.645750959e-12
9.165587668e-06
-5.466216731e-12
9.165596802e-06
-6.306854848e-12
9.165602083e-06
-2.962501613e-12
9.16560315e-06
-2.772698798e-13
9.165603885e-06
-7.507357682e-13
9.165603285e-06
8.56639475e-13
9.16559913e-06
2.362608028e-12
9.165596608e-06
2.976423736e-12
9.165590242e-06
3.315243261e-12
9.165584199e-06
3.872499782e-12
9.165578903e-06
4.056384699e-12
9.165574793e-06
4.56352154e-12
9.165567705e-06
3.874222424e-12
2.743202119e-12
9.165565382e-06
-3.948085908e-11
9.165571156e-06
-5.991040274e-12
-1.049597846e-11
9.165582984e-06
-7.724193923e-12
-8.582748322e-12
9.165587004e-06
-2.197353639e-12
-1.529045566e-12
9.165588601e-06
3.761279317e-13
2.2275749e-12
9.165583556e-06
8.475883768e-13
2.233665788e-12
9.165575699e-06
7.474744166e-13
2.887629463e-12
9.165571331e-06
1.791082653e-12
4.190238504e-12
9.165567194e-06
4.655164076e-12
5.507291313e-12
9.165562501e-06
4.611460789e-12
5.37449136e-12
9.16555317e-06
3.452905995e-12
4.731048893e-12
9.165547465e-06
3.692227085e-12
6.028996639e-12
9.16554458e-06
3.772004467e-12
7.271557153e-12
9.165538261e-06
3.021746015e-12
6.137724369e-12
4.353647391e-12
4.779869128e-12
9.165591355e-06
-2.595519494e-12
-4.774614574e-12
9.165599411e-06
-8.667255539e-12
-9.686473232e-12
9.165596898e-06
-2.546083007e-12
-1.908922256e-12
9.165593085e-06
2.119975273e-12
3.960008237e-12
9.165585534e-06
4.134579469e-12
4.951115568e-12
9.165577129e-06
4.869550872e-12
6.770244466e-12
9.165571772e-06
6.987560792e-12
9.284963136e-12
9.165564168e-06
6.095426425e-12
6.596694833e-12
9.165557669e-06
6.551565213e-12
5.511239739e-12
9.165554093e-06
7.562099219e-12
5.634789559e-12
9.16554935e-06
6.368130261e-12
6.316535459e-12
9.165545377e-06
7.0057102e-12
6.459929521e-12
9.165543835e-06
7.082707045e-12
7.049437323e-12
4.628246018e-12
5.292293286e-12
9.16563491e-06
1.106883401e-11
3.547625163e-12
9.165625125e-06
-2.972946863e-12
-6.82175849e-12
9.165612209e-06
4.970446167e-12
1.123229233e-11
9.165597062e-06
6.820284573e-12
1.574604275e-11
9.165583443e-06
9.490594642e-12
1.694262052e-11
9.165574544e-06
1.048929258e-11
1.766986065e-11
9.165566036e-06
9.541688541e-12
1.604385409e-11
9.165559867e-06
8.104306338e-12
1.358455111e-11
9.165554521e-06
7.054826429e-12
1.174648525e-11
9.165548931e-06
6.879361599e-12
9.617999626e-12
9.165548582e-06
6.35422167e-12
9.305761241e-12
9.16554529e-06
6.103106757e-12
7.976885947e-12
9.16554267e-06
4.84093989e-12
7.710386918e-12
5.1015744e-12
6.226806819e-12
9.165609538e-06
3.22539506e-11
6.679435753e-11
9.165596934e-06
1.194769748e-11
-1.521999051e-11
9.16558015e-06
1.089013315e-11
1.336355156e-11
9.165564667e-06
1.059943208e-11
2.429304512e-11
9.16554883e-06
7.55876714e-12
2.513945435e-11
9.165538161e-06
6.882789065e-12
2.366205368e-11
9.165532609e-06
5.490654406e-12
2.102173794e-11
9.16552739e-06
5.333887765e-12
1.717521344e-11
9.165524436e-06
3.592115225e-12
1.550290162e-11
9.16552107e-06
3.718015975e-12
1.24290402e-11
9.165523183e-06
4.7710984e-12
1.150592401e-11
9.165521116e-06
3.158721772e-12
8.786922922e-12
9.165524431e-06
3.573808528e-12
9.755234478e-12
2.540006464e-12
7.109934775e-12
9.165570622e-06
-2.948127085e-11
3.102761427e-10
9.165510054e-06
-1.129442312e-11
1.137352288e-10
9.165477219e-06
-1.114696698e-11
8.768818049e-11
9.165456779e-06
-8.902080681e-12
7.163309059e-11
9.165443535e-06
-7.612032528e-12
5.043929389e-11
9.1654371e-06
-6.261042547e-12
3.78864235e-11
9.165434342e-06
-4.360747363e-12
2.7801034e-11
9.16543252e-06
-4.572370418e-12
2.099929113e-11
9.165434495e-06
-3.121216401e-12
1.862552914e-11
9.165432907e-06
-2.295221835e-12
1.313223166e-11
9.165433337e-06
-1.313065753e-12
1.111711958e-11
9.165434106e-06
-1.011837372e-12
9.055854779e-12
9.165437791e-06
-8.70544672e-13
9.869571063e-12
-2.34346055e-12
7.460289919e-12
9.165543554e-06
-1.141716877e-11
6.556542809e-11
9.165533004e-06
4.10913122e-12
-1.554691387e-11
9.165516524e-06
-2.001600914e-12
1.268690946e-11
9.165496398e-06
-6.632151481e-12
2.297608129e-11
9.165482319e-06
-7.91385666e-12
2.426940047e-11
9.165472903e-06
-8.399918218e-12
2.449788382e-11
9.165464447e-06
-7.513613612e-12
1.999781351e-11
9.1654615e-06
-6.965838826e-12
1.768275408e-11
9.165460603e-06
-6.500281111e-12
1.62908272e-11
9.165459826e-06
-6.094863059e-12
1.242036862e-11
9.165458057e-06
-5.815363513e-12
9.198547206e-12
9.165458867e-06
-4.34047486e-12
8.582491308e-12
9.165459238e-06
-5.044975895e-12
9.786084134e-12
-2.675140089e-12
1.002342638e-11
9.165606463e-06
3.049788876e-12
4.845277295e-12
9.165599296e-06
1.063265029e-11
-5.989285362e-12
9.165581898e-06
2.554780922e-12
9.306055561e-12
9.165567971e-06
-4.762294827e-13
1.492839877e-11
9.165555575e-06
-3.912766659e-12
1.615308408e-11
9.165546337e-06
-6.528447398e-12
1.588688337e-11
9.165537056e-06
-7.869719724e-12
1.309039511e-11
9.165531164e-06
-6.824133978e-12
1.373297884e-11
9.165528226e-06
-5.627839116e-12
1.262516363e-11
9.165523562e-06
-6.890493026e-12
1.034216329e-11
9.165521999e-06
-6.22113567e-12
7.868873166e-12
9.165517932e-06
-6.563152466e-12
7.11713622e-12
9.165517282e-06
-5.621858352e-12
7.822601396e-12
-4.722840182e-12
6.065104192e-12
9.165602938e-06
5.55118219e-12
-2.194486168e-12
9.16560881e-06
6.949228082e-12
-9.662295752e-12
9.165607629e-06
2.261312354e-12
-1.973251786e-12
9.165601894e-06
-8.94601417e-14
2.341047066e-13
9.165596278e-06
-1.57138299e-12
3.693817028e-12
9.165589992e-06
-3.072565958e-12
5.773176076e-12
9.165581734e-06
-3.090206057e-12
5.407257142e-12
9.165575212e-06
-3.946003811e-12
6.873890538e-12
9.165569701e-06
-3.560391608e-12
7.775318283e-12
9.165562173e-06
-3.867906117e-12
8.712001333e-12
9.165557135e-06
-4.294652338e-12
6.964928026e-12
9.165552224e-06
-3.257693344e-12
6.928730747e-12
9.165548588e-06
-3.348229087e-12
6.322239725e-12
-3.263018829e-12
4.769971999e-12
9.165555628e-06
-8.893358561e-12
9.165564389e-06
-9.722149297e-12
9.165568152e-06
-2.877677392e-12
9.165565186e-06
6.027270537e-13
9.16556495e-06
1.264467539e-12
9.165561545e-06
2.687852802e-12
9.165555856e-06
2.334847648e-12
9.165549634e-06
4.920866758e-12
9.165542217e-06
3.822812417e-12
9.165536694e-06
4.784666414e-12
9.165531412e-06
5.451806995e-12
9.165524582e-06
2.931434176e-12
9.165519976e-06
4.604128243e-12
4.069003549e-12
9.16563632e-06
-6.605848293e-11
-4.726015905e-11
9.165635274e-06
-5.391063167e-12
-3.952179089e-12
9.165639664e-06
-7.635518109e-12
-5.926739872e-12
9.165633042e-06
1.73164284e-12
-6.000133029e-13
9.165624817e-06
6.397121896e-12
3.986276547e-12
9.165616966e-06
6.075593222e-12
5.329303471e-12
9.165608059e-06
6.668335299e-12
5.61789859e-12
9.165599226e-06
8.357596216e-12
4.709205468e-12
9.165593196e-06
7.432644845e-12
3.624764382e-12
9.165585299e-06
6.39341919e-12
4.153048966e-12
9.165579313e-06
6.396287733e-12
5.724293722e-12
9.165573443e-06
4.031587535e-12
3.020003561e-12
9.165570527e-06
5.074362126e-12
3.745693932e-12
9.165567806e-06
5.016721962e-12
3.818837916e-12
6.251707738e-12
4.383851611e-12
9.16567072e-06
-8.490449022e-11
9.165647997e-06
6.799477306e-12
1.216494992e-11
9.165640148e-06
-4.837199029e-12
-3.015599134e-12
9.165626829e-06
1.002745378e-11
4.118343951e-12
9.165610712e-06
1.484072289e-11
7.398535804e-12
9.165598397e-06
1.659816775e-11
8.038804421e-12
9.1655876e-06
1.525220096e-11
7.440102152e-12
9.165578338e-06
1.469493813e-11
7.373501933e-12
9.165573837e-06
1.304201066e-11
8.132182808e-12
9.165568126e-06
1.258849593e-11
7.899211997e-12
9.16556358e-06
1.108569987e-11
7.102418685e-12
9.165562371e-06
8.875220923e-12
6.29796996e-12
9.165561091e-06
9.22665521e-12
6.620610579e-12
9.165560212e-06
7.763890698e-12
6.378127614e-12
5.566095633e-12
4.720751072e-12
9.165616534e-06
5.45992216e-11
5.415570691e-11
9.165565372e-06
1.928631487e-11
1.976985695e-11
9.165522793e-06
3.279992577e-11
3.16555156e-11
9.165492871e-06
3.085298146e-11
2.988945324e-11
9.165475817e-06
2.549297375e-11
2.471755482e-11
9.165467793e-06
2.094382354e-11
2.09040466e-11
9.165464165e-06
1.679543119e-11
1.612774396e-11
9.165464757e-06
1.430495801e-11
1.35956877e-11
9.165466435e-06
1.224154082e-11
1.211916672e-11
9.165468305e-06
9.140940106e-12
8.539225079e-12
9.165472513e-06
9.183162335e-12
7.78436698e-12
9.16547229e-06
7.170887653e-12
6.392753623e-12
9.165477472e-06
7.736709395e-12
8.801723742e-12
5.866476375e-12
6.385606587e-12
9.165612155e-06
1.21140987e-10
2.336031699e-10
9.165548598e-06
5.088011406e-11
2.092303612e-11
9.165502054e-06
3.986100946e-11
4.580776224e-11
9.165480875e-06
3.067059971e-11
4.615066323e-11
9.165472075e-06
1.920578552e-11
3.543826723e-11
9.165472522e-06
1.433291536e-11
2.796116245e-11
9.165477935e-06
1.040697602e-11
2.308941296e-11
9.165484979e-06
8.083774687e-12
1.865146063e-11
9.165490287e-06
6.749451721e-12
1.501912044e-11
9.16549916e-06
5.553585384e-12
1.188080641e-11
9.165504645e-06
5.293393908e-12
8.816330592e-12
9.165511658e-06
3.647670633e-12
7.564692098e-12
9.165517594e-06
3.46524894e-12
9.282425904e-12
3.096210052e-12
7.603216323e-12
9.165599593e-06
-1.195558152e-10
1.181256035e-09
9.165402186e-06
-4.951990848e-11
4.136239551e-10
9.165352361e-06
-4.046829294e-11
2.163464336e-10
9.165349176e-06
-3.029517404e-11
1.311293267e-10
9.16536434e-06
-1.961187429e-11
7.489612359e-11
9.165381853e-06
-1.275345217e-11
4.728699159e-11
9.165400173e-06
-9.527593512e-12
3.145222103e-11
9.165415081e-06
-6.864921355e-12
2.260074779e-11
9.165424566e-06
-4.967014443e-12
1.602436443e-11
9.165436791e-06
-3.641349443e-12
1.283386707e-11
9.165443549e-06
-3.001923081e-12
9.101464619e-12
9.16545149e-06
-1.711580822e-12
9.473317925e-12
9.165459801e-06
-1.399407898e-12
8.652257088e-12
-4.214671319e-13
6.728521856e-12
9.165640816e-06
-5.319118414e-11
2.317588458e-10
9.16557662e-06
-1.841872042e-11
2.11695672e-11
9.16553225e-06
-3.10383926e-11
4.621724248e-11
9.165510555e-06
-2.928831745e-11
4.655491121e-11
9.165503246e-06
-2.504780259e-11
3.475826333e-11
9.165503536e-06
-2.092462359e-11
2.67522698e-11
9.165508195e-06
-1.640833935e-11
2.213359705e-11
9.165515165e-06
-1.218738498e-11
1.824215072e-11
9.165520185e-06
-1.15495328e-11
1.496572466e-11
9.165528855e-06
-8.581046014e-12
1.152649647e-11
9.16553361e-06
-8.423595268e-12
1.019397428e-11
9.165539474e-06
-6.960225342e-12
1.007239019e-11
9.16554616e-06
-7.256500194e-12
8.569444314e-12
-6.201132055e-12
4.886605989e-12
9.165727922e-06
-4.21958479e-12
5.415103445e-11
9.16567854e-06
6.553536542e-12
1.962291542e-11
9.16563182e-06
-9.096020827e-12
3.088493531e-11
9.165602451e-06
-1.494130325e-11
3.006408508e-11
9.165587035e-06
-1.598740885e-11
2.40028147e-11
9.165578659e-06
-1.575297138e-11
2.034098794e-11
9.165576155e-06
-1.4877707e-11
1.614264335e-11
9.165573282e-06
-1.3864002e-11
1.335131635e-11
9.165574316e-06
-1.110267621e-11
1.152478179e-11
9.165575369e-06
-8.999424445e-12
9.831606502e-12
9.165578386e-06
-8.445606448e-12
8.249166731e-12
9.165579463e-06
-6.340138291e-12
7.78882202e-12
9.165580306e-06
-7.423754951e-12
8.069604509e-12
-6.273110766e-12
5.516641061e-12
9.165580104e-06
4.978222314e-12
1.049472624e-11
9.165572872e-06
6.412227212e-12
-4.405040155e-12
9.165554858e-06
-2.597500274e-12
2.873160508e-12
9.165542225e-06
-3.853277089e-12
7.407688904e-12
9.165530214e-06
-6.169491377e-12
8.447175616e-12
9.165519546e-06
-7.725980606e-12
8.902959631e-12
9.165512725e-06
-6.878860788e-12
8.511541606e-12
9.165506412e-06
-6.586045618e-12
9.219855582e-12
9.165501856e-06
-7.60895209e-12
7.609367879e-12
9.165496288e-06
-7.234273908e-12
5.985616303e-12
9.165495404e-06
-5.619716097e-12
5.628869926e-12
9.165491103e-06
-6.118464104e-12
6.079876112e-12
9.165490036e-06
-4.563411252e-12
6.306273097e-12
-4.217663417e-12
4.740247962e-12
9.16558509e-06
-3.851524557e-12
9.165588635e-06
-6.608277238e-12
9.165585612e-06
-6.437942394e-13
9.165575736e-06
1.284692142e-12
9.165566911e-06
2.582156902e-12
9.165560213e-06
4.409496549e-12
9.165552943e-06
5.008614001e-12
9.165544686e-06
3.904739538e-12
9.165540764e-06
4.257793074e-12
9.165534658e-06
2.993595835e-12
9.165526131e-06
3.623753745e-12
9.165523405e-06
4.299270351e-12
9.165519202e-06
3.716098207e-12
4.511300626e-12
9.165671178e-06
-9.032628919e-11
-4.417950137e-11
9.165651544e-06
1.384415976e-11
3.345033715e-12
9.165654921e-06
-9.270049254e-12
4.905814936e-12
9.16564565e-06
2.486058855e-12
6.081155629e-12
9.16563418e-06
7.975788062e-12
4.87145533e-12
9.165621491e-06
8.841148389e-12
2.857843375e-12
9.165611604e-06
9.646799247e-12
2.794179215e-12
9.165602225e-06
1.029506422e-11
3.479149946e-12
9.165596658e-06
1.099223953e-11
4.244869436e-12
9.165588075e-06
9.475900831e-12
3.154156988e-12
9.165581671e-06
6.455256403e-12
7.370269741e-13
9.165577688e-06
6.623465922e-12
2.378910768e-12
9.165574056e-06
6.568080962e-12
1.334122062e-12
9.16557159e-06
6.749182889e-12
1.781918531e-12
5.420521085e-12
1.854036658e-12
9.165613897e-06
-2.077633411e-10
-8.452537479e-11
9.165539926e-06
6.803851186e-11
2.907017402e-11
9.165528877e-06
-1.36811293e-11
1.154281459e-11
9.165511535e-06
1.242147053e-11
1.044886831e-11
9.165492053e-06
2.208277867e-11
1.012455457e-11
9.165477466e-06
2.452936612e-11
7.988920364e-12
9.165468605e-06
2.351789873e-11
6.429715696e-12
9.165460107e-06
1.9282654e-11
4.896635593e-12
9.1654556e-06
1.628336002e-11
4.194244543e-12
9.165452114e-06
1.525254177e-11
2.799602885e-12
9.165451651e-06
1.26937041e-11
2.926407782e-12
9.165452257e-06
1.023023401e-11
2.912857153e-12
9.16545206e-06
8.570365524e-12
2.266138964e-12
9.165453493e-06
1.029690904e-11
1.762805649e-12
8.742203403e-12
2.404516508e-12
9.165760876e-06
-2.52450969e-10
9.165529085e-06
2.321262224e-10
1.176396213e-10
9.165464043e-06
2.062727241e-11
4.968441511e-11
9.16542109e-06
4.712988941e-11
3.93470855e-11
9.165399491e-06
4.726831132e-11
2.95782862e-11
9.165390635e-06
3.78797851e-11
1.912482071e-11
9.165392654e-06
2.872862132e-11
1.392601205e-11
9.165397996e-06
2.208838078e-11
9.618416407e-12
9.165406409e-06
1.790838e-11
8.90487866e-12
9.165409865e-06
1.399428893e-11
5.957231711e-12
9.165418397e-06
1.156120262e-11
4.575618781e-12
9.165426955e-06
1.020873735e-11
4.670538009e-12
9.16543211e-06
8.071695313e-12
2.256558917e-12
9.16543593e-06
8.536659997e-12
1.37160851e-12
7.12120885e-12
2.157233725e-12
9.165215509e-06
4.250326992e-10
4.249199787e-10
9.165243603e-06
8.286065609e-12
9.090072533e-12
9.165251752e-06
4.312402799e-11
4.216584302e-11
9.165265313e-06
4.076287269e-11
3.968103266e-11
9.16528657e-06
2.472148368e-11
2.513338619e-11
9.165310773e-06
1.909038881e-11
1.849401721e-11
9.165334033e-06
1.367048218e-11
1.340815609e-11
9.165354077e-06
1.026023843e-11
9.726255932e-12
9.165369088e-06
7.858896078e-12
6.596431078e-12
9.165383634e-06
6.231000484e-12
5.877061974e-12
9.165394618e-06
5.180378564e-12
4.724985916e-12
9.165406925e-06
5.200563337e-12
3.004474452e-12
9.165415452e-06
3.686548629e-12
2.712208782e-12
3.117740503e-12
2.336045896e-12
9.164874298e-06
-4.261143304e-10
3.401580464e-09
9.164938288e-06
-6.761346673e-12
3.707405983e-10
9.165067516e-06
-4.182703671e-11
1.747685922e-10
9.165164063e-06
-3.94989854e-11
1.118974173e-10
9.165239052e-06
-2.59742167e-11
5.510613894e-11
9.165291793e-06
-1.881809543e-11
2.901450722e-11
9.165335608e-06
-1.348470148e-11
1.71517107e-11
9.165367768e-06
-9.009838241e-12
1.089782135e-11
9.16539001e-06
-5.950600042e-12
7.482042059e-12
9.165408208e-06
-5.107264197e-12
5.255205495e-12
9.16542574e-06
-2.69669258e-12
3.877871596e-12
9.165437655e-06
-2.167812689e-12
3.079242144e-12
9.165450819e-06
-1.685084033e-12
3.714703344e-12
-1.525325514e-12
1.456488152e-12
9.165297859e-06
-2.303933344e-10
4.26662118e-10
9.165324853e-06
-1.98268454e-11
8.522658734e-12
9.16533278e-06
-4.633604628e-11
4.280952762e-11
9.16534582e-06
-4.625337538e-11
3.860878199e-11
9.165369311e-06
-3.572001667e-11
2.58695869e-11
9.165393694e-06
-2.739888397e-11
1.882907321e-11
9.165415617e-06
-2.265769075e-11
1.292068714e-11
9.165434774e-06
-1.80613893e-11
8.039072881e-12
9.165450399e-06
-1.451347755e-11
6.682704497e-12
9.165466308e-06
-1.057003086e-11
5.159084337e-12
9.165477314e-06
-1.027733448e-11
3.920737199e-12
9.165485863e-06
-9.019337285e-12
1.505476484e-12
9.165496173e-06
-8.65023018e-12
1.376922027e-12
-6.750678908e-12
2.585206227e-12
9.165574252e-06
-6.689079815e-11
1.200061399e-10
9.165508337e-06
1.370784536e-11
5.076392347e-11
9.165466775e-06
-1.324020682e-11
4.116030393e-11
9.165440133e-06
-2.378742897e-11
2.953999628e-11
9.165434442e-06
-2.311040023e-11
1.978173163e-11
9.165433632e-06
-2.35658168e-11
1.232076638e-11
9.16544332e-06
-1.937929077e-11
1.049763168e-11
9.16545021e-06
-1.627627209e-11
6.309947143e-12
9.165454665e-06
-1.479791127e-11
5.605899809e-12
9.165460642e-06
-1.27818514e-11
3.534417132e-12
9.165468592e-06
-1.019480849e-11
4.368980371e-12
9.165475047e-06
-7.345833196e-12
1.229338275e-12
9.165479745e-06
-8.641229559e-12
1.359910673e-12
-7.367142309e-12
1.944144296e-12
9.165623945e-06
-1.312972358e-11
2.956832412e-11
9.165612589e-06
9.194135839e-12
1.051004263e-11
9.16559666e-06
-2.574111718e-12
1.039164293e-11
9.165578909e-06
-7.570374802e-12
9.676479669e-12
9.165563903e-06
-1.073168103e-11
7.196292266e-12
9.165554159e-06
-1.170714368e-11
5.204320636e-12
9.165548174e-06
-1.057119033e-11
3.691948811e-12
9.16554337e-06
-1.071067425e-11
2.076783931e-12
9.165541636e-06
-1.016365944e-11
1.157433167e-12
9.165539573e-06
-9.674355153e-12
8.543967057e-13
9.165540351e-06
-7.077246955e-12
1.40497999e-12
9.165538251e-06
-8.111480082e-12
1.556439947e-15
9.165538738e-06
-7.207485245e-12
1.49518833e-12
-4.932164731e-12
8.243143325e-13
9.165591647e-06
3.160655482e-12
9.16559167e-06
3.31745984e-12
9.165585574e-06
5.30737412e-12
9.165571543e-06
4.556801606e-12
9.165560062e-06
4.208420214e-12
9.165549366e-06
4.491049921e-12
9.165539514e-06
1.860046313e-12
9.165532142e-06
9.036580041e-13
9.165523106e-06
5.94050121e-13
9.165520884e-06
2.878267034e-12
9.165514882e-06
1.236868689e-12
9.16551246e-06
2.081050314e-12
9.16550761e-06
2.264253344e-12
9.74728916e-13
9.165695467e-06
-2.455291799e-10
4.438919844e-11
9.165640928e-06
6.317812156e-11
-4.198712564e-12
9.165619881e-06
2.998394168e-11
-5.277315281e-12
9.165597809e-06
3.159518637e-11
-6.145678426e-12
9.16558046e-06
3.01816847e-11
-6.803316654e-12
9.165567624e-06
2.314765221e-11
-7.161835486e-12
9.165557946e-06
1.841868995e-11
-4.6506235e-12
9.165548426e-06
1.45570239e-11
-3.059767284e-12
9.165541268e-06
1.217299114e-11
-2.835002163e-12
9.165532867e-06
9.799558821e-12
-2.419632885e-12
9.165531598e-06
8.519375342e-12
-8.805057081e-13
9.165526259e-06
6.223239039e-12
-2.298524984e-12
9.165527015e-06
8.443452348e-12
-2.557938381e-12
9.165523424e-06
6.560355998e-12
-1.670063029e-12
6.328247755e-12
-8.931772649e-13
9.16577461e-06
-6.711316997e-10
8.257148285e-11
9.165587525e-06
3.116109633e-10
-3.080900702e-11
9.165525972e-06
1.145741179e-10
-1.24288156e-11
9.165494999e-06
8.661013723e-11
-1.109439561e-11
9.16547053e-06
6.78289106e-11
-1.199337427e-11
9.165461058e-06
4.946897667e-11
-8.284176975e-12
9.165454818e-06
3.740864563e-11
-7.031026725e-12
9.165452995e-06
2.714093374e-11
-6.232854034e-12
9.165452911e-06
2.188905386e-11
-5.380142595e-12
9.165451703e-06
1.849612596e-11
-3.805048449e-12
9.165451747e-06
1.332058385e-11
-9.696667051e-13
9.165453707e-06
1.167020176e-11
-1.002735028e-12
9.165454431e-06
9.071243693e-12
-2.454536236e-12
9.165457526e-06
1.073592731e-11
-1.732588375e-12
9.088962647e-12
-1.850733031e-12
9.166261789e-06
-1.808058231e-09
2.504669755e-10
9.165631955e-06
1.182478893e-09
-1.20155109e-10
9.165431004e-06
4.147736752e-10
-5.084355555e-11
9.165385184e-06
2.18114391e-10
-4.090535107e-11
9.16538149e-06
1.327268662e-10
-2.938227262e-11
9.165394122e-06
7.644107046e-11
-1.909176755e-11
9.165412625e-06
4.733752837e-11
-1.356577053e-11
9.165430704e-06
3.175310889e-11
-8.803469878e-12
9.165443132e-06
2.097202854e-11
-8.188890585e-12
9.165452746e-06
1.472374691e-11
-6.092790116e-12
9.165465229e-06
1.263082028e-11
-2.329307884e-12
9.165474378e-06
1.051263895e-11
-1.722061712e-12
9.165482128e-06
9.051259485e-12
-1.588969122e-12
9.165490537e-06
9.03117735e-12
-2.104869884e-12
6.479000787e-12
-2.843491462e-12
9.166276496e-06
3.763748239e-10
9.164902582e-06
3.401987501e-09
-4.265420121e-10
9.164963111e-06
3.700299337e-10
-8.295664978e-12
9.165093899e-06
1.749154381e-10
-4.283244153e-11
9.16519172e-06
1.127240935e-10
-4.094130788e-11
9.165264258e-06
5.445519887e-11
-2.727404814e-11
9.165318343e-06
2.86625979e-11
-1.762763551e-11
9.165359679e-06
1.682664027e-11
-1.280785279e-11
9.165389987e-06
1.062317966e-11
-7.576686859e-12
9.165413182e-06
8.695919134e-12
-4.964491233e-12
9.165429443e-06
6.27580596e-12
-3.060436435e-12
9.165444492e-06
5.029909052e-12
-2.855482052e-12
9.165458316e-06
5.569954545e-12
-2.684483976e-12
9.165471053e-06
4.700284145e-12
-3.094600638e-12
1.73855701e-12
-2.641558018e-12
9.181376096e-06
-3.401441808e-09
-3.402992018e-09
9.182879424e-06
-3.691790496e-10
-3.697114808e-10
9.183594095e-06
-1.743678364e-10
-1.756998005e-10
9.184064528e-06
-1.135788917e-10
-1.141336942e-10
9.184303412e-06
-5.575739073e-11
-5.657482463e-11
9.184436322e-06
-2.93186121e-11
-3.010347193e-11
9.184522867e-06
-1.737083678e-11
-1.688716088e-11
9.184581758e-06
-1.156553154e-11
-9.94278497e-12
9.184627097e-06
-7.165905374e-12
-7.23003398e-12
9.184663186e-06
-5.360535682e-12
-6.502473445e-12
9.184694084e-06
-2.807901246e-12
-4.74288127e-12
9.184721e-06
-3.673403875e-12
-4.586260329e-12
9.18474877e-06
-3.502460729e-12
-3.634163134e-12
-1.125225859e-12
-2.329843937e-12
9.164922075e-06
-1.180493611e-09
-4.243128437e-10
9.164984865e-06
-4.135776903e-10
-7.92078136e-12
9.16511361e-06
-2.159084244e-10
-4.242245955e-11
9.165213698e-06
-1.309378798e-10
-3.996234869e-11
9.165287839e-06
-7.51640488e-11
-2.602519374e-11
9.165340877e-06
-4.813489982e-11
-1.856892672e-11
9.165382398e-06
-3.197775344e-11
-1.203215996e-11
9.165417183e-06
-2.194821816e-11
-7.820270556e-12
9.165437004e-06
-1.560344985e-11
-7.516787167e-12
9.165455977e-06
-1.199298122e-11
-6.654472876e-12
9.165469568e-06
-9.541327451e-12
-6.693722486e-12
9.165481852e-06
-8.420440706e-12
-4.89795476e-12
9.16549502e-06
-8.843682686e-12
-3.788513001e-12
-6.743148244e-12
-3.881360618e-12
9.165654162e-06
-3.113283575e-10
-1.19711149e-10
9.165456099e-06
-1.152916068e-10
-5.132608983e-11
9.165407229e-06
-8.948077527e-11
-4.133966037e-11
9.165404424e-06
-7.011287554e-11
-3.138748783e-11
9.165420665e-06
-4.975426414e-11
-2.08477371e-11
9.165438902e-06
-3.760972286e-11
-1.433580346e-11
9.165454439e-06
-2.87869673e-11
-9.792316455e-12
9.165470142e-06
-2.205736008e-11
-6.222437426e-12
9.16547935e-06
-1.890327156e-11
-7.68903195e-12
9.165491393e-06
-1.547755655e-11
-5.414439628e-12
9.165498615e-06
-1.24671949e-11
-4.360436108e-12
9.165507495e-06
-8.697757497e-12
-3.09328393e-12
9.165514898e-06
-7.9126177e-12
-3.041379473e-12
-7.782197922e-12
-3.372464113e-12
9.165679281e-06
-6.277991108e-11
-3.089105742e-11
9.165619344e-06
-2.974207638e-11
-1.207959708e-11
9.165588069e-06
-3.137277283e-11
-1.080242109e-11
9.165565141e-06
-2.938111969e-11
-1.121607855e-11
9.165554032e-06
-2.355050125e-11
-9.963020053e-12
9.165549414e-06
-1.753023952e-11
-7.093373858e-12
9.165545348e-06
-1.525486226e-11
-5.225556958e-12
9.165546852e-06
-1.269643728e-11
-4.876848851e-12
9.165545624e-06
-1.118420117e-11
-4.702511932e-12
9.165548734e-06
-8.073060117e-12
-3.280247854e-12
9.165547739e-06
-7.712208355e-12
-3.499127206e-12
9.165549048e-06
-6.331168433e-12
-3.008688181e-12
9.165548706e-06
-7.55245511e-12
-3.145261636e-12
-5.175303064e-12
-1.856860555e-12
9.165638666e-06
-4.733186863e-12
9.165617321e-06
-4.641166918e-12
9.165595937e-06
-7.467354599e-12
9.165578135e-06
-7.407049249e-12
9.16556799e-06
-6.092175341e-12
9.165555219e-06
-3.851229395e-12
9.165547601e-06
-2.814650974e-12
9.165542218e-06
-3.167642325e-12
9.165537186e-06
-2.903749514e-12
9.165531439e-06
-3.743110915e-12
9.165529239e-06
-2.522038462e-12
9.165525571e-06
-1.987517227e-12
9.165523798e-06
-7.883642899e-13
-1.009195842e-12
9.165592254e-06
-9.242892215e-11
4.8321235e-11
9.165575873e-06
1.345661672e-11