/*--------------------------------*- C++ -*----------------------------------*\
| =========                 |                                                 |
| \\      /  F ield         | OpenFOAM: The Open Source CFD Toolbox           |
|  \\    /   O peration     | Version:  4.x                                   |
|   \\  /    A nd           | Web:      www.OpenFOAM.org                      |
|    \\/     M anipulation  |                                                 |
\*---------------------------------------------------------------------------*/
FoamFile
{
    version     2.0;
    format      ascii;
    class       volScalarField;
    location    "11000";
    object      rho;
}
// * * * * * * * * * * * * * * * * * * * * * * * * * * * * * * * * * * * * * //

dimensions      [1 -3 0 0 0 0 0];

internalField   nonuniform List<scalar> 
1174
(
0.2699631492
0.269963274
0.2699634973
0.2699637413
0.2699640213
0.2699643644
0.2699647261
0.2699651066
0.2699655106
0.2699659148
0.2699662992
0.2699666353
0.2699670018
0.2699672726
0.269962783
0.2699629474
0.2699631995
0.2699635142
0.2699638979
0.2699642943
0.2699647024
0.2699651698
0.2699656049
0.2699660228
0.2699664073
0.2699667962
0.2699671522
0.2699674164
0.269964608
0.2699649882
0.2699654164
0.2699658847
0.2699664079
0.2699669358
0.2699674573
0.2699679136
0.2699683332
0.2699687085
0.2699691217
0.2699694378
0.269969693
0.2699698942
0.2699649045
0.269965416
0.2699660541
0.2699666892
0.2699673625
0.2699679625
0.2699685255
0.269969024
0.2699694706
0.2699698881
0.269970183
0.2699704598
0.2699706946
0.2699708826
0.2699643893
0.269965042
0.2699657106
0.2699664121
0.2699670564
0.2699676645
0.2699682147
0.2699686903
0.2699690876
0.2699694005
0.2699696904
0.2699699295
0.2699701538
0.2699702863
0.2699645585
0.2699651014
0.2699657279
0.2699664133
0.2699670343
0.269967639
0.2699681888
0.2699686627
0.2699690908
0.2699694724
0.2699697736
0.2699700351
0.2699702855
0.269970442
0.2699634286
0.2699637771
0.2699642157
0.2699647252
0.2699652411
0.2699657609
0.2699662264
0.2699667174
0.2699671672
0.2699675831
0.2699679166
0.2699682576
0.2699685283
0.2699687598
0.2699635341
0.2699637442
0.2699640514
0.2699643758
0.2699647273
0.2699651464
0.2699655629
0.2699660092
0.2699664386
0.2699668335
0.2699672335
0.2699676204
0.2699679429
0.2699682536
0.2699634292
0.2699635515
0.2699637378
0.2699639695
0.2699642566
0.2699645686
0.2699649403
0.2699653379
0.2699657725
0.2699661488
0.2699665401
0.2699668986
0.2699672737
0.2699675266
0.2699628147
0.2699629875
0.2699631948
0.2699634421
0.2699637749
0.2699641729
0.2699645864
0.2699650112
0.2699654094
0.2699658289
0.2699662554
0.2699666468
0.2699670122
0.2699673734
0.2699676383
0.2699635922
0.2699639312
0.2699643259
0.269964813
0.269965301
0.2699658145
0.2699662762
0.2699667478
0.26996719
0.2699675919
0.2699679979
0.2699683101
0.2699686036
0.2699688269
0.2699648093
0.2699654902
0.2699662073
0.2699669182
0.2699675788
0.2699681903
0.2699687125
0.2699691511
0.2699695064
0.2699697829
0.2699700108
0.2699701969
0.2699703558
0.2699705115
0.2699657073
0.2699668331
0.2699678912
0.2699688078
0.2699695243
0.269970104
0.2699705061
0.2699708105
0.2699710522
0.2699712012
0.269971329
0.2699713915
0.2699714534
0.2699714953
0.2699644955
0.2699658167
0.2699668665
0.2699676786
0.269968347
0.2699688133
0.269969116
0.2699693363
0.2699694626
0.2699695567
0.2699695977
0.2699695902
0.2699696065
0.2699696215
0.2699638334
0.2699649443
0.2699659966
0.2699668868
0.2699675839
0.2699681223
0.2699685358
0.2699688613
0.2699691112
0.2699693151
0.2699694499
0.2699695528
0.2699695926
0.2699695817
0.2699639717
0.2699646734
0.2699653844
0.2699660742
0.2699667404
0.2699673504
0.2699678745
0.2699683108
0.2699687017
0.2699690001
0.2699692369
0.2699694662
0.2699696263
0.2699697857
0.2699639131
0.2699642606
0.2699646902
0.2699651417
0.2699656576
0.269966157
0.2699666564
0.269967116
0.2699674673
0.2699678428
0.2699682087
0.269968515
0.2699687841
0.2699690231
0.2699624299
0.2699626342
0.2699629363
0.2699632791
0.2699636602
0.269964052
0.2699644849
0.2699649118
0.2699653261
0.2699657202
0.2699661084
0.2699664764
0.2699668085
0.2699670467
0.2699642768
0.2699645336
0.269964882
0.2699653153
0.2699657908
0.2699662626
0.2699667606
0.2699672637
0.2699677983
0.2699682328
0.2699686255
0.2699690444
0.26996938
0.2699696722
0.2699698845
0.2699647177
0.269965263
0.2699659391
0.2699666823
0.2699673908
0.2699680301
0.2699685925
0.2699691272
0.2699695594
0.2699699437
0.2699702717
0.2699705177
0.2699706701
0.2699708258
0.2699709833
0.2699651512
0.2699665189
0.2699677539
0.2699687603
0.2699695142
0.2699700569
0.2699704242
0.2699706242
0.2699707544
0.2699708344
0.2699708652
0.269970866
0.2699708037
0.2699707526
0.2699711649
0.2699734213
0.2699749489
0.2699758525
0.2699762649
0.2699762625
0.2699761103
0.2699758213
0.269975481
0.2699751633
0.2699748094
0.2699744923
0.26997418
0.2699739789
0.2699750003
0.2699772096
0.2699780802
0.2699781914
0.2699778261
0.269977266
0.2699766452
0.2699760162
0.2699754137
0.2699748299
0.2699742781
0.2699737873
0.2699734246
0.2699730763
0.269972003
0.269974324
0.2699758753
0.2699767594
0.2699771294
0.2699771653
0.2699769658
0.2699766819
0.2699763435
0.2699759551
0.2699756406
0.2699752954
0.2699750154
0.2699748006
0.2699684609
0.2699698002
0.2699710338
0.2699720122
0.2699727298
0.2699732681
0.2699735973
0.2699738256
0.2699739624
0.2699739728
0.2699739639
0.2699739716
0.2699738986
0.2699738744
0.2699632459
0.2699638892
0.2699645905
0.2699653201
0.2699659741
0.2699665862
0.269967149
0.2699675744
0.269967936
0.2699682767
0.2699685238
0.2699686965
0.2699688565
0.2699689912
0.2699630341
0.2699633898
0.2699638712
0.2699643482
0.2699648555
0.269965388
0.2699659119
0.2699663917
0.2699668493
0.2699672704
0.2699676379
0.2699679626
0.2699682607
0.269968514
0.2699649675
0.2699653671
0.2699659031
0.2699664817
0.2699671793
0.269967852
0.2699684434
0.2699690178
0.2699695094
0.269969968
0.2699703417
0.269970641
0.2699708897
0.2699710901
0.2699712589
0.2699627506
0.2699637424
0.2699648427
0.2699658712
0.2699667213
0.2699674147
0.2699679728
0.2699684337
0.2699687362
0.269968974
0.2699691218
0.2699692743
0.269969382
0.2699694153
0.2699694212
0.2699658942
0.26996876
0.2699710193
0.269972545
0.2699734363
0.2699738407
0.269973915
0.2699737279
0.2699734929
0.2699731512
0.2699728268
0.2699724568
0.2699721127
0.2699718165
0.2699716376
0.2699827832
0.2699855142
0.2699858258
0.2699848859
0.269983421
0.2699817942
0.2699802219
0.269978781
0.2699775229
0.2699764127
0.2699754154
0.2699746261
0.2699739146
0.2699734261
0.2700110508
0.2700071476
0.2700014487
0.269996106
0.269991573
0.2699879308
0.2699850292
0.2699826593
0.2699807429
0.2699791934
0.2699779403
0.2699769327
0.2699760683
0.2699754358
0.2699851631
0.2699879394
0.269988258
0.2699873146
0.2699858225
0.2699842041
0.2699825915
0.2699811499
0.2699798624
0.2699788071
0.2699778198
0.2699770146
0.2699763345
0.26997585
0.269970022
0.2699723213
0.2699738703
0.2699747172
0.2699750955
0.2699751481
0.2699750167
0.2699747274
0.2699744024
0.2699740453
0.2699736936
0.2699733506
0.2699730874
0.2699728992
0.2699661944
0.2699672929
0.2699683434
0.2699692172
0.2699699944
0.2699705598
0.2699709879
0.2699713276
0.2699715642
0.269971696
0.2699718457
0.269971918
0.269972002
0.2699720203
0.2699635815
0.2699641307
0.2699647829
0.269965401
0.2699660657
0.2699666466
0.2699671664
0.2699676389
0.269968026
0.2699684072
0.2699687275
0.269969018
0.269969245
0.2699694311
0.2699637743
0.2699643122
0.2699649706
0.2699656754
0.2699663888
0.2699671077
0.2699677051
0.2699682839
0.2699687551
0.2699691455
0.269969496
0.2699697653
0.2699700268
0.2699702615
0.2699704421
0.2699635144
0.2699649214
0.2699662687
0.2699673753
0.2699682697
0.2699688663
0.2699693461
0.2699696932
0.2699699221
0.269970036
0.2699701328
0.2699701693
0.2699701915
0.2699701908
0.2699702343
0.269971845
0.2699758744
0.2699780982
0.2699790052
0.2699790985
0.269978781
0.2699782669
0.2699775684
0.2699769185
0.2699762843
0.2699757189
0.2699751581
0.2699746854
0.2699742485
0.2699739255
0.2700073662
0.2700119446
0.2700080397
0.2700023076
0.2699969131
0.269992372
0.2699887052
0.2699857585
0.2699834046
0.2699814854
0.2699799292
0.2699786271
0.2699775125
0.2699766186
0.2699759878
0.270691738
0.27063158
0.2705987757
0.270579863
0.2705683905
0.2705610347
0.27055616
0.2705527669
0.2705503379
0.2705485234
0.2705471539
0.2705462084
0.270545496
0.270545137
0.2700125069
0.2700086069
0.270002901
0.2699975374
0.2699929979
0.2699893726
0.2699864476
0.2699840597
0.2699822219
0.2699806141
0.2699793063
0.2699782226
0.269977331
0.2699767483
0.2699766382
0.2699788694
0.26997979
0.2699798632
0.2699795053
0.2699789508
0.2699783243
0.2699776516
0.2699770078
0.2699764325
0.2699759493
0.2699754846
0.2699750767
0.2699747521
0.2699677477
0.2699690562
0.2699701509
0.2699710171
0.2699716402
0.2699721003
0.269972395
0.2699726354
0.2699728224
0.2699728974
0.2699729406
0.269973005
0.2699729992
0.2699729772
0.2699643272
0.2699649653
0.2699656622
0.2699663341
0.2699670572
0.2699676674
0.2699682339
0.2699687331
0.2699691229
0.2699694745
0.2699697583
0.2699700432
0.2699702081
0.2699703314
0.2699626584
0.2699630842
0.2699636167
0.2699642636
0.2699648433
0.2699655336
0.2699661379
0.269966654
0.2699671458
0.2699675804
0.2699679463
0.2699682516
0.2699685416
0.2699687721
0.2699689341
0.2699642748
0.269965265
0.2699663745
0.2699673688
0.2699682491
0.2699689619
0.2699695209
0.2699699611
0.2699703121
0.2699705546
0.2699707392
0.2699708346
0.2699708964
0.2699709398
0.2699709744
0.2699672813
0.2699701538
0.2699724518
0.2699739871
0.2699748767
0.269975303
0.2699753681
0.2699752201
0.269975021
0.2699746969
0.2699743365
0.2699739847
0.2699736597
0.269973384
0.2699731455
0.2699784412
0.269984866
0.2699876376
0.2699879989
0.269987092
0.2699855805
0.2699839181
0.2699822999
0.2699808562
0.2699795807
0.2699784601
0.2699775034
0.2699766727
0.2699759793
0.2699755278
0.2700063562
0.2700109152
0.2700070145
0.2700012787
0.2699959038
0.2699913861
0.2699877004
0.269984776
0.269982389
0.2699804715
0.269978905
0.2699776598
0.2699765881
0.2699757173
0.2699750931
0.2699767838
0.2699831805
0.2699859194
0.2699862733
0.2699853452
0.2699838541
0.2699822378
0.2699806767
0.2699792861
0.2699779859
0.2699768726
0.2699759067
0.2699751332
0.2699744213
0.2699739004
0.2699707894
0.2699730217
0.269974548
0.2699753804
0.269975782
0.2699758271
0.2699756519
0.2699753873
0.2699750221
0.2699746789
0.2699743064
0.2699739622
0.2699737093
0.2699735473
0.2699664901
0.2699675688
0.2699685893
0.2699695068
0.2699701832
0.269970734
0.2699711767
0.2699714735
0.2699717086
0.2699718743
0.2699720111
0.269972069
0.2699721209
0.2699721404
0.2699634514
0.2699640269
0.2699646517
0.2699653399
0.2699659896
0.2699665663
0.2699670919
0.2699675929
0.2699680487
0.269968391
0.2699686921
0.2699689587
0.2699692229
0.2699693828
0.2699640565
0.2699642817
0.2699646118
0.2699650337
0.2699654903
0.2699659906
0.2699664846
0.2699670049
0.2699675417
0.2699679549
0.2699683686
0.2699687348
0.269969048
0.2699693135
0.269969543
0.2699635589
0.2699641017
0.2699647678
0.2699654784
0.2699662162
0.2699668792
0.2699674714
0.2699679736
0.2699683965
0.2699687723
0.269969068
0.2699693081
0.2699695426
0.2699697172
0.2699697866
0.2699660851
0.2699673959
0.2699687888
0.2699700057
0.2699709505
0.2699716942
0.2699722222
0.2699725741
0.269972761
0.2699728742
0.2699729408
0.2699729341
0.2699728782
0.2699728452
0.2699728289
0.2699687321
0.2699715673
0.2699738611
0.2699754564
0.2699762847
0.2699766554
0.2699766999
0.269976551
0.2699762829
0.2699759337
0.2699755895
0.2699752915
0.2699749799
0.2699747305
0.2699745216
0.2699700462
0.2699740812
0.2699762922
0.2699771765
0.2699773283
0.269976976
0.2699763913
0.2699757222
0.2699750571
0.2699743858
0.2699738128
0.2699733118
0.2699727784
0.2699723479
0.2699720571
0.2699674618
0.2699703574
0.2699726394
0.2699741437
0.2699750013
0.269975378
0.2699754497
0.2699753117
0.2699750596
0.2699747507
0.2699743533
0.2699739916
0.2699736703
0.2699733551
0.2699731363
0.2699641173
0.2699654625
0.2699668453
0.2699681061
0.269969108
0.26996985
0.2699703667
0.2699707512
0.2699709519
0.2699710318
0.2699711153
0.2699711231
0.2699711227
0.2699710903
0.2699710402
0.269963854
0.2699645268
0.2699652892
0.2699659795
0.2699666514
0.2699672517
0.2699677837
0.2699682198
0.2699685816
0.269968873
0.2699691214
0.2699693176
0.2699695326
0.2699696654
0.2699644206
0.2699647414
0.2699651361
0.2699656436
0.2699661558
0.2699666352
0.2699671386
0.2699676072
0.2699680881
0.2699685177
0.269968862
0.2699692048
0.2699694437
0.2699696371
0.2699640432
0.2699641908
0.2699644364
0.2699647074
0.2699650567
0.2699653989
0.2699658376
0.2699662686
0.2699666852
0.2699671203
0.2699675248
0.2699679212
0.2699683215
0.2699686169
0.2699688618
0.2699640432
0.2699642672
0.2699646181
0.2699650557
0.2699655354
0.2699660127
0.2699664593
0.2699669838
0.2699673929
0.2699678226
0.2699681954
0.2699685543
0.2699688234
0.2699691108
0.2699693387
0.2699623835
0.2699629333
0.2699636327
0.269964348
0.2699650287
0.2699657211
0.2699662941
0.2699668168
0.2699672733
0.2699676489
0.2699679575
0.2699682146
0.2699684391
0.2699685773
0.2699687465
0.2699640694
0.269965049
0.2699661338
0.2699671327
0.2699680262
0.26996875
0.2699693119
0.2699697621
0.2699700803
0.2699703095
0.269970461
0.269970574
0.2699706756
0.2699706823
0.2699707071
0.2699648287
0.2699662361
0.2699675278
0.2699686612
0.2699695064
0.2699701417
0.2699705987
0.2699709292
0.2699711406
0.2699712816
0.2699713659
0.2699714329
0.2699714522
0.2699714284
0.2699714139
0.2699634945
0.2699645115
0.2699655887
0.2699665968
0.2699675097
0.2699682511
0.2699688149
0.2699692564
0.2699695487
0.2699697522
0.2699699197
0.2699700531
0.2699700743
0.2699701193
0.2699701266
0.2699648936
0.2699654152
0.2699660705
0.269966792
0.2699674731
0.2699681187
0.2699686913
0.26996922
0.2699696491
0.2699700457
0.2699703591
0.2699706218
0.2699708463
0.2699710199
0.26997111
0.2699635671
0.2699638379
0.269964212
0.2699646455
0.2699651394
0.2699656601
0.2699661445
0.2699666114
0.269967102
0.2699675083
0.2699679019
0.2699682319
0.2699685478
0.2699688015
0.2699690144
0.2699625258
0.2699627524
0.2699630074
0.269963316
0.2699636962
0.2699641324
0.2699645246
0.2699649431
0.2699654084
0.2699658176
0.2699662384
0.2699666074
0.2699669356
0.2699672025
0.269963564
0.2699636283
0.2699637518
0.2699639462
0.2699641681
0.2699644766
0.269964798
0.2699651451
0.2699655268
0.2699659382
0.2699663181
0.2699667479
0.2699671204
0.2699674755
0.2699677431
0.2699629024
0.2699630373
0.2699632451
0.2699635197
0.269963844
0.2699642316
0.2699646384
0.26996506
0.2699654873
0.2699658845
0.269966278
0.2699666781
0.2699670366
0.2699673781
0.269967653
0.2699635216
0.269963788
0.2699641517
0.269964589
0.2699650948
0.2699656025
0.2699661319
0.2699666281
0.2699671313
0.2699675733
0.2699679988
0.2699683853
0.2699686969
0.2699690145
0.2699692623
0.2699632472
0.2699636772
0.2699642436
0.2699648462
0.2699655215
0.26996618
0.2699668328
0.2699674262
0.269967922
0.2699683599
0.2699687445
0.2699690446
0.2699693033
0.2699695325
0.2699697316
0.2699636795
0.2699641902
0.2699648749
0.2699655506
0.269966264
0.2699669527
0.2699675412
0.2699680813
0.2699685508
0.2699689836
0.2699693387
0.2699696405
0.2699698731
0.2699700578
0.269970178
0.2699641596
0.2699645757
0.2699651165
0.2699657556
0.2699663751
0.2699669792
0.269967593
0.2699681821
0.2699686804
0.2699691176
0.2699694884
0.2699698269
0.269970159
0.2699703659
0.2699705191
0.2699653162
0.2699655917
0.2699659712
0.2699663995
0.2699668786
0.2699674299
0.2699679608
0.2699684961
0.269968987
0.2699694358
0.2699698399
0.2699702047
0.2699705917
0.2699708635
0.2699710656
0.2699633553
0.2699635055
0.2699636906
0.2699639576
0.2699642703
0.269964684
0.2699650525
0.2699654802
0.2699658939
0.2699663278
0.2699667598
0.2699671486
0.2699675431
0.2699678702
0.2699680962
0.2699630933
0.2699631592
0.2699633
0.2699635077
0.2699637433
0.269964026
0.2699643538
0.2699646952
0.2699650899
0.2699654814
0.2699658786
0.2699662901
0.269966701
0.2699670542
0.2699673488
)
;

boundaryField
{
    top
    {
        type            calculated;
        value           nonuniform List<scalar> 
127
(
0.2699630933
0.2699634292
0.2699624299
0.2699630341
0.2699635815
0.2699643272
0.2699634514
0.2699644206
0.2699625258
0.2699631592
0.2699635515
0.2699626342
0.2699633898
0.2699641307
0.2699649653
0.2699640269
0.2699647414
0.2699627524
0.2699633
0.2699637378
0.2699629363
0.2699638712
0.2699647829
0.2699656622
0.2699646517
0.2699651361
0.2699630074
0.2699635077
0.2699639695
0.2699632791
0.2699643482
0.269965401
0.2699663341
0.2699653399
0.2699656436
0.269963316
0.2699637433
0.2699642566
0.2699636602
0.2699648555
0.2699660657
0.2699670572
0.2699659896
0.2699661558
0.2699636962
0.269964026
0.2699645686
0.269964052
0.269965388
0.2699666466
0.2699676674
0.2699665663
0.2699666352
0.2699641324
0.2699643538
0.2699649403
0.2699644849
0.2699659119
0.2699671664
0.2699682339
0.2699670919
0.2699671386
0.2699645246
0.2699646952
0.2699653379
0.2699649118
0.2699663917
0.2699676389
0.2699687331
0.2699675929
0.2699676072
0.2699649431
0.2699650899
0.2699657725
0.2699653261
0.2699668493
0.269968026
0.2699691229
0.2699680487
0.2699680881
0.2699654084
0.2699654814
0.2699661488
0.2699657202
0.2699672704
0.2699684072
0.2699694745
0.269968391
0.2699685177
0.2699658176
0.2699658786
0.2699665401
0.2699661084
0.2699676379
0.2699687275
0.2699697583
0.2699686921
0.269968862
0.2699662384
0.2699662901
0.2699668986
0.2699664764
0.2699679626
0.269969018
0.2699700432
0.2699689587
0.2699692048
0.2699666074
0.269966701
0.2699672737
0.2699668085
0.2699682607
0.269969245
0.2699702081
0.2699692229
0.2699694437
0.2699669356
0.2699670542
0.2699675266
0.2699670467
0.269968514
0.2699694311
0.2699703314
0.2699693828
0.2699696371
0.2699672025
0.2699673488
)
;
    }
    bottom
    {
        type            calculated;
        value           nonuniform List<scalar> 
134
(
0.2699628147
0.2699642768
0.2699649675
0.2699637743
0.2699626584
0.2699640565
0.2699640432
0.269963564
0.2699631492
0.2699629875
0.2699645336
0.2699653671
0.2699643122
0.2699630842
0.2699642817
0.2699641908
0.2699636283
0.269963274
0.2699631948
0.269964882
0.2699659031
0.2699649706
0.2699636167
0.2699646118
0.2699644364
0.2699637518
0.2699634973
0.2699634421
0.2699653153
0.2699664817
0.2699656754
0.2699642636
0.2699650337
0.2699647074
0.2699639462
0.2699637413
0.2699637749
0.2699657908
0.2699671793
0.2699663888
0.2699648433
0.2699654903
0.2699650567
0.2699641681
0.2699640213
0.2699641729
0.2699662626
0.269967852
0.2699671077
0.2699655336
0.2699659906
0.2699653989
0.2699644766
0.2699643644
0.2699645864
0.2699667606
0.2699684434
0.2699677051
0.2699661379
0.2699664846
0.2699658376
0.269964798
0.2699647261
0.2699650112
0.2699672637
0.2699690178
0.2699682839
0.269966654
0.2699670049
0.2699662686
0.2699651451
0.2699651066
0.2699654094
0.2699677983
0.2699695094
0.2699687551
0.2699671458
0.2699675417
0.2699666852
0.2699655268
0.2699655106
0.2699658289
0.2699682328
0.269969968
0.2699691455
0.2699675804
0.2699679549
0.2699671203
0.2699659382
0.2699659148
0.2699662554
0.2699686255
0.2699703417
0.269969496
0.2699679463
0.2699683686
0.2699675248
0.2699663181
0.2699662992
0.2699666468
0.2699690444
0.269970641
0.2699697653
0.2699682516
0.2699687348
0.2699679212
0.2699667479
0.2699666353
0.2699670122
0.26996938
0.2699708897
0.2699700268
0.2699685416
0.269969048
0.2699683215
0.2699671204
0.2699670018
0.2699673734
0.2699696722
0.2699710901
0.2699702615
0.2699687721
0.2699693135
0.2699686169
0.2699674755
0.2699672726
0.2699676383
0.2699698845
0.2699712589
0.2699704421
0.2699689341
0.269969543
0.2699688618
0.2699677431
)
;
    }
    side-walls
    {
        type            calculated;
        value           nonuniform List<scalar> 
261
(
0.2699631492
0.269962783
0.269964608
0.2699649045
0.2699643893
0.2699645585
0.2699634286
0.2699635341
0.2699634292
0.269963274
0.2699629474
0.2699649882
0.269965416
0.269965042
0.2699651014
0.2699637771
0.2699637442
0.2699635515
0.2699634973
0.2699631995
0.2699654164
0.2699660541
0.2699657106
0.2699657279
0.2699642157
0.2699640514
0.2699637378
0.2699637413
0.2699635142
0.2699658847
0.2699666892
0.2699664121
0.2699664133
0.2699647252
0.2699643758
0.2699639695
0.2699640213
0.2699638979
0.2699664079
0.2699673625
0.2699670564
0.2699670343
0.2699652411
0.2699647273
0.2699642566
0.2699643644
0.2699642943
0.2699669358
0.2699679625
0.2699676645
0.269967639
0.2699657609
0.2699651464
0.2699645686
0.2699647261
0.2699647024
0.2699674573
0.2699685255
0.2699682147
0.2699681888
0.2699662264
0.2699655629
0.2699649403
0.2699651066
0.2699651698
0.2699679136
0.269969024
0.2699686903
0.2699686627
0.2699667174
0.2699660092
0.2699653379
0.2699655106
0.2699656049
0.2699683332
0.2699694706
0.2699690876
0.2699690908
0.2699671672
0.2699664386
0.2699657725
0.2699659148
0.2699660228
0.2699687085
0.2699698881
0.2699694005
0.2699694724
0.2699675831
0.2699668335
0.2699661488
0.2699662992
0.2699664073
0.2699691217
0.269970183
0.2699696904
0.2699697736
0.2699679166
0.2699672335
0.2699665401
0.2699666353
0.2699667962
0.2699694378
0.2699704598
0.2699699295
0.2699700351
0.2699682576
0.2699676204
0.2699668986
0.2699670018
0.2699671522
0.269969693
0.2699706946
0.2699701538
0.2699702855
0.2699685283
0.2699679429
0.2699672737
0.2699672726
0.2699674164
0.2699698942
0.2699708826
0.2699702863
0.269970442
0.2699687598
0.2699682536
0.2699675266
0.269963564
0.2699629024
0.2699635216
0.2699632472
0.2699636795
0.2699641596
0.2699653162
0.2699633553
0.2699630933
0.2699636283
0.2699630373
0.269963788
0.2699636772
0.2699641902
0.2699645757
0.2699655917
0.2699635055
0.2699631592
0.2699637518
0.2699632451
0.2699641517
0.2699642436
0.2699648749
0.2699651165
0.2699659712
0.2699636906
0.2699633
0.2699639462
0.2699635197
0.269964589
0.2699648462
0.2699655506
0.2699657556
0.2699663995
0.2699639576
0.2699635077
0.2699641681
0.269963844
0.2699650948
0.2699655215
0.269966264
0.2699663751
0.2699668786
0.2699642703
0.2699637433
0.2699644766
0.2699642316
0.2699656025
0.26996618
0.2699669527
0.2699669792
0.2699674299
0.269964684
0.269964026
0.269964798
0.2699646384
0.2699661319
0.2699668328
0.2699675412
0.269967593
0.2699679608
0.2699650525
0.2699643538
0.2699651451
0.26996506
0.2699666281
0.2699674262
0.2699680813
0.2699681821
0.2699684961
0.2699654802
0.2699646952
0.2699655268
0.2699654873
0.2699671313
0.269967922
0.2699685508
0.2699686804
0.269968987
0.2699658939
0.2699650899
0.2699659382
0.2699658845
0.2699675733
0.2699683599
0.2699689836
0.2699691176
0.2699694358
0.2699663278
0.2699654814
0.2699663181
0.269966278
0.2699679988
0.2699687445
0.2699693387
0.2699694884
0.2699698399
0.2699667598
0.2699658786
0.2699667479
0.2699666781
0.2699683853
0.2699690446
0.2699696405
0.2699698269
0.2699702047
0.2699671486
0.2699662901
0.2699671204
0.2699670366
0.2699686969
0.2699693033
0.2699698731
0.269970159
0.2699705917
0.2699675431
0.269966701
0.2699674755
0.2699673781
0.2699690145
0.2699695325
0.2699700578
0.2699703659
0.2699708635
0.2699678702
0.2699670542
0.2699677431
0.269967653
0.2699692623
0.2699697316
0.269970178
0.2699705191
0.2699710656
0.2699680962
0.2699673488
)
;
    }
    inlet
    {
        type            calculated;
        value           nonuniform 0();
    }
    outlet
    {
        type            calculated;
        value           nonuniform List<scalar> 
81
(
0.2699672726
0.2699674164
0.2699698942
0.2699708826
0.2699702863
0.269970442
0.2699687598
0.2699682536
0.2699675266
0.2699676383
0.2699688269
0.2699705115
0.2699714953
0.2699696215
0.2699695817
0.2699697857
0.2699690231
0.2699670467
0.2699698845
0.2699709833
0.2699707526
0.2699739789
0.2699730763
0.2699748006
0.2699738744
0.2699689912
0.269968514
0.2699712589
0.2699694212
0.2699716376
0.2699734261
0.2699754358
0.26997585
0.2699728992
0.2699720203
0.2699694311
0.2699704421
0.2699702343
0.2699739255
0.2699759878
0.270545137
0.2699767483
0.2699747521
0.2699729772
0.2699703314
0.2699689341
0.2699709744
0.2699731455
0.2699755278
0.2699750931
0.2699739004
0.2699735473
0.2699721404
0.2699693828
0.269969543
0.2699697866
0.2699728289
0.2699745216
0.2699720571
0.2699731363
0.2699710402
0.2699696654
0.2699696371
0.2699688618
0.2699693387
0.2699687465
0.2699707071
0.2699714139
0.2699701266
0.26997111
0.2699690144
0.2699672025
0.2699677431
0.269967653
0.2699692623
0.2699697316
0.269970178
0.2699705191
0.2699710656
0.2699680962
0.2699673488
)
;
    }
    procBoundary1to0
    {
        type            processor;
        value           nonuniform List<scalar> 
97
(
0.26996305
0.26996305
0.2699626478
0.2699643755
0.2699644539
0.2699638392
0.2699641623
0.26996309
0.2699633761
0.2699633824
0.2699627302
0.2699633558
0.2699633558
0.2699633558
0.2699642734
0.2699647405
0.2699631073
0.2699628223
0.2699634021
0.269963663
0.2699622761
0.2699641251
0.2699643114
0.2699637812
0.2699637812
0.2699637812
0.2699682585
0.2699709387
0.2699691379
0.2699670882
0.2699627048
0.2699628598
0.2699646378
0.2699619729
0.2699632624
0.2699763474
0.2699763474
0.2699763474
0.2700064563
0.2699787521
0.2699671872
0.2699651326
0.2699631525
0.2699634534
0.2699623581
0.2699663384
0.2699750977
0.270808732
0.270808732
0.270808732
0.2700079236
0.2700079236
0.2699725868
0.2699663785
0.2699638056
0.2699623858
0.2699635348
0.2699646445
0.2699687144
0.2699740788
0.2699670464
0.2699679826
0.2699679826
0.2699679826
0.2699654323
0.2699629972
0.2699639071
0.2699631587
0.2699650499
0.2699661006
0.2699645486
0.2699648316
0.2699631222
0.2699633009
0.2699633009
0.2699633009
0.2699641671
0.2699639542
0.2699638893
0.2699620357
0.2699633062
0.269963617
0.2699627262
0.2699645282
0.2699634363
0.2699623913
0.2699623913
0.2699623913
0.2699635165
0.269962832
0.2699633909
0.2699629526
0.2699632815
0.2699638885
0.2699651937
0.2699632715
0.2699630293
)
;
    }
}


// ************************************************************************* //
