/*--------------------------------*- C++ -*----------------------------------*\
| =========                 |                                                 |
| \\      /  F ield         | OpenFOAM: The Open Source CFD Toolbox           |
|  \\    /   O peration     | Version:  4.x                                   |
|   \\  /    A nd           | Web:      www.OpenFOAM.org                      |
|    \\/     M anipulation  |                                                 |
\*---------------------------------------------------------------------------*/
FoamFile
{
    version     2.0;
    format      ascii;
    class       volScalarField;
    location    "11000";
    object      T;
}
// * * * * * * * * * * * * * * * * * * * * * * * * * * * * * * * * * * * * * //

dimensions      [0 0 0 1 0 0 0];

internalField   nonuniform List<scalar> 
1174
(
1223.151029
1223.151213
1223.15125
1223.151498
1223.151867
1223.152197
1223.152635
1223.153121
1223.153576
1223.154052
1223.154592
1223.155274
1223.155652
1223.156014
1223.153378
1223.153814
1223.154229
1223.154693
1223.155107
1223.155648
1223.156238
1223.156591
1223.157064
1223.157541
1223.158062
1223.158421
1223.158721
1223.15899
1223.146617
1223.146945
1223.147515
1223.148217
1223.148827
1223.149438
1223.149998
1223.150699
1223.151371
1223.152026
1223.152283
1223.152752
1223.15324
1223.153551
1223.147452
1223.148276
1223.148955
1223.149811
1223.15044
1223.1512
1223.151836
1223.15243
1223.152916
1223.153202
1223.153738
1223.154073
1223.154324
1223.154415
1223.151316
1223.15209
1223.153091
1223.153957
1223.154897
1223.15569
1223.156372
1223.156999
1223.157595
1223.158215
1223.158614
1223.158954
1223.159089
1223.159301
1223.14902
1223.149702
1223.150434
1223.151061
1223.151927
1223.152665
1223.153361
1223.154067
1223.154636
1223.155086
1223.155593
1223.155997
1223.156177
1223.156411
1223.15196
1223.152432
1223.152956
1223.15347
1223.154113
1223.154761
1223.155574
1223.156119
1223.156654
1223.157125
1223.157743
1223.158099
1223.158517
1223.15869
1223.149975
1223.150204
1223.150369
1223.150789
1223.15135
1223.151787
1223.15234
1223.152788
1223.153286
1223.153868
1223.154319
1223.154687
1223.155139
1223.155197
1223.14976
1223.149956
1223.15016
1223.150463
1223.150802
1223.151272
1223.151665
1223.152073
1223.15239
1223.152992
1223.153501
1223.154082
1223.154421
1223.154863
1223.152428
1223.152451
1223.152693
1223.153129
1223.153511
1223.153862
1223.154325
1223.154839
1223.155506
1223.156049
1223.156487
1223.156977
1223.157443
1223.157719
1223.157984
1223.151242
1223.151738
1223.152402
1223.152915
1223.153544
1223.154057
1223.154715
1223.155182
1223.155604
1223.156017
1223.156216
1223.156641
1223.156921
1223.157117
1223.14953
1223.150314
1223.151223
1223.152098
1223.152906
1223.153522
1223.154091
1223.154604
1223.1551
1223.155612
1223.156055
1223.156442
1223.156729
1223.156743
1223.152116
1223.153342
1223.154491
1223.155468
1223.156406
1223.157059
1223.157734
1223.158212
1223.158471
1223.158763
1223.15886
1223.159038
1223.159059
1223.159045
1223.163776
1223.165324
1223.166874
1223.168138
1223.168815
1223.169384
1223.169888
1223.170152
1223.170386
1223.17043
1223.170477
1223.170577
1223.170464
1223.170317
1223.160606
1223.1619
1223.163075
1223.164172
1223.165197
1223.166038
1223.166661
1223.167044
1223.167265
1223.167308
1223.167374
1223.167369
1223.16749
1223.167715
1223.153325
1223.154015
1223.154951
1223.155922
1223.156704
1223.157327
1223.157888
1223.158411
1223.158746
1223.159159
1223.159562
1223.159753
1223.160034
1223.160032
1223.149788
1223.150246
1223.150751
1223.151426
1223.151929
1223.152505
1223.152992
1223.153513
1223.154347
1223.15488
1223.155261
1223.155713
1223.156103
1223.156228
1223.154978
1223.155233
1223.155421
1223.155757
1223.156185
1223.156746
1223.157223
1223.15776
1223.158327
1223.158912
1223.159416
1223.15987
1223.160279
1223.160665
1223.146626
1223.146954
1223.147426
1223.147974
1223.148642
1223.149485
1223.150232
1223.150875
1223.151222
1223.151826
1223.152402
1223.152633
1223.153014
1223.153335
1223.153595
1223.146784
1223.147475
1223.14828
1223.149071
1223.149957
1223.150861
1223.1517
1223.152212
1223.152754
1223.153119
1223.153397
1223.153759
1223.154298
1223.154599
1223.154605
1223.159039
1223.160822
1223.162348
1223.16354
1223.164433
1223.165
1223.165328
1223.165631
1223.165689
1223.165586
1223.16545
1223.165293
1223.165342
1223.165353
1223.155995
1223.158954
1223.160924
1223.16191
1223.162269
1223.162584
1223.162387
1223.162138
1223.161795
1223.161243
1223.160881
1223.160464
1223.160217
1223.159867
1223.169772
1223.172569
1223.173838
1223.173932
1223.173654
1223.173015
1223.172155
1223.171255
1223.170381
1223.169676
1223.169129
1223.168629
1223.167918
1223.167748
1223.152197
1223.154864
1223.156727
1223.157801
1223.158352
1223.158494
1223.158511
1223.158239
1223.157887
1223.157655
1223.157115
1223.156825
1223.156432
1223.156144
1223.144043
1223.145954
1223.147487
1223.148806
1223.149864
1223.150451
1223.150952
1223.151127
1223.151154
1223.151366
1223.151411
1223.151223
1223.151321
1223.151209
1223.156614
1223.157568
1223.158549
1223.159339
1223.160176
1223.160789
1223.161175
1223.161747
1223.162215
1223.162436
1223.162792
1223.16324
1223.163522
1223.163631
1223.153748
1223.154187
1223.154516
1223.155178
1223.15586
1223.156451
1223.156999
1223.157595
1223.158094
1223.158541
1223.159006
1223.159436
1223.15973
1223.159804
1223.144715
1223.145356
1223.14607
1223.147018
1223.14759
1223.148222
1223.149021
1223.149605
1223.15023
1223.150662
1223.151147
1223.151663
1223.152125
1223.152531
1223.15271
1223.159618
1223.161019
1223.162361
1223.163643
1223.164921
1223.165964
1223.166715
1223.167124
1223.167611
1223.167886
1223.168184
1223.168169
1223.168142
1223.168293
1223.168442
1223.163495
1223.166891
1223.169837
1223.171816
1223.172857
1223.173252
1223.17322
1223.173181
1223.172687
1223.172351
1223.171829
1223.17154
1223.171245
1223.170925
1223.170474
1223.185164
1223.188591
1223.18907
1223.187885
1223.185945
1223.18392
1223.181969
1223.180231
1223.178621
1223.177287
1223.176312
1223.175182
1223.17447
1223.173828
1223.214975
1223.210139
1223.203039
1223.196199
1223.190618
1223.185963
1223.182132
1223.179213
1223.176828
1223.174797
1223.173009
1223.171389
1223.170257
1223.169515
1223.17438
1223.177603
1223.17805
1223.176881
1223.175065
1223.173002
1223.171234
1223.169499
1223.168022
1223.16644
1223.165419
1223.164361
1223.163507
1223.162847
1223.161173
1223.163938
1223.165811
1223.167053
1223.167567
1223.167634
1223.167342
1223.167094
1223.166682
1223.166308
1223.165937
1223.165637
1223.165167
1223.164759
1223.149909
1223.151259
1223.152442
1223.153613
1223.154276
1223.154994
1223.155551
1223.15587
1223.156151
1223.156521
1223.15652
1223.156653
1223.156574
1223.156667
1223.153446
1223.1541
1223.154715
1223.155647
1223.156316
1223.157162
1223.157994
1223.158705
1223.159461
1223.159912
1223.160332
1223.160606
1223.160892
1223.160992
1223.15102
1223.151666
1223.152413
1223.15325
1223.154063
1223.154665
1223.155506
1223.156059
1223.156705
1223.157333
1223.157782
1223.158275
1223.158513
1223.158601
1223.158595
1223.160178
1223.161846
1223.163276
1223.164569
1223.16546
1223.166462
1223.16697
1223.167273
1223.167498
1223.167787
1223.16782
1223.167887
1223.167853
1223.167816
1223.167541
1223.16072
1223.165812
1223.168543
1223.169646
1223.169823
1223.169328
1223.16848
1223.167972
1223.167167
1223.166436
1223.165649
1223.165142
1223.16456
1223.164185
1223.1639
1223.205394
1223.210927
1223.206098
1223.199148
1223.192543
1223.186999
1223.182454
1223.178828
1223.175837
1223.173464
1223.171463
1223.169897
1223.168762
1223.167764
1223.167014
1220.808911
1220.73329
1220.690857
1220.665465
1220.648979
1220.63766
1220.629088
1220.622436
1220.617001
1220.612565
1220.608785
1220.605063
1220.601911
1220.599046
1223.208378
1223.203528
1223.19646
1223.189715
1223.184164
1223.179431
1223.175707
1223.172869
1223.170127
1223.168361
1223.166821
1223.165545
1223.164536
1223.163569
1223.162351
1223.165049
1223.166091
1223.166358
1223.166047
1223.165382
1223.164547
1223.163846
1223.163159
1223.162416
1223.161558
1223.16094
1223.160433
1223.160156
1223.149041
1223.150647
1223.151993
1223.153012
1223.153894
1223.154491
1223.155032
1223.155205
1223.155163
1223.155295
1223.155332
1223.155106
1223.155093
1223.155114
1223.151598
1223.152437
1223.15331
1223.154311
1223.154894
1223.155677
1223.156285
1223.156805
1223.157435
1223.157879
1223.158307
1223.158439
1223.158844
1223.159097
1223.155178
1223.155699
1223.156429
1223.157068
1223.158174
1223.158726
1223.159467
1223.160315
1223.16094
1223.16148
1223.162
1223.162488
1223.162764
1223.163034
1223.163243
1223.152712
1223.15412
1223.15542
1223.156858
1223.157999
1223.158954
1223.159701
1223.160204
1223.16047
1223.160725
1223.160856
1223.1611
1223.161281
1223.161386
1223.161405
1223.15721
1223.160576
1223.163347
1223.165282
1223.166331
1223.166627
1223.166636
1223.166421
1223.165764
1223.165348
1223.164989
1223.164618
1223.164236
1223.163823
1223.163643
1223.167793
1223.175727
1223.17897
1223.179224
1223.17789
1223.176162
1223.174297
1223.172555
1223.170829
1223.169298
1223.168012
1223.166853
1223.16591
1223.165117
1223.164307
1223.20997
1223.21559
1223.210742
1223.203809
1223.197116
1223.191465
1223.187007
1223.18328
1223.180438
1223.178058
1223.176104
1223.17428
1223.172951
1223.171848
1223.171068
1223.175302
1223.183363
1223.186754
1223.187042
1223.185804
1223.183983
1223.181911
1223.179909
1223.177943
1223.176524
1223.175204
1223.174087
1223.172885
1223.172176
1223.17168
1223.157696
1223.160765
1223.162741
1223.164049
1223.164457
1223.164558
1223.164465
1223.164105
1223.163875
1223.163438
1223.16316
1223.162866
1223.16235
1223.161823
1223.148569
1223.150009
1223.151328
1223.152301
1223.153421
1223.154205
1223.154696
1223.155209
1223.155497
1223.155713
1223.15577
1223.155969
1223.156035
1223.156123
1223.154036
1223.15457
1223.155309
1223.155924
1223.15666
1223.157526
1223.158331
1223.158914
1223.159358
1223.159986
1223.160493
1223.160874
1223.160991
1223.161211
1223.147625
1223.148095
1223.14865
1223.149249
1223.150004
1223.150717
1223.151483
1223.152047
1223.152384
1223.153085
1223.153566
1223.154036
1223.154518
1223.15496
1223.155142
1223.152034
1223.152737
1223.153587
1223.154526
1223.155279
1223.156075
1223.156779
1223.157439
1223.158023
1223.158426
1223.158851
1223.159239
1223.159407
1223.159622
1223.160028
1223.147092
1223.148869
1223.150537
1223.152145
1223.153616
1223.154556
1223.15519
1223.155587
1223.15595
1223.156085
1223.156042
1223.156077
1223.156177
1223.156093
1223.155946
1223.150637
1223.154172
1223.156962
1223.158625
1223.159952
1223.1605
1223.160603
1223.160391
1223.160047
1223.159744
1223.159312
1223.158697
1223.158255
1223.157723
1223.157408
1223.16887
1223.173936
1223.176726
1223.177932
1223.177843
1223.177507
1223.176978
1223.176337
1223.175601
1223.175038
1223.174285
1223.173508
1223.1732
1223.172796
1223.172366
1223.156392
1223.159654
1223.162497
1223.164573
1223.165767
1223.166288
1223.166267
1223.166006
1223.165589
1223.165104
1223.164913
1223.164587
1223.164188
1223.163954
1223.163685
1223.156008
1223.157628
1223.159342
1223.160752
1223.161965
1223.162912
1223.163597
1223.163847
1223.164147
1223.164432
1223.164313
1223.164282
1223.164131
1223.164045
1223.164051
1223.153859
1223.154679
1223.155383
1223.156351
1223.157108
1223.157774
1223.1583
1223.158823
1223.159291
1223.159735
1223.160085
1223.160427
1223.160459
1223.160577
1223.147466
1223.148063
1223.148786
1223.149309
1223.149969
1223.1508
1223.151442
1223.152088
1223.152482
1223.15289
1223.15346
1223.153808
1223.15437
1223.154716
1223.146862
1223.146999
1223.147068
1223.147396
1223.147704
1223.148307
1223.148656
1223.149142
1223.149725
1223.150198
1223.150736
1223.151203
1223.15151
1223.152085
1223.152441
1223.147702
1223.148184
1223.148626
1223.149095
1223.149642
1223.150319
1223.151135
1223.151509
1223.152259
1223.152738
1223.153283
1223.153695
1223.154316
1223.154623
1223.154798
1223.15736
1223.15803
1223.15873
1223.159647
1223.160659
1223.161322
1223.162113
1223.16268
1223.163112
1223.163516
1223.163883
1223.164193
1223.164407
1223.164787
1223.16474
1223.153643
1223.155099
1223.156511
1223.157928
1223.159009
1223.159914
1223.160648
1223.161105
1223.161521
1223.161836
1223.162117
1223.162281
1223.162282
1223.162553
1223.162616
1223.154223
1223.15589
1223.157572
1223.158743
1223.159857
1223.160684
1223.161295
1223.161673
1223.161978
1223.162144
1223.162234
1223.162163
1223.162141
1223.162209
1223.162197
1223.156248
1223.157534
1223.15898
1223.160356
1223.161349
1223.162175
1223.1629
1223.163397
1223.163929
1223.164361
1223.164569
1223.164642
1223.165006
1223.165104
1223.165247
1223.145987
1223.146785
1223.147685
1223.148574
1223.149584
1223.15046
1223.151252
1223.151792
1223.152348
1223.152657
1223.153002
1223.153287
1223.153501
1223.15372
1223.154032
1223.149859
1223.150129
1223.150466
1223.150954
1223.151436
1223.151917
1223.152562
1223.153196
1223.153577
1223.154162
1223.154613
1223.155156
1223.155564
1223.156025
1223.156268
1223.154543
1223.154698
1223.155099
1223.15559
1223.156022
1223.156381
1223.157044
1223.157618
1223.157954
1223.158471
1223.158828
1223.159277
1223.159703
1223.159959
1223.148661
1223.148858
1223.149049
1223.149216
1223.149563
1223.149805
1223.150233
1223.150737
1223.151217
1223.151639
1223.152225
1223.152559
1223.153076
1223.153506
1223.153882
1223.152031
1223.152226
1223.152465
1223.152777
1223.153198
1223.153596
1223.154089
1223.154618
1223.155153
1223.155797
1223.156385
1223.156835
1223.157332
1223.157698
1223.157918
1223.150048
1223.150332
1223.150735
1223.151264
1223.151795
1223.152476
1223.15308
1223.153755
1223.154244
1223.154814
1223.155241
1223.15562
1223.156109
1223.156314
1223.156414
1223.15251
1223.153013
1223.153589
1223.154428
1223.155101
1223.155798
1223.156319
1223.156816
1223.157422
1223.157948
1223.158384
1223.158895
1223.159313
1223.159589
1223.15963
1223.15145
1223.152218
1223.152847
1223.153816
1223.154629
1223.155367
1223.156249
1223.156977
1223.157631
1223.158066
1223.158495
1223.15884
1223.15921
1223.159525
1223.159792
1223.148376
1223.148942
1223.149634
1223.150308
1223.151234
1223.152177
1223.152874
1223.153392
1223.153987
1223.154515
1223.155014
1223.155351
1223.155436
1223.155813
1223.156063
1223.141917
1223.14216
1223.142491
1223.143061
1223.143713
1223.144197
1223.144794
1223.145291
1223.145836
1223.146376
1223.1469
1223.147377
1223.147525
1223.147937
1223.148244
1223.149979
1223.150104
1223.150447
1223.150794
1223.151267
1223.151546
1223.152213
1223.152714
1223.153311
1223.153789
1223.154202
1223.154704
1223.155038
1223.155469
1223.15591
1223.150794
1223.150983
1223.151096
1223.151203
1223.151488
1223.151846
1223.152246
1223.152775
1223.153197
1223.153709
1223.154217
1223.154634
1223.154977
1223.155416
1223.155669
)
;

boundaryField
{
    top
    {
        type            zeroGradient;
    }
    bottom
    {
        type            zeroGradient;
    }
    side-walls
    {
        type            zeroGradient;
    }
    inlet
    {
        type            zeroGradient;
    }
    outlet
    {
        type            zeroGradient;
    }
    procBoundary1to0
    {
        type            processor;
        value           nonuniform List<scalar> 
97
(
1223.15099
1223.15099
1223.153184
1223.146179
1223.147042
1223.150726
1223.148364
1223.152004
1223.149885
1223.149484
1223.152328
1223.150816
1223.150816
1223.150816
1223.148797
1223.150603
1223.162023
1223.159293
1223.152745
1223.149425
1223.154868
1223.146386
1223.1465
1223.157531
1223.157531
1223.157531
1223.152783
1223.164827
1223.148798
1223.142548
1223.155904
1223.153047
1223.144608
1223.158762
1223.160082
1223.177281
1223.177281
1223.177281
1223.209523
1223.166385
1223.157636
1223.148826
1223.152939
1223.150358
1223.158562
1223.153948
1223.166463
1220.950785
1220.950785
1220.950785
1223.202875
1223.202875
1223.15736
1223.147202
1223.150878
1223.154812
1223.151685
1223.15382
1223.155863
1223.171079
1223.163421
1223.154033
1223.154033
1223.154033
1223.147468
1223.153642
1223.147373
1223.151722
1223.145923
1223.147223
1223.162057
1223.152972
1223.154657
1223.153203
1223.153203
1223.153203
1223.147123
1223.146782
1223.14746
1223.15681
1223.152721
1223.152858
1223.155348
1223.145517
1223.149512
1223.154346
1223.154346
1223.154346
1223.148592
1223.151867
1223.149712
1223.152243
1223.151136
1223.148003
1223.141544
1223.149875
1223.1508
)
;
    }
}


// ************************************************************************* //
