/*--------------------------------*- C++ -*----------------------------------*\
| =========                 |                                                 |
| \\      /  F ield         | OpenFOAM: The Open Source CFD Toolbox           |
|  \\    /   O peration     | Version:  4.x                                   |
|   \\  /    A nd           | Web:      www.OpenFOAM.org                      |
|    \\/     M anipulation  |                                                 |
\*---------------------------------------------------------------------------*/
FoamFile
{
    version     2.0;
    format      ascii;
    class       volVectorField;
    location    "11000";
    object      U;
}
// * * * * * * * * * * * * * * * * * * * * * * * * * * * * * * * * * * * * * //

dimensions      [0 1 -1 0 0 0 0];

internalField   nonuniform List<vector> 
1174
(
(0.01100019361 -3.08145515e-09 -1.303787085e-09)
(0.0110001963 -2.868614254e-09 -2.167019837e-09)
(0.01100019998 -2.862999519e-09 -2.593685488e-09)
(0.01100019322 -3.162409016e-10 -3.202779498e-10)
(0.01100018345 -2.435458352e-10 1.340552668e-09)
(0.01100016655 -8.382506642e-10 2.400277681e-09)
(0.01100014952 1.151405088e-11 3.10741103e-09)
(0.01100013011 5.130024559e-10 7.974464358e-10)
(0.01100010745 1.071113538e-09 1.598088355e-09)
(0.01100008479 6.482700465e-11 4.376546545e-09)
(0.01100005868 -1.92977736e-10 2.808486184e-09)
(0.01100003798 2.134235375e-09 3.81297147e-09)
(0.0110000196 1.258845442e-09 3.029015187e-09)
(0.01099999685 2.264102723e-09 1.57412012e-09)
(0.01100020075 -1.46435874e-08 -1.036809922e-09)
(0.01100019288 -1.25037771e-08 -2.787764576e-09)
(0.01100019608 -5.873191857e-09 -2.331821062e-09)
(0.01100017979 -2.471992267e-09 -1.778717305e-09)
(0.01100016181 -5.04387816e-10 7.002168248e-10)
(0.01100014064 2.70511475e-09 2.332992355e-09)
(0.01100011996 3.779719831e-09 2.191540991e-09)
(0.01100009456 2.605952008e-09 3.669632305e-09)
(0.01100006938 3.565524311e-09 3.494006398e-09)
(0.01100004275 5.152599602e-09 3.057668773e-09)
(0.01100002053 4.364982698e-09 1.616545766e-09)
(0.01099999869 5.55495199e-09 2.806696303e-09)
(0.01099997987 4.360845697e-09 2.969063589e-09)
(0.01099995998 4.84582224e-09 2.815854084e-09)
(0.01100022593 -4.515236062e-09 -2.071599172e-09)
(0.01100019106 -1.1004362e-08 -4.116543117e-09)
(0.01100018028 -3.998588274e-09 -2.714868908e-09)
(0.01100015106 -1.240679915e-09 -2.602267172e-10)
(0.01100012108 2.3798726e-10 4.297126652e-09)
(0.0110000859 4.763787299e-09 1.833092476e-09)
(0.01100005644 5.051928601e-09 3.065133268e-09)
(0.01100002824 5.36146132e-09 2.374476877e-09)
(0.01100000413 3.858012611e-09 2.548436225e-09)
(0.01099997934 4.82725734e-09 2.05974348e-09)
(0.01099995477 6.519523059e-09 8.974761996e-10)
(0.01099993636 7.342163662e-09 1.529591953e-09)
(0.01099992128 8.502383167e-09 5.07732436e-10)
(0.01099990567 6.01998731e-09 1.336074063e-09)
(0.01100023182 -5.556130834e-09 1.045430868e-08)
(0.0110001597 1.944943664e-09 -7.919427189e-09)
(0.0110001457 8.171626634e-09 -3.693962031e-09)
(0.01100010506 1.170024799e-08 1.348175368e-09)
(0.01100006415 9.671848744e-09 3.151926733e-09)
(0.01100002525 7.887930448e-09 3.966862022e-09)
(0.01099999159 7.725113194e-09 5.02651348e-09)
(0.01099996019 6.80578071e-09 6.304761554e-09)
(0.01099993867 6.771092765e-09 5.667807021e-09)
(0.01099991302 6.647407174e-09 5.52214801e-09)
(0.01099989541 5.881134581e-09 3.97944573e-09)
(0.01099987746 4.848442261e-09 4.342442903e-09)
(0.01099986812 5.888887828e-09 2.907273118e-09)
(0.01099985681 5.312421436e-09 2.899065692e-09)
(0.01100030533 -5.520544975e-10 3.566401908e-08)
(0.01100016474 7.247421845e-10 1.07922528e-08)
(0.01100013006 3.948981288e-10 8.474520229e-09)
(0.0110000764 1.253992187e-09 7.199218814e-09)
(0.01100002956 4.718482195e-10 8.528040474e-09)
(0.0109999898 1.280704621e-09 8.233245216e-09)
(0.01099995769 7.388748642e-10 7.881818638e-09)
(0.01099992869 1.255074196e-09 5.05278303e-09)
(0.01099990388 5.580810875e-10 3.205389295e-09)
(0.01099988747 4.97456835e-10 5.551590517e-09)
(0.01099986949 1.277697288e-09 3.718473948e-09)
(0.01099985554 3.335156416e-09 2.546319887e-09)
(0.01099984212 2.144830905e-09 1.304914579e-09)
(0.01099983525 1.031391311e-09 7.665752362e-10)
(0.01100023244 6.674218105e-09 1.243637518e-08)
(0.01100016038 -3.878471687e-11 -7.948359106e-09)
(0.01100014622 -7.074378378e-09 -2.122531825e-09)
(0.01100010136 -8.50826241e-09 1.019417433e-09)
(0.01100006522 -6.866699764e-09 4.765468008e-09)
(0.01100002529 -6.310160678e-09 4.179144444e-09)
(0.01099999181 -5.192013525e-09 6.910932749e-09)
(0.01099996106 -4.403970707e-09 6.193249209e-09)
(0.01099993599 -3.000125969e-09 5.74339333e-09)
(0.01099991451 -2.875312566e-09 5.435199377e-09)
(0.01099989693 -2.956405365e-09 5.69516616e-09)
(0.01099987998 -4.032851749e-09 4.215831721e-09)
(0.01099986454 -3.420490264e-09 3.222466007e-09)
(0.01099985655 -3.516464153e-09 2.989792155e-09)
(0.01100022816 4.933659166e-09 6.032031813e-10)
(0.01100018779 1.271904974e-08 -6.394408187e-09)
(0.01100017901 6.433376817e-09 -2.317301163e-10)
(0.01100014918 1.745028937e-09 3.291083131e-10)
(0.01100011426 -8.976393088e-11 1.907681291e-09)
(0.01100008673 -4.300913359e-09 3.283289e-09)
(0.0110000555 -4.379649499e-09 5.463687091e-09)
(0.01100002961 -4.699112514e-09 4.959194427e-09)
(0.01100000144 -4.345548268e-09 3.933751423e-09)
(0.01099997695 -6.278340648e-09 3.580422445e-09)
(0.01099995611 -6.159545464e-09 4.179695203e-09)
(0.01099993622 -5.670031399e-09 3.45764361e-09)
(0.01099992136 -8.637208158e-09 3.797153358e-09)
(0.01099990674 -4.511688683e-09 3.406170477e-09)
(0.01100020271 1.479699965e-08 -6.929185052e-10)
(0.01100019141 1.150522881e-08 -3.086625446e-09)
(0.01100019219 4.786021902e-09 -1.365300904e-09)
(0.01100017714 4.890435097e-10 -2.175001578e-09)
(0.0110001605 -1.289353823e-09 -2.795789291e-09)
(0.01100014066 -3.575097186e-09 -2.829489574e-12)
(0.01100011602 -3.016253504e-09 2.1956079e-09)
(0.01100009397 -4.561692647e-09 1.16273086e-09)
(0.01100006636 -6.096495144e-09 1.018641361e-09)
(0.01100004509 -6.295401594e-09 3.111703614e-09)
(0.01100002186 -4.344384874e-09 3.399635838e-09)
(0.01099999968 -5.942021007e-09 3.388777157e-09)
(0.01099998186 -5.495625259e-09 3.326250789e-09)
(0.0109999599 -4.457922711e-09 3.001700023e-09)
(0.0110001944 2.030577966e-09 -6.002141837e-11)
(0.01100019364 3.131117896e-09 -3.801963526e-09)
(0.01100019849 1.336704499e-09 -2.137086835e-09)
(0.01100019268 -5.354199814e-10 -1.633255125e-11)
(0.01100018107 1.448995346e-10 -2.579535198e-09)
(0.01100016863 -6.465502462e-10 -1.234553157e-09)
(0.01100014832 -1.790785894e-09 1.358103557e-09)
(0.01100012945 -2.848257905e-09 1.777563239e-09)
(0.011000107 -1.063926993e-09 2.521876542e-09)
(0.01100008526 -1.156745633e-09 1.126852729e-09)
(0.01100006051 -2.800067841e-09 1.63405791e-09)
(0.01100004081 -2.361127107e-09 3.360731367e-09)
(0.01100001995 -1.17626217e-10 4.341243061e-09)
(0.01099999749 -1.324341711e-09 1.531504946e-09)
(0.01100016508 -1.510406951e-08 -4.508847555e-08)
(0.0110002011 -6.787264612e-10 -1.695185968e-08)
(0.01100018895 -3.659075096e-09 -1.14065892e-08)
(0.01100019486 -2.042874613e-09 -3.836625227e-09)
(0.01100017962 3.98948085e-10 -1.205850839e-11)
(0.01100016457 -1.864135606e-09 2.165620585e-09)
(0.01100014048 -3.520423409e-10 4.927401443e-09)
(0.0110001143 -3.588129033e-10 4.716054837e-09)
(0.01100009198 3.355347612e-09 5.167706087e-09)
(0.01100006939 3.578536473e-09 5.983407587e-09)
(0.0110000447 2.364167476e-09 5.776048925e-09)
(0.01100002099 1.10792217e-09 6.504564684e-09)
(0.0109999979 1.983250415e-09 7.372956231e-09)
(0.01099998138 2.160577143e-09 6.055540069e-09)
(0.01099995702 4.254149986e-09 6.774172883e-09)
(0.01100021169 -1.395092051e-08 -1.558675629e-08)
(0.01100017683 -1.370184718e-08 -1.432956349e-08)
(0.01100017359 -3.830383338e-09 -3.984022944e-09)
(0.01100014761 1.312462142e-09 2.265609136e-09)
(0.01100012083 4.257515477e-09 5.813410863e-09)
(0.01100009033 5.277026624e-09 7.854787097e-09)
(0.01100006367 8.168269665e-09 9.746710126e-09)
(0.01100003613 7.696209788e-09 7.801067954e-09)
(0.01100001084 7.15212289e-09 8.906928747e-09)
(0.01099998684 8.882492972e-09 7.487736561e-09)
(0.01099996539 8.619161592e-09 7.766126371e-09)
(0.01099994734 9.121872917e-09 8.14873728e-09)
(0.01099993346 7.232771896e-09 7.538245562e-09)
(0.0109999168 5.811079487e-09 6.917533641e-09)
(0.01100024581 7.216980356e-09 -1.682833528e-08)
(0.0110001507 -1.406034912e-08 -1.269775586e-08)
(0.01100012293 -5.078469609e-09 7.223728587e-09)
(0.01100007244 1.585813017e-09 1.374299144e-08)
(0.01100002812 6.40182704e-09 1.657512763e-08)
(0.01099998979 8.894424665e-09 1.822446531e-08)
(0.01099995803 1.006873597e-08 1.753347648e-08)
(0.01099993262 8.685696887e-09 1.504110536e-08)
(0.01099991072 9.233340101e-09 1.445101299e-08)
(0.01099989312 9.663263663e-09 1.254212559e-08)
(0.0109998784 8.020810383e-09 1.12323463e-08)
(0.01099987002 8.7168878e-09 9.73578691e-09)
(0.01099985872 7.732285586e-09 1.063338334e-08)
(0.01099985197 7.785212007e-09 7.684201434e-09)
(0.01100021754 3.18465475e-08 2.005008506e-08)
(0.01100004456 1.761457479e-08 -1.478720608e-08)
(0.01100002108 2.213725006e-08 1.41897746e-08)
(0.01099995721 2.163681056e-08 2.324988429e-08)
(0.0109999093 1.806562496e-08 2.709057113e-08)
(0.01099986776 1.580296253e-08 2.554476291e-08)
(0.01099984275 1.313554561e-08 2.360388203e-08)
(0.01099982482 1.243017764e-08 2.040379677e-08)
(0.01099981099 9.39935654e-09 1.858224062e-08)
(0.01099980035 8.294604475e-09 1.465002822e-08)
(0.01099979344 8.360739518e-09 1.345027056e-08)
(0.01099979244 6.794810824e-09 1.068095061e-08)
(0.0109997895 7.092654711e-09 1.037568199e-08)
(0.0109997904 5.61292647e-09 8.802656269e-09)
(0.01100034429 1.700145589e-09 1.408347062e-07)
(0.01099998008 2.915199086e-10 7.494143579e-08)
(0.01099994172 -3.683799396e-10 8.20958929e-08)
(0.01099987476 7.773757757e-10 6.849678813e-08)
(0.01099982778 2.490280717e-10 5.213239375e-08)
(0.01099979684 7.689395581e-10 3.944837608e-08)
(0.01099977969 5.747682475e-10 3.230190201e-08)
(0.01099976925 -2.964005626e-10 2.587319474e-08)
(0.01099976449 -1.386895187e-10 2.125705145e-08)
(0.01099976119 1.290645154e-09 1.764366626e-08)
(0.01099975818 3.272038838e-09 1.406844642e-08)
(0.01099975922 2.298450761e-09 1.06449072e-08)
(0.01099976113 1.675892904e-09 1.025475308e-08)
(0.01099976351 -2.370260595e-10 8.510967297e-09)
(0.01100021648 -3.133336539e-08 2.165078615e-08)
(0.01100004407 -1.57860749e-08 -1.405585565e-08)
(0.01100002293 -1.921302877e-08 1.39444879e-08)
(0.01099995526 -2.043310085e-08 2.37448073e-08)
(0.01099990739 -1.657884427e-08 2.621938016e-08)
(0.01099987105 -1.361576021e-08 2.689861096e-08)
(0.01099984365 -1.10896712e-08 2.313592893e-08)
(0.01099982248 -1.054160327e-08 2.082217741e-08)
(0.01099981154 -9.080403915e-09 1.868394943e-08)
(0.01099980283 -6.257982898e-09 1.538487553e-08)
(0.01099979604 -5.929769799e-09 1.347023796e-08)
(0.01099979014 -4.179592258e-09 1.118104579e-08)
(0.01099978985 -4.587603357e-09 1.140476263e-08)
(0.01099979123 -3.705834258e-09 9.526052616e-09)
(0.01100024354 -7.233510306e-09 -1.65523529e-08)
(0.01100015157 1.706082004e-08 -1.230201986e-08)
(0.01100012089 6.350994934e-09 6.430960364e-09)
(0.01100007114 1.001631975e-10 1.28009859e-08)
(0.01100002833 -5.441095856e-09 1.551707067e-08)
(0.01099999042 -8.48487185e-09 1.700107997e-08)
(0.01099995707 -9.675875361e-09 1.484780482e-08)
(0.01099993122 -8.811704838e-09 1.503282791e-08)
(0.01099991034 -6.950355769e-09 1.32435815e-08)
(0.01099989396 -1.084985156e-08 1.111702191e-08)
(0.01099988072 -7.890276912e-09 1.026524055e-08)
(0.01099986747 -8.405284278e-09 8.795263828e-09)
(0.01099985966 -7.468778906e-09 9.587942528e-09)
(0.01099984838 -4.855222964e-09 8.348598741e-09)
(0.01100021198 1.441113163e-08 -1.265409839e-08)
(0.01100017844 1.415108619e-08 -1.499391041e-08)
(0.01100017044 4.925071876e-09 -4.726283673e-09)
(0.01100014673 3.494388314e-10 -5.211280887e-10)
(0.01100011882 -3.696488265e-09 3.767063649e-09)
(0.01100008965 -7.396167487e-09 5.637438744e-09)
(0.01100006224 -8.268211269e-09 6.799124854e-09)
(0.01100003473 -7.831583256e-09 6.71665821e-09)
(0.01100001202 -8.003606393e-09 8.227665413e-09)
(0.01099998908 -6.91437618e-09 7.766717156e-09)
(0.01099996688 -8.148287372e-09 8.285347533e-09)
(0.01099994866 -7.342633567e-09 8.342574306e-09)
(0.01099993428 -7.024775075e-09 8.954819836e-09)
(0.01099991659 -6.394220632e-09 6.164875912e-09)
(0.01100020268 6.875729801e-10 -1.504432953e-08)
(0.01100019246 2.592475488e-09 -1.363034309e-08)
(0.01100019169 1.558013862e-09 -5.694149287e-09)
(0.01100017769 8.005314639e-10 -1.100243053e-09)
(0.0110001605 8.176897197e-10 6.293581309e-10)
(0.01100013928 -5.252214876e-10 3.636597617e-09)
(0.01100011729 -1.079240235e-09 3.768795463e-09)
(0.01100009377 -2.341596053e-09 5.895989834e-09)
(0.0110000685 -1.175407272e-09 6.025177463e-09)
(0.01100004327 -1.885050795e-09 6.303872619e-09)
(0.01100002262 -2.923699024e-09 7.041385096e-09)
(0.01099999873 -2.228346604e-09 5.657973573e-09)
(0.0109999815 -1.815435875e-09 5.453343981e-09)
(0.01099996032 -2.250547506e-09 5.540720586e-09)
(0.0110001757 -3.028707728e-08 -4.966375436e-08)
(0.01100022804 4.941667228e-09 -6.876017211e-09)
(0.01100019053 -4.18161975e-09 -1.168495911e-08)
(0.01100018197 1.293655928e-09 -4.247249388e-09)
(0.01100014954 3.64199008e-09 1.61319015e-09)
(0.01100011887 -7.799305341e-10 4.140765682e-09)
(0.0110000892 3.559564538e-09 4.445566283e-09)
(0.01100005793 5.927019081e-09 5.87858751e-09)
(0.01100002665 5.67615382e-09 6.894058637e-09)
(0.01100000069 5.698599582e-09 6.700144282e-09)
(0.0109999778 5.423380451e-09 7.80159468e-09)
(0.01099995265 5.076575314e-09 7.86631727e-09)
(0.01099993431 4.235303756e-09 7.856577633e-09)
(0.01099991884 6.441523734e-09 7.42323968e-09)
(0.0109999036 7.99085538e-09 6.48861877e-09)
(0.01100019085 -1.506023685e-07 -7.547316192e-08)
(0.01100024196 -1.594742461e-08 7.70194025e-09)
(0.0110001475 -1.222311584e-08 -1.466541127e-08)
(0.01100012262 6.984614959e-09 -4.677010682e-09)
(0.01100007151 1.359208837e-08 2.809218805e-09)
(0.01100002674 1.663726281e-08 4.383816043e-09)
(0.01099999172 1.619915626e-08 8.204670986e-09)
(0.01099995645 1.701434571e-08 1.022866193e-08)
(0.0109999306 1.393067106e-08 9.428204573e-09)
(0.01099990964 1.335127981e-08 9.04105902e-09)
(0.01099989057 1.246150428e-08 8.878920613e-09)
(0.01099987669 9.279140158e-09 9.913174782e-09)
(0.01099986661 1.044974228e-08 1.040521544e-08)
(0.01099986153 1.000898759e-08 1.136310884e-08)
(0.01099985023 7.907531338e-09 6.726342509e-09)
(0.01100028814 3.110784104e-08 2.807216939e-08)
(0.01100004104 -1.225402577e-08 -1.455103047e-08)
(0.01099996778 1.306521356e-08 1.336506913e-08)
(0.01099987745 2.210128383e-08 2.171717729e-08)
(0.01099981933 2.358684607e-08 2.336466002e-08)
(0.01099978529 2.217217019e-08 2.454002684e-08)
(0.01099976316 1.941528434e-08 2.008910079e-08)
(0.01099975403 1.823755461e-08 1.903083568e-08)
(0.01099974878 1.720280934e-08 1.605462175e-08)
(0.01099974671 1.399580997e-08 1.174868128e-08)
(0.01099975084 1.265178148e-08 1.298091963e-08)
(0.01099975403 1.121482961e-08 1.177900014e-08)
(0.01099975911 1.117912451e-08 1.136671653e-08)
(0.01099976576 7.180164768e-09 9.295235665e-09)
(0.01100014879 1.499867235e-07 1.201888851e-07)
(0.0109996993 9.077831134e-08 -6.044458019e-08)
(0.01099965782 8.261008388e-08 7.366233195e-09)
(0.01099956801 6.520003969e-08 3.161690125e-08)
(0.01099953533 4.565176795e-08 3.230292409e-08)
(0.01099953228 3.299394802e-08 3.238457566e-08)
(0.01099954374 2.455121424e-08 2.796355138e-08)
(0.01099956216 1.930846438e-08 2.454178809e-08)
(0.01099958504 1.575112953e-08 1.970739462e-08)
(0.01099960561 1.213703637e-08 1.710990438e-08)
(0.01099962842 1.080030556e-08 1.526248923e-08)
(0.01099964811 8.444370924e-09 1.146705551e-08)
(0.01099966936 7.594089569e-09 1.550109541e-08)
(0.01099968537 7.263487734e-09 1.045338208e-08)
(0.01100037348 4.862645267e-10 6.509371007e-07)
(0.01099933619 1.037194851e-09 1.054743638e-07)
(0.01099934084 6.002389503e-11 1.106361107e-07)
(0.01099930358 5.283523479e-10 9.881242326e-08)
(0.01099932542 3.438120652e-10 6.824017909e-08)
(0.01099937225 1.389233136e-09 5.258461796e-08)
(0.01099942071 -2.891015814e-10 3.769275615e-08)
(0.01099946687 1.309125359e-09 2.915357019e-08)
(0.01099950696 1.204133497e-09 2.463802859e-08)
(0.01099954373 1.957739065e-09 1.877895787e-08)
(0.01099957555 2.623711629e-09 1.503690017e-08)
(0.0109996057 1.909300301e-09 1.409631515e-08)
(0.01099962786 2.066851684e-09 1.379464966e-08)
(0.01099965419 2.32535594e-09 1.072202767e-08)
(0.01100014982 -1.482670611e-07 1.184317975e-07)
(0.01099969635 -8.934579018e-08 -6.062386815e-08)
(0.01099965612 -8.122330922e-08 7.03953529e-09)
(0.01099956739 -6.433879847e-08 2.93441564e-08)
(0.01099953679 -4.621380292e-08 3.115361914e-08)
(0.0109995332 -3.214535574e-08 3.179082391e-08)
(0.01099954463 -2.332312409e-08 2.718668494e-08)
(0.01099956381 -1.732956425e-08 2.448203624e-08)
(0.01099958459 -1.445401287e-08 2.1192129e-08)
(0.01099960931 -1.061771828e-08 1.590786296e-08)
(0.01099963007 -9.412796843e-09 1.398350103e-08)
(0.01099964952 -6.766672294e-09 1.211731689e-08)
(0.01099966778 -7.291789879e-09 1.360169976e-08)
(0.0109996844 -5.322211702e-09 1.113333589e-08)
(0.01100028786 -2.729702186e-08 2.924152672e-08)
(0.01100004234 1.495818537e-08 -1.470029148e-08)
(0.01099996808 -1.174998596e-08 1.198138915e-08)
(0.01099987715 -2.149545651e-08 2.099594245e-08)
(0.01099982006 -2.209915731e-08 2.165956952e-08)
(0.01099978628 -2.274845093e-08 2.278384792e-08)
(0.01099976698 -2.015012518e-08 1.956730632e-08)
(0.01099975658 -1.805162714e-08 1.847168199e-08)
(0.0109997475 -1.554331201e-08 1.718243792e-08)
(0.01099974913 -1.334407382e-08 1.364576026e-08)
(0.01099975214 -1.157594912e-08 1.024355321e-08)
(0.01099975621 -9.499593872e-09 1.094785555e-08)
(0.01099975935 -1.024328218e-08 1.152898391e-08)
(0.01099976013 -8.319756058e-09 8.213888089e-09)
(0.01100024578 1.527106671e-08 7.681561217e-09)
(0.01100015003 1.210400789e-08 -1.606113802e-08)
(0.01100012157 -6.120891204e-09 -6.000472708e-09)
(0.01100007135 -1.233476571e-08 6.196924985e-10)
(0.01100002786 -1.56003055e-08 4.806062187e-09)
(0.01099999123 -1.646882878e-08 7.56901051e-09)
(0.01099995526 -1.586072311e-08 8.981068619e-09)
(0.01099993304 -1.439588663e-08 1.144977294e-08)
(0.01099991085 -1.425234267e-08 1.064539537e-08)
(0.01099989224 -1.169663438e-08 1.095394743e-08)
(0.01099987864 -1.08646287e-08 8.275955292e-09)
(0.01099986496 -9.635243661e-09 1.002521495e-08)
(0.01099985874 -8.895524171e-09 9.244212887e-09)
(0.01099984641 -7.852637232e-09 7.058836193e-09)
(0.011000228 -6.256763793e-10 -6.240693286e-09)
(0.0110001921 3.477583646e-09 -1.336299621e-08)
(0.01100017923 -6.643217652e-10 -4.069664859e-09)
(0.01100015007 -1.324784546e-09 -8.63038027e-10)
(0.01100011754 -1.4634116e-09 1.249981244e-09)
(0.01100008653 -3.449511692e-09 3.50120765e-09)
(0.01100005574 -3.254215479e-09 5.011897768e-09)
(0.01100002826 -3.964118945e-09 6.790522437e-09)
(0.01100000167 -3.969349786e-09 5.002809222e-09)
(0.01099997743 -4.400965351e-09 4.650875698e-09)
(0.01099995565 -2.673537166e-09 5.425088667e-09)
(0.01099993471 -3.585681008e-09 5.416669396e-09)
(0.01099992031 -4.041674217e-09 5.452332046e-09)
(0.01099989987 -3.020815824e-09 5.181966744e-09)
(0.01100018963 -3.837986001e-08 -8.775898237e-08)
(0.01100023286 1.411406213e-08 -3.88332649e-09)
(0.01100016103 -6.956579688e-09 2.267096463e-09)
(0.01100014911 -2.473854248e-09 8.901799527e-09)
(0.01100010531 1.264255301e-09 9.967519928e-09)
(0.01100006405 2.325489565e-09 7.801653239e-09)
(0.01100002372 4.52949767e-09 8.449059891e-09)
(0.01099999181 5.757641583e-09 7.434500541e-09)
(0.01099995971 6.317878583e-09 7.140359605e-09)
(0.01099993343 5.921878932e-09 5.179094387e-09)
(0.01099991097 3.266374339e-09 5.783667306e-09)
(0.01099989219 4.645269048e-09 3.644772253e-09)
(0.01099987787 4.688292908e-09 4.561207311e-09)
(0.01099986398 5.47313302e-09 4.766694694e-09)
(0.01099985359 4.11423286e-09 4.813212146e-09)
(0.01100021503 -2.141897001e-07 -1.738437222e-07)
(0.01100021784 2.255708906e-08 3.044800756e-08)
(0.01100004256 -1.425573038e-08 1.715990957e-08)
(0.01100002247 1.354420336e-08 2.093400407e-08)
(0.01099995523 2.207352556e-08 2.050950312e-08)
(0.01099990862 2.462378758e-08 1.751330352e-08)
(0.01099987152 2.376930999e-08 1.449364597e-08)
(0.0109998401 2.143697136e-08 1.207544728e-08)
(0.01099982382 1.989865207e-08 1.05872416e-08)
(0.01099980772 1.755776531e-08 8.978914545e-09)
(0.01099979996 1.518697134e-08 7.531770361e-09)
(0.01099979236 1.287539952e-08 6.545855088e-09)
(0.01099979142 1.108654427e-08 6.440673608e-09)
(0.0109997906 1.171849389e-08 4.857632017e-09)
(0.01099978929 9.860220654e-09 5.690042682e-09)
(0.01100024271 -2.433502219e-07 -5.111122667e-07)
(0.01100014743 1.204456308e-07 1.481404353e-07)
(0.01099969582 -5.884901242e-08 9.080558502e-08)
(0.01099965685 6.978058031e-09 8.170532155e-08)
(0.01099956978 3.010764304e-08 6.52229602e-08)
(0.0109995366 3.386470296e-08 4.504765593e-08)
(0.01099953106 3.21115263e-08 3.26461136e-08)
(0.01099954434 2.821461738e-08 2.383363551e-08)
(0.01099956235 2.414288547e-08 1.858663291e-08)
(0.01099958446 2.030920269e-08 1.423925042e-08)
(0.01099960438 1.703309665e-08 1.210557456e-08)
(0.010999629 1.299373273e-08 8.927301833e-09)
(0.01099965118 1.050336631e-08 7.269030888e-09)
(0.01099966715 1.365516472e-08 7.8075029e-09)
(0.0109996824 1.150532616e-08 6.675206985e-09)
(0.01099929538 6.533340526e-07 6.543852784e-07)
(0.01099866472 1.366339592e-07 1.375975616e-07)
(0.01099891972 1.223223659e-07 1.208704037e-07)
(0.01099892458 9.938870863e-08 9.807003139e-08)
(0.01099900286 6.791233192e-08 6.647416256e-08)
(0.01099910075 4.635713577e-08 4.644996383e-08)
(0.01099919346 3.240850068e-08 3.384516412e-08)
(0.01099927849 2.313728949e-08 2.420892461e-08)
(0.01099934984 1.783043958e-08 1.967928035e-08)
(0.01099941239 1.438919489e-08 1.535862363e-08)
(0.010999468 1.237477162e-08 1.047819915e-08)
(0.01099951555 1.07506364e-08 9.874583688e-09)
(0.01099955563 9.525031418e-09 9.156674622e-09)
(0.0109995877 8.025805318e-09 7.729582937e-09)
(0.01099871166 9.845944526e-10 3.925067632e-06)
(0.01099701076 8.14508661e-10 1.089037137e-06)
(0.01099802331 1.622619225e-09 4.769991359e-07)
(0.01099832126 1.672865651e-09 2.651731434e-07)
(0.0109985863 -1.89739618e-09 1.380543687e-07)
(0.01099881713 7.301598636e-12 7.673660937e-08)
(0.01099898851 -1.60892508e-11 4.611901032e-08)
(0.01099913054 2.36351697e-09 3.022275301e-08)
(0.01099923992 1.257414388e-09 1.968457557e-08)
(0.01099932552 1.229490069e-09 1.475161938e-08)
(0.01099940123 2.65770459e-09 1.048884935e-08)
(0.01099945824 1.989232099e-09 9.376127148e-09)
(0.01099950609 9.289080265e-10 9.460946862e-09)
(0.01099955167 1.184172245e-09 5.697895351e-09)
(0.0109992959 -6.531748956e-07 6.534442159e-07)
(0.01099866458 -1.343310025e-07 1.37461131e-07)
(0.01099891923 -1.205457682e-07 1.220290925e-07)
(0.01099892301 -9.874797691e-08 9.926166264e-08)
(0.01099900197 -6.595159332e-08 6.536472004e-08)
(0.01099910198 -4.544698741e-08 4.554390925e-08)
(0.01099919412 -3.284696531e-08 3.355232982e-08)
(0.01099928001 -2.391317145e-08 2.365808146e-08)
(0.01099935206 -1.609286635e-08 1.900655164e-08)
(0.01099941404 -1.271854106e-08 1.425227807e-08)
(0.01099946965 -1.049945936e-08 1.134668573e-08)
(0.01099951567 -8.690009515e-09 9.382452554e-09)
(0.01099955127 -8.062614272e-09 7.540535292e-09)
(0.01099958864 -7.461157869e-09 6.153788252e-09)
(0.01100015032 -1.186987128e-07 1.483531059e-07)
(0.01099969702 5.956069684e-08 9.174810056e-08)
(0.01099965523 -7.87936616e-09 8.271912989e-08)
(0.01099957001 -3.047551891e-08 6.427158016e-08)
(0.01099953443 -3.165159405e-08 4.53545374e-08)
(0.01099953267 -3.21601838e-08 3.222282795e-08)
(0.01099954302 -2.78486017e-08 2.38884977e-08)
(0.0109995658 -2.376111573e-08 1.683813686e-08)
(0.01099958546 -2.009043473e-08 1.487343096e-08)
(0.01099960607 -1.659320664e-08 1.192282931e-08)
(0.01099962991 -1.431830044e-08 1.007312658e-08)
(0.01099965203 -1.171231197e-08 7.009701074e-09)
(0.01099966659 -1.233808095e-08 5.9800954e-09)
(0.01099968345 -9.261888269e-09 6.008185091e-09)
(0.01100021892 -2.201183777e-08 2.87294544e-08)
(0.01100004244 1.316767839e-08 1.636809504e-08)
(0.01100002157 -1.335865194e-08 2.11092744e-08)
(0.01099995808 -2.23604132e-08 2.126754105e-08)
(0.0109999067 -2.530062768e-08 1.741629528e-08)
(0.01099986973 -2.552114699e-08 1.465601456e-08)
(0.01099984117 -2.182931772e-08 1.201237875e-08)
(0.01099982462 -2.003938163e-08 1.019738343e-08)
(0.01099980833 -1.872646551e-08 7.799708344e-09)
(0.0109998008 -1.585388234e-08 5.872211587e-09)
(0.01099979556 -1.358156398e-08 7.407995467e-09)
(0.01099979083 -1.191495777e-08 4.47673746e-09)
(0.01099978759 -1.111170684e-08 6.568834219e-09)
(0.01099978473 -9.050533542e-09 3.989453383e-09)
(0.01100023322 -1.303983561e-08 -5.848074138e-09)
(0.01100015975 7.418171914e-09 1.015601268e-09)
(0.01100014584 3.442021499e-09 6.891225906e-09)
(0.01100010516 -8.818887945e-10 7.900486329e-09)
(0.01100006115 -2.574581061e-09 7.960068197e-09)
(0.01100002407 -4.660624551e-09 8.075126402e-09)
(0.0109999905 -5.646327969e-09 5.972448789e-09)
(0.01099996243 -6.401016306e-09 3.692682715e-09)
(0.01099993515 -6.095462841e-09 3.83761139e-09)
(0.01099991249 -6.326016096e-09 4.447453413e-09)
(0.01099989445 -4.663962018e-09 4.125452878e-09)
(0.0109998795 -5.049125088e-09 4.703022066e-09)
(0.01099986451 -5.658350301e-09 5.508632014e-09)
(0.01099985113 -3.432398189e-09 5.508574742e-09)
(0.01100023121 -1.118465791e-07 -6.877123035e-10)
(0.01100030748 3.876773532e-08 -1.090592043e-09)
(0.01100016462 1.072052635e-08 -5.872913219e-10)
(0.01100012925 1.289397785e-08 -8.829141264e-10)
(0.01100007717 1.374394657e-08 -1.133813933e-09)
(0.01100002796 1.162472292e-08 -2.154026236e-09)
(0.01099999129 1.040418756e-08 -2.001409807e-09)
(0.01099995458 9.635810075e-09 1.326801189e-09)
(0.01099992826 8.393922522e-09 8.338533861e-10)
(0.01099990214 7.245366275e-09 1.363752181e-09)
(0.01099988159 6.178292281e-09 -3.664685569e-10)
(0.01099986609 5.214585234e-09 3.516713632e-10)
(0.01099985302 8.614481967e-09 -1.87773056e-09)
(0.01099984261 6.075741343e-09 -1.72813657e-10)
(0.01099983162 6.302971056e-09 1.990352353e-10)
(0.01100031566 -5.613231321e-07 -1.927627848e-09)
(0.01100034683 1.408539528e-07 -2.09710707e-09)
(0.01099998185 7.591743151e-08 -2.975126775e-10)
(0.01099994177 7.915852275e-08 -1.25251367e-09)
(0.01099987033 6.713917806e-08 -1.441720044e-09)
(0.01099982571 5.060469268e-08 7.380790635e-10)
(0.01099979702 4.08058773e-08 -2.620530492e-10)
(0.01099977813 3.046042591e-08 -6.239040712e-10)
(0.01099976773 2.460616633e-08 -9.465285142e-10)
(0.01099976359 2.174385306e-08 -8.11418061e-10)
(0.0109997572 1.600767011e-08 1.912532708e-09)
(0.01099975822 1.455462892e-08 1.913600829e-09)
(0.0109997595 1.178695676e-08 -1.325850965e-09)
(0.01099976116 1.318199755e-08 1.3192749e-10)
(0.01099976091 9.779197051e-09 5.089672287e-10)
(0.01100043058 -9.781573466e-07 -2.03368178e-09)
(0.01100037442 6.536895062e-07 -1.78114461e-09)
(0.01099933683 1.059931105e-07 -8.994452117e-10)
(0.0109993373 1.110161133e-07 -1.309284239e-09)
(0.01099930613 9.666894677e-08 -4.101923913e-10)
(0.0109993248 6.983313949e-08 5.17145598e-10)
(0.01099936924 5.183487689e-08 6.883578493e-10)
(0.01099942179 3.849959095e-08 7.404545634e-10)
(0.01099946551 2.964210658e-08 6.309027145e-10)
(0.0109995051 2.331251943e-08 -5.365676289e-11)
(0.01099953992 1.900061414e-08 6.404370595e-10)
(0.01099957526 1.480415318e-08 2.891055121e-09)
(0.01099960597 1.22664457e-08 -5.670540612e-11)
(0.01099963155 1.427321996e-08 -7.543446865e-10)
(0.0109996528 1.130782522e-08 -1.113745942e-09)
(0.0109991815 -4.815578755e-06 -1.748336696e-09)
(0.01099870862 3.926182735e-06 -1.751731416e-09)
(0.0109970066 1.090083324e-06 3.064354755e-10)
(0.01099801912 4.795575714e-07 -1.517553289e-09)
(0.01099832124 2.669668989e-07 -1.919407974e-09)
(0.01099858571 1.378764729e-07 -1.741988303e-09)
(0.0109988162 7.549408952e-08 1.44915236e-09)
(0.01099899031 4.631007747e-08 7.206667028e-10)
(0.01099912712 2.832478692e-08 2.764985758e-09)
(0.01099923742 1.949664657e-08 6.208471071e-10)
(0.01099932598 1.517877251e-08 1.692279637e-09)
(0.01099939626 1.179241639e-08 1.925333749e-09)
(0.01099946008 1.151266284e-08 -9.566297152e-10)
(0.01099950727 9.959175922e-09 -9.921668856e-10)
(0.01099955438 6.813472975e-09 -5.348247944e-10)
(0.0109978455 1.002470188e-09 -9.073434684e-11)
(0.01099078625 2.743804865e-10 5.894274055e-10)
(0.01099559489 -2.291125121e-10 -1.339531234e-09)
(0.01099712325 -3.360736516e-10 -1.841527155e-09)
(0.0109978987 -6.308502224e-10 -1.473032922e-09)
(0.01099840607 4.557399862e-10 -1.554016716e-09)
(0.01099872647 7.920546928e-11 1.583423645e-10)
(0.01099894733 8.987399165e-10 -5.105731634e-10)
(0.01099910677 1.019082046e-09 4.856839514e-11)
(0.01099922673 7.767790369e-10 -9.7934073e-10)
(0.01099932338 1.900392813e-09 -9.954844611e-10)
(0.01099939676 1.228410483e-09 -9.916805819e-10)
(0.01099945334 9.837485618e-10 1.153382876e-10)
(0.01099951272 2.58638179e-10 -2.787681568e-10)
(0.01099871031 -3.924657416e-06 2.057767186e-09)
(0.01099700706 -1.087487618e-06 -7.146355937e-11)
(0.01099801878 -4.757859105e-07 -1.018036933e-09)
(0.01099831939 -2.659308551e-07 -1.40935822e-09)
(0.01099858819 -1.383530884e-07 3.148133189e-10)
(0.01099881617 -7.787603432e-08 3.689130429e-10)
(0.01099898972 -4.669928971e-08 -2.105455561e-11)
(0.01099913101 -3.093817011e-08 -1.316473648e-09)
(0.01099923877 -1.898947763e-08 -1.333869727e-09)
(0.01099932625 -1.409183157e-08 -1.902161469e-09)
(0.01099939787 -1.025287531e-08 -2.916462927e-09)
(0.01099945935 -9.971948885e-09 -2.266944826e-09)
(0.01099950805 -8.842806212e-09 -1.928735129e-09)
(0.01099954944 -5.750651718e-09 -1.341837102e-09)
(0.01100037381 -6.517058427e-07 3.670818179e-10)
(0.01099933515 -1.066751494e-07 -2.317508503e-10)
(0.01099933425 -1.116667063e-07 -2.161299219e-10)
(0.01099930186 -9.683158898e-08 -1.23516107e-09)