/*--------------------------------*- C++ -*----------------------------------*\
| =========                 |                                                 |
| \\      /  F ield         | OpenFOAM: The Open Source CFD Toolbox           |
|  \\    /   O peration     | Version:  4.x                                   |
|   \\  /    A nd           | Web:      www.OpenFOAM.org                      |
|    \\/     M anipulation  |                                                 |
\*---------------------------------------------------------------------------*/
FoamFile
{
    version     2.0;
    format      ascii;
    class       volScalarField;
    location    "11000";
    object      X_CO2;
}
// * * * * * * * * * * * * * * * * * * * * * * * * * * * * * * * * * * * * * //

dimensions      [0 0 0 0 0 0 0];

internalField   nonuniform List<scalar> 
1174
(
0.04000800574
0.04000850554
0.04000920379
0.04001010547
0.0400111976
0.04001245327
0.04001383694
0.04001530956
0.04001683258
0.04001837048
0.04001989109
0.04002136064
0.04002271949
0.04002377817
0.04000846553
0.04000925242
0.0400102895
0.04001154873
0.04001298377
0.04001454063
0.04001616603
0.04001781255
0.04001944109
0.04002102124
0.04002252952
0.0400239434
0.04002521863
0.04002619527
0.04000947006
0.04001083626
0.040012509
0.04001438986
0.04001637589
0.04001837717
0.04002032441
0.04002216988
0.04002388458
0.04002545407
0.04002687356
0.04002814077
0.04002923698
0.04003005176
0.04001092129
0.04001301477
0.0400153933
0.04001788026
0.04002033247
0.0400226502
0.04002477372
0.04002667474
0.04002834718
0.04002979918
0.0400310466
0.04003210637
0.04003298258
0.04003361178
0.04001194075
0.04001442608
0.04001711142
0.04001980665
0.04002237783
0.04002474236
0.04002685805
0.04002871156
0.04003030872
0.04003166683
0.04003280886
0.04003375785
0.04003452555
0.04003506715
0.04001092128
0.04001301475
0.04001539328
0.04001788023
0.04002033244
0.04002265016
0.04002477368
0.04002667471
0.04002834714
0.04002979914
0.04003104656
0.04003210633
0.04003298254
0.04003361174
0.04000947004
0.04001083623
0.04001250896
0.04001438981
0.04001637584
0.04001837711
0.04002032436
0.04002216982
0.04002388451
0.04002545401
0.04002687349
0.0400281407
0.0400292369
0.04003005168
0.04000846551
0.04000925239
0.04001028945
0.04001154868
0.04001298371
0.04001454057
0.04001616596
0.04001781246
0.040019441
0.04002102115
0.04002252943
0.0400239433
0.04002521853
0.04002619517
0.04000800572
0.04000850552
0.04000920376
0.04001010543
0.04001119755
0.04001245321
0.04001383687
0.04001530948
0.04001683249
0.04001837039
0.040019891
0.04002136054
0.04002271938
0.04002377806
0.0400079282
0.04000846553
0.04000925242
0.04001028949
0.04001154873
0.04001298377
0.04001454063
0.04001616603
0.04001781255
0.04001944109
0.04002102124
0.04002252952
0.0400239434
0.04002521863
0.04002619527
0.04000948528
0.0400108389
0.04001247263
0.04001428511
0.04001617768
0.04001806944
0.04001990183
0.04002163702
0.04002325377
0.04002474267
0.04002610135
0.04002732763
0.04002840071
0.04002920587
0.04001201872
0.04001459622
0.04001736658
0.04002009546
0.04002262806
0.04002488469
0.04002684098
0.04002850702
0.04002991081
0.04003108721
0.04003207093
0.0400328914
0.04003356265
0.0400340426
0.04001645186
0.04002066705
0.04002462651
0.04002804439
0.04003083252
0.04003301842
0.04003468257
0.04003592044
0.04003682286
0.04003746801
0.0400379195
0.04003822729
0.04003842906
0.04003854665
0.0400205617
0.04002558135
0.04002978328
0.04003307678
0.0400355461
0.04003733328
0.04003858383
0.04003942553
0.04003996282
0.04004027772
0.0400404333
0.04004047816
0.04004045256
0.04004040079
0.0400164518
0.04002066698
0.04002462643
0.0400280443
0.04003083244
0.04003301833
0.04003468249
0.04003592036
0.04003682278
0.04003746794
0.04003791944
0.04003822722
0.040038429
0.04003854659
0.04001201864
0.04001459611
0.04001736646
0.04002009533
0.04002262793
0.04002488455
0.04002684085
0.04002850689
0.04002991069
0.04003108709
0.04003207082
0.04003289129
0.04003356255
0.04003404249
0.04000948523
0.04001083884
0.04001247256
0.04001428502
0.04001617758
0.04001806934
0.04001990172
0.0400216369
0.04002325365
0.04002474255
0.04002610123
0.04002732751
0.04002840059
0.04002920575
0.04000846551
0.04000925239
0.04001028945
0.04001154868
0.04001298371
0.04001454056
0.04001616595
0.04001781246
0.040019441
0.04002102114
0.04002252941
0.04002394329
0.04002521851
0.04002619515
0.04000847647
0.04000947006
0.04001083626
0.040012509
0.04001438986
0.04001637589
0.04001837717
0.04002032442
0.04002216988
0.04002388458
0.04002545407
0.04002687356
0.04002814077
0.04002923697
0.04003005175
0.04000991234
0.04001201873
0.04001459622
0.04001736659
0.04002009547
0.04002262807
0.04002488469
0.04002684099
0.04002850702
0.04002991082
0.04003108721
0.04003207093
0.0400328914
0.04003356265
0.04003404259
0.04001938537
0.04002470131
0.04002944611
0.04003327874
0.04003615005
0.0400381669
0.04003949453
0.04004030123
0.04004073317
0.04004090683
0.04004091028
0.04004080879
0.04004065433
0.04004050771
0.04003550891
0.04004429159
0.04005021544
0.04005360035
0.04005508526
0.04005528913
0.04005469931
0.04005366188
0.04005240715
0.04005108104
0.0400497727
0.04004853819
0.04004743168
0.04004659213
0.04005626271
0.04006479555
0.04006826932
0.04006866951
0.04006738293
0.04006526714
0.04006282148
0.04006032452
0.04005792435
0.04005569391
0.04005366462
0.04005185056
0.04005028252
0.04004911857
0.04003550859
0.04004429125
0.04005021513
0.04005360008
0.04005508503
0.04005528894
0.04005469915
0.04005366175
0.04005240703
0.04005108095
0.04004977262
0.04004853811
0.04004743162
0.04004659206
0.04001938504
0.04002470098
0.04002944578
0.04003327842
0.04003614975
0.04003816662
0.04003949428
0.04004030101
0.04004073297
0.04004090665
0.04004091012
0.04004080865
0.0400406542
0.04004050758
0.04001201863
0.04001459609
0.04001736643
0.0400200953
0.04002262789
0.04002488451
0.0400268408
0.04002850684
0.04002991063
0.04003108703
0.04003207076
0.04003289124
0.04003356249
0.04003404244
0.04000947003
0.04001083622
0.04001250894
0.04001438978
0.0400163758
0.04001837707
0.0400203243
0.04002216976
0.04002388445
0.04002545394
0.04002687342
0.04002814063
0.04002923683
0.04003005161
0.04000928815
0.0400109213
0.04001301477
0.0400153933
0.04001788026
0.04002033247
0.0400226502
0.04002477372
0.04002667474
0.04002834718
0.04002979918
0.04003104659
0.04003210637
0.04003298257
0.04003361177
0.0400125251
0.0400164519
0.04002066708
0.04002462655
0.04002804442
0.04003083255
0.04003301844
0.04003468259
0.04003592045
0.04003682286
0.04003746801
0.0400379195
0.04003822728
0.04003842906
0.04003854664
0.04002459605
0.04003550898
0.04004429162
0.04005021545
0.04005360035
0.04005508525
0.04005528911
0.04005469928
0.04005366185
0.04005240712
0.04005108101
0.04004977267
0.04004853816
0.04004743166
0.0400465921
0.04009000832
0.04010053547
0.04010179673
0.0400981721
0.04009245954
0.04008620127
0.04008015704
0.04007465078
0.04006978185
0.04006554305
0.0400618839
0.0400587491
0.04005612831
0.04005422638
0.04019518802
0.04018018765
0.0401582584
0.04013757754
0.040120179
0.04010608527
0.04009477645
0.04008567947
0.04007830685
0.04007227758
0.04006730489
0.04006318501
0.0400598225
0.04005741925
0.04009000729
0.04010053474
0.04010179622
0.04009817175
0.0400924593
0.0400862011
0.04008015692
0.04007465069
0.04006978179
0.040065543
0.04006188386
0.04005874907
0.04005612828
0.04005422634
0.04003550859
0.04004429121
0.04005021506
0.04005359999
0.04005508493
0.04005528883
0.04005469905
0.04005366165
0.04005240694
0.04005108086
0.04004977253
0.04004853803
0.04004743154
0.04004659199
0.04001645174
0.04002066688
0.04002462631
0.04002804416
0.04003083228
0.04003301817
0.04003468233
0.0400359202
0.04003682263
0.0400374678
0.0400379193
0.04003822709
0.04003842888
0.04003854647
0.04001092125
0.04001301471
0.04001539321
0.04001788014
0.04002033233
0.04002265005
0.04002477356
0.04002667457
0.040028347
0.040029799
0.04003104641
0.04003210619
0.0400329824
0.0400336116
0.04000988692
0.04001194073
0.04001442605
0.04001711138
0.04001980661
0.04002237779
0.04002474233
0.04002685802
0.04002871153
0.04003030869
0.04003166681
0.04003280884
0.04003375783
0.04003452553
0.04003506713
0.04001520334
0.04002056165
0.04002558126
0.0400297832
0.04003307671
0.04003554604
0.04003733323
0.04003858378
0.04003942549
0.04003996278
0.04004027768
0.04004043327
0.04004047813
0.04004045253
0.04004040077
0.04004070807
0.04005626262
0.04006479535
0.04006826915
0.04006866938
0.04006738284
0.04006526708
0.04006282143
0.04006032447
0.04005792431
0.04005569387
0.04005366459
0.04005185053
0.04005028249
0.04004911854
0.04017768058
0.04019518763
0.0401801874
0.04015825827
0.04013757747
0.04012017897
0.04010608526
0.04009477645
0.04008567947
0.04007830684
0.04007227758
0.04006730488
0.04006318501
0.04005982249
0.04005741924
0.04064260204
0.04041089455
0.04028375363
0.04020983687
0.0401642762
0.04013456465
0.04011416078
0.0400995001
0.04008855693
0.04008013071
0.04007348224
0.04006815087
0.0400639006
0.04006090752
0.04019518773
0.04018018684
0.04015825782
0.04013757717
0.04012017876
0.0401060851
0.04009477633
0.04008567938
0.04007830677
0.04007227751
0.04006730482
0.04006318495
0.04005982244
0.04005741919
0.04005626245
0.04006479511
0.04006826889
0.04006866912
0.04006738261
0.04006526686
0.04006282124
0.04006032431
0.04005792417
0.04005569374
0.04005366446
0.04005185042
0.04005028238
0.04004911844
0.04002056154
0.04002558111
0.04002978301
0.04003307649
0.04003554582
0.040037333
0.04003858356
0.04003942528
0.04003996258
0.04004027749
0.04004043309
0.04004047796
0.04004045237
0.04004040061
0.04001194069
0.04001442599
0.04001711129
0.0400198065
0.04002237765
0.04002474217
0.04002685785
0.04002871135
0.04003030851
0.04003166662
0.04003280865
0.04003375765
0.04003452535
0.04003506695
0.04000928814
0.04001092127
0.04001301474
0.04001539326
0.04001788021
0.04002033241
0.04002265014
0.04002477366
0.04002667468
0.04002834712
0.04002979912
0.04003104653
0.04003210631
0.04003298251
0.04003361171
0.04001252501
0.04001645177
0.04002066692
0.04002462637
0.04002804424
0.04003083238
0.04003301828
0.04003468244
0.04003592031
0.04003682274
0.0400374679
0.0400379194
0.04003822719
0.04003842897
0.04003854656
0.04002459569
0.04003550857
0.04004429118
0.04005021506
0.0400536
0.04005508496
0.04005528887
0.04005469908
0.04005366169
0.04005240698
0.04005108089
0.04004977257
0.04004853806
0.04004743157
0.04004659202
0.04006532906
0.04009000714
0.04010053452
0.04010179603
0.04009817159
0.04009245916
0.04008620099
0.04008015682
0.04007465061
0.04006978171
0.04006554293
0.0400618838
0.04005874902
0.04005612823
0.0400542263
0.0401776807
0.0401951875
0.04018018657
0.04015825755
0.04013757691
0.04012017853
0.0401060849
0.04009477616
0.04008567923
0.04007830664
0.0400722774
0.04006730473
0.04006318487
0.04005982237
0.04005741913
0.04006532928
0.04009000711
0.0401005344
0.04010179589
0.04009817144
0.04009245902
0.04008620084
0.04008015669
0.04007465048
0.0400697816
0.04006554282
0.0400618837
0.04005874892
0.04005612815
0.04005422622
0.04003550884
0.04004429127
0.04005021505
0.04005359994
0.04005508487
0.04005528876
0.04005469897
0.04005366157
0.04005240686
0.04005108078
0.04004977245
0.04004853796
0.04004743146
0.04004659192
0.0400164518
0.04002066691
0.04002462632
0.04002804416
0.04003083227
0.04003301815
0.0400346823
0.04003592017
0.04003682259
0.04003746776
0.04003791925
0.04003822704
0.04003842883
0.04003854642
0.04001092127
0.04001301472
0.04001539323
0.04001788015
0.04002033233
0.04002265004
0.04002477355
0.04002667455
0.04002834698
0.04002979897
0.04003104638
0.04003210616
0.04003298236
0.04003361156
0.04000847646
0.04000947003
0.04001083621
0.04001250894
0.04001438978
0.04001637581
0.04001837708
0.04002032432
0.04002216978
0.04002388448
0.04002545397
0.04002687345
0.04002814066
0.04002923687
0.04003005165
0.04000991227
0.04001201863
0.04001459609
0.04001736643
0.0400200953
0.0400226279
0.04002488452
0.04002684081
0.04002850685
0.04002991065
0.04003108705
0.04003207078
0.04003289125
0.04003356251
0.04003404246
0.0400142452
0.04001938503
0.04002470095
0.04002944575
0.04003327838
0.04003614971
0.04003816659
0.04003949424
0.04004030097
0.04004073293
0.04004090661
0.04004091008
0.04004080861
0.04004065416
0.04004050755
0.04002459567
0.0400355085
0.04004429109
0.04005021495
0.04005359989
0.04005508484
0.04005528876
0.04005469898
0.04005366159
0.04005240689
0.04005108081
0.04004977249
0.04004853799
0.0400474315
0.04004659195
0.04004070817
0.04005626251
0.04006479512
0.04006826888
0.04006866909
0.04006738255
0.0400652668
0.04006282116
0.04006032423
0.04005792409
0.04005569367
0.0400536644
0.04005185036
0.04005028232
0.04004911839
0.04002459572
0.04003550856
0.04004429114
0.04005021498
0.0400535999
0.04005508484
0.04005528874
0.04005469895
0.04005366155
0.04005240684
0.04005108076
0.04004977243
0.04004853794
0.04004743144
0.0400465919
0.04001424532
0.04001938516
0.04002470106
0.04002944583
0.04003327844
0.04003614974
0.04003816658
0.04003949422
0.04004030093
0.04004073288
0.04004090655
0.04004091002
0.04004080854
0.04004065409
0.04004050747
0.04001201871
0.04001459615
0.04001736647
0.04002009532
0.04002262789
0.0400248845
0.04002684077
0.0400285068
0.04002991059
0.04003108698
0.0400320707
0.04003289116
0.04003356242
0.04003404236
0.04000947005
0.04001083623
0.04001250895
0.04001438978
0.04001637579
0.04001837705
0.04002032428
0.04002216972
0.04002388441
0.04002545389
0.04002687336
0.04002814056
0.04002923676
0.04003005154
0.04000792818
0.0400084655
0.04000925238
0.04001028944
0.04001154866
0.04001298368
0.04001454054
0.04001616592
0.04001781243
0.04001944097
0.04002102111
0.04002252939
0.04002394326
0.04002521849
0.04002619513
0.04000848783
0.04000948522
0.04001083883
0.04001247254
0.040014285
0.04001617756
0.04001806932
0.04001990169
0.04002163687
0.04002325362
0.04002474252
0.0400261012
0.04002732747
0.04002840056
0.04002920572
0.04000991227
0.04001201863
0.04001459609
0.04001736643
0.04002009529
0.04002262788
0.0400248845
0.04002684079
0.04002850682
0.04002991062
0.04003108702
0.04003207074
0.04003289121
0.04003356247
0.04003404242
0.040012525
0.04001645174
0.04002066686
0.04002462629
0.04002804415
0.04003083227
0.04003301816
0.04003468232
0.04003592019
0.04003682261
0.04003746778
0.04003791928
0.04003822707
0.04003842885
0.04003854644
0.04001520333
0.04002056159
0.04002558115
0.04002978306
0.04003307653
0.04003554585
0.04003733303
0.04003858358
0.04003942529
0.04003996259
0.04004027749
0.04004043308
0.04004047795
0.04004045235
0.04004040059
0.04001252502
0.04001645176
0.0400206669
0.04002462633
0.04002804417
0.04003083229
0.04003301817
0.04003468232
0.04003592018
0.0400368226
0.04003746776
0.04003791926
0.04003822704
0.04003842883
0.04003854641
0.04000991229
0.04001201865
0.0400145961
0.04001736644
0.04002009529
0.04002262787
0.04002488448
0.04002684076
0.04002850679
0.04002991058
0.04003108697
0.04003207069
0.04003289116
0.04003356241
0.04003404235
0.04000848785
0.04000948524
0.04001083885
0.04001247256
0.04001428501
0.04001617756
0.04001806931
0.04001990167
0.04002163684
0.04002325358
0.04002474248
0.04002610114
0.04002732741
0.04002840049
0.04002920564
0.04000846553
0.04000925241
0.04001028946
0.04001154868
0.0400129837
0.04001454055
0.04001616592
0.04001781242
0.04001944095
0.04002102108
0.04002252935
0.04002394321
0.04002521843
0.04002619506
0.04000768054
0.04000800571
0.04000850551
0.04000920375
0.04001010542
0.04001119753
0.04001245319
0.04001383684
0.04001530945
0.04001683246
0.04001837035
0.04001989096
0.0400213605
0.04002271934
0.04002377802
0.04000792819
0.04000846551
0.04000925238
0.04001028944
0.04001154866
0.04001298369
0.04001454054
0.04001616592
0.04001781243
0.04001944096
0.0400210211
0.04002252938
0.04002394325
0.04002521848
0.04002619511
0.04000847646
0.04000947003
0.04001083621
0.04001250893
0.04001438977
0.04001637578
0.04001837705
0.04002032429
0.04002216974
0.04002388443
0.04002545392
0.0400268734
0.0400281406
0.04002923681
0.04003005158
0.04000928813
0.04001092125
0.04001301471
0.04001539321
0.04001788014
0.04002033233
0.04002265005
0.04002477356
0.04002667457
0.040028347
0.04002979899
0.0400310464
0.04003210618
0.04003298238
0.04003361158
0.04000988691
0.04001194071
0.040014426
0.04001711131
0.04001980651
0.04002237767
0.04002474219
0.04002685786
0.04002871137
0.04003030852
0.04003166663
0.04003280865
0.04003375765
0.04003452535
0.04003506694
0.04000928813
0.04001092125
0.0400130147
0.04001539321
0.04001788014
0.04002033233
0.04002265004
0.04002477354
0.04002667455
0.04002834698
0.04002979897
0.04003104638
0.04003210615
0.04003298235
0.04003361155
0.04000847645
0.04000947002
0.0400108362
0.04001250892
0.04001438975
0.04001637576
0.04001837702
0.04002032425
0.04002216969
0.04002388438
0.04002545386
0.04002687334
0.04002814054
0.04002923674
0.04003005152
0.04000792819
0.04000846551
0.04000925239
0.04001028944
0.04001154866
0.04001298368
0.04001454053
0.0400161659
0.0400178124
0.04001944093
0.04002102106
0.04002252933
0.04002394319
0.04002521841
0.04002619505
0.04000768054
0.04000800572
0.04000850552
0.04000920376
0.04001010543
0.04001119754
0.04001245319
0.04001383684
0.04001530945
0.04001683245
0.04001837033
0.04001989093
0.04002136046
0.04002271929
0.04002377797
)
;

boundaryField
{
    top
    {
        type            calculated;
        value           nonuniform List<scalar> 
127
(
0.04000768054
0.04000800572
0.04000846551
0.04000947003
0.04001092125
0.04001194069
0.04001092127
0.04000947005
0.04000846553
0.04000800572
0.04000850552
0.04000925239
0.04001083622
0.04001301471
0.04001442599
0.04001301472
0.04001083623
0.04000925241
0.04000850552
0.04000920376
0.04001028945
0.04001250894
0.04001539321
0.04001711129
0.04001539323
0.04001250895
0.04001028946
0.04000920376
0.04001010543
0.04001154868
0.04001438978
0.04001788014
0.0400198065
0.04001788015
0.04001438978
0.04001154868
0.04001010543
0.04001119755
0.04001298371
0.0400163758
0.04002033233
0.04002237765
0.04002033233
0.04001637579
0.0400129837
0.04001119754
0.04001245321
0.04001454056
0.04001837707
0.04002265005
0.04002474217
0.04002265004
0.04001837705
0.04001454055
0.04001245319
0.04001383687
0.04001616595
0.0400203243
0.04002477356
0.04002685785
0.04002477355
0.04002032428
0.04001616592
0.04001383684
0.04001530948
0.04001781246
0.04002216976
0.04002667457
0.04002871135
0.04002667455
0.04002216972
0.04001781242
0.04001530945
0.04001683249
0.040019441
0.04002388445
0.040028347
0.04003030851
0.04002834698
0.04002388441
0.04001944095
0.04001683245
0.04001837039
0.04002102114
0.04002545394
0.040029799
0.04003166662
0.04002979897
0.04002545389
0.04002102108
0.04001837033
0.040019891
0.04002252941
0.04002687342
0.04003104641
0.04003280865
0.04003104638
0.04002687336
0.04002252935
0.04001989093
0.04002136054
0.04002394329
0.04002814063
0.04003210619
0.04003375765
0.04003210616
0.04002814056
0.04002394321
0.04002136046
0.04002271938
0.04002521851
0.04002923683
0.0400329824
0.04003452535
0.04003298236
0.04002923676
0.04002521843
0.04002271929
0.04002377806
0.04002619515
0.04003005161
0.0400336116
0.04003506695
0.04003361156
0.04003005154
0.04002619506
0.04002377797
)
;
    }
    bottom
    {
        type            calculated;
        value           nonuniform List<scalar> 
134
(
0.0400079282
0.04000847647
0.04000928815
0.04000988692
0.04000928814
0.04000847646
0.04000792818
0.04000768054
0.04000800574
0.04000846553
0.04000947006
0.0400109213
0.04001194073
0.04001092127
0.04000947003
0.0400084655
0.04000800571
0.04000850554
0.04000925242
0.04001083626
0.04001301477
0.04001442605
0.04001301474
0.04001083621
0.04000925238
0.04000850551
0.04000920379
0.04001028949
0.040012509
0.0400153933
0.04001711138
0.04001539326
0.04001250894
0.04001028944
0.04000920375
0.04001010547
0.04001154873
0.04001438986
0.04001788026
0.04001980661
0.04001788021
0.04001438978
0.04001154866
0.04001010542
0.0400111976
0.04001298377
0.04001637589
0.04002033247
0.04002237779
0.04002033241
0.04001637581
0.04001298368
0.04001119753
0.04001245327
0.04001454063
0.04001837717
0.0400226502
0.04002474233
0.04002265014
0.04001837708
0.04001454054
0.04001245319
0.04001383694
0.04001616603
0.04002032442
0.04002477372
0.04002685802
0.04002477366
0.04002032432
0.04001616592
0.04001383684
0.04001530956
0.04001781255
0.04002216988
0.04002667474
0.04002871153
0.04002667468
0.04002216978
0.04001781243
0.04001530945
0.04001683258
0.04001944109
0.04002388458
0.04002834718
0.04003030869
0.04002834712
0.04002388448
0.04001944097
0.04001683246
0.04001837048
0.04002102124
0.04002545407
0.04002979918
0.04003166681
0.04002979912
0.04002545397
0.04002102111
0.04001837035
0.04001989109
0.04002252952
0.04002687356
0.04003104659
0.04003280884
0.04003104653
0.04002687345
0.04002252939
0.04001989096
0.04002136064
0.0400239434
0.04002814077
0.04003210637
0.04003375783
0.04003210631
0.04002814066
0.04002394326
0.0400213605
0.04002271949
0.04002521863
0.04002923697
0.04003298257
0.04003452553
0.04003298251
0.04002923687
0.04002521849
0.04002271934
0.04002377817
0.04002619527
0.04003005175
0.04003361177
0.04003506713
0.04003361171
0.04003005165
0.04002619513
0.04002377802
)
;
    }
    side-walls
    {
        type            calculated;
        value           nonuniform List<scalar> 
261
(
0.04000800574
0.04000846553
0.04000947006
0.04001092129
0.04001194075
0.04001092128
0.04000947004
0.04000846551
0.04000800572
0.04000850554
0.04000925242
0.04001083626
0.04001301477
0.04001442608
0.04001301475
0.04001083623
0.04000925239
0.04000850552
0.04000920379
0.0400102895
0.040012509
0.0400153933
0.04001711142
0.04001539328
0.04001250896
0.04001028945
0.04000920376
0.04001010547
0.04001154873
0.04001438986
0.04001788026
0.04001980665
0.04001788023
0.04001438981
0.04001154868
0.04001010543
0.0400111976
0.04001298377
0.04001637589
0.04002033247
0.04002237783
0.04002033244
0.04001637584
0.04001298371
0.04001119755
0.04001245327
0.04001454063
0.04001837717
0.0400226502
0.04002474236
0.04002265016
0.04001837711
0.04001454057
0.04001245321
0.04001383694
0.04001616603
0.04002032441
0.04002477372
0.04002685805
0.04002477368
0.04002032436
0.04001616596
0.04001383687
0.04001530956
0.04001781255
0.04002216988
0.04002667474
0.04002871156
0.04002667471
0.04002216982
0.04001781246
0.04001530948
0.04001683258
0.04001944109
0.04002388458
0.04002834718
0.04003030872
0.04002834714
0.04002388451
0.040019441
0.04001683249
0.04001837048
0.04002102124
0.04002545407
0.04002979918
0.04003166683
0.04002979914
0.04002545401
0.04002102115
0.04001837039
0.04001989109
0.04002252952
0.04002687356
0.0400310466
0.04003280886
0.04003104656
0.04002687349
0.04002252943
0.040019891
0.04002136064
0.0400239434
0.04002814077
0.04003210637
0.04003375785
0.04003210633
0.0400281407
0.0400239433
0.04002136054
0.04002271949
0.04002521863
0.04002923698
0.04003298258
0.04003452555
0.04003298254
0.0400292369
0.04002521853
0.04002271938
0.04002377817
0.04002619527
0.04003005176
0.04003361178
0.04003506715
0.04003361174
0.04003005168
0.04002619517
0.04002377806
0.04000768054
0.04000792819
0.04000847646
0.04000928813
0.04000988691
0.04000928813
0.04000847645
0.04000792819
0.04000768054
0.04000800571
0.04000846551
0.04000947003
0.04001092125
0.04001194071
0.04001092125
0.04000947002
0.04000846551
0.04000800572
0.04000850551
0.04000925238
0.04001083621
0.04001301471
0.040014426
0.0400130147
0.0400108362
0.04000925239
0.04000850552
0.04000920375
0.04001028944
0.04001250893
0.04001539321
0.04001711131
0.04001539321
0.04001250892
0.04001028944
0.04000920376
0.04001010542
0.04001154866
0.04001438977
0.04001788014
0.04001980651
0.04001788014
0.04001438975
0.04001154866
0.04001010543
0.04001119753
0.04001298369
0.04001637578
0.04002033233
0.04002237767
0.04002033233
0.04001637576
0.04001298368
0.04001119754
0.04001245319
0.04001454054
0.04001837705
0.04002265005
0.04002474219
0.04002265004
0.04001837702
0.04001454053
0.04001245319
0.04001383684
0.04001616592
0.04002032429
0.04002477356
0.04002685786
0.04002477354
0.04002032425
0.0400161659
0.04001383684
0.04001530945
0.04001781243
0.04002216974
0.04002667457
0.04002871137
0.04002667455
0.04002216969
0.0400178124
0.04001530945
0.04001683246
0.04001944096
0.04002388443
0.040028347
0.04003030852
0.04002834698
0.04002388438
0.04001944093
0.04001683245
0.04001837035
0.0400210211
0.04002545392
0.04002979899
0.04003166663
0.04002979897
0.04002545386
0.04002102106
0.04001837033
0.04001989096
0.04002252938
0.0400268734
0.0400310464
0.04003280865
0.04003104638
0.04002687334
0.04002252933
0.04001989093
0.0400213605
0.04002394325
0.0400281406
0.04003210618
0.04003375765
0.04003210615
0.04002814054
0.04002394319
0.04002136046
0.04002271934
0.04002521848
0.04002923681
0.04003298238
0.04003452535
0.04003298235
0.04002923674
0.04002521841
0.04002271929
0.04002377802
0.04002619511
0.04003005158
0.04003361158
0.04003506694
0.04003361155
0.04003005152
0.04002619505
0.04002377797
)
;
    }
    inlet
    {
        type            calculated;
        value           nonuniform 0();
    }
    outlet
    {
        type            calculated;
        value           nonuniform List<scalar> 
81
(
0.04002377817
0.04002619527
0.04003005176
0.04003361178
0.04003506715
0.04003361174
0.04003005168
0.04002619517
0.04002377806
0.04002619527
0.04002920587
0.0400340426
0.04003854665
0.04004040079
0.04003854659
0.04003404249
0.04002920575
0.04002619515
0.04003005175
0.04003404259
0.04004050771
0.04004659213
0.04004911857
0.04004659206
0.04004050758
0.04003404244
0.04003005161
0.04003361177
0.04003854664
0.0400465921
0.04005422638
0.04005741925
0.04005422634
0.04004659199
0.04003854647
0.0400336116
0.04003506713
0.04004040077
0.04004911854
0.04005741924
0.04006090752
0.04005741919
0.04004911844
0.04004040061
0.04003506695
0.04003361171
0.04003854656
0.04004659202
0.0400542263
0.04005741913
0.04005422622
0.04004659192
0.04003854642
0.04003361156
0.04003005165
0.04003404246
0.04004050755
0.04004659195
0.04004911839
0.0400465919
0.04004050747
0.04003404236
0.04003005154
0.04002619513
0.04002920572
0.04003404242
0.04003854644
0.04004040059
0.04003854641
0.04003404235
0.04002920564
0.04002619506
0.04002377802
0.04002619511
0.04003005158
0.04003361158
0.04003506694
0.04003361155
0.04003005152
0.04002619505
0.04002377797
)
;
    }
    procBoundary1to0
    {
        type            processor;
        value           nonuniform List<scalar> 
97
(
0.04000768055
0.04000768055
0.04000792819
0.04000847646
0.04000928812
0.0400098869
0.04000928811
0.04000847645
0.04000792818
0.04000768053
0.04000760653
0.04000848785
0.04000848785
0.04000848785
0.0400099123
0.04001252501
0.0400152033
0.04001252497
0.04000991224
0.04000848781
0.04000792818
0.0400078581
0.04000849637
0.04001424538
0.04001424538
0.04001424538
0.04002459578
0.04004070797
0.04002459549
0.04001424512
0.04000991224
0.04000847644
0.04000822154
0.0400096066
0.0400143789
0.04006533011
0.04006533011
0.04006533011
0.04017768045
0.04006532872
0.04002459552
0.04001252493
0.0400092881
0.04000847688
0.040010636
0.04001957666
0.04005435047
0.04108977641
0.04108977641
0.04108977641
0.04017768018
0.04017768018
0.04004070781
0.04001520321
0.04000988687
0.04000822154
0.04000960657
0.04001437881
0.04002802391
0.04005435056
0.04002802396
0.04002459585
0.04002459585
0.04002459585
0.04001252499
0.04000928812
0.04000785809
0.04000849635
0.04001034113
0.0400143788
0.04001957673
0.04001437883
0.04001034116
0.04000991231
0.04000991231
0.04000991231
0.04000847646
0.04000760652
0.04000786189
0.04000849635
0.04000960657
0.040010636
0.04000960658
0.04000849636
0.0400078619
0.0400079282
0.0400079282
0.0400079282
0.04000749137
0.04000760652
0.04000785809
0.04000822154
0.04000847688
0.04000822154
0.04000785809
0.04000760652
0.04000749138
)
;
    }
}


// ************************************************************************* //
