/*--------------------------------*- C++ -*----------------------------------*\
| =========                 |                                                 |
| \\      /  F ield         | OpenFOAM: The Open Source CFD Toolbox           |
|  \\    /   O peration     | Version:  4.x                                   |
|   \\  /    A nd           | Web:      www.OpenFOAM.org                      |
|    \\/     M anipulation  |                                                 |
\*---------------------------------------------------------------------------*/
FoamFile
{
    version     2.0;
    format      ascii;
    class       volScalarField;
    location    "11000";
    object      X_H2O;
}
// * * * * * * * * * * * * * * * * * * * * * * * * * * * * * * * * * * * * * //

dimensions      [0 0 0 0 0 0 0];

internalField   nonuniform List<scalar> 
1174
(
1.578202438e-05
1.632139517e-05
1.707491057e-05
1.804795547e-05
1.922650913e-05
2.05815371e-05
2.207469244e-05
2.366383105e-05
2.530735914e-05
2.696694297e-05
2.860786659e-05
3.019367883e-05
3.166002923e-05
3.280247058e-05
1.62782693e-05
1.712744608e-05
1.824659204e-05
1.960547291e-05
2.11540685e-05
2.283412817e-05
2.458814064e-05
2.636494046e-05
2.812234996e-05
2.982752919e-05
3.145515443e-05
3.298090436e-05
3.435702758e-05
3.54109148e-05
1.736236504e-05
1.883667117e-05
2.064176266e-05
2.26714293e-05
2.481458955e-05
2.697420717e-05
2.907551929e-05
3.10669958e-05
3.291736352e-05
3.461103629e-05
3.614284264e-05
3.751031445e-05
3.86932466e-05
3.957246324e-05
1.892846806e-05
2.118756013e-05
2.375425173e-05
2.643793833e-05
2.908413551e-05
3.158521258e-05
3.387672727e-05
3.592814089e-05
3.773289514e-05
3.9299771e-05
4.064587594e-05
4.178950181e-05
4.273502634e-05
4.341397195e-05
2.002855539e-05
2.271046637e-05
2.560820906e-05
2.851663743e-05
3.12911991e-05
3.384277747e-05
3.612582008e-05
3.812595527e-05
3.984945861e-05
4.131500498e-05
4.254738387e-05
4.357145325e-05
4.439988213e-05
4.498427952e-05
1.892843251e-05
2.118750867e-05
2.375418e-05
2.643784345e-05
2.908400867e-05
3.15850549e-05
3.387653193e-05
3.592791033e-05
3.773263185e-05
3.92994763e-05
4.064555374e-05
4.178914852e-05
4.273465332e-05
4.34135721e-05
1.736231197e-05
1.883659867e-05
2.064166962e-05
2.267130324e-05
2.481442104e-05
2.69739874e-05
2.907524184e-05
3.106666147e-05
3.29169704e-05
3.461058518e-05
3.614232751e-05
3.750974558e-05
3.869262741e-05
3.957180125e-05
1.627821399e-05
1.712737998e-05
1.824650907e-05
1.960536005e-05
2.115391519e-05
2.283392464e-05
2.458787357e-05
2.636460378e-05
2.812193646e-05
2.982703543e-05
3.145458391e-05
3.298025389e-05
3.435629927e-05
3.541012537e-05
1.578198589e-05
1.632135514e-05
1.707485974e-05
1.804788239e-05
1.922640497e-05
2.058138201e-05
2.207447687e-05
2.366354727e-05
2.530699421e-05
2.696648438e-05
2.860731421e-05
3.019303153e-05
3.165927976e-05
3.280161524e-05
1.569835039e-05
1.627823142e-05
1.712741204e-05
1.824655932e-05
1.960544079e-05
2.115403622e-05
2.283409753e-05
2.45881105e-05
2.636490747e-05
2.812231496e-05
2.982749529e-05
3.14551211e-05
3.298086854e-05
3.435699472e-05
3.541088747e-05
1.737882947e-05
1.883954345e-05
2.060252894e-05
2.255840851e-05
2.460072164e-05
2.664217744e-05
2.861955452e-05
3.049204544e-05
3.223673119e-05
3.384345849e-05
3.530965679e-05
3.663296978e-05
3.779096334e-05
3.865978396e-05
2.011288485e-05
2.289423783e-05
2.588372664e-05
2.882846395e-05
3.156140499e-05
3.399655748e-05
3.610762751e-05
3.790548726e-05
3.9420366e-05
4.068985278e-05
4.175143403e-05
4.263683938e-05
4.336121063e-05
4.387908891e-05
2.48967565e-05
2.944525862e-05
3.371784412e-05
3.740603248e-05
4.041469571e-05
4.277350179e-05
4.456931874e-05
4.590513028e-05
4.687897314e-05
4.757520527e-05
4.80624559e-05
4.839462474e-05
4.861239003e-05
4.873923847e-05
2.933142846e-05
3.474796389e-05
3.928219839e-05
4.283618002e-05
4.55008269e-05
4.742939308e-05
4.877888876e-05
4.96872154e-05
5.026704354e-05
5.060689655e-05
5.077483501e-05
5.082328989e-05
5.079569127e-05
5.073978699e-05
2.489659636e-05
2.944506847e-05
3.371761728e-05
3.740576114e-05
4.041437991e-05
4.277314611e-05
4.456892182e-05
4.590470271e-05
4.687852045e-05
4.757473284e-05
4.806196516e-05
4.83941216e-05
4.861186902e-05
4.873870174e-05
2.01126864e-05
2.289401725e-05
2.588346334e-05
2.882814217e-05
3.156102037e-05
3.399609707e-05
3.610709514e-05
3.790489079e-05
3.941971007e-05
4.06891446e-05
4.175067638e-05
4.263603814e-05
4.336037732e-05
4.387821428e-05
1.737870627e-05
1.883942085e-05
2.060238051e-05
2.255820527e-05
2.460045294e-05
2.664182646e-05
2.86191201e-05
3.049151889e-05
3.223611106e-05
3.38427541e-05
3.530887001e-05
3.663210385e-05
3.779002098e-05
3.865878202e-05
1.627822077e-05
1.712738253e-05
1.824650527e-05
1.960534142e-05
2.115387999e-05
2.283386265e-05
2.45877857e-05
2.636448635e-05
2.812178853e-05
2.982685799e-05
3.145437303e-05
3.29800133e-05
3.435603145e-05
3.540981151e-05
1.629004662e-05
1.736227715e-05
1.883657909e-05
2.064167117e-05
2.267133864e-05
2.481449672e-05
2.697411266e-05
2.907542531e-05
3.106690832e-05
3.29172778e-05
3.461095117e-05
3.614276024e-05
3.751022945e-05
3.869316278e-05
3.957238022e-05
1.783975652e-05
2.01127729e-05
2.289414467e-05
2.588364615e-05
2.882838811e-05
3.156133471e-05
3.399648656e-05
3.610756101e-05
3.790542403e-05
3.942030917e-05
4.068980133e-05
4.175138408e-05
4.26367808e-05
4.33611567e-05
4.387902948e-05
2.806265066e-05
3.379876347e-05
3.891868322e-05
4.305436258e-05
4.615274491e-05
4.832912309e-05
4.976179707e-05
5.06323507e-05
5.109851779e-05
5.12859713e-05
5.128976484e-05
5.1180308e-05
5.101367209e-05
5.085542039e-05
4.546137177e-05
5.493807141e-05
6.133012828e-05
6.498262068e-05
6.658495335e-05
6.680498323e-05
6.616859809e-05
6.504921943e-05
6.369535406e-05
6.226448171e-05
6.085276347e-05
5.952069973e-05
5.832674868e-05
5.742076661e-05
6.78547769e-05
7.7062017e-05
8.081049689e-05
8.124244122e-05
7.985427422e-05
7.757133349e-05
7.493243849e-05
7.223817738e-05
6.964835837e-05
6.724167294e-05
6.505203237e-05
6.309462753e-05
6.140266416e-05
6.014664071e-05
4.546056084e-05
5.493729297e-05
6.132934615e-05
6.498181706e-05
6.658412524e-05
6.680415358e-05
6.616776515e-05
6.504840697e-05
6.36945504e-05
6.226369351e-05
6.085200057e-05
5.951995651e-05
5.832601909e-05
5.742004148e-05
2.806198216e-05
3.379813916e-05
3.891799718e-05
4.305357282e-05
4.615185053e-05
4.832814296e-05
4.976074604e-05
5.063125856e-05
5.109739217e-05
5.128481586e-05
5.128860043e-05
5.117913821e-05
5.101249771e-05
5.085423237e-05
2.011268302e-05
2.289397734e-05
2.588337484e-05
2.882799571e-05
3.156080671e-05
3.399582673e-05
3.610677795e-05
3.79045197e-05
3.941929887e-05
4.068870341e-05
4.175021087e-05
4.263554754e-05
4.335986821e-05
4.387768638e-05
1.736231353e-05
1.883657819e-05
2.064161038e-05
2.267118343e-05
2.481423258e-05
2.697372149e-05
2.907489594e-05
3.106623248e-05
3.291646433e-05
3.461000912e-05
3.614168441e-05
3.750904072e-05
3.869186694e-05
3.957097668e-05
1.716598237e-05
1.89283262e-05
2.118740615e-05
2.375408432e-05
2.643776788e-05
2.908396185e-05
3.158504109e-05
3.387655902e-05
3.592797632e-05
3.77327308e-05
3.929960785e-05
4.064571719e-05
4.178934841e-05
4.273487465e-05
4.341381907e-05
2.06592003e-05
2.489652865e-05
2.944504968e-05
3.37176511e-05
3.740584687e-05
4.041451744e-05
4.277333146e-05
4.456915886e-05
4.590497555e-05
4.687882162e-05
4.757506148e-05
4.806231379e-05
4.839448872e-05
4.861225366e-05
4.873909452e-05
3.368567227e-05
4.546090771e-05
5.493773416e-05
6.132985804e-05
6.498238399e-05
6.658473537e-05
6.680478925e-05
6.616841244e-05
6.504905605e-05
6.36951962e-05
6.226434034e-05
6.085263271e-05
5.952057988e-05
5.832663365e-05
5.742066264e-05
0.0001042697919
0.0001156276412
0.0001169881817
0.0001130769608
0.0001069128991
0.0001001600351
9.36381422e-05
8.769674787e-05
8.244306554e-05
7.786929283e-05
7.392098808e-05
7.053847795e-05
6.77105569e-05
6.565821963e-05
0.0002177572149
0.0002015715787
0.0001779098309
0.0001555950095
0.0001368217848
0.0001216144783
0.0001094121313
9.959636457e-05
9.164119783e-05
8.513553942e-05
7.976994065e-05
7.532454105e-05
7.169631384e-05
6.910304756e-05
0.0001042671084
0.0001156257132
0.0001169864661
0.0001130753546
0.0001069113774
0.0001001586078
9.36368119e-05
8.769549994e-05
8.244189901e-05
7.786820782e-05
7.391996413e-05
7.053750144e-05
6.77096321e-05
6.56573212e-05
4.546062164e-05
5.493706994e-05
6.132885956e-05
6.498111235e-05
6.658328168e-05
6.680322702e-05
6.616680665e-05
6.504742626e-05
6.369358125e-05
6.226273447e-05
6.0851063e-05
5.951904528e-05
5.832513505e-05
5.741917287e-05
2.489656896e-05
2.944487674e-05
3.371723127e-05
3.740517982e-05
4.041362865e-05
4.277224975e-05
4.456791079e-05
4.590360167e-05
4.687735546e-05
4.757351797e-05
4.806072173e-05
4.839285497e-05
4.861059348e-05
4.873739949e-05
1.892843154e-05
2.118743579e-05
2.375399499e-05
2.643751065e-05
2.908352073e-05
3.158440509e-05
3.38757282e-05
3.592696257e-05
3.773154899e-05
3.929828314e-05
4.06442599e-05
4.178777611e-05
4.273320371e-05
4.34120401e-05
1.781212753e-05
2.002836717e-05
2.271024627e-05
2.560796349e-05
2.851637711e-05
3.129093195e-05
3.384250514e-05
3.612554618e-05
3.812568556e-05
3.984919281e-05
4.131475157e-05
4.254713077e-05
4.357120869e-05
4.439964479e-05
4.498405436e-05
2.354913542e-05
2.933102576e-05
3.474753533e-05
3.928176891e-05
4.283576778e-05
4.550043285e-05
4.742902611e-05
4.877855127e-05
4.968690002e-05
5.026674831e-05
5.060661874e-05
5.077457643e-05
5.082304366e-05
5.079545721e-05
5.073956066e-05
5.107021948e-05
6.785379234e-05
7.70610854e-05
8.080969904e-05
8.124176989e-05
7.985372305e-05
7.757087905e-05
7.493203625e-05
7.223782356e-05
6.964805306e-05
6.724140374e-05
6.505178372e-05
6.30944026e-05
6.140244843e-05
6.014643853e-05
0.0001988661653
0.0002177544459
0.0002015699124
0.0001779087674
0.0001555942969
0.0001368212921
0.0001216141024
0.0001094118325
9.959613243e-05
9.164101062e-05
8.513537605e-05
7.976979424e-05
7.532439717e-05
7.169618325e-05
6.910292672e-05
0.0007005120337
0.0004504993069
0.0003133151106
0.0002335597652
0.0001844004001
0.0001523420338
0.0001303265157
0.0001145077886
0.0001027001978
9.36083456e-05
8.643466764e-05
8.068213031e-05
7.609606507e-05
7.286640665e-05
0.0002177570113
0.0002015690149
0.0001779067699
0.0001555920592
0.000136819126
0.0001216121227
0.0001094100352
9.959449275e-05
9.16395334e-05
8.513401737e-05
7.97685392e-05
7.532324133e-05
7.169510006e-05
6.910188689e-05
6.785469103e-05
7.706083007e-05
8.080859765e-05
8.12401582e-05
7.985184184e-05
7.756887975e-05
7.493001712e-05
7.223583322e-05
6.96460991e-05
6.723950208e-05
6.504995935e-05
6.309264223e-05
6.14007474e-05
6.014476414e-05
2.933134987e-05
3.474749816e-05
3.928133855e-05
4.283497605e-05
4.54993485e-05
4.742770787e-05
4.877705368e-05
4.968527304e-05
5.026503895e-05
5.060484187e-05
5.077275633e-05
5.082120027e-05
5.079358797e-05
5.073766877e-05
2.002854402e-05
2.271031367e-05
2.560785546e-05
2.851604715e-05
3.129036702e-05
3.384170643e-05
3.612452786e-05
3.812446891e-05
3.984779462e-05
4.131319479e-05
4.254544639e-05
4.356941393e-05
4.439774307e-05
4.498204536e-05
1.716596645e-05
1.892827713e-05
2.118731472e-05
2.375395238e-05
2.643758351e-05
2.908373901e-05
3.158477184e-05
3.387624136e-05
3.59276214e-05
3.773233572e-05
3.929918286e-05
4.064526231e-05
4.178886813e-05
4.273437344e-05
4.341329927e-05
2.065903523e-05
2.489624686e-05
2.944466816e-05
3.37171854e-05
3.740532507e-05
4.041395093e-05
4.277272941e-05
4.456852337e-05
4.590432921e-05
4.687816015e-05
4.757439243e-05
4.806164065e-05
4.839381166e-05
4.861157609e-05
4.87384139e-05
3.368445554e-05
4.54597248e-05
5.493645281e-05
6.132855396e-05
6.498108041e-05
6.658346489e-05
6.680356187e-05
6.616723931e-05
6.504793049e-05
6.369412289e-05
6.226329843e-05
6.085163566e-05
5.951962143e-05
5.832570978e-05
5.741974736e-05
7.763742401e-05
0.0001042648812
0.0001156239139
0.0001169850485
0.0001130742286
0.0001069104726
0.0001001578584
9.363618646e-05
8.769498132e-05
8.2441454e-05
7.786781077e-05
7.391962879e-05
7.053719967e-05
6.770935713e-05
6.565706771e-05
0.0001988658384
0.0002177537052
0.0002015668674
0.0001779052564
0.0001555909439
0.0001368182872
0.0001216114573
0.0001094095034
9.959405479e-05
9.163915862e-05
8.513370684e-05
7.976828739e-05
7.532301897e-05
7.169490554e-05
6.91017161e-05
7.763831472e-05
0.0001042649084
0.0001156230841
0.0001169836782
0.0001130725922
0.000106908756
0.0001001561773
9.36345866e-05
8.769347851e-05
8.244003885e-05
7.786649174e-05
7.391838707e-05
7.053604505e-05
6.770826768e-05
6.565600812e-05
4.546130208e-05
5.493681773e-05
6.132806101e-05
6.498001999e-05
6.658204011e-05
6.680192241e-05
6.616547953e-05
6.504612234e-05
6.369231203e-05
6.226151224e-05
6.08498849e-05
5.95179099e-05
5.832403991e-05
5.741809963e-05
2.489680409e-05
2.94448994e-05
3.371703955e-05
3.740481473e-05
4.041311641e-05
4.277163055e-05
4.456722057e-05
4.590285935e-05
4.687657559e-05
4.757271834e-05
4.805990339e-05
4.839203016e-05
4.860975632e-05
4.873656193e-05
1.892850788e-05
2.118746197e-05
2.375394012e-05
2.643736987e-05
2.908328416e-05
3.158408003e-05
3.387532257e-05
3.592649211e-05
3.77310269e-05
3.929770576e-05
4.064363936e-05
4.178712196e-05
4.273252136e-05
4.34113337e-05
1.629001768e-05
1.736220063e-05
1.883645242e-05
2.064148571e-05
2.267108736e-05
2.481418037e-05
2.697372298e-05
2.907496408e-05
3.106637359e-05
3.291667181e-05
3.461028184e-05
3.614202363e-05
3.750944165e-05
3.86923255e-05
3.957149806e-05
1.783953605e-05
2.011247365e-05
2.289375391e-05
2.588316288e-05
2.882781571e-05
3.156067471e-05
3.399574304e-05
3.610673891e-05
3.790453537e-05
3.941936007e-05
4.068880024e-05
4.175034197e-05
4.263571571e-05
4.336006061e-05
4.387789951e-05
2.251539702e-05
2.806150545e-05
3.379760811e-05
3.891744482e-05
4.30530195e-05
4.615131414e-05
4.832762941e-05
4.976026634e-05
5.063079599e-05
5.109696056e-05
5.128441925e-05
5.128822204e-05
5.117877676e-05
5.101215543e-05
5.085390348e-05
3.368445647e-05
4.545950895e-05
5.493597793e-05
6.132785507e-05
6.498021133e-05
6.658248873e-05
6.680253492e-05
6.616618506e-05
6.504688314e-05
6.369309239e-05
6.226229977e-05
6.085067317e-05
5.95186878e-05
5.832480345e-05
5.741886011e-05
5.107035148e-05
6.785309269e-05
7.705947655e-05
8.080747704e-05
8.123923945e-05
7.985106944e-05
7.756821325e-05
7.492943692e-05
7.223532517e-05
6.964565548e-05
6.723911766e-05
6.504961547e-05
6.309232238e-05
6.140045374e-05
6.01444943e-05
3.368447502e-05
4.545939876e-05
5.493563299e-05
6.132726618e-05
6.497945057e-05
6.658159815e-05
6.680156947e-05
6.616519856e-05
6.504587965e-05
6.36921056e-05
6.226132855e-05
6.084972108e-05
5.951777026e-05
5.832390406e-05
5.741796394e-05
2.251582514e-05
2.806185935e-05
3.379769433e-05
3.891720699e-05
4.30524794e-05
4.6150517e-05
4.832663123e-05
4.975912018e-05
5.062955321e-05
5.10956391e-05
5.128305749e-05
5.12868379e-05
5.117737913e-05
5.101075665e-05
5.085248843e-05
2.011286919e-05
2.289395961e-05
2.588315113e-05
2.882756862e-05
3.156019749e-05
3.399505117e-05
3.610585728e-05
3.79034877e-05
3.941817381e-05
4.06875008e-05
4.174894676e-05
4.26342344e-05
4.335851618e-05
4.387630062e-05
1.736239496e-05
1.883659663e-05
2.064152872e-05
2.267098985e-05
2.481390935e-05
2.697326392e-05
2.907430987e-05
3.106552966e-05
3.291565222e-05
3.460909976e-05
3.614068989e-05
3.750797146e-05
3.869072692e-05
3.956977588e-05
1.569829903e-05
1.627814839e-05
1.712728769e-05
1.82463869e-05
1.960520917e-05
2.115373348e-05
2.283371699e-05
2.458764383e-05
2.636435134e-05
2.812166749e-05
2.982675461e-05
3.145429088e-05
3.297995467e-05
3.435599607e-05
3.540981311e-05
1.630228741e-05
1.737859347e-05
1.883927102e-05
2.060219579e-05
2.255799065e-05
2.460020705e-05
2.664155873e-05
2.861883578e-05
3.049121941e-05
3.223580573e-05
3.384244243e-05
3.530855348e-05
3.663178318e-05
3.778970624e-05
3.865846739e-05
1.783954197e-05
2.01124631e-05
2.289370656e-05
2.5883062e-05
2.882765267e-05
3.156044983e-05
3.399545648e-05
3.61064007e-05
3.790414917e-05
3.941893345e-05
4.068834481e-05
4.17498612e-05
4.263520804e-05
4.335953043e-05
4.387736113e-05
2.065903537e-05
2.489613874e-05
2.944439155e-05
3.371671444e-05
3.740466093e-05
4.041311535e-05
4.277175481e-05
4.456744142e-05
4.590316083e-05
4.687693494e-05
4.757312122e-05
4.806034496e-05
4.83924988e-05
4.861024424e-05
4.873706773e-05
2.354913973e-05
2.933074853e-05
3.474687822e-05
3.928074246e-05
4.28344175e-05
4.549882892e-05
4.742722715e-05
4.877661305e-05
4.968486561e-05
5.026465144e-05
5.060448737e-05
5.077242836e-05
5.082088899e-05
5.079329662e-05
5.073738106e-05
2.065901875e-05
2.48960829e-05
2.944426003e-05
3.371649324e-05
3.740434446e-05
4.041271333e-05
4.277128062e-05
4.456690739e-05
4.590257807e-05
4.687631686e-05
4.757248343e-05
4.805968662e-05
4.839182339e-05
4.860956425e-05
4.873637237e-05
1.783957777e-05
2.011248546e-05
2.289365275e-05
2.58828946e-05
2.88273459e-05
3.155999919e-05
3.399487377e-05
3.610570358e-05
3.790334668e-05
3.941804292e-05
4.068738176e-05
4.174883752e-05
4.263413935e-05
4.335842486e-05
4.387620589e-05
1.630237117e-05
1.73786876e-05
1.883932211e-05
2.060216205e-05
2.255784474e-05
2.459993436e-05
2.664114148e-05
2.861827329e-05
3.049052609e-05
3.223498123e-05
3.384149958e-05
3.530749657e-05
3.663063269e-05
3.778846356e-05
3.865714797e-05
1.627826983e-05
1.712738076e-05
1.824642546e-05
1.960516615e-05
2.115358665e-05
2.283344364e-05
2.458722537e-05
2.636378571e-05
2.812094891e-05
2.982588853e-05
3.145327808e-05
3.297879942e-05
3.435470762e-05
3.540839515e-05
1.543102075e-05
1.578194185e-05
1.632129112e-05
1.70747722e-05
1.804776799e-05
1.922626285e-05
2.058121534e-05
2.207428366e-05
2.366332941e-05
2.530675356e-05
2.696622553e-05
2.86070414e-05
3.019274442e-05
3.165898342e-05
3.280131542e-05
1.569830261e-05
1.627815e-05
1.712728538e-05
1.824637516e-05
1.960518314e-05
2.115368853e-05
2.28336468e-05
2.45875455e-05
2.636422339e-05
2.812150665e-05
2.982656235e-05
3.14540707e-05
3.297970227e-05
3.435571478e-05
3.540949441e-05
1.62900188e-05
1.73621912e-05
1.883641326e-05
2.064140016e-05
2.267094195e-05
2.48139585e-05
2.697342267e-05
2.90745813e-05
3.106590788e-05
3.291612865e-05
3.460966931e-05
3.614134452e-05
3.750870273e-05
3.869153402e-05
3.957064586e-05
1.716596719e-05
1.892822941e-05
2.118717911e-05
2.3753687e-05
2.643717384e-05
2.908315821e-05
3.158403479e-05
3.387535347e-05
3.59265901e-05
3.773118646e-05
3.929792384e-05
4.064390725e-05
4.178743235e-05
4.273286813e-05
4.341171472e-05
1.781212706e-05
2.002826945e-05
2.270998556e-05
2.560748999e-05
2.85156647e-05
3.128997696e-05
3.38413181e-05
3.612414338e-05
3.81240927e-05
3.984744e-05
4.131285998e-05
4.254512523e-05
4.356910208e-05
4.439744691e-05
4.498175391e-05
1.716594866e-05
1.892819113e-05
2.118710539e-05
2.375356903e-05
2.643699716e-05
2.908292035e-05
3.158373627e-05
3.387500034e-05
3.592618371e-05
3.773073235e-05
3.929742981e-05
4.064338523e-05
4.178688629e-05
4.273229255e-05
4.341111503e-05
1.629000814e-05
1.73621674e-05
1.883635266e-05
2.064128036e-05
2.267074005e-05
2.481366711e-05
2.697303415e-05
2.907409361e-05
3.106532151e-05
3.291545421e-05
3.460891273e-05
3.614051256e-05
3.75078088e-05
3.86905785e-05
3.956963087e-05
1.569831312e-05
1.627816389e-05
1.712728106e-05
1.824633087e-05
1.960507196e-05
2.115349606e-05
2.283335052e-05
2.458713953e-05
2.636369913e-05
2.812086716e-05
2.982580764e-05
3.145319924e-05
3.297873056e-05
3.435464114e-05
3.540833099e-05
1.543104555e-05
1.578197764e-05
1.632132198e-05
1.707477824e-05
1.804772557e-05
1.922615016e-05
2.05810104e-05
2.207396877e-05
2.366288834e-05
2.530617324e-05
2.696550564e-05
2.86061798e-05
3.019174523e-05
3.165784491e-05
3.280004167e-05
)
;

boundaryField
{
    top
    {
        type            calculated;
        value           nonuniform List<scalar> 
127
(
1.543104555e-05
1.578198589e-05
1.627822077e-05
1.736231353e-05
1.892843154e-05
2.002854402e-05
1.892850788e-05
1.736239496e-05
1.627826983e-05
1.578197764e-05
1.632135514e-05
1.712738253e-05
1.883657819e-05
2.118743579e-05
2.271031367e-05
2.118746197e-05
1.883659663e-05
1.712738076e-05
1.632132198e-05
1.707485974e-05
1.824650527e-05
2.064161038e-05
2.375399499e-05
2.560785546e-05
2.375394012e-05
2.064152872e-05
1.824642546e-05
1.707477824e-05
1.804788239e-05
1.960534142e-05
2.267118343e-05
2.643751065e-05
2.851604715e-05
2.643736987e-05
2.267098985e-05
1.960516615e-05
1.804772557e-05
1.922640497e-05
2.115387999e-05
2.481423258e-05
2.908352073e-05
3.129036702e-05
2.908328416e-05
2.481390935e-05
2.115358665e-05
1.922615016e-05
2.058138201e-05
2.283386265e-05
2.697372149e-05
3.158440509e-05
3.384170643e-05
3.158408003e-05
2.697326392e-05
2.283344364e-05
2.05810104e-05
2.207447687e-05
2.45877857e-05
2.907489594e-05
3.38757282e-05
3.612452786e-05
3.387532257e-05
2.907430987e-05
2.458722537e-05
2.207396877e-05
2.366354727e-05
2.636448635e-05
3.106623248e-05
3.592696257e-05
3.812446891e-05
3.592649211e-05
3.106552966e-05
2.636378571e-05
2.366288834e-05
2.530699421e-05
2.812178853e-05
3.291646433e-05
3.773154899e-05
3.984779462e-05
3.77310269e-05
3.291565222e-05
2.812094891e-05
2.530617324e-05
2.696648438e-05
2.982685799e-05
3.461000912e-05
3.929828314e-05
4.131319479e-05
3.929770576e-05
3.460909976e-05
2.982588853e-05
2.696550564e-05
2.860731421e-05
3.145437303e-05
3.614168441e-05
4.06442599e-05
4.254544639e-05
4.064363936e-05
3.614068989e-05
3.145327808e-05
2.86061798e-05
3.019303153e-05
3.29800133e-05
3.750904072e-05
4.178777611e-05
4.356941393e-05
4.178712196e-05
3.750797146e-05
3.297879942e-05
3.019174523e-05
3.165927976e-05
3.435603145e-05
3.869186694e-05
4.273320371e-05
4.439774307e-05
4.273252136e-05
3.869072692e-05
3.435470762e-05
3.165784491e-05
3.280161524e-05
3.540981151e-05
3.957097668e-05
4.34120401e-05
4.498204536e-05
4.34113337e-05
3.956977588e-05
3.540839515e-05
3.280004167e-05
)
;
    }
    bottom
    {
        type            calculated;
        value           nonuniform List<scalar> 
134
(
1.569835039e-05
1.629004662e-05
1.716598237e-05
1.781212753e-05
1.716596645e-05
1.629001768e-05
1.569829903e-05
1.543102075e-05
1.578202438e-05
1.627823142e-05
1.736227715e-05
1.89283262e-05
2.002836717e-05
1.892827713e-05
1.736220063e-05
1.627814839e-05
1.578194185e-05
1.632139517e-05
1.712741204e-05
1.883657909e-05
2.118740615e-05
2.271024627e-05
2.118731472e-05
1.883645242e-05
1.712728769e-05
1.632129112e-05
1.707491057e-05
1.824655932e-05
2.064167117e-05
2.375408432e-05
2.560796349e-05
2.375395238e-05
2.064148571e-05
1.82463869e-05
1.70747722e-05
1.804795547e-05
1.960544079e-05
2.267133864e-05
2.643776788e-05
2.851637711e-05
2.643758351e-05
2.267108736e-05
1.960520917e-05
1.804776799e-05
1.922650913e-05
2.115403622e-05
2.481449672e-05
2.908396185e-05
3.129093195e-05
2.908373901e-05
2.481418037e-05
2.115373348e-05
1.922626285e-05
2.05815371e-05
2.283409753e-05
2.697411266e-05
3.158504109e-05
3.384250514e-05
3.158477184e-05
2.697372298e-05
2.283371699e-05
2.058121534e-05
2.207469244e-05
2.45881105e-05
2.907542531e-05
3.387655902e-05
3.612554618e-05
3.387624136e-05
2.907496408e-05
2.458764383e-05
2.207428366e-05
2.366383105e-05
2.636490747e-05
3.106690832e-05
3.592797632e-05
3.812568556e-05
3.59276214e-05
3.106637359e-05
2.636435134e-05
2.366332941e-05
2.530735914e-05
2.812231496e-05
3.29172778e-05
3.77327308e-05
3.984919281e-05
3.773233572e-05
3.291667181e-05
2.812166749e-05
2.530675356e-05
2.696694297e-05
2.982749529e-05
3.461095117e-05
3.929960785e-05
4.131475157e-05
3.929918286e-05
3.461028184e-05
2.982675461e-05
2.696622553e-05
2.860786659e-05
3.14551211e-05
3.614276024e-05
4.064571719e-05
4.254713077e-05
4.064526231e-05
3.614202363e-05
3.145429088e-05
2.86070414e-05
3.019367883e-05
3.298086854e-05
3.751022945e-05
4.178934841e-05
4.357120869e-05
4.178886813e-05
3.750944165e-05
3.297995467e-05
3.019274442e-05
3.166002923e-05
3.435699472e-05
3.869316278e-05
4.273487465e-05
4.439964479e-05
4.273437344e-05
3.86923255e-05
3.435599607e-05
3.165898342e-05
3.280247058e-05
3.541088747e-05
3.957238022e-05
4.341381907e-05
4.498405436e-05
4.341329927e-05
3.957149806e-05
3.540981311e-05
3.280131542e-05
)
;
    }
    side-walls
    {
        type            calculated;
        value           nonuniform List<scalar> 
261
(
1.578202438e-05
1.62782693e-05
1.736236504e-05
1.892846806e-05
2.002855539e-05
1.892843251e-05
1.736231197e-05
1.627821399e-05
1.578198589e-05
1.632139517e-05
1.712744608e-05
1.883667117e-05
2.118756013e-05
2.271046637e-05
2.118750867e-05
1.883659867e-05
1.712737998e-05
1.632135514e-05
1.707491057e-05
1.824659204e-05
2.064176266e-05
2.375425173e-05
2.560820906e-05
2.375418e-05
2.064166962e-05
1.824650907e-05
1.707485974e-05
1.804795547e-05
1.960547291e-05
2.26714293e-05
2.643793833e-05
2.851663743e-05
2.643784345e-05
2.267130324e-05
1.960536005e-05
1.804788239e-05
1.922650913e-05
2.11540685e-05
2.481458955e-05
2.908413551e-05
3.12911991e-05
2.908400867e-05
2.481442104e-05
2.115391519e-05
1.922640497e-05
2.05815371e-05
2.283412817e-05
2.697420717e-05
3.158521258e-05
3.384277747e-05
3.15850549e-05
2.69739874e-05
2.283392464e-05
2.058138201e-05
2.207469244e-05
2.458814064e-05
2.907551929e-05
3.387672727e-05
3.612582008e-05
3.387653193e-05
2.907524184e-05
2.458787357e-05
2.207447687e-05
2.366383105e-05
2.636494046e-05
3.10669958e-05
3.592814089e-05
3.812595527e-05
3.592791033e-05
3.106666147e-05
2.636460378e-05
2.366354727e-05
2.530735914e-05
2.812234996e-05
3.291736352e-05
3.773289514e-05
3.984945861e-05
3.773263185e-05
3.29169704e-05
2.812193646e-05
2.530699421e-05
2.696694297e-05
2.982752919e-05
3.461103629e-05
3.9299771e-05
4.131500498e-05
3.92994763e-05
3.461058518e-05
2.982703543e-05
2.696648438e-05
2.860786659e-05
3.145515443e-05
3.614284264e-05
4.064587594e-05
4.254738387e-05
4.064555374e-05
3.614232751e-05
3.145458391e-05
2.860731421e-05
3.019367883e-05
3.298090436e-05
3.751031445e-05
4.178950181e-05
4.357145325e-05
4.178914852e-05
3.750974558e-05
3.298025389e-05
3.019303153e-05
3.166002923e-05
3.435702758e-05
3.86932466e-05
4.273502634e-05
4.439988213e-05
4.273465332e-05
3.869262741e-05
3.435629927e-05
3.165927976e-05
3.280247058e-05
3.54109148e-05
3.957246324e-05
4.341397195e-05
4.498427952e-05
4.34135721e-05
3.957180125e-05
3.541012537e-05
3.280161524e-05
1.543102075e-05
1.569830261e-05
1.62900188e-05
1.716596719e-05
1.781212706e-05
1.716594866e-05
1.629000814e-05
1.569831312e-05
1.543104555e-05
1.578194185e-05
1.627815e-05
1.73621912e-05
1.892822941e-05
2.002826945e-05
1.892819113e-05
1.73621674e-05
1.627816389e-05
1.578197764e-05
1.632129112e-05
1.712728538e-05
1.883641326e-05
2.118717911e-05
2.270998556e-05
2.118710539e-05
1.883635266e-05
1.712728106e-05
1.632132198e-05
1.70747722e-05
1.824637516e-05
2.064140016e-05
2.3753687e-05
2.560748999e-05
2.375356903e-05
2.064128036e-05
1.824633087e-05
1.707477824e-05
1.804776799e-05
1.960518314e-05
2.267094195e-05
2.643717384e-05
2.85156647e-05
2.643699716e-05
2.267074005e-05
1.960507196e-05
1.804772557e-05
1.922626285e-05
2.115368853e-05
2.48139585e-05
2.908315821e-05
3.128997696e-05
2.908292035e-05
2.481366711e-05
2.115349606e-05
1.922615016e-05
2.058121534e-05
2.28336468e-05
2.697342267e-05
3.158403479e-05
3.38413181e-05
3.158373627e-05
2.697303415e-05
2.283335052e-05
2.05810104e-05
2.207428366e-05
2.45875455e-05
2.90745813e-05
3.387535347e-05
3.612414338e-05
3.387500034e-05
2.907409361e-05
2.458713953e-05
2.207396877e-05
2.366332941e-05
2.636422339e-05
3.106590788e-05
3.59265901e-05
3.81240927e-05
3.592618371e-05
3.106532151e-05
2.636369913e-05
2.366288834e-05
2.530675356e-05
2.812150665e-05
3.291612865e-05
3.773118646e-05
3.984744e-05
3.773073235e-05
3.291545421e-05
2.812086716e-05
2.530617324e-05
2.696622553e-05
2.982656235e-05
3.460966931e-05
3.929792384e-05
4.131285998e-05
3.929742981e-05
3.460891273e-05
2.982580764e-05
2.696550564e-05
2.86070414e-05
3.14540707e-05
3.614134452e-05
4.064390725e-05
4.254512523e-05
4.064338523e-05
3.614051256e-05
3.145319924e-05
2.86061798e-05
3.019274442e-05
3.297970227e-05
3.750870273e-05
4.178743235e-05
4.356910208e-05
4.178688629e-05
3.75078088e-05
3.297873056e-05
3.019174523e-05
3.165898342e-05
3.435571478e-05
3.869153402e-05
4.273286813e-05
4.439744691e-05
4.273229255e-05
3.86905785e-05
3.435464114e-05
3.165784491e-05
3.280131542e-05
3.540949441e-05
3.957064586e-05
4.341171472e-05
4.498175391e-05
4.341111503e-05
3.956963087e-05
3.540833099e-05
3.280004167e-05
)
;
    }
    inlet
    {
        type            calculated;
        value           nonuniform 0();
    }
    outlet
    {
        type            calculated;
        value           nonuniform List<scalar> 
81
(
3.280247058e-05
3.54109148e-05
3.957246324e-05
4.341397195e-05
4.498427952e-05
4.34135721e-05
3.957180125e-05
3.541012537e-05
3.280161524e-05
3.541088747e-05
3.865978396e-05
4.387908891e-05
4.873923847e-05
5.073978699e-05
4.873870174e-05
4.387821428e-05
3.865878202e-05
3.540981151e-05
3.957238022e-05
4.387902948e-05
5.085542039e-05
5.742076661e-05
6.014664071e-05
5.742004148e-05
5.085423237e-05
4.387768638e-05
3.957097668e-05
4.341381907e-05
4.873909452e-05
5.742066264e-05
6.565821963e-05
6.910304756e-05
6.56573212e-05
5.741917287e-05
4.873739949e-05
4.34120401e-05
4.498405436e-05
5.073956066e-05
6.014643853e-05
6.910292672e-05
7.286640665e-05
6.910188689e-05
6.014476414e-05
5.073766877e-05
4.498204536e-05
4.341329927e-05
4.87384139e-05
5.741974736e-05
6.565706771e-05
6.91017161e-05
6.565600812e-05
5.741809963e-05
4.873656193e-05
4.34113337e-05
3.957149806e-05
4.387789951e-05
5.085390348e-05
5.741886011e-05
6.01444943e-05
5.741796394e-05
5.085248843e-05
4.387630062e-05
3.956977588e-05
3.540981311e-05
3.865846739e-05
4.387736113e-05
4.873706773e-05
5.073738106e-05
4.873637237e-05
4.387620589e-05
3.865714797e-05
3.540839515e-05
3.280131542e-05
3.540949441e-05
3.957064586e-05
4.341171472e-05
4.498175391e-05
4.341111503e-05
3.956963087e-05
3.540833099e-05
3.280004167e-05
)
;
    }
    procBoundary1to0
    {
        type            processor;
        value           nonuniform List<scalar> 
97
(
1.54310442e-05
1.54310442e-05
1.569830899e-05
1.628998212e-05
1.716585436e-05
1.78119508e-05
1.716582589e-05
1.62899361e-05
1.569825956e-05
1.543099838e-05
1.535112403e-05
1.630237825e-05
1.630237825e-05