/*--------------------------------*- C++ -*----------------------------------*\
| =========                 |                                                 |
| \\      /  F ield         | OpenFOAM: The Open Source CFD Toolbox           |
|  \\    /   O peration     | Version:  4.x                                   |
|   \\  /    A nd           | Web:      www.OpenFOAM.org                      |
|    \\/     M anipulation  |                                                 |
\*---------------------------------------------------------------------------*/
FoamFile
{
    version     2.0;
    format      ascii;
    class       volScalarField;
    location    "11000";
    object      X_H2;
}
// * * * * * * * * * * * * * * * * * * * * * * * * * * * * * * * * * * * * * //

dimensions      [0 0 0 0 0 0 0];

internalField   nonuniform List<scalar> 
1174
(
0.05987594894
0.05987540974
0.05987465647
0.05987368377
0.05987250564
0.05987115114
0.05986965862
0.05986807021
0.0598664275
0.05986476882
0.05986312886
0.05986154405
0.05986007871
0.05985893709
0.05987545285
0.05987460391
0.0598734851
0.05987212665
0.0598705786
0.05986889918
0.0598671459
0.05986536993
0.05986361343
0.05986190922
0.05986028262
0.05985875792
0.05985738283
0.05985632975
0.05987436902
0.05987289507
0.05987109044
0.05986906136
0.0598669189
0.05986476008
0.05986265965
0.05986066913
0.05985881977
0.05985712715
0.05985559643
0.05985423005
0.05985304816
0.05985216976
0.05987280319
0.05987054456
0.05986797846
0.0598652955
0.05986265014
0.05986014999
0.05985785948
0.05985580912
0.05985400545
0.05985243968
0.05985109469
0.05984995217
0.05984900769
0.05984832955
0.05987170321
0.05986902179
0.0598661247
0.05986321705
0.05986044338
0.05985789277
0.05985561077
0.05985361171
0.05985188931
0.05985042487
0.05984919361
0.05984817065
0.05984734325
0.05984675964
0.05987280321
0.05987054458
0.05986797849
0.05986529554
0.05986265018
0.05986015004
0.05985785953
0.05985580918
0.05985400551
0.05985243975
0.05985109476
0.05984995224
0.05984900776
0.05984832963
0.05987436904
0.0598728951
0.05987109049
0.05986906141
0.05986691896
0.05986476015
0.05986265973
0.05986066922
0.05985881987
0.05985712726
0.05985559655
0.05985423017
0.05985304829
0.0598521699
0.05987545287
0.05987460395
0.05987348515
0.05987212671
0.05987057867
0.05986889926
0.059867146
0.05986537004
0.05986361356
0.05986190936
0.05986028277
0.05985875808
0.059857383
0.05985632993
0.05987594896
0.05987540977
0.05987465651
0.05987368381
0.0598725057
0.05987115121
0.0598696587
0.05986807031
0.05986642761
0.05986476895
0.059863129
0.05986154421
0.05986007888
0.05985893727
0.05987603256
0.05987545285
0.05987460392
0.0598734851
0.05987212666
0.0598705786
0.05986889918
0.05986714591
0.05986536994
0.05986361344
0.05986190923
0.05986028262
0.05985875793
0.05985738283
0.05985632976
0.05987435258
0.0598728922
0.05987112966
0.05986917434
0.0598671327
0.05986509202
0.05986311551
0.05986124395
0.05985950025
0.05985789455
0.05985642941
0.05985510717
0.05985395021
0.05985308218
0.05987161906
0.0598688382
0.05986584935
0.05986290539
0.05986017332
0.05985773913
0.05985562907
0.05985383226
0.05985231845
0.05985105004
0.05984998954
0.0598491052
0.05984838184
0.05984786472
0.05986683572
0.05986228788
0.05985801613
0.05985432892
0.05985132131
0.0598489636
0.0598471689
0.05984583421
0.05984486148
0.05984416634
0.05984368017
0.05984334904
0.05984313224
0.05984300611
0.05986240112
0.05985698532
0.05985245204
0.05984889913
0.05984623561
0.0598443082
0.05984295985
0.05984205266
0.05984147394
0.05984113518
0.05984096831
0.05984092088
0.05984094942
0.05984100602
0.05986683579
0.05986228796
0.05985801623
0.05985432902
0.05985132142
0.05984896371
0.05984716902
0.05984583432
0.05984486159
0.05984416645
0.05984368028
0.05984334915
0.05984313235
0.05984300622
0.05987161916
0.05986883832
0.05986584949
0.05986290554
0.05986017348
0.0598577393
0.05985562924
0.05985383244
0.05985231863
0.05985105022
0.05984998972
0.05984910539
0.05984838202
0.0598478649
0.05987435265
0.05987289227
0.05987112974
0.05986917445
0.05986713282
0.05986509216
0.05986311565
0.05986124411
0.05985950042
0.05985789473
0.0598564296
0.05985510737
0.05985395041
0.05985308239
0.05987545287
0.05987460395
0.05987348515
0.05987212671
0.05987057867
0.05986889927
0.05986714602
0.05986537006
0.05986361358
0.05986190939
0.0598602828
0.05985875812
0.05985738304
0.05985632998
0.059875441
0.05987436902
0.05987289508
0.05987109045
0.05986906137
0.0598669189
0.05986476009
0.05986265966
0.05986066914
0.05985881978
0.05985712716
0.05985559644
0.05985423006
0.05985304817
0.05985216977
0.05987389171
0.05987161907
0.05986883821
0.05986584936
0.05986290539
0.05986017332
0.05985773913
0.05985562907
0.05985383226
0.05985231845
0.05985105004
0.05984998954
0.05984910521
0.05984838184
0.05984786473
0.05986367045
0.05985793496
0.05985281592
0.05984868129
0.05984558403
0.0598434088
0.05984197728
0.05984110785
0.05984064279
0.05984045641
0.05984045366
0.05984056412
0.05984073168
0.0598408906
0.05984627275
0.05983679688
0.059830406
0.05982675484
0.05982515386
0.05982493512
0.05982557274
0.05982669327
0.05982804822
0.05982948012
0.0598308928
0.05983222578
0.05983342056
0.05983432713
0.05982387844
0.05981467247
0.05981092562
0.05981049532
0.05981188502
0.05981416938
0.05981680956
0.059819505
0.05982209589
0.05982450358
0.05982669416
0.05982865245
0.05983034521
0.05983160178
0.05984627314
0.05983679728
0.05983040637
0.05982675518
0.05982515415
0.05982493538
0.05982557297
0.05982669348
0.05982804841
0.05982948029
0.05983089296
0.05983222592
0.0598334207
0.05983432726
0.05986367082
0.05985793533
0.0598528163
0.05984868167
0.0598455844
0.05984340916
0.05984197762
0.05984110817
0.05984064309
0.05984045669
0.05984045392
0.05984056437
0.05984073192
0.05984089084
0.05987161917
0.05986883834
0.05986584953
0.05986290559
0.05986017355
0.05985773937
0.05985562932
0.05985383252
0.05985231872
0.05985105031
0.05984998982
0.05984910549
0.05984838212
0.05984786501
0.05987436905
0.05987289512
0.05987109051
0.05986906145
0.05986691901
0.05986476022
0.05986265981
0.05986066932
0.05985881998
0.05985712738
0.05985559667
0.05985423031
0.05985304843
0.05985217004
0.05987456523
0.0598728032
0.05987054457
0.05986797848
0.05986529552
0.05986265016
0.05986015001
0.0598578595
0.05985580914
0.05985400547
0.0598524397
0.05985109471
0.05984995219
0.05984900771
0.05984832957
0.05987107254
0.0598668357
0.05986228787
0.05985801612
0.0598543289
0.05985132129
0.05984896359
0.0598471689
0.05984583421
0.05984486148
0.05984416635
0.05984368018
0.05984334905
0.05984313226
0.05984300613
0.05985804757
0.05984627273
0.05983679689
0.05983040602
0.05982675486
0.05982515389
0.05982493516
0.05982557278
0.05982669331
0.05982804827
0.05982948016
0.05983089285
0.05983222582
0.0598334206
0.05983432716
0.05978746536
0.05977610811
0.05977474926
0.05977866234
0.05978482816
0.05979158258
0.05979810582
0.0598040484
0.05980930313
0.05981387784
0.059817827
0.05982121031
0.05982403892
0.05982609172
0.0596739694
0.0596901593
0.05971382521
0.05973614336
0.05975491913
0.05977012843
0.05978233236
0.05979214942
0.05980010566
0.05980661226
0.05981197871
0.05981642487
0.05982005375
0.05982264744
0.05978746659
0.05977610898
0.0597747499
0.05977866283
0.05978482854
0.05979158287
0.05979810606
0.0598040486
0.0598093033
0.05981387799
0.05981782714
0.05982121044
0.05982403904
0.05982609184
0.05984627313
0.05983679734
0.05983040649
0.05982675533
0.05982515433
0.05982493557
0.05982557316
0.05982669367
0.05982804859
0.05982948047
0.05983089313
0.05983222609
0.05983342085
0.05983432741
0.05986683585
0.05986228808
0.05985801639
0.05985432922
0.05985132164
0.05984896395
0.05984716926
0.05984583458
0.05984486185
0.05984416671
0.05984368053
0.0598433494
0.0598431326
0.05984300646
0.05987280323
0.05987054463
0.05986797857
0.05986529565
0.05986265033
0.05986015021
0.05985785973
0.0598558094
0.05985400575
0.05985244
0.05985109502
0.05984995251
0.05984900804
0.05984832991
0.05987391915
0.05987170324
0.05986902184
0.05986612475
0.05986321711
0.05986044344
0.05985789283
0.05985561082
0.05985361176
0.05985188936
0.05985042492
0.05984919366
0.05984817069
0.0598473433
0.05984675969
0.05986818264
0.0598624012
0.05985698544
0.05985245216
0.05984889924
0.05984623571
0.05984430828
0.05984295993
0.05984205273
0.05984147401
0.05984113524
0.05984096836
0.05984092093
0.05984094947
0.05984100606
0.0598406618
0.05982387862
0.05981467275
0.05981092586
0.05981049551
0.05981188516
0.05981416948
0.05981680965
0.05981950507
0.05982209596
0.05982450364
0.05982669421
0.0598286525
0.05983034526
0.05983160182
0.05969285787
0.05967397003
0.0596901597
0.05971382544
0.05973614348
0.0597549192
0.05977012847
0.05978233239
0.05979214944
0.05980010568
0.05980661228
0.05981197873
0.05981642489
0.05982005377
0.05982264746
0.0591911717
0.05944121091
0.05957840979
0.05965817363
0.05970733816
0.05973939987
0.0597614177
0.0597772381
0.05978904697
0.05979813986
0.05980531442
0.05981106772
0.05981565444
0.05981888449
0.0596739697
0.05969016031
0.05971382605
0.05973614399
0.05975491961
0.05977012881
0.05978233268
0.05979214968
0.0598001059
0.05980661248
0.0598119789
0.05981642505
0.05982005393
0.0598226476
0.0598238787
0.05981467301
0.05981092622
0.05981049591
0.05981188557
0.05981416988
0.05981681002
0.05981950542
0.05982209629
0.05982450395
0.05982669451
0.05982865278
0.05983034552
0.05983160208
0.05986240128
0.0598569856
0.05985245239
0.05984889952
0.05984623603
0.05984430862
0.05984296028
0.05984205309
0.05984147436
0.05984113559
0.05984096871
0.05984092127
0.05984094981
0.0598410064
0.05987170326
0.0598690219
0.05986612485
0.05986321725
0.05986044362
0.05985789306
0.05985561108
0.05985361205
0.05985188967
0.05985042525
0.059849194
0.05984817104
0.05984734365
0.05984676005
0.05987456524
0.05987280323
0.05987054461
0.05986797853
0.05986529558
0.05986265023
0.05986015009
0.05985785958
0.05985580923
0.05985400557
0.0598524398
0.05985109481
0.0598499523
0.05984900782
0.05984832968
0.05987107264
0.05986683586
0.05986228806
0.05985801633
0.05985432912
0.05985132151
0.0598489638
0.0598471691
0.0598458344
0.05984486167
0.05984416652
0.05984368035
0.05984334921
0.05984313241
0.05984300628
0.05985804803
0.05984627323
0.05983679742
0.05983040652
0.05982675531
0.05982515428
0.0598249355
0.05982557308
0.05982669358
0.0598280485
0.05982948038
0.05983089304
0.059832226
0.05983342077
0.05983432733
0.05981409444
0.05978746694
0.05977610936
0.05977475022
0.05977866309
0.05978482875
0.05979158306
0.05979810621
0.05980404873
0.05980930342
0.05981387809
0.05981782723
0.05982121051
0.05982403911
0.0598260919
0.05969285778
0.05967397022
0.05969016076
0.05971382645
0.05973614434
0.05975491991
0.05977012906
0.0597823329
0.05979214987
0.05980010606
0.05980661261
0.05981197901
0.05981642515
0.05982005401
0.05982264768
0.05981409414
0.05978746697
0.05977610955
0.05977475048
0.05977866338
0.05978482905
0.05979158335
0.05979810649
0.05980404899
0.05980930366
0.05981387832
0.05981782744
0.05982121071
0.0598240393
0.05982609208
0.05984627283
0.0598367973
0.05983040657
0.05982675548
0.05982515451
0.05982493576
0.05982557336
0.05982669387
0.05982804879
0.05982948066
0.05983089332
0.05983222627
0.05983342103
0.05983432758
0.05986683577
0.05986228804
0.05985801639
0.05985432925
0.0598513217
0.05984896403
0.05984716936
0.05984583468
0.05984486196
0.05984416682
0.05984368065
0.05984334952
0.05984313272
0.05984300659
0.05987280321
0.05987054461
0.05986797857
0.05986529566
0.05986265035
0.05986015025
0.05985785978
0.05985580946
0.05985400582
0.05985244008
0.05985109511
0.05984995261
0.05984900814
0.05984833001
0.05987544102
0.05987436906
0.05987289513
0.05987109052
0.05986906146
0.05986691901
0.05986476021
0.05986265979
0.05986066928
0.05985881993
0.05985712732
0.05985559661
0.05985423024
0.05985304835
0.05985216996
0.0598738918
0.05987161919
0.05986883837
0.05986584955
0.0598629056
0.05986017355
0.05985773937
0.05985562931
0.0598538325
0.05985231869
0.05985105028
0.05984998979
0.05984910545
0.05984838208
0.05984786497
0.05986921654
0.05986367088
0.05985793541
0.05985281639
0.05984868175
0.05984558448
0.05984340924
0.0598419777
0.05984110825
0.05984064317
0.05984045677
0.059840454
0.05984056444
0.05984073198
0.0598408909
0.05985804805
0.05984627332
0.05983679756
0.05983040669
0.05982675551
0.05982515448
0.0598249357
0.05982557328
0.05982669377
0.05982804869
0.05982948055
0.05983089321
0.05983222616
0.05983342092
0.05983432747
0.05984066169
0.05982387878
0.05981467311
0.05981092633
0.05981049602
0.05981188569
0.05981417
0.05981681015
0.05981950554
0.0598220964
0.05982450405
0.0598266946
0.05982865286
0.05983034561
0.05983160215
0.05985804799
0.05984627327
0.05983679754
0.05983040671
0.05982675556
0.05982515457
0.05982493582
0.05982557341
0.05982669391
0.05982804883
0.0598294807
0.05983089335
0.0598322263
0.05983342106
0.05983432761
0.05986921638
0.05986367072
0.0598579353
0.05985281633
0.05984868175
0.05984558454
0.05984340934
0.05984197783
0.05984110841
0.05984064334
0.05984045695
0.05984045419
0.05984056464
0.05984073219
0.05984089111
0.05987161908
0.0598688383
0.05986584952
0.05986290561
0.0598601736
0.05985773946
0.05985562944
0.05985383266
0.05985231887
0.05985105048
0.05984999
0.05984910568
0.05984838232
0.05984786521
0.05987436902
0.0598728951
0.05987109051
0.05986906147
0.05986691905
0.05986476028
0.0598626599
0.05986066942
0.0598588201
0.05985712751
0.05985559683
0.05985423047
0.0598530486
0.05985217023
0.05987603258
0.05987545289
0.05987460397
0.05987348517
0.05987212675
0.05987057871
0.05986889931
0.05986714605
0.0598653701
0.05986361362
0.05986190942
0.05986028283
0.05985875815
0.05985738306
0.05985633
0.05987542875
0.05987435266
0.0598728923
0.05987112977
0.05986917448
0.05986713287
0.05986509221
0.0598631157
0.05986124416
0.05985950048
0.05985789479
0.05985642966
0.05985510743
0.05985395047
0.05985308245
0.0598738918
0.05987161919
0.05986883838
0.05986584956
0.05986290563
0.05986017359
0.05985773941
0.05985562937
0.05985383257
0.05985231877
0.05985105036
0.05984998987
0.05984910554
0.05984838217
0.05984786506
0.05987107265
0.0598668359
0.05986228814
0.05985801645
0.05985432927
0.05985132169
0.05984896401
0.05984716932
0.05984583463
0.0598448619
0.05984416676
0.05984368058
0.05984334945
0.05984313265
0.05984300652
0.05986818264
0.05986240129
0.05985698561
0.05985245239
0.05984889953
0.05984623604
0.05984430864
0.0598429603
0.05984205312
0.0598414744
0.05984113563
0.05984096875
0.05984092131
0.05984094985
0.05984100644
0.05987107263
0.05986683588
0.05986228812
0.05985801644
0.05985432928
0.05985132171
0.05984896404
0.05984716937
0.05984583469
0.05984486197
0.05984416684
0.05984368067
0.05984334954
0.05984313274
0.05984300661
0.05987389178
0.05987161917
0.05986883837
0.05986584957
0.05986290566
0.05986017364
0.05985773948
0.05985562946
0.05985383268
0.05985231889
0.0598510505
0.05984999002
0.05984910569
0.05984838233
0.05984786523
0.05987542872
0.05987435263
0.05987289227
0.05987112976
0.05986917449
0.05986713289
0.05986509226
0.05986311578
0.05986124426
0.05985950059
0.05985789492
0.05985642982
0.0598551076
0.05985395066
0.05985308265
0.05987545285
0.05987460394
0.05987348515
0.05987212673
0.05987057871
0.05986889933
0.05986714609
0.05986537016
0.0598636137
0.05986190953
0.05986028297
0.0598587583
0.05985738324
0.0598563302
0.05987629978
0.05987594896
0.05987540978
0.05987465653
0.05987368383
0.05987250573
0.05987115125
0.05986965875
0.05986807036
0.05986642767
0.059864769
0.05986312906
0.05986154427
0.05986007895
0.05985893734
0.05987603258
0.05987545288
0.05987460397
0.05987348517
0.05987212675
0.05987057871
0.05986889931
0.05986714606
0.05986537011
0.05986361363
0.05986190944
0.05986028286
0.05985875818
0.0598573831
0.05985633004
0.05987544102
0.05987436906
0.05987289514
0.05987109054
0.05986906149
0.05986691905
0.05986476026
0.05986265986
0.05986066936
0.05985882003
0.05985712743
0.05985559673
0.05985423036
0.05985304848
0.0598521701
0.05987456525
0.05987280325
0.05987054466
0.0598679786
0.05986529568
0.05986265036
0.05986015025
0.05985785977
0.05985580943
0.05985400579
0.05985244004
0.05985109506
0.05984995255
0.05984900808
0.05984832995
0.05987391916
0.05987170328
0.05986902191
0.05986612487
0.05986321727
0.05986044364
0.05985789308
0.0598556111
0.05985361207
0.05985188969
0.05985042527
0.05984919403
0.05984817107
0.05984734368
0.05984676008
0.05987456525
0.05987280325
0.05987054466
0.05986797862
0.0598652957
0.05986265039
0.05986015029
0.05985785981
0.05985580949
0.05985400585
0.05985244011
0.05985109514
0.05984995264
0.05984900817
0.05984833004
0.05987544103
0.05987436907
0.05987289515
0.05987109057
0.05986906153
0.05986691911
0.05986476033
0.05986265995
0.05986066947
0.05985882015
0.05985712756
0.05985559687
0.05985423051
0.05985304864
0.05985217026
0.05987603258
0.05987545288
0.05987460396
0.05987348517
0.05987212676
0.05987057874
0.05986889936
0.05986714612
0.05986537019
0.05986361373
0.05986190956
0.05986028299
0.05985875833
0.05985738326
0.05985633022
0.05987629977
0.05987594895
0.05987540976
0.05987465651
0.05987368383
0.05987250573
0.05987115126
0.05986965878
0.0598680704
0.05986642773
0.05986476909
0.05986312917
0.05986154441
0.0598600791
0.05985893751
)
;

boundaryField
{
    top
    {
        type            calculated;
        value           nonuniform List<scalar> 
127
(
0.05987629977
0.05987594896
0.05987545287
0.05987436905
0.05987280323
0.05987170326
0.05987280321
0.05987436902
0.05987545285
0.05987594895
0.05987540977
0.05987460395
0.05987289512
0.05987054463
0.0598690219
0.05987054461
0.0598728951
0.05987460394
0.05987540976
0.05987465651
0.05987348515
0.05987109051
0.05986797857
0.05986612485
0.05986797857
0.05987109051
0.05987348515
0.05987465651
0.05987368381
0.05987212671
0.05986906145
0.05986529565
0.05986321725
0.05986529566
0.05986906147
0.05987212673
0.05987368383
0.0598725057
0.05987057867
0.05986691901
0.05986265033
0.05986044362
0.05986265035
0.05986691905
0.05987057871
0.05987250573
0.05987115121
0.05986889927
0.05986476022
0.05986015021
0.05985789306
0.05986015025
0.05986476028
0.05986889933
0.05987115126
0.0598696587
0.05986714602
0.05986265981
0.05985785973
0.05985561108
0.05985785978
0.0598626599
0.05986714609
0.05986965878
0.05986807031
0.05986537006
0.05986066932
0.0598558094
0.05985361205
0.05985580946
0.05986066942
0.05986537016
0.0598680704
0.05986642761
0.05986361358
0.05985881998
0.05985400575
0.05985188967
0.05985400582
0.0598588201
0.0598636137
0.05986642773
0.05986476895
0.05986190939
0.05985712738
0.05985244
0.05985042525
0.05985244008
0.05985712751
0.05986190953
0.05986476909
0.059863129
0.0598602828
0.05985559667
0.05985109502
0.059849194
0.05985109511
0.05985559683
0.05986028297
0.05986312917
0.05986154421
0.05985875812
0.05985423031
0.05984995251
0.05984817104
0.05984995261
0.05985423047
0.0598587583
0.05986154441
0.05986007888
0.05985738304
0.05985304843
0.05984900804
0.05984734365
0.05984900814
0.0598530486
0.05985738324
0.0598600791
0.05985893727
0.05985632998
0.05985217004
0.05984832991
0.05984676005
0.05984833001
0.05985217023
0.0598563302
0.05985893751
)
;
    }
    bottom
    {
        type            calculated;
        value           nonuniform List<scalar> 
134
(
0.05987603256
0.059875441
0.05987456523
0.05987391915
0.05987456524
0.05987544102
0.05987603258
0.05987629978
0.05987594894
0.05987545285
0.05987436902
0.0598728032
0.05987170324
0.05987280323
0.05987436906
0.05987545289
0.05987594896
0.05987540974
0.05987460392
0.05987289508
0.05987054457
0.05986902184
0.05987054461
0.05987289513
0.05987460397
0.05987540978
0.05987465647
0.0598734851
0.05987109045
0.05986797848
0.05986612475
0.05986797853
0.05987109052
0.05987348517
0.05987465653
0.05987368377
0.05987212666
0.05986906137
0.05986529552
0.05986321711
0.05986529558
0.05986906146
0.05987212675
0.05987368383
0.05987250564
0.0598705786
0.0598669189
0.05986265016
0.05986044344
0.05986265023
0.05986691901
0.05987057871
0.05987250573
0.05987115114
0.05986889918
0.05986476009
0.05986015001
0.05985789283
0.05986015009
0.05986476021
0.05986889931
0.05987115125
0.05986965862
0.05986714591
0.05986265966
0.0598578595
0.05985561082
0.05985785958
0.05986265979
0.05986714605
0.05986965875
0.05986807021
0.05986536994
0.05986066914
0.05985580914
0.05985361176
0.05985580923
0.05986066928
0.0598653701
0.05986807036
0.0598664275
0.05986361344
0.05985881978
0.05985400547
0.05985188936
0.05985400557
0.05985881993
0.05986361362
0.05986642767
0.05986476882
0.05986190923
0.05985712716
0.0598524397
0.05985042492
0.0598524398
0.05985712732
0.05986190942
0.059864769
0.05986312886
0.05986028262
0.05985559644
0.05985109471
0.05984919366
0.05985109481
0.05985559661
0.05986028283
0.05986312906
0.05986154405
0.05985875793
0.05985423006
0.05984995219
0.05984817069
0.0598499523
0.05985423024
0.05985875815
0.05986154427
0.05986007871
0.05985738283
0.05985304817
0.05984900771
0.0598473433
0.05984900782
0.05985304835
0.05985738306
0.05986007895
0.05985893709
0.05985632976
0.05985216977
0.05984832957
0.05984675969
0.05984832968
0.05985216996
0.05985633
0.05985893734
)
;
    }
    side-walls
    {
        type            calculated;
        value           nonuniform List<scalar> 
261
(
0.05987594894
0.05987545285
0.05987436902
0.05987280319
0.05987170321
0.05987280321
0.05987436904
0.05987545287
0.05987594896
0.05987540974
0.05987460391
0.05987289507
0.05987054456
0.05986902179
0.05987054458
0.0598728951
0.05987460395
0.05987540977
0.05987465647
0.0598734851
0.05987109044
0.05986797846
0.0598661247
0.05986797849
0.05987109049
0.05987348515
0.05987465651
0.05987368377
0.05987212665
0.05986906136
0.0598652955
0.05986321705
0.05986529554
0.05986906141
0.05987212671
0.05987368381
0.05987250564
0.0598705786
0.0598669189
0.05986265014
0.05986044338
0.05986265018
0.05986691896
0.05987057867
0.0598725057
0.05987115114
0.05986889918
0.05986476008
0.05986014999
0.05985789277
0.05986015004
0.05986476015
0.05986889926
0.05987115121
0.05986965862
0.0598671459
0.05986265965
0.05985785948
0.05985561077
0.05985785953
0.05986265973
0.059867146
0.0598696587
0.05986807021
0.05986536993
0.05986066913
0.05985580912
0.05985361171
0.05985580918
0.05986066922
0.05986537004
0.05986807031
0.0598664275
0.05986361343
0.05985881977
0.05985400545
0.05985188931
0.05985400551
0.05985881987
0.05986361356
0.05986642761
0.05986476882
0.05986190922
0.05985712715
0.05985243968
0.05985042487
0.05985243975
0.05985712726
0.05986190936
0.05986476895
0.05986312886
0.05986028262
0.05985559643
0.05985109469
0.05984919361
0.05985109476
0.05985559655
0.05986028277
0.059863129
0.05986154405
0.05985875792
0.05985423005
0.05984995217
0.05984817065
0.05984995224
0.05985423017
0.05985875808
0.05986154421
0.05986007871
0.05985738283
0.05985304816
0.05984900769
0.05984734325
0.05984900776
0.05985304829
0.059857383
0.05986007888
0.05985893709
0.05985632975
0.05985216976
0.05984832955
0.05984675964
0.05984832963
0.0598521699
0.05985632993
0.05985893727
0.05987629978
0.05987603258
0.05987544102
0.05987456525
0.05987391916
0.05987456525
0.05987544103
0.05987603258
0.05987629977
0.05987594896
0.05987545288
0.05987436906
0.05987280325
0.05987170328
0.05987280325
0.05987436907
0.05987545288
0.05987594895
0.05987540978
0.05987460397
0.05987289514
0.05987054466
0.05986902191
0.05987054466
0.05987289515
0.05987460396
0.05987540976
0.05987465653
0.05987348517
0.05987109054
0.0598679786
0.05986612487
0.05986797862
0.05987109057
0.05987348517
0.05987465651
0.05987368383
0.05987212675
0.05986906149
0.05986529568
0.05986321727
0.0598652957
0.05986906153
0.05987212676
0.05987368383
0.05987250573
0.05987057871
0.05986691905
0.05986265036
0.05986044364
0.05986265039
0.05986691911
0.05987057874
0.05987250573
0.05987115125
0.05986889931
0.05986476026
0.05986015025
0.05985789308
0.05986015029
0.05986476033
0.05986889936
0.05987115126
0.05986965875
0.05986714606
0.05986265986
0.05985785977
0.0598556111
0.05985785981
0.05986265995
0.05986714612
0.05986965878
0.05986807036
0.05986537011
0.05986066936
0.05985580943
0.05985361207
0.05985580949
0.05986066947
0.05986537019
0.0598680704
0.05986642767
0.05986361363
0.05985882003
0.05985400579
0.05985188969
0.05985400585
0.05985882015
0.05986361373
0.05986642773
0.059864769
0.05986190944
0.05985712743
0.05985244004
0.05985042527
0.05985244011
0.05985712756
0.05986190956
0.05986476909
0.05986312906
0.05986028286
0.05985559673
0.05985109506
0.05984919403
0.05985109514
0.05985559687
0.05986028299
0.05986312917
0.05986154427
0.05985875818
0.05985423036
0.05984995255
0.05984817107
0.05984995264
0.05985423051
0.05985875833
0.05986154441
0.05986007895
0.0598573831
0.05985304848
0.05984900808
0.05984734368
0.05984900817
0.05985304864
0.05985738326
0.0598600791
0.05985893734
0.05985633004
0.0598521701
0.05984832995
0.05984676008
0.05984833004
0.05985217026
0.05985633022
0.05985893751
)
;
    }
    inlet
    {
        type            calculated;
        value           nonuniform 0();
    }
    outlet
    {
        type            calculated;
        value           nonuniform List<scalar> 
81
(
0.05985893709
0.05985632975
0.05985216976
0.05984832955
0.05984675964
0.05984832963
0.0598521699
0.05985632993
0.05985893727
0.05985632976
0.05985308218
0.05984786472
0.05984300611
0.05984100602
0.05984300622
0.0598478649
0.05985308239
0.05985632998
0.05985216977
0.05984786473
0.0598408906
0.05983432713
0.05983160178
0.05983432726
0.05984089084
0.05984786501
0.05985217004
0.05984832957
0.05984300613
0.05983432716
0.05982609172
0.05982264744
0.05982609184
0.05983432741
0.05984300646
0.05984832991
0.05984675969
0.05984100606
0.05983160182
0.05982264746
0.05981888449
0.0598226476
0.05983160208
0.0598410064
0.05984676005
0.05984832968
0.05984300628
0.05983432733
0.0598260919
0.05982264768
0.05982609208
0.05983432758
0.05984300659
0.05984833001
0.05985216996
0.05984786497
0.0598408909
0.05983432747
0.05983160215
0.05983432761
0.05984089111
0.05984786521
0.05985217023
0.05985633
0.05985308245
0.05984786506
0.05984300652
0.05984100644
0.05984300661
0.05984786523
0.05985308265
0.0598563302
0.05985893734
0.05985633004
0.0598521701
0.05984832995
0.05984676008
0.05984833004
0.05985217026
0.05985633022
0.05985893751
)
;
    }
    procBoundary1to0
    {
        type            processor;
        value           nonuniform List<scalar> 
97
(
0.05987629977
0.05987629977
0.05987603257
0.05987544102
0.05987456527
0.05987391919
0.05987456528
0.05987544104
0.05987603259
0.05987629978
0.05987637961
0.05987542871
0.05987542871
0.05987542871
0.05987389177
0.05987107267
0.05986818273
0.05987107272
0.05987389185
0.05987542877
0.05987603259
0.05987610818
0.0598754195
0.05986921633
0.05986921633
0.05986921633
0.059858048
0.0598406622
0.05985804836
0.05986921667
0.05987389185
0.05987544104
0.05987571604
0.05987422156
0.05986907216
0.05981409336
0.05981409336
0.05981409336
0.05969286009
0.05981409527
0.05985804833
0.05987107275
0.05987456529
0.05987544053
0.0598731108
0.0598634635
0.05982594054
0.05870863211
0.05870863211
0.05870863211
0.05969286029
0.05969286029
0.05984066235
0.05986818283
0.05987391922
0.05987571604
0.05987422159
0.05986907223
0.05985434853
0.05982594034
0.05985434853
0.05985804781
0.05985804781
0.05985804781
0.05987107267
0.05987456527
0.05987610819
0.05987541952
0.059873429
0.05986907224
0.05986346341
0.05986907221
0.05987342897
0.05987389174
0.05987389174
0.05987389174
0.05987544102
0.05987637962
0.05987610408
0.05987541951
0.05987422159
0.0598731108
0.05987422158
0.05987541951
0.05987610408
0.05987603256
0.05987603256
0.05987603256
0.05987650385
0.05987637962
0.05987610819
0.05987571604
0.05987544053
0.05987571604
0.05987610819
0.05987637962
0.05987650385
)
;
    }
}


// ************************************************************************* //
