/*--------------------------------*- C++ -*----------------------------------*\
| =========                 |                                                 |
| \\      /  F ield         | OpenFOAM: The Open Source CFD Toolbox           |
|  \\    /   O peration     | Version:  4.x                                   |
|   \\  /    A nd           | Web:      www.OpenFOAM.org                      |
|    \\/     M anipulation  |                                                 |
\*---------------------------------------------------------------------------*/
FoamFile
{
    version     2.0;
    format      ascii;
    class       volScalarField;
    location    "1000";
    object      CO;
}
// * * * * * * * * * * * * * * * * * * * * * * * * * * * * * * * * * * * * * //

dimensions      [0 0 0 0 0 0 0];

internalField   nonuniform List<scalar> 
1174
(
0.3315752435
0.3315696739
0.3315618149
0.3315515694
0.331539046
0.3315245196
0.3315083747
0.331491048
0.3314729815
0.3314545919
0.3314362647
0.3314184124
0.3314017704
0.3313886905
0.3315700439
0.3315611447
0.3315493014
0.3315347874
0.3315181003
0.331499842
0.3314806232
0.3314609991
0.3314414381
0.3314223132
0.3314039199
0.3313865465
0.3313707532
0.331358554
0.331558581
0.3315428999
0.3315235079
0.3315014938
0.3314780337
0.3314541818
0.3314307722
0.3314083984
0.3313874373
0.3313680937
0.3313504557
0.3313345797
0.331320729
0.3313103406
0.3315418266
0.3315175226
0.3314896306
0.3314601809
0.3314308627
0.3314028883
0.3313770148
0.3313536314
0.3313328606
0.3313146486
0.3312988423
0.3312852701
0.3312739244
0.3312656855
0.331529893
0.3315008687
0.3314692087
0.3314371308
0.3314062385
0.331377556
0.3313516405
0.3313287066
0.3313087363
0.3312915661
0.3312769571
0.3312646642
0.3312545874
0.3312473841
0.331541827
0.3315175232
0.3314896314
0.3314601818
0.3314308637
0.3314028894
0.331377016
0.3313536328
0.331332862
0.3313146502
0.3312988439
0.3312852718
0.3312739262
0.3312656873
0.3315585815
0.3315429007
0.3315235089
0.331501495
0.331478035
0.3314541833
0.331430774
0.3314084004
0.3313874395
0.3313680961
0.3313504583
0.3313345824
0.3313207319
0.3313103436
0.3315700444
0.3315611453
0.3315493021
0.3315347884
0.3315181014
0.3314998434
0.3314806248
0.331461001
0.3314414402
0.3314223157
0.3314039226
0.3313865495
0.3313707565
0.3313585574
0.3315752439
0.3315696743
0.3315618155
0.3315515701
0.3315390469
0.3315245207
0.3315083761
0.3314910496
0.3314729835
0.3314545942
0.3314362674
0.3314184154
0.3314017738
0.3313886942
0.331576058
0.331570044
0.3315611448
0.3315493015
0.3315347876
0.3315181004
0.3314998422
0.3314806234
0.3314609993
0.3314414383
0.3314223134
0.3314039201
0.3313865467
0.3313707534
0.3313585542
0.3315583565
0.3315427869
0.3315238102
0.3315025611
0.3314801769
0.3314576142
0.3314355844
0.3314145626
0.3313948294
0.3313765236
0.3313596974
0.3313443988
0.3313309081
0.3313206998
0.3315290188
0.3314988727
0.3314661174
0.3314335092
0.3314029321
0.3313754105
0.3313513146
0.3313305926
0.3313129615
0.3312980409
0.3312854385
0.3312748183
0.3312660363
0.3312596884
0.3314770234
0.3314270327
0.3313794978
0.3313379461
0.3313036025
0.331276297
0.3312551851
0.3312392013
0.3312273009
0.3312185675
0.3312122451
0.3312077356
0.3312045981
0.3312026446
0.3314280957
0.3313680389
0.3313171186
0.3312766529
0.3312458434
0.3312231395
0.331206892
0.3311956215
0.3311881004
0.3311833521
0.3311806178
0.3311793104
0.3311789549
0.3311790858
0.3314770248
0.3314270345
0.3313794998
0.3313379482
0.3313036046
0.3312762992
0.3312551874
0.3312392036
0.3312273032
0.3312185698
0.3312122474
0.3312077378
0.3312046003
0.3312026468
0.3315290204
0.3314988745
0.3314661193
0.3314335113
0.3314029344
0.3313754131
0.3313513174
0.3313305955
0.3313129646
0.3312980442
0.3312854418
0.3312748218
0.3312660398
0.331259692
0.3315583576
0.331542788
0.3315238114
0.3315025626
0.3314801786
0.3314576162
0.3314355867
0.3314145652
0.3313948323
0.3313765268
0.3313597009
0.3313444026
0.3313309121
0.331320704
0.3315700444
0.3315611454
0.3315493022
0.3315347885
0.3315181016
0.3314998437
0.3314806252
0.3314610015
0.3314414409
0.3314223164
0.3314039234
0.3313865504
0.3313707575
0.3313585586
0.3315698658
0.3315585812
0.3315429003
0.3315235084
0.3315014943
0.3314780342
0.3314541823
0.3314307728
0.331408399
0.3313874379
0.3313680943
0.3313504563
0.3313345803
0.3313207296
0.3313103412
0.3315533809
0.3315290191
0.3314988731
0.3314661178
0.3314335096
0.3314029326
0.331375411
0.3313513151
0.331330593
0.331312962
0.3312980414
0.3312854389
0.3312748188
0.3312660367
0.3312596888
0.3314426108
0.3313792526
0.3313218905
0.3312748277
0.3312389366
0.3312131775
0.3311957316
0.3311846708
0.3311782785
0.3311751605
0.3311742454
0.331174731
0.3311759848
0.3311773196
0.3312510044
0.3311443165
0.3310706872
0.3310271058
0.3310064596
0.3310015911
0.3310067305
0.3310176996
0.3310316652
0.3310467963
0.3310619501
0.3310763954
0.3310894449
0.3310994211
0.3310007563
0.3308947723
0.3308490452
0.3308406785
0.3308533102
0.3308766322
0.3309045305
0.3309335233
0.3309617096
0.3309881147
0.3310122856
0.3310339998
0.331052856
0.3310669329
0.3312510106
0.3311443226
0.3310706928
0.331027111
0.3310064644
0.3310015955
0.3310067347
0.3310177034
0.3310316688
0.3310467998
0.3310619534
0.3310763985
0.3310894479
0.3310994241
0.3314426161
0.331379257
0.3313218948
0.3312748321
0.3312389411
0.3312131822
0.3311957365
0.3311846757
0.3311782834
0.3311751654
0.3311742503
0.3311747358
0.3311759896
0.3311773245
0.3315290203
0.3314988746
0.3314661196
0.3314335119
0.3314029353
0.3313754142
0.3313513187
0.331330597
0.3313129663
0.3312980459
0.3312854437
0.3312748238
0.3312660419
0.3312596941
0.3315585815
0.3315429008
0.3315235091
0.3315014955
0.3314780358
0.3314541844
0.3314307754
0.3314084021
0.3313874415
0.3313680984
0.3313504608
0.3313345851
0.3313207348
0.3313103467
0.3315605887
0.331541827
0.3315175234
0.3314896316
0.331460182
0.3314308638
0.3314028895
0.331377016
0.3313536326
0.3313328618
0.3313146499
0.3312988435
0.3312852713
0.3312739256
0.3312656866
0.3315230357
0.331477024
0.331427034
0.3313794992
0.3313379476
0.3313036039
0.3312762984
0.3312551865
0.3312392026
0.3312273022
0.3312185687
0.3312122462
0.3312077367
0.3312045991
0.3312026455
0.3313812381
0.3312510055
0.3311443183
0.331070689
0.3310271075
0.3310064611
0.3310015924
0.3310067317
0.3310177006
0.3310316661
0.3310467971
0.3310619509
0.3310763961
0.3310894455
0.3310994217
0.3305960169
0.330461968
0.330439412
0.3304772835
0.3305421554
0.3306151576
0.3306867169
0.3307525579
0.3308112023
0.3308625426
0.3309070593
0.3309453406
0.3309774662
0.3310009004
0.3293147436
0.3294808714
0.3297368788
0.3299826599
0.3301916846
0.330362296
0.3304999618
0.3306111709
0.3307015955
0.3307757378
0.330837022
0.3308879011
0.3309295332
0.3309594209
0.3305960399
0.3304619834
0.330439424
0.3304772935
0.330542164
0.3306151651
0.3306867236
0.3307525638
0.3308112077
0.3308625475
0.3309070638
0.3309453448
0.3309774701
0.3310009042
0.3312510104
0.3311443241
0.3310706956
0.3310271145
0.3310064683
0.3310015997
0.3310067389
0.3310177076
0.3310316729
0.3310468037
0.3310619573
0.3310764023
0.3310894516
0.3310994276
0.3314770247
0.3314270353
0.3313795014
0.3313379506
0.3313036077
0.3312763028
0.3312551914
0.331239208
0.3312273079
0.3312185747
0.3312122523
0.3312077429
0.3312046054
0.331202652
0.3315418269
0.3315175235
0.3314896322
0.3314601832
0.3314308657
0.3314028921
0.3313770193
0.3313536366
0.3313328663
0.3313146549
0.331298849
0.3312852772
0.3312739318
0.3312656932
0.3315536444
0.3315298936
0.3315008698
0.3314692101
0.3314371323
0.3314062401
0.3313775577
0.3313516422
0.3313287084
0.331308738
0.3312915679
0.3312769589
0.3312646659
0.331254589
0.3312473857
0.3314914324
0.3314280968
0.331368041
0.3313171209
0.3312766553
0.3312458458
0.3312231418
0.3312068942
0.3311956236
0.3311881024
0.331183354
0.3311806195
0.3311793121
0.3311789565
0.3311790874
0.3311886821
0.3310007574
0.330894777
0.33084905
0.3308406827
0.3308533139
0.3308766354
0.3309045333
0.3309335258
0.3309617118
0.3309881167
0.3310122873
0.3310340014
0.3310528575
0.3310669343
0.3295421573
0.329314757
0.3294808815
0.329736886
0.3299826652
0.3301916886
0.3303622991
0.3304999642
0.3306111728
0.3307015971
0.3307757391
0.3308370232
0.3308879021
0.3309295341
0.3309594218
0.3237982384
0.3265939128
0.3281464163
0.3290573765
0.329622539
0.3299926301
0.3302473707
0.3304306027
0.330567421
0.3306727763
0.3307559078
0.3308225944
0.3308758342
0.3309134962
0.3293147436
0.3294808953
0.3297369013
0.3299826784
0.3301916997
0.3303623085
0.3304999724
0.3306111799
0.3307016034
0.3307757448
0.3308370283
0.3308879069
0.3309295385
0.330959426
0.3310007561
0.3308947804
0.330849056
0.3308406902
0.3308533219
0.3308766436
0.3309045414
0.3309335336
0.3309617193
0.3309881239
0.3310122943
0.331034008
0.3310528639
0.3310669405
0.3314280957
0.3313680411
0.3313171225
0.3312766581
0.3312458497
0.3312231466
0.3312068996
0.3311956295
0.3311881086
0.3311833605
0.3311806261
0.3311793188
0.3311789633
0.3311790942
0.3315298929
0.3315008694
0.3314692103
0.3314371333
0.331406242
0.3313775604
0.3313516457
0.3313287126
0.3313087429
0.3312915733
0.3312769647
0.3312646722
0.3312545957
0.3312473927
0.331560589
0.3315418276
0.3315175243
0.3314896328
0.3314601834
0.3314308654
0.3314028913
0.331377018
0.3313536347
0.331332864
0.3313146522
0.3312988459
0.3312852738
0.3312739281
0.3312656892
0.331523037
0.3314770262
0.3314270368
0.3313795023
0.3313379508
0.3313036073
0.3312763018
0.3312551899
0.331239206
0.3312273056
0.3312185721
0.3312122496
0.33120774
0.3312046024
0.3312026488
0.3313812468
0.3312510145
0.3311443282
0.3310706984
0.3310271161
0.331006469
0.3310015997
0.3310067384
0.3310177068
0.3310316719
0.3310468025
0.3310619559
0.3310764008
0.3310894501
0.3310994261
0.330896472
0.3305960522
0.3304619964
0.3304394345
0.3304773017
0.3305421705
0.3306151702
0.3306867277
0.3307525672
0.3308112105
0.3308625499
0.3309070659
0.3309453466
0.3309774718
0.3310009057
0.3295421606
0.3293147647
0.3294809094
0.3297369107
0.3299826848
0.3301917042
0.3303623118
0.3304999749
0.330611182
0.3307016051
0.3307757462
0.3308370295
0.3308879079
0.3309295394
0.3309594268
0.3308964668
0.3305960552
0.3304620022
0.3304394412
0.3304773086
0.3305421771
0.3306151765
0.3306867335
0.3307525727
0.3308112156
0.3308625546
0.3309070703
0.3309453508
0.3309774757
0.3310009095
0.3312510042
0.3311443246
0.3310706991
0.3310271194
0.3310064738
0.3310016053
0.3310067444
0.331017713
0.3310316781
0.3310468087
0.331061962
0.3310764067
0.3310894559
0.3310994318
0.3314770231
0.3314270348
0.331379502
0.331337952
0.3313036097
0.3312763053
0.3312551942
0.3312392109
0.3312273109
0.3312185778
0.3312122555
0.3312077461
0.3312046086
0.3312026552
0.3315418265
0.3315175233
0.3314896323
0.3314601836
0.3314308665
0.3314028932
0.3313770208
0.3313536383
0.3313328683
0.331314657
0.3312988512
0.3312852796
0.3312739343
0.3312656958
0.3315698662
0.331558582
0.3315429014
0.3315235098
0.3315014961
0.3314780363
0.3314541848
0.3314307756
0.3314084021
0.3313874413
0.3313680979
0.3313504601
0.3313345843
0.3313207338
0.3313103455
0.3315533824
0.3315290213
0.331498876
0.3314661211
0.3314335133
0.3314029366
0.3313754153
0.3313513197
0.3313305978
0.3313129669
0.3312980465
0.3312854441
0.331274824
0.331266042
0.3312596941
0.3315030645
0.3314426187
0.3313792607
0.3313218988
0.3312748361
0.331238945
0.3312131859
0.33119574
0.331184679
0.3311782865
0.3311751683
0.331174253
0.3311747383
0.331175992
0.3311773267
0.3313812475
0.3312510168
0.3311443318
0.3310707029
0.3310271211
0.3310064742
0.3310016048
0.3310067434
0.3310177115
0.3310316764
0.3310468068
0.33106196
0.3310764047
0.3310894538
0.3310994298
0.331188684
0.3310007667
0.3308947903
0.3308490645
0.3308406971
0.3308533276
0.3308766483
0.3309045453
0.3309335369
0.3309617222
0.3309881264
0.3310122965
0.33103401
0.3310528657
0.3310669422
0.3313812477
0.3312510176
0.3311443332
0.3310707049
0.3310271236
0.331006477
0.3310016078
0.3310067465
0.3310177147
0.3310316796
0.33104681
0.3310619632
0.3310764078
0.3310894568
0.3310994327
0.3315030617
0.3314426162
0.3313792594
0.3313218988
0.3312748374
0.3312389473
0.3312131889
0.3311957435
0.3311846829
0.3311782907
0.3311751726
0.3311742575
0.3311747429
0.3311759966
0.3311773314
0.3315290188
0.3314988744
0.3314661204
0.3314335136
0.3314029378
0.3313754173
0.3313513224
0.3313306011
0.3313129707
0.3312980507
0.3312854487
0.3312748289
0.3312660471
0.3312596995
0.3315585809
0.3315429005
0.3315235092
0.331501496
0.3314780368
0.331454186
0.3314307774
0.3314084046
0.3313874444
0.3313681017
0.3313504644
0.331334589
0.331320739
0.3313103511
0.3315760584
0.3315700447
0.3315611458
0.3315493028
0.3315347891
0.3315181024
0.3314998445
0.3314806261
0.3314610024
0.3314414418
0.3314223173
0.3314039243
0.3313865513
0.3313707583
0.3313585593
0.3315697108
0.3315583581
0.3315427888
0.3315238125
0.3315025639
0.3314801801
0.3314576178
0.3314355885
0.3314145671
0.3313948343
0.3313765288
0.3313597029
0.3313444046
0.3313309142
0.331320706
0.3315533825
0.3315290216
0.3314988765
0.3314661219
0.3314335144
0.3314029379
0.3313754169
0.3313513214
0.3313305997
0.331312969
0.3312980486
0.3312854463
0.3312748262
0.3312660443
0.3312596965
0.3315230373
0.3314770273
0.3314270387
0.3313795052
0.3313379545
0.3313036115
0.3312763065
0.331255195
0.3312392113
0.331227311
0.3312185776
0.3312122551
0.3312077455
0.3312046079
0.3312026544
0.3314914332
0.3314280996
0.3313680457
0.3313171272
0.3312766626
0.3312458539
0.3312231505
0.3312069031
0.3311956327
0.3311881116
0.3311833632
0.3311806286
0.3311793211
0.3311789655
0.3311790963
0.3315230374
0.3314770275
0.3314270391
0.3313795058
0.3313379554
0.3313036127
0.3312763079
0.3312551965
0.331239213
0.3312273128
0.3312185796
0.3312122571
0.3312077476
0.3312046101
0.3312026565
0.3315533822
0.3315290212
0.3314988763
0.331466122
0.331433515
0.331402939
0.3313754184
0.3313513233
0.331330602
0.3313129715
0.3312980514
0.3312854493
0.3312748295
0.3312660477
0.3312597001
0.3315697102
0.3315583574
0.3315427882
0.3315238122
0.3315025639
0.3314801806
0.3314576188
0.33143559
0.331414569
0.3313948367
0.3313765317
0.3313597061
0.3313444082
0.3313309181
0.3313207102
0.3315700439
0.3315611451
0.3315493023
0.3315347889
0.3315181025
0.3314998451
0.3314806271
0.331461004
0.3314414438
0.3314223199
0.3314039274
0.3313865548
0.3313707624
0.3313585637
0.3315788297
0.3315752441
0.3315696746
0.3315618159
0.3315515707
0.3315390476
0.3315245216
0.3315083772
0.3314910508
0.3314729848
0.3314545957
0.331436269
0.3314184171
0.3314017755
0.331388696
0.3315760584
0.3315700447
0.3315611459
0.3315493029
0.3315347894
0.3315181027
0.331499845
0.3314806266
0.3314610031
0.3314414426
0.3314223182
0.3314039253
0.3313865523
0.3313707595
0.3313585606
0.3315698663
0.3315585821
0.3315429018
0.3315235104
0.3315014971
0.3314780376
0.3314541864
0.3314307775
0.3314084044
0.3313874438
0.3313681007
0.3313504631
0.3313345875
0.3313207371
0.331310349
0.3315605891
0.3315418281
0.3315175252
0.3314896343
0.3314601856
0.3314308683
0.3314028948
0.3313770221
0.3313536393
0.3313328691
0.3313146576
0.3312988516
0.3312852797
0.3312739343
0.3312656955
0.3315536447
0.3315298946
0.3315008716
0.3314692129
0.3314371361
0.3314062449
0.3313775633
0.3313516486
0.3313287154
0.3313087456
0.3312915759
0.3312769672
0.3312646745
0.3312545979
0.3312473948
0.3315605891
0.3315418281
0.3315175253
0.3314896345
0.3314601859
0.3314308688
0.3314028955
0.3313770229
0.3313536404
0.3313328702
0.3313146589
0.331298853
0.3312852812
0.3312739359
0.3312656973
0.3315698662
0.3315585821
0.3315429017
0.3315235105
0.3315014973
0.3314780381
0.3314541872
0.3314307786
0.3314084058
0.3313874455
0.3313681027
0.3313504654
0.33133459
0.3313207399
0.3313103519
0.3315760583
0.3315700445
0.3315611457
0.3315493028
0.3315347894
0.331518103
0.3314998456
0.3314806276
0.3314610045
0.3314414443
0.3314223203
0.3314039278
0.3313865552
0.3313707627
0.3313585641
0.3315788295
0.3315752438
0.3315696743
0.3315618157
0.3315515705
0.3315390477
0.331524522
0.3315083778
0.3314910519
0.3314729863
0.3314545976
0.3314362714
0.33141842
0.3314017789
0.3313886997
)
;

boundaryField
{
    top
    {
        type            zeroGradient;
    }
    bottom
    {
        type            zeroGradient;
    }
    side-walls
    {
        type            zeroGradient;
    }
    inlet
    {
        type            zeroGradient;
    }
    outlet
    {
        type            zeroGradient;
    }
    procBoundary1to0
    {
        type            processor;
        value           nonuniform List<scalar> 
97
(
0.3315788295
0.3315788295
0.3315760583
0.3315698663
0.3315605894
0.3315536453
0.3315605897
0.3315698666
0.3315760586
0.3315788298
0.3315796181
0.3315697101
0.3315697101
0.3315697101
0.3315533822
0.3315230378
0.3314914354
0.3315230389
0.3315533834
0.3315697112
0.3315760586
0.3315768098
0.3315695689
0.331503061
0.331503061
0.331503061
0.331381247
0.331188694
0.3313812534
0.3315030668
0.3315533833
0.3315698666
0.3315727057
0.331556835
0.3315014976
0.330896448
0.330896448
0.330896448
0.3295422113
0.3308964876
0.3313812528
0.3315230387
0.3315605896
0.3315697833
0.3315448583
0.3314402731
0.3310281375
0.3184824196
0.3184824196
0.3184824196
0.3295422026
0.3295422026
0.3311886918
0.3314914347
0.3315536451
0.3315727057
0.3315568352
0.3315014981
0.3313412298
0.3310281358
0.3313412311
0.3313812411
0.3313812411
0.3313812411
0.3315230368
0.3315605891
0.3315768099
0.3315695691
0.3315484087
0.3315014983
0.3314402731
0.3315014984
0.3315484085
0.3315533812
0.3315533812
0.3315533812
0.331569866
0.3315796182
0.3315767552
0.3315695691
0.3315568352
0.3315448583
0.3315568353
0.3315695691
0.3315767551
0.3315760581
0.3315760581
0.3315760581
0.3315808921
0.3315796182
0.3315768099
0.3315727057
0.3315697833
0.3315727057
0.3315768099
0.3315796182
0.3315808921
)
;
    }
}


// ************************************************************************* //
