/*--------------------------------*- C++ -*----------------------------------*\
| =========                 |                                                 |
| \\      /  F ield         | OpenFOAM: The Open Source CFD Toolbox           |
|  \\    /   O peration     | Version:  4.x                                   |
|   \\  /    A nd           | Web:      www.OpenFOAM.org                      |
|    \\/     M anipulation  |                                                 |
\*---------------------------------------------------------------------------*/
FoamFile
{
    version     2.0;
    format      ascii;
    class       volScalarField;
    location    "1000";
    object      CO2;
}
// * * * * * * * * * * * * * * * * * * * * * * * * * * * * * * * * * * * * * //

dimensions      [0 0 0 0 0 0 0];

internalField   nonuniform List<scalar> 
1174
(
0.06315897566
0.0631657656
0.06317534661
0.06318783757
0.06320310618
0.06322081751
0.06324050319
0.06326163099
0.063283662
0.06330608837
0.06332844011
0.06335021418
0.06337051347
0.06338646866
0.06316531359
0.06317616212
0.06319060014
0.06320829452
0.06322863917
0.06325090032
0.06327433401
0.06329826318
0.06332211715
0.06334544092
0.06336787433
0.06338906555
0.06340833096
0.06342321327
0.06317928575
0.063198401
0.06322204076
0.06324887812
0.06327747989
0.06330656095
0.06333510461
0.06336238745
0.06338794992
0.06341154207
0.0634330564
0.06345242384
0.06346932252
0.06348199829
0.06319970711
0.06322933301
0.063263334
0.06329923585
0.06333497955
0.06336908732
0.06340063625
0.06342915163
0.06345448395
0.06347669838
0.06349598155
0.06351254196
0.06352638819
0.06353644462
0.06321425207
0.06324963156
0.06328822573
0.06332733171
0.06336499489
0.06339996668
0.0634315677
0.06345953599
0.06348389342
0.06350483871
0.06352266296
0.06353766457
0.06354996459
0.06355875885
0.06319970665
0.06322933231
0.06326333312
0.0632992348
0.06333497837
0.06336908602
0.06340063486
0.06342915015
0.06345448239
0.06347669676
0.06349597988
0.06351254025
0.06352638644
0.06353644284
0.06317928513
0.06319840012
0.06322203966
0.06324887679
0.06327747835
0.06330655921
0.06333510266
0.06336238532
0.06338794761
0.0634115396
0.06343305378
0.06345242108
0.06346931965
0.06348199531
0.06316531304
0.06317616139
0.06319059925
0.06320829343
0.06322863787
0.06325089879
0.06327433223
0.06329826114
0.06332211485
0.06334543836
0.06336787152
0.0633890625
0.06340832769
0.06342320981
0.0631589752
0.06316576506
0.06317534594
0.06318783674
0.06320310516
0.06322081626
0.06324050168
0.06326162919
0.06328365991
0.06330608596
0.06332843738
0.06335021114
0.06337051013
0.06338646504
0.06315798237
0.06316531354
0.06317616202
0.06319060002
0.06320829438
0.06322863902
0.06325090015
0.06327433383
0.06329826299
0.06332211695
0.06334544071
0.06336787412
0.06338906534
0.06340833076
0.06342321306
0.06317955922
0.0631985385
0.0632216719
0.06324757661
0.06327486661
0.06330237599
0.06332923748
0.063354872
0.06337893722
0.06340126394
0.06342178831
0.06344045138
0.06345691095
0.06346936694
0.0632153174
0.06325206413
0.06329199327
0.06333174532
0.06336902396
0.06340258032
0.06343196299
0.06345723481
0.06347874018
0.06349694278
0.06351232056
0.06352528248
0.06353600363
0.06354375476
0.06327869005
0.0633396251
0.06339757022
0.06344822584
0.06349009855
0.06352339474
0.06354914326
0.06356864246
0.06358316517
0.06359382817
0.06360155278
0.06360706761
0.06361090939
0.06361330471
0.06333832164
0.0634115265
0.06347359946
0.06352293338
0.06356050035
0.06358818964
0.06360801078
0.06362176631
0.0636309522
0.06363675863
0.06364011039
0.06364172258
0.06364217366
0.06364202845
0.06327868843
0.06333962305
0.06339756798
0.06344822351
0.06349009618
0.06352339237
0.0635491409
0.0635686401
0.06358316283
0.06359382586
0.0636015505
0.06360706536
0.06361090717
0.0636133025
0.06321531558
0.06325206207
0.06329199105
0.0633317429
0.06336902136
0.06340257754
0.06343196005
0.06345723173
0.06347873698
0.06349693948
0.06351231718
0.06352527902
0.06353600011
0.06354375118
0.06317955789
0.06319853718
0.06322167046
0.06324757496
0.0632748647
0.0633023738
0.06332923501
0.06335486924
0.06337893419
0.06340126065
0.06342178479
0.06344044764
0.063456907
0.06346936282
0.06316531305
0.06317616138
0.06319059919
0.06320829331
0.06322863768
0.0632508985
0.06327433185
0.06329826065
0.06332211426
0.06334543767
0.06336787073
0.06338906163
0.06340832673
0.06342320875
0.06316552997
0.06317928559
0.06319840066
0.06322204034
0.06324887763
0.06327747936
0.06330656038
0.063335104
0.0633623868
0.06338794926
0.0634115414
0.06343305573
0.06345242316
0.06346932185
0.06348199763
0.06318562234
0.06321531721
0.06325206377
0.06329199285
0.06333174486
0.06336902347
0.06340257982
0.06343196248
0.06345723431
0.06347873967
0.06349694228
0.06351232006
0.06352528199
0.06353600316
0.0635437543
0.06332063224
0.06339786086
0.06346778499
0.06352515938
0.06356892002
0.06360033309
0.0636216147
0.06363511455
0.0636429245
0.06364674363
0.06364787761
0.06364730415
0.06364579335
0.06364418035
0.06355415623
0.06368419927
0.0637739564
0.06382709478
0.06385228139
0.06385823835
0.06385199711
0.06383864982
0.06382164924
0.0638032272
0.06378477663
0.06376718878
0.06375130079
0.06373915508
0.06385914161
0.06398833265
0.06404408983
0.06405431493
0.06403894713
0.06401054877
0.06397657099
0.06394125752
0.06390692539
0.06387476283
0.06384532219
0.06381887468
0.06379590906
0.06377876516
0.06355414911
0.06368419223
0.06377395001
0.06382708904
0.06385227623
0.06385823367
0.06385199282
0.06383864587
0.0638216456
0.06380322381
0.06378477342
0.06376718575
0.06375129788
0.06373915225
0.06332062601
0.06339785564
0.06346778008
0.06352515448
0.06356891507
0.06360032811
0.06362160972
0.0636351096
0.06364291961
0.0636467388
0.06364787285
0.06364729946
0.06364578872
0.06364417575
0.06321531562
0.06325206192
0.06329199069
0.06333174232
0.06336902053
0.06340257649
0.0634319588
0.06345723031
0.06347873541
0.06349693779
0.06351231539
0.06352527715
0.06353599818
0.0635437492
0.06317928515
0.0631984
0.06322203936
0.06324887626
0.06327747754
0.0633065581
0.06333510126
0.06336238362
0.06338794565
0.06341153739
0.06343305136
0.06345241847
0.06346931686
0.06348199237
0.06317683742
0.06319970671
0.06322933221
0.06326333301
0.0632992347
0.06333497831
0.06336908601
0.06340063489
0.06342915025
0.06345448255
0.063476697
0.06349598019
0.06351254064
0.0635263869
0.06353644336
0.06322260708
0.06327868961
0.06333962386
0.06339756879
0.06344822436
0.06349009704
0.06352339326
0.06354914183
0.06356864106
0.06358316382
0.06359382687
0.06360155155
0.06360706644
0.06361090827
0.06361330363
0.06339542391
0.06355415553
0.06368419746
0.06377395452
0.06382709305
0.06385227981
0.06385823695
0.06385199588
0.06383864871
0.06382164825
0.06380322631
0.0637847758
0.06376718803
0.0637513001
0.06373915442
0.06435241243
0.06451581868
0.06454334725
0.06449722836
0.06441819892
0.06432925652
0.06424206859
0.06416184671
0.06409039306
0.06402783943
0.06397360064
0.06392696016
0.06388782072
0.06385927101
0.06591390016
0.06571150449
0.06539956014
0.06510006646
0.06484535829
0.0646374576
0.06446970309
0.06433418827
0.06422400143
0.06413365648
0.0640589808
0.06399698531
0.06394625849
0.06390984255
0.06435238585
0.06451580095
0.06454333385
0.06449721755
0.06441818991
0.06432924882
0.06424206194
0.06416184085
0.06409038786
0.06402783473
0.06397359634
0.06392695618
0.06388781701
0.06385926747
0.06355414928
0.06368419051
0.06377394712
0.06382708545
0.06385227224
0.06385822953
0.06385198868
0.06383864183
0.06382164165
0.06380321998
0.06378476973
0.0637671822
0.06375129445
0.06373914891
0.06327868846
0.06333962217
0.0633975663
0.06344822108
0.06349009309
0.06352338876
0.06354913689
0.06356863581
0.06358315833
0.06359382121
0.06360154577
0.06360706056
0.06361090232
0.06361329761
0.06319970666
0.06322933191
0.06326333223
0.06329923334
0.06333497631
0.06336908337
0.06340063164
0.06342914644
0.06345447824
0.06347669224
0.06349597505
0.06351253517
0.06352638114
0.06353643734
0.06318530123
0.06321425146
0.0632496304
0.0632882243
0.06332733009
0.06336499314
0.06339996484
0.0634315658
0.06345953407
0.0634838915
0.06350483679
0.06352266108
0.06353766273
0.0635499628
0.06355875709
0.06326112379
0.0633383207
0.0634115242
0.06347359692
0.0635229308
0.0635604978
0.06358818718
0.06360800842
0.06362176406
0.06363095005
0.06363675659
0.06364010845
0.06364172074
0.06364217191
0.06364202677
0.06363009501
0.06385914126
0.06398832764
0.06404408468
0.06405431036
0.06403894312
0.06401054526
0.06397656792
0.06394125482
0.06390692298
0.06387476066
0.06384532023
0.0638188729
0.06379590743
0.06377876363
0.06563669111
0.06591388612
0.06571149357
0.06539955227
0.06510006062
0.06484535387
0.06463745423
0.06446970048
0.06433418616
0.06422399968
0.064133655
0.06405897952
0.0639969842
0.0639462575
0.06390984164
0.07263671744
0.06922983583
0.06733789944
0.06622776415
0.06553903038
0.06508801943
0.06477758079
0.06455428691
0.0643875559
0.06425916799
0.06415786395
0.06407660114
0.06401172574
0.06396583363
0.06591389999
0.06571147691
0.06539953532
0.06510004683
0.06484534268
0.06463744494
0.0644696926
0.06433417937
0.06422399373
0.0641336497
0.06405897473
0.06399697981
0.06394625345
0.06390983782
0.06385914148
0.06398832351
0.0640440782
0.06405430277
0.06403893522
0.06401053744
0.06397656034
0.06394124755
0.06390691603
0.06387475403
0.06384531389
0.06381886683
0.06379590159
0.06377875794
0.06333832158
0.06341152398
0.06347359533
0.06352292797
0.06356049399
0.06358818262
0.06360800333
0.06362175857
0.06363094429
0.06363675064
0.06364010238
0.06364171458
0.06364216569
0.06364202048
0.06321425202
0.06324963068
0.06328822401
0.06332732906
0.06336499134
0.06339996227
0.06343156251
0.06345953014
0.06348388701
0.06350483182
0.06352265569
0.063537657
0.06354995676
0.06355875079
0.06317683709
0.063199706
0.06322933116
0.06326333166
0.0632992331
0.0633349765
0.06336908402
0.06340063276
0.06342914801
0.06345448022
0.06347669458
0.06349597771
0.06351253811
0.06352638434
0.06353644076
0.06322260556
0.06327868698
0.06333962061
0.06339756525
0.06344822066
0.06349009329
0.06352338952
0.06354913812
0.06356863742
0.06358316025
0.06359382337
0.06360154812
0.06360706307
0.06361090497
0.06361330037
0.06339541415
0.06355414526
0.0636841862
0.06377394397
0.06382708346
0.06385227116
0.0638582291
0.06385198874
0.06383864222
0.06382164228
0.06380322079
0.06378477068
0.06376718324
0.06375129556
0.06373915007
0.06398621844
0.06435237304
0.06451578674
0.06454332217
0.06449720843
0.06441818278
0.06432924318
0.06424205742
0.06416183717
0.0640903848
0.06402783212
0.06397359409
0.0639269542
0.06388781524
0.06385926583
0.06563668748
0.0659138773
0.06571146156
0.06539952512
0.06510003988
0.06484533778
0.06463744137
0.06446968986
0.06433417717
0.06422399192
0.06413364819
0.06405897345
0.06399697871
0.06394625247
0.06390983692
0.06398622407
0.06435236927
0.06451578043
0.06454331546
0.06449720191
0.06441817661
0.06432923746
0.0642420521
0.06416183223
0.0640903802
0.06402782786
0.06397359011
0.06392695048
0.06388781172
0.06385926246
0.06355415657
0.06368419031
0.06377394372
0.06382708064
0.06385226692
0.06385822414
0.06385198343
0.06383863673
0.06382163679
0.06380321536
0.06378476533
0.063767178
0.06375129042
0.06373914499
0.06327869027
0.06333962275
0.06339756582
0.06344821978
0.0634900912
0.06352338647
0.06354913434
0.06356863309
0.06358315551
0.06359381832
0.06360154283
0.06360705761
0.06361089936
0.06361329464
0.06319970715
0.0632293322
0.06326333223
0.06329923299
0.06333497561
0.06336908234
0.06340063033
0.06342914489
0.06345447649
0.06347669031
0.06349597297
0.06351253297
0.06352637884
0.06353643497
0.06316552953
0.06317928471
0.06319839937
0.06322203866
0.06324887558
0.06327747695
0.06330655764
0.06333510096
0.06336238349
0.0633879457
0.06341153762
0.06343305176
0.06345241903
0.06346931759
0.06348199324
0.06318562052
0.06321531461
0.06325206047
0.06329198912
0.06333174075
0.06336901904
0.06340257513
0.06343195758
0.06345722924
0.0634787345
0.06349693703
0.06351231476
0.06352527665
0.06353599778
0.06354374889
0.06324694804
0.06332062331
0.0633978517
0.06346777575
0.06352515011
0.06356891081
0.06360032404
0.06362160589
0.06363510602
0.06364291625
0.06364673567
0.06364786993
0.06364729672
0.06364578614
0.06364417328
0.0633954132
0.06355414255
0.06368418214
0.06377393903
0.06382707812
0.06385226578
0.06385822391
0.06385198379
0.06383863752
0.06382163785
0.06380321661
0.06378476673
0.06376717949
0.06375129198
0.06373914659
0.06363009267
0.0638591304
0.06398831278
0.06404406906
0.06405429524
0.06403892904
0.06401053232
0.06397655607
0.06394124395
0.06390691294
0.06387475133
0.0638453115
0.06381886469
0.06379589966
0.06377875615
0.063395413
0.06355414176
0.06368418092
0.06377393736
0.0638270761
0.06385226346
0.06385822138
0.06385198115
0.06383863483
0.06382163515
0.06380321391
0.06378476404
0.06376717683
0.06375128937
0.06373914401
0.06324695116
0.06332062613
0.06339785335
0.06346777607
0.06352514925
0.06356890904
0.06360032159
0.06362160294
0.0636351027
0.0636429127
0.06364673194
0.06364786608
0.06364729278
0.06364578213
0.06364416922
0.06321531738
0.06325206232
0.06329199
0.06333174071
0.06336901815
0.06340257349
0.06343195529
0.06345722641
0.06347873121
0.06349693335
0.06351231076
0.06352527237
0.06353599328
0.06354374421
0.0631792858
0.06319840041
0.06322203939
0.06324887584
0.06327747665
0.06330655672
0.06333509941
0.06336238135
0.06338794299
0.06341153439
0.06343304806
0.0634524149
0.06346931306
0.06348198839
0.06315798192
0.06316531278
0.06317616093
0.06319059859
0.06320829259
0.06322863685
0.06325089758
0.06327433086
0.06329825962
0.0633221132
0.06334543661
0.06336786968
0.06338906059
0.06340832572
0.0634232078
0.06316571885
0.06317955736
0.06319853629
0.06322166929
0.06324757355
0.0632748631
0.06330237203
0.06332923309
0.06335486722
0.0633789321
0.0634012585
0.0634217826
0.06344044544
0.06345690479
0.0634693606
0.06318562041
0.0632153143
0.0632520599
0.06329198824
0.06333173959
0.06336901763
0.06340257352
0.06343195581
0.06345722733
0.06347873249
0.06349693494
0.06351231262
0.06352527447
0.06353599557
0.06354374665
0.0632226052
0.0632786858
0.06333961849
0.0633975622
0.06344821684
0.0634900889
0.06352338471
0.06354913304
0.06356863217
0.06358315491
0.06359381799
0.06360154274
0.06360705771
0.06361089963
0.06361329504
0.0632611228
0.06333831747
0.06341151903
0.06347359027
0.0635229231
0.06356048945
0.06358817845
0.06360799951
0.06362175509
0.0636309411
0.06363674771
0.06364009968
0.06364171208
0.06364216336
0.06364201828
0.0632226051
0.0632786856
0.06333961818
0.06339756175
0.06344821619
0.06349008805
0.06352338366
0.06354913181
0.0635686308
0.06358315342
0.06359381641
0.06360154106
0.06360705597
0.06361089783
0.0636132932
0.06318562082
0.06321531483
0.0632520603
0.06329198834
0.06333173928
0.06336901689
0.06340257237
0.06343195429
0.06345722549
0.06347873037
0.06349693257
0.06351231003
0.06352527169
0.06353599264
0.0635437436
0.06316571951
0.06317955817
0.06319853703
0.06322166978
0.06324757369
0.06327486282
0.0633023713
0.06332923192
0.06335486562
0.06337893008
0.06340125611
0.06342177985
0.06344044235
0.06345690141
0.06346935699
0.0631653136
0.06317616167
0.06319059919
0.06320829295
0.06322863689
0.06325089725
0.0632743301
0.06329825842
0.06332211154
0.06334543448
0.0633678671
0.06338905758
0.0634083223
0.06342320403
0.06315460394
0.06315897503
0.06316576475
0.06317534549
0.06318783613
0.06320310438
0.0632208153
0.06324050055
0.0632616279
0.06328365846
0.06330608438
0.06332843569
0.06335020935
0.06337050825
0.06338646311
0.06315798191
0.06316531274
0.06317616084
0.06319059843
0.06320829234
0.0632286365
0.06325089712
0.06327433029
0.06329825894
0.06332211242
0.06334543572
0.06336786871
0.06338905954
0.0634083246
0.0634232066
0.06316552947
0.06317928451
0.06319839896
0.06322203798
0.06324887458
0.06327747562
0.06330655597
0.06333509897
0.06336238123
0.06338794319
0.0634115349
0.06343304886
0.06345241598
0.06346931439
0.06348198992
0.06317683694
0.06319970549
0.06322933014
0.06326333001
0.0632992308
0.06333497353
0.06336908044
0.06340062865
0.06342914343
0.06345447526
0.06347668932
0.06349597221
0.06351253242
0.06352637848
0.06353643475
0.06318530086
0.06321425035
0.06324962836
0.06328822126
0.06332732607
0.06336498822
0.06339995913
0.0634315594
0.0634595271
0.06348388408
0.06350482902
0.06352265302
0.06353765446
0.06354995435
0.06355874848
0.06317683691
0.06319970543
0.06322933005
0.06326332987
0.06329923056
0.06333497318
0.06336907996
0.06340062803
0.06342914267
0.06345447437
0.0634766883
0.06349597106
0.06351253116
0.06352637713
0.06353643333
0.06316552953
0.06317928461
0.06319839906
0.063222038
0.06324887446
0.06327747529
0.06330655541
0.06333509816
0.06336238016
0.06338794186
0.06341153331
0.06343304703
0.06345241392
0.06346931213
0.0634819875
0.06315798204
0.06316531296
0.06317616108
0.06319059863
0.0632082924
0.06322863635
0.06325089672
0.06327432957
0.0632982579
0.06332211103
0.06334543399
0.06336786664
0.06338905714
0.06340832188
0.06342320364
0.06315460414
0.06315897532
0.06316576509
0.06317534582
0.06318783637
0.06320310446
0.06322081515
0.06324050011
0.06326162712
0.06328365732
0.06330608284
0.06332843374
0.06335020699
0.06337050549
0.06338646
)
;

boundaryField
{
    top
    {
        type            zeroGradient;
    }
    bottom
    {
        type            zeroGradient;
    }
    side-walls
    {
        type            zeroGradient;
    }
    inlet
    {
        type            zeroGradient;
    }
    outlet
    {
        type            zeroGradient;
    }
    procBoundary1to0
    {
        type            processor;
        value           nonuniform List<scalar> 
97
(
0.06315460416
0.06315460416
0.06315798207
0.06316552949
0.06317683667
0.06318530027
0.06317683637
0.0631655291
0.06315798171
0.06315460382
0.06315364266
0.06316571962
0.06316571962
0.06316571962
0.06318562092
0.06322260483
0.06326112081
0.06322260357
0.06318561959
0.06316571846
0.06315798173
0.06315706568
0.06316589123
0.06324695204
0.06324695204
0.06324695204
0.06339541462
0.06363008412
0.06339540753
0.06324694571
0.06318561966
0.06316552915
0.06316206806
0.0631814114
0.06324885547
0.06398624838
0.06398624838
0.06398624838
0.06563665154
0.06398620518
0.06339540821
0.06322260387
0.0631768365
0.06316562988
0.06319600821
0.0633234713
0.0638257465
0.07911486665
0.07911486665
0.07911486665
0.06563666102
0.06563666102
0.06363008657
0.06326112154
0.06318530049
0.06316206799
0.06318141113
0.06324885444
0.06344417898
0.06382574732
0.06344417824
0.06339542056
0.06339542056
0.06339542056
0.06322260588
0.06317683696
0.06315706559
0.06316589099
0.06319168139
0.06324885426
0.06332347116
0.06324885419
0.06319168177
0.06318562189
0.06318562189
0.06318562189
0.06316552974
0.06315364258
0.06315713225
0.06316589096
0.06318141109
0.0631960081
0.06318141104
0.06316589104
0.06315713237
0.06315798229
0.06315798229
0.06315798229
0.06315208976
0.06315364258
0.06315706558
0.06316206799
0.06316562983
0.06316206797
0.06315706559
0.06315364262
0.06315208981
)
;
    }
}


// ************************************************************************* //
