/*--------------------------------*- C++ -*----------------------------------*\
| =========                 |                                                 |
| \\      /  F ield         | OpenFOAM: The Open Source CFD Toolbox           |
|  \\    /   O peration     | Version:  4.x                                   |
|   \\  /    A nd           | Web:      www.OpenFOAM.org                      |
|    \\/     M anipulation  |                                                 |
\*---------------------------------------------------------------------------*/
FoamFile
{
    version     2.0;
    format      ascii;
    class       volScalarField;
    location    "1000";
    object      Cpv;
}
// * * * * * * * * * * * * * * * * * * * * * * * * * * * * * * * * * * * * * //

dimensions      [0 2 -2 -1 0 0 0];

internalField   nonuniform List<scalar> 
1174
(
1245.090844
1245.090915
1245.091033
1245.091155
1245.091302
1245.091487
1245.091694
1245.091908
1245.092116
1245.092359
1245.092589
1245.092823
1245.093034
1245.093193
1245.091042
1245.091161
1245.091305
1245.091483
1245.091683
1245.091893
1245.09215
1245.092433
1245.09267
1245.092879
1245.093107
1245.093331
1245.093559
1245.093717
1245.091027
1245.0912
1245.09146
1245.091723
1245.092007
1245.092317
1245.092584
1245.092847
1245.093114
1245.093403
1245.093622
1245.093813
1245.09398
1245.094137
1245.091419
1245.091734
1245.092078
1245.092444
1245.092796
1245.093145
1245.093465
1245.093763
1245.094022
1245.094276
1245.09447
1245.094653
1245.094801
1245.094904
1245.091558
1245.091921
1245.092285
1245.092671
1245.093042
1245.093399
1245.093741
1245.094042
1245.09433
1245.094541
1245.094749
1245.094928
1245.095053
1245.095166
1245.091287
1245.091587
1245.091955
1245.092313
1245.092673
1245.093012
1245.093316
1245.093622
1245.093869
1245.094099
1245.094301
1245.09448
1245.094677
1245.09477
1245.090791
1245.090967
1245.091211
1245.09148
1245.091735
1245.092034
1245.092319
1245.0926
1245.092863
1245.093124
1245.093372
1245.093548
1245.093723
1245.093846
1245.090969
1245.091061
1245.091216
1245.091344
1245.09156
1245.0918
1245.092057
1245.092318
1245.092567
1245.092806
1245.093038
1245.093252
1245.093467
1245.093618
1245.090796
1245.090871
1245.090956
1245.091091
1245.091258
1245.091416
1245.09159
1245.091807
1245.09203
1245.092231
1245.092476
1245.09271
1245.092928
1245.093103
1245.090967
1245.091061
1245.091186
1245.091331
1245.09151
1245.091722
1245.09196
1245.092186
1245.092421
1245.092676
1245.092906
1245.093156
1245.093385
1245.093587
1245.093753
1245.091075
1245.09121
1245.091469
1245.091726
1245.091994
1245.092258
1245.092499
1245.092776
1245.093043
1245.093294
1245.093495
1245.093729
1245.093923
1245.094056
1245.091351
1245.091715
1245.092106
1245.092497
1245.09288
1245.093235
1245.093567
1245.093826
1245.09405
1245.094275
1245.094425
1245.094546
1245.094694
1245.094795
1245.091944
1245.092573
1245.093133
1245.093652
1245.094073
1245.094426
1245.094687
1245.094901
1245.09508
1245.09523
1245.095299
1245.095376
1245.095427
1245.095445
1245.092882
1245.093613
1245.09423
1245.094732
1245.095127
1245.095425
1245.095659
1245.095809
1245.09594
1245.096021
1245.096079
1245.096128
1245.09612
1245.096121
1245.092092
1245.092709
1245.093298
1245.093811
1245.094212
1245.094559
1245.094804
1245.095044
1245.095176
1245.095302
1245.095439
1245.09549
1245.095567
1245.095585
1245.091383
1245.09175
1245.092137
1245.092541
1245.092903
1245.093232
1245.093521
1245.093806
1245.094036
1245.094234
1245.094406
1245.094576
1245.094685
1245.094762
1245.090944
1245.091146
1245.091395
1245.091669
1245.091936
1245.092204
1245.09248
1245.092748
1245.092998
1245.093249
1245.093474
1245.093692
1245.093899
1245.094042
1245.091058
1245.091157
1245.091292
1245.091452
1245.091657
1245.091881
1245.09211
1245.092362
1245.09262
1245.092857
1245.093084
1245.093283
1245.093491
1245.093654
1245.091105
1245.091238
1245.091399
1245.09165
1245.091918
1245.092197
1245.092487
1245.092782
1245.093047
1245.09333
1245.093591
1245.093844
1245.094045
1245.094232
1245.094362
1245.091101
1245.091384
1245.091751
1245.092116
1245.092531
1245.092931
1245.093284
1245.093568
1245.093866
1245.094071
1245.094249
1245.094407
1245.094555
1245.094691
1245.094772
1245.092301
1245.093114
1245.093822
1245.09442
1245.094875
1245.095212
1245.095462
1245.095625
1245.095721
1245.095792
1245.095813
1245.095823
1245.095827
1245.095817
1245.095095
1245.096359
1245.09725
1245.097801
1245.09807
1245.098159
1245.09808
1245.097982
1245.097843
1245.097687
1245.097535
1245.097371
1245.097222
1245.097121
1245.097689
1245.09899
1245.099548
1245.099694
1245.099594
1245.099321
1245.098999
1245.098644
1245.098338
1245.098041
1245.097767
1245.097523
1245.097292
1245.097099
1245.094417
1245.095694
1245.096623
1245.09714
1245.097421
1245.097514
1245.097473
1245.097384
1245.097234
1245.097035
1245.096895
1245.096724
1245.09659
1245.09648
1245.092781
1245.093553
1245.094257
1245.094819
1245.095262
1245.095598
1245.095833
1245.095988
1245.096068
1245.096141
1245.096147
1245.09613
1245.096127
1245.096129
1245.09155
1245.091954
1245.092377
1245.092758
1245.093129
1245.093461
1245.093746
1245.094007
1245.09423
1245.094425
1245.0946
1245.094741
1245.094878
1245.094936
1245.090752
1245.090925
1245.091174
1245.091435
1245.091729
1245.092043
1245.092339
1245.092603
1245.092876
1245.093128
1245.093347
1245.093541
1245.093709
1245.093864
1245.090928
1245.091157
1245.091455
1245.091802
1245.092144
1245.092509
1245.092828
1245.093167
1245.093438
1245.093671
1245.093891
1245.094109
1245.094298
1245.094477
1245.094605
1245.091404
1245.091981
1245.092569
1245.093131
1245.093637
1245.094061
1245.094399
1245.094672
1245.094886
1245.09505
1245.095168
1245.095269
1245.095348
1245.09539
1245.095454
1245.09315
1245.094681
1245.095977
1245.096877
1245.097407
1245.097655
1245.097732
1245.097693
1245.097587
1245.097438
1245.097292
1245.097156
1245.097001
1245.096864
1245.096771
1245.102519
1245.104139
1245.104425
1245.104024
1245.103233
1245.102379
1245.101559
1245.1008
1245.100108
1245.099531
1245.098995
1245.098542
1245.098169
1245.097895
1245.113317
1245.111374
1245.108389
1245.105521
1245.103064
1245.101043
1245.099419
1245.098104
1245.097002
1245.096099
1245.095383
1245.094772
1245.094268
1245.093872
1245.102584
1245.104221
1245.104551
1245.104139
1245.103373
1245.102558
1245.10174
1245.100991
1245.100303
1245.09971
1245.09921
1245.09877
1245.098432
1245.09818
1245.094845
1245.096138
1245.097021
1245.097555
1245.097811
1245.097908
1245.097872
1245.097783
1245.097633
1245.097496
1245.097364
1245.097213
1245.097078
1245.09697
1245.09211
1245.092726
1245.09329
1245.093798
1245.094221
1245.094522
1245.094798
1245.094992
1245.095143
1245.095271
1245.095361
1245.095437
1245.095497
1245.095507
1245.091301
1245.09159
1245.091957
1245.092301
1245.092658
1245.093012
1245.093337
1245.093618
1245.093895
1245.094131
1245.094335
1245.094519
1245.094656
1245.094762
1245.091186
1245.091454
1245.091815
1245.092229
1245.092601
1245.092992
1245.093348
1245.093693
1245.093978
1245.094245
1245.09453
1245.094707
1245.094879
1245.095015
1245.095119
1245.092091
1245.092863
1245.093548
1245.094178
1245.094648
1245.095009
1245.095323
1245.095529
1245.095665
1245.095757
1245.095835
1245.095863
1245.095888
1245.095908
1245.095919
1245.095697
1245.097943
1245.099254
1245.099807
1245.099955
1245.099839
1245.099605
1245.099318
1245.099002
1245.098702
1245.098428
1245.098135
1245.097907
1245.097677
1245.097528
1245.110627
1245.113395
1245.111479
1245.108454
1245.105556
1245.103112
1245.101098
1245.099435
1245.098095
1245.097031
1245.096145
1245.09541
1245.094789
1245.094271
1245.093917
1242.863309
1242.829582
1242.809213
1242.795754
1242.785997
1242.778279
1242.771766
1242.765993
1242.760704
1242.755735
1242.750967
1242.74637
1242.741961
1242.737654
1245.11383
1245.111865
1245.10886
1245.105995
1245.103562
1245.101513
1245.099877
1245.098547
1245.09746
1245.096587
1245.095864
1245.09524
1245.094757
1245.094426
1245.097637
1245.098915
1245.099493
1245.099632
1245.099522
1245.099273
1245.098959
1245.098678
1245.098354
1245.098049
1245.097788
1245.09751
1245.097291
1245.097161
1245.093093
1245.093789
1245.094412
1245.094874
1245.095245
1245.095523
1245.095749
1245.095925
1245.096036
1245.096117
1245.096154
1245.096154
1245.096192
1245.096195
1245.091259
1245.091617
1245.091995
1245.092376
1245.092773
1245.09313
1245.093474
1245.093752
1245.094014
1245.094257
1245.094455
1245.094633
1245.094775
1245.094876
1245.090928
1245.091174
1245.091475
1245.09184
1245.092171
1245.092522
1245.092893
1245.093203
1245.09349
1245.09376
1245.093996
1245.094205
1245.094404
1245.094563
1245.094669
1245.091381
1245.091939
1245.092507
1245.093104
1245.093621
1245.094043
1245.094376
1245.09465
1245.094882
1245.09506
1245.095201
1245.095263
1245.095333
1245.095381
1245.095404
1245.093625
1245.09518
1245.096463
1245.097351
1245.09788
1245.098157
1245.098234
1245.09819
1245.098076
1245.097905
1245.097753
1245.097589
1245.097374
1245.09723
1245.097122
1245.098547
1245.102146
1245.103755
1245.104063
1245.103636
1245.102885
1245.102033
1245.101198
1245.100421
1245.099713
1245.099134
1245.09862
1245.098201
1245.097818
1245.09757
1245.110912
1245.113606
1245.111677
1245.108667
1245.105764
1245.103293
1245.101259
1245.099676
1245.098323
1245.097264
1245.096375
1245.095632
1245.095022
1245.094526
1245.094174
1245.098814
1245.102431
1245.10409
1245.104394
1245.103968
1245.103241
1245.102412
1245.101593
1245.100812
1245.100163
1245.099571
1245.099027
1245.098587
1245.098226
1245.097975
1245.094702
1245.095983
1245.096888
1245.097429
1245.097685
1245.097765
1245.097748
1245.097667
1245.097513
1245.097326
1245.09714
1245.096999
1245.096872
1245.096761
1245.091593
1245.092203
1245.09277
1245.093286
1245.09372
1245.094089
1245.094347
1245.094535
1245.094692
1245.094816
1245.094913
1245.095011
1245.095055
1245.09511
1245.091254
1245.091533
1245.091876
1245.092217
1245.092591
1245.092939
1245.09327
1245.093582
1245.093851
1245.094086
1245.094285
1245.094456
1245.094627
1245.094711
1245.091024
1245.091163
1245.091356
1245.091588
1245.091851
1245.092146
1245.092439
1245.092731
1245.093011
1245.093271
1245.093536
1245.093748
1245.09397
1245.09414
1245.094284
1245.091546
1245.091849
1245.092207
1245.09263
1245.093043
1245.093399
1245.093757
1245.094049
1245.094324
1245.094514
1245.094688
1245.094878
1245.095015
1245.095132
1245.09523
1245.092065
1245.092763
1245.093547
1245.094251
1245.094838
1245.095261
1245.095571
1245.095817
1245.095948
1245.096058
1245.096075
1245.096096
1245.096102
1245.096104
1245.096071
1245.093048
1245.094608
1245.095899
1245.096811
1245.09734
1245.09762
1245.097727
1245.097683
1245.097588
1245.097431
1245.097259
1245.09704
1245.096897
1245.096757
1245.096667
1245.095526
1245.097761
1245.099039
1245.099628
1245.099739
1245.099607
1245.09935
1245.09906
1245.098785
1245.098465
1245.098167
1245.097924
1245.097666
1245.097446
1245.097233
1245.093532
1245.095084
1245.096402
1245.097292
1245.097833
1245.098089
1245.098161
1245.098116
1245.098
1245.097847
1245.097714
1245.097564
1245.097414
1245.097276
1245.097175
1245.091758
1245.092503
1245.093272
1245.093977
1245.094567
1245.095019
1245.095373
1245.095621
1245.095769
1245.095862
1245.095925
1245.095958
1245.095987
1245.096007
1245.096008
1245.091197
1245.091552
1245.091927
1245.092337
1245.092698
1245.093027
1245.093341
1245.093607
1245.093829
1245.094005
1245.094192
1245.09431
1245.094418
1245.094541
1245.090759
1245.090969
1245.09121
1245.091474
1245.091774
1245.09208
1245.09236
1245.092625
1245.092908
1245.093127
1245.093341
1245.093557
1245.093726
1245.093886
1245.090869
1245.090933
1245.09107
1245.09121
1245.091395
1245.091613
1245.091832
1245.092059
1245.092307
1245.092573
1245.092831
1245.093035
1245.093277
1245.093499
1245.093707
1245.09117
1245.091327
1245.091512
1245.09176
1245.092018
1245.092303
1245.092595
1245.092871
1245.093134
1245.093395
1245.093631
1245.093848
1245.094061
1245.094238
1245.094376
1245.091047
1245.091339
1245.091699
1245.092114
1245.092512
1245.092895
1245.093255
1245.093582
1245.093843
1245.094069
1245.094266
1245.094454
1245.094601
1245.094724
1245.094818
1245.091692
1245.092239
1245.092847
1245.09341
1245.093947
1245.094372
1245.094724
1245.094996
1245.095198
1245.095357
1245.095472
1245.09555
1245.095654
1245.095712
1245.09576
1245.091996
1245.092752
1245.09347
1245.094107
1245.094636
1245.09502
1245.095296
1245.095504
1245.09565
1245.09575
1245.095824
1245.095836
1245.09587
1245.0959
1245.095897
1245.091676
1245.092227
1245.092843
1245.093415
1245.093924
1245.094351
1245.094695
1245.094963
1245.095171
1245.095318
1245.095431
1245.095518
1245.095586
1245.095627
1245.095658
1245.091004
1245.091309
1245.091672
1245.092071
1245.092443
1245.092817
1245.093152
1245.093466
1245.09371
1245.09398
1245.094186
1245.09437
1245.094511
1245.09464
1245.094712
1245.091146
1245.091306
1245.091511
1245.09174
1245.091985
1245.09227
1245.092553
1245.092817
1245.093066
1245.093307
1245.093547
1245.093757
1245.093969
1245.094111
1245.094276
1245.091041
1245.091142
1245.091303
1245.091482
1245.09168
1245.091941
1245.092193
1245.092439
1245.092722
1245.092961
1245.093196
1245.093412
1245.093568
1245.093729
1245.090836
1245.090885
1245.090975
1245.091075
1245.091187
1245.09135
1245.091538
1245.091737
1245.091937
1245.092172
1245.092389
1245.09264
1245.092897
1245.093081
1245.093248
1245.09093
1245.090991
1245.091103
1245.09124
1245.09141
1245.091601
1245.091838
1245.092074
1245.092323
1245.092573
1245.092829
1245.093033
1245.093271
1245.093487
1245.093652
1245.090896
1245.091037
1245.091196
1245.091422
1245.091704
1245.09199
1245.092289
1245.09259
1245.092867
1245.093139
1245.093394
1245.093628
1245.093838
1245.094003
1245.094143
1245.091081
1245.09133
1245.091615
1245.091952
1245.092339
1245.092698
1245.093013
1245.093331
1245.093625
1245.093888
1245.09412
1245.094324
1245.094474
1245.094606
1245.094696
1245.091003
1245.091273
1245.091625
1245.092013
1245.092436
1245.092808
1245.093176
1245.093484
1245.0938
1245.09405
1245.094262
1245.094439
1245.094617
1245.094767
1245.09487
1245.09134
1245.091562
1245.091842
1245.09217
1245.092531
1245.092872
1245.093206
1245.093521
1245.093819
1245.094058
1245.094303
1245.094511
1245.094685
1245.094835
1245.094913
1245.090914
1245.091094
1245.091275
1245.091491
1245.091746
1245.09207
1245.09236
1245.092661
1245.092938
1245.093218
1245.093437
1245.093659
1245.093851
1245.094044
1245.094173
1245.090476
1245.090539
1245.090668
1245.090822
1245.090973
1245.091168
1245.091398
1245.091606
1245.091851
1245.092092
1245.092359
1245.092581
1245.092776
1245.092994
1245.093155
1245.090986
1245.091022
1245.091075
1245.091174
1245.091289
1245.091455
1245.091633
1245.091839
1245.092049
1245.092263
1245.092491
1245.092727
1245.092947
1245.093149
1245.093285
)
;

boundaryField
{
    top
    {
        type            calculated;
        value           nonuniform List<scalar> 
127
(
1245.090986
1245.090796
1245.091058
1245.090752
1245.091301
1245.091259
1245.091254
1245.090759
1245.091041
1245.091022
1245.090871
1245.091157
1245.090925
1245.09159
1245.091617
1245.091533
1245.090969
1245.091142
1245.091075
1245.090956
1245.091292
1245.091174
1245.091957
1245.091995
1245.091876
1245.09121
1245.091303
1245.091174
1245.091091
1245.091452
1245.091435
1245.092301
1245.092376
1245.092217
1245.091474
1245.091482
1245.091289
1245.091258
1245.091657
1245.091729
1245.092658
1245.092773
1245.092591
1245.091774
1245.09168
1245.091455
1245.091416
1245.091881
1245.092043
1245.093012
1245.09313
1245.092939
1245.09208
1245.091941
1245.091633
1245.09159
1245.09211
1245.092339
1245.093337
1245.093474
1245.09327
1245.09236
1245.092193
1245.091839
1245.091807
1245.092362
1245.092603
1245.093618
1245.093752
1245.093582
1245.092625
1245.092439
1245.092049
1245.09203
1245.09262
1245.092876
1245.093895
1245.094014
1245.093851
1245.092908
1245.092722
1245.092263
1245.092231
1245.092857
1245.093128
1245.094131
1245.094257
1245.094086
1245.093127
1245.092961
1245.092491
1245.092476
1245.093084
1245.093347
1245.094335
1245.094455
1245.094285
1245.093341
1245.093196
1245.092727
1245.09271
1245.093283
1245.093541
1245.094519
1245.094633
1245.094456
1245.093557
1245.093412
1245.092947
1245.092928
1245.093491
1245.093709
1245.094656
1245.094775
1245.094627
1245.093726
1245.093568
1245.093149
1245.093103
1245.093654
1245.093864
1245.094762
1245.094876
1245.094711
1245.093886
1245.093729
1245.093285
)
;
    }
    bottom
    {
        type            calculated;
        value           nonuniform List<scalar> 
134
(
1245.090967
1245.091105
1245.090928
1245.091186
1245.090928
1245.091024
1245.090869
1245.090836
1245.090844
1245.091061
1245.091238
1245.091157
1245.091454
1245.091174
1245.091163
1245.090933
1245.090885
1245.090915
1245.091186
1245.091399
1245.091455
1245.091815
1245.091475
1245.091356
1245.09107
1245.090975
1245.091033
1245.091331
1245.09165
1245.091802
1245.092229
1245.09184
1245.091588
1245.09121
1245.091075
1245.091155
1245.09151
1245.091918
1245.092144
1245.092601
1245.092171
1245.091851
1245.091395
1245.091187
1245.091302
1245.091722
1245.092197
1245.092509
1245.092992
1245.092522
1245.092146
1245.091613
1245.09135
1245.091487
1245.09196
1245.092487
1245.092828
1245.093348
1245.092893
1245.092439
1245.091832
1245.091538
1245.091694
1245.092186
1245.092782
1245.093167
1245.093693
1245.093203
1245.092731
1245.092059
1245.091737
1245.091908
1245.092421
1245.093047
1245.093438
1245.093978
1245.09349
1245.093011
1245.092307
1245.091937
1245.092116
1245.092676
1245.09333
1245.093671
1245.094245
1245.09376
1245.093271
1245.092573
1245.092172
1245.092359
1245.092906
1245.093591
1245.093891
1245.09453
1245.093996
1245.093536
1245.092831
1245.092389
1245.092589
1245.093156
1245.093844
1245.094109
1245.094707
1245.094205
1245.093748
1245.093035
1245.09264
1245.092823
1245.093385
1245.094045
1245.094298
1245.094879
1245.094404
1245.09397
1245.093277
1245.092897
1245.093034
1245.093587
1245.094232
1245.094477
1245.095015
1245.094563
1245.09414
1245.093499
1245.093081
1245.093193
1245.093753
1245.094362
1245.094605
1245.095119
1245.094669
1245.094284
1245.093707
1245.093248
)
;
    }
    side-walls
    {
        type            calculated;
        value           nonuniform List<scalar> 
261
(
1245.090844
1245.091042
1245.091027
1245.091419
1245.091558
1245.091287
1245.090791
1245.090969
1245.090796
1245.090915
1245.091161
1245.0912
1245.091734
1245.091921
1245.091587
1245.090967
1245.091061
1245.090871
1245.091033
1245.091305
1245.09146
1245.092078
1245.092285
1245.091955
1245.091211
1245.091216
1245.090956
1245.091155
1245.091483
1245.091723
1245.092444
1245.092671
1245.092313
1245.09148
1245.091344
1245.091091
1245.091302
1245.091683
1245.092007
1245.092796
1245.093042
1245.092673
1245.091735
1245.09156
1245.091258
1245.091487
1245.091893
1245.092317
1245.093145
1245.093399
1245.093012
1245.092034
1245.0918
1245.091416
1245.091694
1245.09215
1245.092584
1245.093465
1245.093741
1245.093316
1245.092319
1245.092057
1245.09159
1245.091908
1245.092433
1245.092847
1245.093763
1245.094042
1245.093622
1245.0926
1245.092318
1245.091807
1245.092116
1245.09267
1245.093114
1245.094022
1245.09433
1245.093869
1245.092863
1245.092567
1245.09203
1245.092359
1245.092879
1245.093403
1245.094276
1245.094541
1245.094099
1245.093124
1245.092806
1245.092231
1245.092589
1245.093107
1245.093622
1245.09447
1245.094749
1245.094301
1245.093372
1245.093038
1245.092476
1245.092823
1245.093331
1245.093813
1245.094653
1245.094928
1245.09448
1245.093548
1245.093252
1245.09271
1245.093034
1245.093559
1245.09398
1245.094801
1245.095053
1245.094677
1245.093723
1245.093467
1245.092928
1245.093193
1245.093717
1245.094137
1245.094904
1245.095166
1245.09477
1245.093846
1245.093618
1245.093103
1245.090836
1245.09093
1245.090896
1245.091081
1245.091003
1245.09134
1245.090914
1245.090476
1245.090986
1245.090885
1245.090991
1245.091037
1245.09133
1245.091273
1245.091562
1245.091094
1245.090539
1245.091022
1245.090975
1245.091103
1245.091196
1245.091615
1245.091625
1245.091842
1245.091275
1245.090668
1245.091075
1245.091075
1245.09124
1245.091422
1245.091952
1245.092013
1245.09217
1245.091491
1245.090822
1245.091174
1245.091187
1245.09141
1245.091704
1245.092339
1245.092436
1245.092531
1245.091746
1245.090973
1245.091289
1245.09135
1245.091601
1245.09199
1245.092698
1245.092808
1245.092872
1245.09207
1245.091168
1245.091455
1245.091538
1245.091838
1245.092289
1245.093013
1245.093176
1245.093206
1245.09236
1245.091398
1245.091633
1245.091737
1245.092074
1245.09259
1245.093331
1245.093484
1245.093521
1245.092661
1245.091606
1245.091839
1245.091937
1245.092323
1245.092867
1245.093625
1245.0938
1245.093819
1245.092938
1245.091851
1245.092049
1245.092172
1245.092573
1245.093139
1245.093888
1245.09405
1245.094058
1245.093218
1245.092092
1245.092263
1245.092389
1245.092829
1245.093394
1245.09412
1245.094262
1245.094303
1245.093437
1245.092359
1245.092491
1245.09264
1245.093033
1245.093628
1245.094324
1245.094439
1245.094511
1245.093659
1245.092581
1245.092727
1245.092897
1245.093271
1245.093838
1245.094474
1245.094617
1245.094685
1245.093851
1245.092776
1245.092947
1245.093081
1245.093487
1245.094003
1245.094606
1245.094767
1245.094835
1245.094044
1245.092994
1245.093149
1245.093248
1245.093652
1245.094143
1245.094696
1245.09487
1245.094913
1245.094173
1245.093155
1245.093285
)
;
    }
    inlet
    {
        type            calculated;
        value           nonuniform 0();
    }
    outlet
    {
        type            calculated;
        value           nonuniform List<scalar> 
81
(
1245.093193
1245.093717
1245.094137
1245.094904
1245.095166
1245.09477
1245.093846
1245.093618
1245.093103
1245.093753
1245.094056
1245.094795
1245.095445
1245.096121
1245.095585
1245.094762
1245.094042
1245.093654
1245.094362
1245.094772
1245.095817
1245.097121
1245.097099
1245.09648
1245.096129
1245.094936
1245.093864
1245.094605
1245.095454
1245.096771
1245.097895
1245.093872
1245.09818
1245.09697
1245.095507
1245.094762
1245.095119
1245.095919
1245.097528
1245.093917
1242.737654
1245.094426
1245.097161
1245.096195
1245.094876
1245.094669
1245.095404
1245.097122
1245.09757
1245.094174
1245.097975
1245.096761
1245.09511
1245.094711
1245.094284
1245.09523
1245.096071
1245.096667
1245.097233
1245.097175
1245.096008
1245.094541
1245.093886
1245.093707
1245.094376
1245.094818
1245.09576
1245.095897
1245.095658
1245.094712
1245.094276
1245.093729
1245.093248
1245.093652
1245.094143
1245.094696
1245.09487
1245.094913
1245.094173
1245.093155
1245.093285
)
;
    }
    procBoundary1to0
    {
        type            processor;
        value           nonuniform List<scalar> 
97
(
1245.090785
1245.090785
1245.090962
1245.090891
1245.09119
1245.091259
1245.091061
1245.090637
1245.090906
1245.090757
1245.090913
1245.090964
1245.090964
1245.090964
1245.091081
1245.09137
1245.092099
1245.091515
1245.091096
1245.090806
1245.090977
1245.091072
1245.090906
1245.09156
1245.09156
1245.09156
1245.09352
1245.09545
1245.09288
1245.092023
1245.091252
1245.090567
1245.090777
1245.090993
1245.09169
1245.098926
1245.098926
1245.098926
1245.110523
1245.098992
1245.09322
1245.09157
1245.091088
1245.090984
1245.091442
1245.092728
1245.097371
1242.921576
1242.921576
1242.921576
1245.111074
1245.111074
1245.095376
1245.092308
1245.090989
1245.090796
1245.090966
1245.092224
1245.093267
1245.097638
1245.093524
1245.093142
1245.093142
1245.093142
1245.091045
1245.091023
1245.09093
1245.091369
1245.091511
1245.091623
1245.09252
1245.092093
1245.09127
1245.09091
1245.09091
1245.09091
1245.090628
1245.090835
1245.091085
1245.090896
1245.091293
1245.091363
1245.091286
1245.090787
1245.091047
1245.090958
1245.090958
1245.090958
1245.090827
1245.090887
1245.090809
1245.09093
1245.090783
1245.091186
1245.090806
1245.090424
1245.090957
)
;
    }
}


// ************************************************************************* //
