/*--------------------------------*- C++ -*----------------------------------*\
| =========                 |                                                 |
| \\      /  F ield         | OpenFOAM: The Open Source CFD Toolbox           |
|  \\    /   O peration     | Version:  4.x                                   |
|   \\  /    A nd           | Web:      www.OpenFOAM.org                      |
|    \\/     M anipulation  |                                                 |
\*---------------------------------------------------------------------------*/
FoamFile
{
    version     2.0;
    format      ascii;
    class       volScalarField;
    location    "1000";
    object      H2;
}
// * * * * * * * * * * * * * * * * * * * * * * * * * * * * * * * * * * * * * //

dimensions      [0 0 0 0 0 0 0];

internalField   nonuniform List<scalar> 
1174
(
0.00217236587
0.002172256117
0.002172101319
0.002171899619
0.002171653227
0.002171367631
0.002171050465
0.00217071038
0.002170356119
0.002169995906
0.002169637326
0.002169288458
0.002168963619
0.002168708543
0.002172263182
0.0021720877
0.002171854282
0.002171568411
0.002171239979
0.002170880929
0.002170503346
0.00217011821
0.002169734758
0.002169360338
0.002169000743
0.00216866159
0.002168353727
0.002168116193
0.002172036693
0.00217172728
0.002171344877
0.002170911094
0.002170449226
0.00216998013
0.002169520278
0.002169081364
0.00216867079
0.002168292555
0.002167948334
0.002167639148
0.002167369973
0.002167168428
0.002171705455
0.002171225683
0.002170675484
0.002170095076
0.002169517875
0.002168967819
0.002168459817
0.002168001493
0.002167595191
0.002167239777
0.002166932147
0.002166668814
0.002166449393
0.002166290492
0.002171469368
0.002170896311
0.002170271743
0.00216963957
0.002169031486
0.002168467686
0.002167959106
0.002167509904
0.002167119637
0.002166784999
0.002166501189
0.002166263262
0.002166069012
0.00216593064
0.00217170546
0.002171225691
0.002170675494
0.002170095087
0.002169517887
0.002168967833
0.002168459833
0.002168001509
0.002167595208
0.002167239795
0.002166932166
0.002166668833
0.002166449413
0.002166290512
0.002172036699
0.002171727289
0.002171344888
0.002170911107
0.002170449242
0.002169980149
0.002169520299
0.002169081387
0.002168670816
0.002168292582
0.002167948363
0.002167639179
0.002167370005
0.002167168462
0.002172263188
0.002172087708
0.002171854292
0.002171568422
0.002171239993
0.002170880946
0.002170503365
0.002170118232
0.002169734783
0.002169360367
0.002169000774
0.002168661624
0.002168353764
0.002168116232
0.002172365875
0.002172256123
0.002172101326
0.002171899627
0.002171653238
0.002171367644
0.002171050481
0.002170710399
0.002170356142
0.002169995932
0.002169637356
0.002169288492
0.002168963657
0.002168708584
0.002172381817
0.002172263183
0.002172087702
0.002171854284
0.002171568413
0.002171239981
0.002170880931
0.002170503348
0.002170118212
0.00216973476
0.002169360341
0.002169000746
0.002168661592
0.00216835373
0.002168116195
0.00217203221
0.002171724969
0.002171350734
0.002170932019
0.00217049135
0.002170047646
0.002169614958
0.002169202643
0.002168816208
0.002168458348
0.002168130037
0.00216783214
0.002167569968
0.002167371899
0.002171452115
0.002170856846
0.00217021057
0.00216956785
0.002168965919
0.002168424968
0.002167952229
0.002167546592
0.002167202385
0.002166912014
0.002166667658
0.002166462591
0.002166293743
0.002166172132
0.002170423346
0.002169435827
0.002168497799
0.00216767898
0.002167003445
0.00216646766
0.002166054765
0.002165743555
0.002165513276
0.002165345734
0.002165225918
0.002165141931
0.002165084853
0.002165050214
0.002169454597
0.002168268157
0.002167263613
0.00216646682
0.002165861731
0.002165417443
0.00216510116
0.002164883494
0.002164740077
0.002164651531
0.002164602804
0.002164582225
0.002164580209
0.002164586809
0.002170423363
0.002169435849
0.002168497823
0.002167679005
0.00216700347
0.002166467686
0.00216605479
0.002165743581
0.002165513302
0.00216534576
0.002165225944
0.002165141957
0.002165084878
0.00216505024
0.002171452134
0.002170856867
0.002170210593
0.002169567875
0.002168965946
0.002168424997
0.002167952261
0.002167546625
0.00216720242
0.002166912051
0.002166667696
0.00216646263
0.002166293783
0.002166172173
0.002172032224
0.002171724982
0.002171350749
0.002170932036
0.002170491369
0.002170047669
0.002169614984
0.002169202673
0.002168816241
0.002168458384
0.002168130077
0.002167832182
0.002167570012
0.002167371946
0.002172263188
0.002172087708
0.002171854292
0.002171568424
0.002171239995
0.002170880949
0.00217050337
0.002170118238
0.00216973479
0.002169360374
0.002169000784
0.002168661634
0.002168353776
0.002168116245
0.00217225946
0.002172036695
0.002171727284
0.002171344882
0.002170911099
0.002170449232
0.002169980136
0.002169520285
0.002169081371
0.002168670798
0.002168292563
0.002167948341
0.002167639155
0.00216736998
0.002167168435
0.002171933451
0.002171452118
0.002170856851
0.002170210575
0.002169567856
0.002168965925
0.002168424974
0.002167952235
0.002167546598
0.002167202391
0.00216691202
0.002166667664
0.002166462596
0.002166293748
0.002166172138
0.002169742483
0.002168490685
0.002167358603
0.002166431226
0.002165725572
0.002165220837
0.002164880843
0.002164667302
0.002164546164
0.002164489793
0.002164476957
0.002164491733
0.002164521437
0.002164551761
0.002165948957
0.00216384071
0.002162388468
0.002161531965
0.002161129843
0.00216104005
0.002161148169
0.002161371404
0.002161653657
0.002161958702
0.002162263945
0.002162554918
0.002162817901
0.002163019062
0.002160991093
0.002158898486
0.002158000577
0.002157842848
0.002158100702
0.002158569763
0.002159128899
0.00215970919
0.002160273061
0.002160801287
0.002161284965
0.002161719724
0.002162097524
0.002162379743
0.002165949034
0.002163840785
0.002162388536
0.002161532026
0.002161129898
0.002161040101
0.002161148216
0.002161371448
0.002161653698
0.00216195874
0.002162263982
0.002162554953
0.002162817934
0.002163019095
0.002169742547
0.002168490738
0.002167358652
0.002166431276
0.002165725624
0.002165220891
0.002164880897
0.002164667357
0.002164546219
0.002164489847
0.002164477012
0.002164491787
0.002164521491
0.002164551814
0.002171452133
0.002170856868
0.002170210596
0.002169567881
0.002168965955
0.002168425008
0.002167952274
0.002167546641
0.002167202438
0.00216691207
0.002166667716
0.002166462651
0.002166293805
0.002166172196
0.002172036699
0.00217172729
0.002171344891
0.002170911113
0.002170449251
0.002169980161
0.002169520314
0.002169081406
0.002168670838
0.002168292608
0.002167948391
0.002167639209
0.002167370038
0.002167168496
0.002172076031
0.002171705461
0.002171225693
0.002170675496
0.00217009509
0.002169517889
0.002168967835
0.002168459833
0.002168001509
0.002167595207
0.002167239794
0.002166932163
0.002166668829
0.002166449408
0.002166290507
0.002171332965
0.002170423353
0.002169435842
0.002168497816
0.002167678998
0.002167003462
0.002166467677
0.002166054781
0.002165743571
0.002165513292
0.002165345749
0.002165225932
0.002165141945
0.002165084866
0.002165050227
0.002168525389
0.00216594897
0.002163840733
0.002162388491
0.002161531986
0.002161129861
0.002161040066
0.002161148183
0.002161371416
0.002161653668
0.002161958712
0.002162263954
0.002162554926
0.002162817908
0.00216301907
0.002152974251
0.002150328488
0.002149892436
0.002150652912
0.002151947114
0.002153401136
0.00215482548
0.002156135655
0.002157302583
0.00215832431
0.002159210491
0.002159972859
0.002160612951
0.002161080077
0.002127577694
0.002130888595
0.002135977539
0.002140860293
0.002145011795
0.002148399996
0.00215113388
0.002153342495
0.002155138569
0.002156611545
0.002157829432
0.002158840921
0.002159668934
0.002160263591
0.002152974521
0.002150328666
0.002149892573
0.002150653025
0.00215194721
0.002153401221
0.002154825555
0.002156135722
0.002157302644
0.002158324365
0.002159210542
0.002159972906
0.002160612995
0.002161080119
0.002165949028
0.0021638408
0.002162388565
0.002161532064
0.002161129942
0.002161040147
0.002161148264
0.002161371494
0.002161653744
0.002161958785
0.002162264025
0.002162554995
0.002162817975
0.002163019135
0.002170423361
0.002169435856
0.00216849784
0.002167679031
0.002167003504
0.002166467726
0.002166054836
0.00216574363
0.002165513354
0.002165345813
0.002165225999
0.002165142013
0.002165084935
0.002165050297
0.00217170546
0.002171225695
0.002170675503
0.002170095103
0.00216951791
0.002168967863
0.002168459869
0.002168001552
0.002167595256
0.002167239848
0.002166932222
0.002166668893
0.002166449475
0.002166290577
0.002171938628
0.002171469376
0.002170896325
0.00217027176
0.002169639589
0.002169031506
0.002168467707
0.002167959127
0.002167509926
0.002167119659
0.002166785021
0.002166501211
0.002166263283
0.002166069032
0.00216593066
0.002170707105
0.002169454609
0.002168268183
0.002167263641
0.002166466849
0.002165861759
0.002165417471
0.002165101187
0.002164883519
0.002164740101
0.002164651554
0.002164602826
0.002164582246
0.002164580228
0.002164586828
0.002164709546
0.002160991104
0.002158898543
0.002158000636
0.0021578429
0.002158100748
0.002158569803
0.002159128934
0.002159709221
0.002160273089
0.002160801312
0.002161284987
0.002161719744
0.002162097542
0.00216237976
0.002132068357
0.00212757787
0.002130888726
0.002135977632
0.002140860362
0.002145011847
0.002148400035
0.00215113391
0.002153342519
0.002155138589
0.002156611562
0.002157829446
0.002158840934
0.002159668945
0.002160263601
0.002018192431
0.002073663668
0.002104464062
0.002122534954
0.002133745504
0.002141086489
0.002146139566
0.002149774464
0.00215248897
0.002154579634
0.002156229701
0.002157553772
0.002158611232
0.002159359519
0.002127577679
0.002130888881
0.002135977809
0.002140860514
0.002145011976
0.002148400145
0.002151134004
0.002153342601
0.002155138662
0.002156611627
0.002157829505
0.002158840988
0.002159668995
0.002160263648
0.002160991085
0.002158898578
0.002158000701
0.002157842982
0.002158100836
0.002158569892
0.002159129022
0.002159709307
0.002160273171
0.00216080139
0.002161285063
0.002161719817
0.002162097613
0.002162379829
0.002169454595
0.002168268182
0.002167263656
0.002166466879
0.002165861802
0.002165417523
0.002165101246
0.002164883584
0.002164740168
0.002164651624
0.002164602898
0.002164582319
0.002164580303
0.002164586903
0.002171469368
0.00217089632
0.002170271762
0.0021696396
0.002169031526
0.002168467736
0.002167959165
0.002167509972
0.002167119712
0.00216678508
0.002166501275
0.002166263352
0.002166069104
0.002165930736
0.002172076035
0.002171705468
0.002171225704
0.00217067551
0.002170095106
0.002169517908
0.002168967855
0.002168459856
0.002168001533
0.002167595233
0.00216723982
0.00216693219
0.002166668857
0.002166449436
0.002166290535
0.002171332981
0.00217042338
0.002169435875
0.002168497853
0.002167679036
0.002167003502
0.002166467717
0.002166054821
0.002165743611
0.002165513331
0.002165345787
0.002165225971
0.002165141982
0.002165084903
0.002165050263
0.002168525492
0.002165949078
0.002163840852
0.002162388603
0.002161532088
0.002161129955
0.002161040152
0.002161148263
0.002161371489
0.002161653736
0.002161958774
0.002162264013
0.002162554981
0.00216281796
0.00216301912
0.00215892006
0.002152974681
0.002150328834
0.002149892709
0.002150653131
0.002151947293
0.002153401286
0.002154825606
0.002156135763
0.002157302677
0.002158324393
0.002159210566
0.002159972927
0.002160613014
0.002161080137
0.002132068388
0.002127577955
0.002130889063
0.002135977927
0.002140860593
0.00214501203
0.002148400184
0.002151134034
0.002153342625
0.002155138681
0.002156611643
0.002157829519
0.002158840999
0.002159669005
0.002160263658
0.002158919986
0.002152974706
0.002150328893
0.002149892779
0.002150653204
0.002151947364
0.002153401354
0.002154825671
0.002156135824
0.002157302734
0.002158324447
0.002159210616
0.002159972974
0.002160613058
0.002161080179
0.002165948953
0.002163840806
0.002162388606
0.002161532122
0.002161130006
0.002161040211
0.002161148326
0.002161371555
0.002161653802
0.00216195884
0.002162264078
0.002162555045
0.002162818023
0.002163019182
0.002170423343
0.002169435852
0.002168497848
0.002167679048
0.002167003528
0.002166467755
0.002166054868
0.002165743664
0.002165513389
0.002165345849
0.002165226035
0.002165142049
0.002165084971
0.002165050333
0.002171705455
0.002171225692
0.002170675504
0.002170095109
0.00216951792
0.002168967877
0.002168459886
0.002168001572
0.002167595279
0.002167239872
0.002166932248
0.00216666892
0.002166449504
0.002166290607
0.002172259464
0.002172036704
0.002171727297
0.002171344899
0.00217091112
0.002170449257
0.002169980165
0.002169520317
0.002169081406
0.002168670836
0.002168292603
0.002167948385
0.002167639201
0.002167370027
0.002167168484
0.00217193347
0.002171452145
0.002170856885
0.002170210614
0.002169567898
0.002168965971
0.002168425023
0.002167952288
0.002167546652
0.002167202447
0.002166912078
0.002166667722
0.002166462655
0.002166293808
0.002166172198
0.002170937751
0.002169742578
0.002168490782
0.002167358701
0.002166431325
0.002165725672
0.002165220937
0.00216488094
0.002164667397
0.002164546256
0.002164489883
0.002164477044
0.002164491818
0.002164521519
0.002164551841
0.002168525504
0.002165949109
0.002163840898
0.00216238866
0.00216153215
0.002161130017
0.002161040212
0.00216114832
0.002161371544
0.002161653787
0.002161958823
0.002162264059
0.002162555025
0.002162818002
0.002163019161
0.002164709568
0.002160991217
0.002158898703
0.002158000807
0.002157843068
0.002158100906
0.002158569951
0.002159129071
0.002159709347
0.002160273206
0.002160801421
0.00216128509
0.00216171984
0.002162097634
0.002162379849
0.002168525502
0.002165949113
0.002163840907
0.002162388675
0.002161532172
0.002161130044
0.002161040242
0.002161148352
0.002161371577
0.002161653821
0.002161958857
0.002162264093
0.002162555059
0.002162818035
0.002163019193
0.002170937717
0.002169742547
0.002168490764
0.002167358699
0.002166431337
0.002165725695
0.002165220967
0.002164880977
0.002164667438
0.002164546301
0.002164489929
0.002164477092
0.002164491867
0.002164521569
0.002164551892
0.002171452115
0.002170856866
0.002170210606
0.002169567902
0.002168965985
0.002168425046
0.002167952318
0.002167546689
0.002167202489
0.002166912124
0.002166667773
0.002166462709
0.002166293865
0.002166172257
0.002172036692
0.002171727286
0.002171344892
0.002170911119
0.002170449263
0.002169980179
0.002169520338
0.002169081435
0.002168670872
0.002168292645
0.002167948432
0.002167639253
0.002167370085
0.002167168545
0.002172381821
0.002172263191
0.002172087713
0.002171854299
0.002171568431
0.002171240004
0.002170880958
0.00217050338
0.002170118248
0.002169734801
0.002169360385
0.002169000794
0.002168661644
0.002168353785
0.002168116254
0.002172256366
0.00217203223
0.002171724992
0.002171350761
0.002170932051
0.002170491386
0.002170047688
0.002169615005
0.002169202695
0.002168816264
0.002168458407
0.0021681301
0.002167832205
0.002167570036
0.002167371969
0.002171933472
0.002171452148
0.002170856891
0.002170210624
0.002169567912
0.002168965988
0.002168425042
0.002167952308
0.002167546675
0.002167202471
0.002166912102
0.002166667747
0.002166462681
0.002166293834
0.002166172224
0.002171332985
0.002170423393
0.002169435899
0.002168497887
0.002167679079
0.002167003552
0.002166467772
0.002166054879
0.002165743671
0.002165513393
0.00216534585
0.002165226033
0.002165142045
0.002165084965
0.002165050326
0.002170707115
0.002169454643
0.002168268239
0.002167263714
0.002166466935
0.002165861853
0.00216541757
0.002165101289
0.002164883623
0.002164740204
0.002164651657
0.002164602928
0.002164582347
0.002164580328
0.002164586928
0.002171332985
0.002170423394
0.002169435901
0.002168497891
0.002167679086
0.002167003562
0.002166467785
0.002166054895
0.002165743688
0.002165513411
0.00216534587
0.002165226054
0.002165142067
0.002165084988
0.002165050349
0.002171933467
0.002171452143
0.002170856887
0.002170210624
0.002169567917
0.002168965998
0.002168425057
0.002167952328
0.002167546698
0.002167202498
0.002166912132
0.00216666778
0.002166462716
0.002166293871
0.002166172263
0.002172256359
0.002172032221
0.002171724984
0.002171350757
0.002170932051
0.002170491392
0.002170047699
0.002169615021
0.002169202716
0.002168816291
0.002168458439
0.002168130136
0.002167832245
0.002167570079
0.002167372015
0.002172263182
0.002172087705
0.002171854293
0.002171568429
0.002171240005
0.002170880964
0.002170503391
0.002170118265
0.002169734823
0.002169360413
0.002169000828
0.002168661683
0.002168353829
0.002168116302
0.002172436555
0.002172365877
0.002172256126
0.002172101331
0.002171899633
0.002171653246
0.002171367655
0.002171050493
0.002170710413
0.002170356158
0.002169995949
0.002169637374
0.002169288511
0.002168963677
0.002168708604
0.002172381821
0.002172263191
0.002172087714
0.0021718543
0.002171568434
0.002171240008
0.002170880964
0.002170503387
0.002170118256
0.00216973481
0.002169360395
0.002169000805
0.002168661657
0.002168353798
0.002168116268
0.002172259465
0.002172036706
0.002171727302
0.002171344906
0.002170911132
0.002170449272
0.002169980184
0.00216952034
0.002169081432
0.002168670865
0.002168292635
0.002167948419
0.002167639236
0.002167370065
0.002167168523
0.002172076036
0.002171705473
0.002171225715
0.002170675528
0.002170095132
0.002169517941
0.002168967896
0.002168459903
0.002168001585
0.002167595289
0.002167239881
0.002166932254
0.002166668923
0.002166449505
0.002166290606
0.002171938632
0.002171469387
0.002170896347
0.002170271793
0.002169639633
0.002169031561
0.002168467771
0.0021679592
0.002167510006
0.002167119744
0.002166785111
0.002166501304
0.00216626338
0.002166069131
0.002165930761
0.002172076036
0.002171705473
0.002171225715
0.00217067553
0.002170095134
0.002169517946
0.002168967902
0.002168459911
0.002168001595
0.002167595301
0.002167239894
0.002166932269
0.002166668939
0.002166449522
0.002166290624
0.002172259464
0.002172036705
0.002171727301
0.002171344907
0.002170911134
0.002170449277
0.002169980192
0.002169520351
0.002169081447
0.002168670883
0.002168292656
0.002167948442
0.002167639263
0.002167370094
0.002167168554
0.00217238182
0.002172263189
0.002172087712
0.002171854299
0.002171568435
0.002171240011
0.00217088097
0.002170503397
0.002170118271
0.002169734829
0.002169360419
0.002169000833
0.002168661688
0.002168353834
0.002168116306
0.002172436553
0.002172365874
0.002172256123
0.002172101328
0.002171899632
0.002171653246
0.002171367658
0.0021710505
0.002170710424
0.002170356173
0.00216999597
0.0021696374
0.002169288542
0.002168963713
0.002168708645
)
;

boundaryField
{
    top
    {
        type            zeroGradient;
    }
    bottom
    {
        type            zeroGradient;
    }
    side-walls
    {
        type            zeroGradient;
    }
    inlet
    {
        type            zeroGradient;
    }
    outlet
    {
        type            zeroGradient;
    }
    procBoundary1to0
    {
        type            processor;
        value           nonuniform List<scalar> 
97
(
0.002172436553
0.002172436553
0.00217238182
0.002172259465
0.002172076039
0.002171938639
0.002172076043
0.002172259469
0.002172381824
0.002172436557
0.002172452055
0.002172256358
0.002172256358
0.002172256358
0.002171933467
0.00217133299
0.002170707139
0.002171333004
0.002171933481
0.00217225637
0.002172381823
0.002172396568
0.002172253383
0.00217093771
0.00217093771
0.00217093771
0.002168525492
0.002164709682
0.00216852557
0.002170937778
0.00217193348
0.002172259468
0.002172315429
0.002172001437
0.002170905955
0.002158919753
0.002158919753
0.002158919753
0.002132068927
0.002158920223
0.002168525561
0.002171333
0.002172076041
0.002172257616
0.002171764306
0.002169693014
0.002161525424
0.001912697498
0.001912697498
0.001912697498
0.002132068798
0.002132068798
0.002164709649
0.00217070713
0.002171938636
0.00217231543
0.002172001439
0.002170905962
0.002167731199
0.002161525403
0.002167731208
0.002168525423
0.002168525423
0.002168525423
0.002171332978
0.002172076036
0.002172396569
0.002172253385
0.002171834713
0.002170905965
0.002169693014
0.002170905965
0.002171834709
0.002171933456
0.002171933456
0.002171933456
0.002172259462
0.002172452056
0.002172395475
0.002172253385
0.00217200144
0.002171764307
0.00217200144
0.002172253385
0.002172395474
0.002172381817
0.002172381817
0.002172381817
0.002172477215
0.002172452056
0.002172396569
0.00217231543
0.002172257617
0.00217231543
0.002172396569
0.002172452055
0.002172477214
)
;
    }
}


// ************************************************************************* //
