/*--------------------------------*- C++ -*----------------------------------*\
| =========                 |                                                 |
| \\      /  F ield         | OpenFOAM: The Open Source CFD Toolbox           |
|  \\    /   O peration     | Version:  4.x                                   |
|   \\  /    A nd           | Web:      www.OpenFOAM.org                      |
|    \\/     M anipulation  |                                                 |
\*---------------------------------------------------------------------------*/
FoamFile
{
    version     2.0;
    format      ascii;
    class       volScalarField;
    location    "1000";
    object      molarConc;
}
// * * * * * * * * * * * * * * * * * * * * * * * * * * * * * * * * * * * * * //

dimensions      [0 -3 0 0 1 0 0];

internalField   nonuniform List<scalar> 
1174
(
9.963275091
9.963271497
9.963265561
9.963259442
9.963252156
9.963242955
9.963232726
9.963222243
9.96321221
9.9632004
9.963189375
9.963178208
9.963168239
9.963160817
9.963264809
9.96325875
9.963251496
9.963242584
9.963232581
9.963222197
9.963209454
9.963195484
9.96318402
9.963174054
9.963163216
9.96315263
9.963141837
9.963134492
9.963265779
9.96325698
9.963243781
9.963230571
9.963216337
9.963200929
9.963187835
9.963175047
9.963162132
9.963148111
9.963137842
9.963129052
9.963121439
9.963114182
9.963245391
9.963229289
9.963211846
9.963193347
9.963175735
9.963158434
9.963142725
9.963128194
9.96311584
9.963103724
9.963094817
9.963086493
9.963079944
9.963075539
9.963238167
9.963219651
9.963201163
9.963181725
9.963163212
9.963145535
9.963128679
9.963114116
9.963100232
9.963090415
9.963080794
9.963072667
9.963067322
9.963062363
9.963252334
9.963236998
9.96321827
9.963200221
9.963182195
9.963165382
9.963150515
9.963135602
9.963123798
9.963113009
9.963103655
9.963095492
9.963086404
9.963082486
9.963278137
9.963269222
9.963256878
9.963243322
9.963230591
9.963215737
9.963201687
9.963187982
9.963175259
9.963162708
9.963150887
9.963142823
9.963134836
9.963129374
9.963268605
9.963264013
9.96325617
9.963249845
9.963239011
9.963227041
9.963214314
9.963201449
9.963189366
9.963177813
9.963166766
9.963156696
9.963146509
9.963139542
9.9632776
9.963273796
9.963269563
9.963262786
9.96325447
9.963246668
9.963238145
9.96322753
9.963216674
9.963207049
9.963195211
9.96318401
9.96317371
9.963165404
9.963268574
9.963263769
9.963257429
9.963250128
9.963241119
9.963230523
9.963218687
9.963207553
9.963196087
9.963183655
9.963172639
9.963160665
9.963149801
9.963140359
9.963132562
9.963263258
9.963256453
9.96324331
9.963230347
9.963216981
9.963203912
9.963192129
9.96317859
9.963165621
9.963153567
9.963144187
9.963133117
9.963124097
9.963118054
9.96324909
9.963230509
9.963210654
9.963190886
9.963171718
9.963154105
9.963137792
9.963125319
9.963114778
9.963104144
9.963097485
9.963092373
9.963085786
9.96308139
9.963218398
9.963186118
9.963157616
9.963131444
9.963110486
9.963093179
9.963080755
9.963070759
9.963062608
9.963055991
9.963053611
9.963050768
9.963049265
9.96304923
9.963169384
9.96313182
9.963100505
9.963075325
9.963055842
9.963041469
9.963030509
9.963023894
9.963018315
9.963015297
9.963013458
9.963012089
9.963013653
9.963014486
9.963210617
9.963178966
9.963148941
9.96312305
9.96310315
9.963086177
9.963074527
9.963063201
9.963057541
9.963052155
9.963046201
9.963044705
9.963041818
9.96304177
9.9632474
9.963228616
9.963208995
9.963188582
9.963170478
9.96315422
9.963140131
9.963126293
9.963115406
9.963106181
9.963098374
9.963090642
9.9630861
9.963082987
9.963270108
9.96325981
9.963247181
9.963233326
9.963219992
9.963206692
9.963193064
9.963179986
9.963167897
9.963155825
9.963145167
9.963134901
9.96312518
9.963118618
9.963263936
9.96325897
9.963252153
9.963244171
9.963233932
9.96322283
9.96321153
9.96319916
9.96318655
9.963175104
9.963164304
9.963155025
9.96314523
9.96313759
9.963261448
9.963254671
9.963246551
9.96323378
9.963220312
9.96320636
9.96319197
9.963177421
9.963164551
9.963150787
9.963138242
9.963126138
9.963116836
9.963108217
9.963102365
9.963261882
9.963247329
9.963228584
9.963210101
9.96318912
9.963169036
9.963151522
9.963137704
9.963123206
9.963113642
9.963105497
9.963098451
9.96309189
9.963085893
9.963082593
9.9632
9.963158158
9.963122049
9.963091882
9.963069286
9.963052911
9.963041052
9.963033769
9.963030001
9.963027488
9.963027562
9.963028228
9.96302911
9.963030477
9.963054321
9.962989267
9.962944039
9.962916779
9.962904208
9.962901048
9.962906592
9.962913037
9.96292157
9.962930921
9.962940006
9.96294964
9.962958474
9.962964532
9.962918485
9.962851817
9.962824434
9.962818597
9.962825547
9.962841402
9.962859679
9.962879592
9.962896855
9.962913552
9.962928952
9.96294274
9.962955814
9.962966648
9.963089823
9.963024099
9.962976885
9.962951367
9.962938176
9.962934796
9.962938356
9.962944343
9.962953428
9.962965013
9.962973485
9.962983485
9.962991491
9.962998049
9.963174735
9.963135076
9.963099137
9.96307084
9.963048846
9.963032491
9.963021473
9.963014602
9.963011606
9.963009004
9.963009846
9.963011938
9.963013135
9.963013901
9.963238663
9.963217904
9.963196342
9.963177161
9.96315859
9.963142137
9.963128253
9.963115692
9.963105172
9.963096081
9.963088134
9.963081913
9.963075886
9.963073765
9.963280178
9.963271434
9.963258787
9.963245652
9.963230923
9.963215209
9.963200619
9.963187752
9.963174505
9.963162388
9.963152068
9.963143096
9.963135449
9.96312826
9.963270818
9.963259112
9.96324392
9.963226263
9.96320908
9.96319077
9.963175023
9.963158303
9.963145244
9.963134202
9.963123921
9.96311377
9.963105125
9.963096907
9.963091172
9.963246167
9.963216405
9.963186263
9.963157685
9.963132195
9.963111117
9.963094589
9.963081487
9.963071511
9.963064199
9.963059208
9.963055187
9.963052255
9.96305118
9.963048693
9.963155394
9.963075938
9.963009274
9.9629636
9.962937383
9.962925983
9.962923408
9.962926907
9.962933792
9.962942801
9.962951627
9.962959865
9.96296908
9.962977249
9.962982881
9.962666441
9.962583557
9.96257088
9.962594129
9.96263754
9.962683945
9.962728353
9.962769369
9.962806739
9.962837961
9.962867
9.962891601
9.962911893
9.962926883
9.962099245
9.962204629
9.96236452
9.962517585
9.962648547
9.962756121
9.962842602
9.962912691
9.962971435
9.963019658
9.963058
9.963090756
9.963117871
9.963139185
9.962662776
9.962578998
9.962564062
9.962587848
9.962629921
9.962674299
9.962718636
9.962759102
9.962796291
9.962828373
9.962855534
9.962879437
9.962897955
9.962911779
9.963067406
9.963000748
9.962955902
9.962929473
9.962917586
9.962913929
9.962917233
9.962923219
9.962932317
9.96294068
9.962948699
9.962957686
9.962965746
9.962972143
9.963209695
9.963178024
9.963149326
9.963123696
9.963102565
9.963087963
9.963074698
9.963065744
9.963059066
9.963053589
9.963050103
9.963047291
9.963045293
9.963045633
9.96325158
9.963236814
9.963218164
9.963200816
9.963182907
9.963165308
9.963149294
9.963135665
9.963122273
9.963111113
9.963101659
9.963093246
9.963087268
9.963082675
9.963257353
9.963243625
9.963225168
9.963204066
9.96318539
9.963165788
9.963148134
9.963131165
9.963117407
9.96310466
9.963090956
9.963082937
9.963075194
9.963069274
9.963064826
9.963210201
9.963170313
9.963135188
9.963103195
9.963079661
9.963062006
9.96304678
9.963037263
9.963031402
9.963027855
9.963025005
9.96302478
9.963024637
9.963024756
9.963025061
9.963021603
9.962904921
9.962837868
9.962810718
9.962804785
9.962812615
9.962826422
9.962842883
9.96286075
9.962877729
9.962893209
9.962909593
9.962922588
9.96293556
9.9629441
9.962237082
9.962094299
9.962198818
9.962360976
9.962515637
9.962645913
9.962753179
9.96284176
9.962913135
9.962969895
9.963017191
9.963056524
9.963089866
9.963117689
9.963136797
10.08025195
10.08223834
10.08343188
10.08421297
10.08477238
10.08520937
10.08557389
10.08589389
10.08618484
10.08645652
10.08671589
10.08696503
10.08720322
10.08743479
9.962072362
9.962178508
9.9623393
9.962492198
9.962621936
9.962731051
9.962818215
9.962889127
9.962947105
9.962993756
9.963032482
9.963065995
9.963091999
9.963109868
9.962921262
9.962855652
9.962827013
9.962821479
9.962828929
9.962843515
9.962861385
9.962877432
9.96289562
9.962912756
9.962927504
9.962943126
9.962955523
9.962963049
9.963158345
9.963122544
9.963090864
9.9630677
9.963049457
9.963036076
9.963025468
9.963017496
9.963012938
9.963009938
9.963009214
9.963010389
9.963009532
9.963010217
9.963253876
9.963235585
9.963216351
9.963197116
9.963177203
9.963159454
9.963142537
9.963129086
9.963116531
9.963105061
9.963095899
9.963087841
9.963081561
9.963077237
9.96327082
9.963258237
9.963242826
9.963224298
9.963207652
9.96319008
9.963171581
9.963156406
9.96314249
9.963129523
9.963118353
9.963108643
9.963099463
9.96309234
9.963087731
9.963247371
9.96321857
9.963189513
9.963159054
9.963132992
9.963111994
9.963095715
9.963082559
9.963071644
9.963063542
9.963057421
9.96305536
9.963052901
9.96305154
9.963051211
9.963130235
9.963049611
9.962983627
9.96293855
9.962912387
9.962899435
9.962896932
9.962900639
9.962907905
9.962918151
9.9629273
9.962936982
9.962949342
9.962957868
9.962964291
9.962872482
9.962685205
9.962603184
9.96258942
9.962614069
9.962655418
9.962701729
9.962746955
9.962788963
9.962827211
9.962858553
9.962886418
9.962909245
9.962930134
9.96294373
9.96222205
9.962083116
9.962187961
9.962349232
9.962504167
9.96263594
9.962744325
9.962828703
9.962900825
9.962957322
9.963004848
9.963044616
9.963077412
9.963104101
9.963123102
9.962858655
9.962670259
9.962585446
9.962571822
9.962596372
9.962636431
9.962681582
9.962725945
9.962768187
9.962803306
9.962835394
9.962864834
9.962888783
9.962908515
9.962922285
9.963074971
9.963008837
9.96296272
9.96293587
9.962923956
9.962921212
9.962923497
9.962929067
9.962938386
9.962949359
9.962960233
9.962968698
9.962976347
9.962982963
9.96323686
9.963205465
9.96317656
9.963150495
9.963128796
9.963110601
9.963098271
9.963089593
9.963082593
9.963077342
9.963073485
9.963069492
9.963068316
9.963066354
9.963254038
9.963239813
9.963222384
9.96320521
9.9631864
9.963169051
9.963152735
9.963137454
9.9631245
9.963113373
9.963104184
9.963096425
9.963088663
9.963085229
9.963265685
9.963258584
9.963248771
9.963237024
9.963223821
9.963209023
9.96319442
9.96318002
9.963166334
9.963153765
9.963140997
9.963131086
9.963120673
9.963112892
9.963106296
9.963238469
9.963222918
9.963204626
9.96318303
9.963162143
9.963144394
9.963126616
9.963112331
9.963099033
9.963090242
9.963082327
9.963073527
9.963067555
9.963062582
9.96305837
9.963211624
9.963175613
9.963135308
9.963099372
9.963069762
9.963048824
9.963033817
9.9630222
9.963016602
9.963012063
9.963012376
9.963012473
9.963013334
9.963014333
9.963016881
9.963160568
9.963079608
9.963013127
9.9629668
9.962940623
9.962927486
9.962923348
9.962927049
9.962933384
9.962942831
9.962953055
9.96296563
9.962974208
9.962982562
9.962988
9.963030579
9.962914368
9.962848886
9.962819746
9.962815714
9.962824355
9.962839394
9.962855992
9.962871726
9.96288976
9.962906485
9.962920315
9.962934868
9.962947369
9.962959262
9.963135127
9.963054563
9.962986674
9.96294141
9.962914595
9.962902681
9.962900384
9.962904172
9.962911552
9.962920843
9.962928977
9.962937976
9.96294694
9.962955138
9.962961227
9.9632278
9.963189264
9.963149734
9.963113712
9.963083897
9.96306137
9.963044054
9.963032311
9.963025785
9.963022107
9.963020028
9.963019472
9.963019127
9.963019182
9.963019943
9.963257167
9.963239033
9.963219952
9.963199192
9.963181099
9.963164814
9.963149347
9.963136485
9.963125998
9.963117918
9.963109347
9.96310434
9.96309978
9.963094263
9.963279818
9.963269128
9.963256872
9.963243555
9.96322851
9.963213201
9.963199405
9.963186488
9.963172656
9.963162308
9.963152242
9.9631421
9.963134384
9.963126905
9.963273719
9.963270485
9.963263531
9.963256468
9.963247151
9.963236234
9.963225377
9.963214188
9.963201997
9.963188973
9.963176483
9.963166876
9.963155322
9.96314479
9.963134838
9.963258
9.963249972
9.963240577
9.96322796
9.96321499
9.963200653
9.963186106
9.963172512
9.963159677
9.963147018
9.963135703
9.963125501
9.963115506
9.963107328
9.963101065
9.963264645
9.963249654
9.963231279
9.963210096
9.963190035
9.963170814
9.963152902
9.963136823
9.963124261
9.963113556
9.963104384
9.963095751
9.9630892
9.96308394
9.963079886
9.96323104
9.96320284
9.963171599
9.963142933
9.963115742
9.963094594
9.96307729
9.963064217
9.963054872
9.963047748
9.963042979
9.963040117
9.96303586
9.963033929
9.963032332
9.963215189
9.963176091
9.963139165
9.963106717
9.963080088
9.96306115
9.963047929
9.963038265
9.963031879
9.963027877
9.963025259
9.963025815
9.963025235
9.963024796
9.963025856
9.963231889
9.963203446
9.963171791
9.963142623
9.963116916
9.963095579
9.963078725
9.963065878
9.963056198
9.963049699
9.963045019
9.963041682
9.96303928
9.963038269
9.96303753
9.963266928
9.963251271
9.96323269
9.963212351
9.963193569
9.963174831
9.963158229
9.963142789
9.963131073
9.963118074
9.963108435
9.963099968
9.963093772
9.963088147
9.963085283
9.963259313
9.963251073
9.963240603
9.963229017
9.963216657
9.963202364
9.963188277
9.963175263
9.963163097
9.963151502
9.963139949
9.963130106
9.963120116
9.96311379
9.963106047
9.963264868
9.963259752
9.963251567
9.963242596
9.963232666
9.963219583
9.963207102
9.963194963
9.96318103
9.963169528
9.963158247
9.963148057
9.963140978
9.963133407
9.963275423
9.963272936
9.963268345
9.963263304
9.963257754
9.963249608
9.963240252
9.963230407
9.963220662
9.963209194
9.963198708
9.963186587
9.963174202
9.963165622
9.963157796
9.963270515
9.96326744
9.963261796
9.963254858
9.963246368
9.963236855
9.963225035
9.963213358
9.963201144
9.963188961
9.963176543
9.963166918
9.963155578
9.963145375
9.963137676
9.963272406
9.963265199
9.963257186
9.963245746
9.963231505
9.963217174
9.963202248
9.963187389
9.9631738
9.963160647
9.963148358
9.963137252
9.96312745
9.963119953
9.96311356
9.9632628
9.963250027
9.96323548
9.963218352
9.963198766
9.963180752
9.963165163
9.963149538
9.963135207
9.963122612
9.963111654
9.963102171
9.963095562
9.963089823
9.963086041
9.963266981
9.963253113
9.963235086
9.963215361
9.963193905
9.963175281
9.963156994
9.963141915
9.963126495
9.963114625
9.963104703
9.963096694
9.963088601
9.963081965
9.963077516
9.963249236
9.96323782
9.96322355
9.963206902
9.963188626
9.963171568
9.963154978
9.963139468
9.963124976
9.963113582
9.963101971
9.963092283
9.963084365
9.963077699
9.963074561
9.963271489
9.963262228
9.963253011
9.963242078
9.963229235
9.963212936
9.96319847
9.963183562
9.963170005
9.963156363
9.963146008
9.963135495
9.963126627
9.963117641
9.963111846
9.963294357
9.963291209
9.963284601
9.9632768
9.963269296
9.963259552
9.963248059
9.963237875
9.963225836
9.963214106
9.963201124
9.963190505
9.963181427
9.963171091
9.963163544
9.96326752
9.963265727
9.96326312
9.963258113
9.963252401
9.963244049
9.963235194
9.963224988
9.963214723
9.963204303
9.963193224
9.96318185
9.963171365
9.963161863
9.963155586
)
;

boundaryField
{
    top
    {
        type            calculated;
        value           nonuniform List<scalar> 
127
(
9.96326752
9.9632776
9.963263936
9.963280178
9.96325158
9.963253876
9.963254038
9.963279818
9.963264868
9.963265727
9.963273796
9.96325897
9.963271434
9.963236814
9.963235585
9.963239813
9.963269128
9.963259752
9.96326312
9.963269563
9.963252153
9.963258787
9.963218164
9.963216351
9.963222384
9.963256872
9.963251567
9.963258113
9.963262786
9.963244171
9.963245652
9.963200816
9.963197116
9.96320521
9.963243555
9.963242596
9.963252401
9.96325447
9.963233932
9.963230923
9.963182907
9.963177203
9.9631864
9.96322851
9.963232666
9.963244049
9.963246668
9.96322283
9.963215209
9.963165308
9.963159454
9.963169051
9.963213201
9.963219583
9.963235194
9.963238145
9.96321153
9.963200619
9.963149294
9.963142537
9.963152735
9.963199405
9.963207102
9.963224988
9.96322753
9.96319916
9.963187752
9.963135665
9.963129086
9.963137454
9.963186488
9.963194963
9.963214723
9.963216674
9.96318655
9.963174505
9.963122273
9.963116531
9.9631245
9.963172656
9.96318103
9.963204303
9.963207049
9.963175104
9.963162388
9.963111113
9.963105061
9.963113373
9.963162308
9.963169528
9.963193224
9.963195211
9.963164304
9.963152068
9.963101659
9.963095899
9.963104184
9.963152242
9.963158247
9.96318185
9.96318401
9.963155025
9.963143096
9.963093246
9.963087841
9.963096425
9.9631421
9.963148057
9.963171365
9.96317371
9.96314523
9.963135449
9.963087268
9.963081561
9.963088663
9.963134384
9.963140978
9.963161863
9.963165404
9.96313759
9.96312826
9.963082675
9.963077237
9.963085229
9.963126905
9.963133407
9.963155586
)
;
    }
    bottom
    {
        type            calculated;
        value           nonuniform List<scalar> 
134
(
9.963268574
9.963261448
9.963270818
9.963257353
9.96327082
9.963265685
9.963273719
9.963275423
9.963275091
9.963263769
9.963254671
9.963259112
9.963243625
9.963258237
9.963258584
9.963270485
9.963272936
9.963271497
9.963257429
9.963246551
9.96324392
9.963225168
9.963242826
9.963248771
9.963263531
9.963268345
9.963265561
9.963250128
9.96323378
9.963226263
9.963204066
9.963224298
9.963237024
9.963256468
9.963263304
9.963259442
9.963241119
9.963220312
9.96320908
9.96318539
9.963207652
9.963223821
9.963247151
9.963257754
9.963252156
9.963230523
9.96320636
9.96319077
9.963165788
9.96319008
9.963209023
9.963236234
9.963249608
9.963242955
9.963218687
9.96319197
9.963175023
9.963148134
9.963171581
9.96319442
9.963225377
9.963240252
9.963232726
9.963207553
9.963177421
9.963158303
9.963131165
9.963156406
9.96318002
9.963214188
9.963230407
9.963222243
9.963196087
9.963164551
9.963145244
9.963117407
9.96314249
9.963166334
9.963201997
9.963220662
9.96321221
9.963183655
9.963150787
9.963134202
9.96310466
9.963129523
9.963153765
9.963188973
9.963209194
9.9632004
9.963172639
9.963138242
9.963123921
9.963090956
9.963118353
9.963140997
9.963176483
9.963198708
9.963189375
9.963160665
9.963126138
9.96311377
9.963082937
9.963108643
9.963131086
9.963166876
9.963186587
9.963178208
9.963149801
9.963116836
9.963105125
9.963075194
9.963099463
9.963120673
9.963155322
9.963174202
9.963168239
9.963140359
9.963108217
9.963096907
9.963069274
9.96309234
9.963112892
9.96314479
9.963165622
9.963160817
9.963132562
9.963102365
9.963091172
9.963064826
9.963087731
9.963106296
9.963134838
9.963157796
)
;
    }
    side-walls
    {
        type            calculated;
        value           nonuniform List<scalar> 
261
(
9.963275091
9.963264809
9.963265779
9.963245391
9.963238167
9.963252334
9.963278137
9.963268605
9.9632776
9.963271497
9.96325875
9.96325698
9.963229289
9.963219651
9.963236998
9.963269222
9.963264013
9.963273796
9.963265561
9.963251496
9.963243781
9.963211846
9.963201163
9.96321827
9.963256878
9.96325617
9.963269563
9.963259442
9.963242584
9.963230571
9.963193347
9.963181725
9.963200221
9.963243322
9.963249845
9.963262786
9.963252156
9.963232581
9.963216337
9.963175735
9.963163212
9.963182195
9.963230591
9.963239011
9.96325447
9.963242955
9.963222197
9.963200929
9.963158434
9.963145535
9.963165382
9.963215737
9.963227041
9.963246668
9.963232726
9.963209454
9.963187835
9.963142725
9.963128679
9.963150515
9.963201687
9.963214314
9.963238145
9.963222243
9.963195484
9.963175047
9.963128194
9.963114116
9.963135602
9.963187982
9.963201449
9.96322753
9.96321221
9.96318402
9.963162132
9.96311584
9.963100232
9.963123798
9.963175259
9.963189366
9.963216674
9.9632004
9.963174054
9.963148111
9.963103724
9.963090415
9.963113009
9.963162708
9.963177813
9.963207049
9.963189375
9.963163216
9.963137842
9.963094817
9.963080794
9.963103655
9.963150887
9.963166766
9.963195211
9.963178208
9.96315263
9.963129052
9.963086493
9.963072667
9.963095492
9.963142823
9.963156696
9.96318401
9.963168239
9.963141837
9.963121439
9.963079944
9.963067322
9.963086404
9.963134836
9.963146509
9.96317371
9.963160817
9.963134492
9.963114182
9.963075539
9.963062363
9.963082486
9.963129374
9.963139542
9.963165404
9.963275423
9.963270515
9.963272406
9.9632628
9.963266981
9.963249236
9.963271489
9.963294357
9.96326752
9.963272936
9.96326744
9.963265199
9.963250027
9.963253113
9.96323782
9.963262228
9.963291209
9.963265727
9.963268345
9.963261796
9.963257186
9.96323548
9.963235086
9.96322355
9.963253011
9.963284601
9.96326312
9.963263304
9.963254858
9.963245746
9.963218352
9.963215361
9.963206902
9.963242078
9.9632768
9.963258113
9.963257754
9.963246368
9.963231505
9.963198766
9.963193905
9.963188626
9.963229235
9.963269296
9.963252401
9.963249608
9.963236855
9.963217174
9.963180752
9.963175281
9.963171568
9.963212936
9.963259552
9.963244049
9.963240252
9.963225035
9.963202248
9.963165163
9.963156994
9.963154978
9.96319847
9.963248059
9.963235194
9.963230407
9.963213358
9.963187389
9.963149538
9.963141915
9.963139468
9.963183562
9.963237875
9.963224988
9.963220662
9.963201144
9.9631738
9.963135207
9.963126495
9.963124976
9.963170005
9.963225836
9.963214723
9.963209194
9.963188961
9.963160647
9.963122612
9.963114625
9.963113582
9.963156363
9.963214106
9.963204303
9.963198708
9.963176543
9.963148358
9.963111654
9.963104703
9.963101971
9.963146008
9.963201124
9.963193224
9.963186587
9.963166918
9.963137252
9.963102171
9.963096694
9.963092283
9.963135495
9.963190505
9.96318185
9.963174202
9.963155578
9.96312745
9.963095562
9.963088601
9.963084365
9.963126627
9.963181427
9.963171365
9.963165622
9.963145375
9.963119953
9.963089823
9.963081965
9.963077699
9.963117641
9.963171091
9.963161863
9.963157796
9.963137676
9.96311356
9.963086041
9.963077516
9.963074561
9.963111846
9.963163544
9.963155586
)
;
    }
    inlet
    {
        type            calculated;
        value           nonuniform 0();
    }
    outlet
    {
        type            calculated;
        value           nonuniform List<scalar> 
81
(
9.963160817
9.963134492
9.963114182
9.963075539
9.963062363
9.963082486
9.963129374
9.963139542
9.963165404
9.963132562
9.963118054
9.96308139
9.96304923
9.963014486
9.96304177
9.963082987
9.963118618
9.96313759
9.963102365
9.963082593
9.963030477
9.962964532
9.962966648
9.962998049
9.963013901
9.963073765
9.96312826
9.963091172
9.963048693
9.962982881
9.962926883
9.963139185
9.962911779
9.962972143
9.963045633
9.963082675
9.963064826
9.963025061
9.9629441
9.963136797
10.08743479
9.963109868
9.962963049
9.963010217
9.963077237
9.963087731
9.963051211
9.962964291
9.96294373
9.963123102
9.962922285
9.962982963
9.963066354
9.963085229
9.963106296
9.96305837
9.963016881
9.962988
9.962959262
9.962961227
9.963019943
9.963094263
9.963126905
9.963134838
9.963101065
9.963079886
9.963032332
9.963025856
9.96303753
9.963085283
9.963106047
9.963133407
9.963157796
9.963137676
9.96311356
9.963086041
9.963077516
9.963074561
9.963111846
9.963163544
9.963155586
)
;
    }
    procBoundary1to0
    {
        type            processor;
        value           nonuniform List<scalar> 
97
(
9.963278111
9.963278111
9.963268822
9.963272671
9.963257087
9.963253484
9.963263833
9.963285993
9.963271798
9.963279568
9.96327134
9.963268838
9.963268838
9.963268838
9.963262868
9.963247928
9.963209683
9.9632403
9.963262072
9.96327714
9.963268068
9.963263048
9.963271808
9.963238227
9.963238227
9.963238227
9.96313566
9.963033995
9.963169146
9.963213778
9.963253855
9.963289677
9.9632786
9.963267381
9.963231117
9.962852644
9.962852644
9.962852644
9.962237792
9.962848223
9.963151332
9.963237417
9.963262433
9.963267718
9.963243854
9.963176744
9.962932769
10.07675629
10.07675629
10.07675629
9.962209071
9.962209071
9.963037939
9.963198749
9.963267676
9.963277572
9.963268797
9.963203131
9.963148763
9.962918996
9.963135173
9.96315573
9.96315573
9.96315573
9.963264988
9.963265862
9.963270477
9.963247513
9.96324029
9.963234655
9.963187678
9.963209971
9.963252916
9.963271888
9.963271888
9.963271888
9.963286472
9.963275453
9.963262371
9.963272387
9.963251625
9.96324804
9.963252014
9.963278065
9.963264357
9.963269045
9.963269045
9.963269045
9.963275803
9.963272685
9.963276838
9.963270565
9.963278291
9.96325711
9.963276986
9.963297032
9.963269
)
;
    }
}


// ************************************************************************* //
