/*--------------------------------*- C++ -*----------------------------------*\
| =========                 |                                                 |
| \\      /  F ield         | OpenFOAM: The Open Source CFD Toolbox           |
|  \\    /   O peration     | Version:  4.x                                   |
|   \\  /    A nd           | Web:      www.OpenFOAM.org                      |
|    \\/     M anipulation  |                                                 |
\*---------------------------------------------------------------------------*/
FoamFile
{
    version     2.0;
    format      ascii;
    class       surfaceScalarField;
    location    "1000";
    object      phi;
}
// * * * * * * * * * * * * * * * * * * * * * * * * * * * * * * * * * * * * * //

dimensions      [1 0 -1 0 0 0 0];

internalField   nonuniform List<scalar> 
3172
(
9.428789086e-06
-7.329696014e-11
-7.158472297e-11
9.428919412e-06
-6.777614205e-11
-6.488729736e-11
9.429017439e-06
-5.15831012e-11
-4.968833344e-11
9.429087812e-06
-3.608522645e-11
-3.540038522e-11
9.42913361e-06
-2.168872416e-11
-2.136183471e-11
9.429156785e-06
-1.296731548e-11
-1.053237951e-11
9.429166108e-06
-4.26980984e-12
-2.70964916e-12
9.429162121e-06
-4.171832728e-13
3.080906251e-12
9.42915508e-06
5.549665e-12
7.115839316e-12
9.429139088e-06
7.128130295e-12
9.844186184e-12
9.429118146e-06
9.451819278e-12
1.083093258e-11
9.429099818e-06
1.209005209e-11
1.295732566e-11
9.429074833e-06
1.313403357e-11
1.446535633e-11
1.354791767e-11
1.382630706e-11
9.428812874e-06
-1.330420053e-10
-9.381331486e-11
9.428948116e-06
-1.14479999e-10
-8.395092408e-11
9.429041394e-06
-8.284555481e-11
-5.887863715e-11
9.429099212e-06
-5.330982984e-11
-3.651071386e-11
9.429125872e-06
-3.194012033e-11
-1.93983972e-11
9.429136315e-06
-1.412328175e-11
-3.723812785e-12
9.429131312e-06
-2.986306216e-12
4.4701792e-12
9.429121525e-06
5.307449539e-12
1.041323139e-11
9.429105144e-06
1.007713897e-11
1.286907608e-11
9.429087599e-06
1.146400748e-11
1.563166389e-11
9.429067743e-06
1.454417082e-11
1.454964294e-11
9.429045558e-06
1.714087242e-11
1.418090131e-11
9.429023837e-06
2.103567752e-11
1.72595671e-11
2.051786519e-11
1.545901453e-11
9.42889251e-06
-1.32012661e-10
-1.776045159e-10
9.429030158e-06
-1.059728115e-10
-1.446960423e-10
9.429103082e-06
-6.94295337e-11
-8.819299964e-11
9.429131407e-06
-4.017178343e-11
-4.357639341e-11
9.42913132e-06
-2.06922308e-11
-1.378755021e-11
9.429117589e-06
-6.860340096e-12
5.645284728e-12
9.429097108e-06
3.697558155e-12
1.526413595e-11
9.429074063e-06
8.754804507e-12
2.067142637e-11
9.429049573e-06
1.198317962e-11
2.203330798e-11
9.429033778e-06
1.618430968e-11
2.295421432e-11
9.429014446e-06
1.661786595e-11
2.225175457e-11
9.4289949e-06
1.565451853e-11
1.94751978e-11
9.428979311e-06
1.974853464e-11
2.210422348e-11
1.81576279e-11
1.79555498e-11
9.428946574e-06
-9.853358206e-11
-1.786234887e-10
9.42905923e-06
-6.536655171e-11
-1.513945961e-10
9.429102207e-06
-3.941022691e-11
-7.58390731e-11
9.429104018e-06
-1.926221017e-11
-1.799419028e-11
9.429084145e-06
-9.350704628e-12
1.224337813e-11
9.429056933e-06
-3.805905754e-12
2.740807058e-11
9.42902665e-06
8.831869802e-13
3.184310287e-11
9.428998701e-06
3.663048983e-12
3.298182031e-11
9.428977987e-06
4.948509242e-12
3.149033869e-11
9.428959376e-06
5.919458776e-12
2.95597234e-11
9.428946408e-06
8.12213417e-12
2.709178762e-11
9.428934229e-06
6.877635257e-12
2.392946825e-11
9.428921464e-06
7.648833973e-12
2.538221425e-11
7.483931659e-12
2.11962724e-11
9.429064442e-06
9.873230491e-11
-3.670936497e-10
9.429141949e-06
6.483719001e-11
-2.083290782e-10
9.429147794e-06
3.729222134e-11
-8.00426828e-11
9.429116501e-06
1.92617173e-11
-6.33022962e-12
9.429079971e-06
9.708543614e-12
2.672343816e-11
9.429042128e-06
3.410194775e-12
3.771091347e-11
9.429005539e-06
-1.981327516e-12
3.886649375e-11
9.428975035e-06
-4.008119652e-12
3.646681679e-11
9.428954493e-06
-4.087553175e-12
3.340041846e-11
9.428937458e-06
-5.557607421e-12
2.920138723e-11
9.428925393e-06
-5.488169928e-12
2.79748928e-11
9.428916605e-06
-5.519200203e-12
2.527979372e-11
9.428907727e-06
-8.469209683e-12
2.637849996e-11
-7.586080491e-12
2.112443309e-11
9.428951379e-06
1.319544148e-10
-1.792140275e-10
9.429062321e-06
1.063168041e-10
-1.502966287e-10
9.429109578e-06
6.891959835e-11
-7.177436852e-11
9.429109739e-06
3.704575681e-11
-1.787209576e-11
9.429090098e-06
1.752080868e-11
1.28726766e-11
9.429061583e-06
4.256233182e-12
2.735046434e-11
9.429033807e-06
-3.705157965e-12
3.496306698e-11
9.429006838e-06
-1.097712749e-11
3.407066044e-11
9.428983663e-06
-1.374789265e-11
3.04748106e-11
9.42896885e-06
-1.414377385e-11
2.768566921e-11
9.428953719e-06
-1.602824296e-11
2.563546789e-11
9.428941348e-06
-1.65767231e-11
2.384427978e-11
9.42893236e-06
-1.767366016e-11
2.61942574e-11
-1.755405823e-11
2.150395154e-11
9.428903508e-06
1.33678869e-10
-1.782415426e-10
9.429041031e-06
1.14831044e-10
-1.457571563e-10
9.42911468e-06
8.253643726e-11
-8.574471708e-11
9.429144089e-06
5.317290532e-11
-4.207254858e-11
9.429144849e-06
3.175222652e-11
-1.295239818e-11
9.429129537e-06
1.449562197e-11
4.78255523e-12
9.429108528e-06
2.070401876e-12
1.555076612e-11
9.42908741e-06
-7.259983852e-12
2.098974939e-11
9.429065043e-06
-1.194325905e-11
2.287513851e-11
9.429044484e-06
-1.446440545e-11
2.098648285e-11
9.429025219e-06
-1.862533483e-11
2.07376714e-11
9.429009942e-06
-1.835163829e-11
2.057941195e-11
9.428992273e-06
-2.099205035e-11
2.154652649e-11
-2.026016752e-11
1.824353968e-11
9.428815001e-06
7.203696259e-11
-9.606306949e-11
9.428951738e-06
6.590084341e-11
-8.540749871e-11
9.429046092e-06
5.089938127e-11
-5.848193552e-11
9.429103568e-06
3.528550803e-11
-3.494839387e-11
9.429131939e-06
2.169142403e-11
-1.852885668e-11
9.4291416e-06
9.799625434e-12
-4.551970395e-12
9.4291354e-06
2.027782103e-12
3.868085958e-12
9.429127476e-06
-1.874384729e-12
1.103748197e-11
9.429111437e-06
-6.041783982e-12
1.361538506e-11
9.42909213e-06
-6.346097667e-12
1.341597061e-11
9.429071779e-06
-8.726182302e-12
1.676789067e-11
9.429050894e-06
-1.201590728e-11
1.509106702e-11
9.429026794e-06
-1.347254312e-11
1.598123759e-11
-1.317457234e-11
1.564950586e-11
9.428787772e-06
-7.214862387e-11
9.42892105e-06
-6.606926328e-11
9.429021179e-06
-5.049413111e-11
9.429090491e-06
-3.493797368e-11
9.429134397e-06
-2.247701977e-11
9.429160769e-06
-1.008425366e-11
9.429170238e-06
-1.793756145e-12
9.429170441e-06
3.994626455e-12
9.429161767e-06
6.601780702e-12
9.429144675e-06
7.257325089e-12
9.429123774e-06
9.91694653e-12
9.429105456e-06
1.072153012e-11
9.429077911e-06
1.203595661e-11
1.220386823e-11
9.42865798e-06
-1.9871799e-10
9.428813131e-06
-9.467395796e-11
-1.319146435e-10
9.428946258e-06
-8.56593096e-11
-1.144491109e-10
9.429037413e-06
-6.033359217e-11
-8.254089696e-11
9.429096873e-06
-3.71758541e-11
-5.277035738e-11
9.429125966e-06
-1.921802791e-11
-3.087602914e-11
9.429131767e-06
-6.207281479e-12
-1.559874202e-11
9.429130416e-06
3.450676671e-12
-2.402462462e-12
9.42911699e-06
7.93290449e-12
6.277235131e-12
9.429102083e-06
1.221346967e-11
1.174325198e-11
9.429084296e-06
1.432099544e-11
1.501790281e-11
9.42906516e-06
1.44535566e-11
1.740081628e-11
9.429043042e-06
1.437096594e-11
1.833128346e-11
9.429020656e-06
1.748953494e-11
2.193494447e-11
1.596154931e-11
1.992442549e-11
9.428872047e-06
-1.717322165e-10
-1.717876128e-10
9.428998445e-06
-1.461343716e-10
-1.469111554e-10
9.429067756e-06
-9.675059496e-11
-9.601795116e-11
9.429102462e-06
-5.15764505e-11
-5.246947113e-11
9.429110318e-06
-2.213477925e-11
-2.137953656e-11
9.429100939e-06
-2.972179639e-12
-1.843089474e-12
9.429087548e-06
9.917416868e-12
1.055512139e-11
9.429070095e-06
1.81639209e-11
1.862101665e-11
9.429051383e-06
2.192343835e-11
2.196114136e-11
9.429032112e-06
2.186187301e-11
2.306377753e-11
9.429016055e-06
2.418618324e-11
2.467587745e-11
9.429000049e-06
2.559879515e-11
2.496069902e-11
9.42898147e-06
2.706020848e-11
2.537219776e-11
2.389316537e-11
2.339196511e-11
9.42898806e-06
-1.745614524e-10
-3.324017494e-10
9.429081223e-06
-1.342539151e-10
-2.498992901e-10
9.429103296e-06
-7.235066005e-11
-1.329684918e-10
9.429086566e-06
-2.692505736e-11
-5.00838105e-11
9.429056437e-06
-1.883549628e-12
-2.24456921e-12
9.429023455e-06
1.074540149e-11
2.291775927e-11
9.428997425e-06
1.82506655e-11
3.594191718e-11
9.42897549e-06
2.131583563e-11
3.892293167e-11
9.428960384e-06
2.256161455e-11
3.906383159e-11
9.428950374e-06
2.332125487e-11
3.718689711e-11
9.428940791e-06
2.246499625e-11
3.384464821e-11
9.428934452e-06
2.110697801e-11
3.034324674e-11
9.428926597e-06
2.412133224e-11
3.423251786e-11
2.156611451e-11
2.962245252e-11
9.429044269e-06
-1.166966103e-10
-2.605842091e-10
9.429063098e-06
-7.251318301e-11
-2.276185219e-10
9.429035411e-06
-3.494220001e-11
-7.600823161e-11
9.428986135e-06
-1.022122507e-11
1.513248264e-11
9.428942742e-06
7.332391726e-13
5.327090226e-11
9.428913436e-06
4.8802323e-12
6.767246397e-11
9.428893013e-06
9.023154993e-12
6.812611218e-11
9.428881404e-06
9.707326074e-12
6.145988784e-11
9.428874531e-06
8.408865728e-12
5.43483869e-11
9.428873611e-06
7.436550048e-12
4.518367933e-11
9.42887583e-06
1.050340836e-11
4.113337469e-11
9.428878485e-06
9.769643324e-12
3.655527512e-11
9.428884343e-06
1.024070271e-11
4.115245005e-11
9.608760213e-12
3.470087931e-11
9.429226421e-06
1.162316996e-10
-5.447737279e-10
9.429121661e-06
7.38220798e-11
-2.55635708e-10
9.429022729e-06
3.565295577e-11
-4.751189184e-11
9.428940244e-06
9.863799083e-12
5.73203875e-11
9.42888287e-06
-8.774221026e-13
8.310993947e-11
9.428852239e-06
-6.455509326e-12
8.699635325e-11
9.428835044e-06
-7.722243953e-12
7.890472524e-11
9.428825753e-06
-8.945331921e-12
6.75530212e-11
9.428825601e-06
-1.022482627e-11
5.624567359e-11
9.428831471e-06
-1.024263666e-11
4.82222878e-11
9.428834913e-06
-9.836123337e-12
4.209591801e-11
9.428841051e-06
-9.583365134e-12
3.567324618e-11
9.428852437e-06
-1.045743337e-11
4.229115666e-11
-8.967984406e-12
3.436484792e-11
9.429037433e-06
1.740663231e-10
-2.600327042e-10
9.429055975e-06
1.32655637e-10
-2.259014972e-10
9.429025436e-06
7.049279539e-11
-7.618091754e-11
9.42897897e-06
2.467054807e-11
1.648445051e-11
9.428934722e-06
-1.065226162e-12
5.314320105e-11
9.428906385e-06
-1.38476812e-11
6.821259859e-11
9.428885004e-06
-2.154713712e-11
6.750401667e-11
9.428872964e-06
-2.485274634e-11
6.21743793e-11
9.42887101e-06
-2.286929389e-11
5.43758319e-11
9.428870819e-06
-2.305946293e-11
4.715763931e-11
9.428871005e-06
-2.276301816e-11
4.132533791e-11
9.428872822e-06
-2.238481028e-11
3.482040821e-11
9.428878743e-06
-2.471226788e-11
4.171175571e-11
-2.208541471e-11
3.576863584e-11
9.428984771e-06
1.711186789e-10
-3.301223132e-10
9.42907997e-06
1.456028002e-10
-2.478448879e-10
9.429099372e-06
9.419331198e-11
-1.301384983e-10
9.429085298e-06
5.28578779e-11
-4.833594966e-11
9.429053627e-06
2.289090168e-11
-2.333606141e-12
9.429024229e-06
2.927895928e-12
2.477081629e-11
9.428998014e-06
-1.194528744e-11
3.55902441e-11
9.428977392e-06
-1.92879603e-11
4.078709552e-11
9.428961123e-06
-2.277675228e-11
3.857309759e-11
9.428950142e-06
-2.340443487e-11
3.630157624e-11
9.428940143e-06
-2.485794224e-11
3.313425355e-11
9.428932447e-06
-2.466271265e-11
2.943823689e-11
9.428926566e-06
-2.791029543e-11
3.511016154e-11
-2.447925325e-11
3.063285602e-11
9.428878318e-06
9.554797393e-11
-1.718388679e-10
9.429000658e-06
8.572699711e-11
-1.462162671e-10
9.429072832e-06
5.875739608e-11
-9.364967186e-11
9.429104304e-06
3.581565662e-11
-5.109876469e-11
9.429112071e-06
1.767475627e-11
-2.285481597e-11
9.429102764e-06
4.969461586e-12
-1.021302594e-12
9.429089125e-06
-3.506357252e-12
1.237478225e-11
9.429070942e-06
-8.502486896e-12
1.978348965e-11
9.429053322e-06
-1.234989485e-11
2.259671482e-11
9.429035672e-06
-1.31874544e-11
2.363148285e-11
9.429016621e-06
-1.553841047e-11
2.413711503e-11
9.429000911e-06
-1.562460486e-11
2.300208432e-11
9.428984073e-06
-1.634626203e-11
2.759592648e-11
-1.624875044e-11
2.384124248e-11
9.428812879e-06
-1.329818457e-10
9.42894673e-06
-1.160334408e-10
9.429042001e-06
-8.190476299e-11
9.429096817e-06
-5.335662606e-11
9.429127182e-06
-3.077118896e-11
9.429137653e-06
-1.395274655e-11
9.429134221e-06
-1.324949827e-12
9.429120977e-06
7.08428916e-12
9.429107934e-06
1.202205523e-11
9.42908839e-06
1.511612209e-11
9.429067603e-06
1.740945758e-11
9.429050337e-06
1.776715619e-11
9.42902625e-06
1.953669468e-11
1.905439857e-11
9.428701896e-06
-3.279696748e-10
-2.404619827e-10
9.428882387e-06
-1.774409637e-10
-1.316850247e-10
9.429020983e-06
-1.452514647e-10
-1.049424047e-10
9.429092238e-06
-8.772898313e-11
-6.906928621e-11
9.429119662e-06
-4.360126034e-11
-3.962660696e-11
9.42912233e-06
-1.345464171e-11
-1.922790184e-11
9.42910724e-06
6.06031853e-12
-5.427021244e-12
9.429088666e-06
1.566797763e-11
2.976988696e-12
9.429062086e-06
2.003313264e-11
7.469562049e-12
9.429039499e-06
2.173475427e-11
1.237871797e-11
9.429017966e-06
2.179765664e-11
1.468827612e-11
9.429000482e-06
2.162532914e-11
1.463523945e-11
9.428985052e-06
2.076542301e-11
1.581885923e-11
9.428965564e-06
2.205809703e-11
1.883598004e-11
1.954092819e-11
1.90393462e-11
9.428825307e-06
-4.58385984e-10
9.428983444e-06
-3.31661485e-10
-1.763771624e-10
9.429080068e-06
-2.497710601e-10
-1.329434841e-10
9.429099423e-06
-1.326426717e-10
-7.043947919e-11
9.429085707e-06
-4.869660851e-11
-2.472765113e-11
9.429053515e-06
-2.088710775e-12
-7.931617919e-13
9.429020927e-06
2.257323756e-11
1.310060012e-11
9.428995436e-06
3.542930595e-11
2.09951506e-11
9.428972451e-06
3.866270404e-11
2.34010296e-11
9.428958998e-06
3.846823737e-11
2.463019376e-11
9.428947061e-06
3.550877806e-11
2.327337464e-11
9.428939335e-06
3.406434762e-11
2.291949706e-11
9.428932752e-06
3.058087352e-11
2.080824139e-11
9.428928184e-06
3.556972618e-11
2.376230004e-11
3.137291618e-11
2.268470894e-11
9.429172733e-06
-3.745047344e-10
-3.77809204e-10
9.429144195e-06
-2.361994895e-10
-2.35827806e-10
9.42905118e-06
-8.104174875e-11
-8.160954858e-11
9.428955154e-06
4.074155134e-13
6.795093759e-13
9.428887e-06
3.220151205e-11
3.350247305e-11
9.428846927e-06
4.399743122e-11
4.575598813e-11
9.428827245e-06
4.55480016e-11
4.752126495e-11
9.428822822e-06
4.129805917e-11
4.278559939e-11
9.428827201e-06
3.715174618e-11
3.877246177e-11
9.428835628e-06
3.160961357e-11
3.334611589e-11
9.428845504e-06
3.03912879e-11
2.968413888e-11
9.428857578e-06
2.744403219e-11
2.526997172e-11
9.428868316e-06
3.138606493e-11
3.011712331e-11
2.63010467e-11
2.674206048e-11
9.429092756e-06
-2.186032357e-10
-1.094329493e-10
9.428892845e-06
-1.230436192e-10
-1.292159225e-10
9.428733976e-06
-3.562691971e-11
3.874806224e-11
9.428642567e-06
5.907140909e-12
1.083791761e-10
9.428607831e-06
1.733057186e-11
1.089186986e-10
9.428611134e-06
2.110573835e-11
9.685105391e-11
9.428635055e-06
2.02759889e-11
8.042761215e-11
9.428666185e-06
1.642602804e-11
6.311186952e-11
9.428696769e-06
1.31197326e-11
5.023807968e-11
9.428730414e-06
1.216087862e-11
4.128624623e-11
9.428760064e-06
1.267228159e-11
3.533013151e-11
9.428785337e-06
9.969091431e-12
2.780679686e-11
9.428813741e-06
1.143892445e-11
3.365871306e-11
1.051426822e-11
3.066909699e-11
9.429427978e-06
2.176446048e-10
-3.078128597e-10
9.428908855e-06
1.23799762e-10
1.904026769e-11
9.428650322e-06
3.727404717e-11
1.418603374e-10
9.428550061e-06
-5.246052045e-12
1.812586448e-10
9.428532515e-06
-1.799598429e-11
1.421462121e-10
9.428556709e-06
-2.084135403e-11
1.088202872e-10
9.428596988e-06
-2.109373808e-11
8.022500885e-11
9.428642351e-06
-1.697881914e-11
6.235972229e-11
9.428684795e-06
-1.474845586e-11
4.97900134e-11
9.42872292e-06
-1.234302331e-11
4.045874424e-11
9.428757168e-06
-1.182422686e-11
3.350218481e-11
9.428789316e-06
-1.104654267e-11
2.804669586e-11
9.428824531e-06
-1.104792626e-11
3.588301525e-11
-8.801163198e-12
2.985230404e-11
9.429125754e-06
3.756771736e-10
-1.078384122e-10
9.428923079e-06
2.35660447e-10
-1.302799001e-10
9.428765705e-06
8.293953582e-11
3.82658379e-11
9.428672866e-06
-1.045386136e-12
1.073891429e-10
9.428638639e-06
-3.508179926e-11
1.080531634e-10
9.428641242e-06
-4.681454536e-11
9.710917475e-11
9.428665985e-06
-4.735422389e-11
7.936122322e-11
9.428693471e-06
-4.343396531e-11
6.324177365e-11
9.428727898e-06
-3.77907116e-11
5.169819766e-11
9.428762019e-06
-3.347761954e-11
4.035103128e-11
9.428788455e-06
-3.180022375e-11
3.401048973e-11
9.428819378e-06
-2.762319675e-11
2.909864713e-11
9.428846429e-06
-3.196628016e-11
3.412310028e-11
-2.689606044e-11
2.951248287e-11
9.429147752e-06
3.29320884e-10
-3.766674839e-10
9.429124504e-06
2.475553157e-10
-2.356738729e-10
9.429029974e-06
1.300729942e-10
-8.21594014e-11
9.428935323e-06
4.906658247e-11
9.364492987e-13
9.428870516e-06
1.69646e-12
3.534728104e-11
9.428827311e-06
-2.389598131e-11
4.867833275e-11
9.428810958e-06
-3.502640245e-11
4.891222753e-11
9.4288037e-06
-3.992240422e-11
4.284678125e-11
9.428808774e-06
-3.891581743e-11
3.779927019e-11
9.428817791e-06
-3.62162294e-11
3.292320309e-11
9.428828758e-06
-3.486018342e-11
2.997405586e-11
9.428842573e-06
-3.209859159e-11
2.690318159e-11
9.428853987e-06
-3.575673547e-11
3.168494581e-11
-3.1416538e-11
2.580530675e-11
9.428977094e-06
1.801718204e-10
-1.743277931e-10
9.429071028e-06
1.456255025e-10
-1.332914979e-10
9.429090619e-06
8.605424078e-11
-7.015693355e-11
9.429071479e-06
4.124123557e-11
-2.564277567e-11
9.429046477e-06
1.385876863e-11
1.377795379e-12
9.429013096e-06
-5.474544178e-12
1.398175802e-11
9.428986631e-06
-1.550482899e-11
2.173460922e-11
9.428965042e-06
-1.986484791e-11
2.347141424e-11
9.428951314e-06
-2.075994694e-11
2.353038085e-11
9.428939453e-06
-2.042118576e-11
2.341137237e-11
9.428930377e-06
-2.031651449e-11
2.289197524e-11
9.428924815e-06
-1.969360058e-11
2.210246281e-11
9.428917273e-06
-2.37883724e-11
2.425777845e-11
-1.991066839e-11
2.122969601e-11
9.428905424e-06
-1.316160022e-10
9.429043651e-06
-1.057206292e-10
9.429117832e-06
-6.734210295e-11
9.42914483e-06
-3.669800306e-11
9.429146306e-06
-1.61340169e-11
9.42913068e-06
-1.881875741e-12
9.429109504e-06
6.421645737e-12
9.429085992e-06
9.809240773e-12
9.429064537e-06
1.219903381e-11
9.429042597e-06
1.378464686e-11
9.429023186e-06
1.50252433e-11
9.429009064e-06
1.70455407e-11
9.428992758e-06
1.918980632e-11
1.693471919e-11
9.428810927e-06
-5.149810015e-10
-2.175819031e-10
9.428959023e-06
-1.802929713e-10
-1.006809258e-10
9.429071938e-06
-1.513704217e-10
-6.669311963e-11
9.429115388e-06
-7.329118606e-11
-3.770737889e-11
9.429116469e-06
-1.711150313e-11
-1.740054138e-11
9.42909864e-06
1.383496729e-11
-5.940517643e-12
9.429069287e-06
2.912784767e-11
-2.170253871e-12
9.429042619e-06
3.39746087e-11
9.849933189e-13
9.429016879e-06
3.595024448e-11
3.911344051e-12
9.428995047e-06
3.371023486e-11
3.340555599e-12
9.428973387e-06
2.814957153e-11
4.800449255e-12
9.428962272e-06
2.698686948e-11
5.672831503e-12
9.428951378e-06
2.323845472e-11
5.799954409e-12
9.428938592e-06
2.492181663e-11
7.898151516e-12
2.103403083e-11
7.431885406e-12
9.42901783e-06
-1.24280287e-09
-4.496634924e-10
9.429044949e-06
-2.616249043e-10
-1.174949519e-10
9.429062924e-06
-2.274579185e-10
-7.48277884e-11
9.429032461e-06
-8.006989882e-11
-3.655055422e-11
9.428986102e-06
1.401013597e-11
-1.029263886e-11
9.428941736e-06
5.182118537e-11
1.086487364e-12
9.428911373e-06
6.552073047e-11
5.312249706e-12
9.428893024e-06
6.855464633e-11
8.516558449e-12
9.428879551e-06
6.077950134e-11
7.616791381e-12
9.428874796e-06
5.360039207e-11
8.171619595e-12
9.428873164e-06
4.503188659e-11
8.512739683e-12
9.428875533e-06
3.99183793e-11
8.470756331e-12
9.42888135e-06
3.464083415e-11
7.80434825e-12
9.42888689e-06
4.087098671e-11
1.021404702e-11
3.553282211e-11
8.700923461e-12
9.429418924e-06
-1.308149924e-09
9.42911363e-06
-1.087284557e-10
-2.188322609e-10
9.428908901e-06
-1.300410814e-10
-1.247156002e-10
9.428753372e-06
3.897273193e-11
-3.734127482e-11
9.42866187e-06
1.084005413e-10
5.77083627e-12
9.428628222e-06
1.075801777e-10
1.735466885e-11
9.428631441e-06
9.470198738e-11
2.082174069e-11
9.428653527e-06
7.778589622e-11
1.960912743e-11
9.428685049e-06
6.122527012e-11
1.749432437e-11
9.428714949e-06
4.852796277e-11
1.422546346e-11
9.428745394e-06
3.940745425e-11
1.24929954e-11
9.428775658e-06
3.532679934e-11
1.179148152e-11
9.428806041e-06
3.051437522e-11
1.043166616e-11
9.428833487e-06
3.432610902e-11
1.225697029e-11
3.005423835e-11
1.069548271e-11
9.428160302e-06
4.926587984e-10
4.921825937e-10
9.427970481e-06
-3.090899548e-11
-3.056840647e-11
9.427991484e-06
3.507030519e-11
3.446454029e-11
9.428087717e-06
6.545783981e-11
6.524640633e-11
9.428212052e-06
5.192730346e-11
5.165061796e-11
9.428333901e-06
3.905427832e-11
4.049203126e-11
9.42843981e-06
2.783507484e-11
3.019493033e-11
9.428529998e-06
2.128276407e-11
2.411628033e-11
9.428603591e-06
1.623401666e-11
1.884229727e-11
9.428663218e-06
1.3211199e-11
1.39215529e-11
9.42871577e-06
1.22136703e-11
1.159118929e-11
9.428763125e-06
1.051159112e-11
1.000625687e-11
9.428813421e-06
1.365232916e-11
1.233241082e-11
1.140582811e-11
1.141085617e-11
9.427805651e-06
-4.913795101e-10
2.899606471e-09
9.427663821e-06
3.042990751e-11
1.16671882e-10
9.427877683e-06
-3.332652062e-11
8.345456371e-12
9.428129766e-06
-6.545020993e-11
7.186853552e-11
9.428340361e-06
-5.187101851e-11
4.643903729e-11
9.428504041e-06
-3.905237994e-11
3.184425471e-11
9.428634146e-06
-2.943836455e-11
2.294737183e-11
9.428733664e-06
-2.129697205e-11
1.707875891e-11
9.428811499e-06
-1.625933115e-11
1.499807745e-11
9.428875405e-06
-1.388200826e-11
1.150487875e-11
9.428930228e-06
-1.166789458e-11
1.022667378e-11
9.428979466e-06
-9.783226734e-12
8.917775652e-12
9.429036271e-06
-1.22891753e-11
1.143867896e-11
-1.164530244e-11
5.27729267e-13
9.428154275e-06
1.076685048e-10
4.902422621e-10
9.42796599e-06
1.304026432e-10
-3.276907241e-11
9.427984643e-06
-3.908959103e-11
3.200601472e-11
9.428078915e-06
-1.06738074e-10
6.494277166e-11
9.428204895e-06
-1.070445999e-10
5.141275962e-11
9.428323165e-06
-9.478768265e-11
3.879700295e-11
9.42843038e-06
-7.812666635e-11
3.002261668e-11
9.428519171e-06
-6.430458713e-11
2.185135193e-11
9.428590775e-06
-5.184724144e-11
1.811874227e-11
9.428654913e-06
-4.033233087e-11
1.549032955e-11
9.428706131e-06
-3.625901703e-11
1.116290566e-11
9.428752214e-06
-2.955459167e-11
9.533713024e-12
9.428799062e-06
-3.595233999e-11
1.237573955e-11
-3.08471713e-11
1.106936221e-11
9.429105716e-06
2.594530493e-10
-2.195662407e-10
9.428900648e-06
2.24542098e-10
-1.263668533e-10
9.42874554e-06
7.819547861e-11
-3.678169052e-11
9.428651397e-06
-1.639134725e-11
5.083694214e-12
9.428619202e-06
-5.418814729e-11
1.800668521e-11
9.428620178e-06
-6.926394723e-11
2.057990483e-11
9.42864314e-06
-6.798137913e-11
2.0411955e-11
9.428673882e-06
-6.179048786e-11
1.768862569e-11
9.428707418e-06
-5.44941746e-11
1.471191972e-11
9.428737008e-06
-4.608123239e-11
1.31137996e-11
9.428766914e-06
-4.070380346e-11
1.167898184e-11
9.428794369e-06
-3.597444874e-11
9.169379939e-12
9.428822219e-06
-4.192425115e-11
1.103777795e-11
-3.617887187e-11
1.09327918e-11
9.429034709e-06
1.801597485e-10
-1.158840482e-10
9.429054691e-06
1.511452567e-10
-7.467136621e-11
9.429024081e-06
7.276777883e-11
-3.785545339e-11
9.428976569e-06
1.855720884e-11
-1.024969649e-11
9.428935545e-06
-1.104580648e-11
3.015826005e-12
9.428906019e-06
-2.604446761e-11
8.565558355e-12
9.428886024e-06
-3.247726471e-11
9.795124257e-12
9.428875175e-06
-3.343223176e-11
1.116759679e-11
9.428872217e-06
-3.106527917e-11
1.016160864e-11
9.428870805e-06
-2.819077416e-11
9.180865522e-12
9.428871894e-06
-2.666339188e-11
7.736949323e-12
9.428874962e-06
-2.381278635e-11
8.108078565e-12
9.428878853e-06
-2.716151974e-11
1.016601351e-11
-2.299440446e-11
9.972572362e-12
9.428949597e-06
-1.009222226e-10
9.429065286e-06
-6.507843651e-11
9.429108206e-06
-3.79945142e-11
9.429109365e-06
-1.904915119e-11
9.429090117e-06
-8.168620028e-12
9.42905956e-06
-9.024894431e-13
9.429031875e-06
3.255469102e-12
9.429005395e-06
4.98773094e-12
9.428983959e-06
6.15644986e-12
9.428965708e-06
5.923704944e-12
9.428951641e-06
5.786086875e-12
9.428938927e-06
6.935872783e-12
9.428928605e-06
8.4798112e-12
6.592660661e-12
9.428902421e-06
-1.214003935e-09
2.180257893e-10
9.429069913e-06
-3.666228684e-10
1.001440897e-10
9.429145463e-06
-2.103992459e-10
6.53692951e-11
9.429152931e-06
-7.981787956e-11
3.705689798e-11
9.429121218e-06
-5.090745126e-12
1.810744749e-11
9.429079143e-06
2.596390572e-11
6.353888448e-12
9.429042614e-06
3.791996388e-11
1.47224716e-12
9.429008603e-06
4.135102066e-11
-2.577227605e-12
9.428977882e-06
3.816249216e-11
-4.573076006e-12
9.428956303e-06
3.628814701e-11
-6.345254951e-12
9.428935844e-06
3.003049969e-11
-6.54183144e-12
9.428925493e-06
2.738632499e-11
-6.182367271e-12
9.428918498e-06
2.449395514e-11
-5.202527955e-12
9.428908753e-06
2.629979292e-11
-7.547436048e-12
2.206255756e-11
-7.851420745e-12
9.429282852e-06
-3.482083736e-09
4.505385879e-10
9.429228174e-06
-5.456581504e-10
1.18919931e-10
9.429126557e-06
-2.556780444e-10
7.474275147e-11
9.429026838e-06
-4.986542427e-11
3.480403724e-11
9.428943823e-06
5.582853032e-11
9.505451144e-12
9.4288856e-06
8.128220031e-11
-3.024750252e-12
9.428856619e-06
8.578618763e-11
-7.562001737e-12
9.428839007e-06
7.836456885e-11
-9.851714395e-12
9.428834221e-06
6.728937922e-11
-1.026572223e-11
9.428835394e-06
5.741972611e-11
-1.14110039e-11
9.428836566e-06
4.751481201e-11
-9.692835759e-12
9.428844457e-06
4.335203206e-11
-7.864720488e-12
9.428852876e-06
3.63989807e-11
-6.710103275e-12
9.428860592e-06
4.36164029e-11
-8.61542906e-12
3.736922471e-11
-8.269820069e-12
9.430086066e-06
-9.190291278e-09
1.308567292e-09
9.429415895e-06
-3.079034258e-10
2.200124167e-10
9.4288955e-06
1.858085036e-11
1.245056209e-10
9.42863852e-06
1.413093735e-10
3.793590648e-11
9.428535376e-06
1.798796454e-10
-4.991175012e-12
9.428517911e-06
1.413487461e-10
-1.792486025e-11
9.428541214e-06
1.085439137e-10
-2.138226249e-11
9.428579892e-06
8.132496549e-11
-2.032984468e-11
9.428624193e-06
6.312731673e-11
-1.663331348e-11
9.428665085e-06
4.919003843e-11
-1.463598204e-11
9.428702346e-06
3.880665041e-11
-1.379593105e-11
9.428737569e-06
3.358261956e-11
-1.019559325e-11
9.428770241e-06
2.853809808e-11
-9.246676348e-12
9.428806049e-06
3.52311198e-11
-1.208531631e-11
2.754846099e-11
-1.088855974e-11
9.430007065e-06
2.686693963e-09
9.427800487e-06
2.899558938e-09
-4.909637902e-10
9.427658696e-06
1.160249205e-10
3.021418661e-11
9.427874984e-06
8.081580372e-12
-3.369622473e-11
9.428126985e-06
7.134470275e-11
-6.496049901e-11
9.428339295e-06
4.631982389e-11
-5.215044509e-11
9.42850327e-06
2.907749417e-11
-4.056458787e-11
9.42863285e-06
2.009902559e-11
-2.964819706e-11
9.428732583e-06
1.435771423e-11
-2.318171791e-11
9.428810004e-06
1.171635894e-11
-1.895862762e-11
9.428872264e-06
1.129196327e-11
-1.355160091e-11
9.428928695e-06
1.072136333e-11
-1.08691975e-11
9.42897837e-06
9.779838517e-12
-9.552144872e-12
9.429036165e-06
1.250071425e-11
-1.382434703e-11
-3.831367809e-14
-1.065014931e-11
9.542587948e-06
-2.901050126e-09
-2.90176112e-09
9.543291948e-06
-1.195608313e-10
-1.182291429e-10
9.543554835e-06
-9.528665352e-12
-9.326821812e-12
9.544060674e-06
-7.221503203e-11
-7.411039301e-11
9.544457574e-06
-4.760746618e-11
-4.839813255e-11
9.544786065e-06
-3.195865765e-11
-3.254872737e-11
9.545082648e-06
-2.244806879e-11
-2.097001085e-11
9.545356235e-06
-1.70362275e-11
-1.636756809e-11
9.54561199e-06
-1.350294646e-11
-1.47310031e-11
9.545858677e-06
-1.155370689e-11
-1.355421781e-11
9.546104905e-06
-1.090398747e-11
-1.130985792e-11
9.546343051e-06
-1.038003406e-11
-8.991903499e-12
9.546597922e-06
-1.182806861e-11
-1.306566954e-11
3.340493885e-13
-1.913213012e-12
9.427777141e-06
3.072769183e-10
-4.922333096e-10
9.427639182e-06
-1.846175309e-11
3.153074162e-11
9.427854384e-06
-1.411247101e-10
-3.419445311e-11
9.428103663e-06
-1.807494295e-10
-6.524396151e-11
9.428317336e-06
-1.411249212e-10
-5.077575067e-11
9.428483024e-06
-1.075880795e-10
-3.940718401e-11
9.42861188e-06
-8.1247281e-11
-2.884049494e-11
9.42871225e-06
-6.230179263e-11
-2.1487427e-11
9.428788326e-06
-5.109792234e-11
-1.83035423e-11
9.42885001e-06
-4.059809772e-11
-1.400275042e-11
9.428906314e-06
-3.452141668e-11
-1.062867809e-11
9.428955608e-06
-3.032080253e-11
-8.473296598e-12
9.429011512e-06
-3.58835882e-11
-1.384335577e-11
-2.833430695e-11
-1.121920816e-11
9.429428543e-06
5.468978025e-10
2.188032391e-10
9.428910277e-06
2.550923896e-10
1.257538027e-10
9.428653648e-06
4.816825763e-11
3.748715491e-11
9.428550381e-06
-5.730113305e-11
-4.335897635e-12
9.428532906e-06
-8.276223722e-11
-1.752010059e-11
9.428557727e-06
-8.525273904e-11
-1.996419095e-11
9.428595154e-06
-7.800142372e-11
-1.828464774e-11
9.428639099e-06
-6.658179937e-11
-1.669021076e-11
9.428684495e-06
-5.718872912e-11
-1.416223489e-11
9.428720655e-06
-4.849164748e-11
-1.229539348e-11
9.428756477e-06
-4.314625686e-11
-1.016520009e-11
9.428790114e-06
-3.564385555e-11
-8.864555618e-12
9.428823699e-06
-4.256100259e-11
-1.1281445e-11
-3.618627088e-11
-9.478048231e-12
9.429210789e-06
3.656754683e-10
1.172312609e-10
9.429113387e-06
2.109147477e-10
7.566009396e-11
9.429013952e-06
8.050441878e-11
3.652375618e-11
9.428931395e-06
6.479985651e-12
1.109746438e-11
9.428876918e-06
-2.537235717e-11
-1.354527366e-12
9.428844299e-06
-3.614157504e-11
-5.560504317e-12
9.428826513e-06
-3.869139637e-11
-7.651526565e-12
9.428819798e-06
-3.696056432e-11
-9.181443723e-12
9.42881983e-06
-3.354661729e-11
-9.186073735e-12
9.428823462e-06
-2.952396088e-11
-8.334191494e-12
9.428831672e-06
-2.701762589e-11
-8.519368273e-12
9.42883823e-06
-2.489516265e-11
-8.060856274e-12
9.428846605e-06
-2.766333894e-11
-8.948305102e-12
-2.477517199e-11
-8.397829238e-12
9.429077101e-06
1.018808302e-10
9.429155357e-06
6.752577386e-11
9.429160276e-06
3.937429788e-11
9.429130777e-06
1.987812837e-11
9.429091907e-06
9.929736996e-12
9.429052977e-06
2.401702681e-12
9.429016914e-06
-2.160165401e-12
9.428990663e-06
-4.063513048e-12
9.428967717e-06
-4.470969108e-12
9.428950158e-06
-4.307089705e-12
9.428937687e-06
-6.359789909e-12
9.428928248e-06
-5.644231732e-12
9.42892092e-06
-7.513259592e-12