/*--------------------------------*- C++ -*----------------------------------*\
| =========                 |                                                 |
| \\      /  F ield         | OpenFOAM: The Open Source CFD Toolbox           |
|  \\    /   O peration     | Version:  4.x                                   |
|   \\  /    A nd           | Web:      www.OpenFOAM.org                      |
|    \\/     M anipulation  |                                                 |
\*---------------------------------------------------------------------------*/
FoamFile
{
    version     2.0;
    format      ascii;
    class       volScalarField;
    location    "1000";
    object      T;
}
// * * * * * * * * * * * * * * * * * * * * * * * * * * * * * * * * * * * * * //

dimensions      [0 0 0 1 0 0 0];

internalField   nonuniform List<scalar> 
1174
(
1223.150613
1223.151065
1223.151634
1223.152425
1223.153428
1223.154532
1223.155759
1223.157013
1223.158332
1223.159766
1223.161108
1223.162425
1223.163732
1223.164754
1223.151783
1223.152418
1223.153423
1223.154552
1223.155862
1223.157091
1223.15872
1223.16027
1223.161724
1223.163058
1223.164351
1223.165686
1223.166969
1223.167935
1223.151708
1223.152771
1223.154352
1223.156021
1223.157782
1223.159694
1223.161406
1223.162959
1223.164515
1223.166243
1223.167462
1223.168596
1223.169542
1223.170323
1223.154229
1223.156117
1223.158356
1223.160698
1223.162825
1223.164901
1223.166807
1223.168599
1223.17006
1223.171608
1223.172743
1223.173686
1223.174408
1223.175058
1223.15511
1223.157431
1223.159638
1223.161985
1223.164416
1223.166536
1223.168576
1223.170302
1223.172031
1223.173297
1223.174461
1223.175434
1223.176182
1223.176625
1223.153372
1223.155218
1223.157453
1223.159853
1223.162026
1223.164227
1223.165971
1223.16771
1223.16918
1223.170543
1223.171571
1223.172651
1223.173811
1223.174284
1223.150197
1223.151314
1223.152857
1223.154501
1223.156128
1223.157919
1223.159524
1223.161259
1223.162873
1223.164407
1223.165732
1223.166845
1223.167861
1223.168541
1223.151328
1223.151974
1223.152996
1223.153722
1223.154982
1223.156571
1223.158098
1223.159712
1223.161166
1223.162673
1223.163979
1223.165176
1223.166419
1223.167314
1223.150327
1223.150745
1223.151195
1223.152095
1223.153077
1223.1541
1223.155208
1223.156424
1223.157717
1223.158933
1223.160345
1223.161665
1223.162982
1223.164124
1223.151339
1223.151942
1223.15262
1223.153525
1223.154752
1223.156024
1223.157353
1223.158764
1223.160072
1223.161745
1223.163217
1223.164671
1223.165832
1223.167134
1223.168055
1223.152016
1223.15298
1223.154435
1223.155989
1223.157642
1223.159204
1223.160768
1223.162403
1223.163987
1223.165354
1223.166723
1223.168003
1223.169003
1223.169839
1223.153841
1223.155969
1223.158352
1223.160992
1223.1633
1223.165512
1223.167377
1223.168973
1223.170268
1223.171645
1223.17237
1223.173023
1223.173883
1223.174331
1223.157527
1223.161446
1223.165087
1223.168126
1223.170811
1223.172973
1223.174623
1223.175631
1223.176682
1223.177381
1223.177929
1223.17805
1223.178366
1223.178421
1223.163485
1223.168184
1223.171966
1223.175146
1223.177497
1223.179342
1223.180677
1223.181414
1223.182104
1223.182506
1223.182688
1223.18288
1223.182836
1223.182682
1223.15851
1223.162436
1223.166067
1223.169198
1223.171774
1223.173803
1223.175204
1223.176523
1223.177474
1223.178078
1223.178646
1223.179019
1223.179241
1223.179228
1223.153847
1223.156249
1223.158688
1223.161043
1223.16338
1223.16543
1223.167204
1223.168831
1223.170216
1223.17143
1223.172147
1223.173126
1223.173849
1223.174211
1223.151136
1223.152483
1223.153863
1223.15571
1223.157278
1223.158952
1223.160688
1223.162229
1223.163773
1223.165225
1223.166471
1223.167751
1223.169002
1223.169768
1223.15192
1223.152542
1223.153467
1223.154434
1223.155537
1223.156982
1223.158487
1223.159844
1223.161466
1223.162829
1223.164155
1223.165336
1223.166523
1223.167447
1223.152402
1223.153137
1223.15404
1223.155595
1223.157246
1223.158977
1223.160836
1223.162573
1223.16425
1223.16581
1223.167317
1223.168822
1223.170105
1223.17112
1223.171884
1223.152164
1223.153967
1223.156329
1223.158695
1223.161203
1223.163578
1223.165811
1223.167602
1223.169082
1223.170443
1223.171338
1223.172348
1223.173035
1223.174019
1223.174292
1223.159795
1223.164878
1223.169476
1223.173054
1223.17572
1223.177944
1223.179313
1223.180205
1223.180695
1223.180975
1223.181037
1223.180982
1223.180784
1223.180563
1223.177659
1223.185814
1223.191379
1223.194702
1223.196246
1223.196652
1223.19595
1223.195117
1223.194042
1223.192828
1223.191725
1223.190646
1223.189452
1223.188726
1223.194427
1223.202576
1223.206001
1223.206762
1223.205907
1223.203962
1223.20161
1223.199398
1223.197172
1223.19498
1223.19309
1223.191465
1223.189883
1223.188743
1223.1734
1223.181447
1223.187171
1223.190505
1223.191964
1223.192404
1223.192117
1223.191383
1223.190071
1223.188743
1223.187666
1223.186439
1223.185508
1223.184709
1223.162894
1223.167818
1223.172236
1223.175821
1223.178512
1223.180431
1223.181727
1223.182546
1223.183028
1223.183256
1223.183183
1223.183032
1223.182809
1223.182753
1223.155048
1223.157535
1223.160195
1223.16256
1223.165035
1223.166953
1223.168518
1223.170098
1223.171455
1223.172483
1223.173518
1223.174325
1223.174965
1223.175233
1223.149858
1223.151081
1223.152537
1223.154304
1223.155999
1223.157975
1223.159714
1223.16132
1223.162927
1223.16434
1223.165653
1223.166877
1223.167782
1223.168571
1223.151062
1223.152523
1223.154522
1223.156536
1223.158683
1223.160927
1223.16286
1223.164935
1223.166517
1223.167968
1223.169183
1223.170399
1223.171468
1223.17239
1223.173155
1223.154017
1223.157769
1223.161534
1223.165
1223.168198
1223.17067
1223.172607
1223.174358
1223.17559
1223.176374
1223.177172
1223.177579
1223.177995
1223.178223
1223.178417
1223.165212
1223.175029
1223.183226
1223.18885
1223.192072
1223.193567
1223.193882
1223.193399
1223.192735
1223.191464
1223.190311
1223.189314
1223.188363
1223.187253
1223.186607
1223.225478
1223.235575
1223.237281
1223.234376
1223.229115
1223.223341
1223.217828
1223.212774
1223.208271
1223.204356
1223.200794
1223.197894
1223.195319
1223.193429
1223.295337
1223.282487
1223.262734
1223.243737
1223.227709
1223.214431
1223.203876
1223.195139
1223.187992
1223.182049
1223.177255
1223.173375
1223.169868
1223.167254
1223.225824
1223.236267
1223.23807
1223.235259
1223.229965
1223.224372
1223.218953
1223.214041
1223.209376
1223.20553
1223.202262
1223.199416
1223.19705
1223.195267
1223.176011
1223.18426
1223.189747
1223.193017
1223.194603
1223.19492
1223.194691
1223.193795
1223.192802
1223.191733
1223.190717
1223.189584
1223.188542
1223.187832
1223.158607
1223.162463
1223.165905
1223.169246
1223.171772
1223.173729
1223.175237
1223.176369
1223.177255
1223.177864
1223.178237
1223.178567
1223.178829
1223.178759
1223.153414
1223.155257
1223.15754
1223.159663
1223.161967
1223.164
1223.16603
1223.167807
1223.1694
1223.17077
1223.171924
1223.17284
1223.17357
1223.174204
1223.152741
1223.15451
1223.156663
1223.159349
1223.161652
1223.163962
1223.166189
1223.168186
1223.169994
1223.171511
1223.173063
1223.174184
1223.1751
1223.175956
1223.176421
1223.158596
1223.163447
1223.167795
1223.171677
1223.174555
1223.176718
1223.178549
1223.179835
1223.180502
1223.181066
1223.181319
1223.181409
1223.181302
1223.18137
1223.181171
1223.181779
1223.196075
1223.204248
1223.207791
1223.208348
1223.207514
1223.205684
1223.203688
1223.201566
1223.199412
1223.197496
1223.195588
1223.193944
1223.192255
1223.191335
1223.278546
1223.295964
1223.283043
1223.263143
1223.244188
1223.228087
1223.214742
1223.203874
1223.195121
1223.188129
1223.18234
1223.177404
1223.173442
1223.170038
1223.16768
1208.960779
1208.72267
1208.579459
1208.485669
1208.418532
1208.366081
1208.322441
1208.284005
1208.249216
1208.216462
1208.185462
1208.155717
1208.127232
1208.099308
1223.298602
1223.285676
1223.265895
1223.246903
1223.231017
1223.217669
1223.20688
1223.198203
1223.190962
1223.185183
1223.180474
1223.17652
1223.17307
1223.170908
1223.194128
1223.202228
1223.205664
1223.206551
1223.20556
1223.203729
1223.201532
1223.19939
1223.197267
1223.195155
1223.193283
1223.19147
1223.189869
1223.188927
1223.1648
1223.169443
1223.173189
1223.176196
1223.178227
1223.180038
1223.181282
1223.182319
1223.182775
1223.183136
1223.183197
1223.183189
1223.183074
1223.183003
1223.153234
1223.15536
1223.15782
1223.160183
1223.162567
1223.164732
1223.166787
1223.168457
1223.170121
1223.171419
1223.172539
1223.173598
1223.174392
1223.174957
1223.151114
1223.152632
1223.15455
1223.156664
1223.158952
1223.16111
1223.163173
1223.165201
1223.166857
1223.168485
1223.169787
1223.170957
1223.172114
1223.172993
1223.173735
1223.153903
1223.157498
1223.161069
1223.164824
1223.168113
1223.170703
1223.172629
1223.174314
1223.175643
1223.176558
1223.177246
1223.177662
1223.178005
1223.178105
1223.178001
1223.168476
1223.178314
1223.186395
1223.191975
1223.195175
1223.196776
1223.197086
1223.196665
1223.19563
1223.194649
1223.193329
1223.19202
1223.190836
1223.189764
1223.188804
1223.200077
1223.223094
1223.233404
1223.234936
1223.231879
1223.226867
1223.221306
1223.215574
1223.210486
1223.205735
1223.201783
1223.198417
1223.195537
1223.193055
1223.191273
1223.280199
1223.2974
1223.284341
1223.264629
1223.245457
1223.229419
1223.215987
1223.205475
1223.19682
1223.189764
1223.183935
1223.179058
1223.174905
1223.171674
1223.169426
1223.201845
1223.224983
1223.235357
1223.23718
1223.234073
1223.229197
1223.223608
1223.218108
1223.21306
1223.208544
1223.204545
1223.201007
1223.198031
1223.195656
1223.193751
1223.175194
1223.183392
1223.188936
1223.192337
1223.193894
1223.194081
1223.19371
1223.193194
1223.191995
1223.19058
1223.189363
1223.188322
1223.187281
1223.186484
1223.155352
1223.159215
1223.162706
1223.16591
1223.168607
1223.170713
1223.172331
1223.173319
1223.174269
1223.174956
1223.175414
1223.175928
1223.175983
1223.176197
1223.153118
1223.154907
1223.157066
1223.159129
1223.161389
1223.163593
1223.16564
1223.167467
1223.168987
1223.170443
1223.171663
1223.17245
1223.173513
1223.174009
1223.151659
1223.152544
1223.153706
1223.155308
1223.156925
1223.158704
1223.160543
1223.162221
1223.163976
1223.165521
1223.167015
1223.168378
1223.16954
1223.170455
1223.17127
1223.155073
1223.157005
1223.159353
1223.162012
1223.164582
1223.166649
1223.168702
1223.170573
1223.172188
1223.173344
1223.174213
1223.175267
1223.176082
1223.176839
1223.177208
1223.158389
1223.162798
1223.167851
1223.172135
1223.17576
1223.178529
1223.180372
1223.181685
1223.182394
1223.182829
1223.182948
1223.182823
1223.182718
1223.182488
1223.182262
1223.164742
1223.174667
1223.182748
1223.188387
1223.191728
1223.193421
1223.193719
1223.193357
1223.192691
1223.191519
1223.190158
1223.188745
1223.187543
1223.186498
1223.185783
1223.180563
1223.194975
1223.203042
1223.206599
1223.207186
1223.206035
1223.204298
1223.202144
1223.199993
1223.197903
1223.195848
1223.194216
1223.19241
1223.190828
1223.189594
1223.167743
1223.177642
1223.186068
1223.191539
1223.194923
1223.196443
1223.196714
1223.196187
1223.195378
1223.194186
1223.193108
1223.191932
1223.190947
1223.189858
1223.189237
1223.156458
1223.161096
1223.166062
1223.170579
1223.174034
1223.176758
1223.178832
1223.180313
1223.181256
1223.181709
1223.181938
1223.181986
1223.18201
1223.182092
1223.181989
1223.152819
1223.154967
1223.157268
1223.159898
1223.162011
1223.164095
1223.166014
1223.16756
1223.168861
1223.169883
1223.170883
1223.171557
1223.172216
1223.172706
1223.149982
1223.151212
1223.152757
1223.154411
1223.156276
1223.158099
1223.159871
1223.161501
1223.163187
1223.164468
1223.16575
1223.166853
1223.167916
1223.168742
1223.150753
1223.151182
1223.151862
1223.152764
1223.15393
1223.155273
1223.15655
1223.15807
1223.159566
1223.161121
1223.162627
1223.163917
1223.16533
1223.166721
1223.167793
1223.152652
1223.153564
1223.154794
1223.156344
1223.157842
1223.159692
1223.161458
1223.163193
1223.164724
1223.166273
1223.167651
1223.16902
1223.170184
1223.171162
1223.17192
1223.152045
1223.153731
1223.156041
1223.158439
1223.16103
1223.163333
1223.165565
1223.167424
1223.169119
1223.170299
1223.171522
1223.172548
1223.173315
1223.174115
1223.174677
1223.155931
1223.159426
1223.163237
1223.166874
1223.17005
1223.172803
1223.174895
1223.176537
1223.177621
1223.178446
1223.179033
1223.179502
1223.180016
1223.180293
1223.180428
1223.157904
1223.162675
1223.167336
1223.171245
1223.17457
1223.176758
1223.178479
1223.179692
1223.180503
1223.181025
1223.18138
1223.181185
1223.181326
1223.181346
1223.181342
1223.156006
1223.15942
1223.163258
1223.166981
1223.170135
1223.172551
1223.174774
1223.176407
1223.177526
1223.17832
1223.17885
1223.179268
1223.179631
1223.179709
1223.179769
1223.151538
1223.153458
1223.155823
1223.158361
1223.16063
1223.162881
1223.164839
1223.16672
1223.168346
1223.169904
1223.171046
1223.17205
1223.172865
1223.173571
1223.174017
1223.152458
1223.153478
1223.154817
1223.156215
1223.157754
1223.159515
1223.161284
1223.16285
1223.164283
1223.165785
1223.167124
1223.168425
1223.169563
1223.170546
1223.171323
1223.15186
1223.152398
1223.153393
1223.154604
1223.155846
1223.157378
1223.158847
1223.160372
1223.162002
1223.163496
1223.164805
1223.166109
1223.167049
1223.167969
1223.150575
1223.150766
1223.151365
1223.151998
1223.152776
1223.153778
1223.15485
1223.156068
1223.157231
1223.158658
1223.160043
1223.161484
1223.16286
1223.164061
1223.164927
1223.151082
1223.151522
1223.152177
1223.152985
1223.154074
1223.155342
1223.156684
1223.15807
1223.159693
1223.161151
1223.162679
1223.163943
1223.165332
1223.166484
1223.167425
1223.150876
1223.151726
1223.152764
1223.154256
1223.155967
1223.157754
1223.159557
1223.161439
1223.163065
1223.164621
1223.166181
1223.167531
1223.168798
1223.169784
1223.17043
1223.152001
1223.153522
1223.155394
1223.157505
1223.160002
1223.162174
1223.164194
1223.166014
1223.167779
1223.169238
1223.170642
1223.171807
1223.172697
1223.173412
1223.173906
1223.151447
1223.153314
1223.15543
1223.157869
1223.160535
1223.162855
1223.165032
1223.167053
1223.168884
1223.170375
1223.171567
1223.172653
1223.173491
1223.174288
1223.174781
1223.153756
1223.155078
1223.156878
1223.158995
1223.161146
1223.163272
1223.165371
1223.167253
1223.169015
1223.170441
1223.171889
1223.173083
1223.174019
1223.174865
1223.17524
1223.151143
1223.152074
1223.153239
1223.154671
1223.156333
1223.158179
1223.159972
1223.161865
1223.163464
1223.165096
1223.166559
1223.167698
1223.168808
1223.169969
1223.170682
1223.148108
1223.148517
1223.14934
1223.150227
1223.151298
1223.152577
1223.153916
1223.155223
1223.156617
1223.158109
1223.15948
1223.160879
1223.162117
1223.163274
1223.164308
1223.151502
1223.151774
1223.152048
1223.152635
1223.153363
1223.154421
1223.155376
1223.156753
1223.157866
1223.1592
1223.160621
1223.162046
1223.1633
1223.1645
1223.165317
)
;

boundaryField
{
    top
    {
        type            zeroGradient;
    }
    bottom
    {
        type            zeroGradient;
    }
    side-walls
    {
        type            zeroGradient;
    }
    inlet
    {
        type            zeroGradient;
    }
    outlet
    {
        type            zeroGradient;
    }
    procBoundary1to0
    {
        type            processor;
        value           nonuniform List<scalar> 
97
(
1223.150176
1223.150176
1223.151402
1223.150813
1223.152732
1223.15321
1223.151904
1223.149197
1223.150892
1223.150004
1223.151013
1223.151216
1223.151216
1223.151216
1223.151919
1223.154085
1223.158476
1223.15484
1223.152144
1223.150282
1223.151436
1223.151897
1223.150964
1223.155138
1223.155138
1223.155138
1223.167771
1223.180108
1223.163539
1223.158072
1223.153244
1223.148848
1223.15007
1223.151538
1223.156069
1223.202462
1223.202462
1223.202462
1223.278301
1223.203115
1223.165784
1223.155148
1223.152127
1223.151546
1223.154401
1223.162616
1223.192715
1209.381584
1209.381584
1209.381584
1223.28184
1223.28184
1223.17985
1223.159907
1223.15135
1223.150191
1223.151371
1223.159403
1223.166184
1223.194284
1223.167806
1223.165256
1223.165256
1223.165256
1223.151884
1223.151585
1223.151195
1223.153968
1223.154872
1223.155487
1223.161301
1223.158446
1223.153201
1223.15087
1223.15087
1223.15087
1223.149177
1223.150559
1223.152199
1223.150861
1223.153372
1223.153961
1223.153428
1223.150142
1223.151987
1223.15133
1223.15133
1223.15133
1223.150522
1223.150863
1223.150374
1223.151043
1223.150183
1223.152875
1223.150273
1223.147852
1223.151327
)
;
    }
}


// ************************************************************************* //
