/*--------------------------------*- C++ -*----------------------------------*\
| =========                 |                                                 |
| \\      /  F ield         | OpenFOAM: The Open Source CFD Toolbox           |
|  \\    /   O peration     | Version:  4.x                                   |
|   \\  /    A nd           | Web:      www.OpenFOAM.org                      |
|    \\/     M anipulation  |                                                 |
\*---------------------------------------------------------------------------*/
FoamFile
{
    version     2.0;
    format      ascii;
    class       volVectorField;
    location    "1000";
    object      U;
}
// * * * * * * * * * * * * * * * * * * * * * * * * * * * * * * * * * * * * * //

dimensions      [0 1 -1 0 0 0 0];

internalField   nonuniform List<vector> 
1174
(
(0.0110005216 -4.014256431e-08 -3.887711221e-08)
(0.01100063221 -3.739174289e-08 -3.475260281e-08)
(0.01100072721 -2.736581687e-08 -2.715003291e-08)
(0.01100076007 -2.06571088e-08 -1.955199542e-08)
(0.01100075381 -1.256815607e-08 -1.223664624e-08)
(0.01100070609 -6.386854675e-09 -3.028979352e-09)
(0.01100062728 -1.993435757e-09 6.844302044e-11)
(0.01100052473 -2.025881155e-10 2.347472743e-09)
(0.01100041025 3.75611906e-09 5.062427403e-09)
(0.01100028637 2.915149032e-09 8.455580956e-09)
(0.01100015912 4.723996316e-09 8.362932249e-09)
(0.01100002139 7.022700648e-09 8.572144013e-09)
(0.01099991297 9.193100104e-09 1.013242422e-08)
(0.01099978189 1.021256156e-08 1.056485566e-08)
(0.01100054137 -1.537907765e-07 -4.677799027e-08)
(0.01100061625 -1.368345598e-07 -4.353118349e-08)
(0.01100069354 -1.045545515e-07 -3.098733943e-08)
(0.01100068881 -7.017032929e-08 -1.9317092e-08)
(0.01100063898 -4.558323413e-08 -9.721132654e-09)
(0.01100054758 -2.611123515e-08 2.846171954e-11)
(0.0110004356 -1.002813011e-08 4.367321944e-09)
(0.01100031209 8.544590975e-10 5.870692141e-09)
(0.01100017662 9.207454947e-09 8.445284943e-09)
(0.0110000421 1.32408607e-08 1.121560461e-08)
(0.01099991197 1.801819448e-08 1.070832952e-08)
(0.01099977946 2.061934475e-08 9.620249151e-09)
(0.01099967268 2.353938713e-08 1.227125971e-08)
(0.01099955557 2.353092406e-08 1.138569136e-08)
(0.01100057151 -1.541131747e-07 -9.001374914e-08)
(0.01100059603 -1.360424617e-07 -7.478187969e-08)
(0.01100062071 -9.646216374e-08 -4.876283113e-08)
(0.01100053708 -6.118620062e-08 -2.472486777e-08)
(0.01100041257 -3.257476161e-08 -5.793434435e-09)
(0.01100025862 -1.156282966e-08 3.680297256e-09)
(0.01100009601 2.739305615e-09 8.610126267e-09)
(0.0109999359 1.150183811e-08 1.168339646e-08)
(0.01099978342 1.663192475e-08 1.345262104e-08)
(0.01099964571 2.082742852e-08 1.356771114e-08)
(0.01099952138 2.262903311e-08 1.215486608e-08)
(0.01099940142 2.366976414e-08 1.166637938e-08)
(0.01099930681 3.01189224e-08 1.28100175e-08)
(0.01099920941 2.766471446e-08 9.745818801e-09)
(0.0110006116 -2.179611588e-07 -7.385201912e-08)
(0.01100049766 -1.49928678e-07 -7.127237287e-08)
(0.01100044716 -8.994461169e-08 -3.840306707e-08)
(0.01100028854 -4.541509054e-08 -8.796709884e-09)
(0.01100009646 -2.061682561e-08 7.118503085e-09)
(0.01099990195 -5.434321081e-09 1.657405903e-08)
(0.01099971123 5.58248557e-09 1.829622895e-08)
(0.01099953939 1.15771691e-08 2.114491683e-08)
(0.01099938316 1.398329177e-08 2.0085168e-08)
(0.01099925635 1.556172446e-08 1.80903002e-08)
(0.01099914364 1.732062041e-08 1.710561307e-08)
(0.01099904719 1.728416639e-08 1.479599859e-08)
(0.0109989718 1.917325739e-08 1.508576121e-08)
(0.01099889498 1.875491044e-08 1.352743263e-08)
(0.01100074136 -3.933378124e-10 -1.668813973e-07)
(0.01100051856 -2.472881374e-10 -1.012823768e-07)
(0.01100039519 -2.375376248e-09 -4.060788555e-08)
(0.01100017951 -2.482199392e-11 -3.875997007e-09)
(0.01099995016 -5.373045635e-10 1.569175389e-08)
(0.01099973328 -4.892351745e-10 2.217143604e-08)
(0.01099953569 -2.783358652e-09 2.269105136e-08)
(0.01099936288 -1.062886795e-09 2.146602136e-08)
(0.01099921288 -2.478750021e-10 2.002465743e-08)
(0.01099909166 4.113803516e-10 1.848348718e-08)
(0.01099898805 1.697621431e-09 1.630664088e-08)
(0.01099890185 -4.978574442e-11 1.41749447e-08)
(0.01099883949 -9.507425073e-10 1.443930717e-08)
(0.01099877516 -9.204741734e-10 1.102530444e-08)
(0.01100061012 2.192457227e-07 -7.312626696e-08)
(0.01100049536 1.492917843e-07 -6.959240119e-08)
(0.01100044556 8.941953267e-08 -3.46474305e-08)
(0.01100028724 4.377009264e-08 -7.373437577e-09)
(0.0110000971 1.955992408e-08 7.915729861e-09)
(0.0109999004 4.476827032e-09 1.669995955e-08)
(0.01099970972 -3.875111351e-09 2.125000143e-08)
(0.01099953753 -1.181413556e-08 2.076730177e-08)
(0.01099938563 -1.455344715e-08 1.974073836e-08)
(0.01099925328 -1.547771852e-08 1.771535171e-08)
(0.01099914552 -1.584082833e-08 1.677343979e-08)
(0.01099904386 -1.531058387e-08 1.558326787e-08)
(0.0109989742 -1.893696046e-08 1.688704141e-08)
(0.01099890195 -1.786846571e-08 1.425763981e-08)
(0.01100057189 1.538219648e-07 -8.611721496e-08)
(0.01100059416 1.365968188e-07 -7.483105577e-08)
(0.0110006195 9.590438285e-08 -4.674944295e-08)
(0.01100053822 5.82527046e-08 -2.192685802e-08)
(0.01100041026 3.121878927e-08 -6.425744691e-09)
(0.0110002583 1.019431575e-08 2.913273684e-09)
(0.01100009352 -3.879883347e-09 8.679208392e-09)
(0.01099993641 -1.377367307e-08 1.220777812e-08)
(0.01099978482 -1.836806973e-08 1.394221739e-08)
(0.01099964699 -1.996564573e-08 1.247311271e-08)
(0.01099951859 -2.432456677e-08 1.355712197e-08)
(0.01099939998 -2.622894262e-08 1.341087887e-08)
(0.01099930817 -2.782538356e-08 1.360912887e-08)
(0.01099920978 -2.611959273e-08 1.245888158e-08)
(0.01100053817 1.533984505e-07 -4.755845184e-08)
(0.01100061656 1.362153771e-07 -4.450019431e-08)
(0.01100069332 1.033930782e-07 -3.065175604e-08)
(0.0110006873 7.087184812e-08 -1.816120565e-08)
(0.01100063579 4.402579801e-08 -1.075791556e-08)
(0.01100054944 2.274675521e-08 -1.373619769e-09)
(0.01100043539 7.570577835e-09 2.033414938e-09)
(0.0110003111 -3.443621413e-09 7.964443875e-09)
(0.01100017786 -9.836472854e-09 8.742155922e-09)
(0.01100004411 -1.514252248e-08 7.857089253e-09)
(0.01099991227 -1.987560322e-08 1.116644341e-08)
(0.01099977974 -2.050838812e-08 1.051511936e-08)
(0.01099967359 -2.383499165e-08 1.096003929e-08)
(0.01099955182 -2.465075241e-08 1.156017262e-08)
(0.01100052021 3.869790303e-08 -3.796802062e-08)
(0.01100062871 3.500840272e-08 -3.773321355e-08)
(0.01100072682 2.720432356e-08 -2.752505713e-08)
(0.01100076032 1.927218573e-08 -1.882483393e-08)
(0.0110007528 1.242483135e-08 -1.453612301e-08)
(0.01100070363 6.179990535e-09 -5.835558023e-09)
(0.01100062606 5.436523047e-10 -5.84901726e-10)
(0.01100052896 -4.866510961e-10 3.816634122e-09)
(0.01100041405 -3.788572698e-09 3.641940734e-09)
(0.01100028624 -3.221557313e-09 4.242480155e-09)
(0.01100015713 -4.45284482e-09 6.016882312e-09)
(0.01100002442 -6.947837528e-09 7.385519098e-09)
(0.01099990928 -9.745783977e-09 7.81086348e-09)
(0.01099978166 -8.364268989e-09 7.603400237e-09)
(0.01100025675 -8.794170446e-08 -2.059134344e-07)
(0.01100054021 -4.620072621e-08 -1.515321767e-07)
(0.01100061826 -4.417496224e-08 -1.352520314e-07)
(0.01100069134 -3.154657137e-08 -1.028729199e-07)
(0.01100068743 -1.862123292e-08 -6.974032898e-08)
(0.01100063996 -9.260414352e-09 -4.377460482e-08)
(0.01100054755 -3.469962939e-09 -2.486887993e-08)
(0.01100043406 2.71855937e-09 -8.375334015e-09)
(0.01100030755 5.71644528e-09 2.899026992e-09)
(0.01100017362 7.645411599e-09 1.030997144e-08)
(0.01100004016 9.259798146e-09 1.603330752e-08)
(0.01099991388 1.01842083e-08 1.877972392e-08)
(0.01099977747 9.304987058e-09 2.143860017e-08)
(0.01099967239 1.275763594e-08 2.479675628e-08)
(0.01099955011 1.137598071e-08 2.387627181e-08)
(0.01100056364 -2.061968445e-07 -2.040896278e-07)
(0.0110005613 -1.794733395e-07 -1.7799288e-07)
(0.01100058089 -1.254323064e-07 -1.254331355e-07)
(0.0110005073 -7.67046347e-08 -7.567682435e-08)
(0.01100039465 -4.064171321e-08 -4.022873317e-08)
(0.01100025573 -1.436539132e-08 -1.243483759e-08)
(0.01100010832 3.872509145e-09 5.500394231e-09)
(0.01099996609 1.477703716e-08 1.773714076e-08)
(0.0109998274 2.243541014e-08 2.380488535e-08)
(0.01099969562 2.610217358e-08 2.569179981e-08)
(0.01099957764 2.738455451e-08 2.803185184e-08)
(0.0109994659 2.825174933e-08 2.859976964e-08)
(0.01099937469 3.1069982e-08 3.098006508e-08)
(0.0109992798 2.976192073e-08 2.758680715e-08)
(0.01100058685 -1.847317806e-07 -3.816824306e-07)
(0.01100040928 -1.685497133e-07 -3.029058677e-07)
(0.01100030629 -1.058703776e-07 -1.811321187e-07)
(0.01100010189 -4.894335424e-08 -8.911259809e-08)
(0.01099988724 -1.338673238e-08 -3.02887921e-08)
(0.01099968649 9.404670938e-09 8.187640329e-09)
(0.01099950791 2.202495938e-08 2.890599114e-08)
(0.0109993572 2.950655278e-08 3.845202324e-08)
(0.01099923018 3.261750912e-08 4.123464016e-08)
(0.01099913139 3.221475317e-08 4.28136028e-08)
(0.01099904113 3.291985572e-08 4.132617913e-08)
(0.01099896843 3.403465684e-08 3.660935602e-08)
(0.01099891406 3.673937448e-08 4.070492681e-08)
(0.01099886183 3.148400966e-08 3.50032143e-08)
(0.01100051605 -3.103404625e-07 -4.086902606e-07)
(0.01099996532 -1.860815756e-07 -3.286432603e-07)
(0.01099973592 -8.76004914e-08 -1.582223391e-07)
(0.01099942905 -2.487546674e-08 -4.329334487e-08)
(0.0109991667 4.202685082e-09 1.819580721e-08)
(0.01099896253 1.586988818e-08 4.984201402e-08)
(0.01099880699 2.454472221e-08 6.158463746e-08)
(0.01099869556 2.609214002e-08 6.17976705e-08)
(0.01099861584 2.517195535e-08 5.891047163e-08)
(0.01099856012 2.405932179e-08 5.378811242e-08)
(0.010998524 2.420896235e-08 5.025422819e-08)
(0.0109985004 2.13432806e-08 4.463951313e-08)
(0.01099848876 2.484325556e-08 4.892036598e-08)
(0.01099848012 2.16500588e-08 4.050619588e-08)
(0.01100070455 1.607907777e-10 -7.909275867e-07)
(0.01099974952 8.075906549e-10 -4.527347023e-07)
(0.01099939597 1.656808744e-11 -1.731389801e-07)
(0.01099904357 -8.522917643e-10 -2.187620522e-08)
(0.01099877729 -5.04064004e-10 4.157145306e-08)
(0.0109985943 1.956482275e-10 6.839425895e-08)
(0.01099847199 1.693050451e-09 7.385671137e-08)
(0.01099839193 -2.102367472e-10 6.854156331e-08)
(0.0109983415 -2.334909252e-09 6.322931819e-08)
(0.01099832063 -2.51928879e-09 5.519265751e-08)
(0.01099831043 1.17943306e-09 5.159914696e-08)
(0.01099830713 6.49110353e-10 4.543381908e-08)
(0.01099831548 -1.132224276e-10 5.018768518e-08)
(0.01099832744 1.287528994e-09 4.076917984e-08)
(0.01100051386 3.092719794e-07 -4.086169229e-07)
(0.01099996754 1.847457301e-07 -3.277670746e-07)
(0.0109997355 8.727835901e-08 -1.562143647e-07)
(0.01099942837 2.42411086e-08 -4.234041779e-08)
(0.01099916592 -5.417033084e-09 1.784971114e-08)
(0.01099896163 -1.958179479e-08 5.090659439e-08)
(0.01099880487 -2.560166064e-08 6.35706422e-08)
(0.01099869304 -2.676293041e-08 6.334634371e-08)
(0.010998615 -2.577410549e-08 5.919812424e-08)
(0.01099856258 -2.542530004e-08 5.288557497e-08)
(0.01099852507 -2.489582933e-08 4.848088709e-08)
(0.01099850177 -2.373208396e-08 4.291718609e-08)
(0.01099849029 -2.588154703e-08 4.894503502e-08)
(0.01099847893 -2.261954196e-08 4.212568819e-08)
(0.01100058168 1.851866823e-07 -3.824076414e-07)
(0.01100040955 1.687865418e-07 -3.009709859e-07)
(0.01100030677 1.035121893e-07 -1.778320266e-07)
(0.01100010115 4.776464579e-08 -8.761540716e-08)
(0.01099988523 1.146612377e-08 -2.891216872e-08)
(0.0109996844 -1.10735084e-08 9.071819166e-09)
(0.01099950793 -2.683546301e-08 2.955517178e-08)
(0.0109993589 -3.209598819e-08 3.965594339e-08)
(0.01099923065 -3.422966758e-08 4.171503079e-08)
(0.01099912853 -3.184496432e-08 4.072994307e-08)
(0.01099904116 -3.277083834e-08 3.902208613e-08)
(0.01099896757 -3.329043427e-08 3.670129717e-08)
(0.01099891394 -3.718185036e-08 3.985677886e-08)
(0.01099885977 -3.181578136e-08 3.575598902e-08)
(0.0110005634 2.034824735e-07 -2.054413324e-07)
(0.01100056188 1.783222475e-07 -1.785306093e-07)
(0.01100058057 1.235661686e-07 -1.222997706e-07)
(0.01100050835 7.653616581e-08 -7.46702071e-08)
(0.0110003937 4.052565816e-08 -4.083603001e-08)
(0.011000254 1.334029904e-08 -1.270393454e-08)
(0.0110001093 -4.960218058e-09 6.520660622e-09)
(0.01099996504 -1.623875888e-08 1.795684559e-08)
(0.0109998264 -2.170783143e-08 2.309906826e-08)
(0.01099969804 -2.515238159e-08 2.709811558e-08)
(0.01099957734 -2.879906657e-08 2.858793973e-08)
(0.01099946423 -2.830253192e-08 2.772026607e-08)
(0.01099937617 -3.140922451e-08 3.084059491e-08)
(0.01099928111 -2.975925795e-08 2.879577223e-08)
(0.0110005405 4.750469877e-08 -1.513797849e-07)
(0.0110006169 4.34252389e-08 -1.361921481e-07)
(0.01100069339 3.121540994e-08 -1.031823509e-07)
(0.01100068835 1.919044882e-08 -7.062947905e-08)
(0.01100063625 9.332081915e-09 -4.44652949e-08)
(0.01100054811 2.936874431e-09 -2.1525186e-08)
(0.01100043614 -2.687361472e-09 -5.998487585e-09)
(0.01100030774 -5.068856812e-09 3.925143771e-09)
(0.01100017708 -8.101654492e-09 1.137241069e-08)
(0.01100004279 -9.243877688e-09 1.526557883e-08)
(0.01099991266 -1.013975099e-08 1.901646264e-08)
(0.01099977767 -1.065668402e-08 1.948268837e-08)
(0.01099967453 -1.067927636e-08 2.292279276e-08)
(0.01099955382 -1.095877269e-08 2.318624045e-08)
(0.01100018392 -1.739137759e-07 -2.638273098e-07)
(0.01100057364 -8.504490761e-08 -1.531881302e-07)
(0.01100059618 -7.433599351e-08 -1.366033568e-07)
(0.01100061887 -4.601765017e-08 -9.643600166e-08)
(0.01100053645 -2.126121818e-08 -6.026426884e-08)
(0.01100041049 -8.908096172e-09 -3.191196083e-08)
(0.01100025733 5.367039203e-09 -1.194425994e-08)
(0.01100009526 1.16757729e-08 2.35439902e-09)
(0.01099993745 1.509969068e-08 1.055273614e-08)
(0.01099978205 1.613090828e-08 1.79792774e-08)
(0.01099964158 1.651252251e-08 2.140629432e-08)
(0.01099951904 1.610094262e-08 2.274246082e-08)
(0.01099940041 1.763185116e-08 2.449881914e-08)
(0.01099930797 1.664745704e-08 2.903126966e-08)
(0.01099920807 1.575144638e-08 2.833190347e-08)
(0.01100009755 -6.882302829e-07 -4.43957342e-07)
(0.01100058278 -3.823907561e-07 -1.855344747e-07)
(0.01100040783 -3.029908917e-07 -1.696028836e-07)
(0.01100030565 -1.815610849e-07 -1.039387603e-07)
(0.01100010268 -8.92196104e-08 -4.899920269e-08)
(0.01099988723 -2.864654757e-08 -1.211600731e-08)
(0.01099968431 7.554711554e-09 1.081637401e-08)
(0.01099950715 2.800573405e-08 2.457807496e-08)
(0.01099935575 3.725929346e-08 3.099653828e-08)
(0.01099923092 4.05053274e-08 3.350752802e-08)
(0.01099912386 4.007190391e-08 3.252206912e-08)
(0.01099903982 3.98422649e-08 3.308179662e-08)
(0.01099896608 3.597465323e-08 3.208768402e-08)
(0.01099891432 4.017059468e-08 3.415680869e-08)
(0.01099886378 3.686704678e-08 3.263657745e-08)
(0.01100047714 -3.703540013e-07 -3.735443381e-07)
(0.01099981465 -2.97063064e-07 -2.962350269e-07)
(0.01099945146 -1.345099742e-07 -1.352426788e-07)
(0.01099904043 -2.734461136e-08 -2.750913238e-08)
(0.01099872636 2.620180817e-08 2.745340807e-08)
(0.0109985142 5.098419621e-08 5.193623145e-08)
(0.01099837599 5.995654233e-08 6.178409064e-08)
(0.01099830053 5.922287285e-08 6.01255469e-08)
(0.01099826421 5.548923995e-08 5.655614048e-08)
(0.01099825368 4.871556739e-08 4.985595905e-08)
(0.01099826009 4.583828159e-08 4.431665634e-08)
(0.01099827758 4.076800619e-08 3.86073493e-08)
(0.01099829835 4.802814625e-08 4.456101279e-08)
(0.01099832154 3.993391371e-08 3.878439698e-08)
(0.01099971579 -6.534789992e-07 -1.049623623e-07)
(0.01099812835 -3.179618826e-07 -2.340708562e-07)
(0.01099762922 -9.068745893e-08 -2.558257865e-08)
(0.01099721192 1.776546647e-08 8.676454116e-08)
(0.01099701487 4.971539222e-08 1.175550093e-07)
(0.01099697677 5.916109823e-08 1.209702479e-07)
(0.01099702289 5.490979397e-08 1.100617549e-07)
(0.01099712617 4.655229234e-08 9.242508095e-08)
(0.01099724459 3.875774118e-08 7.614603726e-08)
(0.01099737614 3.299347915e-08 6.193282691e-08)
(0.01099749927 3.19826948e-08 5.355240288e-08)
(0.01099762136 2.790230324e-08 4.520855909e-08)
(0.01099772504 3.082366517e-08 5.182017934e-08)
(0.01099782934 2.7340642e-08 4.647039919e-08)
(0.01099941849 -1.183614622e-11 -7.7504559e-08)
(0.01099668743 5.015810962e-10 -1.89694554e-07)
(0.01099620827 6.621151979e-10 5.668545596e-08)
(0.01099597167 -2.874406427e-10 1.710364833e-07)
(0.01099598264 -3.882660748e-10 1.685297946e-07)
(0.0109961381 4.219856463e-11 1.479375467e-07)
(0.010996343 -7.855512754e-10 1.207622675e-07)
(0.01099657077 -9.344020767e-10 9.898603908e-08)
(0.01099678836 -1.005728182e-09 7.896953439e-08)
(0.01099699537 -3.401411792e-10 6.462542721e-08)
(0.01099717731 3.950819261e-10 5.452193531e-08)
(0.01099734902 -1.850562753e-11 4.645628031e-08)
(0.01099749025 1.255857826e-09 5.496145783e-08)
(0.01099763473 1.434106105e-10 4.69702842e-08)
(0.01099971445 6.533770379e-07 -1.03862311e-07)
(0.0109981267 3.184343426e-07 -2.340623854e-07)
(0.01099762887 9.307195529e-08 -2.709248828e-08)
(0.0109972119 -1.781285871e-08 8.650227431e-08)
(0.01099701231 -5.225794192e-08 1.168591302e-07)
(0.01099697369 -5.909566929e-08 1.212587371e-07)
(0.01099702485 -5.569117669e-08 1.087957409e-07)
(0.01099712557 -4.699875674e-08 9.245756461e-08)
(0.01099724431 -4.02002473e-08 7.727523435e-08)
(0.01099737294 -3.483931011e-08 6.415386306e-08)
(0.01099750069 -3.271782444e-08 5.373653972e-08)
(0.01099762035 -2.879876897e-08 4.548929845e-08)
(0.01099772716 -3.142511716e-08 5.277896366e-08)
(0.01099782887 -2.608064233e-08 4.59199922e-08)
(0.01100047642 3.70600743e-07 -3.707356797e-07)
(0.0109998145 2.949355279e-07 -2.955103945e-07)
(0.01099945197 1.336711782e-07 -1.3435718e-07)
(0.01099903833 2.807252224e-08 -2.681066719e-08)
(0.01099872881 -2.77615356e-08 2.771497747e-08)
(0.01099851445 -5.499391579e-08 5.599935497e-08)
(0.01099837814 -6.151692083e-08 6.346339412e-08)
(0.01099830172 -5.987426962e-08 6.203559231e-08)
(0.01099826294 -5.616040007e-08 5.619462939e-08)
(0.01099825481 -4.957515953e-08 4.920851699e-08)
(0.01099825945 -4.686727397e-08 4.525850402e-08)
(0.01099827764 -4.218151286e-08 3.966620047e-08)
(0.01099829865 -4.753212298e-08 4.760832505e-08)
(0.01099832043 -4.177880776e-08 3.919059961e-08)
(0.01100058461 3.818830635e-07 -1.857546355e-07)
(0.01100040927 3.019601519e-07 -1.680454727e-07)
(0.01100030868 1.774234726e-07 -1.024856079e-07)
(0.01100009904 8.662704194e-08 -4.698871984e-08)
(0.01099988933 2.871063907e-08 -1.064740347e-08)
(0.01099968679 -8.302919295e-09 1.293590301e-08)
(0.01099950604 -2.822763088e-08 2.635141184e-08)
(0.01099935601 -3.892895305e-08 3.141080726e-08)
(0.01099923012 -4.032904481e-08 3.373586601e-08)
(0.01099912652 -4.014945029e-08 3.346902289e-08)
(0.01099904097 -3.925020664e-08 3.252418156e-08)
(0.01099896832 -3.680695369e-08 3.16867234e-08)
(0.01099891487 -4.299654453e-08 3.55194654e-08)
(0.01099885626 -3.694364466e-08 3.027444759e-08)
(0.01100057143 8.786541165e-08 -1.556241056e-07)
(0.01100059579 7.349854904e-08 -1.373541567e-07)
(0.01100061942 4.584991207e-08 -9.358767893e-08)
(0.01100053885 2.218060831e-08 -5.687151041e-08)
(0.01100041171 7.772806598e-09 -2.965568095e-08)
(0.0110002595 -3.137128665e-09 -9.11103876e-09)
(0.0110000965 -8.961064023e-09 6.064620597e-09)
(0.01099993478 -1.26039855e-08 1.379618893e-08)
(0.0109997854 -1.365538262e-08 1.797394794e-08)
(0.01099964546 -1.297191407e-08 2.033619591e-08)
(0.01099951499 -1.246891392e-08 2.347161179e-08)
(0.01099939981 -1.315565723e-08 2.504093941e-08)
(0.01099930648 -1.620935358e-08 2.776023417e-08)
(0.01099920956 -1.294928509e-08 2.592258686e-08)
(0.01100016025 -2.568651439e-07 -4.011555941e-07)
(0.01100060842 -7.337364206e-08 -2.201490018e-07)
(0.01100049764 -7.256102814e-08 -1.502043595e-07)
(0.01100044617 -3.661701518e-08 -8.812355933e-08)
(0.01100028534 -7.620538562e-09 -4.422169278e-08)
(0.01100009687 1.029421368e-08 -1.725148866e-08)
(0.01099989715 1.814398876e-08 -2.795878275e-09)
(0.01099971147 2.096217891e-08 6.440817524e-09)
(0.01099953898 2.261048633e-08 1.083561711e-08)
(0.01099938524 2.078613392e-08 1.323660395e-08)
(0.01099925245 1.884635279e-08 1.445732207e-08)
(0.01099913865 1.792725077e-08 1.660185991e-08)
(0.01099904722 1.601359487e-08 1.553214167e-08)
(0.01099897083 1.686126849e-08 1.930896066e-08)
(0.01099889988 1.543515906e-08 1.823862416e-08)
(0.01100003223 -1.106049149e-06 -8.362454208e-07)
(0.01100051647 -4.100556187e-07 -3.118089781e-07)
(0.01099996469 -3.289599558e-07 -1.855812928e-07)
(0.01099973353 -1.585722121e-07 -8.87883219e-08)
(0.01099942816 -4.452293193e-08 -2.449820958e-08)
(0.01099916413 1.821384961e-08 4.82860635e-09)
(0.01099895932 4.916307207e-08 1.859365716e-08)
(0.01099880489 6.23120724e-08 2.482355113e-08)
(0.01099869367 6.375243975e-08 2.464246811e-08)
(0.01099861295 6.149306973e-08 2.521114558e-08)
(0.01099855859 5.312592565e-08 2.414472097e-08)
(0.01099852066 4.823912345e-08 2.290690771e-08)
(0.01099849926 4.2108265e-08 2.181997879e-08)
(0.0109984891 4.73396499e-08 2.580445961e-08)
(0.01099848296 4.023751442e-08 2.330043408e-08)
(0.01099923998 -1.685122491e-06 -2.383318957e-06)
(0.01099971466 -1.053688118e-07 -6.551493003e-07)
(0.01099812746 -2.345856137e-07 -3.184846533e-07)
(0.01099762907 -2.887692143e-08 -9.272567095e-08)
(0.01099721087 8.766936824e-08 1.747229583e-08)
(0.01099701299 1.152526709e-07 5.109669407e-08)
(0.01099697632 1.18745285e-07 5.898808433e-08)
(0.01099702336 1.09268444e-07 5.491200682e-08)
(0.01099712558 9.053159901e-08 4.740169201e-08)
(0.01099724284 7.459480757e-08 3.977663674e-08)
(0.01099737216 6.263226217e-08 3.49506025e-08)
(0.01099749633 5.31496638e-08 3.059295465e-08)
(0.01099762299 4.677877556e-08 2.752101875e-08)
(0.01099772714 5.269547041e-08 3.152893533e-08)
(0.01099782994 4.631125575e-08 2.754964017e-08)
(0.01099552362 -1.931832417e-08 -1.92116169e-08)
(0.01099259007 -7.937478663e-08 -7.844949317e-08)
(0.01099289353 1.016723531e-07 1.003981014e-07)
(0.0109931777 1.725601761e-07 1.732026484e-07)
(0.01099368082 1.489887718e-07 1.482745911e-07)
(0.01099427036 1.163568185e-07 1.177503949e-07)
(0.01099483068 8.543585467e-08 9.000767732e-08)
(0.01099533812 6.517458439e-08 6.768515119e-08)
(0.01099577946 4.909402954e-08 5.264398236e-08)
(0.01099616691 3.872075638e-08 4.101325079e-08)
(0.01099648942 3.621480523e-08 3.654212282e-08)
(0.01099678306 2.969395611e-08 2.852513485e-08)
(0.01099701325 3.570221923e-08 3.439270406e-08)
(0.01099723693 3.10640576e-08 3.040017801e-08)
(0.01098978531 1.043954116e-09 5.945286105e-07)
(0.01098552456 -5.125830999e-10 2.7069075e-07)
(0.01098819051 1.98265263e-09 2.229068708e-07)
(0.01098997938 -5.355373524e-10 2.535398667e-07)
(0.01099145452 2.545975938e-10 1.762872168e-07)
(0.01099269389 -7.518254368e-11 1.205648255e-07)
(0.0109936822 -2.540550271e-10 8.253906258e-08)
(0.01099447778 6.912163643e-10 6.080263346e-08)
(0.01099511123 -4.310906455e-10 4.808139548e-08)
(0.01099563475 -1.169749932e-10 3.956414163e-08)
(0.01099606448 1.948731068e-10 3.224101234e-08)
(0.01099643273 -3.535891409e-11 2.736177428e-08)
(0.0109967219 1.199353494e-09 3.630752376e-08)
(0.01099699735 2.583290035e-10 2.083587872e-08)
(0.01099552272 1.90856997e-08 -1.973395389e-08)
(0.01099258829 7.920056706e-08 -8.163498181e-08)
(0.01099289446 -1.014798842e-07 9.997838364e-08)
(0.01099317654 -1.724005266e-07 1.732628572e-07)
(0.01099367923 -1.487313436e-07 1.492889408e-07)
(0.01099427011 -1.157846264e-07 1.169691285e-07)
(0.01099482941 -8.810927938e-08 8.788032172e-08)
(0.01099533922 -6.731440406e-08 6.632593111e-08)
(0.01099577692 -5.108649708e-08 5.289415451e-08)
(0.01099616406 -4.161094293e-08 4.100633355e-08)
(0.01099649283 -3.523726348e-08 3.32605468e-08)
(0.01099678299 -2.89377536e-08 2.878454843e-08)
(0.01099701457 -3.510318716e-08 3.645828602e-08)
(0.01099723843 -3.10414276e-08 2.965869345e-08)
(0.01099971655 1.042943217e-07 -6.553073467e-07)
(0.01099812812 2.340139104e-07 -3.19755003e-07)
(0.01099762713 2.787873402e-08 -9.136205878e-08)
(0.01099720971 -8.615146771e-08 1.793028129e-08)
(0.01099701321 -1.169600244e-07 5.27608884e-08)
(0.01099697483 -1.213935086e-07 6.006362811e-08)
(0.01099702119 -1.081702455e-07 5.516095356e-08)
(0.01099712522 -9.278381889e-08 4.771511974e-08)
(0.01099724347 -7.85261809e-08 4.018757233e-08)
(0.01099737525 -6.257199825e-08 3.474740917e-08)
(0.01099749876 -5.469706665e-08 3.130819441e-08)
(0.0109976227 -4.720023538e-08 2.692734077e-08)
(0.0109977255 -5.488160945e-08 3.220129809e-08)
(0.01099783077 -4.83207634e-08 2.730864688e-08)
(0.01100051456 4.076633234e-07 -3.084288637e-07)
(0.01099996375 3.257580003e-07 -1.878021557e-07)
(0.01099973243 1.557092362e-07 -8.767233538e-08)
(0.01099942717 4.201376632e-08 -2.517426626e-08)
(0.01099916505 -1.787956535e-08 7.451757895e-09)
(0.01099895981 -4.998802492e-08 1.991665089e-08)
(0.01099880464 -6.218300023e-08 2.520704273e-08)
(0.01099869388 -6.247614016e-08 2.740528028e-08)
(0.01099861367 -5.917431672e-08 2.657604243e-08)
(0.01099856137 -5.311890894e-08 2.447421107e-08)
(0.01099852277 -4.917254596e-08 2.31866632e-08)
(0.01099850046 -4.347125249e-08 2.276715712e-08)
(0.0109984878 -4.944490033e-08 2.54745154e-08)
(0.01099847637 -4.189233138e-08 2.225006897e-08)
(0.01100060932 7.357111177e-08 -2.198191975e-07)
(0.01100049443 7.240709339e-08 -1.491243456e-07)
(0.01100044734 3.725158731e-08 -8.836869794e-08)
(0.01100028572 9.417064437e-09 -4.427974295e-08)
(0.01100009725 -7.117092169e-09 -1.728918546e-08)
(0.01099989747 -1.474997399e-08 -1.53066126e-09)
(0.01099970841 -1.907810424e-08 7.716766257e-09)
(0.01099953796 -2.159512844e-08 1.13393737e-08)
(0.0109993858 -1.895142182e-08 1.44849265e-08)
(0.01099925451 -1.760819241e-08 1.534679664e-08)
(0.0109991436 -1.637850144e-08 1.551517957e-08)
(0.01099904584 -1.474132344e-08 1.767335555e-08)
(0.01099896809 -1.747616165e-08 2.032701877e-08)
(0.01099889785 -1.482020425e-08 1.787351585e-08)
(0.01100002044 -5.908054836e-07 -9.860349758e-11)
(0.01100073923 -1.62404527e-07 -9.168437321e-10)
(0.01100051709 -1.032598829e-07 1.230319129e-10)
(0.01100039746 -3.919024544e-08 -5.146747437e-10)
(0.0110001808 -6.860401085e-10 3.86886156e-10)
(0.01099994992 1.827425869e-08 2.481590042e-10)
(0.01099973036 2.606278096e-08 -1.50318463e-09)
(0.01099953532 2.758343177e-08 -1.693250359e-09)
(0.01099936097 2.659274923e-08 -1.783000411e-09)
(0.01099921387 2.463788887e-08 -2.000496107e-09)
(0.01099908941 1.95859844e-08 -5.07293989e-10)
(0.01099898616 1.978957216e-08 8.786676611e-11)
(0.01099890118 1.774316924e-08 5.317389518e-10)
(0.01099883658 1.962169782e-08 2.872720764e-10)
(0.01099877558 1.801866719e-08 -7.551140402e-10)
(0.01099968346 -2.63439066e-06 -6.378874107e-10)
(0.01100070473 -7.917223388e-07 1.698793981e-09)
(0.01099974843 -4.541921023e-07 2.049109612e-10)
(0.01099939823 -1.737841592e-07 5.926398791e-10)
(0.01099904289 -2.175097905e-08 -8.957859231e-10)
(0.01099877474 3.8447998e-08 -1.593247273e-09)
(0.01099859176 6.597125522e-08 -1.445517318e-09)
(0.01099846933 7.345133565e-08 -9.946693155e-10)
(0.01099839023 7.048305541e-08 -3.715790168e-10)
(0.01099834296 6.432219088e-08 -2.550742866e-09)
(0.0109983168 5.502822202e-08 9.193668272e-11)
(0.0109983061 4.987836862e-08 1.015534179e-09)
(0.01099830697 4.352392504e-08 1.154202072e-09)
(0.01099831594 4.937976384e-08 1.859361225e-09)
(0.01099832696 4.160356705e-08 -3.586726149e-10)
(0.01099739266 -5.521170341e-06 1.091522339e-09)
(0.01099942059 -7.736909739e-08 -2.62274431e-10)
(0.01099668725 -1.890651736e-07 -8.853448629e-10)
(0.01099621091 5.433945122e-08 6.839157942e-10)
(0.01099596954 1.68939857e-07 -5.446402435e-10)
(0.01099597981 1.66769975e-07 -7.787831816e-10)
(0.01099613651 1.484677365e-07 -7.052743821e-10)
(0.01099634447 1.218841704e-07 -5.977080735e-10)
(0.01099656971 9.845418328e-08 6.837588848e-10)
(0.01099678687 7.967905401e-08 1.190445585e-10)
(0.01099699472 6.415672943e-08 -5.347070695e-10)
(0.01099717644 5.71110842e-08 1.856622428e-09)
(0.01099734925 4.790567266e-08 1.103952665e-09)
(0.01099749014 5.588057794e-08 5.302975761e-10)
(0.01099763354 4.773328855e-08 3.88410255e-10)
(0.01098487508 -2.463021189e-05 2.97005138e-10)
(0.01098978321 5.939575629e-07 -2.543523264e-10)
(0.01098552444 2.700500833e-07 -7.930880562e-10)
(0.01098819 2.231509709e-07 1.739738546e-09)
(0.01098997759 2.516699087e-07 1.08324806e-09)
(0.01099145584 1.755367174e-07 9.973274445e-10)
(0.01099269692 1.176906487e-07 3.674115944e-10)
(0.01099368223 8.23118729e-08 -1.667381158e-10)
(0.01099447518 6.004865192e-08 -1.128035397e-10)
(0.0109951116 4.53559659e-08 3.700061909e-10)
(0.01099563559 3.65201967e-08 1.535367446e-09)
(0.01099606026 3.213206634e-08 3.77937044e-10)
(0.01099643226 2.900471313e-08 4.939399617e-10)
(0.010996721 3.582528809e-08 -1.102215532e-09)
(0.01099700056 1.862495314e-08 2.883163924e-11)
(0.01097240246 -6.728242203e-10 -1.112910367e-09)
(0.01096664591 -2.013271382e-09 -1.248811692e-09)
(0.01097852566 -4.818509648e-10 -7.126923095e-10)
(0.0109846495 -1.152613063e-10 -8.723559319e-10)
(0.01098820474 -4.771489782e-10 -1.129434542e-09)
(0.01099060173 -1.426930695e-09 -2.894227514e-10)
(0.01099225423 -3.01482705e-09 1.664962096e-09)
(0.01099344625 -2.803785773e-09 -1.003054397e-09)
(0.01099434206 -1.471528428e-09 -2.39223883e-10)
(0.0109950333 -2.385941541e-10 -2.211359667e-09)
(0.01099558293 2.659942624e-11 -1.841106484e-10)
(0.01099604371 -7.550515653e-10 6.588853325e-11)
(0.01099638753 1.608600749e-10 -4.86767251e-10)
(0.01099676334 6.919476975e-10 -9.891523675e-10)
(0.0109897808 -5.95707829e-07 -1.479330455e-09)
(0.01098552053 -2.724501496e-07 2.008943112e-10)
(0.01098819155 -2.249735372e-07 -2.023660554e-09)
(0.01098997854 -2.541384752e-07 -4.587079359e-10)
(0.01099145408 -1.771786611e-07 3.179604885e-10)
(0.01099269653 -1.200528708e-07 -6.101868004e-10)
(0.01099368371 -8.220431555e-08 5.985913501e-10)
(0.01099447729 -5.985498908e-08 -3.835758492e-10)
(0.01099511347 -4.716505293e-08 -3.448222009e-10)
(0.01099563486 -3.783205037e-08 1.124338981e-09)
(0.01099606124 -3.377410847e-08 5.168006132e-10)
(0.01099643502 -2.897949354e-08 7.027202446e-10)
(0.01099672105 -3.560522e-08 -9.893761027e-10)
(0.01099700016 -1.928529027e-08 1.481253749e-10)
(0.01099941673 7.755176628e-08 -3.866923027e-10)
(0.01099668443 1.887637513e-07 -8.472256647e-10)