/*--------------------------------*- C++ -*----------------------------------*\
| =========                 |                                                 |
| \\      /  F ield         | OpenFOAM: The Open Source CFD Toolbox           |
|  \\    /   O peration     | Version:  4.x                                   |
|   \\  /    A nd           | Web:      www.OpenFOAM.org                      |
|    \\/     M anipulation  |                                                 |
\*---------------------------------------------------------------------------*/
FoamFile
{
    version     2.0;
    format      ascii;
    class       volScalarField;
    location    "1000";
    object      X_CO2;
}
// * * * * * * * * * * * * * * * * * * * * * * * * * * * * * * * * * * * * * //

dimensions      [0 0 0 0 0 0 0];

internalField   nonuniform List<scalar> 
1174
(
0.04000062335
0.04000505966
0.0400113196
0.04001948086
0.04002945707
0.04004102942
0.04005389196
0.04006769697
0.04008209235
0.04009674626
0.04011135162
0.04012557971
0.04013884427
0.0401492703
0.0400047644
0.04001185255
0.04002128607
0.04003284736
0.04004614048
0.04006068606
0.04007599802
0.04009163399
0.04010722106
0.04012246189
0.04013712111
0.04015096877
0.0401635581
0.04017328331
0.04001389359
0.0400263833
0.04004182952
0.0400593654
0.04007805457
0.04009705732
0.04011570928
0.04013353768
0.04015024213
0.0401656592
0.04017971858
0.04019237505
0.04020341825
0.04021170181
0.04002723689
0.04004659469
0.0400688118
0.04009227163
0.04011562878
0.04013791748
0.04015853448
0.04017716941
0.04019372439
0.0402082419
0.04022084379
0.04023166627
0.04024071492
0.04024728684
0.04003674076
0.04005985844
0.04008507743
0.04011063164
0.04013524377
0.04015809773
0.04017874933
0.0401970272
0.04021294545
0.04022663381
0.04023828244
0.04024808629
0.04025612449
0.04026187155
0.04002723659
0.04004659424
0.04006881122
0.04009227095
0.04011562801
0.04013791664
0.04015853358
0.04017716846
0.04019372339
0.04020824086
0.04022084272
0.04023166517
0.0402407138
0.0402472857
0.04001389319
0.04002638272
0.0400418288
0.04005936454
0.04007805357
0.04009705619
0.04011570802
0.0401335363
0.04015024064
0.04016565761
0.0401797169
0.04019237328
0.04020341641
0.04021169991
0.04000476404
0.04001185208
0.04002128549
0.04003284665
0.04004613964
0.04006068507
0.04007599688
0.04009163268
0.04010721958
0.04012246025
0.04013711931
0.04015096681
0.04016355601
0.04017328109
0.04000062305
0.04000505931
0.04001131916
0.04001948033
0.04002945641
0.04004102861
0.04005389099
0.04006769581
0.04008209099
0.04009674471
0.04011134987
0.04012557776
0.04013884213
0.04014926799
0.0399999744
0.04000476437
0.04001185249
0.04002128599
0.04003284727
0.04004614039
0.04006068595
0.04007599791
0.04009163387
0.04010722093
0.04012246176
0.04013712098
0.04015096863
0.04016355797
0.04017328317
0.04001407229
0.04002647316
0.04004158854
0.040058515
0.04007634698
0.04009432265
0.04011187529
0.04012862644
0.04014435232
0.04015894229
0.04017235458
0.0401845506
0.0401953067
0.04020344655
0.04003743684
0.04006144797
0.04008753939
0.04011351591
0.04013787687
0.04015980592
0.0401790078
0.04019552338
0.04020957757
0.0402214733
0.04023152286
0.04023999351
0.04024699967
0.04025206488
0.04007884706
0.04011866646
0.04015653396
0.04018963918
0.04021700535
0.04023876672
0.04025559525
0.04026833928
0.04027783058
0.04028479903
0.04028984682
0.04029345017
0.04029595998
0.04029752458
0.04011781534
0.04016565584
0.0402062238
0.04023846747
0.0402630211
0.04028111883
0.04029407375
0.04030306389
0.040309067
0.04031286103
0.04031505048
0.04031610281
0.04031639622
0.04031630013
0.04007884602
0.04011866512
0.0401565325
0.04018963767
0.04021700381
0.04023876517
0.04025559372
0.04026833775
0.04027782908
0.04028479755
0.04028984535
0.04029344873
0.04029595856
0.04029752316
0.04003743567
0.04006144662
0.04008753794
0.04011351435
0.04013787519
0.04015980412
0.04017900589
0.04019552139
0.04020957551
0.04022147118
0.04023152069
0.04023999129
0.04024699742
0.04025206259
0.04001407143
0.0400264723
0.0400415876
0.04005851393
0.04007634574
0.04009432124
0.0401118737
0.04012862466
0.04014435037
0.04015894018
0.04017235232
0.0401845482
0.04019530418
0.04020344392
0.04000476405
0.04001185207
0.04002128545
0.04003284657
0.04004613951
0.04006068488
0.04007599663
0.04009163236
0.0401072192
0.0401224598
0.0401371188
0.04015096625
0.04016355539
0.04017328042
0.04000490584
0.04001389349
0.04002638308
0.04004182925
0.04005936509
0.04007805423
0.04009705695
0.04011570888
0.04013353726
0.0401502417
0.04016565877
0.04017971814
0.04019237462
0.04020341782
0.04021170139
0.04001803401
0.04003743673
0.04006144773
0.04008753911
0.04011351561
0.04013787656
0.04015980559
0.04017900747
0.04019552305
0.04020957724
0.04022147298
0.04023152255
0.04023999319
0.04024699937
0.04025206458
0.04010625516
0.04015672454
0.04020242335
0.04023992224
0.04026852441
0.04028905641
0.04030296617
0.04031178931
0.04031689307
0.04031938807
0.04032012781
0.04031975143
0.04031876239
0.04031770683
0.04025887857
0.04034388448
0.04040256211
0.04043730225
0.04045376803
0.040457661
0.04045357841
0.04044484977
0.04043373276
0.04042168666
0.04040962218
0.04039812205
0.04038773352
0.040379792
0.04045826104
0.04054273499
0.04057919479
0.04058587936
0.04057582717
0.04055725403
0.04053503307
0.04051193962
0.04048948875
0.04046845733
0.04044920634
0.04043191294
0.04041689657
0.04040568697
0.04025887395
0.04034387992
0.04040255797
0.04043729854
0.04045376468
0.04045765798
0.04045357564
0.04044484723
0.04043373042
0.04042168448
0.04040962014
0.04039812011
0.04038773166
0.04037979019
0.04010625112
0.04015672115
0.04020242016
0.04023991907
0.04026852121
0.04028905319
0.04030296296
0.04031178612
0.04031688993
0.04031938497
0.04032012476
0.04031974843
0.04031875943
0.04031770389
0.04003743569
0.04006144653
0.04008753771
0.04011351397
0.04013787466
0.04015980345
0.0401790051
0.04019552048
0.04020957451
0.0402214701
0.04023151955
0.0402399901
0.04024699619
0.04025206132
0.0400138932
0.04002638265
0.04004182861
0.04005936419
0.04007805305
0.04009705548
0.04011570712
0.04013353521
0.04015023938
0.0401656562
0.04017971535
0.04019237162
0.04020341463
0.04021169803
0.04001229399
0.04002723663
0.04004659418
0.04006881115
0.04009227089
0.04011562798
0.04013791663
0.0401585336
0.04017716852
0.0401937235
0.04020824101
0.04022084292
0.04023166542
0.04024071408
0.04024728603
0.04004220031
0.04007884679
0.04011866565
0.04015653303
0.04018963821
0.04021700437
0.04023876575
0.04025559432
0.04026833837
0.04027782971
0.0402847982
0.04028984602
0.04029344942
0.04029595926
0.04029752388
0.04015513321
0.04025887813
0.04034388332
0.0404025609
0.04043730112
0.04045376701
0.0404576601
0.04045357761
0.04044484907
0.04043373212
0.04042168608
0.04040962166
0.04039812156
0.04038773307
0.04037979157
0.04078086064
0.04088776078
0.04090576907
0.04087559196
0.04082388592
0.04076569968
0.04070866645
0.04065619444
0.04060946113
0.04056855142
0.04053308154
0.04050258206
0.04047698872
0.04045832058
0.04180312231
0.04167052545
0.04146621489
0.04127011916
0.04110339312
0.04096733741
0.04085757485
0.04076892013
0.04069684385
0.04063775247
0.04058891368
0.04054837052
0.04051519848
0.04049138579
0.04078084338
0.04088774927
0.04090576042
0.04087558498
0.0408238801
0.04076569471
0.04070866217
0.04065619068
0.04060945779
0.04056854841
0.04053307879
0.04050257952
0.04047698635
0.04045831833
0.04025887407
0.04034387882
0.04040255611
0.04043729622
0.04045376213
0.04045765533
0.04045357299
0.04044484464
0.0404337279
0.04042168204
0.04040961778
0.04039811784
0.04038772947
0.04037978806
0.04007884603
0.04011866456
0.04015653143
0.0401896361
0.04021700184
0.04023876287
0.04025559116
0.04026833501
0.0402778262
0.04028479458
0.04028984233
0.04029344566
0.04029595546
0.04029752004
0.0400272366
0.04004659398
0.04006881065
0.04009227001
0.04011562669
0.04013791493
0.04015853152
0.04017716608
0.04019372074
0.04020823797
0.04022083964
0.04023166193
0.04024071041
0.04024728219
0.04001782421
0.04003674037
0.04005985769
0.0400850765
0.04011063059
0.04013524264
0.04015809654
0.04017874811
0.04019702596
0.0402129442
0.04022663257
0.04023828122
0.04024808511
0.04025612333
0.04026187041
0.04006736872
0.04011781473
0.04016565435
0.04020622217
0.0402384658
0.04026301945
0.04028111723
0.04029407222
0.04030306243
0.04030906561
0.04031285971
0.04031504923
0.04031610163
0.04031639509
0.04031629904
0.04030851901
0.04045826082
0.04054273175
0.04057919145
0.0405858764
0.04057582458
0.04055725176
0.04053503109
0.04051193787
0.04048948719
0.04046845593
0.04044920508
0.04043191179
0.04041689551
0.04040568598
0.04162153077
0.04180311319
0.04167051835
0.04146620977
0.0412701154
0.04110339027
0.04096733524
0.04085757317
0.04076891877
0.04069684271
0.04063775151
0.04058891286
0.04054836981
0.04051519785
0.0404913852
0.04622252551
0.04397923451
0.04273674926
0.04200877937
0.04155754578
0.04126222649
0.04105902978
0.04091291198
0.04080382847
0.04071984305
0.04065358209
0.04060043439
0.0405580074
0.04052799659
0.04180312215
0.0416705075
0.04146619882
0.0412701065
0.04110338307
0.04096732929
0.04085756813
0.04076891444
0.04069683893
0.04063774814
0.0405889098
0.04054836701
0.04051519526
0.04049138278
0.04045826092
0.04054272905
0.04057918728
0.04058587153
0.04057581954
0.04055724677
0.04053502626
0.04051193323
0.04048948276
0.04046845171
0.04044920104
0.04043190794
0.0404168918
0.04040568236
0.04011781529
0.04016565421
0.04020622114
0.04023846399
0.04026301702
0.04028111433
0.04029406898
0.04030305894
0.04030906194
0.04031285592
0.04031504536
0.04031609771
0.04031639113
0.04031629504
0.04003674073
0.04005985787
0.04008507631
0.04011062994
0.04013524149
0.0401580949
0.04017874601
0.04019702346
0.04021294135
0.04022662941
0.0402382778
0.04024808146
0.04025611949
0.04026186641
0.04001229377
0.04002723617
0.0400465935
0.04006881028
0.04009226986
0.0401156268
0.04013791535
0.04015853223
0.04017716707
0.04019372199
0.04020823945
0.04022084132
0.04023166379
0.04024071244
0.04024728436
0.04004219932
0.04007884508
0.04011866355
0.04015653074
0.04018963582
0.04021700195
0.04023876334
0.04025559193
0.04026833603
0.04027782741
0.04028479594
0.04028984381
0.04029344725
0.04029595714
0.04029752179
0.04015512689
0.04025887147
0.04034387602
0.04040255406
0.04043729492
0.04045376141
0.04045765502
0.040453573
0.04044484487
0.04043372828
0.04042168253
0.04040961836
0.04039811849
0.04038773017
0.04037978879
0.04054135587
0.04078083512
0.04088774004
0.04090575283
0.04087557906
0.0408238755
0.04076569109
0.04070865927
0.04065618832
0.04060945583
0.04056854673
0.04053307733
0.04050257825
0.04047698521
0.04045831727
0.04162152878
0.04180310752
0.04167049756
0.04146619222
0.04127010201
0.04110337992
0.04096732699
0.04085756636
0.04076891302
0.04069683776
0.04063774716
0.04058890898
0.0405483663
0.04051519463
0.04049138219
0.04054135954
0.04078083268
0.04088773601
0.04090574854
0.0408755749
0.04082387156
0.04076568744
0.04070865588
0.04065618518
0.04060945289
0.04056854401
0.04053307481
0.04050257588
0.04047698297
0.04045831513
0.04025887878
0.04034387869
0.04040255393
0.04043729316
0.04045375874
0.0404576519
0.04045356964
0.0404448414
0.04043372479
0.04042167909
0.04040961497
0.04039811516
0.0403877269
0.04037978556
0.0400788472
0.04011866494
0.04015653112
0.04018963528
0.04021700063
0.04023876141
0.04025558954
0.04026833328
0.0402778244
0.04028479274
0.04028984046
0.04029344379
0.04029595358
0.04029751816
0.04002723691
0.04004659417
0.04006881065
0.04009226979
0.04011562625
0.04013791429
0.04015853069
0.04017716509
0.04019371962
0.04020823675
0.04022083832
0.04023166053
0.04024070895
0.04024728069
0.04000490555
0.04001389292
0.04002638224
0.04004182816
0.04005936376
0.04007805267
0.04009705518
0.04011570692
0.04013353512
0.0401502394
0.04016565634
0.0401797156
0.04019237196
0.04020341508
0.04021169857
0.04001803283
0.04003743504
0.04006144559
0.04008753669
0.04011351296
0.04013787369
0.04015980256
0.0401790043
0.04019551978
0.04020957391
0.0402214696
0.04023151913
0.04023998976
0.04024699592
0.04025206111
0.04005810549
0.04010624938
0.0401567186
0.04020241737
0.04023991625
0.04026851846
0.04028905057
0.0403029605
0.04031178381
0.04031688776
0.04031938295
0.04032012288
0.04031974666
0.04031875776
0.0403177023
0.04015512626
0.04025886971
0.0403438734
0.04040255087
0.04043729149
0.04045375795
0.04045765169
0.04045356982
0.04044484186
0.04043372545
0.04042167986
0.04040961584
0.04039811609
0.04038772788
0.04037978657
0.04030851748
0.04045825378
0.04054272213
0.04057918138
0.04058586667
0.04057581554
0.04055724347
0.0405350235
0.0405119309
0.04048948076
0.04046844996
0.04044919949
0.04043190655
0.04041689055
0.04040568121
0.04015512615
0.04025886923
0.04034387263
0.04040254982
0.04043729021
0.0404537565
0.04045765011
0.04045356817
0.04044484017
0.04043372374
0.04042167815
0.04040961413
0.04039811441
0.04038772622
0.04037978494
0.04005810751
0.04010625122
0.04015671969
0.04020241759
0.04023991572
0.04026851735
0.04028904902
0.04030295863
0.04031178172
0.04031688552
0.0403193806
0.04032012045
0.04031974417
0.04031875522
0.04031769973
0.04003743683
0.0400614468
0.04008753728
0.04011351295
0.04013787314
0.04015980153
0.04017900286
0.040195518
0.04020957183
0.04022146728
0.0402315166
0.04023998705
0.04024699306
0.04025205814
0.04001389362
0.04002638291
0.04004182864
0.04005936394
0.04007805249
0.0400970546
0.04011570595
0.04013353377
0.0401502377
0.0401656543
0.04017971325
0.04019236935
0.04020341221
0.0402116955
0.03999997411
0.04000476388
0.04001185178
0.04002128507
0.04003284611
0.04004613898
0.04006068429
0.04007599599
0.0400916317
0.04010721852
0.04012245912
0.04013711812
0.04015096558
0.04016355474
0.0401732798
0.04000502926
0.04001407108
0.04002647173
0.04004158685
0.04005851302
0.04007634471
0.0400943201
0.04011187247
0.04012862336
0.04014434902
0.04015893879
0.04017235091
0.04018454678
0.04019530275
0.04020344248
0.04001803276
0.04003743484
0.04006144523
0.04008753613
0.0401135122
0.04013787279
0.04015980152
0.04017900316
0.04019551856
0.04020957262
0.04022146826
0.04023151776
0.04023998836
0.0402469945
0.04025205968
0.04004219909
0.04007884432
0.04011866219
0.04015652877
0.04018963336
0.04021699912
0.04023876025
0.04025558867
0.04026833266
0.04027782398
0.0402847925
0.04028984037
0.04029344382
0.04029595373
0.04029751838
0.04006736808
0.04011781264
0.04016565102
0.04020621787
0.04023846085
0.04026301408
0.04028111163
0.04029406651
0.04030305669
0.04030905988
0.04031285403
0.04031504362
0.04031609609
0.04031638962
0.04031629362
0.04004219902
0.04007884419
0.04011866199
0.04015652849
0.04018963296
0.0402169986
0.0402387596
0.04025558791
0.0402683318
0.04027782305
0.0402847915
0.04028983932
0.04029344273
0.0402959526
0.04029751722
0.04001803302
0.04003743519
0.0400614455
0.0400875362
0.04011351202
0.04013787233
0.04015980081
0.04017900222
0.04019551741
0.04020957129
0.04022146677
0.04023151614
0.04023998662
0.04024699265
0.04025205775
0.04000502969
0.04001407161
0.04002647221
0.04004158717
0.04005851312
0.04007634454
0.04009431965
0.04011187173
0.04012862235
0.04014434775
0.04015893728
0.04017234917
0.04018454483
0.04019530061
0.0402034402
0.04000476441
0.04001185226
0.04002128545
0.04003284635
0.04004613902
0.04006068409
0.04007599552
0.04009163094
0.04010721747
0.04012245778
0.04013711649
0.04015096368
0.04016355258
0.04017327741
0.03999776703
0.04000062294
0.04000505911
0.04001131887
0.04001947993
0.0400294559
0.040041028
0.04005389026
0.04006769497
0.04008209006
0.04009674369
0.04011134878
0.0401255766
0.04013884092
0.04014926674
0.0399999741
0.04000476385
0.04001185172
0.04002128497
0.04003284595
0.04004613875
0.04006068399
0.04007599562
0.04009163126
0.04010721801
0.04012245855
0.0401371175
0.04015096491
0.04016355402
0.04017327903
0.04000490551
0.04001389279
0.04002638197
0.04004182772
0.04005936311
0.04007805181
0.0400970541
0.04011570565
0.04013353367
0.0401502378
0.04016565459
0.04017971374
0.04019237001
0.04020341304
0.04021169645
0.04001229367
0.04002723584
0.04004659284
0.04006880922
0.04009226837
0.04011562489
0.04013791305
0.04015852959
0.04017716414
0.04019371882
0.04020823609
0.0402208378
0.04023166015
0.0402407087
0.04024728053
0.04001782397
0.04003673966
0.04005985638
0.04008507454
0.04011062801
0.04013523948
0.04015809287
0.040178744
0.0401970215
0.04021293946
0.0402266276
0.04023827607
0.04024807982
0.04025611794
0.04026186492
0.04001229365
0.04002723581
0.04004659278
0.04006880914
0.04009226823
0.04011562468
0.04013791275
0.04015852921
0.04017716366
0.04019371826
0.04020823545
0.04022083709
0.04023165937
0.04024070785
0.04024727963
0.04000490555
0.04001389286
0.04002638204
0.04004182774
0.04005936304
0.04007805161
0.04009705376
0.04011570514
0.040133533
0.04015023696
0.0401656536
0.04017971259
0.04019236872
0.04020341161
0.04021169493
0.03999997419
0.04000476399
0.04001185188
0.04002128509
0.04003284599
0.04004613867
0.04006068374
0.04007599518
0.04009163061
0.04010721715
0.04012245746
0.04013711619
0.04015096339
0.04016355231
0.04017327716
0.03999776716
0.04000062313
0.04000505934
0.04001131909
0.04001948009
0.04002945596
0.04004102791
0.04005388999
0.04006769449
0.04008208935
0.04009674273
0.04011134755
0.04012557512
0.04013883918
0.04014926479
)
;

boundaryField
{
    top
    {
        type            calculated;
        value           nonuniform List<scalar> 
127
(
0.03999776716
0.04000062305
0.04000476405
0.0400138932
0.0400272366
0.04003674073
0.04002723691
0.04001389362
0.04000476441
0.04000062313
0.04000505931
0.04001185207
0.04002638265
0.04004659398
0.04005985787
0.04004659417
0.04002638291
0.04001185226
0.04000505934
0.04001131916
0.04002128545
0.04004182861
0.04006881065
0.04008507631
0.04006881065
0.04004182864
0.04002128545
0.04001131909
0.04001948033
0.04003284657
0.04005936419
0.04009227001
0.04011062994
0.04009226979
0.04005936394
0.04003284635
0.04001948009
0.04002945641
0.04004613951
0.04007805305
0.04011562669
0.04013524149
0.04011562625
0.04007805249
0.04004613902
0.04002945596
0.04004102861
0.04006068488
0.04009705548
0.04013791493
0.0401580949
0.04013791429
0.0400970546
0.04006068409
0.04004102791
0.04005389099
0.04007599663
0.04011570712
0.04015853152
0.04017874601
0.04015853069
0.04011570595
0.04007599552
0.04005388999
0.04006769581
0.04009163236
0.04013353521
0.04017716608
0.04019702346
0.04017716509
0.04013353377
0.04009163094
0.04006769449
0.04008209099
0.0401072192
0.04015023938
0.04019372074
0.04021294135
0.04019371962
0.0401502377
0.04010721747
0.04008208935
0.04009674471
0.0401224598
0.0401656562
0.04020823797
0.04022662941
0.04020823675
0.0401656543
0.04012245778
0.04009674273
0.04011134987
0.0401371188
0.04017971535
0.04022083964
0.0402382778
0.04022083832
0.04017971325
0.04013711649
0.04011134755
0.04012557776
0.04015096625
0.04019237162
0.04023166193
0.04024808146
0.04023166053
0.04019236935
0.04015096368
0.04012557512
0.04013884213
0.04016355539
0.04020341463
0.04024071041
0.04025611949
0.04024070895
0.04020341221
0.04016355258
0.04013883918
0.04014926799
0.04017328042
0.04021169803
0.04024728219
0.04026186641
0.04024728069
0.0402116955
0.04017327741
0.04014926479
)
;
    }
    bottom
    {
        type            calculated;
        value           nonuniform List<scalar> 
134
(
0.0399999744
0.04000490584
0.04001229399
0.04001782421
0.04001229377
0.04000490555
0.03999997411
0.03999776703
0.04000062335
0.04000476437
0.04001389349
0.04002723663
0.04003674037
0.04002723617
0.04001389292
0.04000476388
0.04000062294
0.04000505966
0.04001185249
0.04002638308
0.04004659418
0.04005985769
0.0400465935
0.04002638224
0.04001185178
0.04000505911
0.0400113196
0.04002128599
0.04004182925
0.04006881115
0.0400850765
0.04006881028
0.04004182816
0.04002128507
0.04001131887
0.04001948086
0.04003284727
0.04005936509
0.04009227089
0.04011063059
0.04009226986
0.04005936376
0.04003284611
0.04001947993
0.04002945707
0.04004614039
0.04007805423
0.04011562798
0.04013524264
0.0401156268
0.04007805267
0.04004613898
0.0400294559
0.04004102942
0.04006068595
0.04009705695
0.04013791663
0.04015809654
0.04013791535
0.04009705518
0.04006068429
0.040041028
0.04005389196
0.04007599791
0.04011570888
0.0401585336
0.04017874811
0.04015853223
0.04011570692
0.04007599599
0.04005389026
0.04006769697
0.04009163387
0.04013353726
0.04017716852
0.04019702596
0.04017716707
0.04013353512
0.0400916317
0.04006769497
0.04008209235
0.04010722093
0.0401502417
0.0401937235
0.0402129442
0.04019372199
0.0401502394
0.04010721852
0.04008209006
0.04009674626
0.04012246176
0.04016565877
0.04020824101
0.04022663257
0.04020823945
0.04016565634
0.04012245912
0.04009674369
0.04011135162
0.04013712098
0.04017971814
0.04022084292
0.04023828122
0.04022084132
0.0401797156
0.04013711812
0.04011134878
0.04012557971
0.04015096863
0.04019237462
0.04023166542
0.04024808511
0.04023166379
0.04019237196
0.04015096558
0.0401255766
0.04013884427
0.04016355797
0.04020341782
0.04024071408
0.04025612333
0.04024071244
0.04020341508
0.04016355474
0.04013884092
0.0401492703
0.04017328317
0.04021170139
0.04024728603
0.04026187041
0.04024728436
0.04021169857
0.0401732798
0.04014926674
)
;
    }
    side-walls
    {
        type            calculated;
        value           nonuniform List<scalar> 
261
(
0.04000062335
0.0400047644
0.04001389359
0.04002723689
0.04003674076
0.04002723659
0.04001389319
0.04000476404
0.04000062305
0.04000505966
0.04001185255
0.0400263833
0.04004659469
0.04005985844
0.04004659424
0.04002638272
0.04001185208
0.04000505931
0.0400113196
0.04002128607
0.04004182952
0.0400688118
0.04008507743
0.04006881122
0.0400418288
0.04002128549
0.04001131916
0.04001948086
0.04003284736
0.0400593654
0.04009227163
0.04011063164
0.04009227095
0.04005936454
0.04003284665
0.04001948033
0.04002945707
0.04004614048
0.04007805457
0.04011562878
0.04013524377
0.04011562801
0.04007805357
0.04004613964
0.04002945641
0.04004102942
0.04006068606
0.04009705732
0.04013791748
0.04015809773
0.04013791664
0.04009705619
0.04006068507
0.04004102861
0.04005389196
0.04007599802
0.04011570928
0.04015853448
0.04017874933
0.04015853358
0.04011570802
0.04007599688
0.04005389099
0.04006769697
0.04009163399
0.04013353768
0.04017716941
0.0401970272
0.04017716846
0.0401335363
0.04009163268
0.04006769581
0.04008209235
0.04010722106
0.04015024213
0.04019372439
0.04021294545
0.04019372339
0.04015024064
0.04010721958
0.04008209099
0.04009674626
0.04012246189
0.0401656592
0.0402082419
0.04022663381
0.04020824086
0.04016565761
0.04012246025
0.04009674471
0.04011135162
0.04013712111
0.04017971858
0.04022084379
0.04023828244
0.04022084272
0.0401797169
0.04013711931
0.04011134987
0.04012557971
0.04015096877
0.04019237505
0.04023166627
0.04024808629
0.04023166517
0.04019237328
0.04015096681
0.04012557776
0.04013884427
0.0401635581
0.04020341825
0.04024071492
0.04025612449
0.0402407138
0.04020341641
0.04016355601
0.04013884213
0.0401492703
0.04017328331
0.04021170181
0.04024728684
0.04026187155
0.0402472857
0.04021169991
0.04017328109
0.04014926799
0.03999776703
0.0399999741
0.04000490551
0.04001229367
0.04001782397
0.04001229365
0.04000490555
0.03999997419
0.03999776716
0.04000062294
0.04000476385
0.04001389279
0.04002723584
0.04003673966
0.04002723581
0.04001389286
0.04000476399
0.04000062313
0.04000505911
0.04001185172
0.04002638197
0.04004659284
0.04005985638
0.04004659278
0.04002638204
0.04001185188
0.04000505934
0.04001131887
0.04002128497
0.04004182772
0.04006880922
0.04008507454
0.04006880914
0.04004182774
0.04002128509
0.04001131909
0.04001947993
0.04003284595
0.04005936311
0.04009226837
0.04011062801
0.04009226823
0.04005936304
0.04003284599
0.04001948009
0.0400294559
0.04004613875
0.04007805181
0.04011562489
0.04013523948
0.04011562468
0.04007805161
0.04004613867
0.04002945596
0.040041028
0.04006068399
0.0400970541
0.04013791305
0.04015809287
0.04013791275
0.04009705376
0.04006068374
0.04004102791
0.04005389026
0.04007599562
0.04011570565
0.04015852959
0.040178744
0.04015852921
0.04011570514
0.04007599518
0.04005388999
0.04006769497
0.04009163126
0.04013353367
0.04017716414
0.0401970215
0.04017716366
0.040133533
0.04009163061
0.04006769449
0.04008209006
0.04010721801
0.0401502378
0.04019371882
0.04021293946
0.04019371826
0.04015023696
0.04010721715
0.04008208935
0.04009674369
0.04012245855
0.04016565459
0.04020823609
0.0402266276
0.04020823545
0.0401656536
0.04012245746
0.04009674273
0.04011134878
0.0401371175
0.04017971374
0.0402208378
0.04023827607
0.04022083709
0.04017971259
0.04013711619
0.04011134755
0.0401255766
0.04015096491
0.04019237001
0.04023166015
0.04024807982
0.04023165937
0.04019236872
0.04015096339
0.04012557512
0.04013884092
0.04016355402
0.04020341304
0.0402407087
0.04025611794
0.04024070785
0.04020341161
0.04016355231
0.04013883918
0.04014926674
0.04017327903
0.04021169645
0.04024728053
0.04026186492
0.04024727963
0.04021169493
0.04017327716
0.04014926479
)
;
    }
    inlet
    {
        type            calculated;
        value           nonuniform 0();
    }
    outlet
    {
        type            calculated;
        value           nonuniform List<scalar> 
81
(
0.0401492703
0.04017328331
0.04021170181
0.04024728684
0.04026187155
0.0402472857
0.04021169991
0.04017328109
0.04014926799
0.04017328317
0.04020344655
0.04025206488
0.04029752458
0.04031630013
0.04029752316
0.04025206259
0.04020344392
0.04017328042
0.04021170139
0.04025206458
0.04031770683
0.040379792
0.04040568697
0.04037979019
0.04031770389
0.04025206132
0.04021169803
0.04024728603
0.04029752388
0.04037979157
0.04045832058
0.04049138579
0.04045831833
0.04037978806
0.04029752004
0.04024728219
0.04026187041
0.04031629904
0.04040568598
0.0404913852
0.04052799659
0.04049138278
0.04040568236
0.04031629504
0.04026186641
0.04024728436
0.04029752179
0.04037978879
0.04045831727
0.04049138219
0.04045831513
0.04037978556
0.04029751816
0.04024728069
0.04021169857
0.04025206111
0.0403177023
0.04037978657
0.04040568121
0.04037978494
0.04031769973
0.04025205814
0.0402116955
0.0401732798
0.04020344248
0.04025205968
0.04029751838
0.04031629362
0.04029751722
0.04025205775
0.0402034402
0.04017327741
0.04014926674
0.04017327903
0.04021169645
0.04024728053
0.04026186492
0.04024727963
0.04021169493
0.04017327716
0.04014926479
)
;
    }
    procBoundary1to0
    {
        type            processor;
        value           nonuniform List<scalar> 
97
(
0.03999776717
0.03999776717
0.03999997421
0.04000490553
0.0400122935
0.0400178236
0.04001229331
0.04000490528
0.03999997397
0.03999776695
0.03999713898
0.04000502976
0.04000502976
0.04000502976
0.04001803309
0.04004219886
0.04006736682
0.04004219804
0.04001803223
0.04000502901
0.03999997399
0.03999937549
0.04000514194
0.04005810808
0.04005810808
0.04005810808
0.04015512723
0.0403085121
0.04015512266
0.04005810399
0.04001803228
0.04000490531
0.04000264394
0.0400152827
0.0400593521
0.04054137545
0.04054137545
0.04054137545
0.0416215065
0.04054134753
0.04015512309
0.04004219824
0.04001229339
0.04000497118
0.04002482033
0.04010811139
0.04043642827
0.05050919
0.05050919
0.05050919
0.04162151254
0.04162151254
0.04030851365
0.0400673673
0.04001782374
0.0400026439
0.04001528251
0.04005935142
0.04018699785
0.04043642873
0.04018699741
0.04015513105
0.04015513105
0.04015513105
0.04004219953
0.04001229369
0.03999937543
0.04000514179
0.0400219931
0.0400593513
0.0401081113
0.04005935127
0.04002199336
0.04001803372
0.04001803372
0.04001803372
0.04000490569
0.03999713893
0.03999941899
0.04000514177
0.04001528249
0.04002482025
0.04001528246
0.04000514181
0.03999941907
0.03999997435
0.03999997435
0.03999997435
0.03999612436
0.03999713893
0.03999937543
0.04000264389
0.04000497115
0.04000264388
0.03999937543
0.03999713895
0.0399961244
)
;
    }
}


// ************************************************************************* //
