/*--------------------------------*- C++ -*----------------------------------*\
| =========                 |                                                 |
| \\      /  F ield         | OpenFOAM: The Open Source CFD Toolbox           |
|  \\    /   O peration     | Version:  4.x                                   |
|   \\  /    A nd           | Web:      www.OpenFOAM.org                      |
|    \\/     M anipulation  |                                                 |
\*---------------------------------------------------------------------------*/
FoamFile
{
    version     2.0;
    format      ascii;
    class       volScalarField;
    location    "1000";
    object      X_CO;
}
// * * * * * * * * * * * * * * * * * * * * * * * * * * * * * * * * * * * * * //

dimensions      [0 0 0 0 0 0 0];

internalField   nonuniform List<scalar> 
1174
(
0.3299529457
0.329948509
0.3299422486
0.3299340866
0.3299241095
0.3299125361
0.3298996723
0.3298858658
0.3298714688
0.3298568131
0.3298422059
0.3298279758
0.3298147093
0.3298042817
0.3299488043
0.3299417156
0.3299322814
0.3299207192
0.329907425
0.3298928781
0.3298775646
0.329861927
0.3298463381
0.3298310953
0.3298164341
0.3298025844
0.3297899931
0.3297802662
0.3299396745
0.329927184
0.3299117367
0.3298941996
0.3298755089
0.3298565045
0.3298378507
0.3298200204
0.3298033139
0.3297878947
0.3297738332
0.3297611746
0.3297501294
0.3297418443
0.3299263305
0.3299069716
0.3298847531
0.3298612917
0.3298379327
0.329815642
0.329795023
0.3297763859
0.3297598287
0.3297453091
0.329732705
0.3297218804
0.3297128297
0.3297062563
0.3299168263
0.3298937074
0.3298684869
0.3298429309
0.3298183168
0.3297954608
0.3297748071
0.329756527
0.3297406066
0.3297269161
0.3297152653
0.3297054593
0.3296974191
0.3296916706
0.3299263309
0.3299069721
0.3298847538
0.3298612925
0.3298379336
0.3298156431
0.3297950241
0.3297763871
0.3297598301
0.3297453105
0.3297327065
0.329721882
0.3297128314
0.329706258
0.329939675
0.3299271846
0.3299117375
0.3298942006
0.3298755101
0.3298565059
0.3298378523
0.3298200222
0.3298033159
0.3297878969
0.3297738356
0.3297611772
0.3297501321
0.3297418471
0.3299488047
0.3299417162
0.329932282
0.32992072
0.3299074259
0.3298928793
0.329877566
0.3298619287
0.3298463401
0.3298310976
0.3298164366
0.3298025872
0.3297899961
0.3297802695
0.329952946
0.3299485094
0.329942249
0.3299340872
0.3299241103
0.3299125371
0.3298996735
0.3298858673
0.3298714706
0.3298568152
0.3298422083
0.3298279786
0.3298147124
0.3298042851
0.3299535947
0.3299488044
0.3299417157
0.3299322815
0.3299207193
0.3299074251
0.3298928782
0.3298775648
0.3298619271
0.3298463383
0.3298310955
0.3298164343
0.3298025846
0.3297899932
0.3297802664
0.3299394958
0.3299270941
0.3299119778
0.3298950501
0.3298772166
0.3298592393
0.3298416849
0.3298249319
0.3298092041
0.3297946121
0.3297811977
0.3297689996
0.3297582415
0.3297501001
0.3299161299
0.3298921175
0.3298660246
0.3298400463
0.3298156834
0.3297937524
0.3297745484
0.3297580307
0.3297439744
0.3297320766
0.329722025
0.3297135523
0.3297065442
0.3297014776
0.3298747181
0.3298348968
0.3297970272
0.3297639198
0.3297365513
0.3297147877
0.3296979569
0.3296852107
0.3296757173
0.3296687468
0.329663697
0.3296600917
0.3296575802
0.3296560143
0.3298357489
0.3297879063
0.329747336
0.32971509
0.329690534
0.3296724339
0.3296594768
0.3296504845
0.3296444793
0.3296406833
0.3296384919
0.3296374378
0.3296371427
0.3296372375
0.3298747192
0.3298348983
0.3297970289
0.3297639216
0.3297365532
0.3297147896
0.3296979589
0.3296852128
0.3296757194
0.3296687489
0.3296636991
0.3296600939
0.3296575823
0.3296560164
0.3299161312
0.329892119
0.3298660262
0.3298400481
0.3298156855
0.3297937546
0.3297745509
0.3297580334
0.3297439773
0.3297320796
0.3297220281
0.3297135556
0.3297065476
0.3297014811
0.3299394967
0.3299270951
0.3299119788
0.3298950513
0.3298772181
0.3298592411
0.329841687
0.3298249343
0.3298092068
0.3297946151
0.329781201
0.3297690032
0.3297582453
0.3297501041
0.3299488047
0.3299417162
0.3299322821
0.3299207201
0.3299074261
0.3298928795
0.3298775664
0.3298619291
0.3298463406
0.3298310983
0.3298164374
0.3298025881
0.3297899971
0.3297802707
0.329948663
0.3299396747
0.3299271844
0.3299117371
0.3298942
0.3298755094
0.329856505
0.3298378512
0.3298200209
0.3298033144
0.3297878953
0.3297738338
0.3297611752
0.32975013
0.3297418448
0.3299355339
0.3299161302
0.3298921179
0.329866025
0.3298400467
0.3298156838
0.3297937528
0.3297745488
0.3297580311
0.3297439748
0.329732077
0.3297220254
0.3297135527
0.3297065446
0.329701478
0.3298473084
0.3297968371
0.3297511359
0.3297136346
0.32968503
0.3296644956
0.3296505836
0.3296417583
0.3296366525
0.3296341556
0.329633414
0.3296337886
0.329634776
0.3296358304
0.3296946805
0.3296096717
0.329550991
0.3295162479
0.3294997795
0.3294958841
0.3294999646
0.3295086913
0.3295198066
0.3295318511
0.3295439141
0.3295554128
0.3295658
0.3295737406
0.329495296
0.3294108184
0.3293743551
0.3293676676
0.3293777172
0.3293962882
0.3294185072
0.329441599
0.3294640483
0.3294850784
0.329504328
0.3295216202
0.3295366354
0.3295478442
0.3296946859
0.3296096769
0.3295509958
0.3295162524
0.3294997837
0.3294958881
0.3294999684
0.3295086949
0.32951981
0.3295318544
0.3295439172
0.3295554158
0.3295658029
0.3295737435
0.329847313
0.3297968409
0.3297511397
0.3297136385
0.3296850341
0.3296644999
0.329650588
0.3296417629
0.3296366571
0.3296341602
0.3296334186
0.3296337932
0.3296347806
0.329635835
0.3299161312
0.3298921192
0.3298660266
0.3298400487
0.3298156863
0.3297937557
0.3297745521
0.3297580348
0.3297439789
0.3297320813
0.3297220299
0.3297135575
0.3297065496
0.3297014831
0.3299396749
0.3299271847
0.3299117378
0.329894201
0.3298755108
0.3298565069
0.3298378536
0.3298200238
0.3298033178
0.3297878991
0.329773838
0.3297611798
0.329750135
0.3297418501
0.3299412744
0.329926331
0.3299069724
0.329884754
0.3298612926
0.3298379337
0.3298156431
0.3297950241
0.329776387
0.3297598299
0.3297453102
0.3297327061
0.3297218815
0.3297128308
0.3297062573
0.3299113667
0.3298747187
0.329834898
0.3297970285
0.3297639211
0.3297365526
0.3297147889
0.3296979581
0.3296852118
0.3296757184
0.3296687478
0.329663698
0.3296600927
0.3296575811
0.3296560152
0.3297984293
0.3296946817
0.3296096734
0.3295509926
0.3295162494
0.3294997808
0.3294958852
0.3294999656
0.3295086922
0.3295198074
0.3295318518
0.3295439147
0.3295554134
0.3295658006
0.3295737412
0.3291726875
0.3290657842
0.3290477726
0.3290779469
0.3291296507
0.3291878352
0.329244867
0.3292973379
0.3293440702
0.329384979
0.3294204479
0.3294509466
0.3294765391
0.3294952068
0.3281504225
0.3282830141
0.3284873208
0.3286834141
0.3288501385
0.3289861931
0.3290959549
0.3291846089
0.3292566845
0.3293157753
0.3293646135
0.3294051561
0.3294383275
0.3294621399
0.3291727072
0.3290657976
0.3290477832
0.3290779559
0.3291296586
0.3291878422
0.3292448733
0.3292973435
0.3293440753
0.3293849836
0.3294204523
0.3294509506
0.3294765429
0.3294952104
0.3296946857
0.3296096783
0.3295509983
0.3295162557
0.3294997874
0.329495892
0.3294999724
0.3295086989
0.3295198139
0.3295318582
0.3295439209
0.3295554194
0.3295658064
0.3295737469
0.3298747192
0.329834899
0.3297970304
0.3297639238
0.3297365561
0.3297147931
0.3296979628
0.329685217
0.3296757238
0.3296687535
0.3296637039
0.3296600987
0.3296575872
0.3296560214
0.3299263308
0.3299069724
0.3298847545
0.3298612937
0.3298379355
0.3298156456
0.3297950272
0.3297763908
0.3297598342
0.329745315
0.3297327114
0.3297218871
0.3297128368
0.3297062636
0.329935744
0.3299168269
0.3298937084
0.3298684881
0.3298429323
0.3298183183
0.3297954624
0.3297748087
0.3297565286
0.3297406082
0.3297269176
0.3297152668
0.3297054608
0.3296974206
0.329691672
0.3298861977
0.3298357501
0.3297879083
0.3297473382
0.3297150921
0.3296905361
0.329672436
0.3296594787
0.3296504863
0.3296444811
0.329640685
0.3296384935
0.3296374393
0.3296371441
0.3296372389
0.3296450426
0.3294952974
0.3294108227
0.3293743594
0.3293676713
0.3293777204
0.329396291
0.3294185097
0.3294416012
0.3294640503
0.3294850801
0.3295043296
0.3295216216
0.3295366367
0.3295478454
0.3283320206
0.3281504348
0.3282830232
0.3284873272
0.3286834187
0.3288501421
0.3289861958
0.3290959569
0.3291846106
0.329256686
0.3293157765
0.3293646145
0.329405157
0.3294383283
0.3294621406
0.3237310157
0.3259742987
0.3272167802
0.3279447482
0.328395981
0.3286912999
0.3288944963
0.3290406139
0.3291496972
0.3292336823
0.3292999429
0.3293530903
0.3293955169
0.3294255276
0.3281504225
0.3282830348
0.3284873408
0.3286834308
0.3288501525
0.3289862048
0.3290959648
0.3291846174
0.3292566921
0.329315782
0.3293646196
0.3294051616
0.3294383326
0.3294621447
0.3294952958
0.3294108255
0.3293743649
0.3293676783
0.3293777281
0.3293962988
0.3294185175
0.3294416088
0.3294640576
0.3294850872
0.3295043364
0.3295216281
0.329536643
0.3295478516
0.3298357489
0.3297879083
0.3297473396
0.3297150948
0.3296905399
0.3296724406
0.329659484
0.3296504921
0.3296444871
0.3296406913
0.3296385
0.3296374459
0.3296371508
0.3296372457
0.3299168263
0.329893708
0.3298684883
0.3298429332
0.3298183201
0.329795465
0.3297748121
0.3297565327
0.3297406129
0.3297269229
0.3297152726
0.329705467
0.3296974271
0.3296916789
0.3299412746
0.3299263315
0.3299069731
0.329884755
0.3298612939
0.3298379352
0.3298156447
0.3297950258
0.3297763889
0.3297598319
0.3297453123
0.3297327083
0.3297218837
0.3297128331
0.3297062597
0.3299113678
0.3298747206
0.3298349004
0.3297970312
0.3297639239
0.3297365556
0.329714792
0.3296979612
0.329685215
0.3296757215
0.3296687509
0.3296637011
0.3296600958
0.3296575841
0.3296560182
0.3297984368
0.3296946895
0.3296096819
0.3295510007
0.329516257
0.3294997878
0.3294958918
0.3294999717
0.3295086979
0.3295198127
0.3295318568
0.3295439194
0.3295554178
0.3295658048
0.3295737453
0.3294122018
0.3291727185
0.3290658091
0.3290477925
0.3290779632
0.3291296643
0.3291878467
0.3292448769
0.3292973465
0.3293440778
0.3293849858
0.3294204542
0.3294509523
0.3294765444
0.3294952118
0.3283320234
0.3281504414
0.3282830474
0.3284873491
0.3286834365
0.3288501565
0.3289862077
0.329095967
0.3291846193
0.3292566936
0.3293157833
0.3293646206
0.3294051625
0.3294383334
0.3294621455
0.3294121973
0.3291727209
0.3290658143
0.3290477988
0.3290779697
0.3291296708
0.3291878529
0.3292448827
0.3292973519
0.3293440828
0.3293849905
0.3294204585
0.3294509564
0.3294765483
0.3294952155
0.3296946803
0.3296096789
0.3295510017
0.3295162603
0.3294997926
0.3294958974
0.3294999777
0.3295087041
0.3295198189
0.3295318629
0.3295439255
0.3295554237
0.3295658106
0.329573751
0.3298747178
0.3298348987
0.329797031
0.3297639252
0.3297365581
0.3297147954
0.3296979654
0.3296852198
0.3296757268
0.3296687565
0.329663707
0.3296601018
0.3296575903
0.3296560246
0.3299263304
0.3299069722
0.3298847546
0.3298612942
0.3298379363
0.3298156467
0.3297950286
0.3297763924
0.3297598361
0.3297453171
0.3297327136
0.3297218895
0.3297128393
0.3297062662
0.3299486633
0.3299396754
0.3299271853
0.3299117384
0.3298942016
0.3298755113
0.3298565072
0.3298378537
0.3298200237
0.3298033175
0.3297878986
0.3297738373
0.3297611789
0.3297501338
0.3297418488
0.3299355353
0.3299161322
0.3298921204
0.3298660279
0.3298400499
0.3298156874
0.3297937567
0.329774553
0.3297580355
0.3297439794
0.3297320817
0.3297220301
0.3297135576
0.3297065496
0.329701483
0.3298954609
0.3298473154
0.3297968442
0.3297511432
0.329713642
0.3296850376
0.3296645032
0.3296505911
0.3296417658
0.3296366599
0.3296341628
0.329633421
0.3296337955
0.3296347828
0.329635837
0.3297984374
0.3296946915
0.3296096851
0.3295510048
0.3295162616
0.3294997926
0.3294958966
0.3294999764
0.3295087024
0.329519817
0.3295318609
0.3295439234
0.3295554216
0.3295658085
0.3295737488
0.3296450441
0.3294953053
0.3294108344
0.3293743724
0.3293676845
0.3293777332
0.329396303
0.329418521
0.3294416117
0.3294640602
0.3294850894
0.3295043384
0.3295216299
0.3295366446
0.3295478531
0.3297984376
0.3296946923
0.3296096865
0.3295510069
0.3295162641
0.3294997955
0.3294958997
0.3294999796
0.3295087056
0.3295198203
0.3295318641
0.3295439265
0.3295554247
0.3295658115
0.3295737518
0.3298954584
0.3298473132
0.3297968431
0.3297511435
0.3297136435
0.32968504
0.3296645063
0.3296505948
0.3296417698
0.3296366641
0.3296341672
0.3296334255
0.3296338001
0.3296347874
0.3296358418
0.3299161299
0.329892119
0.3298660274
0.3298400504
0.3298156887
0.3297937587
0.3297745557
0.3297580388
0.3297439832
0.3297320859
0.3297220347
0.3297135624
0.3297065547
0.3297014883
0.3299396744
0.3299271845
0.3299117379
0.3298942016
0.3298755119
0.3298565084
0.3298378556
0.3298200263
0.3298033207
0.3297879023
0.3297738416
0.3297611836
0.329750139
0.3297418544
0.3299535951
0.329948805
0.3299417166
0.3299322826
0.3299207207
0.3299074268
0.3298928803
0.3298775672
0.3298619299
0.3298463415
0.3298310991
0.3298164382
0.3298025888
0.3297899978
0.3297802712
0.3299485396
0.3299394972
0.3299270958
0.3299119798
0.3298950525
0.3298772195
0.3298592426
0.3298416886
0.329824936
0.3298092085
0.3297946169
0.3297812028
0.329769005
0.3297582472
0.329750106
0.3299355353
0.3299161324
0.3298921208
0.3298660286
0.3298400509
0.3298156886
0.3297937581
0.3297745546
0.3297580373
0.3297439813
0.3297320837
0.3297220322
0.3297135597
0.3297065517
0.3297014852
0.329911368
0.3298747215
0.3298349021
0.3297970337
0.3297639273
0.3297365595
0.3297147964
0.3296979659
0.3296852199
0.3296757266
0.3296687562
0.3296637064
0.3296601011
0.3296575895
0.3296560235
0.3298861984
0.3298357524
0.3297879124
0.3297473438
0.3297150989
0.3296905436
0.329672444
0.3296594871
0.3296504949
0.3296444898
0.3296406937
0.3296385022
0.3296374479
0.3296371527
0.3296372475
0.3299113681
0.3298747218
0.3298349025
0.3297970344
0.3297639282
0.3297365607
0.3297147978
0.3296979676
0.3296852217
0.3296757285
0.3296687582
0.3296637085
0.3296601032
0.3296575916
0.3296560258
0.329935535
0.329916132
0.3298921207
0.3298660288
0.3298400516
0.3298156898
0.3297937597
0.3297745566
0.3297580396
0.3297439839
0.3297320866
0.3297220354
0.329713563
0.3297065552
0.3297014889
0.329948539
0.3299394966
0.3299270953
0.3299119795
0.3298950526
0.3298772201
0.3298592437
0.3298416902
0.329824938
0.329809211
0.3297946198
0.3297812061
0.3297690087
0.3297582511
0.3297501102
0.3299488043
0.329941716
0.3299322822
0.3299207206
0.329907427
0.3298928809
0.3298775683
0.3298619315
0.3298463436
0.3298311017
0.3298164413
0.3298025924
0.3297900018
0.3297802757
0.3299558023
0.3299529462
0.3299485097
0.3299422494
0.3299340877
0.329924111
0.3299125379
0.3298996745
0.3298858684
0.3298714718
0.3298568166
0.3298422098
0.3298279801
0.329814714
0.3298042867
0.3299535951
0.329948805
0.3299417166
0.3299322827
0.3299207209
0.3299074271
0.3298928807
0.3298775677
0.3298619306
0.3298463422
0.3298310999
0.3298164391
0.3298025898
0.3297899989
0.3297802725
0.3299486633
0.3299396755
0.3299271856
0.329911739
0.3298942024
0.3298755125
0.3298565087
0.3298378555
0.3298200258
0.3298033199
0.3297879012
0.3297738401
0.3297611819
0.329750137
0.3297418522
0.3299412747
0.3299263319
0.3299069739
0.3298847564
0.3298612959
0.3298379378
0.329815648
0.3297950297
0.3297763932
0.3297598366
0.3297453174
0.3297327137
0.3297218894
0.329712839
0.3297062658
0.3299357442
0.3299168278
0.32989371
0.3298684906
0.3298429358
0.3298183227
0.3297954676
0.3297748147
0.3297565353
0.3297406154
0.3297269253
0.3297152748
0.3297054691
0.3296974291
0.3296916808
0.3299412748
0.3299263319
0.3299069741
0.3298847566
0.3298612963
0.3298379384
0.3298156487
0.3297950306
0.3297763943
0.3297598379
0.3297453188
0.3297327152
0.329721891
0.3297128407
0.3297062676
0.3299486633
0.3299396755
0.3299271856
0.3299117391
0.3298942028
0.329875513
0.3298565096
0.3298378567
0.3298200273
0.3298033217
0.3297879033
0.3297738425
0.3297611845
0.3297501398
0.3297418552
0.329953595
0.3299488048
0.3299417165
0.3299322827
0.329920721
0.3299074275
0.3298928814
0.3298775687
0.329861932
0.329846344
0.3298311021
0.3298164417
0.3298025928
0.3297900022
0.329780276
0.3299558022
0.3299529459
0.3299485094
0.3299422492
0.3299340877
0.3299241111
0.3299125383
0.3298996752
0.3298858695
0.3298714734
0.3298568186
0.3298422123
0.3298279831
0.3298147174
0.3298042906
)
;

boundaryField
{
    top
    {
        type            calculated;
        value           nonuniform List<scalar> 
127
(
0.3299558022
0.329952946
0.3299488047
0.3299396749
0.3299263308
0.3299168263
0.3299263304
0.3299396744
0.3299488043
0.3299529459
0.3299485094
0.3299417162
0.3299271847
0.3299069724
0.329893708
0.3299069722
0.3299271845
0.329941716
0.3299485094
0.329942249
0.3299322821
0.3299117378
0.3298847545
0.3298684883
0.3298847546
0.3299117379
0.3299322822
0.3299422492
0.3299340872
0.3299207201
0.329894201
0.3298612937
0.3298429332
0.3298612942
0.3298942016
0.3299207206
0.3299340877
0.3299241103
0.3299074261
0.3298755108
0.3298379355
0.3298183201
0.3298379363
0.3298755119
0.329907427
0.3299241111
0.3299125371
0.3298928795
0.3298565069
0.3298156456
0.329795465
0.3298156467
0.3298565084
0.3298928809
0.3299125383
0.3298996735
0.3298775664
0.3298378536
0.3297950272
0.3297748121
0.3297950286
0.3298378556
0.3298775683
0.3298996752
0.3298858673
0.3298619291
0.3298200238
0.3297763908
0.3297565327
0.3297763924
0.3298200263
0.3298619315
0.3298858695
0.3298714706
0.3298463406
0.3298033178
0.3297598342
0.3297406129
0.3297598361
0.3298033207
0.3298463436
0.3298714734
0.3298568152
0.3298310983
0.3297878991
0.329745315
0.3297269229
0.3297453171
0.3297879023
0.3298311017
0.3298568186
0.3298422083
0.3298164374
0.329773838
0.3297327114
0.3297152726
0.3297327136
0.3297738416
0.3298164413
0.3298422123
0.3298279786
0.3298025881
0.3297611798
0.3297218871
0.329705467
0.3297218895
0.3297611836
0.3298025924
0.3298279831
0.3298147124
0.3297899971
0.329750135
0.3297128368
0.3296974271
0.3297128393
0.329750139
0.3297900018
0.3298147174
0.3298042851
0.3297802707
0.3297418501
0.3297062636
0.3296916789
0.3297062662
0.3297418544
0.3297802757
0.3298042906
)
;
    }
    bottom
    {
        type            calculated;
        value           nonuniform List<scalar> 
134
(
0.3299535947
0.329948663
0.3299412744
0.329935744
0.3299412746
0.3299486633
0.3299535951
0.3299558023
0.3299529457
0.3299488044
0.3299396747
0.329926331
0.3299168269
0.3299263315
0.3299396754
0.329948805
0.3299529462
0.329948509
0.3299417157
0.3299271844
0.3299069724
0.3298937084
0.3299069731
0.3299271853
0.3299417166
0.3299485097
0.3299422486
0.3299322815
0.3299117371
0.329884754
0.3298684881
0.329884755
0.3299117384
0.3299322826
0.3299422494
0.3299340866
0.3299207193
0.3298942
0.3298612926
0.3298429323
0.3298612939
0.3298942016
0.3299207207
0.3299340877
0.3299241095
0.3299074251
0.3298755094
0.3298379337
0.3298183183
0.3298379352
0.3298755113
0.3299074268
0.329924111
0.3299125361
0.3298928782
0.329856505
0.3298156431
0.3297954624
0.3298156447
0.3298565072
0.3298928803
0.3299125379
0.3298996723
0.3298775648
0.3298378512
0.3297950241
0.3297748087
0.3297950258
0.3298378537
0.3298775672
0.3298996745
0.3298858658
0.3298619271
0.3298200209
0.329776387
0.3297565286
0.3297763889
0.3298200237
0.3298619299
0.3298858684
0.3298714688
0.3298463383
0.3298033144
0.3297598299
0.3297406082
0.3297598319
0.3298033175
0.3298463415
0.3298714718
0.3298568131
0.3298310955
0.3297878953
0.3297453102
0.3297269176
0.3297453123
0.3297878986
0.3298310991
0.3298568166
0.3298422059
0.3298164343
0.3297738338
0.3297327061
0.3297152668
0.3297327083
0.3297738373
0.3298164382
0.3298422098
0.3298279758
0.3298025846
0.3297611752
0.3297218815
0.3297054608
0.3297218837
0.3297611789
0.3298025888
0.3298279801
0.3298147093
0.3297899932
0.32975013
0.3297128308
0.3296974206
0.3297128331
0.3297501338
0.3297899978
0.329814714
0.3298042817
0.3297802664
0.3297418448
0.3297062573
0.329691672
0.3297062597
0.3297418488
0.3297802712
0.3298042867
)
;
    }
    side-walls
    {
        type            calculated;
        value           nonuniform List<scalar> 
261
(
0.3299529457
0.3299488043
0.3299396745
0.3299263305
0.3299168263
0.3299263309
0.329939675
0.3299488047
0.329952946
0.329948509
0.3299417156
0.329927184
0.3299069716
0.3298937074
0.3299069721
0.3299271846
0.3299417162
0.3299485094
0.3299422486
0.3299322814
0.3299117367
0.3298847531
0.3298684869
0.3298847538
0.3299117375
0.329932282
0.329942249
0.3299340866
0.3299207192
0.3298941996
0.3298612917
0.3298429309
0.3298612925
0.3298942006
0.32992072
0.3299340872
0.3299241095
0.329907425
0.3298755089
0.3298379327
0.3298183168
0.3298379336
0.3298755101
0.3299074259
0.3299241103
0.3299125361
0.3298928781
0.3298565045
0.329815642
0.3297954608
0.3298156431
0.3298565059
0.3298928793
0.3299125371
0.3298996723
0.3298775646
0.3298378507
0.329795023
0.3297748071
0.3297950241
0.3298378523
0.329877566
0.3298996735
0.3298858658
0.329861927
0.3298200204
0.3297763859
0.329756527
0.3297763871
0.3298200222
0.3298619287
0.3298858673
0.3298714688
0.3298463381
0.3298033139
0.3297598287
0.3297406066
0.3297598301
0.3298033159
0.3298463401
0.3298714706
0.3298568131
0.3298310953
0.3297878947
0.3297453091
0.3297269161
0.3297453105
0.3297878969
0.3298310976
0.3298568152
0.3298422059
0.3298164341
0.3297738332
0.329732705
0.3297152653
0.3297327065
0.3297738356
0.3298164366
0.3298422083
0.3298279758
0.3298025844
0.3297611746
0.3297218804
0.3297054593
0.329721882
0.3297611772
0.3298025872
0.3298279786
0.3298147093
0.3297899931
0.3297501294
0.3297128297
0.3296974191
0.3297128314
0.3297501321
0.3297899961
0.3298147124
0.3298042817
0.3297802662
0.3297418443
0.3297062563
0.3296916706
0.329706258
0.3297418471
0.3297802695
0.3298042851
0.3299558023
0.3299535951
0.3299486633
0.3299412747
0.3299357442
0.3299412748
0.3299486633
0.329953595
0.3299558022
0.3299529462
0.329948805
0.3299396755
0.3299263319
0.3299168278
0.3299263319
0.3299396755
0.3299488048
0.3299529459
0.3299485097
0.3299417166
0.3299271856
0.3299069739
0.32989371
0.3299069741
0.3299271856
0.3299417165
0.3299485094
0.3299422494
0.3299322827
0.329911739
0.3298847564
0.3298684906
0.3298847566
0.3299117391
0.3299322827
0.3299422492
0.3299340877
0.3299207209
0.3298942024
0.3298612959
0.3298429358
0.3298612963
0.3298942028
0.329920721
0.3299340877
0.329924111
0.3299074271
0.3298755125
0.3298379378
0.3298183227
0.3298379384
0.329875513
0.3299074275
0.3299241111
0.3299125379
0.3298928807
0.3298565087
0.329815648
0.3297954676
0.3298156487
0.3298565096
0.3298928814
0.3299125383
0.3298996745
0.3298775677
0.3298378555
0.3297950297
0.3297748147
0.3297950306
0.3298378567
0.3298775687
0.3298996752
0.3298858684
0.3298619306
0.3298200258
0.3297763932
0.3297565353
0.3297763943
0.3298200273
0.329861932
0.3298858695
0.3298714718
0.3298463422
0.3298033199
0.3297598366
0.3297406154
0.3297598379
0.3298033217
0.329846344
0.3298714734
0.3298568166
0.3298310999
0.3297879012
0.3297453174
0.3297269253
0.3297453188
0.3297879033
0.3298311021
0.3298568186
0.3298422098
0.3298164391
0.3297738401
0.3297327137
0.3297152748
0.3297327152
0.3297738425
0.3298164417
0.3298422123
0.3298279801
0.3298025898
0.3297611819
0.3297218894
0.3297054691
0.329721891
0.3297611845
0.3298025928
0.3298279831
0.329814714
0.3297899989
0.329750137
0.329712839
0.3296974291
0.3297128407
0.3297501398
0.3297900022
0.3298147174
0.3298042867
0.3297802725
0.3297418522
0.3297062658
0.3296916808
0.3297062676
0.3297418552
0.329780276
0.3298042906
)
;
    }
    inlet
    {
        type            calculated;
        value           nonuniform 0();
    }
    outlet
    {
        type            calculated;
        value           nonuniform List<scalar> 
81
(
0.3298042817
0.3297802662
0.3297418443
0.3297062563
0.3296916706
0.329706258
0.3297418471
0.3297802695
0.3298042851
0.3297802664
0.3297501001
0.3297014776
0.3296560143
0.3296372375
0.3296560164
0.3297014811
0.3297501041
0.3297802707
0.3297418448
0.329701478
0.3296358304
0.3295737406
0.3295478442
0.3295737435
0.329635835
0.3297014831
0.3297418501
0.3297062573
0.3296560152
0.3295737412
0.3294952068
0.3294621399
0.3294952104
0.3295737469
0.3296560214
0.3297062636
0.329691672
0.3296372389
0.3295478454
0.3294621406
0.3294255276
0.3294621447
0.3295478516
0.3296372457
0.3296916789
0.3297062597
0.3296560182
0.3295737453
0.3294952118
0.3294621455
0.3294952155
0.329573751
0.3296560246
0.3297062662
0.3297418488
0.329701483
0.329635837
0.3295737488
0.3295478531
0.3295737518
0.3296358418
0.3297014883
0.3297418544
0.3297802712
0.329750106
0.3297014852
0.3296560235
0.3296372475
0.3296560258
0.3297014889
0.3297501102
0.3297802757
0.3298042867
0.3297802725
0.3297418522
0.3297062658
0.3296916808
0.3297062676
0.3297418552
0.329780276
0.3298042906
)
;
    }
    procBoundary1to0
    {
        type            processor;
        value           nonuniform List<scalar> 
97
(
0.3299558021
0.3299558021
0.329953595
0.3299486633
0.3299412751
0.3299357448
0.3299412753
0.3299486636
0.3299535952
0.3299558024
0.3299564305
0.329948539
0.329948539
0.329948539
0.329935535
0.3299113686
0.3298862005
0.3299113696
0.3299355361
0.3299485399
0.3299535952
0.3299541938
0.329948427
0.3298954579
0.3298954579
0.3298954579
0.3297984374
0.3296450543
0.3297984429
0.3298954631
0.329935536
0.3299486636
0.3299509251
0.3299382858
0.3298942151
0.3294121824
0.3294121824
0.3294121824
0.3283320783
0.3294122177
0.3297984424
0.3299113693
0.3299412752
0.3299485978
0.3299287478
0.3298454547
0.3295171366
0.3194446388
0.3194446388
0.3194446388
0.3283320707
0.3283320707
0.3296450523
0.3298861999
0.3299357446
0.3299509252
0.3299382859
0.3298942154
0.3297665662
0.3295171347
0.3297665676
0.3297984319
0.3297984319
0.3297984319
0.3299113676
0.3299412748
0.3299541938
0.3299484271
0.329931575
0.3298942155
0.3298454546
0.3298942157
0.3299315748
0.3299355342
0.3299355342
0.3299355342
0.3299486631
0.3299564305
0.3299541503
0.3299484271
0.3299382859
0.3299287479
0.329938286
0.3299484271
0.3299541502
0.3299535948
0.3299535948
0.3299535948
0.3299574451
0.3299564305
0.3299541938
0.3299509252
0.3299485978
0.3299509252
0.3299541938
0.3299564305
0.3299574451
)
;
    }
}


// ************************************************************************* //
