/*--------------------------------*- C++ -*----------------------------------*\
| =========                 |                                                 |
| \\      /  F ield         | OpenFOAM: The Open Source CFD Toolbox           |
|  \\    /   O peration     | Version:  4.x                                   |
|   \\  /    A nd           | Web:      www.OpenFOAM.org                      |
|    \\/     M anipulation  |                                                 |
\*---------------------------------------------------------------------------*/
FoamFile
{
    version     2.0;
    format      ascii;
    class       volScalarField;
    location    "1000";
    object      X_N2;
}
// * * * * * * * * * * * * * * * * * * * * * * * * * * * * * * * * * * * * * //

dimensions      [0 0 0 0 0 0 0];

internalField   nonuniform List<scalar> 
1174
(
0.6000676074
0.6000676068
0.600067606
0.6000676049
0.6000676035
0.6000676017
0.6000675997
0.6000675973
0.6000675947
0.6000675918
0.6000675887
0.6000675855
0.6000675823
0.6000675797
0.6000676069
0.600067606
0.6000676049
0.6000676034
0.6000676016
0.6000675994
0.600067597
0.6000675943
0.6000675914
0.6000675883
0.600067585
0.6000675817
0.6000675784
0.6000675758
0.6000676059
0.6000676046
0.6000676029
0.6000676008
0.6000675984
0.6000675957
0.6000675927
0.6000675896
0.6000675863
0.6000675829
0.6000675795
0.600067576
0.6000675728
0.6000675702
0.6000676048
0.600067603
0.6000676007
0.6000675981
0.6000675951
0.600067592
0.6000675886
0.6000675851
0.6000675816
0.6000675781
0.6000675746
0.6000675711
0.6000675679
0.6000675653
0.6000676042
0.6000676022
0.6000675997
0.6000675969
0.6000675937
0.6000675904
0.6000675869
0.6000675834
0.6000675799
0.6000675763
0.6000675728
0.6000675694
0.6000675662
0.6000675637
0.6000676048
0.6000676031
0.6000676009
0.6000675983
0.6000675954
0.6000675923
0.600067589
0.6000675856
0.6000675822
0.6000675787
0.6000675753
0.6000675719
0.6000675687
0.6000675663
0.600067606
0.6000676047
0.6000676031
0.600067601
0.6000675987
0.6000675961
0.6000675933
0.6000675903
0.6000675871
0.6000675839
0.6000675806
0.6000675773
0.6000675741
0.6000675717
0.6000676069
0.6000676061
0.600067605
0.6000676035
0.6000676018
0.6000675998
0.6000675975
0.6000675949
0.6000675922
0.6000675892
0.6000675862
0.600067583
0.60006758
0.6000675775
0.6000676074
0.6000676069
0.600067606
0.600067605
0.6000676036
0.6000676019
0.6000676
0.6000675978
0.6000675954
0.6000675927
0.6000675898
0.6000675869
0.6000675839
0.6000675816
0.6000676075
0.600067607
0.6000676061
0.600067605
0.6000676035
0.6000676017
0.6000675995
0.6000675971
0.6000675944
0.6000675914
0.6000675883
0.6000675851
0.6000675817
0.6000675785
0.6000675759
0.6000676058
0.6000676046
0.600067603
0.6000676009
0.6000675986
0.600067596
0.6000675931
0.6000675901
0.6000675869
0.6000675836
0.6000675803
0.6000675769
0.6000675737
0.6000675712
0.6000676037
0.6000676017
0.6000675992
0.6000675963
0.6000675932
0.6000675899
0.6000675866
0.6000675832
0.6000675798
0.6000675764
0.600067573
0.6000675697
0.6000675667
0.6000675643
0.6000676011
0.6000675981
0.6000675947
0.6000675911
0.6000675874
0.6000675837
0.60006758
0.6000675765
0.6000675731
0.6000675697
0.6000675665
0.6000675634
0.6000675606
0.6000675584
0.6000675997
0.6000675963
0.6000675925
0.6000675886
0.6000675848
0.600067581
0.6000675774
0.6000675739
0.6000675706
0.6000675674
0.6000675642
0.6000675613
0.6000675585
0.6000675565
0.6000676013
0.6000675984
0.6000675951
0.6000675915
0.6000675879
0.6000675843
0.6000675808
0.6000675774
0.600067574
0.6000675708
0.6000675676
0.6000675645
0.6000675617
0.6000675597
0.600067604
0.600067602
0.6000675995
0.6000675968
0.6000675938
0.6000675908
0.6000675876
0.6000675843
0.6000675811
0.6000675779
0.6000675746
0.6000675715
0.6000675685
0.6000675663
0.600067606
0.6000676047
0.6000676031
0.6000676012
0.600067599
0.6000675966
0.6000675939
0.6000675911
0.6000675881
0.6000675851
0.6000675819
0.6000675788
0.6000675757
0.6000675734
0.6000676069
0.6000676061
0.600067605
0.6000676036
0.6000676019
0.6000675999
0.6000675977
0.6000675952
0.6000675925
0.6000675897
0.6000675867
0.6000675836
0.6000675806
0.6000675783
0.600067607
0.6000676061
0.6000676048
0.6000676031
0.600067601
0.6000675986
0.6000675959
0.600067593
0.6000675898
0.6000675865
0.6000675831
0.6000675797
0.6000675762
0.6000675729
0.6000675704
0.6000676055
0.600067604
0.6000676019
0.6000675994
0.6000675965
0.6000675934
0.6000675901
0.6000675867
0.6000675833
0.6000675799
0.6000675765
0.6000675732
0.6000675699
0.6000675668
0.6000675645
0.6000675986
0.6000675954
0.6000675916
0.6000675876
0.6000675837
0.6000675798
0.6000675761
0.6000675727
0.6000675694
0.6000675662
0.6000675632
0.6000675604
0.6000675577
0.6000675558
0.6000675913
0.6000675865
0.6000675815
0.6000675768
0.6000675724
0.6000675686
0.6000675652
0.6000675621
0.6000675593
0.6000675567
0.6000675542
0.6000675519
0.6000675498
0.6000675484
0.6000675879
0.6000675821
0.6000675764
0.6000675715
0.6000675674
0.6000675639
0.6000675608
0.6000675581
0.6000675556
0.6000675533
0.6000675512
0.6000675491
0.6000675473
0.600067546
0.6000675925
0.6000675876
0.6000675827
0.6000675781
0.6000675739
0.6000675702
0.6000675669
0.6000675638
0.600067561
0.6000675584
0.600067556
0.6000675537
0.6000675515
0.6000675501
0.6000675994
0.6000675961
0.6000675925
0.6000675888
0.6000675851
0.6000675816
0.6000675781
0.6000675749
0.6000675717
0.6000675687
0.6000675658
0.600067563
0.6000675604
0.6000675585
0.600067604
0.600067602
0.6000675997
0.6000675971
0.6000675943
0.6000675913
0.6000675882
0.6000675851
0.600067582
0.6000675788
0.6000675757
0.6000675726
0.6000675697
0.6000675675
0.600067606
0.6000676047
0.6000676031
0.6000676012
0.6000675991
0.6000675966
0.600067594
0.6000675912
0.6000675882
0.6000675852
0.600067582
0.6000675789
0.6000675759
0.6000675736
0.6000676064
0.6000676051
0.6000676033
0.6000676011
0.6000675985
0.6000675955
0.6000675924
0.600067589
0.6000675855
0.600067582
0.6000675785
0.6000675749
0.6000675715
0.6000675682
0.6000675657
0.6000676041
0.6000676017
0.6000675987
0.6000675952
0.6000675916
0.6000675878
0.6000675841
0.6000675804
0.6000675769
0.6000675734
0.6000675701
0.6000675669
0.6000675637
0.6000675609
0.6000675587
0.6000675968
0.6000675926
0.6000675874
0.6000675822
0.6000675773
0.6000675729
0.600067569
0.6000675655
0.6000675624
0.6000675596
0.6000675569
0.6000675545
0.6000675521
0.60006755
0.6000675485
0.6000675735
0.6000675685
0.600067563
0.6000675585
0.6000675549
0.600067552
0.6000675498
0.6000675479
0.6000675462
0.6000675447
0.6000675432
0.6000675419
0.6000675406
0.6000675398
0.6000675682
0.6000675596
0.6000675533
0.6000675494
0.6000675468
0.600067545
0.6000675436
0.6000675425
0.6000675415
0.6000675405
0.6000675395
0.6000675385
0.6000675376
0.6000675371
0.6000675775
0.6000675715
0.6000675661
0.6000675617
0.6000675582
0.6000675553
0.6000675529
0.6000675509
0.6000675491
0.6000675474
0.6000675458
0.6000675443
0.6000675429
0.6000675421
0.6000675923
0.600067588
0.6000675837
0.6000675796
0.6000675758
0.6000675723
0.6000675691
0.6000675661
0.6000675633
0.6000675607
0.6000675582
0.6000675558
0.6000675536
0.6000675522
0.6000676012
0.6000675986
0.6000675957
0.6000675926
0.6000675894
0.6000675862
0.6000675829
0.6000675797
0.6000675766
0.6000675735
0.6000675704
0.6000675674
0.6000675647
0.6000675627
0.6000676048
0.6000676031
0.6000676011
0.6000675989
0.6000675963
0.6000675936
0.6000675907
0.6000675876
0.6000675845
0.6000675813
0.6000675782
0.600067575
0.600067572
0.6000675698
0.600067606
0.6000676046
0.6000676027
0.6000676002
0.6000675974
0.6000675943
0.600067591
0.6000675875
0.600067584
0.6000675804
0.6000675769
0.6000675733
0.6000675699
0.6000675667
0.6000675642
0.6000676033
0.6000676005
0.6000675971
0.6000675933
0.6000675894
0.6000675855
0.6000675817
0.6000675781
0.6000675746
0.6000675712
0.6000675679
0.6000675648
0.6000675618
0.600067559
0.600067557
0.6000675954
0.6000675899
0.6000675837
0.6000675779
0.6000675728
0.6000675685
0.6000675648
0.6000675616
0.6000675588
0.6000675562
0.6000675539
0.6000675517
0.6000675496
0.6000675477
0.6000675464
0.6000675788
0.6000675733
0.6000675628
0.6000675554
0.6000675508
0.6000675479
0.6000675458
0.6000675443
0.600067543
0.6000675419
0.6000675409
0.6000675399
0.6000675388
0.6000675379
0.6000675374
0.6000675622
0.6000675493
0.6000675431
0.6000675402
0.6000675389
0.6000675382
0.6000675378
0.6000675374
0.600067537
0.6000675366
0.600067536
0.6000675354
0.6000675349
0.6000675346
0.6000675679
0.600067564
0.6000675597
0.600067556
0.6000675531
0.6000675507
0.6000675488
0.6000675471
0.6000675457
0.6000675443
0.6000675431
0.6000675418
0.6000675407
0.60006754
0.6000675874
0.6000675839
0.6000675801
0.6000675763
0.6000675727
0.6000675694
0.6000675664
0.6000675636
0.6000675609
0.6000675585
0.6000675561
0.6000675539
0.6000675519
0.6000675506
0.6000675995
0.6000675968
0.6000675939
0.6000675909
0.6000675877
0.6000675845
0.6000675813
0.6000675782
0.6000675751
0.600067572
0.600067569
0.6000675661
0.6000675634
0.6000675615
0.6000676041
0.6000676023
0.6000676003
0.6000675979
0.6000675953
0.6000675926
0.6000675896
0.6000675866
0.6000675835
0.6000675803
0.6000675771
0.600067574
0.6000675711
0.6000675689
0.6000676064
0.6000676052
0.6000676035
0.6000676013
0.6000675988
0.6000675959
0.6000675929
0.6000675896
0.6000675862
0.6000675828
0.6000675793
0.6000675759
0.6000675725
0.6000675693
0.6000675669
0.6000676043
0.600067602
0.6000675991
0.6000675959
0.6000675924
0.6000675888
0.6000675852
0.6000675816
0.6000675781
0.6000675748
0.6000675715
0.6000675683
0.6000675652
0.6000675624
0.6000675603
0.6000675987
0.6000675944
0.6000675893
0.6000675843
0.6000675796
0.6000675753
0.6000675714
0.600067568
0.6000675648
0.6000675619
0.6000675593
0.6000675567
0.6000675544
0.6000675522
0.6000675507
0.600067589
0.6000675824
0.6000675751
0.6000675689
0.600067564
0.60006756
0.6000675568
0.6000675542
0.6000675519
0.60006755
0.6000675482
0.6000675465
0.6000675449
0.6000675435
0.6000675426
0.6000675801
0.6000675749
0.6000675683
0.6000675625
0.6000675579
0.6000675545
0.6000675517
0.6000675496
0.6000675478
0.6000675462
0.6000675448
0.6000675434
0.6000675421
0.600067541
0.6000675403
0.6000675876
0.6000675824
0.6000675771
0.6000675722
0.6000675678
0.6000675641
0.6000675608
0.600067558
0.6000675556
0.6000675534
0.6000675514
0.6000675495
0.6000675477
0.6000675462
0.6000675452
0.6000675913
0.6000675888
0.6000675856
0.6000675822
0.6000675787
0.6000675754
0.6000675722
0.6000675692
0.6000675663
0.6000675636
0.600067561
0.6000675585
0.6000675563
0.6000675547
0.6000676008
0.6000675986
0.6000675962
0.6000675935
0.6000675906
0.6000675876
0.6000675846
0.6000675815
0.6000675784
0.6000675754
0.6000675724
0.6000675694
0.6000675667
0.6000675647
0.6000676046
0.6000676031
0.6000676013
0.6000675992
0.6000675969
0.6000675943
0.6000675916
0.6000675887
0.6000675858
0.6000675827
0.6000675796
0.6000675766
0.6000675737
0.6000675715
0.6000676071
0.6000676062
0.600067605
0.6000676034
0.6000676015
0.6000675992
0.6000675966
0.6000675938
0.6000675909
0.6000675877
0.6000675845
0.6000675812
0.6000675779
0.6000675748
0.6000675723
0.6000676059
0.6000676044
0.6000676025
0.6000676001
0.6000675975
0.6000675946
0.6000675915
0.6000675883
0.6000675851
0.6000675818
0.6000675786
0.6000675754
0.6000675722
0.6000675692
0.600067567
0.6000676031
0.6000676005
0.6000675972
0.6000675937
0.60006759
0.6000675863
0.6000675827
0.6000675792
0.6000675759
0.6000675727
0.6000675696
0.6000675666
0.6000675638
0.6000675612
0.6000675593
0.6000675987
0.6000675947
0.6000675903
0.6000675858
0.6000675815
0.6000675774
0.6000675737
0.6000675704
0.6000675673
0.6000675643
0.6000675616
0.600067559
0.6000675566
0.6000675544
0.6000675528
0.6000675953
0.6000675913
0.6000675871
0.6000675827
0.6000675784
0.6000675744
0.6000675708
0.6000675676
0.6000675646
0.6000675618
0.6000675592
0.6000675568
0.6000675545
0.6000675524
0.6000675511
0.6000675988
0.6000675952
0.6000675913
0.6000675874
0.6000675835
0.6000675797
0.6000675762
0.6000675728
0.6000675697
0.6000675668
0.600067564
0.6000675614
0.6000675589
0.6000675566
0.600067555
0.6000676024
0.6000676
0.6000675973
0.6000675945
0.6000675915
0.6000675884
0.6000675852
0.6000675821
0.600067579
0.6000675759
0.6000675729
0.60006757
0.6000675672
0.6000675646
0.6000675627
0.6000676037
0.6000676022
0.6000676003
0.6000675981
0.6000675957
0.6000675932
0.6000675904
0.6000675876
0.6000675847
0.6000675817
0.6000675787
0.6000675757
0.6000675729
0.6000675708
0.6000676058
0.6000676047
0.6000676033
0.6000676017
0.6000675998
0.6000675977
0.6000675953
0.6000675928
0.6000675901
0.6000675873
0.6000675844
0.6000675814
0.6000675786
0.6000675764
0.6000676076
0.6000676071
0.6000676063
0.6000676052
0.6000676038
0.6000676022
0.6000676002
0.6000675979
0.6000675954
0.6000675927
0.6000675898
0.6000675868
0.6000675836
0.6000675806
0.6000675782
0.6000676071
0.6000676062
0.600067605
0.6000676035
0.6000676017
0.6000675995
0.6000675971
0.6000675945
0.6000675917
0.6000675888
0.6000675857
0.6000675826
0.6000675794
0.6000675764
0.6000675741
0.6000676059
0.6000676045
0.6000676026
0.6000676004
0.6000675978
0.6000675951
0.6000675921
0.6000675891
0.600067586
0.6000675828
0.6000675797
0.6000675765
0.6000675734
0.6000675704
0.6000675682
0.6000676042
0.6000676022
0.6000675997
0.6000675968
0.6000675938
0.6000675906
0.6000675873
0.600067584
0.6000675808
0.6000675775
0.6000675744
0.6000675713
0.6000675683
0.6000675655
0.6000675634
0.6000676032
0.600067601
0.6000675984
0.6000675954
0.6000675923
0.600067589
0.6000675857
0.6000675824
0.6000675792
0.600067576
0.6000675729
0.6000675698
0.6000675668
0.6000675641
0.6000675621
0.6000676043
0.6000676024
0.6000676001
0.6000675975
0.6000675947
0.6000675916
0.6000675885
0.6000675854
0.6000675822
0.6000675791
0.600067576
0.6000675729
0.6000675699
0.6000675672
0.6000675651
0.6000676058
0.6000676045
0.6000676028
0.6000676008
0.6000675986
0.6000675962
0.6000675936
0.6000675908
0.6000675879
0.600067585
0.600067582
0.600067579
0.600067576
0.6000675731
0.600067571
0.6000676069
0.6000676061
0.600067605
0.6000676037
0.6000676021
0.6000676002
0.6000675982
0.6000675959
0.6000675934
0.6000675908
0.600067588
0.6000675851
0.6000675822
0.6000675794
0.6000675772
0.6000676069
0.6000676061
0.6000676052
0.600067604
0.6000676026
0.6000676009
0.6000675989
0.6000675968
0.6000675944
0.6000675919
0.6000675892
0.6000675864
0.6000675837
0.6000675816
0.6000676079
0.6000676075
0.600067607
0.6000676062
0.6000676052
0.6000676039
0.6000676023
0.6000676004
0.6000675982
0.6000675958
0.6000675932
0.6000675904
0.6000675874
0.6000675845
0.6000675822
0.6000676076
0.6000676071
0.6000676063
0.6000676053
0.6000676039
0.6000676023
0.6000676004
0.6000675982
0.6000675957
0.6000675931
0.6000675903
0.6000675873
0.6000675842
0.6000675813
0.6000675789
0.6000676071
0.6000676062
0.6000676051
0.6000676036
0.6000676018
0.6000675997
0.6000675973
0.6000675947
0.6000675919
0.600067589
0.6000675859
0.6000675828
0.6000675796
0.6000675766
0.6000675743
0.6000676064
0.6000676052
0.6000676037
0.6000676018
0.6000675996
0.6000675972
0.6000675944
0.6000675915
0.6000675885
0.6000675854
0.6000675822
0.600067579
0.6000675758
0.6000675728
0.6000675705
0.600067606
0.6000676048
0.6000676031
0.6000676012
0.6000675989
0.6000675963
0.6000675935
0.6000675906
0.6000675875
0.6000675844
0.6000675812
0.6000675779
0.6000675748
0.6000675718
0.6000675696
0.6000676064
0.6000676053
0.6000676039
0.6000676021
0.6000676001
0.6000675977
0.6000675952
0.6000675924
0.6000675895
0.6000675865
0.6000675834
0.6000675803
0.6000675771
0.6000675742
0.600067572
0.6000676071
0.6000676063
0.6000676052
0.6000676038
0.6000676022
0.6000676003
0.6000675982
0.6000675958
0.6000675932
0.6000675905
0.6000675877
0.6000675847
0.6000675817
0.6000675789
0.6000675767
0.6000676076
0.6000676071
0.6000676063
0.6000676054
0.6000676042
0.6000676027
0.600067601
0.6000675991
0.6000675969
0.6000675946
0.600067592
0.6000675893
0.6000675865
0.6000675838
0.6000675817
0.6000676079
0.6000676075
0.6000676069
0.6000676062
0.6000676053
0.6000676042
0.6000676028
0.6000676012
0.6000675993
0.6000675972
0.6000675949
0.6000675925
0.6000675898
0.6000675873
0.6000675852
)
;

boundaryField
{
    top
    {
        type            calculated;
        value           nonuniform List<scalar> 
127
(
0.6000676079
0.6000676074
0.6000676069
0.600067606
0.6000676048
0.6000676041
0.6000676046
0.6000676058
0.6000676069
0.6000676075
0.6000676069
0.6000676061
0.6000676047
0.6000676031
0.6000676023
0.6000676031
0.6000676047
0.6000676061
0.6000676069
0.600067606
0.600067605
0.6000676031
0.6000676011
0.6000676003
0.6000676013
0.6000676033
0.6000676052
0.6000676062
0.600067605
0.6000676036
0.6000676012
0.6000675989
0.6000675979
0.6000675992
0.6000676017
0.600067604
0.6000676053
0.6000676036
0.6000676019
0.6000675991
0.6000675963
0.6000675953
0.6000675969
0.6000675998
0.6000676026
0.6000676042
0.6000676019
0.6000675999
0.6000675966
0.6000675936
0.6000675926
0.6000675943
0.6000675977
0.6000676009
0.6000676028
0.6000676
0.6000675977
0.600067594
0.6000675907
0.6000675896
0.6000675916
0.6000675953
0.6000675989
0.6000676012
0.6000675978
0.6000675952
0.6000675912
0.6000675876
0.6000675866
0.6000675887
0.6000675928
0.6000675968
0.6000675993
0.6000675954
0.6000675925
0.6000675882
0.6000675845
0.6000675835
0.6000675858
0.6000675901
0.6000675944
0.6000675972
0.6000675927
0.6000675897
0.6000675852
0.6000675813
0.6000675803
0.6000675827
0.6000675873
0.6000675919
0.6000675949
0.6000675898
0.6000675867
0.600067582
0.6000675782
0.6000675771
0.6000675796
0.6000675844
0.6000675892
0.6000675925
0.6000675869
0.6000675836
0.6000675789
0.600067575
0.600067574
0.6000675766
0.6000675814
0.6000675864
0.6000675898
0.6000675839
0.6000675806
0.6000675759
0.600067572
0.6000675711
0.6000675737
0.6000675786
0.6000675837
0.6000675873
0.6000675816
0.6000675783
0.6000675736
0.6000675698
0.6000675689
0.6000675715
0.6000675764
0.6000675816
0.6000675852
)
;
    }
    bottom
    {
        type            calculated;
        value           nonuniform List<scalar> 
134
(
0.6000676075
0.600067607
0.6000676064
0.600067606
0.6000676064
0.6000676071
0.6000676076
0.6000676079
0.6000676074
0.600067607
0.6000676061
0.6000676051
0.6000676046
0.6000676052
0.6000676062
0.6000676071
0.6000676075
0.6000676068
0.6000676061
0.6000676048
0.6000676033
0.6000676027
0.6000676035
0.600067605
0.6000676063
0.600067607
0.600067606
0.600067605
0.6000676031
0.6000676011
0.6000676002
0.6000676013
0.6000676034
0.6000676052
0.6000676062
0.6000676049
0.6000676035
0.600067601
0.6000675985
0.6000675974
0.6000675988
0.6000676015
0.6000676038
0.6000676052
0.6000676035
0.6000676017
0.6000675986
0.6000675955
0.6000675943
0.6000675959
0.6000675992
0.6000676022
0.6000676039
0.6000676017
0.6000675995
0.6000675959
0.6000675924
0.600067591
0.6000675929
0.6000675966
0.6000676002
0.6000676023
0.6000675997
0.6000675971
0.600067593
0.600067589
0.6000675875
0.6000675896
0.6000675938
0.6000675979
0.6000676004
0.6000675973
0.6000675944
0.6000675898
0.6000675855
0.600067584
0.6000675862
0.6000675909
0.6000675954
0.6000675982
0.6000675947
0.6000675914
0.6000675865
0.600067582
0.6000675804
0.6000675828
0.6000675877
0.6000675927
0.6000675958
0.6000675918
0.6000675883
0.6000675831
0.6000675785
0.6000675769
0.6000675793
0.6000675845
0.6000675898
0.6000675932
0.6000675887
0.6000675851
0.6000675797
0.6000675749
0.6000675733
0.6000675759
0.6000675812
0.6000675868
0.6000675904
0.6000675855
0.6000675817
0.6000675762
0.6000675715
0.6000675699
0.6000675725
0.6000675779
0.6000675836
0.6000675874
0.6000675823
0.6000675785
0.6000675729
0.6000675682
0.6000675667
0.6000675693
0.6000675748
0.6000675806
0.6000675845
0.6000675797
0.6000675759
0.6000675704
0.6000675657
0.6000675642
0.6000675669
0.6000675723
0.6000675782
0.6000675822
)
;
    }
    side-walls
    {
        type            calculated;
        value           nonuniform List<scalar> 
261
(
0.6000676074
0.6000676069
0.6000676059
0.6000676048
0.6000676042
0.6000676048
0.600067606
0.6000676069
0.6000676074
0.6000676068
0.600067606
0.6000676046
0.600067603
0.6000676022
0.6000676031
0.6000676047
0.6000676061
0.6000676069
0.600067606
0.6000676049
0.6000676029
0.6000676007
0.6000675997
0.6000676009
0.6000676031
0.600067605
0.600067606
0.6000676049
0.6000676034
0.6000676008
0.6000675981
0.6000675969
0.6000675983
0.600067601
0.6000676035
0.600067605
0.6000676035
0.6000676016
0.6000675984
0.6000675951
0.6000675937
0.6000675954
0.6000675987
0.6000676018
0.6000676036
0.6000676017
0.6000675994
0.6000675957
0.600067592
0.6000675904
0.6000675923
0.6000675961
0.6000675998
0.6000676019
0.6000675997
0.600067597
0.6000675927
0.6000675886
0.6000675869
0.600067589
0.6000675933
0.6000675975
0.6000676
0.6000675973
0.6000675943
0.6000675896
0.6000675851
0.6000675834
0.6000675856
0.6000675903
0.6000675949
0.6000675978
0.6000675947
0.6000675914
0.6000675863
0.6000675816
0.6000675799
0.6000675822
0.6000675871
0.6000675922
0.6000675954
0.6000675918
0.6000675883
0.6000675829
0.6000675781
0.6000675763
0.6000675787
0.6000675839
0.6000675892
0.6000675927
0.6000675887
0.600067585
0.6000675795
0.6000675746
0.6000675728
0.6000675753
0.6000675806
0.6000675862
0.6000675898
0.6000675855
0.6000675817
0.600067576
0.6000675711
0.6000675694
0.6000675719
0.6000675773
0.600067583
0.6000675869
0.6000675823
0.6000675784
0.6000675728
0.6000675679
0.6000675662
0.6000675687
0.6000675741
0.60006758
0.6000675839
0.6000675797
0.6000675758
0.6000675702
0.6000675653
0.6000675637
0.6000675663
0.6000675717
0.6000675775
0.6000675816
0.6000676079
0.6000676076
0.6000676071
0.6000676064
0.600067606
0.6000676064
0.6000676071
0.6000676076
0.6000676079
0.6000676075
0.6000676071
0.6000676062
0.6000676052
0.6000676048
0.6000676053
0.6000676063
0.6000676071
0.6000676075
0.600067607
0.6000676063
0.6000676051
0.6000676037
0.6000676031
0.6000676039
0.6000676052
0.6000676063
0.6000676069
0.6000676062
0.6000676053
0.6000676036
0.6000676018
0.6000676012
0.6000676021
0.6000676038
0.6000676054
0.6000676062
0.6000676052
0.6000676039
0.6000676018
0.6000675996
0.6000675989
0.6000676001
0.6000676022
0.6000676042
0.6000676053
0.6000676039
0.6000676023
0.6000675997
0.6000675972
0.6000675963
0.6000675977
0.6000676003
0.6000676027
0.6000676042
0.6000676023
0.6000676004
0.6000675973
0.6000675944
0.6000675935
0.6000675952
0.6000675982
0.600067601
0.6000676028
0.6000676004
0.6000675982
0.6000675947
0.6000675915
0.6000675906
0.6000675924
0.6000675958
0.6000675991
0.6000676012
0.6000675982
0.6000675957
0.6000675919
0.6000675885
0.6000675875
0.6000675895
0.6000675932
0.6000675969
0.6000675993
0.6000675958
0.6000675931
0.600067589
0.6000675854
0.6000675844
0.6000675865
0.6000675905
0.6000675946
0.6000675972
0.6000675932
0.6000675903
0.6000675859
0.6000675822
0.6000675812
0.6000675834
0.6000675877
0.600067592
0.6000675949
0.6000675904
0.6000675873
0.6000675828
0.600067579
0.6000675779
0.6000675803
0.6000675847
0.6000675893
0.6000675925
0.6000675874
0.6000675842
0.6000675796
0.6000675758
0.6000675748
0.6000675771
0.6000675817
0.6000675865
0.6000675898
0.6000675845
0.6000675813
0.6000675766
0.6000675728
0.6000675718
0.6000675742
0.6000675789
0.6000675838
0.6000675873
0.6000675822
0.6000675789
0.6000675743
0.6000675705
0.6000675696
0.600067572
0.6000675767
0.6000675817
0.6000675852
)
;
    }
    inlet
    {
        type            calculated;
        value           nonuniform 0();
    }
    outlet
    {
        type            calculated;
        value           nonuniform List<scalar> 
81
(
0.6000675797
0.6000675758
0.6000675702
0.6000675653
0.6000675637
0.6000675663
0.6000675717
0.6000675775
0.6000675816
0.6000675759
0.6000675712
0.6000675643
0.6000675584
0.6000675565
0.6000675597
0.6000675663
0.6000675734
0.6000675783
0.6000675704
0.6000675645
0.6000675558
0.6000675484
0.600067546
0.6000675501
0.6000675585
0.6000675675
0.6000675736
0.6000675657
0.6000675587
0.6000675485
0.6000675398
0.6000675371
0.6000675421
0.6000675522
0.6000675627
0.6000675698
0.6000675642
0.600067557
0.6000675464
0.6000675374
0.6000675346
0.60006754
0.6000675506
0.6000675615
0.6000675689
0.6000675669
0.6000675603
0.6000675507
0.6000675426
0.6000675403
0.6000675452
0.6000675547
0.6000675647
0.6000675715
0.6000675723
0.600067567
0.6000675593
0.6000675528
0.6000675511
0.600067555
0.6000675627
0.6000675708
0.6000675764
0.6000675782
0.6000675741
0.6000675682
0.6000675634
0.6000675621
0.6000675651
0.600067571
0.6000675772
0.6000675816
0.6000675822
0.6000675789
0.6000675743
0.6000675705
0.6000675696
0.600067572
0.6000675767
0.6000675817
0.6000675852
)
;
    }
    procBoundary1to0
    {
        type            processor;
        value           nonuniform List<scalar> 
97
(
0.6000676079
0.6000676079
0.6000676076
0.6000676071
0.6000676066
0.6000676064
0.6000676067
0.6000676072
0.6000676077
0.6000676079
0.6000676081
0.6000676069
0.6000676069
0.6000676069
0.6000676059
0.6000676048
0.6000676047
0.6000676051
0.6000676063
0.6000676072
0.6000676077
0.6000676078
0.6000676073
0.6000676025
0.6000676025
0.6000676025
0.6000676003
0.6000676031
0.6000676018
0.6000676042
0.6000676063
0.6000676072
0.6000676075
0.6000676065
0.6000676044
0.6000675893
0.6000675893
0.6000675893
0.600067633
0.6000676012
0.6000676017
0.600067605
0.6000676066
0.6000676073
0.600067606
0.6000676027
0.6000676006
0.6000680288
0.6000680288
0.6000680288
0.6000676305
0.6000676305
0.6000676025
0.6000676045
0.6000676063
0.6000676074
0.6000676064
0.6000676038
0.6000675993
0.6000675982
0.6000676009
0.6000675975
0.6000675975
0.6000675975
0.6000676044
0.6000676065
0.6000676078
0.6000676072
0.6000676059
0.6000676037
0.6000676023
0.600067604
0.600067606
0.6000676056
0.6000676056
0.6000676056
0.6000676071
0.600067608
0.6000676078
0.6000676072
0.6000676064
0.6000676059
0.6000676065
0.6000676072
0.6000676078
0.6000676075
0.6000676075
0.6000676075
0.6000676082
0.600067608
0.6000676078
0.6000676074
0.6000676073
0.6000676075
0.6000676078
0.600067608
0.6000676082
)
;
    }
}


// ************************************************************************* //
