/*--------------------------------*- C++ -*----------------------------------*\
| =========                 |                                                 |
| \\      /  F ield         | OpenFOAM: The Open Source CFD Toolbox           |
|  \\    /   O peration     | Version:  4.x                                   |
|   \\  /    A nd           | Web:      www.OpenFOAM.org                      |
|    \\/     M anipulation  |                                                 |
\*---------------------------------------------------------------------------*/
FoamFile
{
    version     2.0;
    format      ascii;
    class       volScalarField;
    location    "10000";
    object      CO2;
}
// * * * * * * * * * * * * * * * * * * * * * * * * * * * * * * * * * * * * * //

dimensions      [0 0 0 0 0 0 0];

internalField   nonuniform List<scalar> 
1175
(
0.06498133906
0.06498133906
0.06498133907
0.06498133907
0.06498133908
0.06498133913
0.06498133929
0.06498133979
0.06498134135
0.06498134597
0.06498135889
0.06498139261
0.06498147366
0.06498165004
0.06498199237
0.06498133906
0.06498133906
0.06498133907
0.06498133907
0.06498133909
0.06498133915
0.06498133936
0.06498134005
0.06498134229
0.06498134916
0.06498136916
0.06498142347
0.06498155842
0.06498185841
0.06498244053
0.06498133906
0.06498133906
0.06498133907
0.06498133907
0.0649813391
0.06498133918
0.06498133948
0.06498134052
0.064981344
0.0649813552
0.06498138938
0.06498148654
0.06498173817
0.06498231366
0.06498343272
0.06498133906
0.06498133907
0.06498133907
0.06498133907
0.0649813391
0.06498133921
0.06498133961
0.06498134101
0.0649813459
0.06498136225
0.06498141422
0.06498156851
0.0649819854
0.06498297135
0.0649849016
0.06498133906
0.06498133907
0.06498133907
0.06498133908
0.06498133911
0.06498133923
0.06498133966
0.06498134125
0.06498134684
0.0649813659
0.06498142792
0.06498161733
0.06498214557
0.06498343343
0.06498598526
0.06498133906
0.06498133907
0.06498133907
0.06498133907
0.0649813391
0.06498133921
0.06498133961
0.06498134101
0.0649813459
0.06498136225
0.06498141422
0.06498156851
0.06498198539
0.06498297135
0.06498490159
0.06498133906
0.06498133906
0.06498133907
0.06498133907
0.0649813391
0.06498133918
0.06498133948
0.06498134052
0.064981344
0.0649813552
0.06498138938
0.06498148654
0.06498173816
0.06498231364
0.0649834327
0.06498133906
0.06498133906
0.06498133907
0.06498133907
0.06498133909
0.06498133915
0.06498133936
0.06498134005
0.06498134229
0.06498134916
0.06498136916
0.06498142347
0.06498155842
0.0649818584
0.0649824405
0.06498133906
0.06498133906
0.06498133907
0.06498133907
0.06498133908
0.06498133913
0.06498133929
0.06498133979
0.06498134135
0.06498134597
0.06498135889
0.06498139261
0.06498147366
0.06498165003
0.06498199234
0.06498133906
0.06498133906
0.06498133907
0.06498133907
0.06498133909
0.06498133915
0.06498133936
0.06498134005
0.06498134229
0.06498134916
0.06498136916
0.06498142347
0.06498155843
0.06498185842
0.06498133906
0.06498133906
0.06498133907
0.06498133907
0.06498133909
0.06498133918
0.06498133946
0.06498134047
0.06498134386
0.06498135485
0.06498138863
0.06498148551
0.06498173847
0.06498232056
0.06498345335
0.06498133906
0.06498133907
0.06498133907
0.06498133908
0.06498133911
0.06498133922
0.06498133966
0.06498134124
0.0649813469
0.06498136634
0.06498142998
0.06498162458
0.06498216486
0.0649834687
0.06498603118
0.06498133906
0.06498133907
0.06498133907
0.06498133908
0.06498133912
0.06498133927
0.06498133986
0.06498134212
0.06498135053
0.06498138096
0.06498148653
0.06498183086
0.06498285376
0.06498547778
0.06499075948
0.06498133907
0.06498133907
0.06498133907
0.06498133908
0.06498133912
0.06498133929
0.06498133996
0.06498134256
0.06498135245
0.06498138936
0.06498152233
0.06498197738
0.06498341145
0.06498734067
0.0649956067
0.06498133906
0.06498133907
0.06498133907
0.06498133908
0.06498133912
0.06498133927
0.06498133986
0.06498134212
0.06498135053
0.06498138096
0.06498148653
0.06498183086
0.06498285375
0.06498547774
0.0649907594
0.06498133906
0.06498133907
0.06498133907
0.06498133908
0.06498133911
0.06498133922
0.06498133966
0.06498134124
0.0649813469
0.06498136634
0.06498142998
0.06498162457
0.06498216484
0.06498346865
0.06498603107
0.06498133906
0.06498133906
0.06498133907
0.06498133907
0.06498133909
0.06498133918
0.06498133946
0.06498134047
0.06498134386
0.06498135485
0.06498138863
0.06498148551
0.06498173846
0.06498232052
0.06498345327
0.06498133906
0.06498133906
0.06498133907
0.06498133907
0.06498133909
0.06498133915
0.06498133936
0.06498134005
0.06498134229
0.06498134916
0.06498136916
0.06498142347
0.06498155842
0.0649818584
0.0649824405
0.06498133906
0.06498133906
0.06498133907
0.06498133907
0.0649813391
0.06498133918
0.06498133948
0.06498134052
0.064981344
0.0649813552
0.06498138938
0.06498148655
0.06498173817
0.06498231368
0.06498133906
0.06498133907
0.06498133907
0.06498133908
0.06498133911
0.06498133922
0.06498133966
0.06498134124
0.0649813469
0.06498136634
0.06498142998
0.06498162458
0.06498216487
0.06498346874
0.06498133907
0.06498133907
0.06498133907
0.06498133908
0.06498133912
0.0649813393
0.06498133999
0.06498134266
0.06498135283
0.06498139043
0.06498152377
0.0649819678
0.06498331155
0.06498680718
0.06499387283
0.06498133907
0.06498133907
0.06498133907
0.06498133908
0.06498133914
0.06498133938
0.06498134036
0.06498134436
0.06498136046
0.06498142416
0.06498166832
0.06498255782
0.06498553425
0.06499411378
0.06501260402
0.06498133907
0.06498133907
0.06498133907
0.06498133908
0.06498133915
0.06498133942
0.06498134055
0.06498134526
0.06498136491
0.06498144605
0.06498177547
0.06498307056
0.06498786031
0.06500351954
0.06504176298
0.06498133907
0.06498133907
0.06498133907
0.06498133908
0.06498133914
0.06498133938
0.06498134036
0.06498134436
0.06498136046
0.06498142416
0.06498166831
0.0649825578
0.06498553417
0.06499411355
0.06501260347
0.06498133907
0.06498133907
0.06498133907
0.06498133908
0.06498133912
0.0649813393
0.06498133999
0.06498134266
0.06498135283
0.06498139043
0.06498152377
0.06498196778
0.06498331148
0.06498680699
0.06499387235
0.06498133906
0.06498133907
0.06498133907
0.06498133908
0.06498133911
0.06498133922
0.06498133966
0.06498134124
0.0649813469
0.06498136634
0.06498142998
0.06498162457
0.06498216484
0.06498346865
0.06498603107
0.06498133906
0.06498133906
0.06498133907
0.06498133907
0.0649813391
0.06498133918
0.06498133948
0.06498134052
0.064981344
0.0649813552
0.06498138938
0.06498148654
0.06498173816
0.06498231364
0.06498343269
0.06498133906
0.06498133907
0.06498133907
0.06498133907
0.0649813391
0.06498133921
0.06498133961
0.06498134101
0.0649813459
0.06498136225
0.06498141422
0.06498156851
0.06498198541
0.0649829714
0.06498133907
0.06498133907
0.06498133907
0.06498133908
0.06498133912
0.06498133927
0.06498133986
0.06498134212
0.06498135053
0.06498138096
0.06498148654
0.06498183088
0.0649828538
0.0649854779
0.06498133907
0.06498133907
0.06498133907
0.06498133908
0.06498133914
0.06498133938
0.06498134036
0.06498134436
0.06498136046
0.06498142416
0.06498166833
0.06498255784
0.06498553433
0.06499411409
0.06498133907
0.06498133907
0.06498133907
0.06498133909
0.06498133917
0.0649813395
0.06498134095
0.0649813472
0.06498137424
0.0649814907
0.06498198524
0.06498402264
0.06499191375
0.06501880565
0.065086316
0.06498133907
0.06498133907
0.06498133907
0.06498133909
0.06498133918
0.06498133956
0.06498134126
0.06498134883
0.0649813831
0.06498154
0.06498226518
0.06498562477
0.06500094247
0.06506643944
0.06528958433
0.06498133907
0.06498133907
0.06498133907
0.06498133909
0.06498133917
0.0649813395
0.06498134095
0.0649813472
0.06498137424
0.0649814907
0.06498198523
0.06498402257
0.06499191351
0.06501880476
0.06508631324
0.06498133907
0.06498133907
0.06498133907
0.06498133908
0.06498133914
0.06498133938
0.06498134036
0.06498134436
0.06498136046
0.06498142416
0.06498166832
0.0649825578
0.06498553419
0.0649941136
0.06501260355
0.06498133906
0.06498133907
0.06498133907
0.06498133908
0.06498133912
0.06498133927
0.06498133986
0.06498134212
0.06498135053
0.06498138096
0.06498148653
0.06498183086
0.06498285374
0.06498547772
0.06499075936
0.06498133906
0.06498133907
0.06498133907
0.06498133907
0.0649813391
0.06498133921
0.06498133961
0.06498134101
0.0649813459
0.06498136225
0.06498141422
0.06498156851
0.06498198539
0.06498297134
0.06498490157
0.06498133906
0.06498133907
0.06498133907
0.06498133908
0.06498133911
0.06498133923
0.06498133966
0.06498134125
0.06498134684
0.0649813659
0.06498142793
0.06498161734
0.06498214559
0.06498343348
0.06498133907
0.06498133907
0.06498133907
0.06498133908
0.06498133912
0.06498133929
0.06498133996
0.06498134256
0.06498135245
0.06498138936
0.06498152234
0.06498197739
0.0649834115
0.06498734081
0.06498133907
0.06498133907
0.06498133907
0.06498133908
0.06498133915
0.06498133942
0.06498134055
0.06498134526
0.06498136491
0.06498144605
0.06498177548
0.06498307059
0.06498786044
0.06500352005
0.06498133907
0.06498133907
0.06498133907
0.06498133909
0.06498133918
0.06498133956
0.06498134126
0.06498134883
0.0649813831
0.06498154
0.06498226519
0.06498562481
0.06500094277
0.06506644146
0.06498133907
0.06498133907
0.06498133907
0.06498133909
0.06498133919
0.06498133963
0.06498134164
0.06498135099
0.06498139575
0.06498161822
0.06498277716
0.06498917675
0.06502702783
0.06526849195
0.06693757219
0.06498133907
0.06498133907
0.06498133907
0.06498133909
0.06498133918
0.06498133956
0.06498134126
0.06498134883
0.0649813831
0.06498154
0.06498226518
0.06498562476
0.06500094246
0.06506643943
0.06528958434
0.06498133907
0.06498133907
0.06498133907
0.06498133908
0.06498133915
0.06498133942
0.06498134055
0.06498134526
0.06498136491
0.06498144605
0.06498177547
0.06498307055
0.06498786029
0.06500351948
0.06504176282
0.06498133907
0.06498133907
0.06498133907
0.06498133908
0.06498133912
0.06498133929
0.06498133996
0.06498134256
0.06498135245
0.06498138935
0.06498152233
0.06498197737
0.06498341143
0.06498734061
0.06499560658
0.06498133906
0.06498133907
0.06498133907
0.06498133908
0.06498133911
0.06498133923
0.06498133966
0.06498134125
0.06498134684
0.0649813659
0.06498142792
0.06498161733
0.06498214557
0.06498343341
0.06498598522
0.06498133906
0.06498133907
0.06498133907
0.06498133907
0.0649813391
0.06498133921
0.06498133961
0.06498134101
0.0649813459
0.06498136225
0.06498141422
0.06498156851
0.06498198541
0.06498297139
0.06498133907
0.06498133907
0.06498133907
0.06498133908
0.06498133912
0.06498133927
0.06498133986
0.06498134212
0.06498135053
0.06498138096
0.06498148654
0.06498183087
0.06498285379
0.06498547785
0.06498133907
0.06498133907
0.06498133907
0.06498133908
0.06498133914
0.06498133938
0.06498134036
0.06498134436
0.06498136046
0.06498142416
0.06498166832
0.06498255783
0.0649855343
0.06499411394
0.06498133907
0.06498133907
0.06498133907
0.06498133909
0.06498133917
0.0649813395
0.06498134095
0.0649813472
0.06498137424
0.0649814907
0.06498198524
0.06498402264
0.06499191378
0.06501880578
0.06498133907
0.06498133907
0.06498133907
0.06498133909
0.06498133918
0.06498133956
0.06498134126
0.06498134883
0.0649813831
0.06498154
0.06498226519
0.06498562483
0.06500094284
0.06506644161
0.06498133907
0.06498133907
0.06498133907
0.06498133909
0.06498133917
0.0649813395
0.06498134095
0.0649813472
0.06498137424
0.0649814907
0.06498198525
0.06498402264
0.0649919138
0.0650188059
0.06498133907
0.06498133907
0.06498133907
0.06498133908
0.06498133914
0.06498133938
0.06498134036
0.06498134436
0.06498136046
0.06498142416
0.06498166832
0.06498255782
0.06498553427
0.06499411386
0.06501260428
0.06498133906
0.06498133907
0.06498133907
0.06498133908
0.06498133912
0.06498133927
0.06498133986
0.06498134212
0.06498135053
0.06498138096
0.06498148653
0.06498183086
0.06498285376
0.06498547778
0.06499075949
0.06498133906
0.06498133907
0.06498133907
0.06498133907
0.0649813391
0.06498133921
0.06498133961
0.06498134101
0.0649813459
0.06498136225
0.06498141422
0.06498156851
0.0649819854
0.06498297135
0.0649849016
0.06498133906
0.06498133906
0.06498133907
0.06498133907
0.0649813391
0.06498133918
0.06498133948
0.06498134052
0.064981344
0.0649813552
0.06498138938
0.06498148655
0.06498173817
0.06498231367
0.06498133906
0.06498133907
0.06498133907
0.06498133908
0.06498133911
0.06498133922
0.06498133966
0.06498134124
0.0649813469
0.06498136634
0.06498142998
0.06498162458
0.06498216487
0.06498346871
0.06498133907
0.06498133907
0.06498133907
0.06498133908
0.06498133912
0.0649813393
0.06498133999
0.06498134266
0.06498135283
0.06498139043
0.06498152377
0.0649819678
0.06498331155
0.06498680715
0.06498133907
0.06498133907
0.06498133907
0.06498133908
0.06498133914
0.06498133938
0.06498134036
0.06498134436
0.06498136046
0.06498142416
0.06498166832
0.06498255783
0.0649855343
0.06499411392
0.06498133907
0.06498133907
0.06498133907
0.06498133908
0.06498133915
0.06498133942
0.06498134055
0.06498134526
0.06498136491
0.06498144605
0.06498177548
0.0649830706
0.0649878605
0.06500352016
0.06498133907
0.06498133907
0.06498133907
0.06498133908
0.06498133914
0.06498133938
0.06498134036
0.06498134436
0.06498136046
0.06498142416
0.06498166833
0.06498255784
0.06498553432
0.06499411399
0.06498133907
0.06498133907
0.06498133907
0.06498133908
0.06498133912
0.0649813393
0.06498133999
0.06498134266
0.06498135283
0.06498139043
0.06498152377
0.06498196781
0.06498331156
0.06498680721
0.06498133906
0.06498133907
0.06498133907
0.06498133908
0.06498133911
0.06498133922
0.06498133966
0.06498134125
0.0649813469
0.06498136634
0.06498142998
0.06498162458
0.06498216486
0.06498346871
0.06498603122
0.06498133906
0.06498133906
0.06498133907
0.06498133907
0.0649813391
0.06498133918
0.06498133948
0.06498134052
0.064981344
0.0649813552
0.06498138938
0.06498148654
0.06498173817
0.06498231366
0.06498343273
0.06498133906
0.06498133906
0.06498133907
0.06498133907
0.06498133909
0.06498133915
0.06498133936
0.06498134005
0.06498134229
0.06498134916
0.06498136916
0.06498142347
0.06498155842
0.06498185841
0.06498133906
0.06498133906
0.06498133907
0.06498133907
0.06498133909
0.06498133918
0.06498133946
0.06498134047
0.06498134386
0.06498135485
0.06498138863
0.06498148551
0.06498173847
0.06498232055
0.06498133906
0.06498133907
0.06498133907
0.06498133908
0.06498133911
0.06498133922
0.06498133966
0.06498134125
0.0649813469
0.06498136634
0.06498142998
0.06498162458
0.06498216487
0.06498346872
0.06498133907
0.06498133907
0.06498133907
0.06498133908
0.06498133912
0.06498133927
0.06498133986
0.06498134212
0.06498135053
0.06498138096
0.06498148654
0.06498183087
0.06498285379
0.06498547785
0.06498133907
0.06498133907
0.06498133907
0.06498133908
0.06498133912
0.06498133929
0.06498133996
0.06498134256
0.06498135246
0.06498138936
0.06498152234
0.0649819774
0.06498341151
0.06498734081
0.06498133906
0.06498133907
0.06498133907
0.06498133908
0.06498133912
0.06498133927
0.06498133986
0.06498134212
0.06498135053
0.06498138096
0.06498148654
0.06498183087
0.0649828538
0.06498547787
0.06498133906
0.06498133907
0.06498133907
0.06498133908
0.06498133911
0.06498133922
0.06498133966
0.06498134125
0.0649813469
0.06498136634
0.06498142998
0.06498162458
0.06498216487
0.06498346872
0.06498133906
0.06498133906
0.06498133907
0.06498133907
0.06498133909
0.06498133918
0.06498133946
0.06498134047
0.06498134386
0.06498135485
0.06498138863
0.06498148551
0.06498173847
0.06498232056
0.06498133906
0.06498133906
0.06498133907
0.06498133907
0.06498133909
0.06498133915
0.06498133936
0.06498134005
0.06498134229
0.06498134916
0.06498136916
0.06498142347
0.06498155842
0.06498185842
0.06498244054
0.06498133906
0.06498133906
0.06498133907
0.06498133907
0.06498133908
0.06498133913
0.06498133929
0.06498133979
0.06498134135
0.06498134597
0.06498135889
0.06498139261
0.06498147366
0.06498165004
0.06498133906
0.06498133906
0.06498133907
0.06498133907
0.06498133909
0.06498133915
0.06498133936
0.06498134005
0.06498134229
0.06498134916
0.06498136916
0.06498142347
0.06498155843
0.06498185842
0.06498133906
0.06498133906
0.06498133907
0.06498133907
0.0649813391
0.06498133918
0.06498133948
0.06498134052
0.064981344
0.0649813552
0.06498138938
0.06498148655
0.06498173817
0.06498231367
0.06498133906
0.06498133907
0.06498133907
0.06498133907
0.0649813391
0.06498133921
0.06498133961
0.06498134101
0.0649813459
0.06498136225
0.06498141422
0.06498156851
0.06498198541
0.06498297139
0.06498133906
0.06498133907
0.06498133907
0.06498133908
0.06498133911
0.06498133923
0.06498133966
0.06498134125
0.06498134684
0.0649813659
0.06498142793
0.06498161734
0.0649821456
0.06498343348
0.06498133906
0.06498133907
0.06498133907
0.06498133907
0.0649813391
0.06498133921
0.06498133961
0.06498134101
0.0649813459
0.06498136225
0.06498141422
0.06498156851
0.06498198541
0.06498297139
0.06498133906
0.06498133906
0.06498133907
0.06498133907
0.0649813391
0.06498133918
0.06498133948
0.06498134052
0.064981344
0.0649813552
0.06498138938
0.06498148655
0.06498173817
0.06498231367
0.06498133906
0.06498133906
0.06498133907
0.06498133907
0.06498133909
0.06498133915
0.06498133936
0.06498134005
0.06498134229
0.06498134916
0.06498136916
0.06498142347
0.06498155842
0.06498185842
0.06498133906
0.06498133906
0.06498133907
0.06498133907
0.06498133908
0.06498133913
0.06498133929
0.06498133979
0.06498134135
0.06498134597
0.06498135889
0.06498139261
0.06498147366
0.06498165004
)
;

boundaryField
{
    top
    {
        type            zeroGradient;
    }
    bottom
    {
        type            zeroGradient;
    }
    side-walls
    {
        type            zeroGradient;
    }
    inlet
    {
        type            zeroGradient;
    }
    outlet
    {
        type            zeroGradient;
    }
    procBoundary0to1
    {
        type            processor;
        value           nonuniform List<scalar> 
97
(
0.06498258084
0.06498244055
0.06498341293
0.06498523082
0.06498785713
0.06498970209
0.06498785711
0.06498523078
0.06498341288
0.06498258081
0.06498244055
0.06498244055
0.06498525837
0.06498603126
0.06498984315
0.06499786586
0.0650053036
0.06499786574
0.064989843
0.06498525827
0.06498341289
0.06498343275
0.06498603126
0.06498603126
0.06500317454
0.06501260459
0.0650323527
0.06506990903
0.06503235206
0.06500317397
0.06498984299
0.06498523077
0.06498490165
0.06499075966
0.06501260459
0.06501260459
0.06513096911
0.06528958538
0.06532125382
0.06513096703
0.06503235212
0.06499786566
0.06498785706
0.06498598531
0.06499560684
0.06504176337
0.06528958538
0.06528958538
0.06613021373
0.06528958548
0.06532125364
0.06508631465
0.06506990873
0.06500530337
0.064989702
0.06498490164
0.06499075951
0.06501260395
0.06508631416
0.06528958548
0.06508631465
0.06508631465
0.06503235269
0.06499387276
0.0649978658
0.0649878571
0.06498343272
0.06498603114
0.06499387254
0.06501260388
0.06504176352
0.06501260401
0.06499387276
0.06499387276
0.06498984314
0.06498345334
0.06498523082
0.06498244051
0.0649834533
0.06498603114
0.0649907595
0.06499560681
0.06499075953
0.06498603117
0.06498345334
0.06498345334
0.06498341293
0.06498199236
0.06498199235
0.06498244052
0.06498343272
0.06498490162
0.0649859853
0.06498490162
0.06498343272
0.06498244052
0.06498199236
)
;
    }
}


// ************************************************************************* //
