/*--------------------------------*- C++ -*----------------------------------*\
| =========                 |                                                 |
| \\      /  F ield         | OpenFOAM: The Open Source CFD Toolbox           |
|  \\    /   O peration     | Version:  4.x                                   |
|   \\  /    A nd           | Web:      www.OpenFOAM.org                      |
|    \\/     M anipulation  |                                                 |
\*---------------------------------------------------------------------------*/
FoamFile
{
    version     2.0;
    format      ascii;
    class       volScalarField;
    location    "10000";
    object      Cpv;
}
// * * * * * * * * * * * * * * * * * * * * * * * * * * * * * * * * * * * * * //

dimensions      [0 2 -2 -1 0 0 0];

internalField   nonuniform List<scalar> 
1175
(
1277.533082
1277.533057
1277.533073
1277.533089
1277.533074
1277.533071
1277.533087
1277.533097
1277.533085
1277.53308
1277.533071
1277.533061
1277.533063
1277.533047
1277.533004
1277.533659
1277.533676
1277.533691
1277.533684
1277.533681
1277.53368
1277.533684
1277.533704
1277.533704
1277.533693
1277.533718
1277.533691
1277.533661
1277.533651
1277.533612
1277.532773
1277.532793
1277.532798
1277.532811
1277.532789
1277.532779
1277.532784
1277.532785
1277.532765
1277.532759
1277.532722
1277.532713
1277.532698
1277.532629
1277.532499
1277.532646
1277.532671
1277.532688
1277.532685
1277.532684
1277.532704
1277.532698
1277.532717
1277.532726
1277.532733
1277.532737
1277.53272
1277.532687
1277.532563
1277.53235
1277.533256
1277.533243
1277.533246
1277.53325
1277.53325
1277.533262
1277.533258
1277.533236
1277.533235
1277.533231
1277.533226
1277.533198
1277.533143
1277.532975
1277.532662
1277.533183
1277.533188
1277.533207
1277.533193
1277.533199
1277.533191
1277.533189
1277.533202
1277.533189
1277.533208
1277.533228
1277.533199
1277.533143
1277.533019
1277.532817
1277.533209
1277.533224
1277.533215
1277.533168
1277.533206
1277.533205
1277.533201
1277.533203
1277.533179
1277.533188
1277.533183
1277.533159
1277.533126
1277.533069
1277.532942
1277.532635
1277.532605
1277.532624
1277.532623
1277.532628
1277.53263
1277.532629
1277.532629
1277.532636
1277.532615
1277.532605
1277.532611
1277.532566
1277.532556
1277.532473
1277.532993
1277.533005
1277.533011
1277.533003
1277.532998
1277.532987
1277.532979
1277.532976
1277.532975
1277.532962
1277.532977
1277.532953
1277.532972
1277.532909
1277.532882
1277.533763
1277.533738
1277.533761
1277.533743
1277.533757
1277.533739
1277.533747
1277.533766
1277.533752
1277.533726
1277.533722
1277.533721
1277.533714
1277.533687
1277.533238
1277.533242
1277.533232
1277.533205
1277.533204
1277.533196
1277.533215
1277.533238
1277.533244
1277.533232
1277.533228
1277.533221
1277.533207
1277.533126
1277.532998
1277.53274
1277.532697
1277.532698
1277.532688
1277.532681
1277.532663
1277.532638
1277.532634
1277.532628
1277.532633
1277.532655
1277.53266
1277.5326
1277.532443
1277.53216
1277.533105
1277.533094
1277.533101
1277.533073
1277.533077
1277.53308
1277.533065
1277.533073
1277.53307
1277.533055
1277.53306
1277.532995
1277.532851
1277.532545
1277.531923
1277.534402
1277.534408
1277.53441
1277.534397
1277.534392
1277.5344
1277.534418
1277.534438
1277.534441
1277.534447
1277.534412
1277.534363
1277.534219
1277.533737
1277.532755
1277.534147
1277.534157
1277.534174
1277.534161
1277.534169
1277.534156
1277.534203
1277.534224
1277.534229
1277.53424
1277.534224
1277.534192
1277.534072
1277.53379
1277.533187
1277.533455
1277.533447
1277.533426
1277.533431
1277.53342
1277.533381
1277.533376
1277.533356
1277.533343
1277.533345
1277.533353
1277.533339
1277.533299
1277.533139
1277.532816
1277.532731
1277.532732
1277.532744
1277.532735
1277.532729
1277.53272
1277.532695
1277.532682
1277.532676
1277.53266
1277.532621
1277.532632
1277.532587
1277.532521
1277.532378
1277.533764
1277.533755
1277.533756
1277.533742
1277.533768
1277.533767
1277.533802
1277.533812
1277.533828
1277.533831
1277.533826
1277.53381
1277.533783
1277.533765
1277.533692
1277.532576
1277.53257
1277.532578
1277.532578
1277.532565
1277.532577
1277.532589
1277.532581
1277.532591
1277.532603
1277.532597
1277.53259
1277.532537
1277.532474
1277.532501
1277.532527
1277.532533
1277.532489
1277.53249
1277.532466
1277.532483
1277.532479
1277.532484
1277.532519
1277.532488
1277.532465
1277.53238
1277.532237
1277.533757
1277.533737
1277.533735
1277.533759
1277.533745
1277.533716
1277.533726
1277.533702
1277.533726
1277.533707
1277.533708
1277.533659
1277.53352
1277.533117
1277.532284
1277.532322
1277.532362
1277.532362
1277.53239
1277.532416
1277.532421
1277.532411
1277.532432
1277.532424
1277.532433
1277.532416
1277.532324
1277.531946
1277.530939
1277.528787
1277.533744
1277.53373
1277.533691
1277.533699
1277.533714
1277.533722
1277.533725
1277.533712
1277.53371
1277.533727
1277.533675
1277.533487
1277.532937
1277.531103
1277.526606
1277.532124
1277.532109
1277.532108
1277.532136
1277.532138
1277.532107
1277.532107
1277.532126
1277.532089
1277.532083
1277.532069
1277.531954
1277.531604
1277.530612
1277.528432
1277.531849
1277.531878
1277.531879
1277.531865
1277.531887
1277.531889
1277.531892
1277.53189
1277.531906
1277.531896
1277.531911
1277.531854
1277.531706
1277.531294
1277.530454
1277.533913
1277.533917
1277.533897
1277.533881
1277.5339
1277.533942
1277.533931
1277.533919
1277.533904
1277.533903
1277.533874
1277.533851
1277.533781
1277.533642
1277.533329
1277.533399
1277.533427
1277.53344
1277.533456
1277.533459
1277.533443
1277.533427
1277.533428
1277.533435
1277.533443
1277.533432
1277.533411
1277.533382
1277.533309
1277.53318
1277.532288
1277.532285
1277.532294
1277.532279
1277.532294
1277.532318
1277.532293
1277.532315
1277.532297
1277.532279
1277.532303
1277.532284
1277.532253
1277.532127
1277.53438
1277.53439
1277.534393
1277.534401
1277.534397
1277.534401
1277.53438
1277.534391
1277.534406
1277.534408
1277.534364
1277.534319
1277.534203
1277.533884
1277.534303
1277.53428
1277.53428
1277.534263
1277.534238
1277.534221
1277.534246
1277.534236
1277.534263
1277.534258
1277.534226
1277.534129
1277.533784
1277.532776
1277.534809
1277.534783
1277.534774
1277.534743
1277.534743
1277.534716
1277.534725
1277.534698
1277.534701
1277.534696
1277.534676
1277.534427
1277.533509
1277.530383
1277.522484
1277.533363
1277.533345
1277.533359
1277.533335
1277.533348
1277.53335
1277.533366
1277.533348
1277.533357
1277.533315
1277.533217
1277.532842
1277.531015
1277.523316
1277.49699
1277.532222
1277.53222
1277.532217
1277.532212
1277.532233
1277.532207
1277.532209
1277.532182
1277.532195
1277.532185
1277.532124
1277.531889
1277.530964
1277.527789
1277.519878
1277.533591
1277.533599
1277.533562
1277.533572
1277.5336
1277.533599
1277.533598
1277.533614
1277.533596
1277.533586
1277.533562
1277.533466
1277.533113
1277.532121
1277.529958
1277.532801
1277.532787
1277.532818
1277.532802
1277.532806
1277.5328
1277.532788
1277.532792
1277.53278
1277.532783
1277.532794
1277.532753
1277.532662
1277.532362
1277.531724
1277.533553
1277.533557
1277.533554
1277.533551
1277.533519
1277.533539
1277.533545
1277.533517
1277.533544
1277.53354
1277.53352
1277.53348
1277.533424
1277.533305
1277.533083
1277.533168
1277.533169
1277.533178
1277.533159
1277.533176
1277.533182
1277.533199
1277.533184
1277.533203
1277.533222
1277.533198
1277.533196
1277.533153
1277.532992
1277.534357
1277.534339
1277.534325
1277.534315
1277.534299
1277.534298
1277.534297
1277.534253
1277.534219
1277.534206
1277.534194
1277.534107
1277.533961
1277.533497
1277.533333
1277.533339
1277.533335
1277.533365
1277.533372
1277.533367
1277.533345
1277.533348
1277.53334
1277.533334
1277.533326
1277.533163
1277.532598
1277.530779
1277.533182
1277.533173
1277.533175
1277.533141
1277.533159
1277.533138
1277.533148
1277.533168
1277.53317
1277.533132
1277.533041
1277.532648
1277.530837
1277.523158
1277.533448
1277.533475
1277.533461
1277.533473
1277.53347
1277.533494
1277.533494
1277.533497
1277.533461
1277.533431
1277.533315
1277.532575
1277.528153
1277.499846
1276.827032
1277.532988
1277.532986
1277.532974
1277.532933
1277.53291
1277.532902
1277.532917
1277.532932
1277.532936
1277.53291
1277.532874
1277.532451
1277.530684
1277.523023
1277.496685
1277.532413
1277.532389
1277.53241
1277.532396
1277.532383
1277.532381
1277.53237
1277.532396
1277.532378
1277.532373
1277.532362
1277.532237
1277.531682
1277.529852
1277.525333
1277.532272
1277.532259
1277.532278
1277.532272
1277.532267
1277.532261
1277.532259
1277.532235
1277.53221
1277.532202
1277.532199
1277.532132
1277.531967
1277.531482
1277.530536
1277.532879
1277.532868
1277.532848
1277.532858
1277.532863
1277.532874
1277.53287
1277.532858
1277.532851
1277.532832
1277.53283
1277.532815
1277.532763
1277.5326
1277.532281
1277.534111
1277.534115
1277.534107
1277.534126
1277.534145
1277.534124
1277.534113
1277.534127
1277.534156
1277.53416
1277.534139
1277.534133
1277.534095
1277.533969
1277.533249
1277.533257
1277.533258
1277.533276
1277.533263
1277.533245
1277.533207
1277.533192
1277.533188
1277.53319
1277.533189
1277.533126
1277.533028
1277.532719
1277.533462
1277.533474
1277.533486
1277.533484
1277.53349
1277.533487
1277.533518
1277.533532
1277.533526
1277.533552
1277.533529
1277.533423
1277.533102
1277.532094
1277.533018
1277.533006
1277.532988
1277.533007
1277.532997
1277.533012
1277.533014
1277.53299
1277.533
1277.532993
1277.532936
1277.53272
1277.531785
1277.528645
1277.533742
1277.533741
1277.533729
1277.533736
1277.533743
1277.533748
1277.533738
1277.533735
1277.53374
1277.533734
1277.533664
1277.533263
1277.531465
1277.523793
1277.53444
1277.534456
1277.534458
1277.534488
1277.534496
1277.534505
1277.534499
1277.534506
1277.534483
1277.534462
1277.534378
1277.534142
1277.53321
1277.530046
1277.533149
1277.533168
1277.533172
1277.533171
1277.533181
1277.533181
1277.533202
1277.533208
1277.533214
1277.533209
1277.533176
1277.533068
1277.532746
1277.531744
1277.529606
1277.532521
1277.532524
1277.532537
1277.532565
1277.532567
1277.532564
1277.532546
1277.53253
1277.532521
1277.532511
1277.532514
1277.532453
1277.532335
1277.532004
1277.531403
1277.533304
1277.533301
1277.533309
1277.533302
1277.533292
1277.533309
1277.533312
1277.533323
1277.533326
1277.533322
1277.533309
1277.533294
1277.533215
1277.533115
1277.532895
1277.532691
1277.532681
1277.532686
1277.532695
1277.532691
1277.532678
1277.532656
1277.532656
1277.532647
1277.532648
1277.532633
1277.532643
1277.532622
1277.532571
1277.533439
1277.533443
1277.53342
1277.533431
1277.533434
1277.533447
1277.533446
1277.533458
1277.533463
1277.533438
1277.533461
1277.533465
1277.533428
1277.533258
1277.532475
1277.532486
1277.532512
1277.532532
1277.532508
1277.532536
1277.532514
1277.532526
1277.532512
1277.532501
1277.53248
1277.532414
1277.532263
1277.531844
1277.532222
1277.532216
1277.532245
1277.532251
1277.532261
1277.53227
1277.532248
1277.532252
1277.532203
1277.532183
1277.532193
1277.532064
1277.531751
1277.530748
1277.534644
1277.534634
1277.534594
1277.534583
1277.534573
1277.534574
1277.534551
1277.534584
1277.534594
1277.534585
1277.534535
1277.534363
1277.533754
1277.53194
1277.533321
1277.533329
1277.53329
1277.533299
1277.533287
1277.533281
1277.533262
1277.53327
1277.53326
1277.533267
1277.533238
1277.533124
1277.532791
1277.53179
1277.533605
1277.533607
1277.533594
1277.533584
1277.533575
1277.533583
1277.533571
1277.533577
1277.533587
1277.53358
1277.533568
1277.533504
1277.533348
1277.532958
1277.533584
1277.533582
1277.533578
1277.533558
1277.533546
1277.533524
1277.533564
1277.533586
1277.533571
1277.533594
1277.533547
1277.53352
1277.533447
1277.533309
1277.53299
1277.532937
1277.532923
1277.53293
1277.532929
1277.532935
1277.532958
1277.532957
1277.532944
1277.532952
1277.532953
1277.532932
1277.532957
1277.532896
1277.532843
1277.532706
1277.532534
1277.532544
1277.532544
1277.532545
1277.532537
1277.532556
1277.532557
1277.532555
1277.532556
1277.532553
1277.532581
1277.532602
1277.532539
1277.53251
1277.532672
1277.532655
1277.532654
1277.532645
1277.532664
1277.532675
1277.532691
1277.532684
1277.532712
1277.532726
1277.532717
1277.532659
1277.532614
1277.532532
1277.533879
1277.533878
1277.533893
1277.533908
1277.533927
1277.533923
1277.533942
1277.533956
1277.533944
1277.53395
1277.533978
1277.533951
1277.533899
1277.533718
1277.533671
1277.533678
1277.53368
1277.533682
1277.53367
1277.533689
1277.533682
1277.533685
1277.533666
1277.533632
1277.533628
1277.533586
1277.53349
1277.533167
1277.533407
1277.533421
1277.53344
1277.533449
1277.533435
1277.533425
1277.533468
1277.533491
1277.533493
1277.533492
1277.5335
1277.533432
1277.533233
1277.532776
1277.533793
1277.533788
1277.533769
1277.533749
1277.533777
1277.533783
1277.533791
1277.533793
1277.533783
1277.533792
1277.53377
1277.533742
1277.533637
1277.533334
1277.532488
1277.532499
1277.532509
1277.532499
1277.532508
1277.532528
1277.532517
1277.532545
1277.532553
1277.532527
1277.532522
1277.532505
1277.532437
1277.5323
1277.533026
1277.533022
1277.533042
1277.53304
1277.533064
1277.533087
1277.533093
1277.533095
1277.533097
1277.533069
1277.533057
1277.533061
1277.533016
1277.532917
1277.533626
1277.533631
1277.533644
1277.533649
1277.533662
1277.533626
1277.533626
1277.533628
1277.533636
1277.533633
1277.533629
1277.533616
1277.533612
1277.533552
1277.533501
1277.532948
1277.532951
1277.532943
1277.532937
1277.532912
1277.532915
1277.53291
1277.532924
1277.532918
1277.532902
1277.532888
1277.532882
1277.532876
1277.532851
1277.533556
1277.533559
1277.533569
1277.533584
1277.533605
1277.533591
1277.533579
1277.53357
1277.53355
1277.533536
1277.533516
1277.533538
1277.533546
1277.533513
1277.533356
1277.53336
1277.533368
1277.533357
1277.533358
1277.533348
1277.533346
1277.533342
1277.533327
1277.533319
1277.533318
1277.533265
1277.53326
1277.533188
1277.533381
1277.533378
1277.533377
1277.533356
1277.533404
1277.533387
1277.533386
1277.533406
1277.533418
1277.533421
1277.53341
1277.533402
1277.533352
1277.533247
1277.533378
1277.533368
1277.533354
1277.533348
1277.533344
1277.533329
1277.533335
1277.533342
1277.533355
1277.533338
1277.533327
1277.533312
1277.533239
1277.533037
1277.533119
1277.533131
1277.533145
1277.533134
1277.533129
1277.533129
1277.533109
1277.533094
1277.533083
1277.533088
1277.533073
1277.533038
1277.533008
1277.532892
1277.531559
1277.531576
1277.531577
1277.5316
1277.531583
1277.531576
1277.531553
1277.531568
1277.531577
1277.531574
1277.531581
1277.531565
1277.531556
1277.531487
1277.533152
1277.533149
1277.533125
1277.533144
1277.533152
1277.533149
1277.533161
1277.533171
1277.533172
1277.53317
1277.533162
1277.533145
1277.533143
1277.533106
1277.533181
1277.53317
1277.533189
1277.533192
1277.533212
1277.533201
1277.533196
1277.533209
1277.533201
1277.533203
1277.533189
1277.533188
1277.53317
1277.533169
)
;

boundaryField
{
    top
    {
        type            calculated;
        value           nonuniform List<scalar> 
134
(
1277.532993
1277.533764
1277.533399
1277.533553
1277.532879
1277.533304
1277.532937
1277.533626
1277.533181
1277.533005
1277.533755
1277.533427
1277.533557
1277.532868
1277.533301
1277.532923
1277.533631
1277.53317
1277.533011
1277.533756
1277.53344
1277.533554
1277.532848
1277.533309
1277.53293
1277.533644
1277.533189
1277.533003
1277.533742
1277.533456
1277.533551
1277.532858
1277.533302
1277.532929
1277.533649
1277.533192
1277.532998
1277.533768
1277.533459
1277.533519
1277.532863
1277.533292
1277.532935
1277.533662
1277.533212
1277.532987
1277.533767
1277.533443
1277.533539
1277.532874
1277.533309
1277.532958
1277.533626
1277.533201
1277.532979
1277.533802
1277.533427
1277.533545
1277.53287
1277.533312
1277.532957
1277.533626
1277.533196
1277.532976
1277.533812
1277.533428
1277.533517
1277.532858
1277.533323
1277.532944
1277.533628
1277.533209
1277.532975
1277.533828
1277.533435
1277.533544
1277.532851
1277.533326
1277.532952
1277.533636
1277.533201
1277.532962
1277.533831
1277.533443
1277.53354
1277.532832
1277.533322
1277.532953
1277.533633
1277.533203
1277.532977
1277.533826
1277.533432
1277.53352
1277.53283
1277.533309
1277.532932
1277.533629
1277.533189
1277.532953
1277.53381
1277.533411
1277.53348
1277.532815
1277.533294
1277.532957
1277.533616
1277.533188
1277.532972
1277.533783
1277.533382
1277.533424
1277.532763
1277.533215
1277.532896
1277.533612
1277.53317
1277.532909
1277.533765
1277.533309
1277.533305
1277.5326
1277.533115
1277.532843
1277.533552
1277.533169
1277.532882
1277.533692
1277.53318
1277.533083
1277.532281
1277.532895
1277.532706
1277.533501
)
;
    }
    bottom
    {
        type            calculated;
        value           nonuniform List<scalar> 
127
(
1277.533082
1277.533763
1277.532576
1277.532288
1277.533168
1277.534111
1277.532691
1277.532534
1277.532948
1277.533057
1277.533738
1277.53257
1277.532285
1277.533169
1277.534115
1277.532681
1277.532544
1277.532951
1277.533073
1277.533761
1277.532578
1277.532294
1277.533178
1277.534107
1277.532686
1277.532544
1277.532943
1277.533089
1277.533743
1277.532578
1277.532279
1277.533159
1277.534126
1277.532695
1277.532545
1277.532937
1277.533074
1277.533757
1277.532565
1277.532294
1277.533176
1277.534145
1277.532691
1277.532537
1277.532912
1277.533071
1277.533739
1277.532577
1277.532318
1277.533182
1277.534124
1277.532678
1277.532556
1277.532915
1277.533087
1277.533747
1277.532589
1277.532293
1277.533199
1277.534113
1277.532656
1277.532557
1277.53291
1277.533097
1277.533766
1277.532581
1277.532315
1277.533184
1277.534127
1277.532656
1277.532555
1277.532924
1277.533085
1277.533752
1277.532591
1277.532297
1277.533203
1277.534156
1277.532647
1277.532556
1277.532918
1277.53308
1277.533726
1277.532603
1277.532279
1277.533222
1277.53416
1277.532648
1277.532553
1277.532902
1277.533071
1277.533722
1277.532597
1277.532303
1277.533198
1277.534139
1277.532633
1277.532581
1277.532888
1277.533061
1277.533721
1277.53259
1277.532284
1277.533196
1277.534133
1277.532643
1277.532602
1277.532882
1277.533063
1277.533714
1277.532537
1277.532253
1277.533153
1277.534095
1277.532622
1277.532539
1277.532876
1277.533047
1277.533687
1277.532474
1277.532127
1277.532992
1277.533969
1277.532571
1277.53251
1277.532851
1277.533004
)
;
    }
    side-walls
    {
        type            calculated;
        value           nonuniform List<scalar> 
261
(
1277.533082
1277.533659
1277.532773
1277.532646
1277.533256
1277.533183
1277.533209
1277.532635
1277.532993
1277.533057
1277.533676
1277.532793
1277.532671
1277.533243
1277.533188
1277.533224
1277.532605
1277.533005
1277.533073
1277.533691
1277.532798
1277.532688
1277.533246
1277.533207
1277.533215
1277.532624
1277.533011
1277.533089
1277.533684
1277.532811
1277.532685
1277.53325
1277.533193
1277.533168
1277.532623
1277.533003
1277.533074
1277.533681
1277.532789
1277.532684
1277.53325
1277.533199
1277.533206
1277.532628
1277.532998
1277.533071
1277.53368
1277.532779
1277.532704
1277.533262
1277.533191
1277.533205
1277.53263
1277.532987
1277.533087
1277.533684
1277.532784
1277.532698
1277.533258
1277.533189
1277.533201
1277.532629
1277.532979
1277.533097
1277.533704
1277.532785
1277.532717
1277.533236
1277.533202
1277.533203
1277.532629
1277.532976
1277.533085
1277.533704
1277.532765
1277.532726
1277.533235
1277.533189
1277.533179
1277.532636
1277.532975
1277.53308
1277.533693
1277.532759
1277.532733
1277.533231
1277.533208
1277.533188
1277.532615
1277.532962
1277.533071
1277.533718
1277.532722
1277.532737
1277.533226
1277.533228
1277.533183
1277.532605
1277.532977
1277.533061
1277.533691
1277.532713
1277.53272
1277.533198
1277.533199
1277.533159
1277.532611
1277.532953
1277.533063
1277.533661
1277.532698
1277.532687
1277.533143
1277.533143
1277.533126
1277.532566
1277.532972
1277.533047
1277.533651
1277.532629
1277.532563
1277.532975
1277.533019
1277.533069
1277.532556
1277.532909
1277.533004
1277.533612
1277.532499
1277.53235
1277.532662
1277.532817
1277.532942
1277.532473
1277.532882
1277.532948
1277.533556
1277.533356
1277.533381
1277.533378
1277.533119
1277.531559
1277.533152
1277.533181
1277.532951
1277.533559
1277.53336
1277.533378
1277.533368
1277.533131
1277.531576
1277.533149
1277.53317
1277.532943
1277.533569
1277.533368
1277.533377
1277.533354
1277.533145
1277.531577
1277.533125
1277.533189
1277.532937
1277.533584
1277.533357
1277.533356
1277.533348
1277.533134
1277.5316
1277.533144
1277.533192
1277.532912
1277.533605
1277.533358
1277.533404
1277.533344
1277.533129
1277.531583
1277.533152
1277.533212
1277.532915
1277.533591
1277.533348
1277.533387
1277.533329
1277.533129
1277.531576
1277.533149
1277.533201
1277.53291
1277.533579
1277.533346
1277.533386
1277.533335
1277.533109
1277.531553
1277.533161
1277.533196
1277.532924
1277.53357
1277.533342
1277.533406
1277.533342
1277.533094
1277.531568
1277.533171
1277.533209
1277.532918
1277.53355
1277.533327
1277.533418
1277.533355
1277.533083
1277.531577
1277.533172
1277.533201
1277.532902
1277.533536
1277.533319
1277.533421
1277.533338
1277.533088
1277.531574
1277.53317
1277.533203
1277.532888
1277.533516
1277.533318
1277.53341
1277.533327
1277.533073
1277.531581
1277.533162
1277.533189
1277.532882
1277.533538
1277.533265
1277.533402
1277.533312
1277.533038
1277.531565
1277.533145
1277.533188
1277.532876
1277.533546
1277.53326
1277.533352
1277.533239
1277.533008
1277.531556
1277.533143
1277.53317
1277.532851
1277.533513
1277.533188
1277.533247
1277.533037
1277.532892
1277.531487
1277.533106
1277.533169
)
;
    }
    inlet
    {
        type            calculated;
        value           nonuniform List<scalar> 
81
(
1277.533082
1277.533659
1277.532773
1277.532646
1277.533256
1277.533183
1277.533209
1277.532635
1277.532993
1277.533763
1277.533238
1277.53274
1277.533105
1277.534402
1277.534147
1277.533455
1277.532731
1277.533764
1277.532576
1277.532501
1277.533757
1277.532322
1277.533744
1277.532124
1277.531849
1277.533913
1277.533399
1277.532288
1277.53438
1277.534303
1277.534809
1277.533363
1277.532222
1277.533591
1277.532801
1277.533553
1277.533168
1277.534357
1277.533333
1277.533182
1277.533448
1277.532988
1277.532413
1277.532272
1277.532879
1277.534111
1277.533249
1277.533462
1277.533018
1277.533742
1277.53444
1277.533149
1277.532521
1277.533304
1277.532691
1277.533439
1277.532475
1277.532222
1277.534644
1277.533321
1277.533605
1277.533584
1277.532937
1277.532534
1277.532672
1277.533879
1277.533671
1277.533407
1277.533793
1277.532488
1277.533026
1277.533626
1277.532948
1277.533556
1277.533356
1277.533381
1277.533378
1277.533119
1277.531559
1277.533152
1277.533181
)
;
    }
    outlet
    {
        type            calculated;
        value           nonuniform 0();
    }
    procBoundary0to1
    {
        type            processor;
        value           nonuniform List<scalar> 
97
(
1277.532936
1277.533628
1277.533494
1277.532264
1277.532003
1277.532242
1277.532474
1277.53275
1277.532363
1277.532796
1277.533628
1277.533628
1277.532784
1277.531916
1277.531698
1277.531091
1277.531644
1277.532321
1277.532408
1277.532156
1277.533603
1277.53233
1277.531916
1277.531916
1277.5312
1277.530615
1277.526447
1277.523334
1277.526102
1277.529353
1277.532894
1277.532942
1277.531875
1277.533254
1277.530615
1277.530615
1277.517285
1277.496847
1277.493275
1277.514649
1277.52765
1277.530898
1277.532718
1277.532704
1277.532519
1277.526312
1277.496847
1277.496847
1276.922362
1277.497472
1277.492998
1277.522144
1277.522054
1277.529411
1277.531857
1277.533763
1277.532116
1277.529913
1277.520755
1277.497472
1277.522144
1277.522144
1277.527285
1277.532146
1277.530577
1277.53256
1277.532423
1277.532961
1277.530989
1277.528581
1277.527466
1277.529625
1277.532146
1277.532146
1277.532544
1277.532808
1277.532474
1277.532443
1277.532395
1277.53344
1277.53258
1277.531743
1277.53272
1277.532011
1277.532808
1277.532808
1277.53342
1277.533119
1277.5328
1277.533455
1277.533044
1277.533016
1277.532743
1277.532659
1277.531338
1277.533049
1277.533119
)
;
    }
}


// ************************************************************************* //
