/*--------------------------------*- C++ -*----------------------------------*\
| =========                 |                                                 |
| \\      /  F ield         | OpenFOAM: The Open Source CFD Toolbox           |
|  \\    /   O peration     | Version:  4.x                                   |
|   \\  /    A nd           | Web:      www.OpenFOAM.org                      |
|    \\/     M anipulation  |                                                 |
\*---------------------------------------------------------------------------*/
FoamFile
{
    version     2.0;
    format      ascii;
    class       volScalarField;
    location    "10000";
    object      H2O;
}
// * * * * * * * * * * * * * * * * * * * * * * * * * * * * * * * * * * * * * //

dimensions      [0 0 0 0 0 0 0];

internalField   nonuniform List<scalar> 
1175
(
1.000043209e-05
1.000043314e-05
1.000043201e-05
1.000043378e-05
1.0000441e-05
1.000046297e-05
1.00005347e-05
1.000076698e-05
1.000148683e-05
1.000361684e-05
1.000957023e-05
1.002511366e-05
1.006247317e-05
1.014378262e-05
1.03016204e-05
1.000043284e-05
1.000043211e-05
1.000043219e-05
1.000043507e-05
1.000044361e-05
1.000047133e-05
1.00005674e-05
1.000088692e-05
1.000191619e-05
1.00050848e-05
1.001430384e-05
1.003933534e-05
1.010154014e-05
1.023982818e-05
1.050820285e-05
1.000043234e-05
1.000043261e-05
1.000043239e-05
1.000043446e-05
1.000044685e-05
1.000048536e-05
1.000062272e-05
1.000110167e-05
1.000270558e-05
1.000786947e-05
1.00236211e-05
1.006840361e-05
1.018438028e-05
1.044965186e-05
1.096554993e-05
1.000043352e-05
1.000043279e-05
1.000043319e-05
1.000043763e-05
1.000045142e-05
1.000049979e-05
1.00006816e-05
1.000133158e-05
1.000358518e-05
1.001111816e-05
1.003506698e-05
1.010617589e-05
1.029831965e-05
1.075277531e-05
1.164259042e-05
1.000043119e-05
1.000043186e-05
1.00004328e-05
1.000043728e-05
1.000045047e-05
1.000050496e-05
1.000070682e-05
1.000143773e-05
1.000401481e-05
1.001279732e-05
1.00413841e-05
1.012867662e-05
1.037213642e-05
1.096572998e-05
1.214204253e-05
1.000043263e-05
1.000043268e-05
1.000043273e-05
1.000043588e-05
1.000044998e-05
1.000049933e-05
1.000068051e-05
1.000133034e-05
1.000358493e-05
1.001111898e-05
1.003506691e-05
1.010617572e-05
1.029831696e-05
1.07527679e-05
1.164257058e-05
1.000043144e-05
1.000043198e-05
1.000043186e-05
1.000043546e-05
1.000044481e-05
1.000048528e-05
1.000062248e-05
1.000110037e-05
1.000270544e-05
1.000786893e-05
1.002361964e-05
1.006840106e-05
1.018437506e-05
1.044963713e-05
1.096551462e-05
1.000043107e-05
1.000043132e-05
1.000043105e-05
1.000043363e-05
1.000044097e-05
1.000046942e-05
1.000056577e-05
1.000088586e-05
1.000191571e-05
1.00050824e-05
1.001430126e-05
1.003933163e-05
1.010153278e-05
1.023980995e-05
1.050816593e-05
1.000043048e-05
1.000043112e-05
1.00004312e-05
1.000043305e-05
1.000043977e-05
1.000046154e-05
1.000053375e-05
1.000076643e-05
1.000148652e-05
1.000361561e-05
1.000956879e-05
1.00251124e-05
1.006246769e-05
1.014376782e-05
1.030158249e-05
1.000043128e-05
1.000043154e-05
1.000043231e-05
1.000043381e-05
1.000044265e-05
1.000047086e-05
1.000056708e-05
1.000088703e-05
1.000191644e-05
1.00050842e-05
1.001430434e-05
1.003933565e-05
1.010154633e-05
1.023985202e-05
1.000043237e-05
1.000043233e-05
1.000043262e-05
1.000043587e-05
1.000044595e-05
1.000048372e-05
1.00006171e-05
1.00010793e-05
1.000264193e-05
1.000770641e-05
1.002327749e-05
1.006792844e-05
1.018452797e-05
1.04528607e-05
1.09751311e-05
1.000043149e-05
1.000043238e-05
1.000043225e-05
1.000043547e-05
1.000045013e-05
1.000050524e-05
1.000070612e-05
1.000143771e-05
1.000404421e-05
1.001300406e-05
1.004233189e-05
1.013202054e-05
1.038104248e-05
1.098203903e-05
1.21633401e-05
1.000043219e-05
1.000043213e-05
1.000043307e-05
1.000043768e-05
1.000045589e-05
1.000052719e-05
1.000079987e-05
1.000184149e-05
1.000571614e-05
1.001973919e-05
1.006839466e-05
1.022708788e-05
1.069852989e-05
1.190797148e-05
1.434264929e-05
1.000043154e-05
1.000043057e-05
1.00004335e-05
1.000043892e-05
1.000045884e-05
1.000053748e-05
1.000084587e-05
1.000204055e-05
1.000660227e-05
1.002360706e-05
1.00848915e-05
1.029460685e-05
1.09555302e-05
1.276647194e-05
1.657657629e-05
1.000043197e-05
1.000043239e-05
1.000043367e-05
1.000043742e-05
1.000045557e-05
1.00005265e-05
1.000079885e-05
1.000183881e-05
1.000571377e-05
1.001973729e-05
1.006839338e-05
1.022708375e-05
1.069851748e-05
1.190792971e-05
1.434253445e-05
1.000043151e-05
1.000043106e-05
1.000043222e-05
1.000043583e-05
1.000045106e-05
1.000050479e-05
1.000070519e-05
1.000143617e-05
1.000404421e-05
1.001300383e-05
1.004233093e-05
1.013201702e-05
1.038102454e-05
1.098198115e-05
1.21631947e-05
1.000043068e-05
1.000043123e-05
1.000043158e-05
1.000043424e-05
1.000044493e-05
1.000048257e-05
1.000061574e-05
1.000107844e-05
1.000264238e-05
1.000770719e-05
1.002327756e-05
1.006792494e-05
1.018451312e-05
1.0452812e-05
1.097500036e-05
1.000043104e-05
1.000043242e-05
1.000043283e-05
1.000043456e-05
1.000044144e-05
1.000047028e-05
1.000056583e-05
1.000088622e-05
1.00019152e-05
1.000508291e-05
1.001430233e-05
1.003933251e-05
1.010153457e-05
1.023981233e-05
1.050816736e-05
1.000043216e-05
1.00004317e-05
1.000043188e-05
1.000043504e-05
1.000044609e-05
1.000048477e-05
1.000062356e-05
1.000110065e-05
1.000270524e-05
1.000786849e-05
1.002362275e-05
1.00684073e-05
1.018439973e-05
1.044971659e-05
1.000043176e-05
1.000043119e-05
1.000043197e-05
1.000043628e-05
1.000045041e-05
1.000050349e-05
1.000070415e-05
1.000143676e-05
1.000404327e-05
1.001300276e-05
1.004233289e-05
1.01320275e-05
1.038106888e-05
1.098214549e-05
1.000043086e-05
1.000043202e-05
1.00004339e-05
1.000043828e-05
1.000045896e-05
1.000053951e-05
1.0000857e-05
1.000208927e-05
1.00067754e-05
1.002410604e-05
1.008555956e-05
1.029020849e-05
1.090955264e-05
1.252083558e-05
1.577812788e-05
1.000043202e-05
1.000043203e-05
1.000043394e-05
1.000044018e-05
1.000046669e-05
1.000057652e-05
1.000102922e-05
1.000287025e-05
1.001029228e-05
1.003964669e-05
1.015217094e-05
1.056211143e-05
1.193388821e-05
1.588819638e-05
2.441115832e-05
1.000043036e-05
1.000043074e-05
1.000043346e-05
1.000044082e-05
1.000047061e-05
1.000059423e-05
1.000111426e-05
1.000328846e-05
1.001234241e-05
1.004973504e-05
1.020154652e-05
1.079839253e-05
1.300578856e-05
2.022262887e-05
3.784891243e-05
1.000043253e-05
1.000043159e-05
1.000043383e-05
1.000044036e-05
1.000046585e-05
1.000057746e-05
1.000102867e-05
1.000287022e-05
1.001029335e-05
1.003964535e-05
1.015216778e-05
1.056209666e-05
1.193382319e-05
1.588794485e-05
2.441041974e-05
1.000043204e-05
1.000043088e-05
1.000043304e-05
1.000043836e-05
1.000045802e-05
1.000053906e-05
1.000085687e-05
1.00020875e-05
1.00067735e-05
1.002410404e-05
1.008555433e-05
1.029019058e-05
1.090948374e-05
1.252058025e-05
1.577736871e-05
1.000043138e-05
1.000043098e-05
1.000043239e-05
1.00004363e-05
1.000045067e-05
1.000050273e-05
1.000070411e-05
1.00014368e-05
1.000404334e-05
1.001300226e-05
1.004233068e-05
1.013201822e-05
1.038102852e-05
1.098198582e-05
1.21631957e-05
1.000043185e-05
1.000043199e-05
1.000043205e-05
1.000043465e-05
1.000044587e-05
1.00004849e-05
1.000062302e-05
1.0001101e-05
1.000270488e-05
1.000786808e-05
1.00236209e-05
1.006840174e-05
1.018437769e-05
1.044964045e-05
1.096551583e-05
1.00004311e-05
1.000043119e-05
1.000043217e-05
1.000043653e-05
1.000044906e-05
1.000049941e-05
1.000068084e-05
1.000133055e-05
1.000358388e-05
1.001111808e-05
1.003506988e-05
1.010618734e-05
1.029835961e-05
1.075290154e-05
1.000043118e-05
1.000043146e-05
1.000043275e-05
1.000043741e-05
1.000045543e-05
1.000052664e-05
1.000079985e-05
1.000184021e-05
1.000571551e-05
1.001973875e-05
1.006839876e-05
1.022710889e-05
1.069861415e-05
1.190827447e-05
1.000043007e-05
1.000043176e-05
1.000043267e-05
1.000044015e-05
1.000046758e-05
1.000057745e-05
1.000102865e-05
1.000287072e-05
1.001029353e-05
1.003964798e-05
1.015217838e-05
1.056214601e-05
1.193404201e-05
1.588889851e-05
1.000043179e-05
1.000043257e-05
1.00004344e-05
1.00004428e-05
1.000047877e-05
1.000063287e-05
1.000129896e-05
1.000418048e-05
1.001664426e-05
1.007031218e-05
1.029822838e-05
1.123719158e-05
1.487401768e-05
2.726835321e-05
5.83862338e-05
1.000043127e-05
1.000043234e-05
1.000043501e-05
1.000044463e-05
1.00004846e-05
1.000066205e-05
1.000144157e-05
1.000493236e-05
1.002072633e-05
1.009303269e-05
1.04272269e-05
1.197547448e-05
1.903458346e-05
4.921883515e-05
0.0001520576192
1.000043232e-05
1.000043239e-05
1.000043426e-05
1.000044315e-05
1.000047855e-05
1.000063345e-05
1.000129924e-05
1.000418119e-05
1.001664495e-05
1.007031074e-05
1.029821927e-05
1.123714433e-05
1.487377712e-05
2.726716876e-05
5.83814164e-05
1.00004309e-05
1.000043228e-05
1.000043322e-05
1.000043998e-05
1.000046663e-05
1.000057674e-05
1.000102896e-05
1.000287028e-05
1.001029353e-05
1.003964731e-05
1.015217192e-05
1.056210846e-05
1.193386021e-05
1.588802179e-05
2.441048625e-05
1.000043189e-05
1.000043146e-05
1.000043171e-05
1.000043703e-05
1.000045458e-05
1.00005263e-05
1.000079976e-05
1.000183943e-05
1.000571541e-05
1.001973982e-05
1.006839476e-05
1.022709019e-05
1.069853011e-05
1.19079501e-05
1.434253697e-05
1.000043149e-05
1.000043111e-05
1.000043244e-05
1.00004353e-05
1.000044834e-05
1.000049824e-05
1.000068036e-05
1.000132973e-05
1.00035837e-05
1.001111728e-05
1.003506754e-05
1.010617897e-05
1.029832398e-05
1.075277658e-05
1.16425696e-05
1.000043104e-05
1.000043185e-05
1.000043241e-05
1.000043711e-05
1.000045084e-05
1.000050506e-05
1.00007071e-05
1.000143804e-05
1.000401454e-05
1.001279816e-05
1.004138861e-05
1.012869405e-05
1.03721946e-05
1.096590552e-05
1.00004296e-05
1.000043068e-05
1.000043248e-05
1.000043768e-05
1.000045829e-05
1.000053451e-05
1.000084466e-05
1.000204108e-05
1.000660277e-05
1.002360921e-05
1.008490009e-05
1.029464262e-05
1.09556692e-05
1.276696413e-05
1.000043215e-05
1.000043255e-05
1.000043311e-05
1.000044027e-05
1.000046983e-05
1.000059452e-05
1.000111414e-05
1.000328827e-05
1.001234342e-05
1.004973859e-05
1.020156327e-05
1.079847065e-05
1.300616534e-05
2.022433797e-05
1.000043205e-05
1.000043254e-05
1.00004348e-05
1.000044413e-05
1.000048324e-05
1.000065977e-05
1.000144066e-05
1.000493048e-05
1.002072477e-05
1.009303506e-05
1.042724566e-05
1.197559756e-05
1.903536212e-05
4.92240871e-05
1.00004326e-05
1.000043273e-05
1.000043477e-05
1.00004445e-05
1.000048979e-05
1.000069351e-05
1.000161913e-05
1.000592515e-05
1.002655516e-05
1.012908236e-05
1.066317297e-05
1.361237947e-05
3.105569112e-05
0.0001423316351
0.0009115067373
1.000043151e-05
1.000043152e-05
1.000043447e-05
1.000044386e-05
1.000048494e-05
1.000066104e-05
1.000144125e-05
1.000493191e-05
1.002072568e-05
1.00930343e-05
1.042723646e-05
1.197552889e-05
1.903482246e-05
4.921972363e-05
0.0001520584246
1.000043102e-05
1.000043231e-05
1.000043446e-05
1.000044141e-05
1.000047153e-05
1.000059542e-05
1.000111539e-05
1.000328938e-05
1.001234428e-05
1.004973826e-05
1.020155598e-05
1.079842012e-05
1.300588536e-05
2.02228714e-05
3.784903298e-05
1.000043248e-05
1.000043268e-05
1.000043307e-05
1.000043703e-05
1.000045762e-05
1.000053602e-05
1.000084386e-05
1.00020407e-05
1.000660354e-05
1.002361037e-05
1.008489473e-05
1.029461714e-05
1.095555773e-05
1.276652119e-05
1.657657315e-05
1.000043054e-05
1.000043097e-05
1.000043239e-05
1.000043549e-05
1.000045009e-05
1.000050381e-05
1.000070503e-05
1.000143704e-05
1.000401425e-05
1.001279758e-05
1.004138539e-05
1.012868228e-05
1.037214703e-05
1.096574698e-05
1.21420439e-05
1.000043119e-05
1.000043123e-05
1.000043208e-05
1.000043456e-05
1.000044776e-05
1.000049915e-05
1.000068113e-05
1.000132932e-05
1.000358438e-05
1.001111926e-05
1.003507196e-05
1.010619157e-05
1.029836755e-05
1.075290718e-05
1.000043152e-05
1.000043155e-05
1.00004326e-05
1.000043676e-05
1.000045392e-05
1.000052478e-05
1.000079913e-05
1.000184e-05
1.000571635e-05
1.001973977e-05
1.006840138e-05
1.022711597e-05
1.069862889e-05
1.190828119e-05
1.000043233e-05
1.000043263e-05
1.000043286e-05
1.000043867e-05
1.000046641e-05
1.000057676e-05
1.0001029e-05
1.00028706e-05
1.001029311e-05
1.003964889e-05
1.015218507e-05
1.056217021e-05
1.193411992e-05
1.588901742e-05
1.000043112e-05
1.000043146e-05
1.000043323e-05
1.000044192e-05
1.000047814e-05
1.000063219e-05
1.000129847e-05
1.000417981e-05
1.001664496e-05
1.007031589e-05
1.029824421e-05
1.123727277e-05
1.487439992e-05
2.726999313e-05
1.000043138e-05
1.000043212e-05
1.000043479e-05
1.000044356e-05
1.000048327e-05
1.000066083e-05
1.00014419e-05
1.000493311e-05
1.002072663e-05
1.009303862e-05
1.042725996e-05
1.197565728e-05
1.903561199e-05
4.922489853e-05
1.000043219e-05
1.000043185e-05
1.000043494e-05
1.000044229e-05
1.000047748e-05
1.000063275e-05
1.000129953e-05
1.000417938e-05
1.001664393e-05
1.00703159e-05
1.029824379e-05
1.123725733e-05
1.487430017e-05
2.726958366e-05
1.000043311e-05
1.000043333e-05
1.000043421e-05
1.000044127e-05
1.000046641e-05
1.00005768e-05
1.000102825e-05
1.000287038e-05
1.001029316e-05
1.003964852e-05
1.015218138e-05
1.056214783e-05
1.193400989e-05
1.588854478e-05
2.441211022e-05
1.000043194e-05
1.000043179e-05
1.000043265e-05
1.000043623e-05
1.000045424e-05
1.000052588e-05
1.000080062e-05
1.000184022e-05
1.000571618e-05
1.001974021e-05
1.006839771e-05
1.022710064e-05
1.069856825e-05
1.190806294e-05
1.434278993e-05
1.000043049e-05
1.000043028e-05
1.000043118e-05
1.000043474e-05
1.000044954e-05
1.000049851e-05
1.000067976e-05
1.000133077e-05
1.000358354e-05
1.001111856e-05
1.003506896e-05
1.010618245e-05
1.029833615e-05
1.075280507e-05
1.164262413e-05
1.00004312e-05
1.000043144e-05
1.000043255e-05
1.000043334e-05
1.000044486e-05
1.000048406e-05
1.000062188e-05
1.000110034e-05
1.000270589e-05
1.000786988e-05
1.002362404e-05
1.006841196e-05
1.018440657e-05
1.044971997e-05
1.000043162e-05
1.0000431e-05
1.000043184e-05
1.000043643e-05
1.000045027e-05
1.000050401e-05
1.000070434e-05
1.000143687e-05
1.000404331e-05
1.001300521e-05
1.004233611e-05
1.013203578e-05
1.038108762e-05
1.098216323e-05
1.000043242e-05
1.000043182e-05
1.000043222e-05
1.000043714e-05
1.000045822e-05
1.00005388e-05
1.000085653e-05
1.000208715e-05
1.00067749e-05
1.002410692e-05
1.008556498e-05
1.029023191e-05
1.090962918e-05
1.252104195e-05
1.000043094e-05
1.000043186e-05
1.000043201e-05
1.000044003e-05
1.000046615e-05
1.000057614e-05
1.000102826e-05
1.000286918e-05
1.001029397e-05
1.003965082e-05
1.015218741e-05
1.056217775e-05
1.193413348e-05
1.588902009e-05
1.000043221e-05
1.000043209e-05
1.000043375e-05
1.000044118e-05
1.000046989e-05
1.000059492e-05
1.000111532e-05
1.000328804e-05
1.001234462e-05
1.004974108e-05
1.020157168e-05
1.079850474e-05
1.300626683e-05
2.022449299e-05
1.000043115e-05
1.000043137e-05
1.000043456e-05
1.000043997e-05
1.000046688e-05
1.000057679e-05
1.000102886e-05
1.000287011e-05
1.001029337e-05
1.003965068e-05
1.015218797e-05
1.056217408e-05
1.193411632e-05
1.588895794e-05
1.000043229e-05
1.000043211e-05
1.000043421e-05
1.00004399e-05
1.000045843e-05
1.000053938e-05
1.000085683e-05
1.000208804e-05
1.000677462e-05
1.002410691e-05
1.008556562e-05
1.02902274e-05
1.090961014e-05
1.252101278e-05
1.000043164e-05
1.000043179e-05
1.000043269e-05
1.000043617e-05
1.000045143e-05
1.000050472e-05
1.000070401e-05
1.000143609e-05
1.000404358e-05
1.001300381e-05
1.004233462e-05
1.013203065e-05
1.038106866e-05
1.098210028e-05
1.21634787e-05
1.000043084e-05
1.000043096e-05
1.000043221e-05
1.000043521e-05
1.000044518e-05
1.000048466e-05
1.000062236e-05
1.000109993e-05
1.000270456e-05
1.000786992e-05
1.00236225e-05
1.006840646e-05
1.018439186e-05
1.044967571e-05
1.096558417e-05
1.00004325e-05
1.000043225e-05
1.000043239e-05
1.000043531e-05
1.000044193e-05
1.000046971e-05
1.000056592e-05
1.000088626e-05
1.00019157e-05
1.000508274e-05
1.001430399e-05
1.003933751e-05
1.010155013e-05
1.023985502e-05
1.000043159e-05
1.000043147e-05
1.000043172e-05
1.000043496e-05
1.000044496e-05
1.000048149e-05
1.000061532e-05
1.000107993e-05
1.000264247e-05
1.000770697e-05
1.002327864e-05
1.006793558e-05
1.018454336e-05
1.045289447e-05
1.000043188e-05
1.000043253e-05
1.000043344e-05
1.000043622e-05
1.000044997e-05
1.000050269e-05
1.000070362e-05
1.000143538e-05
1.000404321e-05
1.001300431e-05
1.004233634e-05
1.013203912e-05
1.038109226e-05
1.098216621e-05
1.000043145e-05
1.000043122e-05
1.000043265e-05
1.000043799e-05
1.000045613e-05
1.000052542e-05
1.000079826e-05
1.000184005e-05
1.000571569e-05
1.001974166e-05
1.006840234e-05
1.022712124e-05
1.069863853e-05
1.190828553e-05
1.000043113e-05
1.000043121e-05
1.000043237e-05
1.000043815e-05
1.000045828e-05
1.000053688e-05
1.000084444e-05
1.000203972e-05
1.000660258e-05
1.002361093e-05
1.008490318e-05
1.029465339e-05
1.095569624e-05
1.276698409e-05
1.000043192e-05
1.000043116e-05
1.000043294e-05
1.000043789e-05
1.000045521e-05
1.000052658e-05
1.000079969e-05
1.000183954e-05
1.000571556e-05
1.001974065e-05
1.00684031e-05
1.022711915e-05
1.069863287e-05
1.190826858e-05
1.000043072e-05
1.000043125e-05
1.000043265e-05
1.000043659e-05
1.000044997e-05
1.000050402e-05
1.00007044e-05
1.000143541e-05
1.000404282e-05
1.001300402e-05
1.004233595e-05
1.013203494e-05
1.038108452e-05
1.098215303e-05
1.000043196e-05
1.000043193e-05
1.000043198e-05
1.000043463e-05
1.000044517e-05
1.000048249e-05
1.000061535e-05
1.000107887e-05
1.000264151e-05
1.000770695e-05
1.002327988e-05
1.006793259e-05
1.018453882e-05
1.045289256e-05
1.000043157e-05
1.000043196e-05
1.000043196e-05
1.00004332e-05
1.000044167e-05
1.000047064e-05
1.000056693e-05
1.000088656e-05
1.000191605e-05
1.000508314e-05
1.001430384e-05
1.0039337e-05
1.010154623e-05
1.023984213e-05
1.05082349e-05
1.000043091e-05
1.000043062e-05
1.000043091e-05
1.000043283e-05
1.000044002e-05
1.000046138e-05
1.000053325e-05
1.000076609e-05
1.000148553e-05
1.00036165e-05
1.000956975e-05
1.002511533e-05
1.006247748e-05
1.014379366e-05
1.000043164e-05
1.000043196e-05
1.000043206e-05
1.000043311e-05
1.00004415e-05
1.000046816e-05
1.00005659e-05
1.000088621e-05
1.000191682e-05
1.000508422e-05
1.00143046e-05
1.00393382e-05
1.010155137e-05
1.023985578e-05
1.00004317e-05
1.000043175e-05
1.000043213e-05
1.000043424e-05
1.000044539e-05
1.000048333e-05
1.000062135e-05
1.000110013e-05
1.000270441e-05
1.000786975e-05
1.002362281e-05
1.00684124e-05
1.018440753e-05
1.044972325e-05
1.00004309e-05
1.000043144e-05
1.000043262e-05
1.000043575e-05
1.000044854e-05
1.000049888e-05
1.00006814e-05
1.000132956e-05
1.000358341e-05
1.001111842e-05
1.003507203e-05
1.010619378e-05
1.029837214e-05
1.075291055e-05
1.000043131e-05
1.000043119e-05
1.000043268e-05
1.000043595e-05
1.000045118e-05
1.000050489e-05
1.000070702e-05
1.000143698e-05
1.000401328e-05
1.001279873e-05
1.004138997e-05
1.012869785e-05
1.037220396e-05
1.096591026e-05
1.000043168e-05
1.000043144e-05
1.000043192e-05
1.000043596e-05
1.000044879e-05
1.000049797e-05
1.000068052e-05
1.000132932e-05
1.000358347e-05
1.001111907e-05
1.003507137e-05
1.010619371e-05
1.029836967e-05
1.075290287e-05
1.000043226e-05
1.000043194e-05
1.000043182e-05
1.00004346e-05
1.000044535e-05
1.000048465e-05
1.00006223e-05
1.000110007e-05
1.000270488e-05
1.000786912e-05
1.002362308e-05
1.006841129e-05
1.018440449e-05
1.044971418e-05
1.000043211e-05
1.0000432e-05
1.000043257e-05
1.000043477e-05
1.000044232e-05
1.000047024e-05
1.000056594e-05
1.000088628e-05
1.000191684e-05
1.000508286e-05
1.001430441e-05
1.003933796e-05
1.010154977e-05
1.02398535e-05
1.000043203e-05
1.000043242e-05
1.000043206e-05
1.000043343e-05
1.000043939e-05
1.000046124e-05
1.000053385e-05
1.000076649e-05
1.000148665e-05
1.000361572e-05
1.00095705e-05
1.002511575e-05
1.006247723e-05
1.014379442e-05
)
;

boundaryField
{
    top
    {
        type            zeroGradient;
    }
    bottom
    {
        type            zeroGradient;
    }
    side-walls
    {
        type            zeroGradient;
    }
    inlet
    {
        type            zeroGradient;
    }
    outlet
    {
        type            zeroGradient;
    }
    procBoundary0to1
    {
        type            processor;
        value           nonuniform List<scalar> 
97
(
1.057289698e-05
1.050823475e-05
1.095647277e-05
1.17944467e-05
1.300502191e-05
1.385540201e-05
1.300499549e-05
1.179440265e-05
1.095642832e-05
1.05728654e-05
1.050823475e-05
1.050823475e-05
1.180717622e-05
1.216350246e-05
1.392055781e-05
1.761847877e-05
2.104656594e-05
1.761835326e-05
1.39204094e-05
1.180708277e-05
1.09564333e-05
1.096559869e-05
1.216350246e-05
1.216350246e-05
2.006564254e-05
2.441247521e-05
3.351456728e-05
5.082409357e-05
3.351394558e-05
2.006514602e-05
1.392041158e-05
1.179440788e-05
1.164268664e-05
1.434296079e-05
2.441247521e-05
2.441247521e-05
7.896879729e-05
0.0001520740582
0.000166669425
7.8966696e-05
3.351401513e-05
1.761834554e-05
1.30049965e-05
1.214217916e-05
1.657705711e-05
3.785139161e-05
0.0001520740582
0.0001520740582
0.0005395154943
0.000152073803
0.0001666694541
5.838616678e-05
5.082411449e-05
2.104653282e-05
1.385539651e-05
1.164267766e-05
1.434284111e-05
2.441156984e-05
5.83854387e-05
0.000152073803
5.838616678e-05
5.838616678e-05
3.351458086e-05
1.577811336e-05
1.761853501e-05
1.30050521e-05
1.096557447e-05
1.216334051e-05
1.577778839e-05
2.441155363e-05
3.78514707e-05
2.441159012e-05
1.577811336e-05
1.577811336e-05
1.392055505e-05
1.097512801e-05
1.179447176e-05
1.050819632e-05
1.097506247e-05
1.216334416e-05
1.434284148e-05
1.657706015e-05
1.434282901e-05
1.216337041e-05
1.097512801e-05
1.097512801e-05
1.095647276e-05
1.030161923e-05
1.030160017e-05
1.050819782e-05
1.096557932e-05
1.164267813e-05
1.21421779e-05
1.164266481e-05
1.096557099e-05
1.050820661e-05
1.030161923e-05
)
;
    }
}


// ************************************************************************* //
