/*--------------------------------*- C++ -*----------------------------------*\
| =========                 |                                                 |
| \\      /  F ield         | OpenFOAM: The Open Source CFD Toolbox           |
|  \\    /   O peration     | Version:  4.x                                   |
|   \\  /    A nd           | Web:      www.OpenFOAM.org                      |
|    \\/     M anipulation  |                                                 |
\*---------------------------------------------------------------------------*/
FoamFile
{
    version     2.0;
    format      ascii;
    class       volScalarField;
    location    "10000";
    object      molarConc;
}
// * * * * * * * * * * * * * * * * * * * * * * * * * * * * * * * * * * * * * //

dimensions      [0 -3 0 0 1 0 0];

internalField   nonuniform List<scalar> 
1175
(
9.963283149
9.963284407
9.963283605
9.963282803
9.963283553
9.963283708
9.963282897
9.963282406
9.963282993
9.963283215
9.963283545
9.963283805
9.963283072
9.963282545
9.963282147
9.96325379
9.963252953
9.963252164
9.963252543
9.96325268
9.963252745
9.963252537
9.963251497
9.963251466
9.963251965
9.963250577
9.963251499
9.96325202
9.963250262
9.963247807
9.963298894
9.963297864
9.963297613
9.963296926
9.96329805
9.963298591
9.963298308
9.963298256
9.963299228
9.963299484
9.963301111
9.963300799
9.963299657
9.963298756
9.963296837
9.963305362
9.963304076
9.963303224
9.963303372
9.963303399
9.963302368
9.963302669
9.963301722
9.963301215
9.963300759
9.963300125
9.963299803
9.963298332
9.96329711
9.963293202
9.963274306
9.963274959
9.963274791
9.963274614
9.963274587
9.96327399
9.963274212
9.963275292
9.963275314
9.963275385
9.963275166
9.963275145
9.963273878
9.963272595
9.963269032
9.963278003
9.963277773
9.963276794
9.96327749
9.963277217
9.96327761
9.963277722
9.963277048
9.963277659
9.963276566
9.963275137
9.963275458
9.96327514
9.963273909
9.963269465
9.963276695
9.963275947
9.96327637
9.963278784
9.963276825
9.963276917
9.96327709
9.963276974
9.963278206
9.963277648
9.963277608
9.963278114
9.963277854
9.963276359
9.963274311
9.963305917
9.963307431
9.963306472
9.963306532
9.963306264
9.963306148
9.963306211
9.963306182
9.963305815
9.963306827
9.963307184
9.963306502
9.963307732
9.963305979
9.96330572
9.963287703
9.963287091
9.963286757
9.963287173
9.963287418
9.963287984
9.963288406
9.963288535
9.963288584
9.963289218
9.963288366
9.96328931
9.963287713
9.963289583
9.963288365
9.963248492
9.963249793
9.963248615
9.963249508
9.963248791
9.963249719
9.963249305
9.963248317
9.96324903
9.963250286
9.963250377
9.963250005
9.963249334
9.963248413
9.96327524
9.963275001
9.963275524
9.963276881
9.963276954
9.963277334
9.963276401
9.963275223
9.96327486
9.963275426
9.96327536
9.963274987
9.963273757
9.96327341
9.963271311
9.963300583
9.963302737
9.963302676
9.963303204
9.963303546
9.963304502
9.96330576
9.963305924
9.963306219
9.963305792
9.963304189
9.963302425
9.963301389
9.963299426
9.963294238
9.963281961
9.96328254
9.963282182
9.963283634
9.963283412
9.963283242
9.963284029
9.963283597
9.963283667
9.963284225
9.963283172
9.963283824
9.963283334
9.963278891
9.963270201
9.963215991
9.963215696
9.963215601
9.963216218
9.96321649
9.963216065
9.963215138
9.963214145
9.96321388
9.963213319
9.96321408
9.963213081
9.96320948
9.963203956
9.963190789
9.963228968
9.963228464
9.963227599
9.963228223
9.963227843
9.963228493
9.963226103
9.963224998
9.963224698
9.963223928
9.963223931
9.963222913
9.963221207
9.963215501
9.963205844
9.963264198
9.963264592
9.963265627
9.963265389
9.963265958
9.963267953
9.963268212
9.963269193
9.963269838
9.963269547
9.963268669
9.963267884
9.963265817
9.963264008
9.963260875
9.963301016
9.963300978
9.963300372
9.963300831
9.963301108
9.963301597
9.963302833
9.963303501
9.963303786
9.963304511
9.963306242
9.963304952
9.963305301
9.963304207
9.963302853
9.963248453
9.96324892
9.963248862
9.963249591
9.963248242
9.963248284
9.963246513
9.963245998
9.963245144
9.963244979
9.963245089
9.963245489
9.963245811
9.963244424
9.963243704
9.963308884
9.963309215
9.96330878
9.963308801
9.963309455
9.963308835
9.963308262
9.963308661
9.963308099
9.963307427
9.963307474
9.963307064
9.963307865
9.963306684
9.963312736
9.963311399
9.963311076
9.963313331
9.963313284
9.963314499
9.963313638
9.963313835
9.96331351
9.963311576
9.963312667
9.963312383
9.963312555
9.963309921
9.963248797
9.963249805
9.963249933
9.963248698
9.963249434
9.963250866
9.963250367
9.963251558
9.963250302
9.963250969
9.963249865
9.963248993
9.96324579
9.963239627
9.963228081
9.963321831
9.963319815
9.963319814
9.963318357
9.963317028
9.9633168
9.963317283
9.963316185
9.963316461
9.963315528
9.963314521
9.963312397
9.963308919
9.963294599
9.963262828
9.963249446
9.963250167
9.963252143
9.96325177
9.963250973
9.963250606
9.963250438
9.963251069
9.963251011
9.963249533
9.963249647
9.963249298
9.963240708
9.963214316
9.963150853
9.963331928
9.963332666
9.963332721
9.963331314
9.963331182
9.96333275
9.963332786
9.963331757
9.963333535
9.963333328
9.96333218
9.963331219
9.963326322
9.963311202
9.963280887
9.963345925
9.963344401
9.963344379
9.963345085
9.963343952
9.963343848
9.963343703
9.963343786
9.963342909
9.963343139
9.963341315
9.963340868
9.963338102
9.963332356
9.963321141
9.963240891
9.963240669
9.963241695
9.963242481
9.963241513
9.963239405
9.96323995
9.963240552
9.963241243
9.963241151
9.963242158
9.963241849
9.963241279
9.963238384
9.963234778
9.963267019
9.963265583
9.963264939
9.963264116
9.963263974
9.963264769
9.963265593
9.963265515
9.963265138
9.96326466
9.963264982
9.963265289
9.963264867
9.963264184
9.963262211
9.963323547
9.963323736
9.963323263
9.963324013
9.963323233
9.963322014
9.963323323
9.963322153
9.963323038
9.96332384
9.963322222
9.963321994
9.963320398
9.963319291
9.963217126
9.963216598
9.963216419
9.963216048
9.963216252
9.963216021
9.963217089
9.963216499
9.963215679
9.963215363
9.963216801
9.963216438
9.963214556
9.96321074
9.963221045
9.963222183
9.963222178
9.963223075
9.963224313
9.963225176
9.963223923
9.963224384
9.963222887
9.963222639
9.963222426
9.96322054
9.963215357
9.963201142
9.963195297
9.963196572
9.963197064
9.963198611
9.963198607
9.963200003
9.963199518
9.963200836
9.963200487
9.963199877
9.963197085
9.963194213
9.963180613
9.963134155
9.963020246
9.963268851
9.963269787
9.963269062
9.96327026
9.963269638
9.963269496
9.963268702
9.96326952
9.963268821
9.963269769
9.963269226
9.963262584
9.96323844
9.963129357
9.962762743
9.96332692
9.963327019
9.963327185
9.963327412
9.963326354
9.963327667
9.963327588
9.963328872
9.963328022
9.963327649
9.963326972
9.963323369
9.963310091
9.963266079
9.963152634
9.963257269
9.963256845
9.963258738
9.963258221
9.96325682
9.963256837
9.963256901
9.963256049
9.963256814
9.963256833
9.963256205
9.963254306
9.963249503
9.96323444
9.963203228
9.963297464
9.963298156
9.963296608
9.963297429
9.963297198
9.963297518
9.96329812
9.963297867
9.963298435
9.963298064
9.963296693
9.963296162
9.963292956
9.96328817
9.963280317
9.963259178
9.963258972
9.963259131
9.96325928
9.963260909
9.963259921
9.963259597
9.963261012
9.963259618
9.963259691
9.963260306
9.963261161
9.963260797
9.963259346
9.963255907
9.963278769
9.963278735
9.963278289
9.963279218
9.963278353
9.963278044
9.963277184
9.963277935
9.963276921
9.963275847
9.96327657
9.963275208
9.963273365
9.963271746
9.963218283
9.963219189
9.963219904
9.963220394
9.96322121
9.963221268
9.963221327
9.963223539
9.963225183
9.96322557
9.963225175
9.963226104
9.963222573
9.963216225
9.963270388
9.963270074
9.963270264
9.96326875
9.963268408
9.963268675
9.963269736
9.963269583
9.963269835
9.963269502
9.963267402
9.963265813
9.96325796
9.96323089
9.963278065
9.963278505
9.963278415
9.963280146
9.963279245
9.963280277
9.96327976
9.963278722
9.96327832
9.963279084
9.963278159
9.963272481
9.96324756
9.963137681
9.963264545
9.963263174
9.963263878
9.963263258
9.963263422
9.963262194
9.963262189
9.963261926
9.963263423
9.963263239
9.963260303
9.963249007
9.96318457
9.962778247
9.984224408
9.963287915
9.963288043
9.963288657
9.96329075
9.963291884
9.963292292
9.963291552
9.963290713
9.96329025
9.963290359
9.963286641
9.963282483
9.963255333
9.963144359
9.962778294
9.963317203
9.963318413
9.963317328
9.963318047
9.963318706
9.963318837
9.963319395
9.963318015
9.963318778
9.963318414
9.963316449
9.963312911
9.963304562
9.963277993
9.963215641
9.96332439
9.963325053
9.963324055
9.963324362
9.96332464
9.963324919
9.96332502
9.963326231
9.963327447
9.963327557
9.963326702
9.96332664
9.963324076
9.963318742
9.963303692
9.963293479
9.963294043
9.963295064
9.963294541
9.963294284
9.963293732
9.963293931
9.963294526
9.963294859
9.963295656
9.963295318
9.963294633
9.963293245
9.963291699
9.963288443
9.963230782
9.963230588
9.963230984
9.963230033
9.963229048
9.963230108
9.963230699
9.963229969
9.963228473
9.963228105
9.963228792
9.963227908
9.96322667
9.963225561
9.963274643
9.963274231
9.963274188
9.963273269
9.963273948
9.963274863
9.963276793
9.963277539
9.963277672
9.963277357
9.963276608
9.963277142
9.96327434
9.963270003
9.963263812
9.963263213
9.963262622
9.96326268
9.963262403
9.963262546
9.963260957
9.963260197
9.963260397
9.963258576
9.963257908
9.963256513
9.963250106
9.963235852
9.963286434
9.963287004
9.963287955
9.963286949
9.963287497
9.963286695
9.963286624
9.963287795
9.963287079
9.96328654
9.963285639
9.963281056
9.96326833
9.963222687
9.96324955
9.963249635
9.963250213
9.963249887
9.963249498
9.963249247
9.963249738
9.963249873
9.963249354
9.963248464
9.963246482
9.963241179
9.963215604
9.963105414
9.963214067
9.963213244
9.963213116
9.963211587
9.963211212
9.963210739
9.963211012
9.963210618
9.963211583
9.963211756
9.963212256
9.963208719
9.963195812
9.963151346
9.963279731
9.963278762
9.963278553
9.963278631
9.963278106
9.963278101
9.963277047
9.963276698
9.963276253
9.963276032
9.963275843
9.963274579
9.963268187
9.963253652
9.963221237
9.963311707
9.963311558
9.963310908
9.963309452
9.963309344
9.963309504
9.963310427
9.963311239
9.963311642
9.963311872
9.963310958
9.963311387
9.963309607
9.963306426
9.963296661
9.963271856
9.96327199
9.963271617
9.963271942
9.963272463
9.963271611
9.96327144
9.963270881
9.963270692
9.963270754
9.963271036
9.963270629
9.963271446
9.963269025
9.963265487
9.963303054
9.963303563
9.963303312
9.963302825
9.963303038
9.963303739
9.963304823
9.963304817
9.963305279
9.963305131
9.963305596
9.963304364
9.96330351
9.963301742
9.963265007
9.963264772
9.963265936
9.963265402
9.96326523
9.963264587
9.963264636
9.963264016
9.963263731
9.963264833
9.963263182
9.963261473
9.96325923
9.963257935
9.96331402
9.963313506
9.963312181
9.963311163
9.963312345
9.963310934
9.963312051
9.963311413
9.963312072
9.96331231
9.963312358
9.963312372
9.963309783
9.963304387
9.963326923
9.963327234
9.963325742
9.963325458
9.963324938
9.963324472
9.963325602
9.963325368
9.963327712
9.963328267
9.963325867
9.963325642
9.963318847
9.963304375
9.963203659
9.963204179
9.96320621
9.963206779
9.963207258
9.963207227
9.963208379
9.9632067
9.96320603
9.963205866
9.963205862
9.96320475
9.963199143
9.96317183
9.963271011
9.963270588
9.96327258
9.963272119
9.963272706
9.963273028
9.963273966
9.963273556
9.963273917
9.963273116
9.963272696
9.963271688
9.963265937
9.963251326
9.963256539
9.963256451
9.963257099
9.963257598
9.96325807
9.963257655
9.963258244
9.963257947
9.963257341
9.963257426
9.963256994
9.963256888
9.963254575
9.963247719
9.963257623
9.963257717
9.963257926
9.963258914
9.963259536
9.963260654
9.963258641
9.963257487
9.963258225
9.963256904
9.963258798
9.963258696
9.963258253
9.963255367
9.963252037
9.963290542
9.963291265
9.963290889
9.963290921
9.96329062
9.963289447
9.963289514
9.963290191
9.963289756
9.963289611
9.963290406
9.963288411
9.963289573
9.963287862
9.9632863
9.963311027
9.963310554
9.96331054
9.96331046
9.963310908
9.963309945
9.963309893
9.96330999
9.963309881
9.963309978
9.963308443
9.963306933
9.963309119
9.963308315
9.963304028
9.96330491
9.963304914
9.963305379
9.963304431
9.963303886
9.963303026
9.96330342
9.96330193
9.963301158
9.963301372
9.963303545
9.963303943
9.963303656
9.963242604
9.963242667
9.963241879
9.963241121
9.963240155
9.96324036
9.963239391
9.96323867
9.963239243
9.963238784
9.963236879
9.963236747
9.963235296
9.963234555
9.963253195
9.963252804
9.963252735
9.963252603
9.963253253
9.963252254
9.963252612
9.963252445
9.963253334
9.963254823
9.963254259
9.96325377
9.963250809
9.963247245
9.963266636
9.963265905
9.963264957
9.963264497
9.96326519
9.963265707
9.96326351
9.963262319
9.963262124
9.9632619
9.96326049
9.963260482
9.963259643
9.963252918
9.963246994
9.963247253
9.963248177
9.963249229
9.96324777
9.963247459
9.963247053
9.963246959
9.963247404
9.96324669
9.963246997
9.963245832
9.96324333
9.963238727
9.963313397
9.963312847
9.963312333
9.963312839
9.963312348
9.963311347
9.963311894
9.963310478
9.96331004
9.963311211
9.963310956
9.963310322
9.963309687
9.963306697
9.963286023
9.96328622
9.963285171
9.963285304
9.963284096
9.963282904
9.963282606
9.963282487
9.963282351
9.963283712
9.963284042
9.963283113
9.963283451
9.963284065
9.963255456
9.963255206
9.963254534
9.963254321
9.963253619
9.963255454
9.963255476
9.963255357
9.963254952
9.963255058
9.963255075
9.963255359
9.963254493
9.963255271
9.963253411
9.963289996
9.963289808
9.963290215
9.963290537
9.963291782
9.963291629
9.963291912
9.963291199
9.963291486
9.963292285
9.96329288
9.963292903
9.963292601
9.963292545
9.963259011
9.96325889
9.963258358
9.963257631
9.963256518
9.963257275
9.963257885
9.96325834
9.963259334
9.963259969
9.963260831
9.963259324
9.963257859
9.963257284
9.963269233
9.963269004
9.963268586
9.963269147
9.963269121
9.963269642
9.963269736
9.963269909
9.963270646
9.963270961
9.963270743
9.963272711
9.963271044
9.963270303
9.963267958
9.963268099
9.96326814
9.963269228
9.963266762
9.963267616
9.963267657
9.96326667
9.963265992
9.963265726
9.96326589
9.96326514
9.963264505
9.963262293
9.963268107
9.963268584
9.963269333
9.963269598
9.963269824
9.963270567
9.963270287
9.963269907
9.963269221
9.963269925
9.963270016
9.963269337
9.963268984
9.963269468
9.963281286
9.963280678
9.963279932
9.963280499
9.96328078
9.963280738
9.963281774
9.963282505
9.963283038
9.963282667
9.963283057
9.963283629
9.963282
9.963280367
9.963360682
9.963359788
9.963359767
9.963358583
9.96335944
9.963359792
9.963360979
9.963360183
9.963359702
9.963359792
9.963359146
9.963359221
9.963357755
9.963356888
9.963279582
9.963279734
9.963280951
9.963279987
9.963279611
9.963279728
9.963279143
9.963278616
9.963278557
9.963278618
9.96327886
9.963279319
9.963278359
9.963277971
9.963278138
9.963278684
9.963277696
9.963277548
9.963276564
9.963277104
9.963277368
9.963276682
9.9632771
9.963276937
9.963277568
9.963277347
9.96327765
9.963276378
)
;

boundaryField
{
    top
    {
        type            calculated;
        value           nonuniform List<scalar> 
134
(
9.963287703
9.963248453
9.963267019
9.963259178
9.963293479
9.963271856
9.963290542
9.963255456
9.963278138
9.963287091
9.96324892
9.963265583
9.963258972
9.963294043
9.96327199
9.963291265
9.963255206
9.963278684
9.963286757
9.963248862
9.963264939
9.963259131
9.963295064
9.963271617
9.963290889
9.963254534
9.963277696
9.963287173
9.963249591
9.963264116
9.96325928
9.963294541
9.963271942
9.963290921
9.963254321
9.963277548
9.963287418
9.963248242
9.963263974
9.963260909
9.963294284
9.963272463
9.96329062
9.963253619
9.963276564
9.963287984
9.963248284
9.963264769
9.963259921
9.963293732
9.963271611
9.963289447
9.963255454
9.963277104
9.963288406
9.963246513
9.963265593
9.963259597
9.963293931
9.96327144
9.963289514
9.963255476
9.963277368
9.963288535
9.963245998
9.963265515
9.963261012
9.963294526
9.963270881
9.963290191
9.963255357
9.963276682
9.963288584
9.963245144
9.963265138
9.963259618
9.963294859
9.963270692
9.963289756
9.963254952
9.9632771
9.963289218
9.963244979
9.96326466
9.963259691
9.963295656
9.963270754
9.963289611
9.963255058
9.963276937
9.963288366
9.963245089
9.963264982
9.963260306
9.963295318
9.963271036
9.963290406
9.963255075
9.963277568
9.96328931
9.963245489
9.963265289
9.963261161
9.963294633
9.963270629
9.963288411
9.963255359
9.963277347
9.963287713
9.963245811
9.963264867
9.963260797
9.963293245
9.963271446
9.963289573
9.963254493
9.96327765
9.963289583
9.963244424
9.963264184
9.963259346
9.963291699
9.963269025
9.963287862
9.963255271
9.963276378
9.963288365
9.963243704
9.963262211
9.963255907
9.963288443
9.963265487
9.9632863
9.963253411
)
;
    }
    bottom
    {
        type            calculated;
        value           nonuniform List<scalar> 
127
(
9.963283149
9.963248492
9.963308884
9.963323547
9.963278769
9.963230782
9.963303054
9.963311027
9.963289996
9.963284407
9.963249793
9.963309215
9.963323736
9.963278735
9.963230588
9.963303563
9.963310554
9.963289808
9.963283605
9.963248615
9.96330878
9.963323263
9.963278289
9.963230984
9.963303312
9.96331054
9.963290215
9.963282803
9.963249508
9.963308801
9.963324013
9.963279218
9.963230033
9.963302825
9.96331046
9.963290537
9.963283553
9.963248791
9.963309455
9.963323233
9.963278353
9.963229048
9.963303038
9.963310908
9.963291782
9.963283708
9.963249719
9.963308835
9.963322014
9.963278044
9.963230108
9.963303739
9.963309945
9.963291629
9.963282897
9.963249305
9.963308262
9.963323323
9.963277184
9.963230699
9.963304823
9.963309893
9.963291912
9.963282406
9.963248317
9.963308661
9.963322153
9.963277935
9.963229969
9.963304817
9.96330999
9.963291199
9.963282993
9.96324903
9.963308099
9.963323038
9.963276921
9.963228473
9.963305279
9.963309881
9.963291486
9.963283215
9.963250286
9.963307427
9.96332384
9.963275847
9.963228105
9.963305131
9.963309978
9.963292285
9.963283545
9.963250377
9.963307474
9.963322222
9.96327657
9.963228792
9.963305596
9.963308443
9.96329288
9.963283805
9.963250005
9.963307064
9.963321994
9.963275208
9.963227908
9.963304364
9.963306933
9.963292903
9.963283072
9.963249334
9.963307865
9.963320398
9.963273365
9.96322667
9.96330351
9.963309119
9.963292601
9.963282545
9.963248413
9.963306684
9.963319291
9.963271746
9.963225561
9.963301742
9.963308315
9.963292545
9.963282147
)
;
    }
    side-walls
    {
        type            calculated;
        value           nonuniform List<scalar> 
261
(
9.963283149
9.96325379
9.963298894
9.963305362
9.963274306
9.963278003
9.963276695
9.963305917
9.963287703
9.963284407
9.963252953
9.963297864
9.963304076
9.963274959
9.963277773
9.963275947
9.963307431
9.963287091
9.963283605
9.963252164
9.963297613
9.963303224
9.963274791
9.963276794
9.96327637
9.963306472
9.963286757
9.963282803
9.963252543
9.963296926
9.963303372
9.963274614
9.96327749
9.963278784
9.963306532
9.963287173
9.963283553
9.96325268
9.96329805
9.963303399
9.963274587
9.963277217
9.963276825
9.963306264
9.963287418
9.963283708
9.963252745
9.963298591
9.963302368
9.96327399
9.96327761
9.963276917
9.963306148
9.963287984
9.963282897
9.963252537
9.963298308
9.963302669
9.963274212
9.963277722
9.96327709
9.963306211
9.963288406
9.963282406
9.963251497
9.963298256
9.963301722
9.963275292
9.963277048
9.963276974
9.963306182
9.963288535
9.963282993
9.963251466
9.963299228
9.963301215
9.963275314
9.963277659
9.963278206
9.963305815
9.963288584
9.963283215
9.963251965
9.963299484
9.963300759
9.963275385
9.963276566
9.963277648
9.963306827
9.963289218
9.963283545
9.963250577
9.963301111
9.963300125
9.963275166
9.963275137
9.963277608
9.963307184
9.963288366
9.963283805
9.963251499
9.963300799
9.963299803
9.963275145
9.963275458
9.963278114
9.963306502
9.96328931
9.963283072
9.96325202
9.963299657
9.963298332
9.963273878
9.96327514
9.963277854
9.963307732
9.963287713
9.963282545
9.963250262
9.963298756
9.96329711
9.963272595
9.963273909
9.963276359
9.963305979
9.963289583
9.963282147
9.963247807
9.963296837
9.963293202
9.963269032
9.963269465
9.963274311
9.96330572
9.963288365
9.963289996
9.963259011
9.963269233
9.963267958
9.963268107
9.963281286
9.963360682
9.963279582
9.963278138
9.963289808
9.96325889
9.963269004
9.963268099
9.963268584
9.963280678
9.963359788
9.963279734
9.963278684
9.963290215
9.963258358
9.963268586
9.96326814
9.963269333
9.963279932
9.963359767
9.963280951
9.963277696
9.963290537
9.963257631
9.963269147
9.963269228
9.963269598
9.963280499
9.963358583
9.963279987
9.963277548
9.963291782
9.963256518
9.963269121
9.963266762
9.963269824
9.96328078
9.96335944
9.963279611
9.963276564
9.963291629
9.963257275
9.963269642
9.963267616
9.963270567
9.963280738
9.963359792
9.963279728
9.963277104
9.963291912
9.963257885
9.963269736
9.963267657
9.963270287
9.963281774
9.963360979
9.963279143
9.963277368
9.963291199
9.96325834
9.963269909
9.96326667
9.963269907
9.963282505
9.963360183
9.963278616
9.963276682
9.963291486
9.963259334
9.963270646
9.963265992
9.963269221
9.963283038
9.963359702
9.963278557
9.9632771
9.963292285
9.963259969
9.963270961
9.963265726
9.963269925
9.963282667
9.963359792
9.963278618
9.963276937
9.96329288
9.963260831
9.963270743
9.96326589
9.963270016
9.963283057
9.963359146
9.96327886
9.963277568
9.963292903
9.963259324
9.963272711
9.96326514
9.963269337
9.963283629
9.963359221
9.963279319
9.963277347
9.963292601
9.963257859
9.963271044
9.963264505
9.963268984
9.963282
9.963357755
9.963278359
9.96327765
9.963292545
9.963257284
9.963270303
9.963262293
9.963269468
9.963280367
9.963356888
9.963277971
9.963276378
)
;
    }
    inlet
    {
        type            calculated;
        value           nonuniform List<scalar> 
81
(
9.963283149
9.96325379
9.963298894
9.963305362
9.963274306
9.963278003
9.963276695
9.963305917
9.963287703
9.963248492
9.96327524
9.963300583
9.963281961
9.963215991
9.963228968
9.963264198
9.963301016
9.963248453
9.963308884
9.963312736
9.963248797
9.963321831
9.963249446
9.963331928
9.963345925
9.963240891
9.963267019
9.963323547
9.963217126
9.963221045
9.963195297
9.963268851
9.96332692
9.963257269
9.963297464
9.963259178
9.963278769
9.963218283
9.963270388
9.963278065
9.963264545
9.963287915
9.963317203
9.96332439
9.963293479
9.963230782
9.963274643
9.963263812
9.963286434
9.96324955
9.963214067
9.963279731
9.963311707
9.963271856
9.963303054
9.963265007
9.96331402
9.963326923
9.963203659
9.963271011
9.963256539
9.963257623
9.963290542
9.963311027
9.963304028
9.963242604
9.963253195
9.963266636
9.963246994
9.963313397
9.963286023
9.963255456
9.963289996
9.963259011
9.963269233
9.963267958
9.963268107
9.963281286
9.963360682
9.963279582
9.963278138
)
;
    }
    outlet
    {
        type            calculated;
        value           nonuniform 0();
    }
    procBoundary0to1
    {
        type            processor;
        value           nonuniform List<scalar> 
97
(
9.963281108
9.963246959
9.96324636
9.963295081
9.963288287
9.963262038
9.963264356
9.963270348
9.963303937
9.963288253
9.963246959
9.963246959
9.963268393
9.963306658
9.963288641
9.963258259
9.963173291
9.963195687
9.96325254
9.963300344
9.963240837
9.963305467
9.963306658
9.963306658
9.963212165
9.963169883
9.963231088
9.963102452
9.963248672
9.963306174
9.963227798
9.963260557
9.963317372
9.96320249
9.963169883
9.963169883
9.962943759
9.962771026
9.962710948
9.963077829
9.9631699
9.963268101
9.963251911
9.9632669
9.963202829
9.963165939
9.962771026
9.962771026
9.985573372
9.962739255
9.962725057
9.963037592
9.963167609
9.963286918
9.963281634
9.96322132
9.963260382
9.963205553
9.963108231
9.962739255
9.963037592
9.963037592
9.963188479
9.963235107
9.963284455
9.963259965
9.963300709
9.963253495
9.963293959
9.963273368
9.963107222
9.963220226
9.963235107
9.963235107
9.963245624
9.963280944
9.963284405
9.963307262
9.963301986
9.963229121
9.963236738
9.963242338
9.963229659
9.963301818
9.963280944
9.963280944
9.963250147
9.963276316
9.963292502
9.963255792
9.963269119
9.96325933
9.96326491
9.963277465
9.963355907
9.96327642
9.963276316
)
;
    }
}


// ************************************************************************* //
