/*--------------------------------*- C++ -*----------------------------------*\
| =========                 |                                                 |
| \\      /  F ield         | OpenFOAM: The Open Source CFD Toolbox           |
|  \\    /   O peration     | Version:  4.x                                   |
|   \\  /    A nd           | Web:      www.OpenFOAM.org                      |
|    \\/     M anipulation  |                                                 |
\*---------------------------------------------------------------------------*/
FoamFile
{
    version     2.0;
    format      ascii;
    class       surfaceScalarField;
    location    "10000";
    object      phi;
}
// * * * * * * * * * * * * * * * * * * * * * * * * * * * * * * * * * * * * * //

dimensions      [1 0 -1 0 0 0 0];

internalField   nonuniform List<scalar> 
3175
(
9.165419115e-06
-5.773505651e-14
-7.512706759e-14
9.165417905e-06
-1.532242261e-12
-6.180537343e-13
9.16542119e-06
-2.842598145e-13
1.141839939e-12
9.165422188e-06
-9.279209965e-13
2.19556359e-12
9.165421954e-06
-1.262663479e-12
-1.717068852e-13
9.165423581e-06
-1.439092339e-12
-2.022226013e-12
9.16542528e-06
-1.450801827e-12
-2.021322609e-12
9.165428585e-06
-2.734804053e-12
-2.340596432e-12
9.165434718e-06
-3.554206761e-12
-3.448875365e-12
9.165443003e-06
-4.010026118e-12
-5.483886365e-12
9.16545801e-06
-5.399996615e-12
-7.018574675e-12
9.165479601e-06
-8.51670754e-12
-8.787562183e-12
9.165506962e-06
-1.254735795e-11
-1.461152688e-11
9.165538191e-06
-1.443067171e-11
-1.5184258e-11
-2.46576304e-11
9.165390155e-06
4.613837852e-14
4.407320685e-14
9.165391295e-06
2.036922125e-12
1.645317316e-12
9.165392463e-06
-2.009566466e-13
7.869193854e-13
9.165392073e-06
-1.198134641e-12
-9.005295956e-13
9.165393457e-06
-2.02026466e-12
-6.211031786e-13
9.165396124e-06
-2.899547748e-12
-2.958646466e-12
9.165394317e-06
-5.505920044e-12
-3.056611775e-12
9.165397226e-06
-4.351505111e-12
-2.35572767e-12
9.165402608e-06
-5.058653706e-12
-2.366839669e-12
9.165411163e-06
-9.574833649e-12
-6.331614321e-12
9.165424461e-06
-1.379861464e-11
-8.515015633e-12
9.16544703e-06
-1.979519903e-11
-1.301998227e-11
9.165474265e-06
-2.624545111e-11
-1.832569317e-11
9.165505989e-06
-2.919288113e-11
-2.020098363e-11
-4.606447892e-11
-3.51223104e-11
9.165432689e-06
-8.273619892e-13
5.806345443e-13
9.165429359e-06
-9.868034803e-13
-1.007007683e-12
9.165434054e-06
1.698135862e-13
4.565714678e-13
9.165434416e-06
-5.286006471e-13
-1.139201836e-12
9.165434963e-06
-1.72573574e-13
-8.857066672e-13
9.165435444e-06
-2.390115619e-12
-1.816315845e-12
9.165437569e-06
-3.046562889e-12
5.884651252e-13
9.165437798e-06
-3.159419436e-12
-3.459683543e-12
9.165441738e-06
-2.558610932e-12
-5.500409845e-12
9.16544907e-06
-7.06027227e-12
-6.408052914e-12
9.165461745e-06
-1.131006161e-11
-9.075587654e-12
9.165483243e-06
-1.836098028e-11
-1.971641552e-11
9.165509289e-06
-2.443164574e-11
-2.689073289e-11
9.165551481e-06
-3.155174414e-11
-3.907643318e-11
-5.538359355e-11
-7.831461493e-11
9.165437498e-06
-1.469809175e-12
-4.833080604e-13
9.165436021e-06
-9.282290744e-13
3.281246117e-14
9.165437328e-06
-3.224333582e-13
-4.858341694e-13
9.165438738e-06
3.854551688e-14
-1.315568996e-12
9.165435967e-06
-2.401310064e-12
-2.519557551e-12
9.165436789e-06
-2.013617928e-12
-1.393584591e-12
9.165440628e-06
-1.869171621e-12
-6.333142642e-13
9.165440323e-06
-3.935213962e-12
-4.058852313e-12
9.165439289e-06
-4.390004971e-12
-6.396279169e-12
9.165446665e-06
-5.74824669e-12
-9.642050884e-12
9.165458261e-06
-8.815186238e-12
-1.091439757e-11
9.165480996e-06
-1.770473793e-11
-2.526009259e-11
9.165507149e-06
-2.440671242e-11
-2.914387745e-11
9.165556737e-06
-3.403071959e-11
-4.92823403e-11
-4.972184347e-11
-1.083581143e-10
9.165410996e-06
7.142240683e-14
8.895476537e-13
9.165411937e-06
-2.441173789e-13
-1.158579017e-12
9.165412148e-06
-1.136743339e-12
-1.179674439e-12
9.165410325e-06
-2.149861925e-12
-2.070371329e-12
9.165411867e-06
-1.403757917e-13
-5.299546357e-13
9.165412024e-06
1.458333889e-12
-1.112906739e-12
9.165412929e-06
1.324615944e-12
-2.837768053e-14
9.165415845e-06
1.183549899e-12
-3.208168943e-12
9.165411519e-06
5.552419421e-13
-7.245781665e-12
9.165414351e-06
4.749119534e-12
-1.552616535e-11
9.165416941e-06
9.097308575e-12
-1.943749899e-11
9.16543586e-06
1.785433151e-11
-4.888104913e-11
9.165451075e-06
2.222010717e-11
-6.14544988e-11
9.165528759e-06
3.344881503e-11
-1.444554982e-10
5.161888776e-11
-2.81451969e-10
9.165414038e-06
1.611847192e-13
2.755798461e-15
9.165412349e-06
-8.750468208e-14
-3.77914327e-13
9.16541348e-06
-2.618390226e-13
-4.960338333e-13
9.165414037e-06
6.448627564e-13
-7.038179674e-13
9.165415708e-06
2.029856665e-13
-2.097020794e-13
9.165414631e-06
9.316865454e-13
-2.1494753e-12
9.165416995e-06
2.559090658e-12
-3.610264365e-13
9.165418354e-06
3.373405433e-12
-2.393401935e-12
9.165419564e-06
3.750472463e-12
-5.309219272e-12
9.16542439e-06
7.414879e-12
-1.040636176e-11
9.165434996e-06
1.094410074e-11
-1.159936718e-11
9.165456907e-06
1.750639679e-11
-2.7699457e-11
9.16548639e-06
2.580501309e-11
-2.862665472e-11
9.165536982e-06
3.12320604e-11
-4.786239289e-11
5.553463934e-11
-1.096412178e-10
9.165410959e-06
-1.379115527e-12
1.182701742e-13
9.165410958e-06
-3.173709761e-13
-5.78108131e-13
9.165414759e-06
4.036950205e-13
2.016557402e-13
9.165414064e-06
1.909384634e-14
-1.740354344e-12
9.165415292e-06
1.056363881e-12
9.226098708e-13
9.16541524e-06
4.544430157e-13
-1.442764464e-12
9.165416502e-06
8.927223081e-14
-1.143535804e-12
9.165419688e-06
1.507280117e-12
-3.255293489e-12
9.165425036e-06
4.692339444e-12
-3.581332777e-12
9.165430687e-06
7.697699013e-12
-7.224620741e-12
9.165440496e-06
1.042087929e-11
-1.03428122e-11
9.165461728e-06
1.833527827e-11
-1.986744869e-11
9.165487833e-06
2.342244185e-11
-2.724420514e-11
9.165531952e-06
2.84283785e-11
-3.905916882e-11
4.475769257e-11
-7.813166492e-11
9.165440863e-06
4.553834213e-13
6.600815709e-13
9.165441353e-06
1.43330807e-12
1.906608018e-12
9.165441338e-06
6.448331414e-13
1.072886627e-12
9.165442654e-06
5.227002725e-13
3.935120721e-13
9.165442537e-06
4.368080372e-13
-6.472364168e-13
9.165443386e-06
2.339333353e-13
-1.513986614e-12
9.165446101e-06
1.436191456e-12
-7.999739784e-14
9.165449612e-06
2.204173201e-12
-1.10062118e-12
9.165454957e-06
2.941189997e-12
-2.917575739e-12
9.165464626e-06
3.707032149e-12
-4.126558195e-12
9.165476839e-06
6.834810126e-12
-7.363873729e-12
9.165498155e-06
1.068953827e-11
-1.248054774e-11
9.165529525e-06
1.593904273e-11
-1.587314627e-11
9.165559828e-06
1.432280094e-11
-1.873546771e-11
2.330697223e-11
-3.564066688e-11
9.165424262e-06
3.91210235e-13
9.165422357e-06
-1.161171796e-13
9.165422251e-06
5.415292805e-13
9.165423561e-06
9.381398306e-13
9.165425325e-06
3.918983529e-13
9.165428982e-06
-6.9320084e-13
9.165430665e-06
-1.508208255e-12
9.16543445e-06
-3.040204712e-13
9.165440492e-06
-1.757787765e-12
9.165450945e-06
-2.256474607e-12
9.165463688e-06
-5.484191414e-12
9.165483571e-06
-1.023740978e-11
9.165512193e-06
-1.56639494e-11
9.165543662e-06
-1.456809868e-11
-2.401126423e-11
9.165386905e-06
-3.284699677e-14
-1.852700282e-13
9.165387187e-06
5.93905933e-13
1.025458405e-12
9.165389374e-06
-1.89070247e-13
9.560133067e-13
9.165388367e-06
-2.897354862e-12
-2.620830298e-13
9.165390436e-06
-1.250972985e-12
-3.819830301e-13
9.165393222e-06
-1.881037461e-12
-1.352510501e-12
9.165392694e-06
-2.481076493e-12
-2.93340241e-12
9.165394974e-06
-2.932341422e-12
-4.912449052e-12
9.165400992e-06
-3.38761959e-12
-5.504724993e-12
9.16541053e-06
-7.176592201e-12
-9.779759846e-12
9.165423785e-06
-7.538875237e-12
-1.10996863e-11
9.165444307e-06
-1.2882773e-11
-1.860600953e-11
9.16547391e-06
-1.73586059e-11
-2.551226838e-11
-1.951279792e-11
-2.780335371e-11
9.165410268e-06
7.107137244e-13
9.211463406e-14
9.165412045e-06
-1.208096572e-12
6.797770376e-13
9.165411148e-06
-1.933228053e-12
1.748232826e-12
9.165414117e-06
-1.648855543e-12
1.490848305e-12
9.165414069e-06
-1.190044274e-12
-2.306834637e-13
9.165416058e-06
-1.093441754e-12
-1.324778868e-12
9.165416241e-06
-2.545313837e-12
-1.954141499e-12
9.165417555e-06
-5.286306588e-12
-5.458883409e-12
9.165420362e-06
-7.723756528e-12
-6.952681558e-12
9.165431235e-06
-9.481504443e-12
-1.082223379e-11
9.165444406e-06
-1.308744198e-11
-1.408105505e-11
9.165463584e-06
-2.4462525e-11
-2.46138722e-11
9.165493815e-06
-3.111575576e-11
-3.138306024e-11
9.16553442e-06
-3.907974773e-11
-3.936084448e-11
-7.275235408e-11
9.165434567e-06
-1.399788737e-12
-5.931578156e-13
9.165436343e-06
-1.134632651e-12
5.298558303e-13
9.165436477e-06
-1.594967634e-12
7.476825347e-13
9.165439865e-06
-4.257968773e-13
2.083469379e-12
9.165439931e-06
-6.684835903e-13
-2.152145591e-13
9.165440617e-06
-1.788968063e-12
-3.426028048e-12
9.165440655e-06
-3.805555965e-12
-3.438250844e-12
9.165441242e-06
-5.026295553e-12
-7.221464284e-12
9.165445178e-06
-4.570726315e-12
-7.912160379e-12
9.165447911e-06
-1.067230241e-11
-1.518746122e-11
9.165457016e-06
-1.431840226e-11
-2.019500072e-11
9.165476345e-06
-2.666950043e-11
-4.307119981e-11
9.165501476e-06
-3.276080758e-11
-5.24274593e-11
9.165559581e-06
-5.114807236e-11
-8.658018556e-11
-9.879295084e-11
-1.689692108e-10
9.165416763e-06
5.83327117e-14
-6.182088492e-13
9.16541671e-06
-1.86791199e-12
-1.766118752e-13
9.165418429e-06
-5.975598583e-13
7.559725256e-13
9.165419563e-06
-4.222546024e-13
2.486856898e-13
9.165419686e-06
-1.47592107e-12
-6.867616908e-13
9.165420975e-06
-1.803229233e-12
-2.334103546e-12
9.165421331e-06
-4.908924185e-13
-3.143875203e-12
9.165420359e-06
-2.792428869e-12
-8.078420481e-12
9.165420268e-06
-5.094086322e-12
-1.030130273e-11
9.165424593e-06
-9.50398542e-12
-1.916515132e-11
9.165434425e-06
-1.315653026e-11
-2.186511243e-11
9.165460131e-06
-2.677781506e-11
-5.537145622e-11
9.165486107e-06
-3.558200896e-11
-5.417510745e-11
9.165569425e-06
-6.151131867e-11
-1.157894724e-10
-9.508626233e-11
-2.446944715e-10
9.165355586e-06
-1.01031823e-12
-1.403275884e-12
9.165357736e-06
4.311910334e-13
-6.692685698e-14
9.165356126e-06
1.414115795e-14
-3.548548647e-13
9.165357055e-06
-1.457784084e-13
-1.048736932e-12
9.16535655e-06
7.211987394e-13
-8.133917538e-13
9.165357434e-06
-7.901356878e-13
-2.729311935e-12
9.165354131e-06
2.353462185e-13
-4.042970753e-12
9.165352849e-06
1.483008627e-12
-8.352949741e-12
9.165347996e-06
2.270449984e-12
-1.052923635e-11
9.16534735e-06
7.251817872e-12
-2.733378642e-11
9.165341651e-06
1.249464675e-11
-3.490706349e-11
9.165354419e-06
2.524246862e-11
-1.076907045e-10
9.165346796e-06
3.433391228e-11
-1.28545742e-10
9.165499811e-06
6.372445377e-11
-4.222897736e-10
9.562116918e-11
-7.687060822e-10
9.165368145e-06
-5.017302968e-13
8.334957244e-14
9.16536785e-06
-6.986651283e-14
-4.901114213e-14
9.165366508e-06
-6.017104179e-13
-1.103630582e-12
9.165369912e-06
-6.405146672e-14
-2.116565965e-14
9.165368326e-06
1.534864541e-12
-1.4771187e-12
9.165368773e-06
1.750150994e-12
-1.376146183e-12
9.165368931e-06
2.331863101e-12
-2.947655737e-12
9.165366723e-06
2.916135704e-12
-5.848185869e-12
9.165368698e-06
6.179606542e-12
-5.903147955e-12
9.165373565e-06
1.136961928e-11
-1.724415253e-11
9.165378325e-06
1.375015022e-11
-2.147270466e-11
9.165405848e-06
2.736097427e-11
-5.310716957e-11
9.165431621e-06
3.306257754e-11
-5.184307492e-11
9.165508959e-06
4.954033255e-11
-1.166123585e-10
9.938217642e-11
-2.462803944e-10
9.16540098e-06
-8.271618386e-13
-4.209941234e-13
9.165402805e-06
7.350571004e-13
5.394360599e-13
9.165402387e-06
1.498572323e-12
1.329458433e-14
9.165404863e-06
1.069113438e-12
-6.409428176e-13
9.165402456e-06
-2.146004067e-13
-1.36127516e-12
9.165406392e-06
5.689326716e-13
-1.646238444e-12
9.165406493e-06
3.136083586e-13
-3.470545604e-12
9.165409041e-06
2.517153535e-12
-4.640312378e-12
9.165412982e-06
5.218498744e-12
-6.600838923e-12
9.165416574e-06
9.999748197e-12
-1.464306017e-11
9.165422798e-06
1.273711354e-11
-2.07648416e-11
9.165444695e-06
2.266424986e-11
-4.230749534e-11
9.165468814e-06
3.05238545e-11
-5.234215377e-11
9.165528518e-06
3.943628624e-11
-8.655552305e-11
7.155790532e-11
-1.712743072e-10
9.165436445e-06
3.307407938e-13
7.517000559e-13
9.16543541e-06
9.891202117e-13
-2.892601857e-13
9.165435476e-06
1.52568761e-12
-6.278654117e-13
9.165436189e-06
1.7935372e-13
-1.044331528e-12
9.165436005e-06
2.10721597e-13
-7.525280926e-13
9.165439758e-06
6.254329258e-13
6.825080786e-13
9.165440727e-06
4.184251888e-14
-1.84163703e-12
9.165444973e-06
2.870413509e-12
-4.095493687e-12
9.165450238e-06
3.992876338e-12
-4.149020478e-12
9.165456394e-06
4.924580065e-12
-1.037716708e-11
9.165469968e-06
7.550831925e-12
-1.362830341e-11
9.165493101e-06
1.217687973e-11
-2.338789877e-11
9.165521872e-06
1.620303232e-11
-3.215883801e-11
9.165561942e-06
1.842286301e-11
-3.952494752e-11
3.480652242e-11
-7.188540566e-11
9.165388294e-06
1.921262969e-12
9.165387494e-06
-2.851864344e-13
9.165384566e-06
-6.38485949e-13
9.165388605e-06
-1.835412636e-12
9.165387187e-06
-8.460009426e-13
9.165389447e-06
1.225134626e-12
9.165391482e-06
8.944937752e-14
9.16539506e-06
-4.215628185e-12
9.165397923e-06
-5.19192473e-12
9.165405497e-06
-6.323879269e-12
9.165419728e-06
-1.074255578e-11
9.165442027e-06
-1.813380403e-11
9.165471383e-06
-2.466754867e-11
9.165503863e-06
-2.856864228e-11
-4.677376018e-11
9.165442971e-06
-4.696568978e-13
-4.756744756e-13
9.165442208e-06
-1.520486597e-13
1.904659292e-13
9.165442133e-06
3.534201637e-13
-3.952336024e-13
9.165443261e-06
-5.935208889e-13
1.188765459e-12
9.165443717e-06
-8.320757777e-13
-4.082007172e-13
9.16544541e-06
-1.084414014e-12
-3.515875009e-13
9.165444555e-06
-2.545173341e-12
-9.639565005e-13
9.165447345e-06
-3.20542141e-12
-2.69316302e-12
9.16545052e-06
-3.950591585e-12
-5.070856972e-12
9.165459416e-06
-7.447924836e-12
-8.8835377e-12
9.165467783e-06
-1.033833595e-11
-1.071171194e-11
9.165489127e-06
-2.087862103e-11
-1.7624319e-11
9.165518768e-06
-2.750430625e-11
-2.384299905e-11
-4.022321631e-11
-3.042823135e-11
9.165445281e-06
7.998098595e-14
-4.656110364e-13
9.165446221e-06
-1.503218787e-13
2.658202644e-13
9.165445214e-06
-1.942151182e-12
-2.693122145e-13
9.165446075e-06
-1.660619405e-12
1.402351035e-13
9.165446778e-06
-1.653703576e-12
6.381201591e-13
9.165450669e-06
-2.953593993e-12
-1.06413128e-12
9.165447787e-06
-3.722628188e-12
-2.527427077e-12
9.165450281e-06
-5.520312759e-12
-4.870051075e-12
9.165450762e-06
-7.898726778e-12
-6.139033337e-12
9.165456781e-06
-1.441613854e-11
-9.613935525e-12
9.165465189e-06
-1.983612377e-11
-1.291831188e-11
9.165487637e-06
-4.306296788e-11
-2.65053394e-11
9.165512045e-06
-5.20255211e-11
-3.152737042e-11
-8.604008767e-11
-4.937959824e-11
9.165388964e-06
-1.281739436e-12
9.191414098e-13
9.165386193e-06
-2.81575446e-12
6.679135928e-13
9.165386477e-06
-1.789936522e-12
1.010118275e-12
9.165386049e-06
-1.67290265e-12
-4.500253388e-13
9.165387619e-06
-1.035024199e-12
3.734342251e-13
9.165390744e-06
-9.785131841e-13
-1.067873048e-12
9.165386705e-06
-2.8682343e-12
-4.05487936e-12
9.165385978e-06
-5.375808167e-12
-6.118562454e-12
9.165384825e-06
-7.857446921e-12
-7.565051141e-12
9.165385959e-06
-1.666242265e-11
-1.422953858e-11
9.1653835e-06
-2.054163436e-11
-1.974707892e-11
9.16539979e-06
-4.88161497e-11
-4.964141988e-11
9.165409562e-06
-5.875913922e-11
-5.807375146e-11
9.165515411e-06
-1.390688846e-10
-1.380204127e-10
-2.81305654e-10
9.165453498e-06
-5.874461751e-13
1.663580559e-12
9.165452745e-06
-1.946171461e-12
1.821727133e-12
9.165450741e-06
-1.435607573e-12
2.03027568e-12
9.165449703e-06
-1.425994722e-12
-1.384526934e-13
9.165448763e-06
-1.420977758e-12
-8.961061936e-13
9.165448867e-06
-1.694966003e-12
-2.387130683e-12
9.165446932e-06
-2.415165212e-12
-3.478251985e-12
9.165444199e-06
-2.574884506e-12
-6.542346225e-12
9.165441645e-06
-4.755594475e-12
-7.722579959e-12
9.165439008e-06
-1.236410321e-11
-1.923250625e-11
9.165437946e-06
-1.976253993e-11
-2.046126309e-11
9.165454092e-06
-5.132704627e-11
-7.020801551e-11
9.165466606e-06
-7.244088296e-11
-4.801521487e-11
9.165629453e-06
-1.799246386e-10
-2.371263318e-10
-2.875033526e-10
-4.923443257e-10
9.165388525e-06
-1.707315886e-14
1.348732017e-12
9.165389923e-06
7.081824589e-14
2.794677642e-12
9.165389799e-06
-8.914508427e-13
2.505390229e-12
9.165389261e-06
-7.161731645e-14
6.141577902e-13
9.165387496e-06
-5.875086287e-13
-5.548610548e-13
9.16538708e-06
1.080458061e-12
-2.337359426e-13
9.165383471e-06
1.347963567e-12
-2.664323338e-12
9.16537779e-06
3.835281513e-12
-7.656551542e-12
9.165366211e-06
5.636697967e-12
-1.04930947e-11
9.165349687e-06
1.282070487e-11
-3.044683139e-11
9.16531875e-06
1.947854143e-11
-3.90107529e-11
9.165281198e-06
5.072968847e-11
-1.72897367e-10
9.165188779e-06
7.149209935e-11
-1.756266469e-10
9.165559026e-06
1.800342464e-10
-1.147715091e-09
2.865058326e-10
-2.056871705e-09
9.165463327e-06
-4.982254381e-13
8.555207186e-13
9.165463656e-06
2.784329237e-13
9.278981441e-13
9.165464043e-06
5.968606792e-13
1.238056235e-12
9.165462703e-06
-5.148330886e-13
-1.206650546e-13
9.16546374e-06
1.678835128e-12
-5.437067897e-14
9.165462063e-06
1.649808804e-12
-1.978012089e-13
9.165462698e-06
2.776946818e-12
-2.679429349e-12
9.165459547e-06
3.639314678e-12
-6.014158231e-12
9.165455085e-06
6.168198819e-12
-7.259638899e-12
9.16545545e-06
1.433758745e-11
-1.727274399e-11
9.165453741e-06
1.827751791e-11
-1.846043863e-11
9.165472923e-06
4.88537113e-11
-7.025976484e-11
9.165483602e-06
5.779512522e-11
-4.727745925e-11
9.165644508e-06
1.374728438e-10
-2.364481477e-10
2.81931462e-10
-4.914862848e-10
9.165476704e-06
2.469373493e-13
1.18759775e-12
9.165474973e-06
1.707241574e-13
8.295499639e-13
9.165474246e-06
7.407585295e-13
2.525305558e-13
9.165477077e-06
1.787348999e-12
6.069687272e-13
9.16547478e-06
1.677204674e-12
-2.236124272e-13
9.165474454e-06
2.061465206e-12
-6.529891516e-13
9.165472645e-06
2.490004294e-12
-1.062867604e-12
9.165472998e-06
4.116725757e-12
-4.230743181e-12
9.165470496e-06
7.341391116e-12
-6.275222521e-12
9.165470554e-06
1.499864981e-11
-1.340535821e-11
9.165470112e-06
2.005326264e-11
-1.634989387e-11
9.165485759e-06
4.140476178e-11
-4.85564291e-11
9.165494997e-06
5.108218245e-11
-5.667141285e-11
9.16559928e-06
8.689526649e-11
-1.379898797e-10
1.707363533e-10
-2.825474882e-10
9.165380166e-06
5.333858321e-13
2.617804957e-12
9.165381152e-06
7.229360334e-13
1.441882078e-12
9.16538115e-06
5.60454888e-13
9.409958047e-13
9.165383109e-06
-4.475924197e-13
-3.676524099e-14
9.165380703e-06
-2.278817392e-13
-1.469334921e-12
9.165380612e-06
9.179362789e-13
-1.686175765e-12
9.165380356e-06
1.326117314e-12
-1.707888187e-12
9.165383389e-06
2.363983846e-12
-2.508757714e-12
9.165385965e-06
3.560895942e-12
-4.789580193e-12
9.16539074e-06
8.660852261e-12
-9.697909965e-12
9.165400386e-06
1.121307513e-11
-1.062742737e-11
9.16542084e-06
1.985780957e-11
-2.52744924e-11
9.165447313e-06
2.726894341e-11
-3.180074672e-11
9.165503537e-06
3.765545289e-11
-5.053958601e-11
7.641082451e-11
-9.990931254e-11
9.165402727e-06
1.422304217e-12
9.165402628e-06
7.840589874e-13
9.165400565e-06
-1.924358876e-13
9.16540391e-06
5.124996441e-13
9.165403161e-06
-1.900181968e-13
9.165404271e-06
-1.898045088e-12
9.165405903e-06
-2.337336329e-13
9.165407614e-06
-2.325001858e-12
9.165414409e-06
-3.494058876e-12
9.165417637e-06
-7.514607327e-12
9.165427454e-06
-8.807453266e-12
9.165450144e-06
-1.644925339e-11
9.16547792e-06
-2.278052353e-11
9.165520318e-06
-3.038662949e-11
-5.566703607e-11
9.165457679e-06
-4.270672788e-13
7.471767673e-13
9.165457395e-06
-1.138322885e-13
4.943898806e-13
9.165457779e-06
6.216253722e-13
2.112560603e-13
9.165455185e-06
-1.556857821e-12
2.990844433e-14
9.165456856e-06
1.199088354e-13
7.316815097e-13
9.165455864e-06
-2.809166482e-12
-1.787449106e-12
9.165455829e-06
-3.593385111e-12
-1.532599598e-12
9.165458545e-06
-5.008303103e-12
-2.267918422e-12
9.165461921e-06
-5.091413126e-12
-3.315643783e-12
9.165471583e-06
-7.404432885e-12
-4.77185197e-12
9.165479241e-06
-1.286083292e-11
-9.178546003e-12
9.16550043e-06
-2.746026762e-11
-1.541772217e-11
9.165529352e-06
-2.820168539e-11
-2.192398737e-11
-4.843144128e-11
-3.399598729e-11
9.165359748e-06
1.982801759e-12
-1.888350636e-13
9.165357578e-06
-7.556784793e-14
-2.796655046e-13
9.165356917e-06
-2.740282677e-14
2.836776188e-13
9.165357518e-06
-2.213786967e-12
1.182103615e-12
9.165355536e-06
-2.704577722e-12
5.420032769e-13
9.165357863e-06
-2.949882927e-12
-8.182811753e-13
9.165356191e-06
-3.765408062e-12
-1.441183313e-12
9.165357605e-06
-6.523911346e-12
-2.873274195e-12
9.165361336e-06
-8.479696401e-12
-3.713287136e-12
9.165363979e-06
-1.841090685e-11
-8.826594417e-12
9.165373156e-06
-2.231096165e-11
-1.169776033e-11
9.165401011e-06
-5.519932772e-11
-2.456204536e-11
9.165425004e-06
-5.340002617e-11
-3.537609115e-11
-1.162784275e-10
-6.175036562e-11
9.165364128e-06
-6.439669702e-13
1.71839245e-13
9.165361956e-06
-1.392267785e-12
-4.522733545e-13
9.165360508e-06
-3.330765419e-13
7.156734291e-14
9.165362176e-06
-1.239424112e-12
9.641115546e-13
9.1653622e-06
-1.368525903e-12
-2.027239215e-13
9.165362823e-06
-1.486617599e-12
7.14007132e-13
9.165360547e-06
-2.479386634e-12
-5.025292014e-13
9.165358539e-06
-5.319453028e-12
-2.630977568e-12
9.165357186e-06
-8.194861797e-12
-6.352829337e-12
9.165352189e-06
-2.125339964e-11
-1.241460517e-11
9.165351973e-06
-2.080992685e-11
-1.888556782e-11
9.165368995e-06
-6.973432244e-11
-5.073081382e-11
9.165380845e-06
-4.863642819e-11
-7.202533235e-11
-2.378202772e-10
-1.802445853e-10
9.165338861e-06
-1.064664303e-12
8.097603435e-13
9.165338826e-06
-1.52356767e-12
1.746102653e-13
9.165336001e-06
-2.032621873e-12
-5.629213015e-13
9.165338154e-06
-5.110647474e-13
1.100585419e-13
9.165338994e-06
-5.316279657e-13
-3.03979333e-13
9.165337916e-06
1.822331701e-13
-3.78244432e-13
9.165337482e-06
-9.486556146e-13
-1.22520234e-12
9.165333829e-06
-2.706832838e-12
-3.985345361e-12
9.165330025e-06
-5.849961383e-12
-6.536326654e-12
9.165324136e-06
-1.775101659e-11
-1.620815371e-11
9.165334953e-06
-2.598285309e-11
-2.599468159e-11
9.16536524e-06
-8.713149264e-11
-8.72523526e-11
9.165471893e-06
-1.00371612e-10
-1.014242302e-10
9.165678287e-06
-3.400688037e-10
-3.409131869e-10
-4.563127095e-10
9.165406843e-06
5.745951459e-14
2.132995297e-12
9.165406088e-06
-3.096301974e-13
5.972109323e-14
9.165404066e-06
-1.403741855e-12
-1.057667234e-12
9.165403994e-06
-6.157350086e-13
-6.560580704e-13
9.165403707e-06
1.320879065e-13
-5.294907767e-13
9.165399896e-06
1.860979027e-13
-1.942079415e-12
9.16539527e-06
3.863587801e-13
-1.414006448e-12
9.165385343e-06
3.432622689e-12
-5.468370041e-12
9.165371182e-06
6.983225624e-12
-9.40983761e-12
9.165336486e-06
1.89545375e-11
-2.76505563e-11
9.165296337e-06
2.816593723e-11
-4.947599708e-11
9.165177433e-06
8.623075714e-11
-2.256412203e-10
9.165188495e-06
1.004819675e-10
-3.903353157e-10
9.165832073e-06
3.400913895e-10
-2.471906318e-09
4.553769295e-10
-3.414475314e-09
9.165459003e-06
-2.347578629e-13
8.400670257e-13
9.165459151e-06
-4.687612936e-14
3.127469887e-13
9.165458824e-06
-7.649106057e-13
1.061619066e-12
9.165457075e-06
-1.027487583e-13
-2.606774489e-13
9.165458897e-06
1.208242318e-12
1.288797666e-12
9.165455652e-06
1.851693848e-12
-1.020556326e-12
9.165455432e-06
3.759678598e-12
-1.008405839e-12
9.165451959e-06
4.996692122e-12
-3.35366742e-12
9.165446502e-06
6.490591386e-12
-7.174973863e-12
9.165442846e-06
1.958709923e-11
-1.782448147e-11
9.165451988e-06
1.951179054e-11
-2.635275242e-11
9.165486364e-06
6.982486681e-11
-8.605533054e-11
9.165591368e-06
4.861623631e-11
-1.01398396e-10
9.165799442e-06
2.363279326e-10
-3.410324713e-10
4.91356275e-10
-4.566250091e-10
9.165394478e-06
1.730264125e-12
1.240482629e-12
9.165394223e-06
5.289307967e-13
2.564209682e-12
9.165396087e-06
1.549912946e-12
2.371982742e-12
9.16539602e-06
1.80728653e-12
2.143752173e-12
9.165394027e-06
4.925310679e-13
-1.902768967e-13
9.165392891e-06
1.613823776e-12
-1.000044039e-13
9.165390292e-06
2.157669144e-12
-1.587990424e-12
9.16539001e-06
5.813002849e-12
-8.601834005e-13
9.165385565e-06
7.475385111e-12
-4.137600285e-12
9.165383957e-06
1.728740342e-11
-1.184950329e-11
9.165381386e-06
2.12478027e-11
-1.85818451e-11
9.165401663e-06
5.453319855e-11
-5.028652454e-11
9.16541081e-06
5.13498229e-11
-7.187138547e-11
9.165573564e-06
1.159943144e-10
-1.782198962e-10
2.461980418e-10
-2.876618398e-10
9.165430692e-06
-3.891402236e-13
1.460987174e-12
9.165432548e-06
5.536202319e-13
2.219669582e-12
9.165431764e-06
-6.650885776e-13
1.749544751e-12
9.165431739e-06
-4.219885797e-13
2.061136104e-13
9.165432867e-06
7.551219696e-15
6.45670727e-13
9.165432541e-06
2.461599305e-13
-6.458112386e-13
9.165432998e-06
2.605913629e-12
-1.158896673e-12
9.165433043e-06
2.474650483e-12
-1.681981602e-12
9.165434736e-06
4.518786383e-12
-2.449324708e-12
9.165438541e-06
9.499721425e-12
-5.718009606e-12
9.165445299e-06
1.188075681e-11
-1.040858192e-11
9.165470765e-06
2.605660201e-11
-2.50191703e-11
9.165495581e-06
2.887463194e-11
-3.520022732e-11
9.165574094e-06
4.760673319e-11
-6.194454223e-11
1.065254397e-10
-9.728226834e-11
9.165395888e-06
1.543312812e-12
9.165395378e-06
1.547393845e-12
9.165395475e-06
1.385585687e-12
9.165399384e-06
1.244267062e-12
9.165399614e-06
-5.520676189e-13
9.16540163e-06
2.235421393e-13
9.165398741e-06
-1.699392323e-12
9.165402972e-06
-1.383074982e-13
9.165405192e-06
-2.473063003e-12
9.165411072e-06
-5.317431344e-12
9.165420445e-06
-7.327169601e-12
9.165445082e-06
-1.508359588e-11
9.165470582e-06
-2.208954811e-11
9.165522517e-06
-3.222274723e-11
-5.028320282e-11
9.165414586e-06
-5.770439379e-13
1.664200629e-12
9.165414913e-06
-2.824833808e-14
1.278366619e-12
9.165416902e-06
3.468530691e-13
1.782250985e-12
9.165413579e-06
-1.354720842e-12
-1.069312661e-12
9.165413559e-06
-4.870289668e-13
-1.929929785e-12
9.165413914e-06
-2.610048178e-12
3.165554899e-13
9.165411906e-06
-3.256177984e-12
-8.777983826e-14
9.165411849e-06
-4.40998897e-12
1.254413434e-12
9.165413826e-06
-6.255928061e-12
2.107145656e-12
9.16541832e-06
-1.379136065e-11
4.716880887e-12
9.165420222e-06
-1.833966417e-11
8.00643062e-12
9.165434974e-06
-4.925937441e-11
1.562174784e-11
9.165450012e-06
-6.189243246e-11
2.221053239e-11
-1.445296728e-10
3.209476829e-11
9.165361803e-06
1.038654092e-12
2.251021486e-12
9.165361118e-06
-8.172836873e-13
4.473751557e-13
9.165360672e-06
-3.295475987e-13
-1.932121962e-13
9.165361072e-06
-1.0822822e-12
9.742097572e-13
9.165358834e-06
-2.817949971e-12
-9.17946072e-13
9.165362503e-06
-1.392201914e-12
8.953394656e-13
9.16535957e-06
-3.019874708e-12
-3.272455308e-13
9.165360797e-06
-7.42196194e-12
2.492942996e-12
9.165360253e-06
-1.130602657e-11
3.31112157e-12
9.165358217e-06
-2.633524298e-11
5.794280847e-12
9.165353306e-06
-3.515835389e-11
1.008027384e-11
9.16536505e-06
-1.098096069e-10
2.48639585e-11
9.165359445e-06
-1.291176258e-10
3.47378193e-11
-4.228924087e-10
6.290132348e-11
9.165407262e-06
6.94047641e-13
3.092986253e-13
9.165408305e-06
2.508711298e-13
2.214154418e-12
9.165405443e-06
-6.784024922e-13
1.248793101e-13
9.165404498e-06
-2.220344038e-12
7.308650415e-13
9.165404058e-06
-2.017630916e-12
1.846676844e-12
9.165401974e-06
-2.630341268e-12
4.190385823e-13
9.16539838e-06
-4.265578485e-12
1.036151149e-12
9.165392797e-06
-7.226841592e-12
4.433063226e-12
9.165386193e-06
-1.03922658e-11
5.386218763e-12
9.165365996e-06
-3.090505209e-11
1.098668898e-11
9.165332935e-06
-4.047212212e-11
1.906747947e-11
9.165296064e-06
-1.73735812e-10
5.069583558e-11
9.165203606e-06
-1.771672042e-10
7.175121367e-11
-1.148707211e-09
1.816085802e-10
9.165414283e-06
-5.336736221e-13
2.968689125e-14
9.165414124e-06
-2.362554479e-12
-1.03964718e-12
9.165411389e-06
-2.0793099e-12
-9.115135382e-13
9.165412862e-06
-1.412991491e-12
9.164938705e-13
9.165413334e-06
-4.700048951e-13
1.342049526e-12
9.16541095e-06
-9.854546814e-13
1.881110204e-12
9.165405357e-06
-1.077767139e-12
1.729758516e-12
9.165396713e-06
-4.755074503e-12
4.316731349e-12
9.165382904e-06
-7.627737992e-12
7.33032431e-12
9.165344408e-06
-2.940609866e-11
1.608384792e-11
9.16530466e-06
-5.002264131e-11
2.641389216e-11
9.165185102e-06
-2.260453911e-10
8.750885202e-11
9.165196042e-06
-3.891924553e-10
1.016279938e-10
-2.472101669e-09
3.404948575e-10
9.165399775e-06
-8.168537001e-13
1.328939257e-12
9.165399905e-06
-1.029538837e-12
1.782495311e-12
9.165398779e-06
7.663889251e-13
1.67235839e-12
9.165399388e-06
3.8798365e-14
1.634174705e-12
9.165397236e-06
1.165308932e-12
1.03672402e-12
9.165393253e-06
1.095649259e-12
1.513878887e-12
9.16538211e-06
1.004189406e-12
1.282921116e-12
9.165365936e-06
5.460113647e-12
5.042802194e-12
9.165330123e-06
9.31893732e-12
7.238856713e-12
9.165214942e-06
2.906383169e-11
2.822031545e-11
9.165012178e-06
5.082262103e-11
5.04794337e-11
9.164111817e-06
2.257910835e-10
2.260146863e-10
9.162552717e-06
3.899556411e-10
3.897483674e-10
9.152666372e-06
2.471879239e-09
2.471956024e-09
3.414309579e-09
9.165422982e-06
3.710108948e-13
1.345500907e-12
9.16542442e-06
2.316500105e-12
2.097030753e-12
9.165423505e-06
9.002515962e-13
1.420794057e-12
9.165425316e-06
2.057268853e-12
2.330426845e-12
9.165422793e-06
3.165229921e-13
-4.016703512e-13
9.16542184e-06
2.918314138e-12
1.62816734e-12
9.165416441e-06
3.058837865e-12
1.672211384e-12
9.165406121e-06
8.451446869e-12
4.281311736e-12
9.165391372e-06
1.164766381e-11
5.217991074e-12
9.16535501e-06
3.195768761e-11
1.683316068e-11
9.165312064e-06
4.003494379e-11
2.51668151e-11
9.165192837e-06
1.739987665e-10
8.51171328e-11
9.165202613e-06
1.774647469e-10
1.01081614e-10
9.165843455e-06
1.14883883e-09
3.394508014e-10
2.055940998e-09
9.165451413e-06
1.666333251e-12
1.52301086e-12
9.165450539e-06
1.128391712e-12
1.914404081e-12
9.165449103e-06
7.44387856e-13
1.012792443e-12
9.165448269e-06
4.767209109e-13
2.812838262e-12
9.165449276e-06
1.211352233e-12
3.193167458e-13
9.165447558e-06
1.210142862e-12
5.220013284e-13
9.165444798e-06
2.402512195e-12
1.492716085e-12
9.165437632e-06
6.429872124e-12
1.944663023e-12
9.165427811e-06
1.108445237e-11
4.294422586e-12
9.165409978e-06
2.70164697e-11
1.195962737e-11
9.165375652e-06
3.589366314e-11
1.748225303e-11
9.165341009e-06