/*--------------------------------*- C++ -*----------------------------------*\
| =========                 |                                                 |
| \\      /  F ield         | OpenFOAM: The Open Source CFD Toolbox           |
|  \\    /   O peration     | Version:  4.x                                   |
|   \\  /    A nd           | Web:      www.OpenFOAM.org                      |
|    \\/     M anipulation  |                                                 |
\*---------------------------------------------------------------------------*/
FoamFile
{
    version     2.0;
    format      ascii;
    class       volScalarField;
    location    "10000";
    object      rho;
}
// * * * * * * * * * * * * * * * * * * * * * * * * * * * * * * * * * * * * * //

dimensions      [1 -3 0 0 0 0 0];

internalField   nonuniform List<scalar> 
1175
(
0.2699632447
0.2699632827
0.2699632442
0.2699632377
0.2699632616
0.2699632664
0.2699632445
0.2699632312
0.2699632317
0.2699632487
0.269963271
0.2699632637
0.2699632735
0.2699632814
0.2699633609
0.2699624417
0.2699624122
0.2699623922
0.2699624078
0.2699624127
0.2699624027
0.2699624033
0.2699623876
0.269962386
0.2699624164
0.2699623962
0.2699624318
0.2699624414
0.2699624828
0.2699625307
0.2699636605
0.2699636562
0.2699636292
0.2699635917
0.2699636508
0.2699636538
0.2699636419
0.2699636752
0.2699636782
0.2699637041
0.2699637375
0.2699637724
0.2699637933
0.2699638842
0.2699640837
0.2699638544
0.2699638205
0.2699637956
0.2699638131
0.2699638176
0.2699637687
0.2699637693
0.2699637776
0.2699637587
0.2699637173
0.2699637268
0.2699637322
0.2699638007
0.2699639734
0.269964281
0.2699629869
0.2699630069
0.2699630057
0.2699630209
0.269962984
0.2699629897
0.269963007
0.2699630253
0.2699630427
0.26996303
0.2699630545
0.2699630677
0.2699631722
0.2699634065
0.2699638439
0.2699631149
0.2699631175
0.2699630841
0.2699630687
0.2699630965
0.2699630856
0.2699630706
0.2699630879
0.2699631009
0.2699630869
0.2699630687
0.2699630899
0.269963152
0.2699633497
0.269963674
0.2699630838
0.2699630881
0.2699630691
0.2699631099
0.2699630636
0.269963106
0.2699630895
0.2699630812
0.2699631165
0.2699631117
0.2699631067
0.2699631285
0.2699631737
0.2699632795
0.2699634625
0.2699638588
0.2699638789
0.269963861
0.2699638755
0.2699638548
0.269963857
0.2699638601
0.2699638601
0.2699638651
0.2699638673
0.269963858
0.2699639023
0.2699639269
0.2699639769
0.269964122
0.2699633543
0.2699633591
0.2699633435
0.2699633491
0.2699633673
0.2699633718
0.2699633786
0.2699633831
0.2699633923
0.269963384
0.2699633959
0.2699634217
0.2699634218
0.2699634753
0.2699635222
0.2699623049
0.2699623227
0.2699623259
0.2699623162
0.2699623159
0.2699623271
0.2699623304
0.2699623253
0.2699623244
0.2699623505
0.2699623619
0.2699623537
0.2699623751
0.2699623995
0.2699630447
0.2699630353
0.2699630384
0.2699630693
0.2699630777
0.2699630812
0.2699630677
0.2699630197
0.2699630111
0.2699630243
0.2699630282
0.2699630415
0.2699630952
0.2699631777
0.2699633829
0.2699637307
0.2699637667
0.2699637433
0.2699637407
0.2699637572
0.2699638127
0.2699638573
0.2699638684
0.2699638734
0.2699638602
0.2699638354
0.2699638179
0.2699639111
0.2699641456
0.2699645455
0.2699632141
0.2699632238
0.2699632262
0.2699632299
0.2699632456
0.2699632647
0.2699632417
0.2699632846
0.2699632732
0.2699632916
0.2699633167
0.2699634023
0.269963575
0.2699639849
0.2699648882
0.2699614203
0.2699613793
0.2699614246
0.2699614483
0.269961446
0.2699614384
0.2699614327
0.2699613802
0.269961384
0.2699613578
0.2699614096
0.2699615
0.2699617029
0.2699623839
0.269963769
0.2699617678
0.2699617613
0.2699617638
0.2699617488
0.2699617402
0.2699617395
0.2699616878
0.2699616624
0.2699616323
0.2699616227
0.2699616676
0.2699617234
0.2699618886
0.2699623025
0.2699631522
0.2699627502
0.2699627334
0.2699627559
0.2699627534
0.2699628073
0.2699628343
0.269962872
0.2699628579
0.2699629009
0.2699629148
0.2699629001
0.2699629081
0.2699629439
0.2699631987
0.2699636421
0.2699637153
0.2699637283
0.2699637239
0.2699637158
0.2699637295
0.2699637552
0.2699637743
0.2699637705
0.2699638169
0.2699638514
0.2699638782
0.2699638748
0.269963936
0.2699640269
0.2699642469
0.26996229
0.2699623355
0.2699623387
0.2699623264
0.2699622828
0.2699622957
0.2699622552
0.2699622446
0.2699622028
0.2699622096
0.269962213
0.269962239
0.2699622559
0.2699622963
0.2699623904
0.2699639533
0.2699639349
0.2699639215
0.2699639226
0.2699639377
0.2699639305
0.2699639443
0.2699639175
0.2699639223
0.2699638941
0.2699639375
0.2699639125
0.2699639859
0.2699640953
0.2699640405
0.2699640168
0.2699640031
0.2699640456
0.2699640584
0.2699640656
0.2699640744
0.2699640906
0.2699640578
0.2699640302
0.2699640599
0.2699640895
0.2699641933
0.2699644316
0.269962305
0.2699623356
0.2699623664
0.2699623356
0.2699623477
0.2699623474
0.2699623517
0.2699623846
0.2699623848
0.269962374
0.2699623929
0.2699624625
0.2699626722
0.269963236
0.2699644498
0.2699642915
0.2699642493
0.2699642343
0.2699642117
0.2699641729
0.2699641612
0.2699641766
0.2699641343
0.2699641222
0.2699641549
0.2699641727
0.2699643108
0.2699648293
0.2699663127
0.2699694149
0.2699623369
0.269962342
0.2699623808
0.2699623804
0.2699623765
0.2699623462
0.2699623475
0.2699623765
0.2699623545
0.2699623632
0.2699624047
0.2699626844
0.2699634832
0.2699661356
0.2699725668
0.2699645803
0.2699645627
0.2699645783
0.2699645679
0.2699645318
0.269964598
0.2699645848
0.2699645684
0.2699646056
0.2699645981
0.2699646465
0.2699648051
0.2699652988
0.2699667532
0.2699698527
0.2699649306
0.2699648701
0.2699648899
0.2699649013
0.2699648882
0.2699648842
0.2699649021
0.2699648744
0.2699648586
0.2699648691
0.2699648645
0.2699649313
0.2699651692
0.2699657308
0.2699669444
0.2699621084
0.2699620938
0.26996211
0.2699621337
0.2699621321
0.2699620573
0.2699620782
0.269962109
0.2699621118
0.2699620928
0.2699621364
0.2699621927
0.2699622859
0.2699625094
0.2699629247
0.2699627845
0.2699627724
0.2699627455
0.2699627317
0.2699627376
0.2699627547
0.2699627664
0.2699627694
0.2699627683
0.2699627374
0.2699627807
0.2699627738
0.2699628342
0.2699629377
0.2699631161
0.2699643217
0.2699643318
0.2699643386
0.2699643607
0.269964335
0.2699643289
0.2699643162
0.2699643175
0.269964314
0.2699643159
0.2699643388
0.2699643261
0.2699643823
0.2699645684
0.2699614694
0.2699614523
0.2699614388
0.2699614266
0.2699614344
0.2699614498
0.2699614507
0.269961447
0.2699614399
0.2699614081
0.2699614543
0.2699615394
0.2699617067
0.2699621379
0.2699615303
0.26996158
0.2699615814
0.269961622
0.2699616587
0.2699616603
0.2699616348
0.2699616425
0.2699616364
0.269961629
0.2699616549
0.2699618174
0.2699623245
0.269963762
0.2699608783
0.2699609094
0.26996093
0.269960954
0.269960973
0.2699609706
0.2699609832
0.2699610125
0.2699610112
0.269960999
0.2699610721
0.2699614012
0.2699627095
0.2699672193
0.2699785695
0.2699628395
0.2699628679
0.2699628796
0.2699628932
0.2699628858
0.2699629071
0.269962874
0.2699628863
0.2699629049
0.2699629263
0.2699630742
0.2699635865
0.2699662098
0.2699772194
0.2700150081
0.2699644438
0.2699644371
0.269964436
0.2699644514
0.2699644346
0.2699644468
0.269964445
0.2699644868
0.2699644903
0.2699644822
0.2699645683
0.2699648931
0.2699662324
0.2699707985
0.2699821404
0.2699625319
0.2699625732
0.2699625654
0.2699625623
0.2699625464
0.2699625335
0.2699625298
0.2699625158
0.2699625294
0.2699625455
0.2699625821
0.2699627008
0.269963225
0.2699646618
0.2699677528
0.2699636542
0.2699636378
0.2699636087
0.2699636229
0.2699636054
0.2699636362
0.2699636436
0.2699636216
0.2699636424
0.2699636666
0.2699636391
0.2699637183
0.2699638451
0.2699642771
0.2699651888
0.2699626155
0.2699625963
0.269962613
0.2699625955
0.2699626056
0.2699626117
0.2699626176
0.2699626367
0.2699626278
0.2699626159
0.2699626563
0.2699627137
0.2699627916
0.2699629658
0.2699632611
0.2699631215
0.2699631335
0.2699631178
0.2699631413
0.2699631194
0.2699631001
0.2699630952
0.2699631042
0.2699630827
0.2699630528
0.2699630829
0.2699630976
0.2699631639
0.2699633702
0.2699614673
0.269961492
0.2699615257
0.2699615432
0.2699615804
0.2699615275
0.2699615769
0.269961634
0.2699616647
0.2699616831
0.2699617227
0.2699618322
0.2699620487
0.2699627222
0.2699629064
0.269962904
0.2699628743
0.2699628592
0.2699628434
0.2699628663
0.2699628686
0.2699628776
0.2699628872
0.2699628813
0.2699629207
0.2699631464
0.2699639476
0.2699665761
0.2699631137
0.2699631208
0.2699631291
0.2699631532
0.2699631257
0.2699631361
0.2699631371
0.2699631115
0.2699631206
0.2699631662
0.2699632976
0.2699638739
0.269966481
0.2699774785
0.2699627629
0.2699627351
0.2699627163
0.2699626861
0.2699626771
0.2699626784
0.2699626811
0.2699626745
0.2699627098
0.2699627586
0.2699629027
0.2699639766
0.2699703138
0.2700109394
0.2709501338
0.2699633785
0.2699633651
0.2699634007
0.2699634287
0.2699634713
0.2699634803
0.2699634661
0.2699634562
0.2699634583
0.2699634615
0.2699635372
0.2699641315
0.2699666955
0.2699776737
0.2700154514
0.2699641544
0.2699641873
0.2699642013
0.269964206
0.2699642296
0.269964217
0.2699642232
0.2699642197
0.26996421
0.2699642041
0.269964258
0.2699644262
0.2699652252
0.2699678658
0.2699743281
0.2699643754
0.2699643832
0.269964364
0.2699643456
0.2699643712
0.2699643753
0.2699643543
0.2699643993
0.2699644545
0.2699644866
0.2699644757
0.2699645722
0.2699648055
0.2699654864
0.2699668505
0.2699635168
0.2699635326
0.2699635615
0.269963544
0.2699635431
0.269963519
0.2699635175
0.2699635562
0.2699635774
0.2699635804
0.2699636041
0.2699636389
0.2699636959
0.2699639379
0.2699643799
0.2699618353
0.2699618243
0.2699618217
0.2699617828
0.269961763
0.2699618135
0.2699618207
0.26996178
0.2699617938
0.2699617851
0.2699618103
0.2699618143
0.2699618815
0.2699620047
0.2699630174
0.2699630207
0.2699630081
0.269962989
0.2699629697
0.269962998
0.2699630476
0.2699630843
0.2699631111
0.2699630661
0.2699631019
0.2699631866
0.2699633423
0.2699637849
0.2699627254
0.2699627225
0.2699626923
0.2699626707
0.2699626902
0.2699626805
0.269962676
0.2699626504
0.2699626112
0.2699625996
0.2699626413
0.2699627783
0.269963251
0.2699646953
0.2699633496
0.2699633517
0.2699633485
0.2699633518
0.2699633562
0.2699633459
0.2699633419
0.2699633604
0.2699633797
0.2699633853
0.2699634309
0.2699637594
0.2699650818
0.2699695911
0.2699623233
0.2699623258
0.2699623495
0.2699623455
0.2699623318
0.2699623553
0.2699623593
0.2699623735
0.2699623431
0.2699623474
0.26996247
0.2699630182
0.2699656093
0.2699766292
0.2699613534
0.2699613305
0.269961351
0.2699613129
0.2699612814
0.2699612826
0.2699613019
0.269961262
0.2699612842
0.2699613402
0.2699614573
0.2699617949
0.2699631511
0.2699676744
0.2699631752
0.2699631605
0.2699631306
0.2699631479
0.2699630964
0.2699630992
0.2699630795
0.269963088
0.2699630679
0.269963067
0.2699631167
0.2699632549
0.2699637404
0.26996515
0.2699682448
0.2699640246
0.2699640068
0.2699639937
0.2699639397
0.2699639339
0.269963956
0.2699640021
0.2699640084
0.2699640257
0.2699640211
0.269964007
0.2699640847
0.2699642506
0.2699647415
0.2699656231
0.2699629381
0.2699629263
0.2699629271
0.2699629337
0.2699629684
0.2699629372
0.2699629126
0.2699629581
0.2699629079
0.2699629231
0.2699629369
0.2699629634
0.2699630661
0.2699632102
0.2699635177
0.2699637751
0.269963786
0.2699637998
0.2699637416
0.2699637705
0.2699637844
0.2699637934
0.2699638091
0.2699638523
0.2699638489
0.2699638711
0.2699638685
0.2699638988
0.2699639611
0.2699627565
0.2699627406
0.2699627502
0.2699627932
0.2699627737
0.2699627591
0.2699627381
0.2699627398
0.2699627115
0.2699627607
0.2699627354
0.2699627166
0.2699627701
0.269963038
0.2699640912
0.269964062
0.2699640212
0.2699639945
0.2699640175
0.2699640075
0.269964026
0.269964003
0.2699640473
0.2699640527
0.2699640775
0.2699641636
0.2699643782
0.2699649974
0.2699644092
0.2699644283
0.2699643724
0.2699644024
0.2699643771
0.269964363
0.269964382
0.2699643683
0.2699644338
0.2699644674
0.2699644892
0.2699646671
0.2699651059
0.2699665436
0.2699611127
0.2699611146
0.2699611489
0.2699611817
0.2699611657
0.2699611948
0.2699612097
0.2699611616
0.2699611863
0.2699611762
0.2699611975
0.2699614758
0.2699623497
0.2699649852
0.2699629176
0.2699629085
0.2699629666
0.269962936
0.2699629524
0.2699629663
0.2699629899
0.2699629811
0.2699629893
0.2699630125
0.2699630507
0.2699631752
0.2699636523
0.2699651075
0.2699625452
0.2699625318
0.2699625615
0.2699625852
0.2699625467
0.2699625615
0.2699625628
0.2699625598
0.2699625572
0.269962553
0.2699625991
0.2699626577
0.2699628814
0.2699634938
0.2699625533
0.2699625598
0.2699625652
0.2699625791
0.2699626231
0.2699626182
0.2699625676
0.2699625511
0.2699625687
0.2699625624
0.2699626069
0.2699626381
0.2699627361
0.269962965
0.269963382
0.2699634533
0.2699634554
0.2699634564
0.2699634547
0.2699634297
0.2699634337
0.2699634285
0.2699634119
0.2699634185
0.269963449
0.2699634541
0.2699634272
0.2699634896
0.2699635846
0.2699637729
0.2699640213
0.269964003
0.2699639897
0.2699640121
0.2699639778
0.269963969
0.2699639679
0.2699639663
0.26996396
0.2699639389
0.2699639395
0.2699639291
0.2699639653
0.2699640389
0.2699638187
0.2699638238
0.269963808
0.269963828
0.2699638127
0.2699637873
0.2699637897
0.2699638211
0.2699637868
0.2699637576
0.2699637475
0.2699638385
0.2699638761
0.2699639798
0.2699621296
0.2699621531
0.2699621511
0.2699621177
0.269962099
0.2699620695
0.2699620766
0.2699620469
0.2699620586
0.2699620469
0.2699620335
0.2699620877
0.2699621552
0.2699623814
0.2699624262
0.2699624105
0.2699624157
0.2699624332
0.2699624372
0.2699623946
0.2699623759
0.269962438
0.2699624394
0.2699624859
0.2699624629
0.2699625663
0.2699627042
0.2699631394
0.2699627916
0.269962771
0.2699627426
0.2699627529
0.2699627718
0.2699627669
0.2699627234
0.2699626882
0.2699626926
0.269962685
0.2699626785
0.2699627775
0.2699630612
0.2699637332
0.2699622843
0.2699622651
0.2699622982
0.269962315
0.2699622818
0.2699622774
0.26996227
0.2699622631
0.2699622728
0.2699622758
0.2699623004
0.2699623495
0.269962499
0.2699629264
0.2699640334
0.2699640437
0.2699640492
0.2699640579
0.2699640418
0.2699640318
0.2699640301
0.2699639838
0.2699639849
0.269963997
0.2699640161
0.2699640427
0.2699641338
0.2699643393
0.2699633241
0.2699633109
0.2699632889
0.2699632874
0.2699632735
0.2699632476
0.2699632309
0.2699632365
0.2699632292
0.2699632578
0.2699632868
0.2699632675
0.2699633218
0.2699634804
0.2699624937
0.2699624986
0.2699624795
0.2699624409
0.2699624532
0.2699624843
0.269962493
0.2699624831
0.2699624807
0.2699624763
0.2699624779
0.2699625075
0.2699625117
0.2699625624
0.2699626886
0.2699634281
0.2699634238
0.2699634299
0.2699634396
0.2699634753
0.2699634767
0.2699634719
0.2699634795
0.2699634591
0.2699635052
0.2699635067
0.26996352
0.2699635263
0.2699635636
0.269962597
0.2699625955
0.2699625842
0.2699625444
0.2699625534
0.2699625127
0.2699625665
0.2699625717
0.2699626192
0.2699626326
0.2699626408
0.2699626308
0.2699626296
0.269962658
0.2699628775
0.2699628709
0.2699628602
0.269962852
0.269962881
0.2699628748
0.2699628843
0.2699629014
0.2699628965
0.2699629276
0.2699629087
0.2699629543
0.269962978
0.2699631131
0.2699628289
0.2699628306
0.2699628443
0.2699628402
0.2699628041
0.269962822
0.2699628389
0.2699628003
0.2699627919
0.2699627724
0.2699628101
0.2699628212
0.2699628908
0.2699630421
0.2699628449
0.2699628563
0.2699628859
0.2699628818
0.2699629126
0.2699628952
0.2699629074
0.2699628893
0.2699628606
0.2699628942
0.2699629149
0.269962913
0.2699630528
0.2699632898
0.2699632028
0.2699631887
0.2699631625
0.2699631762
0.2699631779
0.2699631747
0.2699632179
0.2699632255
0.2699632406
0.2699632459
0.2699632482
0.269963306
0.2699633678
0.2699635323
0.2699653434
0.2699653286
0.2699653022
0.2699652932
0.2699653012
0.2699653289
0.2699653362
0.2699653264
0.2699653175
0.2699653049
0.2699653148
0.269965321
0.269965343
0.2699654465
0.2699631565
0.2699631462
0.269963167
0.2699631747
0.2699631568
0.2699631437
0.2699631263
0.2699631235
0.2699631531
0.2699631078
0.2699631385
0.2699631603
0.2699631789
0.2699632079
0.2699631069
0.2699631157
0.2699630946
0.2699630893
0.2699630762
0.2699630745
0.2699630838
0.2699630843
0.2699630844
0.2699630692
0.2699631008
0.2699631135
0.2699631197
0.2699631436
)
;

boundaryField
{
    top
    {
        type            calculated;
        value           nonuniform List<scalar> 
134
(
0.2699633543
0.26996229
0.2699627845
0.2699626155
0.2699635168
0.2699629381
0.2699634533
0.2699624937
0.2699631069
0.2699633591
0.2699623355
0.2699627724
0.2699625963
0.2699635326
0.2699629263
0.2699634554
0.2699624986
0.2699631157
0.2699633435
0.2699623387
0.2699627455
0.269962613
0.2699635615
0.2699629271
0.2699634564
0.2699624795
0.2699630946
0.2699633491
0.2699623264
0.2699627317
0.2699625955
0.269963544
0.2699629337
0.2699634547
0.2699624409
0.2699630893
0.2699633673
0.2699622828
0.2699627376
0.2699626056
0.2699635431
0.2699629684
0.2699634297
0.2699624532
0.2699630762
0.2699633718
0.2699622957
0.2699627547
0.2699626117
0.269963519
0.2699629372
0.2699634337
0.2699624843
0.2699630745
0.2699633786
0.2699622552
0.2699627664
0.2699626176
0.2699635175
0.2699629126
0.2699634285
0.269962493
0.2699630838
0.2699633831
0.2699622446
0.2699627694
0.2699626367
0.2699635562
0.2699629581
0.2699634119
0.2699624831
0.2699630843
0.2699633923
0.2699622028
0.2699627683
0.2699626278
0.2699635774
0.2699629079
0.2699634185
0.2699624807
0.2699630844
0.269963384
0.2699622096
0.2699627374
0.2699626159
0.2699635804
0.2699629231
0.269963449
0.2699624763
0.2699630692
0.2699633959
0.269962213
0.2699627807
0.2699626563
0.2699636041
0.2699629369
0.2699634541
0.2699624779
0.2699631008
0.2699634217
0.269962239
0.2699627738
0.2699627137
0.2699636389
0.2699629634
0.2699634272
0.2699625075
0.2699631135
0.2699634218
0.2699622559
0.2699628342
0.2699627916
0.2699636959
0.2699630661
0.2699634896
0.2699625117
0.2699631197
0.2699634753
0.2699622963
0.2699629377
0.2699629658
0.2699639379
0.2699632102
0.2699635846
0.2699625624
0.2699631436
0.2699635222
0.2699623904
0.2699631161
0.2699632611
0.2699643799
0.2699635177
0.2699637729
0.2699626886
)
;
    }
    bottom
    {
        type            calculated;
        value           nonuniform List<scalar> 
127
(
0.2699632447
0.2699623049
0.2699639533
0.2699643217
0.2699631215
0.2699618353
0.2699637751
0.2699640213
0.2699634281
0.2699632827
0.2699623227
0.2699639349
0.2699643318
0.2699631335
0.2699618243
0.269963786
0.269964003
0.2699634238
0.2699632442
0.2699623259
0.2699639215
0.2699643386
0.2699631178
0.2699618217
0.2699637998
0.2699639897
0.2699634299
0.2699632377
0.2699623162
0.2699639226
0.2699643607
0.2699631413
0.2699617828
0.2699637416
0.2699640121
0.2699634396
0.2699632616
0.2699623159
0.2699639377
0.269964335
0.2699631194
0.269961763
0.2699637705
0.2699639778
0.2699634753
0.2699632664
0.2699623271
0.2699639305
0.2699643289
0.2699631001
0.2699618135
0.2699637844
0.269963969
0.2699634767
0.2699632445
0.2699623304
0.2699639443
0.2699643162
0.2699630952
0.2699618207
0.2699637934
0.2699639679
0.2699634719
0.2699632312
0.2699623253
0.2699639175
0.2699643175
0.2699631042
0.26996178
0.2699638091
0.2699639663
0.2699634795
0.2699632317
0.2699623244
0.2699639223
0.269964314
0.2699630827
0.2699617938
0.2699638523
0.26996396
0.2699634591
0.2699632487
0.2699623505
0.2699638941
0.2699643159
0.2699630528
0.2699617851
0.2699638489
0.2699639389
0.2699635052
0.269963271
0.2699623619
0.2699639375
0.2699643388
0.2699630829
0.2699618103
0.2699638711
0.2699639395
0.2699635067
0.2699632637
0.2699623537
0.2699639125
0.2699643261
0.2699630976
0.2699618143
0.2699638685
0.2699639291
0.26996352
0.2699632735
0.2699623751
0.2699639859
0.2699643823
0.2699631639
0.2699618815
0.2699638988
0.2699639653
0.2699635263
0.2699632814
0.2699623995
0.2699640953
0.2699645684
0.2699633702
0.2699620047
0.2699639611
0.2699640389
0.2699635636
0.2699633609
)
;
    }
    side-walls
    {
        type            calculated;
        value           nonuniform List<scalar> 
261
(
0.2699632447
0.2699624417
0.2699636605
0.2699638544
0.2699629869
0.2699631149
0.2699630838
0.2699638588
0.2699633543
0.2699632827
0.2699624122
0.2699636562
0.2699638205
0.2699630069
0.2699631175
0.2699630881
0.2699638789
0.2699633591
0.2699632442
0.2699623922
0.2699636292
0.2699637956
0.2699630057
0.2699630841
0.2699630691
0.269963861
0.2699633435
0.2699632377
0.2699624078
0.2699635917
0.2699638131
0.2699630209
0.2699630687
0.2699631099
0.2699638755
0.2699633491
0.2699632616
0.2699624127
0.2699636508
0.2699638176
0.269962984
0.2699630965
0.2699630636
0.2699638548
0.2699633673
0.2699632664
0.2699624027
0.2699636538
0.2699637687
0.2699629897
0.2699630856
0.269963106
0.269963857
0.2699633718
0.2699632445
0.2699624033
0.2699636419
0.2699637693
0.269963007
0.2699630706
0.2699630895
0.2699638601
0.2699633786
0.2699632312
0.2699623876
0.2699636752
0.2699637776
0.2699630253
0.2699630879
0.2699630812
0.2699638601
0.2699633831
0.2699632317
0.269962386
0.2699636782
0.2699637587
0.2699630427
0.2699631009
0.2699631165
0.2699638651
0.2699633923
0.2699632487
0.2699624164
0.2699637041
0.2699637173
0.26996303
0.2699630869
0.2699631117
0.2699638673
0.269963384
0.269963271
0.2699623962
0.2699637375
0.2699637268
0.2699630545
0.2699630687
0.2699631067
0.269963858
0.2699633959
0.2699632637
0.2699624318
0.2699637724
0.2699637322
0.2699630677
0.2699630899
0.2699631285
0.2699639023
0.2699634217
0.2699632735
0.2699624414
0.2699637933
0.2699638007
0.2699631722
0.269963152
0.2699631737
0.2699639269
0.2699634218
0.2699632814
0.2699624828
0.2699638842
0.2699639734
0.2699634065
0.2699633497
0.2699632795
0.2699639769
0.2699634753
0.2699633609
0.2699625307
0.2699640837
0.269964281
0.2699638439
0.269963674
0.2699634625
0.269964122
0.2699635222
0.2699634281
0.269962597
0.2699628775
0.2699628289
0.2699628449
0.2699632028
0.2699653434
0.2699631565
0.2699631069
0.2699634238
0.2699625955
0.2699628709
0.2699628306
0.2699628563
0.2699631887
0.2699653286
0.2699631462
0.2699631157
0.2699634299
0.2699625842
0.2699628602
0.2699628443
0.2699628859
0.2699631625
0.2699653022
0.269963167
0.2699630946
0.2699634396
0.2699625444
0.269962852
0.2699628402
0.2699628818
0.2699631762
0.2699652932
0.2699631747
0.2699630893
0.2699634753
0.2699625534
0.269962881
0.2699628041
0.2699629126
0.2699631779
0.2699653012
0.2699631568
0.2699630762
0.2699634767
0.2699625127
0.2699628748
0.269962822
0.2699628952
0.2699631747
0.2699653289
0.2699631437
0.2699630745
0.2699634719
0.2699625665
0.2699628843
0.2699628389
0.2699629074
0.2699632179
0.2699653362
0.2699631263
0.2699630838
0.2699634795
0.2699625717
0.2699629014
0.2699628003
0.2699628893
0.2699632255
0.2699653264
0.2699631235
0.2699630843
0.2699634591
0.2699626192
0.2699628965
0.2699627919
0.2699628606
0.2699632406
0.2699653175
0.2699631531
0.2699630844
0.2699635052
0.2699626326
0.2699629276
0.2699627724
0.2699628942
0.2699632459
0.2699653049
0.2699631078
0.2699630692
0.2699635067
0.2699626408
0.2699629087
0.2699628101
0.2699629149
0.2699632482
0.2699653148
0.2699631385
0.2699631008
0.26996352
0.2699626308
0.2699629543
0.2699628212
0.269962913
0.269963306
0.269965321
0.2699631603
0.2699631135
0.2699635263
0.2699626296
0.269962978
0.2699628908
0.2699630528
0.2699633678
0.269965343
0.2699631789
0.2699631197
0.2699635636
0.269962658
0.2699631131
0.2699630421
0.2699632898
0.2699635323
0.2699654465
0.2699632079
0.2699631436
)
;
    }
    inlet
    {
        type            calculated;
        value           nonuniform List<scalar> 
81
(
0.2699632447
0.2699624417
0.2699636605
0.2699638544
0.2699629869
0.2699631149
0.2699630838
0.2699638588
0.2699633543
0.2699623049
0.2699630447
0.2699637307
0.2699632141
0.2699614203
0.2699617678
0.2699627502
0.2699637153
0.26996229
0.2699639533
0.2699640405
0.269962305
0.2699642915
0.2699623369
0.2699645803
0.2699649306
0.2699621084
0.2699627845
0.2699643217
0.2699614694
0.2699615303
0.2699608783
0.2699628395
0.2699644438
0.2699625319
0.2699636542
0.2699626155
0.2699631215
0.2699614673
0.2699629064
0.2699631137
0.2699627629
0.2699633785
0.2699641544
0.2699643754
0.2699635168
0.2699618353
0.2699630174
0.2699627254
0.2699633496
0.2699623233
0.2699613534
0.2699631752
0.2699640246
0.2699629381
0.2699637751
0.2699627565
0.2699640912
0.2699644092
0.2699611127
0.2699629176
0.2699625452
0.2699625533
0.2699634533
0.2699640213
0.2699638187
0.2699621296
0.2699624262
0.2699627916
0.2699622843
0.2699640334
0.2699633241
0.2699624937
0.2699634281
0.269962597
0.2699628775
0.2699628289
0.2699628449
0.2699632028
0.2699653434
0.2699631565
0.2699631069
)
;
    }
    outlet
    {
        type            calculated;
        value           nonuniform 0();
    }
    procBoundary0to1
    {
        type            processor;
        value           nonuniform List<scalar> 
97
(
0.2699634477
0.2699625054
0.2699626841
0.2699643893
0.2699647763
0.2699644815
0.2699641081
0.2699637241
0.2699642471
0.2699636494
0.2699625054
0.2699625054
0.269963685
0.2699648715
0.2699651908
0.2699660989
0.2699653716
0.2699643933
0.2699642343
0.2699645513
0.2699625532
0.2699642647
0.2699648715
0.2699648715
0.2699659761
0.2699668751
0.2699726975
0.2699772691
0.2699731983
0.2699685312
0.2699635905
0.2699634567
0.2699649425
0.2699630725
0.2699668751
0.2699668751
0.269986038
0.2700152304
0.2700203524
0.2699896403
0.2699711066
0.2699663237
0.2699637948
0.2699638125
0.2699640839
0.2699729738
0.2700152304
0.2700152304
0.2708133814
0.2700143924
0.2700207979
0.2699790282
0.2699790576
0.2699684656
0.2699650046
0.2699623606
0.2699646796
0.2699678257
0.2699809335
0.2700143924
0.2699790282
0.2699790282
0.2699715808
0.2699646117
0.2699668105
0.2699640243
0.2699641447
0.2699634373
0.2699662127
0.2699696399
0.2699713475
0.2699682168
0.2699646117
0.2699646117
0.2699640425
0.269963645
0.2699641029
0.2699641448
0.2699641867
0.2699627792
0.269964022
0.2699651563
0.2699638005
0.2699647359
0.269963645
0.269963645
0.2699627812
0.2699631721
0.2699636259
0.269962743
0.2699633154
0.2699633589
0.2699636977
0.2699638235
0.2699656448
0.2699633052
0.2699631721
)
;
    }
}


// ************************************************************************* //
