/*--------------------------------*- C++ -*----------------------------------*\
| =========                 |                                                 |
| \\      /  F ield         | OpenFOAM: The Open Source CFD Toolbox           |
|  \\    /   O peration     | Version:  4.x                                   |
|   \\  /    A nd           | Web:      www.OpenFOAM.org                      |
|    \\/     M anipulation  |                                                 |
\*---------------------------------------------------------------------------*/
FoamFile
{
    version     2.0;
    format      ascii;
    class       volScalarField;
    location    "10000";
    object      T;
}
// * * * * * * * * * * * * * * * * * * * * * * * * * * * * * * * * * * * * * //

dimensions      [0 0 0 1 0 0 0];

internalField   nonuniform List<scalar> 
1175
(
1223.149566
1223.149394
1223.149568
1223.149598
1223.149489
1223.149468
1223.149567
1223.149628
1223.149627
1223.149555
1223.149466
1223.149532
1223.149566
1223.149701
1223.149672
1223.153204
1223.153338
1223.153429
1223.153358
1223.153336
1223.153381
1223.153379
1223.15345
1223.15346
1223.153329
1223.15344
1223.153331
1223.153418
1223.153521
1223.153867
1223.147682
1223.147702
1223.147824
1223.147994
1223.147726
1223.147713
1223.147767
1223.147617
1223.147607
1223.147501
1223.147382
1223.147318
1223.147467
1223.147612
1223.147791
1223.146804
1223.146958
1223.14707
1223.146991
1223.146971
1223.147192
1223.14719
1223.147153
1223.147244
1223.147447
1223.147454
1223.147579
1223.147673
1223.147845
1223.148319
1223.150734
1223.150644
1223.150649
1223.15058
1223.150747
1223.150721
1223.150644
1223.150562
1223.150489
1223.150565
1223.150514
1223.150637
1223.150675
1223.15086
1223.151349
1223.150154
1223.150142
1223.150294
1223.150364
1223.150237
1223.150287
1223.150355
1223.150278
1223.150225
1223.150304
1223.150436
1223.150489
1223.150612
1223.15067
1223.151069
1223.150295
1223.150276
1223.150362
1223.150177
1223.150387
1223.150195
1223.15027
1223.150308
1223.150152
1223.150184
1223.15024
1223.150235
1223.150274
1223.150352
1223.150606
1223.146784
1223.146693
1223.146774
1223.146708
1223.146802
1223.146792
1223.146778
1223.146779
1223.146758
1223.146755
1223.146817
1223.146668
1223.146687
1223.146752
1223.146657
1223.149069
1223.149048
1223.149119
1223.149093
1223.149011
1223.14899
1223.14896
1223.14894
1223.1489
1223.148942
1223.1489
1223.148816
1223.148894
1223.148822
1223.148941
1223.153824
1223.153744
1223.153729
1223.153773
1223.153774
1223.153724
1223.153709
1223.153733
1223.153739
1223.153627
1223.153595
1223.153685
1223.153718
1223.153898
1223.150472
1223.150515
1223.150501
1223.150361
1223.150323
1223.150307
1223.150369
1223.150587
1223.150629
1223.15058
1223.150595
1223.150628
1223.15063
1223.15082
1223.150987
1223.147364
1223.147201
1223.147307
1223.147319
1223.147244
1223.146993
1223.146791
1223.146742
1223.146725
1223.146804
1223.146978
1223.147245
1223.147346
1223.147546
1223.148214
1223.149705
1223.149661
1223.14965
1223.149633
1223.149562
1223.149476
1223.149581
1223.149388
1223.149448
1223.149394
1223.149382
1223.149328
1223.149536
1223.150219
1223.151239
1223.157832
1223.158018
1223.157813
1223.157706
1223.157716
1223.15775
1223.157777
1223.158017
1223.158009
1223.158164
1223.158058
1223.158089
1223.158558
1223.159276
1223.161003
1223.156258
1223.156287
1223.156276
1223.156344
1223.156383
1223.156386
1223.156621
1223.156738
1223.156883
1223.156956
1223.156855
1223.156935
1223.157177
1223.157842
1223.159104
1223.151807
1223.151883
1223.151781
1223.151792
1223.151548
1223.151426
1223.151255
1223.151321
1223.151131
1223.151087
1223.151216
1223.151368
1223.151728
1223.151836
1223.152308
1223.147434
1223.147375
1223.147395
1223.147432
1223.14737
1223.147253
1223.147167
1223.147185
1223.146978
1223.146833
1223.146744
1223.146853
1223.146821
1223.146972
1223.147072
1223.153892
1223.153685
1223.153671
1223.153727
1223.153924
1223.153866
1223.154049
1223.154099
1223.15429
1223.154266
1223.15427
1223.154204
1223.154258
1223.154366
1223.154503
1223.146355
1223.146439
1223.1465
1223.146495
1223.146427
1223.146459
1223.146397
1223.146519
1223.146501
1223.146639
1223.146476
1223.146683
1223.146594
1223.146656
1223.145961
1223.146068
1223.14613
1223.145937
1223.145879
1223.145847
1223.145807
1223.145736
1223.14589
1223.146034
1223.14596
1223.146015
1223.146068
1223.14625
1223.153824
1223.153685
1223.153546
1223.153685
1223.153631
1223.153632
1223.153613
1223.153466
1223.153476
1223.153561
1223.153604
1223.153719
1223.154069
1223.154899
1223.156239
1223.144823
1223.145015
1223.145083
1223.145185
1223.145361
1223.145414
1223.145345
1223.145541
1223.145611
1223.145525
1223.14568
1223.145916
1223.146448
1223.148033
1223.151878
1223.153679
1223.153656
1223.15348
1223.153482
1223.1535
1223.153638
1223.153633
1223.153506
1223.153625
1223.153664
1223.153794
1223.153781
1223.154799
1223.157942
1223.165829
1223.143515
1223.143595
1223.143524
1223.143571
1223.143734
1223.143435
1223.143496
1223.143574
1223.143421
1223.143517
1223.143534
1223.143676
1223.144321
1223.146037
1223.149894
1223.141927
1223.142202
1223.142112
1223.142061
1223.14212
1223.142138
1223.142058
1223.142186
1223.142267
1223.142256
1223.142406
1223.142533
1223.142756
1223.143595
1223.144937
1223.154714
1223.154781
1223.154707
1223.1546
1223.154607
1223.154946
1223.154852
1223.154714
1223.154707
1223.154812
1223.154675
1223.154609
1223.15471
1223.154959
1223.155558
1223.151651
1223.151706
1223.151828
1223.15189
1223.151864
1223.151786
1223.151734
1223.151721
1223.151729
1223.15188
1223.151717
1223.151842
1223.151812
1223.151901
1223.152175
1223.144686
1223.144641
1223.14461
1223.14451
1223.144626
1223.144654
1223.144712
1223.144707
1223.144728
1223.144735
1223.144682
1223.144888
1223.145038
1223.145149
1223.15761
1223.157687
1223.157748
1223.157804
1223.157768
1223.157699
1223.157695
1223.157714
1223.157755
1223.157928
1223.157821
1223.157769
1223.158001
1223.158587
1223.157334
1223.157109
1223.157102
1223.156918
1223.156752
1223.156745
1223.156862
1223.156831
1223.156874
1223.156969
1223.157088
1223.157213
1223.157797
1223.159589
1223.160288
1223.160147
1223.160054
1223.159945
1223.159859
1223.15987
1223.159815
1223.159688
1223.15972
1223.159888
1223.160035
1223.160517
1223.162229
1223.167831
1223.181768
1223.151402
1223.151273
1223.15122
1223.151159
1223.151192
1223.151096
1223.151248
1223.1512
1223.151149
1223.151203
1223.151235
1223.152167
1223.155111
1223.168645
1223.213531
1223.144133
1223.144163
1223.144169
1223.144099
1223.144175
1223.14412
1223.14413
1223.143946
1223.143957
1223.144106
1223.144195
1223.144695
1223.146267
1223.151614
1223.165589
1223.152796
1223.152609
1223.152644
1223.152658
1223.15273
1223.152789
1223.152806
1223.152874
1223.152828
1223.152817
1223.152887
1223.15321
1223.153717
1223.155512
1223.159408
1223.147711
1223.147785
1223.147917
1223.147853
1223.147932
1223.147793
1223.147759
1223.147861
1223.147775
1223.147695
1223.147922
1223.147896
1223.148312
1223.148895
1223.149877
1223.152417
1223.152504
1223.152428
1223.152508
1223.152462
1223.152434
1223.152408
1223.152323
1223.152368
1223.152438
1223.152305
1223.152194
1223.152245
1223.15241
1223.15294
1223.150124
1223.15007
1223.150141
1223.150035
1223.150134
1223.150222
1223.150244
1223.150205
1223.150308
1223.150462
1223.150385
1223.150502
1223.150713
1223.151025
1223.157619
1223.157507
1223.157354
1223.157275
1223.157107
1223.157347
1223.157124
1223.156867
1223.156738
1223.15669
1223.156639
1223.156584
1223.156991
1223.157743
1223.151099
1223.15111
1223.151245
1223.151313
1223.151385
1223.151281
1223.151271
1223.151236
1223.151211
1223.151316
1223.151457
1223.151688
1223.152695
1223.155945
1223.15016
1223.150128
1223.15009
1223.149981
1223.150106
1223.150059
1223.150056
1223.150179
1223.150171
1223.150116
1223.150223
1223.150864
1223.153882
1223.167471
1223.151749
1223.151875
1223.15196
1223.152097
1223.152138
1223.152133
1223.152122
1223.152161
1223.152045
1223.152039
1223.152508
1223.153838
1223.161773
1223.211542
1220.584528
1223.14896
1223.149021
1223.148859
1223.148732
1223.14854
1223.148499
1223.148565
1223.148617
1223.148641
1223.148778
1223.149137
1223.149697
1223.15291
1223.166586
1223.211523
1223.145445
1223.145295
1223.145232
1223.145211
1223.145104
1223.145161
1223.145134
1223.145155
1223.145217
1223.145323
1223.145397
1223.145889
1223.146906
1223.150102
1223.157849
1223.144443
1223.144408
1223.144495
1223.144578
1223.144462
1223.144444
1223.14454
1223.144338
1223.144098
1223.143988
1223.144166
1223.14417
1223.144501
1223.145219
1223.147041
1223.148333
1223.148262
1223.148131
1223.14821
1223.148214
1223.148324
1223.148331
1223.148157
1223.148066
1223.148071
1223.148024
1223.14805
1223.148302
1223.148453
1223.14892
1223.155952
1223.156002
1223.156014
1223.15619
1223.156279
1223.156051
1223.156019
1223.156204
1223.156147
1223.156202
1223.156138
1223.156269
1223.156368
1223.156764
1223.150596
1223.150581
1223.150638
1223.150725
1223.150812
1223.150684
1223.15046
1223.150296
1223.150183
1223.150416
1223.150356
1223.150306
1223.15059
1223.151125
1223.151919
1223.151932
1223.152069
1223.152167
1223.152078
1223.152123
1223.152144
1223.152264
1223.152457
1223.152571
1223.152619
1223.152859
1223.153599
1223.15536
1223.149091
1223.149081
1223.149096
1223.149081
1223.149061
1223.149108
1223.149128
1223.14905
1223.148989
1223.149076
1223.149348
1223.149832
1223.15148
1223.157084
1223.153741
1223.15373
1223.153622
1223.15364
1223.153702
1223.153596
1223.15358
1223.153523
1223.153694
1223.153826
1223.153973
1223.154742
1223.157831
1223.171318
1223.158135
1223.158239
1223.158146
1223.158319
1223.158462
1223.158457
1223.15837
1223.158557
1223.158483
1223.158342
1223.15829
1223.158733
1223.160228
1223.165768
1223.149881
1223.149948
1223.150083
1223.150005
1223.150238
1223.150225
1223.150316
1223.150281
1223.150388
1223.150454
1223.150465
1223.1507
1223.151382
1223.153301
1223.157179
1223.146033
1223.146113
1223.146172
1223.146417
1223.146443
1223.146343
1223.146135
1223.146109
1223.146039
1223.146089
1223.146255
1223.146236
1223.146475
1223.146791
1223.147909
1223.150955
1223.151009
1223.151005
1223.150975
1223.150818
1223.150959
1223.151071
1223.150867
1223.151099
1223.151046
1223.151033
1223.151063
1223.151001
1223.151302
1223.151777
1223.147163
1223.147113
1223.147051
1223.147315
1223.147184
1223.147121
1223.14708
1223.14701
1223.146818
1223.146844
1223.146777
1223.146883
1223.146989
1223.147264
1223.151778
1223.15185
1223.151807
1223.151612
1223.1517
1223.151766
1223.151862
1223.151856
1223.15199
1223.151786
1223.151962
1223.152235
1223.152516
1223.152564
1223.145731
1223.145863
1223.146048
1223.146169
1223.146065
1223.14611
1223.146027
1223.146134
1223.145943
1223.145955
1223.145972
1223.146011
1223.14634
1223.146918
1223.14429
1223.144204
1223.144457
1223.144321
1223.144436
1223.1445
1223.144415
1223.144481
1223.144199
1223.144109
1223.144246
1223.144301
1223.145195
1223.146986
1223.159226
1223.159217
1223.159062
1223.158913
1223.158986
1223.158854
1223.158788
1223.15901
1223.158917
1223.159042
1223.159264
1223.159257
1223.159934
1223.163154
1223.151048
1223.15109
1223.150826
1223.150965
1223.15089
1223.150828
1223.150722
1223.150766
1223.150744
1223.1507
1223.150764
1223.151061
1223.151781
1223.153493
1223.152735
1223.152796
1223.152662
1223.152554
1223.152729
1223.152662
1223.152657
1223.152673
1223.152694
1223.15275
1223.15267
1223.152834
1223.153121
1223.153731
1223.152699
1223.152669
1223.152645
1223.152582
1223.152383
1223.152405
1223.152634
1223.152711
1223.152636
1223.152684
1223.152544
1223.152591
1223.15267
1223.152895
1223.153486
1223.148621
1223.148611
1223.148607
1223.148615
1223.148728
1223.14871
1223.148734
1223.14881
1223.148783
1223.148656
1223.148666
1223.148882
1223.148843
1223.14897
1223.1492
1223.146047
1223.146131
1223.146191
1223.146089
1223.146245
1223.146285
1223.14629
1223.146298
1223.146328
1223.146431
1223.146447
1223.146547
1223.146514
1223.146471
1223.146965
1223.146942
1223.147014
1223.146923
1223.146993
1223.147108
1223.147097
1223.146956
1223.147115
1223.147258
1223.147336
1223.147017
1223.147092
1223.147186
1223.154618
1223.154512
1223.154521
1223.154673
1223.154757
1223.154891
1223.154859
1223.154995
1223.154948
1223.15502
1223.155142
1223.155084
1223.155302
1223.155539
1223.153275
1223.153346
1223.153322
1223.153243
1223.153225
1223.153418
1223.153503
1223.153224
1223.153226
1223.153045
1223.153251
1223.153116
1223.153481
1223.15405
1223.151619
1223.151712
1223.151841
1223.151794
1223.151709
1223.151731
1223.151929
1223.152091
1223.15208
1223.152151
1223.152309
1223.152301
1223.152404
1223.153163
1223.153918
1223.154005
1223.153854
1223.153778
1223.153929
1223.153949
1223.153983
1223.154016
1223.153981
1223.153997
1223.153987
1223.154098
1223.154411
1223.155014
1223.145993
1223.145946
1223.145921
1223.145882
1223.145955
1223.146
1223.146008
1223.146219
1223.14622
1223.146184
1223.146159
1223.146227
1223.146337
1223.146668
1223.149207
1223.149266
1223.149366
1223.149372
1223.149436
1223.149553
1223.149629
1223.149604
1223.149641
1223.149522
1223.149423
1223.149605
1223.149603
1223.149448
1223.152969
1223.152947
1223.153033
1223.153208
1223.153152
1223.153011
1223.152972
1223.153018
1223.153031
1223.153057
1223.15307
1223.152988
1223.153099
1223.15316
1223.153152
1223.148735
1223.148755
1223.148727
1223.148683
1223.148521
1223.148515
1223.148537
1223.148503
1223.148597
1223.148393
1223.148398
1223.148371
1223.148421
1223.148422
1223.152501
1223.152508
1223.152559
1223.152739
1223.152699
1223.152883
1223.152639
1223.152616
1223.152403
1223.152349
1223.152331
1223.152429
1223.152565
1223.152727
1223.15123
1223.15126
1223.151308
1223.151345
1223.151214
1223.151242
1223.151199
1223.151123
1223.151148
1223.151019
1223.151137
1223.151025
1223.151161
1223.151106
1223.15145
1223.151442
1223.15138
1223.151399
1223.151562
1223.151481
1223.151405
1223.151582
1223.151624
1223.151728
1223.151608
1223.151707
1223.151795
1223.152064
1223.151378
1223.151326
1223.151192
1223.15121
1223.151071
1223.15115
1223.151095
1223.151179
1223.151314
1223.15118
1223.151146
1223.151338
1223.151216
1223.151389
1223.149756
1223.14982
1223.149939
1223.149877
1223.149869
1223.149883
1223.149688
1223.149655
1223.149591
1223.149583
1223.149623
1223.149511
1223.149634
1223.149843
1223.140057
1223.140125
1223.140244
1223.140285
1223.140249
1223.140123
1223.14009
1223.140136
1223.140179
1223.140247
1223.140236
1223.140302
1223.140445
1223.140533
1223.149966
1223.150012
1223.149918
1223.149883
1223.149965
1223.150024
1223.150103
1223.150116
1223.149984
1223.150196
1223.150077
1223.15003
1223.150077
1223.150236
1223.150191
1223.150151
1223.150246
1223.15027
1223.15033
1223.150337
1223.150295
1223.150294
1223.150294
1223.150368
1223.150237
1223.150213
1223.150263
1223.150325
)
;

boundaryField
{
    top
    {
        type            zeroGradient;
    }
    bottom
    {
        type            zeroGradient;
    }
    side-walls
    {
        type            zeroGradient;
    }
    inlet
    {
        type            zeroGradient;
    }
    outlet
    {
        type            zeroGradient;
    }
    procBoundary0to1
    {
        type            processor;
        value           nonuniform List<scalar> 
97
(
1223.149848
1223.153982
1223.154113
1223.148147
1223.148936
1223.152058
1223.151963
1223.151161
1223.147032
1223.148934
1223.153982
1223.153982
1223.151365
1223.146737
1223.148981
1223.152632
1223.163129
1223.16036
1223.153314
1223.14744
1223.154707
1223.146971
1223.146737
1223.146737
1223.158328
1223.163385
1223.156123
1223.171772
1223.153854
1223.146751
1223.156231
1223.152372
1223.145322
1223.159466
1223.163385
1223.163385
1223.191163
1223.212516
1223.219977
1223.174842
1223.163331
1223.151614
1223.153383
1223.151491
1223.159576
1223.163985
1223.212516
1223.212516
1220.419667
1223.216313
1223.217958
1223.179688
1223.163669
1223.14911
1223.149688
1223.15702
1223.152184
1223.159078
1223.171056
1223.216313
1223.179688
1223.179688
1223.161183
1223.155505
1223.149409
1223.152343
1223.147515
1223.153235
1223.148251
1223.150858
1223.171353
1223.157306
1223.155505
1223.155505
1223.154183
1223.149799
1223.149445
1223.146554
1223.147344
1223.156217
1223.155164
1223.154717
1223.156167
1223.147352
1223.149799
1223.149799
1223.153674
1223.150528
1223.148471
1223.152905
1223.151272
1223.152497
1223.152011
1223.150392
1223.140718
1223.150358
1223.150528
)
;
    }
}


// ************************************************************************* //
