/*--------------------------------*- C++ -*----------------------------------*\
| =========                 |                                                 |
| \\      /  F ield         | OpenFOAM: The Open Source CFD Toolbox           |
|  \\    /   O peration     | Version:  4.x                                   |
|   \\  /    A nd           | Web:      www.OpenFOAM.org                      |
|    \\/     M anipulation  |                                                 |
\*---------------------------------------------------------------------------*/
FoamFile
{
    version     2.0;
    format      ascii;
    class       volVectorField;
    location    "10000";
    object      U;
}
// * * * * * * * * * * * * * * * * * * * * * * * * * * * * * * * * * * * * * //

dimensions      [0 1 -1 0 0 0 0];

internalField   nonuniform List<vector> 
1175
(
(0.01100000007 -8.854763395e-11 2.021577406e-10)
(0.01099999635 -2.338340438e-09 -9.692837144e-10)
(0.01100000223 -1.450140044e-10 2.587078607e-10)
(0.01100000337 -2.946881208e-09 2.024180966e-09)
(0.01100000326 -6.938338104e-10 8.708271755e-10)
(0.01100000278 -1.557891276e-09 -2.158766023e-10)
(0.01100000887 -1.514317762e-09 -9.684414124e-10)
(0.01100000852 -1.865705171e-09 -1.228059632e-09)
(0.01100001494 -1.037939089e-09 -4.479524781e-09)
(0.01100002327 -1.100543561e-09 -7.339143763e-09)
(0.01100003505 -3.004390267e-09 -5.630629326e-09)
(0.01100005681 -5.301479227e-09 -6.019250596e-09)
(0.01100008911 -7.763224072e-09 -8.488233347e-09)
(0.01100011704 -7.866449894e-09 -7.96736316e-09)
(0.01100016667 -1.363061808e-08 -1.139634336e-08)
(0.01099999866 -6.030095221e-11 -2.554928412e-10)
(0.01099999895 -5.253302825e-11 -4.19095873e-11)
(0.01100000186 -5.878462147e-10 3.276833425e-10)
(0.01100000169 -1.790218615e-09 -7.787974966e-11)
(0.01100000229 -2.561482995e-09 -2.197863504e-11)
(0.01100000454 -1.95875642e-09 -2.825185837e-09)
(0.01100000473 -4.154411797e-09 -1.799022786e-09)
(0.01100000741 -4.783247702e-09 -1.976609831e-09)
(0.01100001287 -6.536455434e-09 -2.422616735e-09)
(0.01100001755 -8.821415847e-09 -4.657708295e-09)
(0.01100003486 -1.265237624e-08 -6.258753933e-09)
(0.01100004883 -2.091421841e-08 -7.6615615e-09)
(0.01100008651 -2.905224588e-08 -1.159633867e-08)
(0.01100010838 -3.263205592e-08 -1.146213051e-08)
(0.01100017125 -5.166020713e-08 -1.783261671e-08)
(0.01100000052 -6.742528569e-10 5.838294861e-10)
(0.01099999845 6.143905744e-10 3.166456127e-11)
(0.01099999856 2.77965923e-10 -1.11289513e-09)
(0.0110000037 -1.09051669e-09 5.732388183e-10)
(0.0110000028 -1.474627793e-09 -3.252511276e-10)
(0.01100000221 -3.927825594e-09 -3.643604598e-09)
(0.01100000489 -6.44647985e-09 1.567743922e-09)
(0.01100000523 -5.810855068e-09 -4.089061388e-09)
(0.01100000586 -5.124802688e-09 -5.660132435e-09)
(0.01100001249 -1.289430406e-08 -5.042315197e-09)
(0.01100002387 -1.739978929e-08 -7.485244711e-09)
(0.01100003859 -2.438970766e-08 -1.316913984e-08)
(0.0110000745 -3.191708326e-08 -1.563949693e-08)
(0.01100009058 -3.497193376e-08 -2.041457738e-08)
(0.01100017866 -5.944087725e-08 -4.20594446e-08)
(0.01099999846 -1.674510178e-09 5.295685033e-11)
(0.01099999916 -6.054883672e-10 1.160063624e-09)
(0.01099999935 -8.043465867e-10 -3.622712453e-10)
(0.01100000064 -6.406815295e-11 -4.187703554e-09)
(0.0110000001 -1.106865169e-09 -1.676251619e-09)
(0.01100000068 -2.573730541e-09 -1.50802402e-09)
(0.01100000191 -3.675842357e-09 -5.090265255e-10)
(0.01100000572 -4.810638783e-09 -3.568232262e-09)
(0.01100000273 -6.161195077e-09 -5.73811888e-09)
(0.01100000925 -9.581109311e-09 -6.320908585e-09)
(0.01100001982 -1.678807425e-08 -5.639224362e-09)
(0.01100003436 -3.107705373e-08 -1.432928146e-08)
(0.01100007282 -4.271778071e-08 -1.726745883e-08)
(0.01100008109 -6.132834225e-08 -2.228797886e-08)
(0.0110001939 -9.968127199e-08 -4.990699147e-08)
(0.01100000068 -1.69278047e-09 -4.019517622e-10)
(0.01100000059 -2.127144548e-09 -1.382837486e-09)
(0.01100000022 -7.828943565e-10 -1.108413806e-09)
(0.01100000025 -1.764922257e-09 -1.576362643e-09)
(0.01099999947 -1.906367463e-09 -1.993037965e-10)
(0.01100000246 3.518068105e-10 -2.078904805e-09)
(0.01100000218 6.53925088e-10 1.19903093e-09)
(0.01100000292 -1.948975657e-09 -3.605074159e-09)
(0.01100000039 -2.943322671e-09 -5.386721174e-09)
(0.01100000364 -1.32575907e-10 -1.023357151e-08)
(0.01100000254 3.39833126e-10 -1.325886391e-08)
(0.01100000986 3.336400906e-10 -2.943280768e-08)
(0.01100004018 -1.370535706e-09 -3.692535389e-08)
(0.01100003288 6.349521877e-10 -7.113952441e-08)
(0.011000228 1.843333255e-09 -1.352200338e-07)
(0.01099999954 1.661197116e-09 2.843798949e-10)
(0.01099999873 9.500250687e-10 -7.776062746e-10)
(0.01099999901 -1.314917858e-09 -2.905328074e-10)
(0.0110000015 -8.082611e-10 -4.181180448e-10)
(0.0110000018 3.252444675e-11 -3.897294382e-10)
(0.01100000197 3.072045236e-10 -2.494798297e-09)
(0.01100000328 1.796924751e-09 9.377342334e-10)
(0.01100000292 3.071955597e-09 -1.966385086e-09)
(0.0110000063 4.243485758e-09 -4.564051782e-09)
(0.01100000932 9.067446528e-09 -7.250452771e-09)
(0.01100002007 1.683579617e-08 -7.608832578e-09)
(0.01100003273 2.962311898e-08 -1.630987264e-08)
(0.01100007251 4.161863879e-08 -1.577135272e-08)
(0.01100008254 6.090314354e-08 -2.084129067e-08)
(0.01100019224 9.929682716e-08 -5.038624917e-08)
(0.0110000002 -2.633759373e-09 5.101460211e-10)
(0.01099999724 -1.93159157e-09 -5.841607164e-10)
(0.01100000056 9.21099882e-11 1.246089351e-09)
(0.01099999983 5.424353647e-10 -1.482051666e-09)
(0.01100000275 9.072291429e-10 1.376117524e-09)
(0.0110000024 2.511234936e-09 -1.030168803e-09)
(0.0110000033 2.664163465e-09 -1.475695805e-09)
(0.01100000561 4.660940317e-09 -3.049849872e-09)
(0.01100000967 5.842150047e-09 -3.703987029e-10)
(0.01100001514 1.101326026e-08 -4.464021939e-09)
(0.0110000235 1.42720711e-08 -7.043473704e-09)
(0.01100003896 2.405697025e-08 -1.204704024e-08)
(0.01100007186 3.11115496e-08 -1.625557143e-08)
(0.0110000927 3.381719355e-08 -1.915787588e-08)
(0.01100017971 5.925092096e-08 -4.003899851e-08)
(0.01099999945 3.489827828e-11 1.528541971e-10)
(0.01099999939 3.573987871e-10 1.816935954e-09)
(0.0110000022 -1.551447667e-11 2.141162065e-09)
(0.01100000034 -7.678003498e-11 -1.872371539e-09)
(0.01100000437 8.520291534e-10 -9.167333967e-10)
(0.01100000267 2.492045221e-10 -1.570055772e-09)
(0.0110000055 1.499610215e-09 -6.889537493e-10)
(0.01100000888 1.986243167e-09 -6.687515525e-10)
(0.01100001505 5.291113558e-09 -1.418295154e-09)
(0.01100002092 8.624169328e-09 -2.260946425e-09)
(0.01100003555 1.238605966e-08 -5.032253014e-09)
(0.01100005091 2.066068896e-08 -7.640757277e-09)
(0.01100008614 2.927445149e-08 -9.896857926e-09)
(0.01100011254 3.126795919e-08 -9.36129004e-09)
(0.01100016819 5.006977107e-08 -1.751977696e-08)
(0.01100000065 -3.325847152e-11 1.043526394e-09)
(0.01100000087 1.971931769e-09 -5.841838255e-10)
(0.01100000149 1.484453529e-09 -2.058374906e-10)
(0.01099999954 4.60185123e-10 6.639437519e-10)
(0.01100000172 1.446512816e-09 2.424597944e-09)
(0.01100000484 -4.167548886e-10 -3.633956203e-10)
(0.0110000082 1.238888624e-09 4.233614835e-10)
(0.01100000827 2.538686398e-09 9.519987663e-10)
(0.01100001685 2.09811645e-09 -1.782339473e-09)
(0.01100002414 2.29893521e-09 1.553464288e-09)
(0.01100003984 5.23492776e-09 -2.354681057e-09)
(0.01100005498 6.496525782e-09 -4.999401688e-09)
(0.01100009022 9.07183893e-09 -1.185777252e-08)
(0.01100011437 8.966951066e-09 -7.394853635e-09)
(0.01100016783 1.21403244e-08 -1.44916226e-08)
(0.01100000065 -7.681790829e-11 -3.958463695e-10)
(0.01099999909 2.698991039e-09 -6.241403466e-10)
(0.01100000119 7.717481033e-11 -6.14315691e-11)
(0.01100000125 -2.728614169e-09 6.962097095e-10)
(0.01100000295 -7.263310829e-10 -3.493295745e-10)
(0.01100000258 -1.864980806e-09 -2.251156136e-09)
(0.01100000663 -1.195858661e-09 -2.668660929e-09)
(0.01100000722 -3.163337612e-09 -3.44039064e-09)
(0.01100001264 -2.831366818e-09 -5.182795484e-09)
(0.01100001845 -4.982851456e-09 -8.742105006e-09)
(0.01100003452 -4.376289132e-09 -1.342838465e-08)
(0.01100004968 -7.464223992e-09 -2.013878025e-08)
(0.01100008617 -1.066156268e-08 -2.876582414e-08)
(0.01100011165 -1.027323551e-08 -3.330159602e-08)
(0.01099999971 -7.866151582e-12 3.691187825e-10)
(0.01099999783 -2.036348626e-10 1.508268652e-09)
(0.01099999958 -1.514548665e-09 1.997865059e-09)
(0.01099999986 -2.707378397e-09 -1.214790023e-10)
(0.01100000142 -1.326444434e-09 -4.069084251e-10)
(0.01100000333 -1.603970051e-09 -2.991295701e-09)
(0.01100000244 -3.80581373e-09 -3.097625867e-09)
(0.01100000609 -5.138340808e-09 -5.996621531e-09)
(0.01100000972 -6.85229348e-09 -7.182350039e-09)
(0.01100001495 -1.07581256e-08 -1.144356017e-08)
(0.01100002995 -1.483745544e-08 -1.664401083e-08)
(0.01100004534 -2.764911817e-08 -2.801373945e-08)
(0.01100008192 -3.619928199e-08 -3.711887864e-08)
(0.01100010308 -4.448617173e-08 -4.464082231e-08)
(0.01100017941 -7.812930767e-08 -7.972310195e-08)
(0.01100000139 -1.745340981e-10 -2.480860203e-10)
(0.01099999803 -3.415972273e-09 -2.830650697e-10)
(0.01099999925 -2.802144881e-09 1.845051915e-09)
(0.01100000192 -2.048564418e-09 9.568677504e-10)
(0.01100000273 -2.469094725e-09 -7.858153738e-10)
(0.01100000254 -1.215061894e-09 -2.744975736e-09)
(0.01099999974 -4.65617725e-09 -2.811823513e-09)
(0.01100000133 -6.873087065e-09 -6.744536331e-09)
(0.011000004 -8.875925851e-09 -8.089919764e-09)
(0.01100000729 -1.44138448e-08 -1.49813626e-08)
(0.01100001521 -1.823621324e-08 -2.058806208e-08)
(0.01100002815 -3.123376692e-08 -4.401491247e-08)
(0.01100006209 -3.793661175e-08 -5.864594504e-08)
(0.01100006671 -4.571472906e-08 -9.005089008e-08)
(0.01100019688 -9.324404401e-08 -1.707389019e-07)
(0.01099999881 -1.271655668e-09 -9.68904467e-10)
(0.01100000088 -7.416897516e-10 9.692590986e-11)
(0.01099999833 5.299283867e-10 2.678686324e-10)
(0.01100000038 -9.49043118e-10 4.003639047e-11)
(0.01100000159 -9.317188607e-10 -2.04400897e-09)
(0.01099999988 -2.952182658e-09 -1.876599665e-09)
(0.01100000276 -3.315214729e-09 -2.518606471e-09)
(0.01100000031 -5.417920589e-09 -8.795856071e-09)
(0.01100000102 -6.930150406e-09 -1.084085636e-08)
(0.01100000466 -1.433312901e-08 -1.905676658e-08)
(0.0110000083 -2.298311648e-08 -2.460755043e-08)
(0.01100002176 -4.724528041e-08 -5.597475174e-08)
(0.01100005897 -6.277592837e-08 -6.772473908e-08)
(0.01100005696 -1.113364876e-07 -1.181264267e-07)
(0.01100021508 -1.961822204e-07 -2.48050972e-07)
(0.01099999832 -7.748150601e-10 3.505277103e-10)
(0.01100000151 -1.061823883e-09 -2.235188072e-10)
(0.01099999904 -1.403104465e-09 -5.523312214e-10)
(0.01099999897 3.05363884e-10 -1.000104727e-09)
(0.01100000001 -3.061319102e-10 -1.166995456e-09)
(0.01100000011 -1.029364484e-09 -1.962724384e-09)
(0.01099999925 1.544661225e-09 -4.033443235e-09)
(0.01099999864 -8.914353666e-10 -7.219060645e-09)
(0.0109999927 -2.968391842e-09 -1.264076535e-08)
(0.01099999338 -2.02263545e-09 -2.826628573e-08)
(0.01099998385 -1.394507399e-09 -3.766977011e-08)
(0.01099998424 -8.082835975e-10 -1.034018149e-07)
(0.01099998728 7.35839855e-10 -1.356279683e-07)
(0.01099994594 1.650833348e-09 -3.376348752e-07)
(0.0110003004 4.419076736e-10 -6.376115232e-07)
(0.01099999916 2.647615637e-12 -5.96170894e-10)
(0.01099999985 1.223566184e-09 -1.967070126e-10)
(0.01099999767 7.121076535e-10 -9.883119717e-10)
(0.01100000098 -2.362510604e-10 -1.580348859e-11)
(0.01100000092 2.165485075e-09 -1.531530449e-09)
(0.01100000029 6.096341371e-10 -1.666224144e-09)
(0.01100000268 6.794509682e-10 -2.076733138e-09)
(0.01100000327 3.987390648e-09 -5.807234134e-09)
(0.01100000254 7.144553476e-09 -7.965709566e-09)
(0.01100000762 1.368444004e-08 -1.914791682e-08)
(0.01100001018 2.238844077e-08 -2.41958231e-08)
(0.01100002347 4.623862459e-08 -5.614169066e-08)
(0.01100006252 6.087660966e-08 -6.598797418e-08)
(0.01100005626 1.111739931e-07 -1.196385112e-07)
(0.01100021604 1.966787145e-07 -2.50450757e-07)
(0.01099999955 -1.808406207e-09 -5.241236402e-10)
(0.01099999935 -2.312875512e-10 -9.062785786e-10)
(0.01100000017 8.140396793e-11 -9.344105784e-10)
(0.0110000025 2.935908548e-10 -1.401725007e-09)
(0.01100000015 8.416816313e-10 -1.758736755e-09)
(0.01099999949 2.002637837e-09 -2.689468471e-09)
(0.01100000151 2.260153488e-09 -3.594815445e-09)
(0.01100000271 2.803356337e-09 -5.550940341e-09)
(0.01100000481 7.837394698e-09 -8.106781648e-09)
(0.01100000814 1.591051061e-08 -1.606185499e-08)
(0.01100001495 1.781099127e-08 -2.247143821e-08)
(0.01100002675 3.095125828e-08 -4.392348872e-08)
(0.0110000637 3.871458746e-08 -5.968311747e-08)
(0.01100006699 4.569524743e-08 -9.126343639e-08)
(0.01100019457 9.236836845e-08 -1.727933169e-07)
(0.01100000032 -5.062735033e-10 5.763182073e-11)
(0.01100000141 9.539600332e-10 1.495456189e-09)
(0.01100000073 1.214841195e-09 -1.402541182e-11)
(0.01099999983 1.067851857e-09 3.196349325e-10)
(0.01100000163 -9.500030806e-10 -9.743923206e-10)
(0.01100000167 1.081484848e-09 -1.175050697e-09)
(0.01100000313 1.338107124e-09 -1.120367689e-09)
(0.0110000072 5.303523579e-09 -3.771863876e-09)
(0.01100001195 6.788961622e-09 -5.153650279e-09)
(0.01100001613 1.037510929e-08 -1.070836078e-08)
(0.01100002514 1.363205057e-08 -1.490264075e-08)
(0.01100004586 2.58627367e-08 -2.5485551e-08)
(0.0110000819 3.551267398e-08 -3.570137181e-08)
(0.01100010135 4.352503585e-08 -4.361633844e-08)
(0.01100017838 7.871534994e-08 -7.99771059e-08)
(0.01100000098 5.166537405e-10 -3.42338075e-10)
(0.01100000162 1.596122987e-09 -8.875812428e-10)
(0.01099999764 2.287896862e-09 -1.14456787e-09)
(0.0109999975 3.444708205e-10 -7.836191118e-10)
(0.01100000147 3.351310251e-10 -1.994811453e-09)
(0.01100000306 -4.189681395e-10 5.045990648e-10)
(0.01100000637 -5.913338045e-10 -1.002744802e-09)
(0.01100000898 2.096768964e-09 -3.101735208e-09)
(0.01100001619 2.866281648e-09 -4.115398836e-09)
(0.01100001934 3.27100875e-09 -6.793838463e-09)
(0.01100003323 5.626739403e-09 -1.294202271e-08)
(0.01100005107 6.480717922e-09 -2.097760112e-08)
(0.01100008695 8.813781031e-09 -2.889492092e-08)
(0.01100011161 8.646715359e-09 -3.228557148e-08)
(0.01100017118 1.66311165e-08 -5.14775927e-08)
(0.01099999964 -1.304412041e-10 -9.353083155e-10)
(0.01099999994 -7.958543826e-10 9.23105198e-10)
(0.0110000001 2.243260218e-10 7.29114537e-10)
(0.01100000048 -2.644203542e-09 3.482593705e-10)
(0.01100000013 -1.539909034e-09 -1.051899755e-09)
(0.01100000346 2.950785813e-10 -1.235792146e-09)
(0.01100000282 -3.076015093e-09 -3.51341522e-09)
(0.01100000499 -8.896488981e-10 -6.463309334e-09)
(0.01100000773 -1.768117197e-09 -8.384447713e-09)
(0.01100001699 -5.210852898e-09 -1.446611432e-08)
(0.01100002379 -5.293597283e-09 -1.380743214e-08)
(0.01100003948 -1.032889589e-08 -2.389629199e-08)
(0.01100007541 -1.771616851e-08 -3.190207108e-08)
(0.01100009146 -1.935127969e-08 -3.251703913e-08)
(0.01099999786 9.200253626e-11 -6.438664152e-10)
(0.01099999975 6.120672743e-10 9.71737616e-10)
(0.01100000061 -1.421227081e-09 4.470217938e-10)
(0.01099999985 -8.000710039e-10 7.303985036e-10)
(0.01099999834 -1.346994615e-09 -6.327622601e-10)
(0.0110000031 -2.868358997e-09 -1.374077806e-09)
(0.01100000358 -4.227461972e-09 -3.840245291e-09)
(0.0110000006 -5.979451895e-09 -7.187181285e-09)
(0.01100000433 -7.97204707e-09 -8.680257662e-09)
(0.01100001029 -1.473251425e-08 -1.389025451e-08)
(0.01100001557 -2.186487042e-08 -1.781891063e-08)
(0.01100002923 -4.471689578e-08 -3.103683784e-08)
(0.01100006166 -5.89070308e-08 -3.653372446e-08)
(0.01100006955 -9.150336664e-08 -4.533480634e-08)
(0.01100000068 -1.570432998e-09 2.213296209e-10)
(0.01100000022 -2.899477054e-09 1.204160957e-09)
(0.01099999742 -2.473534131e-09 1.537479304e-09)
(0.01099999899 -2.591337779e-09 1.402377097e-09)
(0.01099999789 -2.249053983e-09 2.30966926e-10)
(0.01100000008 -3.129047665e-09 -2.34810512e-09)
(0.01099999971 -3.752612024e-09 -4.657568947e-09)
(0.01099999737 -8.757616159e-09 -9.811058494e-09)
(0.01099999289 -1.12795416e-08 -1.046885087e-08)
(0.01099999702 -2.154428513e-08 -1.998928974e-08)
(0.01099999242 -2.654553015e-08 -2.58978102e-08)
(0.01099999606 -5.68234365e-08 -5.659675807e-08)
(0.01100001144 -6.171764281e-08 -6.184264485e-08)
(0.01099999058 -1.09618114e-07 -1.103408064e-07)
(0.01100022704 -2.290149257e-07 -2.359162492e-07)
(0.01099999968 -4.137282087e-10 1.71987137e-09)
(0.01100000042 -2.07514946e-09 1.34759502e-09)
(0.01100000009 -2.201191693e-09 1.963633933e-09)
(0.01099999845 -2.004131431e-09 1.328559354e-09)
(0.01099999945 -2.096750949e-09 -6.764745904e-10)
(0.01099999886 -1.516012203e-09 -4.141005774e-09)
(0.01099999627 -4.147047426e-09 -4.414296979e-09)
(0.01099999703 -5.606900322e-09 -9.969037825e-09)
(0.01099999073 -1.043287638e-08 -1.226003738e-08)
(0.01099999311 -2.31509997e-08 -2.57238275e-08)
(0.01099997921 -3.474027673e-08 -2.54565058e-08)
(0.01099999042 -8.964656429e-08 -7.064864066e-08)
(0.0109999831 -1.212203728e-07 -4.207035824e-08)
(0.01099994833 -3.139982145e-07 -1.19572059e-07)
(0.01100021134 -5.761942565e-07 -2.993385503e-07)
(0.01100000125 -1.282935906e-09 -1.293476981e-09)
(0.0110000009 -8.80045986e-10 1.950826923e-09)
(0.01099999944 -6.100978347e-10 1.537320109e-09)
(0.01099999978 -1.004847278e-09 -7.537585256e-10)
(0.01099999821 -1.121766233e-09 -9.300440074e-10)
(0.01099999901 -6.408385462e-11 -1.779093119e-09)
(0.01099999466 -1.189663297e-09 -4.045102231e-09)
(0.01099999197 3.634038666e-10 -1.152626651e-08)
(0.01099997761 5.171704551e-10 -1.478760038e-08)
(0.01099997239 -5.784401619e-10 -3.902940158e-08)
(0.01099992145 3.660098471e-10 -4.563367739e-08)
(0.01099990626 -8.771271858e-10 -1.59358708e-07)
(0.01099974671 -3.492525139e-10 -1.534290543e-07)
(0.0109996272 8.316154438e-10 -6.445016469e-07)
(0.01100033397 -1.640710081e-09 -1.141268018e-06)
(0.01099999864 -4.457120594e-10 1.653361477e-09)
(0.0110000001 1.126964551e-10 1.020271614e-09)
(0.01099999844 -1.020759503e-09 -6.845946414e-10)
(0.01100000006 -8.571701897e-10 -2.612326796e-10)
(0.01100000006 5.203157628e-11 6.81138771e-11)
(0.01099999783 2.122181009e-09 -1.881657659e-09)
(0.01099999834 3.937411377e-09 -4.35029584e-09)
(0.01099999794 6.007225812e-09 -9.270134683e-09)
(0.0109999891 8.880388278e-09 -7.920784771e-09)
(0.01099999191 2.219030013e-08 -2.391484877e-08)
(0.01099997883 3.232610299e-08 -2.412919819e-08)
(0.01099999157 9.030553355e-08 -6.860642179e-08)
(0.01099998374 1.196950776e-07 -3.963499144e-08)
(0.01099994781 3.123946151e-07 -1.190096042e-07)
(0.01100021438 5.754481359e-07 -2.996336002e-07)
(0.01099999948 6.636991769e-10 6.11138959e-10)
(0.01100000253 -3.447871607e-10 2.074530719e-09)
(0.01099999826 1.387142893e-09 1.696132711e-09)
(0.01100000003 9.247293642e-10 6.992161801e-10)
(0.01100000088 4.053727803e-09 -5.784081426e-10)
(0.01100000025 2.131214932e-09 -1.554740801e-09)
(0.01099999913 3.221875817e-09 -3.007887761e-09)
(0.01099999908 3.820281545e-09 -6.189883341e-09)
(0.01099999571 9.366715099e-09 -9.133455877e-09)
(0.01099999707 2.047317622e-08 -1.890000799e-08)
(0.01099999394 2.401213857e-08 -2.431101123e-08)
(0.01099999662 5.436079747e-08 -5.399145397e-08)
(0.01100001578 6.237417123e-08 -5.963526975e-08)
(0.0109999892 1.098951742e-07 -1.092864506e-07)
(0.01100022926 2.348884361e-07 -2.356184222e-07)
(0.0110000001 -2.706719631e-11 3.234902425e-09)
(0.01100000072 1.007411457e-09 8.310426377e-10)
(0.01099999939 3.001516025e-10 -6.547687654e-10)
(0.0110000009 1.660897435e-10 -1.62282071e-10)
(0.01100000088 9.977602002e-10 -1.41066981e-09)
(0.01100000288 2.01110639e-09 -7.756481852e-11)
(0.01100000143 3.197670092e-09 -2.900166478e-09)
(0.01100000194 6.065711075e-09 -4.887008456e-09)
(0.01100000475 8.610388082e-09 -6.210490496e-09)
(0.01100000847 1.613293635e-08 -1.347808024e-08)
(0.01100001571 2.210822339e-08 -1.554332106e-08)
(0.01100002709 4.357168287e-08 -3.012193565e-08)
(0.01100006413 5.743563014e-08 -3.805159434e-08)
(0.01100006693 8.94085092e-08 -4.58326454e-08)
(0.01100019711 1.71409386e-07 -9.172872038e-08)
(0.01100000041 -8.908603324e-11 3.166528774e-09)
(0.01100000034 6.482006972e-10 1.116514589e-09)
(0.01099999836 9.365607606e-10 4.6264705e-10)
(0.01100000041 6.05728722e-11 5.33060795e-10)
(0.01100000355 -1.377051616e-09 7.778883095e-10)
(0.01100000104 3.554609952e-10 -1.279668432e-09)
(0.01100000275 2.21245317e-10 -7.719078011e-10)
(0.01100000509 2.373768163e-09 -5.421923696e-09)
(0.01100000899 1.950712419e-09 -6.717069409e-09)
(0.01100001566 5.750988359e-09 -9.509980548e-09)
(0.01100002236 8.269792485e-09 -1.220072949e-08)
(0.01100003932 1.23741201e-08 -2.301257005e-08)
(0.0110000734 1.666714369e-08 -2.98035384e-08)
(0.01100009199 1.899717247e-08 -3.391740161e-08)
(0.01100018076 3.784824384e-08 -5.986350955e-08)
(0.01100000023 3.022579056e-10 2.785205683e-11)
(0.01100000343 -6.745360959e-10 7.403322703e-10)
(0.01099999986 -4.432018974e-10 1.802870261e-10)
(0.01099999994 3.76535171e-11 1.67545662e-09)
(0.0110000024 -7.702373252e-10 7.554759867e-10)
(0.01099999961 -1.245458133e-09 -1.259461653e-09)
(0.01099999992 -1.455640424e-09 -2.488961492e-09)
(0.01100000372 -2.736300333e-09 -3.372533147e-09)
(0.01100000258 -3.143934029e-09 -6.200769311e-09)
(0.01100001292 -5.209350301e-09 -9.948653776e-09)
(0.01100002314 -8.89030516e-09 -1.67011915e-08)
(0.01100003444 -1.46996062e-08 -2.891522061e-08)
(0.01100007297 -1.381349669e-08 -4.066732075e-08)
(0.01100008635 -2.09256109e-08 -6.033877271e-08)
(0.01100000106 8.799523262e-11 -7.386895429e-10)
(0.01100000062 -7.913379516e-10 -5.088953191e-10)
(0.01099999836 6.652279834e-10 -1.914191046e-10)
(0.01099999992 -1.26169964e-09 1.086060174e-09)
(0.01099999999 -1.042946593e-09 1.388040737e-09)
(0.01099999861 -4.171399425e-09 -1.369394533e-09)
(0.01099999905 -4.810639562e-09 -2.453321277e-09)
(0.01100000059 -7.177831492e-09 -4.701031978e-09)
(0.01100000144 -8.171129581e-09 -6.257091432e-09)
(0.01100000799 -1.739751902e-08 -1.39680073e-08)
(0.01100000878 -2.573587032e-08 -2.023586251e-08)
(0.0110000253 -5.80709404e-08 -4.606932284e-08)
(0.01100006138 -6.662771091e-08 -6.166664411e-08)
(0.01100005564 -1.194181404e-07 -1.11119875e-07)
(0.01100000171 1.176653849e-09 9.759448938e-10)
(0.0109999994 -1.748296103e-09 7.286550368e-11)
(0.01099999906 -1.463329846e-09 3.993239751e-10)
(0.01099999836 -3.333386933e-09 -6.627504289e-10)
(0.01099999634 -2.695135742e-09 5.093244698e-10)
(0.01099999704 -3.93880489e-09 -1.577423076e-09)
(0.01099999578 -4.007227252e-09 -4.17912856e-09)
(0.01099999583 -9.701784714e-09 -7.195885758e-09)
(0.0109999907 -1.30233313e-08 -1.048982379e-08)
(0.01099999163 -2.683375794e-08 -2.144610435e-08)
(0.010999979 -2.503309397e-08 -3.261236514e-08)
(0.01099999077 -6.905963029e-08 -9.155673889e-08)
(0.01099998196 -4.022008791e-08 -1.207242907e-07)
(0.01099994886 -1.193204985e-07 -3.140923986e-07)
(0.01100000023 -4.920853536e-10 7.36488115e-10)
(0.01100000011 -1.396222805e-09 3.368404441e-10)
(0.01099999764 -1.072774409e-09 3.599152919e-11)
(0.01099999696 -3.670065855e-10 -9.580643295e-10)
(0.01099999645 -2.288033592e-09 -1.633814102e-09)
(0.01099999715 -8.438400269e-10 -2.013327269e-09)
(0.01099999313 -2.889973619e-09 -4.108158874e-09)
(0.01099999294 -5.689927046e-09 -7.402983114e-09)
(0.01099998271 -1.095401572e-08 -1.049959016e-08)
(0.01099998989 -3.18203836e-08 -3.073216337e-08)
(0.01099995962 -4.230190873e-08 -4.120182893e-08)
(0.01100001811 -1.503224539e-07 -1.497315645e-07)
(0.01099994653 -1.545652342e-07 -1.525078261e-07)
(0.01100003533 -6.45425296e-07 -6.457282044e-07)
(0.01099973533 -1.106825421e-06 -1.106537362e-06)
(0.01100000145 -2.104823907e-09 2.095803002e-09)
(0.01100000123 -1.419379296e-09 1.069610862e-09)
(0.01099999856 -2.105310555e-09 7.372955057e-10)
(0.01099999708 -1.678042636e-09 -4.52605557e-10)
(0.01099999775 1.899585857e-10 -1.672861705e-09)
(0.01099999477 3.637289293e-10 -1.390782961e-09)
(0.0109999899 -1.455656802e-09 -3.996282615e-09)
(0.01099998602 -1.162864066e-10 -9.668264406e-09)
(0.01099996054 1.511490148e-09 -1.489231921e-08)
(0.01099995939 -1.580147677e-10 -4.874341332e-08)
(0.01099984777 1.047142577e-09 -7.583960874e-08)
(0.0109998875 2.560672959e-10 -3.632944285e-07)
(0.01099935098 4.622308779e-10 -5.004801431e-07)
(0.0109995341 -4.2187159e-10 -3.390966076e-06)
(0.01099870786 -5.41910126e-10 -5.498348362e-06)
(0.01099999932 8.984112714e-10 1.064502892e-09)
(0.0109999995 3.385978908e-10 9.270209795e-10)
(0.01099999938 -1.573754349e-09 2.036651162e-09)
(0.01099999828 -4.143853443e-10 -4.947931486e-10)
(0.01099999828 5.955204659e-10 -4.307566718e-10)
(0.01099999772 5.609951584e-10 -1.195548704e-09)
(0.01099999349 3.624120824e-09 -3.729976879e-09)
(0.01099999456 7.571127809e-09 -6.962520325e-09)
(0.01099998097 9.962721542e-09 -1.196780123e-08)
(0.0109999903 3.339904301e-08 -2.932802129e-08)
(0.01099995778 4.377308835e-08 -4.038241524e-08)
(0.01100001762 1.500535177e-07 -1.488329799e-07)
(0.01099994595 1.53923331e-07 -1.530391652e-07)
(0.01100003409 6.441966023e-07 -6.435837015e-07)
(0.01099973651 1.103804635e-06 -1.105187019e-06)
(0.01100000127 5.110608031e-10 9.481585866e-10)
(0.01099999824 -2.369830069e-10 1.741528655e-09)
(0.01099999904 1.219062846e-09 6.322988911e-10)
(0.01100000091 3.719582846e-10 1.14814075e-09)
(0.01100000071 1.347085079e-09 -2.205627184e-10)
(0.0109999986 3.262988528e-09 -5.736856814e-10)
(0.01099999599 3.501543601e-09 -3.47197341e-09)
(0.01099999661 7.433297956e-09 -4.71749546e-09)
(0.01099998868 1.006556189e-08 -8.439709241e-09)
(0.01099999092 2.397089182e-08 -2.012778521e-08)
(0.0109999775 2.373173379e-08 -2.98475313e-08)
(0.01099999049 6.816504067e-08 -8.990910894e-08)
(0.01099998255 3.985790549e-08 -1.199827369e-07)
(0.01099994725 1.192601589e-07 -3.122162908e-07)
(0.01100021514 2.999559067e-07 -5.760882277e-07)
(0.01099999869 9.448221169e-10 2.706041862e-09)
(0.01099999914 4.282362092e-10 1.04650515e-09)
(0.01100000057 1.381945265e-09 2.413358387e-09)
(0.01099999996 7.702672431e-10 -1.549844754e-09)
(0.01100000204 8.726507779e-10 -1.427544341e-09)
(0.01100000038 2.070059784e-09 -2.369761695e-09)
(0.01099999995 3.233606817e-09 -1.9479426e-09)
(0.01100000107 5.208589826e-09 -3.198249061e-09)
(0.0110000018 9.206955521e-09 -6.582625512e-09)
(0.01100000334 1.803102865e-08 -1.269681451e-08)
(0.01100001044 2.40134776e-08 -1.888997509e-08)
(0.01100002155 5.746995088e-08 -4.587309034e-08)
(0.01100005952 6.566566828e-08 -6.202577151e-08)
(0.01100005298 1.180171853e-07 -1.122172622e-07)
(0.01100021134 2.480169274e-07 -1.994036163e-07)
(0.01099999872 -7.868709713e-10 1.569585316e-09)
(0.0109999998 9.990698016e-10 1.452646592e-09)
(0.01099999744 -7.660938566e-10 5.410957034e-12)
(0.01100000066 4.865863643e-10 1.635841402e-10)
(0.01100000146 -8.531858978e-10 -1.475997005e-09)
(0.01100000365 -5.481818611e-11 -3.047630872e-10)
(0.01100000215 3.27656135e-09 -1.627736366e-09)
(0.01100000326 2.551988352e-09 -1.952857015e-09)
(0.01100000665 2.651265095e-09 -4.635881718e-09)
(0.01100001083 7.410392256e-09 -9.655469195e-09)
(0.01100002037 8.738950651e-09 -1.402326362e-08)
(0.0110000328 1.466510293e-08 -2.622198225e-08)
(0.01100007034 1.55601356e-08 -4.044345609e-08)
(0.0110000804 2.085274848e-08 -5.979582996e-08)
(0.01100019557 4.79915898e-08 -9.95735321e-08)
(0.01099999992 6.390081158e-10 2.433078676e-09)
(0.01100000061 3.034831754e-10 2.254416121e-09)
(0.01100000098 2.646430632e-11 1.120325481e-09)
(0.01099999951 -1.157481888e-09 -1.050598352e-09)
(0.01099999903 -3.903279971e-10 -4.579354121e-10)
(0.01100000076 -5.622081916e-10 -1.004011771e-09)
(0.01099999873 -3.090317746e-09 -8.165539846e-11)
(0.01099999848 -2.219565146e-09 -8.85614377e-10)
(0.01099999883 -5.239393545e-09 -3.421090839e-10)
(0.01100000506 -8.371085981e-09 4.074686954e-10)
(0.01100000589 -1.08277733e-08 6.968081359e-10)
(0.01100001129 -2.72867873e-08 1.515078453e-09)
(0.0110000393 -3.625302055e-08 1.182832469e-09)
(0.01100003514 -6.855546605e-08 -2.193309375e-09)
(0.01100000167 5.369891969e-10 1.094162541e-09)
(0.01100000306 -3.763133088e-10 7.378062793e-10)
(0.01099999957 -3.046315758e-10 7.003057804e-10)
(0.01099999999 -5.238656726e-10 3.442195063e-10)
(0.01099999719 -2.765159372e-09 -4.356278984e-10)
(0.01100000049 -3.391370263e-09 2.096758381e-10)
(0.01099999903 -2.543321545e-09 -1.039783676e-09)
(0.01099999528 -6.374510276e-09 -1.394026558e-10)
(0.01099999229 -1.140849869e-08 -7.490190555e-10)
(0.01099999446 -2.746748341e-08 -2.036314327e-09)
(0.0109999828 -3.725619707e-08 -8.259307738e-10)
(0.01099998351 -1.039558118e-07 -4.566044091e-10)
(0.01099998811 -1.358260992e-07 -6.544881467e-11)
(0.01099994747 -3.380507275e-07 1.989589283e-09)
(0.01099999942 1.480632935e-09 6.394829178e-10)
(0.01100000108 -5.583551864e-10 2.055838256e-09)
(0.01099999988 -3.22514885e-10 5.126402126e-10)
(0.01099999843 -2.548911119e-09 1.308538459e-09)
(0.01099999871 -3.387536453e-09 4.229349578e-10)
(0.01099999717 -3.270177042e-09 1.578404846e-09)
(0.01099999346 -6.919707546e-09 1.711125642e-09)
(0.010999989 -1.092050088e-08 1.807719771e-09)
(0.0109999766 -1.567769142e-08 -7.541155811e-10)
(0.0109999736 -3.747618913e-08 -1.463802354e-09)
(0.01099991992 -4.719996892e-08 2.762831341e-10)
(0.01099990552 -1.61254921e-07 2.246298963e-10)
(0.01099974585 -1.542599367e-07 2.46768835e-12)
(0.01099962848 -6.442431431e-07 1.2705463e-09)
(0.01099999719 -2.137080882e-11 6.910156305e-10)
(0.01099999968 -9.171906096e-10 -1.091445819e-10)
(0.01099999754 -1.93147714e-09 -5.373525837e-10)
(0.0109999969 -3.235463888e-09 1.019329955e-09)
(0.01099999675 -2.096690824e-09 1.577556922e-09)
(0.01099999665 -1.89384571e-09 1.988073814e-09)
(0.01099999072 -2.237699589e-09 9.493983289e-10)
(0.01099998828 -9.166152901e-09 8.678551769e-10)
(0.0109999637 -1.491463632e-08 -2.675277311e-10)
(0.01099996019 -5.103291402e-08 1.642018403e-10)
(0.01099984803 -7.759583127e-08 -8.342397963e-11)
(0.01099988548 -3.65236615e-07 -6.464090425e-10)
(0.01099935165 -5.020029843e-07 1.581603861e-10)
(0.01099953325 -3.393556143e-06 4.888265075e-11)
(0.01099999856 -1.536657817e-09 2.08300574e-09)
(0.01099999776 -1.939100444e-09 1.934138281e-09)
(0.01099999827 -1.945705681e-10 -3.918500896e-10)
(0.01099999905 -6.899220658e-10 6.610544119e-10)