/*--------------------------------*- C++ -*----------------------------------*\
| =========                 |                                                 |
| \\      /  F ield         | OpenFOAM: The Open Source CFD Toolbox           |
|  \\    /   O peration     | Version:  4.x                                   |
|   \\  /    A nd           | Web:      www.OpenFOAM.org                      |
|    \\/     M anipulation  |                                                 |
\*---------------------------------------------------------------------------*/
FoamFile
{
    version     2.0;
    format      ascii;
    class       volScalarField;
    location    "10000";
    object      X_H2O;
}
// * * * * * * * * * * * * * * * * * * * * * * * * * * * * * * * * * * * * * //

dimensions      [0 0 0 0 0 0 0];

internalField   nonuniform List<scalar> 
1175
(
1.50413447e-05
1.504134629e-05
1.504134568e-05
1.504134776e-05
1.504135816e-05
1.504139076e-05
1.504149797e-05
1.504184744e-05
1.504293122e-05
1.504613594e-05
1.505509094e-05
1.507847357e-05
1.513467473e-05
1.525698995e-05
1.549442833e-05
1.504134619e-05
1.504134523e-05
1.504134562e-05
1.504134963e-05
1.504136227e-05
1.504140451e-05
1.504154788e-05
1.504202875e-05
1.504357878e-05
1.504834313e-05
1.506221189e-05
1.509986703e-05
1.519344392e-05
1.540147235e-05
1.580519466e-05
1.504134515e-05
1.504134439e-05
1.504134611e-05
1.50413486e-05
1.504136681e-05
1.504142455e-05
1.504163262e-05
1.50423514e-05
1.504476463e-05
1.505253291e-05
1.507623005e-05
1.514359501e-05
1.531806184e-05
1.571711514e-05
1.649319133e-05
1.504134653e-05
1.504134574e-05
1.504134635e-05
1.504135201e-05
1.504137257e-05
1.50414463e-05
1.50417206e-05
1.504269723e-05
1.504608703e-05
1.505741935e-05
1.509344682e-05
1.520041785e-05
1.548946296e-05
1.617311127e-05
1.751168248e-05
1.504134348e-05
1.504134497e-05
1.504134603e-05
1.504135254e-05
1.504137344e-05
1.504145407e-05
1.504175827e-05
1.504285769e-05
1.504673344e-05
1.505994597e-05
1.51029494e-05
1.52342656e-05
1.560050746e-05
1.64934632e-05
1.826302308e-05
1.504134522e-05
1.504134514e-05
1.504134612e-05
1.504135053e-05
1.504137178e-05
1.504144599e-05
1.504171927e-05
1.504269646e-05
1.504608784e-05
1.505742045e-05
1.509344575e-05
1.52004168e-05
1.548945969e-05
1.617310019e-05
1.751165135e-05
1.504134301e-05
1.50413438e-05
1.504134455e-05
1.504134962e-05
1.504136473e-05
1.5041424e-05
1.504163057e-05
1.504235012e-05
1.504476516e-05
1.505253194e-05
1.507622668e-05
1.514359271e-05
1.5318054e-05
1.571709233e-05
1.64931384e-05
1.504134334e-05
1.50413444e-05
1.504134357e-05
1.504134782e-05
1.504135883e-05
1.504140141e-05
1.504154661e-05
1.504202855e-05
1.504357669e-05
1.50483414e-05
1.506220908e-05
1.509986316e-05
1.519343363e-05
1.540144519e-05
1.580513831e-05
1.504134255e-05
1.504134332e-05
1.504134326e-05
1.504134646e-05
1.504135658e-05
1.504138966e-05
1.504149849e-05
1.504184758e-05
1.504293143e-05
1.504613404e-05
1.505508902e-05
1.507847055e-05
1.513466523e-05
1.525696816e-05
1.549437096e-05
1.504134339e-05
1.504134429e-05
1.504134393e-05
1.504134875e-05
1.504136079e-05
1.504140412e-05
1.504154754e-05
1.504202833e-05
1.504357748e-05
1.504834289e-05
1.50622127e-05
1.509986876e-05
1.519345361e-05
1.540150928e-05
1.504134434e-05
1.504134405e-05
1.504134579e-05
1.504135173e-05
1.504136611e-05
1.504142321e-05
1.504162441e-05
1.504231884e-05
1.504466879e-05
1.505228855e-05
1.50757115e-05
1.514288085e-05
1.531828282e-05
1.572194327e-05
1.650760529e-05
1.504134231e-05
1.504134565e-05
1.504134552e-05
1.504135138e-05
1.504137252e-05
1.504145537e-05
1.504175682e-05
1.504285682e-05
1.504677921e-05
1.50602567e-05
1.510437482e-05
1.523929517e-05
1.561390429e-05
1.651799766e-05
1.829506114e-05
1.504134431e-05
1.504134582e-05
1.504134653e-05
1.504135318e-05
1.504138094e-05
1.504148726e-05
1.504189762e-05
1.504346301e-05
1.50492932e-05
1.507038871e-05
1.514358123e-05
1.538230574e-05
1.609150721e-05
1.791090413e-05
2.157347616e-05
1.504134392e-05
1.504134382e-05
1.504134587e-05
1.50413554e-05
1.504138423e-05
1.504150253e-05
1.504196662e-05
1.504376382e-05
1.505062676e-05
1.50762082e-05
1.516839981e-05
1.548387819e-05
1.647811936e-05
1.92023703e-05
2.493407987e-05
1.504134522e-05
1.504134473e-05
1.504134645e-05
1.50413536e-05
1.504137972e-05
1.504148761e-05
1.504189739e-05
1.504346106e-05
1.504929205e-05
1.507038773e-05
1.514357981e-05
1.538230249e-05
1.609148873e-05
1.791083798e-05
2.157330196e-05
1.504134303e-05
1.504134329e-05
1.504134648e-05
1.504135061e-05
1.504137301e-05
1.504145348e-05
1.50417546e-05
1.504285514e-05
1.504677794e-05
1.506025588e-05
1.510437314e-05
1.523929048e-05
1.561387744e-05
1.651791069e-05
1.829484322e-05
1.504134203e-05
1.504134286e-05
1.504134384e-05
1.504134784e-05
1.504136368e-05
1.504142046e-05
1.504162097e-05
1.504231741e-05
1.504467054e-05
1.505228802e-05
1.507571168e-05
1.514287604e-05
1.531826223e-05
1.572186951e-05
1.650740867e-05
1.504134421e-05
1.504134514e-05
1.504134618e-05
1.504134869e-05
1.50413582e-05
1.50414024e-05
1.504154666e-05
1.504202853e-05
1.504357561e-05
1.504834072e-05
1.506221017e-05
1.509986334e-05
1.519343661e-05
1.540144989e-05
1.580514047e-05
1.504134511e-05
1.504134428e-05
1.504134493e-05
1.504134968e-05
1.504136658e-05
1.504142452e-05
1.504163237e-05
1.504235069e-05
1.504476344e-05
1.505253198e-05
1.507622971e-05
1.514360176e-05
1.531809121e-05
1.571721324e-05
1.504134467e-05
1.504134317e-05
1.504134281e-05
1.504135108e-05
1.504137211e-05
1.504145256e-05
1.504175347e-05
1.504285603e-05
1.504677588e-05
1.506025515e-05
1.510437694e-05
1.523930612e-05
1.561394521e-05
1.651815849e-05
1.504134316e-05
1.504134473e-05
1.504134735e-05
1.504135363e-05
1.504138496e-05
1.504150698e-05
1.504198453e-05
1.504383787e-05
1.505088643e-05
1.507695764e-05
1.516940379e-05
1.54772615e-05
1.640895455e-05
1.883285323e-05
2.373293052e-05
1.504134468e-05
1.504134314e-05
1.504134772e-05
1.504135682e-05
1.5041396e-05
1.504156176e-05
1.504224232e-05
1.504501235e-05
1.505617892e-05
1.510033572e-05
1.526960833e-05
1.588628947e-05
1.794989107e-05
2.389851122e-05
3.672021265e-05
1.504134253e-05
1.504134427e-05
1.504134817e-05
1.504135813e-05
1.504140245e-05
1.504158824e-05
1.504237095e-05
1.504564058e-05
1.505926146e-05
1.511551232e-05
1.534388525e-05
1.62417339e-05
1.956238528e-05
3.041906195e-05
5.693635581e-05
1.504134412e-05
1.504134502e-05
1.504134791e-05
1.504135657e-05
1.504139601e-05
1.504156378e-05
1.504224214e-05
1.504501226e-05
1.505617909e-05
1.510033404e-05
1.526960356e-05
1.58862684e-05
1.794979207e-05
2.389813364e-05
3.671910489e-05
1.50413449e-05
1.504134387e-05
1.504134672e-05
1.504135405e-05
1.504138397e-05
1.504150576e-05
1.504198379e-05
1.504383487e-05
1.505088402e-05
1.507695553e-05
1.516939594e-05
1.547723467e-05
1.640885041e-05
1.88324689e-05
2.373179096e-05
1.504134357e-05
1.504134362e-05
1.504134511e-05
1.504135194e-05
1.504137197e-05
1.504145088e-05
1.504175409e-05
1.504285589e-05
1.504677729e-05
1.506025469e-05
1.510437401e-05
1.523929236e-05
1.561388399e-05
1.651791726e-05
1.829484411e-05
1.504134451e-05
1.50413444e-05
1.504134414e-05
1.504134902e-05
1.504136449e-05
1.504142406e-05
1.504163174e-05
1.504235137e-05
1.504476446e-05
1.505253078e-05
1.507622817e-05
1.514359335e-05
1.531805784e-05
1.571709888e-05
1.649314163e-05
1.504134339e-05
1.504134446e-05
1.504134449e-05
1.504135124e-05
1.504137014e-05
1.504144492e-05
1.504171902e-05
1.504269547e-05
1.504608618e-05
1.50574205e-05
1.509345055e-05
1.520043387e-05
1.548952294e-05
1.617330002e-05
1.504134416e-05
1.504134366e-05
1.504134509e-05
1.504135232e-05
1.504137895e-05
1.504148703e-05
1.504189821e-05
1.504346263e-05
1.504929364e-05
1.507038761e-05
1.514358956e-05
1.538234034e-05
1.609163431e-05
1.791135845e-05
1.504134158e-05
1.50413434e-05
1.504134642e-05
1.504135706e-05
1.504139853e-05
1.504156438e-05
1.504224174e-05
1.504501334e-05
1.505617885e-05
1.510033695e-05
1.52696207e-05
1.588634297e-05
1.795012116e-05
2.389956737e-05
1.504134378e-05
1.504134446e-05
1.504134764e-05
1.504136163e-05
1.504141497e-05
1.504164631e-05
1.504264924e-05
1.504698398e-05
1.506573399e-05
1.514646825e-05
1.548932568e-05
1.690182979e-05
2.237283608e-05
4.101858141e-05
8.783509209e-05
1.504134314e-05
1.504134541e-05
1.504134843e-05
1.504136376e-05
1.504142361e-05
1.504168916e-05
1.504286307e-05
1.504811486e-05
1.507187247e-05
1.518064498e-05
1.568338079e-05
1.801245049e-05
2.863180278e-05
7.404232359e-05
0.0002287928986
1.504134533e-05
1.504134466e-05
1.50413482e-05
1.504136063e-05
1.504141492e-05
1.504164838e-05
1.50426495e-05
1.504698393e-05
1.506573304e-05
1.51464643e-05
1.54893116e-05
1.690175903e-05
2.237247317e-05
4.101680026e-05
8.782784884e-05
1.504134372e-05
1.504134543e-05
1.504134807e-05
1.504135692e-05
1.504139736e-05
1.504156237e-05
1.504224285e-05
1.504501378e-05
1.505617877e-05
1.510033778e-05
1.526961014e-05
1.588628706e-05
1.79498466e-05
2.38982492e-05
3.671920537e-05
1.504134396e-05
1.504134401e-05
1.504134493e-05
1.504135152e-05
1.504137956e-05
1.504148689e-05
1.504189749e-05
1.504346269e-05
1.50492938e-05
1.507038991e-05
1.514358247e-05
1.538231012e-05
1.609150796e-05
1.79108697e-05
2.157330676e-05
1.504134292e-05
1.504134331e-05
1.504134483e-05
1.504134919e-05
1.504136983e-05
1.504144486e-05
1.504171702e-05
1.504269577e-05
1.504608498e-05
1.505741917e-05
1.509344772e-05
1.520042128e-05
1.548946881e-05
1.617311311e-05
1.751165215e-05
1.504134306e-05
1.504134423e-05
1.504134467e-05
1.504135117e-05
1.504137313e-05
1.504145493e-05
1.50417584e-05
1.50428577e-05
1.504673331e-05
1.505994692e-05
1.510295599e-05
1.52342926e-05
1.560059402e-05
1.649372738e-05
1.504134247e-05
1.504134236e-05
1.504134552e-05
1.504135314e-05
1.50413829e-05
1.504150011e-05
1.504196424e-05
1.504376555e-05
1.505062696e-05
1.50762112e-05
1.516841155e-05
1.548393038e-05
1.647832805e-05
1.920311117e-05
1.50413451e-05
1.504134538e-05
1.504134716e-05
1.504135724e-05
1.504140165e-05
1.504158883e-05
1.504237084e-05
1.504564226e-05
1.5059264e-05
1.511551763e-05
1.534391053e-05
1.624185169e-05
1.956295251e-05
3.042163411e-05
1.504134389e-05
1.504134414e-05
1.504134815e-05
1.504136324e-05
1.504142159e-05
1.504168754e-05
1.504286228e-05
1.504811261e-05
1.507187068e-05
1.518064958e-05
1.568340991e-05
1.801263386e-05
2.863297395e-05
7.405022284e-05
1.504134529e-05
1.504134498e-05
1.504134993e-05
1.504136415e-05
1.504143265e-05
1.504173874e-05
1.504312853e-05
1.504960867e-05
1.508064255e-05
1.523487562e-05
1.603831975e-05
2.047490146e-05
4.671632359e-05
0.0002141549816
0.001373298257
1.504134327e-05
1.504134445e-05
1.50413491e-05
1.504136334e-05
1.504142441e-05
1.504168988e-05
1.504286276e-05
1.504811342e-05
1.507187293e-05
1.518064878e-05
1.56833955e-05
1.801253195e-05
2.863216372e-05
7.404365459e-05
0.0002287941005
1.50413435e-05
1.504134472e-05
1.504134699e-05
1.504135893e-05
1.504140406e-05
1.504159039e-05
1.504237305e-05
1.504564293e-05
1.505926395e-05
1.511551671e-05
1.5343899e-05
1.624177506e-05
1.956252909e-05
3.041942457e-05
5.693654292e-05
1.504134515e-05
1.504134483e-05
1.504134536e-05
1.504135294e-05
1.504138205e-05
1.504150056e-05
1.5041964e-05
1.504376546e-05
1.505062905e-05
1.507621131e-05
1.516840408e-05
1.548389253e-05
1.64781614e-05
1.920244551e-05
2.493407254e-05
1.504134252e-05
1.504134291e-05
1.504134542e-05
1.504135008e-05
1.504137218e-05
1.50414525e-05
1.504175679e-05
1.504285679e-05
1.504673339e-05
1.505994715e-05
1.510295132e-05
1.52342729e-05
1.560052259e-05
1.649348864e-05
1.82630255e-05
1.504134255e-05
1.504134359e-05
1.504134506e-05
1.504134842e-05
1.504136873e-05
1.504144651e-05
1.504171944e-05
1.504269478e-05
1.504608664e-05
1.505742111e-05
1.509345353e-05
1.520043949e-05
1.548953503e-05
1.617330985e-05
1.50413432e-05
1.504134513e-05
1.504134488e-05
1.50413503e-05
1.50413778e-05
1.504148495e-05
1.504189734e-05
1.504346279e-05
1.504929352e-05
1.507038994e-05
1.514359274e-05
1.538235065e-05
1.609165642e-05
1.791136701e-05
1.504134553e-05
1.504134492e-05
1.504134506e-05
1.504135428e-05
1.504139581e-05
1.504156185e-05
1.504224286e-05
1.504501355e-05
1.505617861e-05
1.510033911e-05
1.526962965e-05
1.588638013e-05
1.795023769e-05
2.389974539e-05
1.504134217e-05
1.504134325e-05
1.504134646e-05
1.504135977e-05
1.504141311e-05
1.50416463e-05
1.504264805e-05
1.504698353e-05
1.506573407e-05
1.514647119e-05
1.548934946e-05
1.690195126e-05
2.237341183e-05
4.102105192e-05
1.504134364e-05
1.504134425e-05
1.504134872e-05
1.504136213e-05
1.504142182e-05
1.504168862e-05
1.504286439e-05
1.504811466e-05
1.507187474e-05
1.518065434e-05
1.568342982e-05
1.801272388e-05
2.863335001e-05
7.405144135e-05
1.504134419e-05
1.504134446e-05
1.504134836e-05
1.504136037e-05
1.504141418e-05
1.504164638e-05
1.504264984e-05
1.504698155e-05
1.506573336e-05
1.514647191e-05
1.54893482e-05
1.690192953e-05
2.237326153e-05
4.102043571e-05
1.504134557e-05
1.504134566e-05
1.504134801e-05
1.504135792e-05
1.504139666e-05
1.504156242e-05
1.504224133e-05
1.504501298e-05
1.505617873e-05
1.510033794e-05
1.526962407e-05
1.588634631e-05
1.79500732e-05
2.389903878e-05
3.672164972e-05
1.504134501e-05
1.504134463e-05
1.504134569e-05
1.504135088e-05
1.504137952e-05
1.504148626e-05
1.504189785e-05
1.504346358e-05
1.504929309e-05
1.507038997e-05
1.514358735e-05
1.538232791e-05
1.609156702e-05
1.791104154e-05
2.157368688e-05
1.504134232e-05
1.504134235e-05
1.5041344e-05
1.504134965e-05
1.504137091e-05
1.504144466e-05
1.50417177e-05
1.504269651e-05
1.50460838e-05
1.505742035e-05
1.509344897e-05
1.520042636e-05
1.548948634e-05
1.617315491e-05
1.751173257e-05
1.504134284e-05
1.50413433e-05
1.50413439e-05
1.504134725e-05
1.504136489e-05
1.5041423e-05
1.504163136e-05
1.504235087e-05
1.504476533e-05
1.505253381e-05
1.507623221e-05
1.514360819e-05
1.531810144e-05
1.571721699e-05
1.504134358e-05
1.504134387e-05
1.504134414e-05
1.504135108e-05
1.504137178e-05
1.504145306e-05
1.504175451e-05
1.504285699e-05
1.504677736e-05
1.506025885e-05
1.51043805e-05
1.523931849e-05
1.561397231e-05
1.651818372e-05
1.504134459e-05
1.504134471e-05
1.504134483e-05
1.504135232e-05
1.504138341e-05
1.504150454e-05
1.504198324e-05
1.504383403e-05
1.505088489e-05
1.507695875e-05
1.516941211e-05
1.547729685e-05
1.640906901e-05
1.883316375e-05
1.504134437e-05
1.504134523e-05
1.504134534e-05
1.504135655e-05
1.504139696e-05
1.504156095e-05
1.504224145e-05
1.504501184e-05
1.505618051e-05
1.510034235e-05
1.526963332e-05
1.588639039e-05
1.795025929e-05
2.389975276e-05
1.504134422e-05
1.504134467e-05
1.504134792e-05
1.504135881e-05
1.504140306e-05
1.50415905e-05
1.504237368e-05
1.504564115e-05
1.505926342e-05
1.511552131e-05
1.534392444e-05
1.624190274e-05
1.956310438e-05
3.04218676e-05
1.504134411e-05
1.504134355e-05
1.504134765e-05
1.504135572e-05
1.504139647e-05
1.504156305e-05
1.50422429e-05
1.504501273e-05
1.505617998e-05
1.510034147e-05
1.526963498e-05
1.588638614e-05
1.795023339e-05
2.389965709e-05
1.504134474e-05
1.50413444e-05
1.504134714e-05
1.504135545e-05
1.504138517e-05
1.50415073e-05
1.504198351e-05
1.504383632e-05
1.505088597e-05
1.507695824e-05
1.516941162e-05
1.547728879e-05
1.64090418e-05
1.883311892e-05
1.504134387e-05
1.50413444e-05
1.504134508e-05
1.504135177e-05
1.50413744e-05
1.504145512e-05
1.504175429e-05
1.50428543e-05
1.504677792e-05
1.506025674e-05
1.510437979e-05
1.523931012e-05
1.561394374e-05
1.651808844e-05
1.829527003e-05
1.504134282e-05
1.50413435e-05
1.504134377e-05
1.504134869e-05
1.504136532e-05
1.504142366e-05
1.504163099e-05
1.504234921e-05
1.50447629e-05
1.505253276e-05
1.507623013e-05
1.514360013e-05
1.531807862e-05
1.57171506e-05
1.649324498e-05
1.504134452e-05
1.504134445e-05
1.504134475e-05
1.504134807e-05
1.504135999e-05
1.504140169e-05
1.504154528e-05
1.504202819e-05
1.504357738e-05
1.504834133e-05
1.506221199e-05
1.509987072e-05
1.519345935e-05
1.540151308e-05
1.504134375e-05
1.50413437e-05
1.504134402e-05
1.504134893e-05
1.504136381e-05
1.504141988e-05
1.504162069e-05
1.504231934e-05
1.504466911e-05
1.505228731e-05
1.507571391e-05
1.514289209e-05
1.53183079e-05
1.572199483e-05
1.504134412e-05
1.504134532e-05
1.504134577e-05
1.504135081e-05
1.504137188e-05
1.504145132e-05
1.504175298e-05
1.504285423e-05
1.504677704e-05
1.50602571e-05
1.510438084e-05
1.523932282e-05
1.561397885e-05
1.651818872e-05
1.504134456e-05
1.504134469e-05
1.504134591e-05
1.504135277e-05
1.504137991e-05
1.504148506e-05
1.504189525e-05
1.504346275e-05
1.504929231e-05
1.507039188e-05
1.514359524e-05
1.53823582e-05
1.609167204e-05
1.791137537e-05
1.504134521e-05
1.504134288e-05
1.504134468e-05
1.504135294e-05
1.504138398e-05
1.504150164e-05
1.504196429e-05
1.504376365e-05
1.505062695e-05
1.507621247e-05
1.516841653e-05
1.548394692e-05
1.647836851e-05
1.920314146e-05
1.504134389e-05
1.504134362e-05
1.504134632e-05
1.504135388e-05
1.504137985e-05
1.504148572e-05
1.50418975e-05
1.504346142e-05
1.504929228e-05
1.507039073e-05
1.514359358e-05
1.538235364e-05
1.609166239e-05
1.791134948e-05
1.504134304e-05
1.504134382e-05
1.504134502e-05
1.504135108e-05
1.504137288e-05
1.504145288e-05
1.504175385e-05
1.504285398e-05
1.504677709e-05
1.50602575e-05
1.510438242e-05
1.523931873e-05
1.561396736e-05
1.651816952e-05
1.504134462e-05
1.504134392e-05
1.504134469e-05
1.504134884e-05
1.504136463e-05
1.504141984e-05
1.504161953e-05
1.504231723e-05
1.504466826e-05
1.505228737e-05
1.507571491e-05
1.514288712e-05
1.531830161e-05
1.572199062e-05
1.5041344e-05
1.504134423e-05
1.50413446e-05
1.504134634e-05
1.504135963e-05
1.504140259e-05
1.504154733e-05
1.504202894e-05
1.504357645e-05
1.504834197e-05
1.506221267e-05
1.509987013e-05
1.519345185e-05
1.540149473e-05
1.580524267e-05
1.504134271e-05
1.504134307e-05
1.50413429e-05
1.504134584e-05
1.504135653e-05
1.504138853e-05
1.504149702e-05
1.504184632e-05
1.504292866e-05
1.504613509e-05
1.505509111e-05
1.50784762e-05
1.513468168e-05
1.525700611e-05
1.504134409e-05
1.504134444e-05
1.504134411e-05
1.504134619e-05
1.504135856e-05
1.504139951e-05
1.504154598e-05
1.504202733e-05
1.50435775e-05
1.504834207e-05
1.506221343e-05
1.50998719e-05
1.519345917e-05
1.540151384e-05
1.504134392e-05
1.504134391e-05
1.504134436e-05
1.504134921e-05
1.504136348e-05
1.504142149e-05
1.504162982e-05
1.504234968e-05
1.504476349e-05
1.505253373e-05
1.507623032e-05
1.514360918e-05
1.531810231e-05
1.5717222e-05
1.504134305e-05
1.504134323e-05
1.504134548e-05
1.504135161e-05
1.504136936e-05
1.504144604e-05
1.50417191e-05
1.504269449e-05
1.504608485e-05
1.505742047e-05
1.509345428e-05
1.520044341e-05
1.548954083e-05
1.617331364e-05
1.504134294e-05
1.504134284e-05
1.504134536e-05
1.504135065e-05
1.504137389e-05
1.504145478e-05
1.504175897e-05
1.504285637e-05
1.504673249e-05
1.505994871e-05
1.510295808e-05
1.523429858e-05
1.560060913e-05
1.649373569e-05
1.504134384e-05
1.504134376e-05
1.504134457e-05
1.504135036e-05
1.504136983e-05
1.504144421e-05
1.504171856e-05
1.504269412e-05
1.504608627e-05
1.505742145e-05
1.509345282e-05
1.520044331e-05
1.548953751e-05
1.617330256e-05
1.504134501e-05
1.504134439e-05
1.504134436e-05
1.50413489e-05
1.504136556e-05
1.504142352e-05
1.504163173e-05
1.504234957e-05
1.504476316e-05
1.505253249e-05
1.507623178e-05
1.514360683e-05
1.531809716e-05
1.571720935e-05
1.504134455e-05
1.504134429e-05
1.504134736e-05
1.504134824e-05
1.504135974e-05
1.504140193e-05
1.504154547e-05
1.504202791e-05
1.504357772e-05
1.504834029e-05
1.506221291e-05
1.509987079e-05
1.519345837e-05
1.540151095e-05
1.50413447e-05
1.504134428e-05
1.5041344e-05
1.504134659e-05
1.504135574e-05
1.504138854e-05
1.504149757e-05
1.504184751e-05
1.504293143e-05
1.504613452e-05
1.505509188e-05
1.507847634e-05
1.513468035e-05
1.525700777e-05
)
;

boundaryField
{
    top
    {
        type            calculated;
        value           nonuniform List<scalar> 
134
(
1.504134255e-05
1.504134421e-05
1.504134451e-05
1.504134292e-05
1.504134252e-05
1.504134232e-05
1.504134282e-05
1.5041344e-05
1.50413447e-05
1.504134332e-05
1.504134514e-05
1.50413444e-05
1.504134331e-05
1.504134291e-05
1.504134235e-05
1.50413435e-05
1.504134423e-05
1.504134428e-05
1.504134326e-05
1.504134618e-05
1.504134414e-05
1.504134483e-05
1.504134542e-05
1.5041344e-05
1.504134377e-05
1.50413446e-05
1.5041344e-05
1.504134646e-05
1.504134869e-05
1.504134902e-05
1.504134919e-05
1.504135008e-05
1.504134965e-05
1.504134869e-05
1.504134634e-05
1.504134659e-05
1.504135658e-05
1.50413582e-05
1.504136449e-05
1.504136983e-05
1.504137218e-05
1.504137091e-05
1.504136532e-05
1.504135963e-05
1.504135574e-05
1.504138966e-05
1.50414024e-05
1.504142406e-05
1.504144486e-05
1.50414525e-05
1.504144466e-05
1.504142366e-05
1.504140259e-05
1.504138854e-05
1.504149849e-05
1.504154666e-05
1.504163174e-05
1.504171702e-05
1.504175679e-05
1.50417177e-05
1.504163099e-05
1.504154733e-05
1.504149757e-05
1.504184758e-05
1.504202853e-05
1.504235137e-05
1.504269577e-05
1.504285679e-05
1.504269651e-05
1.504234921e-05
1.504202894e-05
1.504184751e-05
1.504293143e-05
1.504357561e-05
1.504476446e-05
1.504608498e-05
1.504673339e-05
1.50460838e-05
1.50447629e-05
1.504357645e-05
1.504293143e-05
1.504613404e-05
1.504834072e-05
1.505253078e-05
1.505741917e-05
1.505994715e-05
1.505742035e-05
1.505253276e-05
1.504834197e-05
1.504613452e-05
1.505508902e-05
1.506221017e-05
1.507622817e-05
1.509344772e-05
1.510295132e-05
1.509344897e-05
1.507623013e-05
1.506221267e-05
1.505509188e-05
1.507847055e-05
1.509986334e-05
1.514359335e-05
1.520042128e-05
1.52342729e-05
1.520042636e-05
1.514360013e-05
1.509987013e-05
1.507847634e-05
1.513466523e-05
1.519343661e-05
1.531805784e-05
1.548946881e-05
1.560052259e-05
1.548948634e-05
1.531807862e-05
1.519345185e-05
1.513468035e-05
1.525696816e-05
1.540144989e-05
1.571709888e-05
1.617311311e-05
1.649348864e-05
1.617315491e-05
1.57171506e-05
1.540149473e-05
1.525700777e-05
1.549437096e-05
1.580514047e-05
1.649314163e-05
1.751165215e-05
1.82630255e-05
1.751173257e-05
1.649324498e-05
1.580524267e-05
)
;
    }
    bottom
    {
        type            calculated;
        value           nonuniform List<scalar> 
127
(
1.50413447e-05
1.504134339e-05
1.504134511e-05
1.504134339e-05
1.504134306e-05
1.504134255e-05
1.504134284e-05
1.504134452e-05
1.504134271e-05
1.504134629e-05
1.504134429e-05
1.504134428e-05
1.504134446e-05
1.504134423e-05
1.504134359e-05
1.50413433e-05
1.504134445e-05
1.504134307e-05
1.504134568e-05
1.504134393e-05
1.504134493e-05
1.504134449e-05
1.504134467e-05
1.504134506e-05
1.50413439e-05
1.504134475e-05
1.50413429e-05
1.504134776e-05
1.504134875e-05
1.504134968e-05
1.504135124e-05
1.504135117e-05
1.504134842e-05
1.504134725e-05
1.504134807e-05
1.504134584e-05
1.504135816e-05
1.504136079e-05
1.504136658e-05
1.504137014e-05
1.504137313e-05
1.504136873e-05
1.504136489e-05
1.504135999e-05
1.504135653e-05
1.504139076e-05
1.504140412e-05
1.504142452e-05
1.504144492e-05
1.504145493e-05
1.504144651e-05
1.5041423e-05
1.504140169e-05
1.504138853e-05
1.504149797e-05
1.504154754e-05
1.504163237e-05
1.504171902e-05
1.50417584e-05
1.504171944e-05
1.504163136e-05
1.504154528e-05
1.504149702e-05
1.504184744e-05
1.504202833e-05
1.504235069e-05
1.504269547e-05
1.50428577e-05
1.504269478e-05
1.504235087e-05
1.504202819e-05
1.504184632e-05
1.504293122e-05
1.504357748e-05
1.504476344e-05
1.504608618e-05
1.504673331e-05
1.504608664e-05
1.504476533e-05
1.504357738e-05
1.504292866e-05
1.504613594e-05
1.504834289e-05
1.505253198e-05
1.50574205e-05
1.505994692e-05
1.505742111e-05
1.505253381e-05
1.504834133e-05
1.504613509e-05
1.505509094e-05
1.50622127e-05
1.507622971e-05
1.509345055e-05
1.510295599e-05
1.509345353e-05
1.507623221e-05
1.506221199e-05
1.505509111e-05
1.507847357e-05
1.509986876e-05
1.514360176e-05
1.520043387e-05
1.52342926e-05
1.520043949e-05
1.514360819e-05
1.509987072e-05
1.50784762e-05
1.513467473e-05
1.519345361e-05
1.531809121e-05
1.548952294e-05
1.560059402e-05
1.548953503e-05
1.531810144e-05
1.519345935e-05
1.513468168e-05
1.525698995e-05
1.540150928e-05
1.571721324e-05
1.617330002e-05
1.649372738e-05
1.617330985e-05
1.571721699e-05
1.540151308e-05
1.525700611e-05
1.549442833e-05
)
;
    }
    side-walls
    {
        type            calculated;
        value           nonuniform List<scalar> 
261
(
1.50413447e-05
1.504134619e-05
1.504134515e-05
1.504134653e-05
1.504134348e-05
1.504134522e-05
1.504134301e-05
1.504134334e-05
1.504134255e-05
1.504134629e-05
1.504134523e-05
1.504134439e-05
1.504134574e-05
1.504134497e-05
1.504134514e-05
1.50413438e-05
1.50413444e-05
1.504134332e-05
1.504134568e-05
1.504134562e-05
1.504134611e-05
1.504134635e-05
1.504134603e-05
1.504134612e-05
1.504134455e-05
1.504134357e-05
1.504134326e-05
1.504134776e-05
1.504134963e-05
1.50413486e-05
1.504135201e-05
1.504135254e-05
1.504135053e-05
1.504134962e-05
1.504134782e-05
1.504134646e-05
1.504135816e-05
1.504136227e-05
1.504136681e-05
1.504137257e-05
1.504137344e-05
1.504137178e-05
1.504136473e-05
1.504135883e-05
1.504135658e-05
1.504139076e-05
1.504140451e-05
1.504142455e-05
1.50414463e-05
1.504145407e-05
1.504144599e-05
1.5041424e-05
1.504140141e-05
1.504138966e-05
1.504149797e-05
1.504154788e-05
1.504163262e-05
1.50417206e-05
1.504175827e-05
1.504171927e-05
1.504163057e-05
1.504154661e-05
1.504149849e-05
1.504184744e-05
1.504202875e-05
1.50423514e-05
1.504269723e-05
1.504285769e-05
1.504269646e-05
1.504235012e-05
1.504202855e-05
1.504184758e-05
1.504293122e-05
1.504357878e-05
1.504476463e-05
1.504608703e-05
1.504673344e-05
1.504608784e-05
1.504476516e-05
1.504357669e-05
1.504293143e-05
1.504613594e-05
1.504834313e-05
1.505253291e-05
1.505741935e-05
1.505994597e-05
1.505742045e-05
1.505253194e-05
1.50483414e-05
1.504613404e-05
1.505509094e-05
1.506221189e-05
1.507623005e-05
1.509344682e-05
1.51029494e-05
1.509344575e-05
1.507622668e-05
1.506220908e-05
1.505508902e-05
1.507847357e-05
1.509986703e-05
1.514359501e-05
1.520041785e-05
1.52342656e-05
1.52004168e-05
1.514359271e-05
1.509986316e-05
1.507847055e-05
1.513467473e-05
1.519344392e-05
1.531806184e-05
1.548946296e-05
1.560050746e-05
1.548945969e-05
1.5318054e-05
1.519343363e-05
1.513466523e-05
1.525698995e-05
1.540147235e-05
1.571711514e-05
1.617311127e-05
1.64934632e-05
1.617310019e-05
1.571709233e-05
1.540144519e-05
1.525696816e-05
1.549442833e-05
1.580519466e-05
1.649319133e-05
1.751168248e-05
1.826302308e-05
1.751165135e-05
1.64931384e-05
1.580513831e-05
1.549437096e-05
1.504134271e-05
1.504134409e-05
1.504134392e-05
1.504134305e-05
1.504134294e-05
1.504134384e-05
1.504134501e-05
1.504134455e-05
1.50413447e-05
1.504134307e-05
1.504134444e-05
1.504134391e-05
1.504134323e-05
1.504134284e-05
1.504134376e-05
1.504134439e-05
1.504134429e-05
1.504134428e-05
1.50413429e-05
1.504134411e-05
1.504134436e-05
1.504134548e-05
1.504134536e-05
1.504134457e-05
1.504134436e-05
1.504134736e-05
1.5041344e-05
1.504134584e-05
1.504134619e-05
1.504134921e-05
1.504135161e-05
1.504135065e-05
1.504135036e-05
1.50413489e-05
1.504134824e-05
1.504134659e-05
1.504135653e-05
1.504135856e-05
1.504136348e-05
1.504136936e-05
1.504137389e-05
1.504136983e-05
1.504136556e-05
1.504135974e-05
1.504135574e-05
1.504138853e-05
1.504139951e-05
1.504142149e-05
1.504144604e-05
1.504145478e-05
1.504144421e-05
1.504142352e-05
1.504140193e-05
1.504138854e-05
1.504149702e-05
1.504154598e-05
1.504162982e-05
1.50417191e-05
1.504175897e-05
1.504171856e-05
1.504163173e-05
1.504154547e-05
1.504149757e-05
1.504184632e-05
1.504202733e-05
1.504234968e-05
1.504269449e-05
1.504285637e-05
1.504269412e-05
1.504234957e-05
1.504202791e-05
1.504184751e-05
1.504292866e-05
1.50435775e-05
1.504476349e-05
1.504608485e-05
1.504673249e-05
1.504608627e-05
1.504476316e-05
1.504357772e-05
1.504293143e-05
1.504613509e-05
1.504834207e-05
1.505253373e-05
1.505742047e-05
1.505994871e-05
1.505742145e-05
1.505253249e-05
1.504834029e-05
1.504613452e-05
1.505509111e-05
1.506221343e-05
1.507623032e-05
1.509345428e-05
1.510295808e-05
1.509345282e-05
1.507623178e-05
1.506221291e-05
1.505509188e-05
1.50784762e-05
1.50998719e-05
1.514360918e-05
1.520044341e-05
1.523429858e-05
1.520044331e-05
1.514360683e-05
1.509987079e-05
1.507847634e-05
1.513468168e-05
1.519345917e-05
1.531810231e-05
1.548954083e-05
1.560060913e-05
1.548953751e-05
1.531809716e-05
1.519345837e-05
1.513468035e-05
1.525700611e-05
1.540151384e-05
1.5717222e-05
1.617331364e-05
1.649373569e-05
1.617330256e-05
1.571720935e-05
1.540151095e-05
1.525700777e-05
)
;
    }
    inlet
    {
        type            calculated;
        value           nonuniform List<scalar> 
81
(
1.50413447e-05
1.504134619e-05
1.504134515e-05
1.504134653e-05
1.504134348e-05
1.504134522e-05
1.504134301e-05
1.504134334e-05
1.504134255e-05
1.504134339e-05
1.504134434e-05
1.504134231e-05
1.504134431e-05
1.504134392e-05
1.504134522e-05
1.504134303e-05
1.504134203e-05
1.504134421e-05
1.504134511e-05
1.504134467e-05
1.504134316e-05
1.504134468e-05
1.504134253e-05
1.504134412e-05
1.50413449e-05
1.504134357e-05
1.504134451e-05
1.504134339e-05
1.504134416e-05
1.504134158e-05
1.504134378e-05
1.504134314e-05
1.504134533e-05
1.504134372e-05
1.504134396e-05
1.504134292e-05
1.504134306e-05
1.504134247e-05
1.50413451e-05
1.504134389e-05
1.504134529e-05
1.504134327e-05
1.50413435e-05
1.504134515e-05
1.504134252e-05
1.504134255e-05
1.50413432e-05
1.504134553e-05
1.504134217e-05
1.504134364e-05
1.504134419e-05
1.504134557e-05
1.504134501e-05
1.504134232e-05
1.504134284e-05
1.504134358e-05
1.504134459e-05
1.504134437e-05
1.504134422e-05
1.504134411e-05
1.504134474e-05
1.504134387e-05
1.504134282e-05
1.504134452e-05
1.504134375e-05
1.504134412e-05
1.504134456e-05
1.504134521e-05
1.504134389e-05
1.504134304e-05
1.504134462e-05
1.5041344e-05
1.504134271e-05
1.504134409e-05
1.504134392e-05
1.504134305e-05
1.504134294e-05
1.504134384e-05
1.504134501e-05
1.504134455e-05
1.50413447e-05
)
;
    }
    outlet
    {
        type            calculated;
        value           nonuniform 0();
    }
    procBoundary0to1
    {
        type            processor;
        value           nonuniform List<scalar> 
97
(
1.590251479e-05
1.580524211e-05
1.64795378e-05
1.77401241e-05
1.956122991e-05
2.084048888e-05
1.95611908e-05
1.774005725e-05
1.64794707e-05
1.590246823e-05