/*--------------------------------*- C++ -*----------------------------------*\
| =========                 |                                                 |
| \\      /  F ield         | OpenFOAM: The Open Source CFD Toolbox           |
|  \\    /   O peration     | Version:  4.x                                   |
|   \\  /    A nd           | Web:      www.OpenFOAM.org                      |
|    \\/     M anipulation  |                                                 |
\*---------------------------------------------------------------------------*/
FoamFile
{
    version     2.0;
    format      ascii;
    class       volScalarField;
    location    "2000";
    object      CO;
}
// * * * * * * * * * * * * * * * * * * * * * * * * * * * * * * * * * * * * * //

dimensions      [0 0 0 0 0 0 0];

internalField   nonuniform List<scalar> 
1174
(
0.3999926689
0.3999871938
0.3999794584
0.3999693629
0.3999570117
0.3999426742
0.3999267294
0.3999096093
0.3998917522
0.3998735717
0.399855451
0.3998377989
0.3998213412
0.3998083993
0.399987532
0.3999787549
0.3999670606
0.3999527159
0.3999362115
0.3999181435
0.3998991179
0.3998796872
0.3998603178
0.3998413821
0.3998231747
0.3998059821
0.3997903565
0.3997782837
0.3999761843
0.3999606677
0.3999414581
0.3999196329
0.39989636
0.3998726894
0.3998494537
0.3998272471
0.3998064479
0.399787263
0.3997697817
0.3997540601
0.3997403552
0.3997300791
0.3999595553
0.3999354468
0.3999077524
0.399878491
0.3998493473
0.3998215335
0.399795809
0.3997725666
0.3997519324
0.3997338558
0.3997181857
0.3997047508
0.3996935378
0.3996854037
0.3999476776
0.3999188505
0.3998873823
0.3998554835
0.3998247557
0.3997962241
0.3997704491
0.3997476488
0.3997278087
0.3997107686
0.3996962914
0.3996841322
0.3996741856
0.3996670864
0.3999595558
0.3999354475
0.3999077534
0.3998784923
0.399849349
0.3998215355
0.3997958114
0.3997725693
0.3997519355
0.3997338592
0.3997181894
0.3997047548
0.3996935421
0.3996854082
0.399976185
0.3999606686
0.3999414593
0.3999196345
0.399896362
0.399872692
0.399849457
0.3998272509
0.3998064524
0.3997872681
0.3997697875
0.3997540665
0.3997403622
0.3997300866
0.3999875327
0.3999787557
0.3999670615
0.3999527171
0.3999362131
0.3999181457
0.3998991208
0.3998796908
0.3998603223
0.3998413874
0.3998231809
0.3998059892
0.3997903644
0.3997782924
0.3999926694
0.3999871943
0.399979459
0.3999693637
0.3999570128
0.3999426758
0.3999267317
0.3999096123
0.3998917561
0.3998735766
0.3998554569
0.3998378058
0.3998213493
0.3998084085
0.3999934555
0.3999875324
0.3999787553
0.3999670609
0.3999527163
0.3999362119
0.3999181439
0.3998991183
0.3998796876
0.3998603182
0.3998413825
0.3998231752
0.3998059826
0.3997903569
0.3997782841
0.3999759502
0.3999605367
0.3999417307
0.3999206573
0.3998984474
0.3998760553
0.399854192
0.3998333337
0.3998137625
0.3997956185
0.3997789546
0.3997638176
0.3997504802
0.3997403906
0.3999468089
0.3999168568
0.3998842791
0.3998518259
0.3998213838
0.3997939841
0.3997700041
0.3997493983
0.3997318884
0.3997170961
0.3997046301
0.3996941528
0.3996855128
0.39967928
0.3998950135
0.3998452008
0.3997977921
0.3997563297
0.3997220567
0.399694819
0.3996737823
0.3996578868
0.3996460903
0.3996374763
0.3996312874
0.3996269224
0.3996239323
0.3996221022
0.3998461273
0.3997861814
0.3997353293
0.3996949164
0.3996641606
0.3996415214
0.3996253545
0.3996141819
0.3996067758
0.3996021581
0.3995995677
0.3995984145
0.3995982152
0.3995984773
0.3998950155
0.3998452033
0.399797795
0.399756333
0.3997220605
0.3996948232
0.3996737869
0.3996578917
0.3996460954
0.3996374816
0.3996312929
0.3996269281
0.3996239381
0.3996221081
0.399946811
0.3999168591
0.3998842818
0.3998518292
0.3998213878
0.3997939888
0.3997700096
0.3997494046
0.3997318954
0.3997171038
0.3997046384
0.3996941616
0.399685522
0.3996792896
0.3999759516
0.3999605379
0.3999417322
0.3999206593
0.3998984501
0.3998760588
0.3998541965
0.3998333392
0.399813769
0.399795626
0.399778963
0.3997638269
0.3997504904
0.3997404015
0.3999875326
0.3999787557
0.3999670616
0.3999527173
0.3999362136
0.3999181464
0.3998991217
0.3998796921
0.3998603239
0.3998413894
0.3998231832
0.3998059918
0.3997903674
0.3997782958
0.399987336
0.3999761852
0.3999606688
0.3999414592
0.3999196341
0.3998963612
0.3998726906
0.399849455
0.3998272483
0.3998064491
0.3997872642
0.3997697829
0.3997540613
0.3997403564
0.3997300802
0.3999709822
0.3999468101
0.3999168579
0.3998842801
0.3998518269
0.3998213847
0.399793985
0.399770005
0.3997493992
0.3997318892
0.399717097
0.3997046309
0.3996941536
0.3996855136
0.3996792807
0.3998607234
0.399797526
0.3997402429
0.3996932076
0.3996573253
0.3996315806
0.3996141698
0.3996031713
0.3995968694
0.3995938677
0.3995930907
0.3995937309
0.3995951457
0.3995966181
0.3996692532
0.3995624646
0.3994886596
0.3994449178
0.3994241722
0.3994192785
0.3994244619
0.399435532
0.3994496425
0.3994649502
0.3994803024
0.3994949595
0.3995082229
0.3995183815
0.3994184171
0.3993120146
0.3992660177
0.3992575382
0.3992701843
0.3992936123
0.3993216784
0.399350879
0.3993792979
0.3994059501
0.3994303757
0.3994523467
0.3994714528
0.3994857392
0.3996692623
0.3995624735
0.3994886684
0.3994449268
0.3994241814
0.3994192877
0.3994244712
0.3994355412
0.3994496515
0.399464959
0.3994803111
0.399494968
0.3995082312
0.3995183897
0.39986073
0.3997975317
0.3997402491
0.3996932148
0.3996573337
0.3996315902
0.3996141804
0.3996031827
0.3995968814
0.39959388
0.3995931034
0.3995937438
0.3995951587
0.3995966313
0.3999468109
0.3999168593
0.3998842825
0.3998518305
0.3998213897
0.3997939915
0.3997700129
0.3997494084
0.3997318997
0.3997171085
0.3997046434
0.3996941669
0.3996855276
0.3996792954
0.3999761849
0.3999606687
0.3999414598
0.3999196356
0.3998963639
0.3998726946
0.3998494605
0.3998272554
0.3998064578
0.3997872743
0.3997697945
0.3997540742
0.3997403705
0.3997300956
0.3999781435
0.3999595568
0.3999354486
0.3999077544
0.3998784932
0.3998493496
0.3998215358
0.3997958113
0.3997725689
0.3997519347
0.3997338581
0.3997181879
0.3997047529
0.3996935399
0.3996854057
0.3999408041
0.3998950164
0.399845204
0.3997977952
0.3997563327
0.3997220596
0.3996948218
0.399673785
0.3996578894
0.3996460927
0.3996374785
0.3996312895
0.3996269244
0.3996239342
0.399622104
0.399799395
0.3996692589
0.3995624695
0.3994886636
0.3994449212
0.3994241752
0.399419281
0.3994244642
0.399435534
0.3994496442
0.3994649517
0.3994803038
0.3994949608
0.399508224
0.3995183826
0.3990128896
0.3988779272
0.3988548247
0.3988925124
0.3989574673
0.3990307192
0.3991026193
0.3991688422
0.3992278801
0.3992796093
0.3993245022
0.3993631429
0.3993956041
0.3994193139
0.397724819
0.3978906118
0.3981473522
0.3983942092
0.3986043277
0.398775935
0.3989144717
0.3990264342
0.3991175125
0.3991922275
0.3992540196
0.399305354
0.3993473924
0.3993776046
0.399012922
0.3988779504
0.3988548452
0.3988925315
0.3989574853
0.3990307362
0.3991026352
0.3991688571
0.3992278941
0.3992796224
0.3993245145
0.3993631545
0.3993956151
0.3994193246
0.3996692613
0.3995624758
0.3994886737
0.3994449345
0.3994241907
0.3994192981
0.399424482
0.3994355522
0.3994496626
0.3994649699
0.3994803217
0.3994949784
0.3995082414
0.3995183998
0.399895015
0.3998452044
0.3997977981
0.3997563383
0.3997220678
0.3996948322
0.3996737973
0.3996579033
0.3996461079
0.3996374948
0.3996313065
0.3996269421
0.3996239524
0.3996221227
0.3999595555
0.3999354479
0.3999077549
0.3998784953
0.3998493536
0.399821542
0.3997958195
0.3997725791
0.3997519468
0.3997338719
0.3997182033
0.3997047697
0.3996935579
0.399685425
0.3999712431
0.3999476795
0.3999188529
0.3998873851
0.3998554865
0.3998247589
0.3997962275
0.3997704524
0.3997476522
0.399727812
0.3997107719
0.3996962946
0.3996841354
0.3996741887
0.3996670894
0.3999092841
0.3998461313
0.3997861862
0.3997353343
0.3996949213
0.3996641654
0.399641526
0.3996253587
0.399614186
0.3996067797
0.3996021617
0.3995995711
0.3995984177
0.3995982182
0.3995984803
0.3996067595
0.3994184257
0.3993120243
0.3992660266
0.3992575458
0.3992701909
0.399293618
0.3993216833
0.3993508833
0.3993793017
0.3994059535
0.3994303789
0.3994523496
0.3994714555
0.3994857417
0.3979551984
0.3977248482
0.397890631
0.3981473652
0.3983942184
0.3986043346
0.3987759404
0.398914476
0.3990264376
0.3991175154
0.39919223
0.3992540218
0.3993053559
0.3993473941
0.3993776061
0.3921693702
0.3949828469
0.396545557
0.3974625556
0.3980314762
0.3984040305
0.3986604751
0.3988449498
0.3989827196
0.3990888353
0.3991725968
0.3992398202
0.3992935198
0.3993315331
0.3977248185
0.3978906449
0.3981473911
0.3983942462
0.3986043609
0.3987759643
0.3989144976
0.3990264572
0.3991175332
0.3991922462
0.3992540367
0.3993053697
0.399347407
0.3993776185
0.3994184153
0.3993120268
0.3992660384
0.3992575635
0.3992702118
0.3992936404
0.3993217062
0.399350906
0.399379324
0.3994059752
0.3994303999
0.3994523699
0.3994714752
0.3994857611
0.3998461267
0.3997861852
0.3997353375
0.3996949285
0.3996641759
0.3996415392
0.3996253741
0.399614203
0.3996067979
0.3996021808
0.3995995909
0.3995984379
0.3995982388
0.3995985013
0.3999476773
0.3999188516
0.3998873854
0.3998554891
0.399824764
0.3997962351
0.3997704625
0.3997476645
0.3997278264
0.3997107881
0.3996963124
0.3996841545
0.3996742091
0.399667111
0.3999781437
0.3999595575
0.3999354497
0.399907756
0.3998784953
0.3998493522
0.399821539
0.399795815
0.399772573
0.3997519392
0.399733863
0.3997181932
0.3997047585
0.3996935457
0.3996854118
0.3999408057
0.3998950192
0.3998452078
0.3997977999
0.399756338
0.3997220656
0.3996948281
0.3996737917
0.3996578964
0.3996460999
0.399637486
0.3996312971
0.3996269321
0.3996239419
0.3996221119
0.3997994085
0.3996692721
0.3995624839
0.3994886783
0.3994449359
0.3994241896
0.3994192952
0.3994244778
0.3994355472
0.3994496569
0.3994649639
0.3994803156
0.3994949722
0.3995082351
0.3995183935
0.3993143799
0.3990129476
0.3988779724
0.3988548627
0.3988925454
0.3989574965
0.3990307453
0.3991026427
0.3991688634
0.3992278994
0.399279627
0.3993245186
0.3993631581
0.3993956184
0.3994193277
0.3979552052
0.3977248593
0.3978906708
0.3981474083
0.3983942582
0.3986043696
0.3987759708
0.3989145026
0.3990264612
0.3991175364
0.399192249
0.3992540391
0.3993053718
0.3993474089
0.3993776202
0.3993143712
0.39901295
0.3988779834
0.398854879
0.3988925641
0.3989575158
0.399030764
0.3991026606
0.3991688802
0.3992279152
0.3992796418
0.3993245324
0.3993631711
0.3993956307
0.3994193396
0.3996692536
0.3995624792
0.3994886834
0.3994449475
0.3994242054
0.3994193134
0.3994244974
0.3994355673
0.3994496771
0.3994649839
0.3994803353
0.3994949914
0.3995082539
0.3995184121
0.3998950125
0.3998452044
0.3997978005
0.3997563427
0.3997220738
0.3996948394
0.3996738053
0.3996579119
0.3996461169
0.399637504
0.399631316
0.3996269516
0.3996239619
0.3996221323
0.3999595547
0.3999354477
0.3999077556
0.399878497
0.3998493564
0.3998215456
0.3997958241
0.3997725845
0.3997519528
0.3997338785
0.3997182103
0.3997047771
0.3996935656
0.399685433
0.3999873364
0.3999761862
0.3999606703
0.3999414614
0.3999196369
0.3998963648
0.3998726951
0.3998494603
0.3998272545
0.3998064561
0.3997872719
0.3997697913
0.3997540703
0.399740366
0.3997300904
0.3999709846
0.3999468134
0.3999168622
0.3998842854
0.3998518332
0.399821392
0.3997939932
0.3997700141
0.3997494091
0.3997318999
0.3997171082
0.3997046427
0.3996941658
0.3996855262
0.3996792937
0.3999209374
0.3998607358
0.3997975385
0.3997402563
0.3996932221
0.3996573408
0.3996315969
0.3996141868
0.3996031887
0.399596887
0.3995938853
0.3995931084
0.3995937485
0.3995951632
0.3995966356
0.3997994087
0.3996692748
0.3995624896
0.3994886867
0.3994449461
0.399424201
0.3994193071
0.39942449
0.3994355593
0.3994496688
0.3994649755
0.3994803268
0.399494983
0.3995082456
0.3995184038
0.3996067602
0.399418437
0.3993120456
0.3992660539
0.3992575762
0.3992702222
0.3992936489
0.3993217134
0.3993509121
0.3993793293
0.3994059799
0.3994304039
0.3994523735
0.3994714784
0.3994857642
0.3997994095
0.3996692774
0.3995624948
0.3994886941
0.3994449554
0.3994242113
0.3994193181
0.3994245012
0.3994355705
0.3994496799
0.3994649863
0.3994803374
0.3994949933
0.3995082556
0.3995184137
0.3999209331
0.3998607326
0.3997975383
0.3997402597
0.3996932289
0.3996573503
0.3996316086
0.3996141999
0.3996032029
0.3995969019
0.3995939007
0.399593124
0.3995937642
0.3995951789
0.3995966515
0.3999468089
0.3999168597
0.3998842853
0.3998518356
0.399821397
0.3997940005
0.3997700235
0.3997494203
0.3997319126
0.3997171223
0.3997046578
0.3996941819
0.399685543
0.3996793113
0.399976184
0.3999606686
0.3999414607
0.3999196377
0.3998963674
0.3998726996
0.3998494669
0.3998272631
0.3998064667
0.3997872843
0.3997698055
0.3997540861
0.3997403832
0.399730109
0.399993456
0.3999875333
0.3999787567
0.3999670628
0.3999527188
0.3999362151
0.399918148
0.3998991234
0.3998796937
0.3998603254
0.3998413907
0.3998231844
0.3998059928
0.3997903681
0.3997782961
0.3999871765
0.3999759528
0.3999605397
0.3999417345
0.3999206619
0.3998984532
0.3998760622
0.3998542001
0.399833343
0.3998137729
0.39979563
0.3997789671
0.399763831
0.3997504945
0.3997404057
0.3999709846
0.3999468137
0.3999168629
0.3998842867
0.3998518352
0.3998213947
0.3997939966
0.399770018
0.3997494136
0.3997319047
0.3997171135
0.3997046482
0.3996941716
0.3996855322
0.3996792999
0.3999408058
0.3998950205
0.399845211
0.3997978052
0.3997563455
0.3997220749
0.3996948391
0.3996738039
0.3996579095
0.3996461138
0.3996375003
0.3996313118
0.399626947
0.399623957
0.3996221272
0.3999092845
0.3998461351
0.3997861942
0.3997353464
0.399694937
0.3996641838
0.3996415465
0.3996253808
0.3996142091
0.3996068035
0.399602186
0.3995995956
0.3995984423
0.3995982429
0.3995985051
0.3999408063
0.3998950217
0.399845213
0.3997978083
0.3997563496
0.3997220799
0.3996948448
0.3996738102
0.3996579163
0.3996461208
0.3996375076
0.3996313193
0.3996269546
0.3996239647
0.399622135
0.3999709843
0.3999468135
0.3999168635
0.3998842887
0.3998518386
0.3998213996
0.3997940029
0.3997700257
0.3997494224
0.3997319145
0.399717124
0.3997046594
0.3996941834
0.3996855444
0.3996793126
0.3999871756
0.3999759518
0.3999605392
0.3999417348
0.3999206635
0.3998984561
0.3998760666
0.3998542061
0.3998333504
0.3998137818
0.3997956402
0.3997789785
0.3997638435
0.399750508
0.39974042
0.3999875321
0.3999787557
0.3999670624
0.3999527193
0.3999362167
0.399918151
0.3998991279
0.3998796998
0.3998603331
0.3998414001
0.3998231954
0.3998060053
0.3997903821
0.3997783115
0.3999961892
0.3999926698
0.399987195
0.3999794599
0.399969365
0.3999570144
0.3999426777
0.3999267339
0.3999096148
0.3998917588
0.3998735796
0.3998554601
0.3998378092
0.3998213528
0.3998084121
0.399993456
0.3999875334
0.3999787568
0.399967063
0.3999527192
0.3999362158
0.399918149
0.3998991246
0.3998796953
0.3998603273
0.399841393
0.399823187
0.3998059957
0.3997903713
0.3997782998
0.3999873364
0.3999761863
0.3999606708
0.3999414624
0.3999196387
0.3998963674
0.3998726985
0.3998494647
0.3998272597
0.3998064622
0.3997872788
0.399769799
0.3997540787
0.399740375
0.3997301001
0.3999781437
0.399959558
0.3999354513
0.399907759
0.3998784999
0.3998493587
0.3998215472
0.3997958249
0.3997725845
0.3997519521
0.3997338771
0.3997182084
0.3997047746
0.3996935627
0.3996854296
0.3999712432
0.3999476808
0.399918856
0.3998873906
0.3998554946
0.3998247696
0.3997962408
0.3997704681
0.39974767
0.3997278317
0.3997107931
0.3996963172
0.3996841591
0.3996742134
0.3996671152
0.399978144
0.3999595585
0.3999354521
0.3999077603
0.3998785018
0.3998493612
0.3998215504
0.3997958287
0.3997725888
0.3997519569
0.3997338824
0.399718214
0.3997047806
0.3996935689
0.3996854361
0.3999873364
0.3999761865
0.3999606713
0.3999414635
0.3999196405
0.3998963702
0.3998727023
0.3998494695
0.3998272656
0.3998064691
0.3997872866
0.3997698076
0.399754088
0.3997403851
0.3997301108
0.3999934559
0.3999875332
0.3999787568
0.3999670634
0.3999527202
0.3999362177
0.3999181519
0.3998991287
0.3998797006
0.3998603339
0.3998414008
0.3998231961
0.399806006
0.3997903827
0.3997783122
0.3999961889
0.3999926694
0.3999871946
0.3999794599
0.3999693654
0.3999570155
0.3999426798
0.3999267371
0.3999096194
0.3998917648
0.3998735871
0.3998554692
0.3998378199
0.399821365
0.3998084258
)
;

boundaryField
{
    top
    {
        type            zeroGradient;
    }
    bottom
    {
        type            zeroGradient;
    }
    side-walls
    {
        type            zeroGradient;
    }
    inlet
    {
        type            zeroGradient;
    }
    outlet
    {
        type            zeroGradient;
    }
    procBoundary1to0
    {
        type            processor;
        value           nonuniform List<scalar> 
97
(
0.3999961889
0.3999961889
0.3999934559
0.3999873367
0.3999781448
0.399971245
0.3999781452
0.3999873372
0.3999934565
0.3999961894
0.3999969561
0.3999871755
0.3999871755
0.3999871755
0.3999709845
0.3999408082
0.3999092909
0.39994081
0.3999709865
0.3999871773
0.3999934564
0.399994186
0.3999870169
0.3999209327
0.3999209327
0.3999209327
0.3997994135
0.3996067952
0.3997994242
0.399920943
0.3999709864
0.3999873371
0.3999901271
0.399974377
0.3999192995
0.399314363
0.399314363
0.399314363
0.3979554293
0.3993144351
0.3997994232
0.3999408095
0.399978145
0.3999872286
0.399962451
0.3998581362
0.3994455418
0.3868229848
0.3868229848
0.3868229848
0.397955415
0.397955415
0.3996067914
0.3999092901
0.3999712446
0.3999901271
0.3999743768
0.3999192979
0.3997592526
0.399445532
0.3997592591
0.3997994
0.3997994
0.3997994
0.399940806
0.3999781442
0.399994186
0.3999870167
0.3999660101
0.3999192977
0.3998581348
0.3999192991
0.3999660107
0.3999709825
0.3999709825
0.3999709825
0.3999873362
0.3999969561
0.3999941291
0.3999870167
0.3999743767
0.3999624509
0.3999743771
0.3999870169
0.3999941292
0.3999934555
0.3999934555
0.3999934555
0.3999982101
0.3999969561
0.399994186
0.3999901271
0.3999872286
0.3999901272
0.3999941861
0.3999969561
0.3999982101
)
;
    }
}


// ************************************************************************* //
