/*--------------------------------*- C++ -*----------------------------------*\
| =========                 |                                                 |
| \\      /  F ield         | OpenFOAM: The Open Source CFD Toolbox           |
|  \\    /   O peration     | Version:  4.x                                   |
|   \\  /    A nd           | Web:      www.OpenFOAM.org                      |
|    \\/     M anipulation  |                                                 |
\*---------------------------------------------------------------------------*/
FoamFile
{
    version     2.0;
    format      ascii;
    class       volScalarField;
    location    "2000";
    object      CO2;
}
// * * * * * * * * * * * * * * * * * * * * * * * * * * * * * * * * * * * * * //

dimensions      [0 0 0 0 0 0 0];

internalField   nonuniform List<scalar> 
1174
(
9.383112683e-06
1.638945334e-05
2.62883115e-05
3.920744085e-05
5.501358466e-05
7.336199827e-05
9.376789073e-05
0.0001156786417
0.0001385334667
0.0001618030109
0.0001849971627
0.0002075925035
0.0002286597867
0.0002452270742
1.595656316e-05
2.718799849e-05
4.215261635e-05
6.050897363e-05
8.162962282e-05
0.0001047518899
0.0001291004804
0.0001539685604
0.0001787592451
0.0002029960639
0.0002263018351
0.0002483099687
0.0002683132802
0.0002837687771
3.047693274e-05
5.033151466e-05
7.49120039e-05
0.0001028401429
0.0001326218279
0.0001629135921
0.0001926500121
0.0002210711258
0.0002476924987
0.0002722493872
0.0002946272376
0.0003147541631
0.0003323006244
0.0003454577639
5.175375434e-05
8.260124188e-05
0.0001180379682
0.0001554809749
0.0001927748733
0.0002283688133
0.0002612909034
0.0002910384592
0.000317449844
0.0003405896447
0.0003606510727
0.000377852959
0.0003922116471
0.0004026284441
6.695005464e-05
0.0001038345516
0.0001440997373
0.0001849175367
0.0002242387141
0.0002607513585
0.0002937385932
0.0003229208816
0.0003483166375
0.0003701307004
0.000388666047
0.0004042359022
0.0004169744051
0.000426067188
5.175285376e-05
8.259992332e-05
0.0001180361254
0.0001554784935
0.0001927716537
0.0002283647783
0.0002612859865
0.000291032642
0.0003174432344
0.0003405822419
0.0003606428922
0.0003778441193
0.0003922021859
0.0004026183893
3.047568307e-05
5.03298533e-05
7.490979912e-05
0.0001028371669
0.000132617832
0.0001629083422
0.0001926434307
0.0002210630404
0.0002476828793
0.0002722382603
0.0002946146126
0.0003147401502
0.0003322852813
0.0003454411618
1.595543244e-05
2.718666871e-05
4.215093192e-05
6.050667882e-05
8.16264328e-05
0.0001047474689
0.0001290946296
0.0001539609987
0.0001787498101
0.000202984681
0.0002262884542
0.0002482945424
0.000268295915
0.0002837496647
9.382308182e-06
1.638864537e-05
2.628732254e-05
3.920603464e-05
5.501146278e-05
7.335882662e-05
9.376334574e-05
0.0001156723921
0.0001385252375
0.0001617925952
0.0001849843832
0.0002075772472
0.0002286419967
0.0002452066605
8.376280975e-06
1.595569545e-05
2.718716198e-05
4.215177319e-05
6.050811249e-05
8.162874511e-05
0.0001047509812
0.0001290995908
0.0001539676476
0.000178758318
0.0002029951366
0.0002263009202
0.000248309051
0.0002683124008
0.0002837679305
3.077670964e-05
5.049921721e-05
7.456306034e-05
0.0001015292609
0.0001299506389
0.0001586065996
0.0001865870575
0.0002132828759
0.000238332895
0.0002615577854
0.0002828896955
0.000302268519
0.0003193445678
0.0003322627035
6.806365408e-05
0.0001063874478
0.000148071887
0.0001895988244
0.0002285544124
0.0002636190044
0.0002943095585
0.0003206840446
0.0003430984056
0.0003620362703
0.000377998339
0.0003914160504
0.0004024827284
0.0004104665325
0.0001343319037
0.0001980652314
0.0002587256478
0.0003117806955
0.0003556394339
0.0003904987819
0.0004174255093
0.000437775311
0.0004528812769
0.0004639157154
0.0004718474819
0.0004774456308
0.0004812840263
0.000483635001
0.0001968726385
0.0002735702928
0.0003386372307
0.0003903509294
0.0004297112684
0.0004586885154
0.0004793859541
0.0004936939371
0.0005031833209
0.0005091053156
0.0005124334888
0.0005139226296
0.0005141904615
0.0005138645002
0.0001343282093
0.0001980607272
0.0002587202643
0.0003117742965
0.0003556319211
0.0003904902679
0.0004174160892
0.0004377650057
0.0004528702818
0.000463904081
0.0004718354285
0.0004774330874
0.0004812711108
0.0004836216849
6.805971527e-05
0.0001063831625
0.0001480668317
0.0001895924861
0.0002285464473
0.0002636091906
0.0002942978492
0.0003206704661
0.0003430831593
0.0003620194241
0.0003779800863
0.0003913966281
0.0004024622237
0.0004104450197
3.077428966e-05
5.049696732e-05
7.456033023e-05
0.0001015254607
0.0001299452753
0.0001585993004
0.0001865775793
0.0002132711442
0.0002383188377
0.0002615413822
0.0002828710917
0.0003022478489
0.0003193219474
0.0003322383475
1.595553982e-05
2.718670047e-05
4.215077786e-05
6.050621499e-05
8.162551147e-05
0.0001047459929
0.0001290924847
0.0001539581211
0.0001787461887
0.0002029802379
0.0002262831916
0.0002482885203
0.0002682890563
0.0002837417188
1.620662585e-05
3.04747881e-05
5.032920596e-05
7.490958009e-05
0.0001028376242
0.000132619243
0.0001629109452
0.0001926473913
0.0002210685068
0.0002476898795
0.0002722467994
0.0002946246942
0.0003147516957
0.0003322982117
0.0003454554303
3.713310601e-05
6.806081847e-05
0.0001063849509
0.0001480695908
0.0001895966395
0.0002285523399
0.0002636170096
0.0002943075993
0.0003206820965
0.0003430965282
0.0003620344173
0.0003779965787
0.0003914143197
0.0004024810553
0.0004104649711
0.0001782068942
0.0002590629575
0.000332356103
0.0003925414948
0.0004384601198
0.0004714103493
0.0004936989942
0.0005077843398
0.0005158610157
0.0005197154973
0.0005207233935
0.0005199179779
0.0005181205821
0.0005162461886
0.0004231665391
0.0005597912341
0.000654224848
0.000710200707
0.0007367583105
0.0007430361764
0.0007364215094
0.0007222751118
0.0007042384089
0.0006846692102
0.0006650423641
0.0006463040843
0.0006293477079
0.0006163599422
0.0007440475789
0.0008801838084
0.0009390486913
0.0009499182759
0.0009337607518
0.0009038083654
0.0008679208409
0.0008305806268
0.0007942391153
0.0007601566883
0.0007289220031
0.0007008266482
0.0006763952628
0.0006581263348
0.0004231494233
0.00055977477
0.0006542080056
0.0007101830346
0.0007367396131
0.0007430167565
0.0007364017248
0.000722255193
0.0007042184872
0.0006846496409
0.0006650230428
0.0006462850525
0.0006293289554
0.0006163412804
0.0001781946464
0.0002590523966
0.0003323442993
0.000392526998
0.0004384425616
0.0004713898561
0.000493676038
0.0005077594705
0.0005158346502
0.0005196880007
0.0005206950886
0.0005198891238
0.000518091325
0.0005162163803
6.805996859e-05
0.0001063827471
0.0001480652986
0.0001895895723
0.0002285420117
0.0002636032382
0.0002942904905
0.000320661866
0.0003430734744
0.0003620088212
0.0003779687223
0.0003913845566
0.0004024495425
0.000410431824
3.047594867e-05
5.032967166e-05
7.490871878e-05
0.0001028347717
0.0001326137641
0.0001629023935
0.0001926354359
0.000221052998
0.0002476708668
0.0002722243231
0.000294598924
0.0003147227783
0.0003322663147
0.0003454205482
2.796848124e-05
5.175016634e-05
8.259717517e-05
0.0001180335512
0.0001554763127
0.0001927700495
0.0002283638775
0.0002612859818
0.000291033511
0.0003174449989
0.0003405848355
0.000360646362
0.000377848414
0.0003922072666
0.0004026241734
7.574313264e-05
0.0001343251931
0.0001980585286
0.0002587191433
0.0003117744182
0.0003556334
0.0003904930246
0.0004174200479
0.0004377700964
0.0004528763823
0.0004639110602
0.0004718431152
0.0004774414705
0.0004812800238
0.0004836311373
0.0002566657907
0.0004231532526
0.000559780877
0.0006542164305
0.0007101936857
0.0007367522013
0.0007430308698
0.0007364168443
0.0007222710348
0.0007042347242
0.0006846659478
0.0006650393904
0.0006463013526
0.0006293452151
0.0006163575516
0.001262861619
0.001435526281
0.001465103485
0.001416914565
0.001333841694
0.001240151906
0.001148188895
0.001063486466
0.0009879738671
0.0009218098392
0.0008643903936
0.0008149684738
0.0007734507968
0.0007431254116
0.002910568632
0.002698527087
0.002370136481
0.002054378102
0.001785609176
0.001566099936
0.001388892264
0.001245677023
0.001129175925
0.001033606444
0.0009545676582
0.0008889063252
0.0008351360531
0.0007964916424
0.001262801014
0.001435482162
0.001465062881
0.001416875003
0.001333803186
0.001240114794
0.001148153534
0.001063453062
0.0009879423453
0.0009217801598
0.0008643624496
0.0008149419457
0.0007734255148
0.0007431008357
0.0004231513246
0.0005597699465
0.0006541965218
0.0007101660565
0.000736718909
0.0007429938288
0.0007363775345
0.0007222305218
0.0007041937265
0.0006846251274
0.0006649990255
0.0006462615376
0.0006293060377
0.0006163184661
0.0001343292465
0.0001980584152
0.0002587134196
0.0003117626494
0.0003556157259
0.0003904701396
0.0004173926624
0.00043773898
0.0004528422384
0.0004638745376
0.0004718047088
0.0004774015355
0.0004812388587
0.0004835887462
5.175355264e-05
8.259919038e-05
0.000118032908
0.0001554719754
0.0001927613263
0.000228350425
0.0002612677421
0.0002910106622
0.0003174177632
0.0003405536675
0.0003606115685
0.0003778104274
0.0003921663185
0.0004025802048
3.679703149e-05
6.694571875e-05
0.0001038293877
0.0001440938816
0.0001849111738
0.0002242319827
0.0002607444424
0.0002937315838
0.0003229138447
0.000348309643
0.000370123812
0.0003886592948
0.0004042293161
0.0004169679618
0.0004260608896
0.0001160669025
0.0001968635775
0.0002735603963
0.0003386270866
0.0003903408624
0.000429701546
0.0004586791623
0.0004793771479
0.0004936855848
0.0005031754081
0.0005090978987
0.0005124264413
0.0005139159544
0.0005141840459
0.0005138583412
0.0005030881794
0.0007440268467
0.0008801634124
0.0009390303853
0.0009499024779
0.0009337470541
0.0009037964751
0.0008679105644
0.0008305715885
0.0007942311481
0.0007601495281
0.00072891542
0.0007008206544
0.0006763897355
0.0006581212098
0.002615816614
0.002910505159
0.002698486769
0.002370109605
0.002054359074
0.001785594941
0.001566088846
0.001388883498
0.001245669841
0.001129169867
0.001033601222
0.0009545631049
0.0008889023913
0.0008351325045
0.0007964884615
0.01001704434
0.006418135175
0.004419164068
0.003246168975
0.002518422431
0.00204186161
0.001713825022
0.001477850477
0.001301620199
0.001165881264
0.001058737774
0.0009727499248
0.0009040613776
0.000855436692
0.002910570647
0.002698464161
0.002370056899
0.002054299544
0.001785537203
0.00156603553
0.001388834899
0.001245625661
0.001129129635
0.001033564327
0.0009545291596
0.0008888708774
0.0008351029745
0.0007964600801
0.0007440521489
0.0008801598159
0.0009390051402
0.000949863523
0.0009337005484
0.0009037463099
0.0008678590599
0.0008305201849
0.0007941805389
0.0007601002051
0.0007288675581
0.0007007743501
0.0006763447664
0.0006580768867
0.0001968743339
0.0002735630357
0.0003386202158
0.0003903249199
0.0004296778432
0.0004586492382
0.0004793422578
0.0004936469772
0.0005031339683
0.0005090543146
0.0005123813055
0.0005138697491
0.0005141370635
0.0005138103774
6.695104398e-05
0.0001038325626
0.0001440931594
0.0001849053836
0.0002242205622
0.0002607271977
0.0002937087922
0.0003228858069
0.0003482769459
0.0003700868938
0.0003886186967
0.000404185548
0.0004169213635
0.000426011291
2.796818179e-05
5.174910161e-05
8.259518509e-05
0.0001180305133
0.0001554721716
0.0001927647699
0.000228357443
0.0002612784226
0.0002910248946
0.000317435359
0.0003405743286
0.0003606350535
0.0003778363401
0.0003921945519
0.0004026108895
7.574024044e-05
0.0001343199625
0.0001980512638
0.000258710064
0.0003117637895
0.0003556213759
0.0003904798793
0.000417405953
0.000437755163
0.0004528607912
0.0004638950018
0.0004718266453
0.0004774247608
0.0004812630608
0.0004836138424
0.0002566390542
0.0004231277781
0.0005597529655
0.0006541874123
0.0007101640674
0.0007367224814
0.0007430012745
0.000736387922
0.0007222428023
0.0007042072185
0.0006846393312
0.0006650135508
0.0006462763697
0.0006293208236
0.0006163334685
0.0008771256496
0.00126274493
0.001435436525
0.001465026695
0.001416846267
0.001333780105
0.001240095989
0.00114813808
0.001063440068
0.0009879312666
0.0009217706183
0.0008643539891
0.0008149345012
0.0007734186448
0.0007430943807
0.00261580288
0.002910484234
0.002698410102
0.002370021414
0.002054274638
0.00178551907
0.001566022092
0.001388824449
0.001245617202
0.001129122797
0.001033558586
0.0009545241816
0.0008888665344
0.0008350991095
0.0007964565158
0.0008771439913
0.00126274222
0.001435413792
0.001464990996
0.00141680444
0.001333736388
0.00124005315
0.001148097083
0.00106340135
0.0009878950448
0.0009217366649
0.0008643221804
0.0008149046089
0.0007733903943
0.000743067016
0.0004231662035
0.0005597619444
0.0006541751003
0.0007101372299
0.0007366862673
0.0007429594839
0.0007363430152
0.0007221966399
0.0007041609214
0.0006845933299
0.0006649683397
0.0006462319984
0.0006292774284
0.0006162904445
0.0001343344332
0.0001980582615
0.0002587079531
0.0003117526701
0.0003556022283
0.0003904540013
0.0004173746356
0.0004377196012
0.0004528219621
0.0004638536063
0.0004717833837
0.000477380056
0.000481217184
0.0004835669021
5.17551007e-05
8.259948132e-05
0.0001180312676
0.0001554680985
0.0001927551682
0.0002283420713
0.0002612573791
0.0002909985501
0.0003174041692
0.0003405387767
0.0003605956429
0.0003777935503
0.0003921486892
0.000402561955
1.62059347e-05
3.04731137e-05
5.03263902e-05
7.490546111e-05
0.0001028320162
0.0001326119656
0.0001629018871
0.0001926364356
0.0002210556805
0.0002476752511
0.0002722304076
0.0002946066331
0.000314732113
0.0003322772263
0.0003454331375
3.712842415e-05
6.805453993e-05
0.0001063766677
0.0001480592885
0.0001895841409
0.0002285375424
0.0002635999697
0.0002942884897
0.0003206610836
0.0003430738045
0.0003620102283
0.000377971111
0.0003913877537
0.0004024534973
0.0004104364251
0.0001011608551
0.0001781821086
0.0002590381615
0.0003323292732
0.0003925119504
0.0004384279182
0.000471375837
0.0004936628172
0.0005077469655
0.0005158229608
0.0005196769554
0.0005206846761
0.0005198792519
0.0005180819403
0.0005162072912
0.0002566391045
0.0004231227196
0.00055974139
0.0006541699287
0.0007101421992
0.0007366977752
0.0007429750462
0.0007363610197
0.0007222158955
0.0007041807655
0.0006846134582
0.0006649883864
0.0006462519336
0.0006292970843
0.0006163101061
0.0005030874172
0.0007440056409
0.0008801203409
0.0009389728288
0.000949837193
0.0009336789553
0.0009037285098
0.0008678439938
0.0008305074881
0.0007941695235
0.0007600905284
0.0007288591487
0.0007007667978
0.000676337901
0.0006580704114
0.0002566376242
0.000423117267
0.0005597300486
0.0006541529975
0.0007101210262
0.0007366738709
0.0007429497309
0.0007363349889
0.0007221898078
0.0007041551019
0.0006845883167
0.0006649639446
0.000646228107
0.0006292739358
0.0006162872495
0.0001011696969
0.0001781886311
0.0002590379365
0.0003323210348
0.000392496182
0.0004384059189
0.0004713490746
0.0004936325411
0.0005077142419
0.000515788566
0.0005196416367
0.0005206488048
0.000519843048
0.0005180456176
0.0005161706005
6.806369484e-05
0.0001063813764
0.0001480587349
0.0001895779285
0.0002285256801
0.0002635828286
0.0002942665838
0.0003206350696
0.0003430442373
0.0003619776766
0.0003779359977
0.0003913505653
0.0004024145358
0.0004103958132
3.047769151e-05
5.032991848e-05
7.490667669e-05
0.0001028298811
0.0001326057233
0.0001628911159
0.0001926209771
0.0002210355386
0.0002476505877
0.0002722015411
0.0002945738224
0.0003146957291
0.0003322375325
0.0003453902162
8.375217289e-06
1.595395361e-05
2.718454906e-05
4.214811144e-05
6.050314796e-05
8.162217627e-05
0.000104742544
0.0001290890844
0.000153954909
0.0001787432624
0.0002029777055
0.0002262811519
0.0002482870063
0.0002682881712
0.0002837417807
1.641047316e-05
3.077154531e-05
5.049322428e-05
7.455561535e-05
0.0001015198575
0.0001299389099
0.0001585922986
0.0001865700988
0.0002132632699
0.0002383107099
0.0002615330671
0.0002828626428
0.0003022393045
0.0003193133495
0.000332229752
3.712842706e-05
6.805401577e-05
0.0001063751782
0.0001480564717
0.0001895798489
0.0002285316981
0.0002635926355
0.0002942797871
0.000320651215
0.000343062972
0.0003619985164
0.0003779587083
0.00039137477
0.0004024399963
0.0004104225241
7.574034055e-05
0.0001343175567
0.0001980447762
0.0002586987704
0.0003117476798
0.0003556009826
0.0003904558375
0.0004173790259
0.0004377260458
0.0004528299969
0.0004638629675
0.0004717937973
0.0004773912901
0.0004812291241
0.0004835793919
0.0001160665235
0.0001968564243
0.0002735440726
0.0003386015168
0.0003903072604
0.0004296614287
0.000458634122
0.0004793284487
0.0004936342921
0.0005031223339
0.0005090436609
0.0005123714531
0.0005138606686
0.0005141285186
0.0005138022775
7.573917228e-05
0.0001343150086
0.0001980401529
0.0002586917408
0.0003117383183
0.0003555895325
0.0003904426945
0.0004173645243
0.0004377105217
0.000452813707
0.0004638460746
0.0004717764532
0.0004773736633
0.0004812113195
0.0004835613581
3.712905459e-05
6.805425064e-05
0.000106373542
0.0001480519218
0.0001895718773
0.0002285202552
0.0002635778689
0.0002942620307
0.0003206308816
0.0003430404658
0.0003619741883
0.0003779328284
0.0003913475644
0.0004024117545
0.0004103932263
1.641232672e-05
3.077353983e-05
5.0494202e-05
7.45545866e-05
0.0001015160977
0.0001299319401
0.0001585818804
0.0001865561796
0.0002132459416
0.0002382901347
0.0002615094951
0.0002828363259
0.0003022104534
0.0003192821807
0.000332196517
1.595658595e-05
2.718645475e-05
4.21487262e-05
6.050181805e-05
8.161829228e-05
0.0001047355916
0.0001290786577
0.0001539408041
0.000178725361
0.0002029559959
0.0002262557142
0.0002482579758
0.0002682557319
0.0002837059959
4.877731486e-06
9.381343472e-06
1.638720864e-05
2.628532453e-05
3.920340733e-05
5.500816543e-05
7.335484728e-05
9.375870223e-05
0.0001156671262
0.0001385194092
0.0001617862608
0.0001849776165
0.0002075701081
0.0002286345581
0.0002451990533
8.375248457e-06
1.595392125e-05
2.71843644e-05
4.214765711e-05
6.050227984e-05
8.162077912e-05
0.0001047405119
0.0001290863546
0.000153951423
0.0001787389926
0.0002029726725
0.0002262753475
0.0002482804166
0.0002682807912
0.0002837334004
1.620599366e-05
3.04728368e-05
5.032538584e-05
7.490328053e-05
0.0001028282832
0.0001326063944
0.000162894296
0.0001926268085
0.0002210440132
0.0002476616205
0.0002722149633
0.0002945894774
0.0003147133706
0.0003322570168
0.0003454112713
2.796822992e-05
5.174804601e-05
8.259201447e-05
0.0001180243084
0.000155462278
0.0001927508745
0.0002283395167
0.0002612566058
0.0002909994765
0.0003174067254
0.0003405428433
0.0003606010608
0.0003778002209
0.000392156426
0.0004025706179
3.679692489e-05
6.694330338e-05
0.0001038230258
0.000144082374
0.0001848938653
0.0002242087069
0.0002607153464
0.0002936970635
0.0003228744511
0.000348265944
0.000370076381
0.0003886087386
0.0004041760687
0.0004169123226
0.0004260026146
2.796776798e-05
5.174705083e-05
8.259014326e-05
0.000118021261
0.0001554578572
0.0001927449861
0.0002283321705
0.0002612478677
0.0002909894696
0.0003173955253
0.0003405306039
0.0003605879685
0.0003777863434
0.000392141861
0.0004025554471
1.620586018e-05
3.047241057e-05
5.032417379e-05
7.490072528e-05
0.0001028238943
0.0001325998382
0.0001628853793
0.000192615426
0.0002210302669
0.0002476455754
0.0002721967882
0.0002945693967
0.0003146915611
0.0003322335928
0.0003453864668
8.375482851e-06
1.595421356e-05
2.718427882e-05
4.214664061e-05
6.049978095e-05
8.161630101e-05
0.0001047336462
0.0001290767857
0.0001539390013
0.0001787236391
0.0002029543794
0.0002262541867
0.0002482565
0.0002682542999
0.0002837046232
4.878261886e-06
9.382080492e-06
1.638779742e-05
2.628531336e-05
3.920227087e-05
5.500535282e-05
7.33498289e-05
9.3751002e-05
0.0001156563759
0.0001385053266
0.0001617686403
0.0001849563955
0.0002075452681
0.0002286061724
0.0002451671936
)
;

boundaryField
{
    top
    {
        type            zeroGradient;
    }
    bottom
    {
        type            zeroGradient;
    }
    side-walls
    {
        type            zeroGradient;
    }
    inlet
    {
        type            zeroGradient;
    }
    outlet
    {
        type            zeroGradient;
    }
    procBoundary1to0
    {
        type            processor;
        value           nonuniform List<scalar> 
97
(
4.878249616e-06
4.878249616e-06
8.375341695e-06
1.620518453e-05
2.796570586e-05
3.679283571e-05
2.796497185e-05
1.62041531e-05
8.374315812e-06
4.877223843e-06
3.895947074e-06
1.641238718e-05
1.641238718e-05
1.641238718e-05
3.712820438e-05
7.573437426e-05
0.0001160515733
7.573090447e-05
3.712411461e-05
1.640867549e-05
8.374374545e-06
7.440598643e-06
1.661356828e-05
0.0001011700276
0.0001011700276
0.0001011700276
0.0002566256314
0.0005030061762
0.0002566044355
0.0001011485212
3.712430449e-05
1.620432384e-05
1.263419235e-05
3.278606543e-05
0.0001032502217
0.000877146099
0.000877146099
0.000877146099
0.002615267481
0.000876997987
0.0002566062383
7.57317569e-05
2.796545002e-05
1.63428768e-05
4.804409002e-05
0.0001814976075
0.0007092925098
0.01685390893
0.01685390893
0.01685390893
0.002615297898
0.002615297898
0.0005030140021
0.0001160534901
3.679361911e-05
1.263436435e-05
3.278669573e-05
0.0001032552178
0.0003080036821
0.0007093162774
0.0003079881464
0.0002566559126
0.0002566559126
0.0002566559126
7.573924454e-05
2.796699745e-05
7.440741114e-06
1.661426589e-05
4.349188772e-05
0.000103255585
0.0001815009455
0.000103252325
4.349021448e-05
3.713259963e-05
3.713259963e-05
3.713259963e-05
1.620627049e-05
3.896079785e-06
7.513495351e-06
1.661428929e-05
3.278686577e-05
4.804449556e-05
3.278596421e-05
1.661382062e-05
7.513305797e-06
8.3762706e-06
8.3762706e-06
8.3762706e-06
2.291342749e-06
3.89609476e-06
7.440782923e-06
1.26344304e-05
1.634295799e-05
1.263414492e-05
7.440575688e-06
3.896018995e-06
2.291328402e-06
)
;
    }
}


// ************************************************************************* //
