/*--------------------------------*- C++ -*----------------------------------*\
| =========                 |                                                 |
| \\      /  F ield         | OpenFOAM: The Open Source CFD Toolbox           |
|  \\    /   O peration     | Version:  4.x                                   |
|   \\  /    A nd           | Web:      www.OpenFOAM.org                      |
|    \\/     M anipulation  |                                                 |
\*---------------------------------------------------------------------------*/
FoamFile
{
    version     2.0;
    format      ascii;
    class       volScalarField;
    location    "2000";
    object      Cpv;
}
// * * * * * * * * * * * * * * * * * * * * * * * * * * * * * * * * * * * * * //

dimensions      [0 2 -2 -1 0 0 0];

internalField   nonuniform List<scalar> 
1174
(
1210.460333
1210.460775
1210.461397
1210.462235
1210.463229
1210.46438
1210.465693
1210.467084
1210.468523
1210.470009
1210.47145
1210.472892
1210.474223
1210.475288
1210.461189
1210.461896
1210.462854
1210.464027
1210.465348
1210.466798
1210.468345
1210.469927
1210.471465
1210.472974
1210.474463
1210.475856
1210.477112
1210.478092
1210.462118
1210.463376
1210.464942
1210.466716
1210.46859
1210.470502
1210.472371
1210.474172
1210.475852
1210.477399
1210.47881
1210.480063
1210.481154
1210.481992
1210.462918
1210.464856
1210.467116
1210.469471
1210.471819
1210.474071
1210.476172
1210.47805
1210.479753
1210.481215
1210.482482
1210.483597
1210.484504
1210.485198
1210.46392
1210.466263
1210.46883
1210.471411
1210.473897
1210.476184
1210.47829
1210.480133
1210.481746
1210.483128
1210.484311
1210.485267
1210.48608
1210.486645
1210.462927
1210.464882
1210.467118
1210.469501
1210.471848
1210.474101
1210.476194
1210.478077
1210.479711
1210.481163
1210.482417
1210.483483
1210.484402
1210.485068
1210.461942
1210.463188
1210.464737
1210.466491
1210.468369
1210.470293
1210.472149
1210.473959
1210.475651
1210.477201
1210.478621
1210.479907
1210.481008
1210.481832
1210.460563
1210.46128
1210.462236
1210.463417
1210.464739
1210.466218
1210.467748
1210.469323
1210.470889
1210.472419
1210.473879
1210.475287
1210.476538
1210.477541
1210.460238
1210.460689
1210.461322
1210.462133
1210.463128
1210.464284
1210.465565
1210.466986
1210.468441
1210.469905
1210.471382
1210.472825
1210.474146
1210.475192
1210.460562
1210.461056
1210.461752
1210.462701
1210.46386
1210.465192
1210.466642
1210.468167
1210.469749
1210.47132
1210.472847
1210.474312
1210.475679
1210.476971
1210.477942
1210.461329
1210.462569
1210.464088
1210.465809
1210.467605
1210.46942
1210.47121
1210.472907
1210.474466
1210.475937
1210.477284
1210.478485
1210.47956
1210.480362
1210.463936
1210.466371
1210.469039
1210.471659
1210.474102
1210.47633
1210.478297
1210.479965
1210.481398
1210.482587
1210.483615
1210.484459
1210.485156
1210.485675
1210.468132
1210.47218
1210.476016
1210.479379
1210.482156
1210.484372
1210.486054
1210.487338
1210.488275
1210.488985
1210.489494
1210.489845
1210.490093
1210.490245
1210.472767
1210.477616
1210.481729
1210.485005
1210.487485
1210.489328
1210.490653
1210.491539
1210.492143
1210.49251
1210.492722
1210.492807
1210.492826
1210.492803
1210.468132
1210.472176
1210.476042
1210.479381
1210.482176
1210.48437
1210.486071
1210.487345
1210.488292
1210.488959
1210.489478
1210.489855
1210.490099
1210.490223
1210.464039
1210.466461
1210.469108
1210.471732
1210.474181
1210.476366
1210.478297
1210.47996
1210.481381
1210.482585
1210.483592
1210.48441
1210.485098
1210.485642
1210.461782
1210.463027
1210.464544
1210.466268
1210.468072
1210.469871
1210.471631
1210.473315
1210.47489
1210.476377
1210.477702
1210.478935
1210.480002
1210.480783
1210.460895
1210.46159
1210.462523
1210.463685
1210.465052
1210.466522
1210.468037
1210.469592
1210.471177
1210.472708
1210.474195
1210.475547
1210.476807
1210.477809
1210.46078
1210.461678
1210.462964
1210.464524
1210.466301
1210.468178
1210.470071
1210.471954
1210.473744
1210.47544
1210.476983
1210.478408
1210.479686
1210.480804
1210.481607
1210.462503
1210.464463
1210.466891
1210.469541
1210.47218
1210.474622
1210.476838
1210.478803
1210.480474
1210.481919
1210.483105
1210.484121
1210.484975
1210.485684
1210.486185
1210.470778
1210.475929
1210.480565
1210.484394
1210.487295
1210.489358
1210.490767
1210.491674
1210.492203
1210.492432
1210.492491
1210.492459
1210.492335
1210.492232
1210.487011
1210.495642
1210.501614
1210.505146
1210.506801
1210.5072
1210.506766
1210.505887
1210.504748
1210.5035
1210.502251
1210.50107
1210.499982
1210.499171
1210.50691
1210.515516
1210.519226
1210.519893
1210.518839
1210.516947
1210.514676
1210.51233
1210.510022
1210.507897
1210.505926
1210.504208
1210.50268
1210.501523
1210.486329
1210.494959
1210.500913
1210.504449
1210.506134
1210.506515
1210.506109
1210.505225
1210.504074
1210.502827
1210.501589
1210.500403
1210.499335
1210.498502
1210.471368
1210.476513
1210.481155
1210.484934
1210.487848
1210.489939
1210.491388
1210.492269
1210.492758
1210.493009
1210.493053
1210.492994
1210.492875
1210.492759
1210.464056
1210.466484
1210.469144
1210.471754
1210.474223
1210.476431
1210.478348
1210.480005
1210.481471
1210.482667
1210.483658
1210.484486
1210.485178
1210.48568
1210.461639
1210.462895
1210.464459
1210.466217
1210.468092
1210.470035
1210.471917
1210.473712
1210.475389
1210.476941
1210.478351
1210.47964
1210.48074
1210.481587
1210.461514
1210.463028
1210.464969
1210.467202
1210.46956
1210.471929
1210.474204
1210.476287
1210.478173
1210.479834
1210.481329
1210.482587
1210.483672
1210.484559
1210.485195
1210.464708
1210.468414
1210.472446
1210.476255
1210.479599
1210.482358
1210.484591
1210.486304
1210.487581
1210.488523
1210.489215
1210.489743
1210.490128
1210.490373
1210.49054
1210.475842
1210.486378
1210.495022
1210.500969
1210.504524
1210.506205
1210.506595
1210.506195
1210.505307
1210.504152
1210.502921
1210.50167
1210.500465
1210.499362
1210.498549
1210.539997
1210.550928
1210.55281
1210.549799
1210.544537
1210.538626
1210.532807
1210.527451
1210.522684
1210.518509
1210.5149
1210.511771
1210.50914
1210.507222
1210.641118
1210.627696
1210.606884
1210.586917
1210.569893
1210.556017
1210.544788
1210.535737
1210.528356
1210.522312
1210.517297
1210.513149
1210.509736
1210.507295
1210.539334
1210.550226
1210.552087
1210.549055
1210.543761
1210.537863
1210.532055
1210.526705
1210.521938
1210.51776
1210.514112
1210.511027
1210.508414
1210.506514
1210.487102
1210.495737
1210.501701
1210.505256
1210.506947
1210.50733
1210.506912
1210.506023
1210.504889
1210.503669
1210.502399
1210.501229
1210.500156
1210.499309
1210.468607
1210.472637
1210.476456
1210.479832
1210.4826
1210.484756
1210.486459
1210.487733
1210.488676
1210.489357
1210.489892
1210.490232
1210.490494
1210.490636
1210.463263
1210.465221
1210.46744
1210.469836
1210.472187
1210.474456
1210.476548
1210.478418
1210.480107
1210.481575
1210.482855
1210.483923
1210.484828
1210.485495
1210.462185
1210.464064
1210.466386
1210.468928
1210.471513
1210.47401
1210.476322
1210.478405
1210.480257
1210.481866
1210.483239
1210.484423
1210.485393
1210.486226
1210.486817
1210.467168
1210.472315
1210.477196
1210.481303
1210.484578
1210.487053
1210.488896
1210.490207
1210.491113
1210.491732
1210.49208
1210.492259
1210.492371
1210.492368
1210.492323
1210.491492
1210.506738
1210.515315
1210.519042
1210.519704
1210.518694
1210.516786
1210.514526
1210.512141
1210.50984
1210.507683
1210.505744
1210.503985
1210.502427
1210.501253
1210.622511
1210.641171
1210.62775
1210.606964
1210.586966
1210.569974
1210.556112
1210.544873
1210.53581
1210.528465
1210.522403
1210.51738
1210.513203
1210.509772
1210.507347
1209.378058
1209.149269
1209.021258
1208.945267
1208.897335
1208.865152
1208.84232
1208.825299
1208.812043
1208.801342
1208.792452
1208.784805
1208.778306
1208.773051
1210.64147
1210.628032
1210.607225
1210.587242
1210.570264
1210.556351
1210.545147
1210.536075
1210.528711
1210.522665
1210.517638
1210.51344
1210.510039
1210.507591
1210.506967
1210.515564
1210.519301
1210.519994
1210.518939
1210.517034
1210.514777
1210.512434
1210.510129
1210.507992
1210.506049
1210.504276
1210.502712
1210.501523
1210.471986
1210.476811
1210.480954
1210.48423
1210.486718
1210.488556
1210.489875
1210.490802
1210.491415
1210.491765
1210.491992
1210.492083
1210.492095
1210.492042
1210.463972
1210.466281
1210.468803
1210.471383
1210.47387
1210.476204
1210.478267
1210.480119
1210.481709
1210.483084
1210.484261
1210.485249
1210.486072
1210.486656
1210.461738
1210.463245
1210.465192
1210.467444
1210.469835
1210.472197
1210.474447
1210.47652
1210.478406
1210.480085
1210.481557
1210.482823
1210.483895
1210.484786
1210.485434
1210.464492
1210.468196
1210.472219
1210.476047
1210.479405
1210.482159
1210.48433
1210.486033
1210.487312
1210.488278
1210.488965
1210.489477
1210.489834
1210.490054
1210.490201
1210.476173
1210.486712
1210.495371
1210.501362
1210.504892
1210.506602
1210.506993
1210.506567
1210.505653
1210.504518
1210.503257
1210.502027
1210.500816
1210.499787
1210.498955
1210.514999
1210.539387
1210.550307
1210.552178
1210.549128
1210.543852
1210.53791
1210.532112
1210.526756
1210.521978
1210.517813
1210.514179
1210.511071
1210.508471
1210.506564
1210.622742
1210.641364
1210.627939
1210.607129
1210.587164
1210.570141
1210.556261
1210.545035
1210.535958
1210.528591
1210.52255
1210.517542
1210.513374
1210.509949
1210.507494
1210.515051
1210.539451
1210.550356
1210.55223
1210.549175
1210.543917
1210.537988
1210.532173
1210.526831
1210.522047
1210.517851
1210.514219
1210.511086
1210.508472
1210.506576
1210.486373
1210.495029
1210.500999
1210.50454
1210.506228
1210.506636
1210.506181
1210.50526
1210.50413
1210.502896
1210.501657
1210.500486
1210.499403
1210.498598
1210.468297
1210.472342
1210.476171
1210.479531
1210.482296
1210.484505
1210.486219
1210.487498
1210.488457
1210.489149
1210.489635
1210.489987
1210.490198
1210.490329
1210.46298
1210.464925
1210.46716
1210.469534
1210.471901
1210.474159
1210.476214
1210.478084
1210.479745
1210.481221
1210.482482
1210.483574
1210.484495
1210.48514
1210.460723
1210.461629
1210.462888
1210.464438
1210.466217
1210.468103
1210.470017
1210.47193
1210.473728
1210.475426
1210.477006
1210.478432
1210.47969
1210.48079
1210.481608
1210.461919
1210.463897
1210.466319
1210.468973
1210.47164
1210.474065
1210.4763
1210.478235
1210.479888
1210.481322
1210.482511
1210.483493
1210.484302
1210.48499
1210.485492
1210.466743
1210.471614
1210.476749
1210.48136
1210.485127
1210.488047
1210.490119
1210.491533
1210.492402
1210.492899
1210.493144
1210.493199
1210.493164
1210.493045
1210.492932
1210.475764
1210.486291
1210.494951
1210.500934
1210.504491
1210.506173
1210.506595
1210.506156
1210.505285
1210.504145
1210.502886
1210.501651
1210.500461
1210.499387
1210.498566
1210.491841
1210.507072
1210.515668
1210.519393
1210.520078
1210.519042
1210.517156
1210.514875
1210.51251
1210.510225
1210.508089
1210.506118
1210.504335
1210.502759
1210.501615
1210.475725
1210.486237
1210.494885
1210.500844
1210.50436
1210.506031
1210.50644
1210.506019
1210.505139
1210.503982
1210.502737
1210.501466
1210.500295
1210.499215
1210.498393
1210.465895
1210.470814
1210.475912
1210.48056
1210.484383
1210.487282
1210.48937
1210.490798
1210.491709
1210.492228
1210.49244
1210.492486
1210.492462
1210.492332
1210.492228
1210.464634
1210.46708
1210.469715
1210.472346
1210.474832
1210.477045
1210.478974
1210.480626
1210.482048
1210.48324
1210.484277
1210.485135
1210.48584
1210.486351
1210.461607
1210.462863
1210.464422
1210.466198
1210.468075
1210.469982
1210.471866
1210.473663
1210.475352
1210.476908
1210.478325
1210.479606
1210.480699
1210.481499
1210.460513
1210.460973
1210.461701
1210.462647
1210.463811
1210.465171
1210.466652
1210.468199
1210.469768
1210.471338
1210.472897
1210.474367
1210.475735
1210.476982
1210.477929
1210.460961
1210.461869
1210.463129
1210.464672
1210.46639
1210.46817
1210.469966
1210.471705
1210.473383
1210.47495
1210.476408
1210.477761
1210.478978
1210.480038
1210.480875
1210.461761
1210.463727
1210.466129
1210.468793
1210.471409
1210.473862
1210.476081
1210.478043
1210.479708
1210.481142
1210.48232
1210.483332
1210.48416
1210.484864
1210.485382
1210.464946
1210.468666
1210.472688
1210.476531
1210.47989
1210.482667
1210.484897
1210.48662
1210.4879
1210.488865
1210.489564
1210.490041
1210.490359
1210.490601
1210.490766
1210.466796
1210.471938
1210.4768
1210.480925
1210.48419
1210.486701
1210.488528
1210.48984
1210.490747
1210.491358
1210.491717
1210.491916
1210.492012
1210.492044
1210.492007
1210.464487
1210.468192
1210.472249
1210.476089
1210.479464
1210.482209
1210.484451
1210.486151
1210.487437
1210.488397
1210.489089
1210.489582
1210.489955
1210.490206
1210.490327
1210.461842
1210.463786
1210.46622
1210.468882
1210.471499
1210.473988
1210.476175
1210.478111
1210.479774
1210.481176
1210.482352
1210.483378
1210.48423
1210.484932
1210.485453
1210.459967
1210.460874
1210.462107
1210.463631
1210.465357
1210.467152
1210.46896
1210.470733
1210.472427
1210.474016
1210.475485
1210.476817
1210.478027
1210.479127
1210.479984
1210.460759
1210.461477
1210.462417
1210.463578
1210.464901
1210.466371
1210.467903
1210.469495
1210.471081
1210.47261
1210.474089
1210.475511
1210.47679
1210.477769
1210.460026
1210.460285
1210.460737
1210.461373
1210.462174
1210.463174
1210.46434
1210.465632
1210.46702
1210.468476
1210.469947
1210.471424
1210.472848
1210.474196
1210.47521
1210.460454
1210.460941
1210.461641
1210.46259
1210.463742
1210.465082
1210.466519
1210.468028
1210.469619
1210.471208
1210.472749
1210.474207
1210.475593
1210.476853
1210.477834
1210.460982
1210.461875
1210.463125
1210.464662
1210.46641
1210.468307
1210.470225
1210.472118
1210.473897
1210.475586
1210.477142
1210.478573
1210.47986
1210.480961
1210.481804
1210.461397
1210.462906
1210.464859
1210.467118
1210.469495
1210.47186
1210.474111
1210.476195
1210.478091
1210.479761
1210.481217
1210.482463
1210.483554
1210.484459
1210.485116
1210.461969
1210.463846
1210.466196
1210.468734
1210.471322
1210.473815
1210.476118
1210.478217
1210.480065
1210.481669
1210.483026
1210.484187
1210.485188
1210.48599
1210.486568
1210.461683
1210.463195
1210.465154
1210.467392
1210.469757
1210.472094
1210.474373
1210.476442
1210.478309
1210.479991
1210.481483
1210.482767
1210.48385
1210.484783
1210.485444
1210.461118
1210.462015
1210.463276
1210.464788
1210.466568
1210.46846
1210.470387
1210.472284
1210.474077
1210.475782
1210.477338
1210.478734
1210.479992
1210.481097
1210.481934
1210.460412
1210.460886
1210.461592
1210.462538
1210.463715
1210.465051
1210.466492
1210.468031
1210.469607
1210.471177
1210.472726
1210.474196
1210.475599
1210.476868
1210.477841
1210.460165
1210.460435
1210.460878
1210.461526
1210.462347
1210.463338
1210.464525
1210.465822
1210.467184
1210.468618
1210.470101
1210.47156
1210.472973
1210.474312
1210.475359
)
;

boundaryField
{
    top
    {
        type            calculated;
        value           nonuniform List<scalar> 
127
(
1210.460165
1210.460238
1210.460895
1210.461639
1210.463263
1210.463972
1210.46298
1210.461607
1210.460759
1210.460435
1210.460689
1210.46159
1210.462895
1210.465221
1210.466281
1210.464925
1210.462863
1210.461477
1210.460878
1210.461322
1210.462523
1210.464459
1210.46744
1210.468803
1210.46716
1210.464422
1210.462417
1210.461526
1210.462133
1210.463685
1210.466217
1210.469836
1210.471383
1210.469534
1210.466198
1210.463578
1210.462347
1210.463128
1210.465052
1210.468092
1210.472187
1210.47387
1210.471901
1210.468075
1210.464901
1210.463338
1210.464284
1210.466522
1210.470035
1210.474456
1210.476204
1210.474159
1210.469982
1210.466371
1210.464525
1210.465565
1210.468037
1210.471917
1210.476548
1210.478267
1210.476214
1210.471866
1210.467903
1210.465822
1210.466986
1210.469592
1210.473712
1210.478418
1210.480119
1210.478084
1210.473663
1210.469495
1210.467184
1210.468441
1210.471177
1210.475389
1210.480107
1210.481709
1210.479745
1210.475352
1210.471081
1210.468618
1210.469905
1210.472708
1210.476941
1210.481575
1210.483084
1210.481221
1210.476908
1210.47261
1210.470101
1210.471382
1210.474195
1210.478351
1210.482855
1210.484261
1210.482482
1210.478325
1210.474089
1210.47156
1210.472825
1210.475547
1210.47964
1210.483923
1210.485249
1210.483574
1210.479606
1210.475511
1210.472973
1210.474146
1210.476807
1210.48074
1210.484828
1210.486072
1210.484495
1210.480699
1210.47679
1210.474312
1210.475192
1210.477809
1210.481587
1210.485495
1210.486656
1210.48514
1210.481499
1210.477769
1210.475359
)
;
    }
    bottom
    {
        type            calculated;
        value           nonuniform List<scalar> 
134
(
1210.460562
1210.46078
1210.461514
1210.462185
1210.461738
1210.460723
1210.460513
1210.460026
1210.460333
1210.461056
1210.461678
1210.463028
1210.464064
1210.463245
1210.461629
1210.460973
1210.460285
1210.460775
1210.461752
1210.462964
1210.464969
1210.466386
1210.465192
1210.462888
1210.461701
1210.460737
1210.461397
1210.462701
1210.464524
1210.467202
1210.468928
1210.467444
1210.464438
1210.462647
1210.461373
1210.462235
1210.46386
1210.466301
1210.46956
1210.471513
1210.469835
1210.466217
1210.463811
1210.462174
1210.463229
1210.465192
1210.468178
1210.471929
1210.47401
1210.472197
1210.468103
1210.465171
1210.463174
1210.46438
1210.466642
1210.470071
1210.474204
1210.476322
1210.474447
1210.470017
1210.466652
1210.46434
1210.465693
1210.468167
1210.471954
1210.476287
1210.478405
1210.47652
1210.47193
1210.468199
1210.465632
1210.467084
1210.469749
1210.473744
1210.478173
1210.480257
1210.478406
1210.473728
1210.469768
1210.46702
1210.468523
1210.47132
1210.47544
1210.479834
1210.481866
1210.480085
1210.475426
1210.471338
1210.468476
1210.470009
1210.472847
1210.476983
1210.481329
1210.483239
1210.481557
1210.477006
1210.472897
1210.469947
1210.47145
1210.474312
1210.478408
1210.482587
1210.484423
1210.482823
1210.478432
1210.474367
1210.471424
1210.472892
1210.475679
1210.479686
1210.483672
1210.485393
1210.483895
1210.47969
1210.475735
1210.472848
1210.474223
1210.476971
1210.480804
1210.484559
1210.486226
1210.484786
1210.48079
1210.476982
1210.474196
1210.475288
1210.477942
1210.481607
1210.485195
1210.486817
1210.485434
1210.481608
1210.477929
1210.47521
)
;
    }
    side-walls
    {
        type            calculated;
        value           nonuniform List<scalar> 
261
(
1210.460333
1210.461189
1210.462118
1210.462918
1210.46392
1210.462927
1210.461942
1210.460563
1210.460238
1210.460775
1210.461896
1210.463376
1210.464856
1210.466263
1210.464882
1210.463188
1210.46128
1210.460689
1210.461397
1210.462854
1210.464942
1210.467116
1210.46883
1210.467118
1210.464737
1210.462236
1210.461322
1210.462235
1210.464027
1210.466716
1210.469471
1210.471411
1210.469501
1210.466491
1210.463417
1210.462133
1210.463229
1210.465348
1210.46859
1210.471819
1210.473897
1210.471848
1210.468369
1210.464739
1210.463128
1210.46438
1210.466798
1210.470502
1210.474071
1210.476184
1210.474101
1210.470293
1210.466218
1210.464284
1210.465693
1210.468345
1210.472371
1210.476172
1210.47829
1210.476194
1210.472149
1210.467748
1210.465565
1210.467084
1210.469927
1210.474172
1210.47805
1210.480133
1210.478077
1210.473959
1210.469323
1210.466986
1210.468523
1210.471465
1210.475852
1210.479753
1210.481746
1210.479711
1210.475651
1210.470889
1210.468441
1210.470009
1210.472974
1210.477399
1210.481215
1210.483128
1210.481163
1210.477201
1210.472419
1210.469905
1210.47145
1210.474463
1210.47881
1210.482482
1210.484311
1210.482417
1210.478621
1210.473879
1210.471382
1210.472892
1210.475856
1210.480063
1210.483597
1210.485267
1210.483483
1210.479907
1210.475287
1210.472825
1210.474223
1210.477112
1210.481154
1210.484504
1210.48608
1210.484402
1210.481008
1210.476538
1210.474146
1210.475288
1210.478092
1210.481992
1210.485198
1210.486645
1210.485068
1210.481832
1210.477541
1210.475192
1210.460026
1210.460454
1210.460982
1210.461397
1210.461969
1210.461683
1210.461118
1210.460412
1210.460165
1210.460285
1210.460941
1210.461875
1210.462906
1210.463846
1210.463195
1210.462015
1210.460886
1210.460435
1210.460737
1210.461641
1210.463125
1210.464859
1210.466196
1210.465154
1210.463276
1210.461592
1210.460878
1210.461373
1210.46259
1210.464662
1210.467118
1210.468734
1210.467392
1210.464788
1210.462538
1210.461526
1210.462174
1210.463742
1210.46641
1210.469495
1210.471322
1210.469757
1210.466568
1210.463715
1210.462347
1210.463174
1210.465082
1210.468307
1210.47186
1210.473815
1210.472094
1210.46846
1210.465051
1210.463338
1210.46434
1210.466519
1210.470225
1210.474111
1210.476118
1210.474373
1210.470387
1210.466492
1210.464525
1210.465632
1210.468028
1210.472118
1210.476195
1210.478217
1210.476442
1210.472284
1210.468031
1210.465822
1210.46702
1210.469619
1210.473897
1210.478091
1210.480065
1210.478309
1210.474077
1210.469607
1210.467184
1210.468476
1210.471208
1210.475586
1210.479761
1210.481669
1210.479991
1210.475782
1210.471177
1210.468618
1210.469947
1210.472749
1210.477142
1210.481217
1210.483026
1210.481483
1210.477338
1210.472726
1210.470101
1210.471424
1210.474207
1210.478573
1210.482463
1210.484187
1210.482767
1210.478734
1210.474196
1210.47156
1210.472848
1210.475593
1210.47986
1210.483554
1210.485188
1210.48385
1210.479992
1210.475599
1210.472973
1210.474196
1210.476853
1210.480961
1210.484459
1210.48599
1210.484783
1210.481097
1210.476868
1210.474312
1210.47521
1210.477834
1210.481804
1210.485116
1210.486568
1210.485444
1210.481934
1210.477841
1210.475359
)
;
    }
    inlet
    {
        type            calculated;
        value           nonuniform 0();
    }
    outlet
    {
        type            calculated;
        value           nonuniform List<scalar> 
81
(
1210.475288
1210.478092
1210.481992
1210.485198
1210.486645
1210.485068
1210.481832
1210.477541
1210.475192
1210.477942
1210.480362
1210.485675
1210.490245
1210.492803
1210.490223
1210.485642
1210.480783
1210.477809
1210.481607
1210.486185
1210.492232
1210.499171
1210.501523
1210.498502
1210.492759
1210.48568
1210.481587
1210.485195
1210.49054
1210.498549
1210.507222
1210.507295
1210.506514
1210.499309
1210.490636
1210.485495
1210.486817
1210.492323
1210.501253
1210.507347
1208.773051
1210.507591
1210.501523
1210.492042
1210.486656
1210.485434
1210.490201
1210.498955
1210.506564
1210.507494
1210.506576
1210.498598
1210.490329
1210.48514
1210.481608
1210.485492
1210.492932
1210.498566
1210.501615
1210.498393
1210.492228
1210.486351
1210.481499
1210.477929
1210.480875
1210.485382
1210.490766
1210.492007
1210.490327
1210.485453
1210.479984
1210.477769
1210.47521
1210.477834
1210.481804
1210.485116
1210.486568
1210.485444
1210.481934
1210.477841
1210.475359
)
;
    }
    procBoundary1to0
    {
        type            processor;
        value           nonuniform List<scalar> 
97
(
1210.460054
1210.460054
1210.46071
1210.461214
1210.461414
1210.462005
1210.461421
1210.461055
1210.460082
1210.459944
1210.460303
1210.460426
1210.460426
1210.460426
1210.461989
1210.464429
1210.467657
1210.464411
1210.462059
1210.460876
1210.460396
1210.460213
1210.461204
1210.465873
1210.465873
1210.465873
1210.476486
1210.491664
1210.475789
1210.466478
1210.462088
1210.460716
1210.460543
1210.46198
1210.466109
1210.515604
1210.515604
1210.515604
1210.622471
1210.514911
1210.476589
1210.464921
1210.461727
1210.460874
1210.462849
1210.471179
1210.504308
1209.808963
1209.808963
1209.808963
1210.622829
1210.622829
1210.491715
1210.46688
1210.462056
1210.460779
1210.461783
1210.466476
1210.478953
1210.504564
1210.479051
1210.475856
1210.475856
1210.475856
1210.464547
1210.461484
1210.460161
1210.460618
1210.463086
1210.466059
1210.471492
1210.466027
1210.462248
1210.46269
1210.46269
1210.46269
1210.460696
1210.460232
1210.460402
1210.460433
1210.462216
1210.462493
1210.461746
1210.460557
1210.459409
1210.460302
1210.460302
1210.460302
1210.459852
1210.460167
1210.460439
1210.460403
1210.460648
1210.460732
1210.460576
1210.460149
1210.459983
)
;
    }
}


// ************************************************************************* //
