/*--------------------------------*- C++ -*----------------------------------*\
| =========                 |                                                 |
| \\      /  F ield         | OpenFOAM: The Open Source CFD Toolbox           |
|  \\    /   O peration     | Version:  4.x                                   |
|   \\  /    A nd           | Web:      www.OpenFOAM.org                      |
|    \\/     M anipulation  |                                                 |
\*---------------------------------------------------------------------------*/
FoamFile
{
    version     2.0;
    format      ascii;
    class       volScalarField;
    location    "2000";
    object      molarConc;
}
// * * * * * * * * * * * * * * * * * * * * * * * * * * * * * * * * * * * * * //

dimensions      [0 -3 0 0 1 0 0];

internalField   nonuniform List<scalar> 
1174
(
9.963279142
9.963279208
9.963279412
9.96327823
9.963278528
9.963279007
9.963277761
9.963277405
9.963277713
9.96327691
9.963278282
9.963277577
9.963277573
9.963276627
9.963254944
9.963255156
9.963254455
9.963253761
9.96325453
9.963255172
9.963254756
9.963254215
9.963255794
9.963257087
9.963256232
9.963256133
9.9632566
9.963256413
9.963254345
9.963254216
9.963253548
9.963253043
9.963253521
9.963253704
9.963254286
9.963254033
9.963254166
9.963254505
9.963254672
9.963255774
9.96325677
9.963256421
9.963284268
9.963284947
9.963283855
9.963284475
9.963285012
9.96328491
9.963283794
9.963283954
9.963282126
9.963282143
9.963282237
9.963280698
9.963280744
9.963278814
9.963282032
9.96328136
9.963280158
9.963280152
9.963280121
9.963281276
9.963280132
9.963280239
9.963279825
9.963279657
9.963279014
9.963280572
9.963280162
9.963280715
9.963283809
9.963283498
9.963283733
9.963282848
9.963283394
9.963283242
9.963282566
9.963282457
9.963284377
9.963284974
9.963285768
9.963286955
9.963286314
9.963285925
9.963264021
9.963264507
9.963264777
9.963265388
9.963265663
9.963265123
9.963266422
9.963265708
9.963265188
9.963265342
9.963265002
9.963264246
9.963264714
9.963265129
9.963289348
9.963288938
9.963288389
9.963287244
9.963287976
9.963287004
9.963287498
9.963287334
9.963287399
9.963287524
9.963288267
9.96328729
9.963288053
9.963286608
9.963284348
9.963283907
9.963283539
9.963283861
9.963284073
9.963284286
9.963284756
9.9632828
9.963282232
9.963282571
9.963281959
9.963281155
9.963281772
9.963281794
9.963263085
9.963262264
9.96326303
9.963262865
9.963262945
9.963263118
9.963263727
9.963264541
9.963263992
9.963263773
9.963264072
9.963264514
9.963265834
9.963264346
9.963264653
9.963298728
9.963299082
9.963299205
9.96329833
9.963298353
9.963298175
9.963296989
9.963296469
9.963297807
9.96329767
9.963297727
9.963299063
9.96329932
9.963300096
9.963284983
9.963284322
9.963282495
9.96328276
9.963283831
9.963283222
9.963281755
9.963281669
9.963280791
9.963281243
9.963280251
9.963280456
9.963280624
9.963279818
9.963284612
9.963283524
9.96328347
9.963282934
9.963282699
9.963282038
9.963283119
9.96328326
9.963284226
9.963283561
9.963283152
9.963283336
9.963283052
9.963282855
9.963247155
9.96324709
9.963247093
9.963246714
9.963247172
9.963246552
9.963245647
9.96324664
9.963246465
9.963246843
9.963246751
9.963247307
9.96324716
9.963247319
9.963284614
9.963283755
9.963282034
9.963282784
9.96328159
9.963282069
9.963282149
9.963282817
9.963283247
9.963284934
9.963283997
9.963282745
9.963282658
9.963284002
9.963279318
9.963279377
9.963278695
9.963278744
9.963279458
9.963281215
9.9632817
9.96328189
9.963281677
9.963281295
9.963281422
9.96328306
9.963283717
9.963281587
9.963273849
9.963273957
9.963274162
9.963273107
9.963272653
9.963273328
9.963273835
9.963273996
9.963274465
9.963273412
9.963274722
9.963274279
9.963274973
9.963276907
9.963271119
9.963271927
9.963272615
9.963272549
9.963270817
9.963270342
9.963271644
9.963272573
9.963271576
9.963271639
9.963270853
9.963273005
9.963273246
9.963271899
9.963278287
9.963278511
9.963276804
9.963276467
9.96327581
9.963276149
9.963277342
9.963277178
9.963277548
9.963276813
9.963277339
9.963276769
9.963276438
9.963275981
9.963277521
9.963256338
9.963256066
9.963255751
9.963254937
9.963254165
9.963255251
9.963255302
9.963253924
9.963253756
9.963252198
9.963252785
9.963252436
9.96325209
9.963251619
9.96325182
9.963291576
9.963289393
9.963289238
9.963287885
9.963288002
9.963289083
9.963289045
9.963288157
9.963287186
9.963287951
9.963288255
9.963287207
9.963287816
9.963286944
9.963250456
9.963250762
9.963250614
9.963250946
9.963252276
9.963252165
9.963253005
9.963252201
9.963252149
9.963252778
9.963253242
9.963253086
9.963253951
9.963253438
9.963271501
9.963271497
9.963272096
9.963273194
9.963275008
9.963274956
9.963275099
9.963274354
9.963274963
9.963273349
9.963273182
9.963270023
9.963269097
9.963269215
9.96328783
9.963288173
9.963288999
9.963289158
9.963288839
9.963289704
9.963289056
9.963288503
9.963289077
9.963289655
9.963289542
9.963289597
9.963289433
9.963290093
9.963259171
9.963257314
9.963256771
9.96325816
9.963257512
9.96325711
9.96325489
9.963255388
9.963256602
9.963256206
9.963257269
9.963257722
9.963258005
9.963257888
9.96327842
9.963278062
9.963276686
9.963277521
9.963277126
9.963277607
9.963278851
9.963279429
9.963276692
9.963276769
9.963277732
9.963278883
9.963279251
9.963279429
9.96328065
9.963280613
9.963280045
9.963280442
9.96328087
9.963279281
9.963279141
9.963279249
9.963279549
9.963279532
9.963279805
9.963278845
9.963279377
9.963278539
9.963278807
9.963278215
9.963278733
9.963279122
9.963279609
9.963278953
9.963277567
9.963277467
9.963277184
9.963277652
9.96327588
9.963276457
9.96327659
9.963277739
9.963278974
9.963269272
9.9632691
9.963268917
9.96327031
9.963270818
9.963271571
9.963269964
9.963269348
9.963269882
9.963270593
9.963270931
9.963269455
9.963267743
9.963267664
9.963266639
9.96328587
9.963285156
9.963284731
9.963285968
9.963285071
9.963284945
9.963285341
9.963284354
9.963284021
9.963284843
9.963284556
9.963285147
9.963286265
9.963287968
9.963287556
9.963255416
9.963254526
9.963253845
9.963251941
9.963252548
9.963251966
9.963252298
9.963252433
9.963252119
9.963251697
9.963250598
9.963250905
9.963251274
9.963251308
9.963421631
9.963422709
9.963425803
9.963426275
9.963428258
9.963428337
9.963429847
9.963429795
9.963430753
9.963430956
9.963432018
9.963431868
9.963432659
9.963432555
9.963291633
9.963292904
9.963293377
9.963292653
9.963295003
9.963293698
9.963293462
9.963293277
9.963292976
9.963292729
9.96329377
9.96329166
9.963291045
9.963290142
9.963245401
9.963245442
9.963245715
9.963244787
9.96324407
9.96324484
9.963244829
9.963244581
9.963244266
9.963243348
9.963244957
9.963244181
9.963244228
9.963245699
9.963258523
9.96325844
9.963259233
9.963258003
9.963258201
9.963260823
9.963260737
9.963261404
9.963262074
9.963262962
9.963261135
9.963261882
9.96326084
9.963261208
9.963265356
9.963264905
9.963266021
9.963264436
9.963264734
9.963263678
9.963263077
9.963263651
9.963262573
9.963262269
9.9632616
9.963262635
9.96326279
9.963262299
9.963272593
9.9632741
9.963274599
9.963274754
9.963274523
9.963273892
9.963273684
9.963273769
9.963273405
9.963273219
9.963273544
9.963272879
9.963273634
9.963272151
9.963271242
9.963274119
9.963271934
9.963270122
9.963270443
9.963270151
9.963270866
9.963270246
9.963270102
9.963270046
9.96326897
9.963270417
9.963272175
9.963271223
9.963272301
9.963273634
9.9632818
9.963280887
9.963282446
9.963282133
9.963283547
9.963282911
9.963283776
9.96328333
9.963284677
9.963284883
9.963285049
9.963283129
9.963282245
9.963282975
9.963284057
9.963420326
9.963418497
9.96341962
9.963421301
9.963423526
9.963423758
9.963423049
9.963425162
9.963425795
9.963424764
9.963425902
9.963427434
9.963428918
9.963430663
9.963429727
10.05760294
10.05775763
10.05789522
10.05802437
10.05814801
10.05827302
10.05839662
10.05851861
10.05863979
10.05876035
10.05888004
10.05900445
10.05912545
10.05924731
9.96340233
9.963404067
9.963406744
9.963408146
9.963407602
9.963409764
9.963409966
9.963411044
9.963411106
9.963411375
9.963413151
9.96341578
9.963415878
9.963416228
9.96326839
9.96326874
9.96326783
9.963267453
9.963269318
9.963269922
9.963269303
9.963268387
9.96326884
9.963267914
9.963266188
9.963266052
9.96326716
9.963269038
9.963290077
9.963291274
9.963289617
9.963289202
9.963289174
9.963288783
9.963288228
9.963286985
9.963286234
9.963287587
9.963286647
9.96328687
9.963287099
9.963288926
9.963279157
9.963280389
9.963281615
9.96328164
9.963281512
9.963280091
9.963281275
9.963280888
9.963281723
9.963281877
9.963281579
9.963281395
9.963280414
9.963279904
9.963266503
9.963266296
9.963266463
9.963265798
9.963264447
9.963264214
9.963264193
9.963264648
9.963264345
9.963263817
9.963263296
9.96326345
9.963264292
9.963265185
9.963265776
9.963281131
9.963281047
9.963281367
9.963281674
9.963281432
9.963282485
9.963284222
9.963284181
9.963284627
9.963284013
9.963284564
9.963284007
9.963283832
9.963285094
9.963285176
9.963267567
9.96326676
9.963265469
9.963264273
9.963264731
9.963263063
9.963263362
9.963263832
9.96326494
9.963264662
9.963266023
9.963265444
9.963266877
9.963264582
9.963265201
9.963289232
9.963288519
9.963288257
9.963288248
9.963288506
9.963289963
9.963291083
9.963290266
9.963290424
9.963290729
9.963289787
9.963290041
9.963289227
9.96328786
9.963287344
9.963407592
9.963407825
9.96340896
9.963411887
9.963412302
9.963414272
9.963414644
9.963416075
9.96341742
9.963417629
9.963417678
9.963418354
9.963419348
9.963420822
9.963421514
9.96328643
9.963284957
9.96328551
9.963285261
9.963285814
9.963286215
9.963286644
9.963286797
9.963286179
9.9632868
9.963287575
9.963287758
9.963288264
9.963287747
9.96328661
9.963285508
9.963284315
9.963284169
9.963283966
9.963283471
9.963282849
9.963284864
9.963286356
9.963285781
9.963285633
9.963285561
9.963284837
9.963285472
9.963284606
9.963275535
9.963274642
9.96327486
9.963274513
9.963274872
9.96327454
9.963273875
9.96327425
9.963274009
9.963274328
9.963275162
9.963275268
9.963277032
9.963278016
9.963280904
9.963281136
9.963281408
9.963280972
9.963280453
9.963279963
9.963281356
9.963281954
9.963282386
9.963281665
9.963282008
9.963281773
9.963281004
9.963281741
9.96328143
9.963281187
9.963280959
9.963281172
9.963280434
9.96328024
9.963280298
9.963278459
9.963278374
9.963277496
9.963276002
9.963275365
9.96327613
9.963276665
9.963277382
9.963288359
9.963287087
9.963287103
9.963286084
9.963283767
9.963285789
9.963284782
9.963285078
9.963285826
9.963284892
9.963285367
9.963286805
9.963288972
9.963289615
9.963289767
9.963245748
9.963245577
9.963244262
9.963245489
9.963247529
9.963246528
9.963247122
9.963246871
9.963248066
9.963248817
9.963248742
9.963249207
9.963248354
9.963248635
9.963248372
9.963290051
9.963289824
9.963288482
9.963287745
9.963286669
9.963286493
9.963285131
9.963286274
9.963285043
9.963285028
9.963286273
9.963285974
9.963286302
9.963286442
9.963286472
9.963262632
9.96326248
9.963262918
9.963262654
9.963262767
9.963263546
9.96326317
9.9632639
9.963264174
9.963263514
9.963262564
9.963262372
9.96326279
9.963264572
9.96326399
9.963292188
9.963292774
9.963292074
9.963292624
9.963293792
9.963294234
9.963293571
9.96329373
9.963292975
9.963293929
9.96329435
9.963296034
9.963295334
9.963295825
9.96329588
9.963292313
9.963289541
9.963290238
9.963289382
9.963288342
9.963288484
9.963288156
9.963287102
9.963285983
9.963285519
9.963287244
9.96328826
9.96328678
9.96328766
9.963286864
9.963246675
9.963245347
9.963245343
9.963244972
9.963243644
9.963243827
9.963244413
9.963245229
9.963244921
9.963245158
9.963243651
9.963243089
9.963242795
9.963242414
9.963282429
9.963282338
9.96328208
9.963281461
9.963281745
9.96328216
9.963281869
9.963281855
9.963281492
9.963281263
9.963281095
9.963280625
9.963281512
9.963283255
9.963265783
9.963266822
9.96326582
9.963265836
9.96326563
9.963264261
9.963263172
9.963262733
9.963262917
9.963262715
9.963261259
9.963261437
9.963262685
9.963263659
9.963265266
9.963269087
9.963269067
9.96326833
9.963267126
9.963266376
9.96326727
9.963268117
9.963269734
9.963270264
9.963271163
9.963271672
9.963271429
9.963271892
9.96327292
9.963271834
9.963297072
9.963296427
9.963297579
9.96329596
9.963296419
9.96329694
9.963296788
9.963295559
9.963295698
9.963294742
9.963295792
9.963295623
9.963296705
9.963296473
9.963295746
9.963256172
9.963255223
9.96325557
9.963255055
9.963254771
9.963254486
9.96325302
9.963251839
9.963252219
9.96325167
9.963251587
9.963252914
9.963254888
9.963254925
9.963254052
9.963294555
9.963292611
9.963291841
9.96329112
9.963291343
9.963290062
9.963290276
9.963290082
9.963289947
9.963289351
9.963290156
9.963290802
9.963290702
9.963289873
9.963290782
9.963281385
9.963281274
9.963279649
9.963279308
9.963278145
9.963279582
9.963277444
9.963277552
9.963277575
9.963277269
9.9632776
9.963278046
9.96327704
9.963276566
9.963278095
9.963292593
9.963293182
9.963292573
9.96329107
9.963291441
9.963289976
9.963291572
9.963291797
9.963292006
9.963292789
9.963293958
9.963293018
9.963292784
9.963292632
9.963291732
9.96332367
9.963323692
9.96332446
9.963324284
9.963323084
9.963323167
9.963323322
9.96332309
9.963322682
9.96332238
9.963322297
9.963323202
9.963323993
9.963322842
9.96332065
9.963278563
9.963278155
9.963278431
9.963278414
9.963279036
9.9632786
9.963278947
9.963277836
9.963276747
9.963276933
9.963276606
9.963274871
9.963274089
9.963273925
9.963280382
9.963281779
9.963281269
9.963280722
9.963281562
9.963281522
9.963281156
9.963281058
9.963280877
9.963280262
9.963280281
9.963279632
9.9632799
9.963278981
9.963280796
9.96326903
9.963268554
9.963269149
9.963268945
9.963269385
9.963269123
9.963270486
9.963272136
9.963271049
9.963269856
9.96326935
9.963270162
9.963270478
9.963270671
9.963270489
9.963267202
9.963267686
9.963267972
9.963268885
9.963269823
9.963269024
9.963268844
9.963268068
9.963269048
9.963268702
9.963268482
9.963267571
9.963266769
9.963267174
9.963266573
9.963285258
9.963284907
9.963284741
9.963283665
9.963283089
9.963282653
9.963282622
9.963282438
9.963281573
9.963281535
9.963281885
9.963283075
9.963282907
9.963283036
9.963283105
9.963284468
9.963286051
9.96328502
9.963285414
9.963284918
9.963284516
9.963284769
9.963283972
9.963283799
9.963283864
9.963285026
9.963285629
9.963284702
9.963284906
9.963284692
9.963269556
9.963269029
9.963268539
9.963268633
9.963268672
9.963269817
9.963268176
9.963268827
9.963269519
9.963268847
9.963267221
9.963266342
9.963266559
9.963265147
9.963265011
9.963259706
9.963259968
9.963259647
9.963261916
9.96326112
9.963260592
9.963259903
9.963258891
9.963259079
9.963257841
9.963257645
9.963258621
9.963259385
9.963259648
9.963259352
9.963271316
9.963271588
9.96327182
9.963271792
9.963270895
9.963270809
9.963271907
9.963271895
9.963271673
9.963271496
9.963270532
9.96327069
9.963270011
9.963269782
9.963269966
9.963272745
9.963273563
9.96327357
9.963272332
9.96327206
9.963272522
9.963271017
9.963270606
9.963271817
9.963272391
9.963271746
9.963272096
9.963272909
9.9632725
9.963272522
)
;

boundaryField
{
    top
    {
        type            calculated;
        value           nonuniform List<scalar> 
127
(
9.963272745
9.963284348
9.963271119
9.96328065
9.963265356
9.963279157
9.963280904
9.963282429
9.963278563
9.963273563
9.963283907
9.963271927
9.963280613
9.963264905
9.963280389
9.963281136
9.963282338
9.963278155
9.96327357
9.963283539
9.963272615
9.963280045
9.963266021
9.963281615
9.963281408
9.96328208
9.963278431
9.963272332
9.963283861
9.963272549
9.963280442
9.963264436
9.96328164
9.963280972
9.963281461
9.963278414
9.96327206
9.963284073
9.963270817
9.96328087
9.963264734
9.963281512
9.963280453
9.963281745
9.963279036
9.963272522
9.963284286
9.963270342
9.963279281
9.963263678
9.963280091
9.963279963
9.96328216
9.9632786
9.963271017
9.963284756
9.963271644
9.963279141
9.963263077
9.963281275
9.963281356
9.963281869
9.963278947
9.963270606
9.9632828
9.963272573
9.963279249
9.963263651
9.963280888
9.963281954
9.963281855
9.963277836
9.963271817
9.963282232
9.963271576
9.963279549
9.963262573
9.963281723
9.963282386
9.963281492
9.963276747
9.963272391
9.963282571
9.963271639
9.963279532
9.963262269
9.963281877
9.963281665
9.963281263
9.963276933
9.963271746
9.963281959
9.963270853
9.963279805
9.9632616
9.963281579
9.963282008
9.963281095
9.963276606
9.963272096
9.963281155
9.963273005
9.963278845
9.963262635
9.963281395
9.963281773
9.963280625
9.963274871
9.963272909
9.963281772
9.963273246
9.963279377
9.96326279
9.963280414
9.963281004
9.963281512
9.963274089
9.9632725
9.963281794
9.963271899
9.963278539
9.963262299
9.963279904
9.963281741
9.963283255
9.963273925
9.963272522
)
;
    }
    bottom
    {
        type            calculated;
        value           nonuniform List<scalar> 
134
(
9.963263085
9.963278287
9.963278807
9.963272593
9.963266503
9.96328143
9.963265783
9.963280382
9.963279142
9.963262264
9.963278511
9.963278215
9.9632741
9.963266296
9.963281187
9.963266822
9.963281779
9.963279208
9.96326303
9.963276804
9.963278733
9.963274599
9.963266463
9.963280959
9.96326582
9.963281269
9.963279412
9.963262865
9.963276467
9.963279122
9.963274754
9.963265798
9.963281172
9.963265836
9.963280722
9.96327823
9.963262945
9.96327581
9.963279609
9.963274523
9.963264447
9.963280434
9.96326563
9.963281562
9.963278528
9.963263118
9.963276149
9.963278953
9.963273892
9.963264214
9.96328024
9.963264261
9.963281522
9.963279007
9.963263727
9.963277342
9.963277567
9.963273684
9.963264193
9.963280298
9.963263172
9.963281156
9.963277761
9.963264541
9.963277178
9.963277467
9.963273769
9.963264648
9.963278459
9.963262733
9.963281058
9.963277405
9.963263992
9.963277548
9.963277184
9.963273405
9.963264345
9.963278374
9.963262917
9.963280877
9.963277713
9.963263773
9.963276813
9.963277652
9.963273219
9.963263817
9.963277496
9.963262715
9.963280262
9.96327691
9.963264072
9.963277339
9.96327588
9.963273544
9.963263296
9.963276002
9.963261259
9.963280281
9.963278282
9.963264514
9.963276769
9.963276457
9.963272879
9.96326345
9.963275365
9.963261437
9.963279632
9.963277577
9.963265834
9.963276438
9.96327659
9.963273634
9.963264292
9.96327613
9.963262685
9.9632799
9.963277573
9.963264346
9.963275981
9.963277739
9.963272151
9.963265185
9.963276665
9.963263659
9.963278981
9.963276627
9.963264653
9.963277521
9.963278974
9.963271242
9.963265776
9.963277382
9.963265266
9.963280796
)
;
    }
    side-walls
    {
        type            calculated;
        value           nonuniform List<scalar> 
261
(
9.963279142
9.963254944
9.963254345
9.963284268
9.963282032
9.963283809
9.963264021
9.963289348
9.963284348
9.963279208
9.963255156
9.963254216
9.963284947
9.96328136
9.963283498
9.963264507
9.963288938
9.963283907
9.963279412
9.963254455
9.963253548
9.963283855
9.963280158
9.963283733
9.963264777
9.963288389
9.963283539
9.96327823
9.963253761
9.963253043
9.963284475
9.963280152
9.963282848
9.963265388
9.963287244
9.963283861
9.963278528
9.96325453
9.963253521
9.963285012
9.963280121
9.963283394
9.963265663
9.963287976
9.963284073
9.963279007
9.963255172
9.963253704
9.96328491
9.963281276
9.963283242
9.963265123
9.963287004
9.963284286
9.963277761
9.963254756
9.963254286
9.963283794
9.963280132
9.963282566
9.963266422
9.963287498
9.963284756
9.963277405
9.963254215
9.963254033
9.963283954
9.963280239
9.963282457
9.963265708
9.963287334
9.9632828
9.963277713
9.963255794
9.963254166
9.963282126
9.963279825
9.963284377
9.963265188
9.963287399
9.963282232
9.96327691
9.963257087
9.963254505
9.963282143
9.963279657
9.963284974
9.963265342
9.963287524
9.963282571
9.963278282
9.963256232
9.963254672
9.963282237
9.963279014
9.963285768
9.963265002
9.963288267
9.963281959
9.963277577
9.963256133
9.963255774
9.963280698
9.963280572
9.963286955
9.963264246
9.96328729
9.963281155
9.963277573
9.9632566
9.96325677
9.963280744
9.963280162
9.963286314
9.963264714
9.963288053
9.963281772
9.963276627
9.963256413
9.963256421
9.963278814
9.963280715
9.963285925
9.963265129
9.963286608
9.963281794
9.963280382
9.96326903
9.963267202
9.963285258
9.963284468
9.963269556
9.963259706
9.963271316
9.963272745
9.963281779
9.963268554
9.963267686
9.963284907
9.963286051
9.963269029
9.963259968
9.963271588
9.963273563
9.963281269
9.963269149
9.963267972
9.963284741
9.96328502
9.963268539
9.963259647
9.96327182
9.96327357
9.963280722
9.963268945
9.963268885
9.963283665
9.963285414
9.963268633
9.963261916
9.963271792
9.963272332
9.963281562
9.963269385
9.963269823
9.963283089
9.963284918
9.963268672
9.96326112
9.963270895
9.96327206
9.963281522
9.963269123
9.963269024
9.963282653
9.963284516
9.963269817
9.963260592
9.963270809
9.963272522
9.963281156
9.963270486
9.963268844
9.963282622
9.963284769
9.963268176
9.963259903
9.963271907
9.963271017
9.963281058
9.963272136
9.963268068
9.963282438
9.963283972
9.963268827
9.963258891
9.963271895
9.963270606
9.963280877
9.963271049
9.963269048
9.963281573
9.963283799
9.963269519
9.963259079
9.963271673
9.963271817
9.963280262
9.963269856
9.963268702
9.963281535
9.963283864
9.963268847
9.963257841
9.963271496
9.963272391
9.963280281
9.96326935
9.963268482
9.963281885
9.963285026
9.963267221
9.963257645
9.963270532
9.963271746
9.963279632
9.963270162
9.963267571
9.963283075
9.963285629
9.963266342
9.963258621
9.96327069
9.963272096
9.9632799
9.963270478
9.963266769
9.963282907
9.963284702
9.963266559
9.963259385
9.963270011
9.963272909
9.963278981
9.963270671
9.963267174
9.963283036
9.963284906
9.963265147
9.963259648
9.963269782
9.9632725
9.963280796
9.963270489
9.963266573
9.963283105
9.963284692
9.963265011
9.963259352
9.963269966
9.963272522
)
;
    }
    inlet
    {
        type            calculated;
        value           nonuniform 0();
    }
    outlet
    {
        type            calculated;
        value           nonuniform List<scalar> 
81
(
9.963276627
9.963256413
9.963256421
9.963278814
9.963280715
9.963285925
9.963265129
9.963286608
9.963281794
9.963264653
9.963300096
9.963279818
9.963282855
9.963247319
9.963284002
9.963281587
9.963276907
9.963271899
9.963277521
9.96325182
9.963286944
9.963253438
9.963269215
9.963290093
9.963257888
9.963279429
9.963278539
9.963278974
9.963266639
9.963287556
9.963251308
9.963432555
9.963290142
9.963245699
9.963261208
9.963262299
9.963271242
9.963273634
9.963284057
9.963429727
10.05924731
9.963416228
9.963269038
9.963288926
9.963279904
9.963265776
9.963285176
9.963265201
9.963287344
9.963421514
9.96328661
9.963284606
9.963278016
9.963281741
9.963277382
9.963289767
9.963248372
9.963286472
9.96326399
9.96329588
9.963286864
9.963242414
9.963283255
9.963265266
9.963271834
9.963295746
9.963254052
9.963290782
9.963278095
9.963291732
9.96332065
9.963273925
9.963280796
9.963270489
9.963266573
9.963283105
9.963284692
9.963265011
9.963259352
9.963269966
9.963272522
)
;
    }
    procBoundary1to0
    {
        type            processor;
        value           nonuniform List<scalar> 
97
(
9.96327887
9.96327887
9.963254941
9.963254431
9.963284323
9.963282509
9.963283938
9.963263212
9.963289422
9.963284904
9.963261751
9.96329848
9.96329848
9.96329848
9.963284557
9.963284574
9.963247208
9.963285538
9.963280658
9.963273718
9.963272188
9.963279002
9.963256409
9.963293549
9.963293549
9.963293549
9.963250313
9.96327206
9.963288516
9.963260247
9.963279062
9.963281793
9.963278918
9.963269924
9.963287778
9.963256098
9.963256098
9.963256098
9.963420457
9.963293571
9.963244582
9.963257488
9.963267119
9.963273633
9.963275196
9.963280982
9.963293761
10.05751388
10.05751388
10.05751388
9.9634009
9.9634009
9.963269276
9.963289908
9.963279675
9.963265926
9.963280777
9.963267637
9.963293191
9.963279786
9.963287786
9.963285071
9.963285071
9.963285071
9.963278083
9.963280486
9.963281889
9.963288631
9.963246395
9.963290561
9.963263799
9.963292287
9.96329242
9.963246033
9.963246033
9.963246033
9.963282902
9.963265636
9.963268857
9.963298755
9.963256999
9.963294721
9.963282784
9.963291947
9.963323399
9.963277389
9.963277389
9.963277389
9.963280957
9.963269246
9.963266567
9.963286609
9.963286011
9.963268532
9.963259089
9.963270237
9.963273742
)
;
    }
}


// ************************************************************************* //
