/*--------------------------------*- C++ -*----------------------------------*\
| =========                 |                                                 |
| \\      /  F ield         | OpenFOAM: The Open Source CFD Toolbox           |
|  \\    /   O peration     | Version:  4.x                                   |
|   \\  /    A nd           | Web:      www.OpenFOAM.org                      |
|    \\/     M anipulation  |                                                 |
\*---------------------------------------------------------------------------*/
FoamFile
{
    version     2.0;
    format      ascii;
    class       volScalarField;
    location    "2000";
    object      N2;
}
// * * * * * * * * * * * * * * * * * * * * * * * * * * * * * * * * * * * * * //

dimensions      [0 0 0 0 0 0 0];

internalField   nonuniform List<scalar> 
1174
(
0.599997948
0.5999964167
0.5999942533
0.5999914296
0.5999879747
0.5999839638
0.5999795027
0.5999747121
0.5999697144
0.5999646252
0.5999595518
0.5999546086
0.599949999
0.5999463736
0.5999965114
0.5999940571
0.5999907868
0.5999867751
0.5999821589
0.5999771046
0.5999717816
0.5999663443
0.599960923
0.5999556219
0.5999505234
0.5999457079
0.5999413302
0.5999379475
0.5999933388
0.5999890008
0.5999836299
0.5999775269
0.5999710182
0.5999643971
0.5999578962
0.5999516818
0.5999458596
0.5999404877
0.5999355911
0.5999311858
0.5999273442
0.5999244632
0.599988691
0.599981952
0.5999742097
0.599966028
0.5999578778
0.5999500977
0.5999429001
0.599936395
0.5999306178
0.5999255546
0.5999211632
0.5999173963
0.5999142506
0.5999119679
0.5999853723
0.599977315
0.599968518
0.599959599
0.5999510056
0.5999430245
0.5999358123
0.5999294303
0.5999238747
0.5999191007
0.5999150426
0.5999116319
0.59990884
0.5999068465
0.5999886914
0.5999819526
0.5999742105
0.5999660292
0.5999578794
0.5999500997
0.5999429026
0.599936398
0.5999306213
0.5999255585
0.5999211677
0.5999174011
0.5999142557
0.5999119734
0.5999933393
0.5999890015
0.5999836309
0.5999775283
0.5999710202
0.5999643997
0.5999578996
0.599951686
0.5999458647
0.5999404936
0.5999355979
0.5999311934
0.5999273526
0.5999244723
0.5999965119
0.5999940576
0.5999907876
0.5999867762
0.5999821604
0.5999771068
0.5999717846
0.5999663482
0.5999609279
0.5999556279
0.5999505306
0.5999457162
0.5999413397
0.599937958
0.5999979483
0.5999964171
0.5999942537
0.5999914302
0.5999879757
0.5999839654
0.599979505
0.5999747153
0.5999697187
0.5999646308
0.5999595587
0.5999546169
0.5999500087
0.5999463848
0.5999981682
0.5999965119
0.5999940575
0.5999907873
0.5999867756
0.5999821594
0.5999771051
0.5999717821
0.5999663447
0.5999609234
0.5999556223
0.5999505239
0.5999457084
0.5999413307
0.5999379479
0.5999932731
0.5999889641
0.5999837062
0.5999778135
0.5999716019
0.5999653381
0.5999592209
0.5999533834
0.5999479046
0.5999428237
0.5999381557
0.5999339139
0.5999301752
0.5999273467
0.5999851274
0.5999767558
0.599967649
0.5999585752
0.5999500618
0.5999423969
0.5999356864
0.5999299177
0.5999250132
0.5999208676
0.5999173716
0.5999144311
0.5999120045
0.5999102535
0.5999706546
0.5999567339
0.5999434823
0.5999318897
0.5999223038
0.5999146822
0.5999087922
0.5999043378
0.5999010284
0.599898608
0.5998968651
0.5998956319
0.5998947837
0.5998942628
0.5999570001
0.5999402483
0.5999260334
0.5999147326
0.5999061281
0.59989979
0.5998952596
0.5998921241
0.5998900408
0.5998887366
0.5998879988
0.5998876629
0.5998875944
0.5998876582
0.5999706563
0.5999567359
0.5999434848
0.5999318927
0.5999223076
0.5999146866
0.5999087971
0.5999043433
0.5999010343
0.5998986143
0.5998968717
0.5998956388
0.5998947908
0.5998942702
0.5999851293
0.5999767578
0.5999676514
0.5999585784
0.5999500658
0.599942402
0.5999356925
0.5999299249
0.5999250215
0.5999208768
0.5999173816
0.5999144418
0.5999120158
0.5999102654
0.5999932741
0.5999889651
0.5999837074
0.5999778153
0.5999716046
0.5999653419
0.5999592259
0.5999533897
0.5999479122
0.5999428326
0.5999381659
0.5999339253
0.5999301877
0.5999273601
0.5999965118
0.5999940576
0.5999907877
0.5999867764
0.5999821609
0.5999771076
0.5999717858
0.5999663498
0.59996093
0.5999556304
0.5999505336
0.5999457196
0.5999413436
0.5999379625
0.5999964574
0.59999334
0.599989002
0.5999836312
0.5999775283
0.5999710196
0.5999643985
0.5999578976
0.5999516832
0.599945861
0.599940489
0.5999355924
0.599931187
0.5999273454
0.5999244644
0.5999918847
0.5999851291
0.5999767572
0.5999676503
0.5999585765
0.5999500629
0.599942398
0.5999356874
0.5999299187
0.5999250142
0.5999208686
0.5999173725
0.599914432
0.5999120054
0.5999102543
0.5999610697
0.5999434111
0.599927401
0.5999142509
0.5999042146
0.5998970091
0.5998921312
0.5998890444
0.5998872696
0.5998864168
0.5998861859
0.5998863511
0.5998867337
0.5998871357
0.5999075803
0.5998777441
0.5998571156
0.5998448815
0.5998390695
0.5998376854
0.5998391166
0.5998421928
0.5998461191
0.5998503806
0.5998546552
0.5998587364
0.5998624294
0.5998652586
0.5998375353
0.5998078016
0.5997949336
0.5997925435
0.5997960549
0.5998025793
0.5998104007
0.5998185404
0.599826463
0.5998338932
0.5998407023
0.5998468266
0.5998521519
0.5998561344
0.5999075883
0.5998777517
0.5998571236
0.5998448902
0.599839079
0.5998376955
0.5998391271
0.5998422036
0.59984613
0.5998503914
0.5998546659
0.599858747
0.5998624399
0.599865269
0.5999610753
0.5999434159
0.5999274066
0.5999142582
0.5999042237
0.59989702
0.5998921435
0.5998890579
0.599887284
0.599886432
0.5998862015
0.5998863671
0.59988675
0.5998871523
0.5999851291
0.599976758
0.5999676522
0.5999585799
0.5999500682
0.5999424053
0.5999356966
0.5999299297
0.5999250268
0.5999208827
0.5999173879
0.5999144485
0.5999120229
0.5999102727
0.5999933392
0.5999890016
0.5999836314
0.5999775296
0.5999710224
0.599964403
0.599957904
0.5999516916
0.5999458714
0.5999405014
0.5999356066
0.5999312031
0.5999273632
0.5999244838
0.599993888
0.599988693
0.5999819542
0.599974212
0.5999660305
0.5999578803
0.5999501003
0.5999429027
0.5999363976
0.5999306203
0.5999255571
0.5999211657
0.5999173986
0.5999142528
0.5999119701
0.5999834528
0.5999706584
0.5999567375
0.5999434857
0.5999318929
0.599922307
0.5999146852
0.599908795
0.5999043406
0.599901031
0.5998986104
0.5998968674
0.5998956341
0.5998947858
0.5998942648
0.5999439392
0.5999075879
0.5998777497
0.5998571199
0.5998448851
0.5998390726
0.5998376881
0.599839119
0.599842195
0.5998461211
0.5998503823
0.5998546568
0.5998587378
0.5998624307
0.5998652598
0.5997242488
0.5996865465
0.5996800718
0.599690573
0.599708691
0.5997291289
0.5997491918
0.5997676714
0.599784146
0.5997985808
0.5998111074
0.5998218886
0.5998309452
0.5998375607
0.5993646123
0.5994108611
0.5994825113
0.5995514127
0.5996100631
0.5996579651
0.599696636
0.5997278888
0.5997533116
0.5997741661
0.5997914127
0.5998057396
0.5998174716
0.5998259038
0.599724277
0.5996865674
0.5996800919
0.5996905935
0.5997087115
0.599729149
0.5997492112
0.5997676898
0.5997841636
0.5997985974
0.599811123
0.5998219035
0.5998309594
0.5998375745
0.5999075873
0.5998777543
0.5998571298
0.5998448994
0.5998390904
0.5998377081
0.5998391405
0.5998422172
0.5998461437
0.599850405
0.5998546792
0.59985876
0.5998624526
0.5998652817
0.5999706557
0.5999567372
0.5999434885
0.5999318991
0.5999223165
0.5999146977
0.59990881
0.5999043577
0.5999010499
0.5998986307
0.5998968888
0.5998956564
0.5998948088
0.5998942886
0.599988691
0.5999819529
0.5999742122
0.5999660328
0.599957885
0.5999501076
0.5999429127
0.5999364102
0.5999306355
0.5999255744
0.5999211851
0.5999174199
0.5999142758
0.5999119948
0.5999919599
0.5999853747
0.5999773177
0.5999685211
0.5999596023
0.5999510091
0.5999430281
0.599935816
0.599929434
0.5999238783
0.5999191043
0.5999150461
0.5999116353
0.5999088433
0.5999068497
0.599974649
0.5999570051
0.5999402534
0.5999260386
0.5999147378
0.5999061331
0.5998997949
0.5998952641
0.5998921285
0.5998900449
0.5998887404
0.5998880025
0.5998876664
0.5998875977
0.5998876614
0.5998901524
0.5998375474
0.5998078122
0.599794943
0.5997925517
0.599796062
0.5998025855
0.5998104061
0.5998185451
0.5998264672
0.5998338969
0.5998407057
0.5998468297
0.5998521548
0.5998561371
0.599428985
0.5993646466
0.5994108823
0.5994825252
0.5995514225
0.5996100704
0.5996579708
0.5996966406
0.5997278925
0.5997533147
0.5997741688
0.5997914151
0.5998057417
0.5998174734
0.5998259054
0.5978135854
0.5985990179
0.5990352789
0.5992912754
0.5994501013
0.5995541079
0.5996256999
0.5996771997
0.5997156602
0.5997452835
0.5997686654
0.5997874299
0.5998024188
0.5998130302
0.5993646109
0.599410891
0.599482552
0.5995514543
0.5996101019
0.5996580001
0.5996966675
0.5997279171
0.5997533372
0.5997741894
0.5997914341
0.5998057594
0.59981749
0.5998259214
0.5998375325
0.5998078134
0.5997949564
0.5997925729
0.5997960877
0.5998026133
0.5998104348
0.5998185738
0.5998264955
0.5998339246
0.5998407326
0.5998468558
0.5998521801
0.5998561621
0.5999569989
0.5999402518
0.5999260423
0.5999147466
0.5999061462
0.5998998115
0.5998952836
0.59989215
0.5998900681
0.5998887649
0.5998880278
0.5998876923
0.5998876241
0.5998876884
0.5999853717
0.5999773159
0.5999685214
0.5999596055
0.5999510155
0.5999430377
0.5999358287
0.5999294497
0.5999238966
0.599919125
0.5999150689
0.5999116599
0.5999088696
0.5999068777
0.5999938881
0.5999886934
0.5999819551
0.5999742135
0.5999660325
0.599957883
0.5999501036
0.5999429066
0.5999364021
0.5999306254
0.5999255627
0.5999211718
0.5999174051
0.5999142597
0.5999119773
0.599983454
0.5999706608
0.5999567409
0.5999434901
0.5999318982
0.5999223131
0.599914692
0.5999088023
0.5999043484
0.5999010393
0.599898619
0.5998968762
0.5998956432
0.599894795
0.5998942743
0.5999439524
0.5999076001
0.5998777631
0.5998571343
0.5998449
0.5998390879
0.5998377036
0.5998391343
0.59984221
0.5998461358
0.5998503967
0.5998546708
0.5998587515
0.5998624441
0.5998652731
0.5998084945
0.5997243074
0.5996865911
0.5996801106
0.5996906083
0.5997087234
0.5997291587
0.5997492192
0.5997676966
0.5997841693
0.5997986024
0.5998111274
0.5998219074
0.5998309629
0.5998375779
0.599428992
0.5993646565
0.5994109191
0.5994825703
0.5995514672
0.5996101113
0.5996580071
0.599696673
0.5997279216
0.5997533408
0.5997741924
0.5997914367
0.5998057617
0.599817492
0.5998259233
0.5998084848
0.5997243078
0.5996866028
0.59968013
0.5996906315
0.5997087479
0.5997291828
0.5997492423
0.5997677184
0.5997841898
0.5997986216
0.5998111454
0.5998219243
0.5998309789
0.5998375934
0.5999075802
0.5998777588
0.5998571415
0.5998449153
0.5998391084
0.5998377271
0.5998391596
0.5998422361
0.599846162
0.5998504227
0.5998546964
0.5998587766
0.5998624686
0.5998652974
0.5999706531
0.5999567374
0.5999434915
0.5999319046
0.599922324
0.5999147066
0.59990882
0.5999043685
0.5999010612
0.5998986424
0.5998969007
0.5998956684
0.5998948209
0.5998943008
0.5999886902
0.5999819528
0.5999742132
0.5999660349
0.5999578885
0.5999501123
0.5999429185
0.599936417
0.599930643
0.5999255828
0.599921194
0.5999174293
0.5999142857
0.599912005
0.5999964577
0.5999933407
0.5999890033
0.5999836331
0.599977531
0.5999710232
0.5999644031
0.5999579033
0.5999516899
0.5999458687
0.5999404977
0.599935602
0.5999311976
0.5999273568
0.5999244764
0.599991887
0.5999851321
0.5999767612
0.5999676553
0.5999585827
0.5999500704
0.5999424068
0.5999356974
0.5999299298
0.5999250263
0.5999208816
0.5999173862
0.5999144464
0.5999120204
0.5999102698
0.5999779017
0.5999610821
0.5999434234
0.5999274145
0.599914266
0.5999042313
0.5998970272
0.5998921504
0.5998890644
0.5998872901
0.5998864377
0.5998862069
0.5998863722
0.5998867549
0.5998871571
0.5999439522
0.5999076025
0.599877769
0.5998571434
0.5998449117
0.5998391012
0.5998377178
0.599839149
0.5998422248
0.5998461504
0.599850411
0.5998546848
0.599858765
0.5998624573
0.5998652861
0.5998901523
0.5998375573
0.5998078341
0.5997949733
0.5997925866
0.5997960989
0.5998026226
0.5998104426
0.5998185804
0.5998265012
0.5998339296
0.5998407369
0.5998468597
0.5998521837
0.5998561654
0.5999439529
0.5999076053
0.5998777752
0.5998571529
0.5998449236
0.5998391148
0.5998377322
0.5998391638
0.5998422396
0.599846165
0.5998504253
0.5998546987
0.5998587786
0.5998624705
0.5998652991
0.5999778972
0.5999610788
0.5999434238
0.5999274192
0.599914275
0.5999042438
0.5998970424
0.5998921675
0.5998890829
0.5998873095
0.5998864577
0.5998862272
0.5998863928
0.5998867755
0.5998871779
0.5999851274
0.5999767589
0.5999676559
0.5999585865
0.5999500773
0.5999424167
0.5999357099
0.5999299446
0.5999250431
0.5999209
0.5999174062
0.5999144675
0.5999120424
0.5999102929
0.5999933383
0.5999890015
0.5999836326
0.5999775324
0.5999710269
0.5999644093
0.5999579121
0.5999517014
0.5999458827
0.5999405141
0.5999356207
0.5999312182
0.5999273793
0.5999245008
0.5999981687
0.5999965127
0.5999940588
0.5999907891
0.5999867781
0.5999821627
0.5999771094
0.5999717875
0.5999663514
0.5999609314
0.5999556316
0.5999505344
0.5999457202
0.5999413438
0.5999379621
0.599996413
0.5999932756
0.5999889671
0.5999837099
0.5999778182
0.5999716079
0.5999653455
0.5999592298
0.5999533938
0.5999479164
0.5999428369
0.5999381703
0.5999339297
0.5999301922
0.5999273646
0.599991887
0.5999851323
0.5999767619
0.5999676568
0.599958585
0.5999500736
0.5999424108
0.5999357022
0.5999299352
0.5999250323
0.599920888
0.5999173931
0.5999144536
0.5999120278
0.5999102776
0.5999834539
0.599970662
0.5999567443
0.5999434961
0.5999319068
0.5999223241
0.5999147051
0.5999088171
0.5999043644
0.5999010562
0.5998986367
0.5998968944
0.5998956617
0.5998948138
0.5998942934
0.599974649
0.5999570085
0.5999402618
0.5999260521
0.5999147558
0.5999061548
0.5998998194
0.5998952908
0.5998921566
0.5998900742
0.5998887704
0.5998880329
0.5998876971
0.5998876286
0.5998876926
0.5999834545
0.5999706633
0.5999567468
0.5999435
0.5999319121
0.5999223305
0.5999147125
0.5999088253
0.5999043732
0.5999010655
0.5998986463
0.5998969043
0.5998956717
0.599894824
0.5998943037
0.5999918867
0.5999851322
0.5999767629
0.5999676594
0.5999585895
0.5999500801
0.5999424192
0.5999357123
0.5999299467
0.5999250451
0.5999209018
0.5999174078
0.599914469
0.5999120439
0.5999102942
0.5999964121
0.5999932746
0.5999889666
0.5999837106
0.5999778204
0.5999716119
0.5999653515
0.5999592377
0.5999534036
0.5999479281
0.5999428503
0.5999381852
0.5999339461
0.5999302099
0.5999273834
0.5999965114
0.5999940578
0.5999907888
0.5999867789
0.599982165
0.5999771134
0.5999717935
0.5999663594
0.5999609416
0.5999556439
0.5999505489
0.5999457367
0.5999413622
0.5999379825
0.5999989331
0.5999979489
0.5999964178
0.5999942548
0.5999914316
0.5999879775
0.5999839675
0.5999795074
0.5999747181
0.5999697217
0.5999646341
0.5999595623
0.5999546207
0.5999500126
0.5999463888
0.5999981687
0.5999965127
0.5999940589
0.5999907893
0.5999867785
0.5999821634
0.5999771105
0.599971789
0.5999663533
0.5999609337
0.5999556344
0.5999505377
0.5999457239
0.5999413479
0.5999379668
0.5999964576
0.5999933409
0.5999890038
0.5999836343
0.599977533
0.5999710262
0.5999644072
0.5999579085
0.5999516962
0.5999458762
0.5999405062
0.5999356115
0.5999312079
0.599927368
0.5999244886
0.599993888
0.5999886939
0.5999819567
0.5999742167
0.5999660378
0.5999578905
0.5999501133
0.5999429185
0.599936416
0.5999306412
0.59992558
0.5999211906
0.5999174252
0.5999142809
0.5999119997
0.5999919599
0.5999853759
0.5999773209
0.5999685271
0.5999596115
0.5999510217
0.5999430439
0.5999358348
0.5999294556
0.5999239023
0.5999191305
0.599915074
0.5999116649
0.5999088743
0.5999068822
0.5999938883
0.5999886945
0.5999819577
0.5999742184
0.5999660403
0.5999578938
0.5999501175
0.5999429235
0.5999364217
0.5999306476
0.599925587
0.599921198
0.5999174331
0.5999142892
0.5999120084
0.5999964577
0.5999933411
0.5999890046
0.5999836358
0.5999775356
0.59997103
0.5999644123
0.599957915
0.5999517041
0.5999458853
0.5999405166
0.599935623
0.5999312204
0.5999273813
0.5999245028
0.5999981686
0.5999965126
0.599994059
0.5999907899
0.59998678
0.599982166
0.5999771145
0.5999717945
0.5999663604
0.5999609425
0.5999556448
0.5999505497
0.5999457375
0.599941363
0.5999379832
0.5999989328
0.5999979485
0.5999964176
0.5999942548
0.5999914324
0.5999879791
0.5999839704
0.5999795119
0.5999747242
0.5999697298
0.5999646442
0.5999595744
0.5999546349
0.5999500288
0.599946407
)
;

boundaryField
{
    top
    {
        type            zeroGradient;
    }
    bottom
    {
        type            zeroGradient;
    }
    side-walls
    {
        type            zeroGradient;
    }
    inlet
    {
        type            zeroGradient;
    }
    outlet
    {
        type            zeroGradient;
    }
    procBoundary1to0
    {
        type            processor;
        value           nonuniform List<scalar> 
97
(
0.5999989329
0.5999989329
0.5999981687
0.5999964581
0.5999938895
0.5999919622
0.5999938898
0.5999964586
0.5999981692
0.5999989334
0.5999991479
0.5999964121
0.5999964121
0.5999964121
0.5999918873
0.5999834574
0.5999746575
0.5999834591
0.5999918894
0.599996414
0.5999981692
0.5999983734
0.5999963695
0.5999778973
0.5999778973
0.5999778973
0.5999439608
0.5998901987
0.5999439713
0.5999779085
0.5999918893
0.5999964585
0.5999972387
0.599992837
0.5999774503
0.5998084909
0.5998084909
0.5998084909
0.5994293032
0.5998085669
0.5999439706
0.5999834587
0.5999938896
0.5999964285
0.5999895049
0.5999603662
0.5998451657
0.5963231063
0.5963231063
0.5963231063
0.5994292871
0.5994292871
0.5998901946
0.5999746564
0.5999919617
0.5999972385
0.5999928365
0.5999774469
0.5999327437
0.5998451517
0.5999327528
0.5999439441
0.5999439441
0.5999439441
0.5999834547
0.5999938888
0.5999983732
0.599996369
0.599990498
0.5999774467
0.5999603643
0.5999774485
0.5999904991
0.5999918849
0.5999918849
0.5999918849
0.5999964575
0.5999991478
0.5999983574
0.599996369
0.5999928364
0.5999895046
0.5999928369
0.5999963693
0.5999983575
0.5999981682
0.5999981682
0.5999981682
0.5999994986
0.5999991478
0.5999983732
0.5999972385
0.5999964285
0.5999972386
0.5999983733
0.5999991479
0.5999994986
)
;
    }
}


// ************************************************************************* //
