/*--------------------------------*- C++ -*----------------------------------*\
| =========                 |                                                 |
| \\      /  F ield         | OpenFOAM: The Open Source CFD Toolbox           |
|  \\    /   O peration     | Version:  4.x                                   |
|   \\  /    A nd           | Web:      www.OpenFOAM.org                      |
|    \\/     M anipulation  |                                                 |
\*---------------------------------------------------------------------------*/
FoamFile
{
    version     2.0;
    format      ascii;
    class       volScalarField;
    location    "2000";
    object      rhoeps;
}
// * * * * * * * * * * * * * * * * * * * * * * * * * * * * * * * * * * * * * //

dimensions      [1 -3 0 0 0 0 0];

internalField   nonuniform List<scalar> 
1174
(
0.2790927184
0.2790934112
0.2790944296
0.2790957303
0.2790973285
0.2790992146
0.279101263
0.2791034714
0.2791057787
0.2791081151
0.2791104879
0.2791127888
0.2791149115
0.27911661
0.279092712
0.2790938428
0.2790953664
0.2790972126
0.2790993604
0.2791017555
0.279104159
0.2791067175
0.2791092413
0.2791117377
0.2791141063
0.2791163508
0.279118358
0.2791199238
0.2790941966
0.2790961854
0.2790986569
0.2791014832
0.2791045334
0.2791076184
0.2791106031
0.2791134856
0.2791162069
0.2791187065
0.2791209927
0.2791230507
0.2791248571
0.2791261786
0.2790971747
0.2791002958
0.2791038979
0.2791077111
0.2791114781
0.2791151084
0.2791184201
0.2791214624
0.2791240903
0.2791264221
0.2791284438
0.2791301605
0.2791315977
0.2791326172
0.2790986425
0.2791023526
0.2791064241
0.2791105469
0.2791145617
0.2791182656
0.279121609
0.2791245657
0.2791271336
0.2791293484
0.2791312171
0.279132799
0.2791341164
0.2791350491
0.2790971324
0.2791002729
0.2791038714
0.2791076601
0.2791114334
0.2791150691
0.2791183626
0.2791213838
0.2791241138
0.2791265051
0.2791285414
0.2791303082
0.2791317619
0.2791328015
0.279094438
0.2790964735
0.2790989831
0.2791018294
0.2791048557
0.279107895
0.2791109651
0.2791138178
0.2791165055
0.2791190134
0.2791212569
0.2791233037
0.2791250918
0.2791263954
0.279093689
0.2790948287
0.2790963143
0.2790981243
0.2791003013
0.2791026006
0.2791051057
0.2791076293
0.2791101086
0.2791126014
0.2791149857
0.2791171931
0.2791192146
0.2791207972
0.2790928854
0.2790935891
0.2790945637
0.2790958851
0.27909749
0.2790993601
0.2791014341
0.2791036264
0.2791059171
0.2791082719
0.2791106268
0.2791129086
0.2791150414
0.2791167376
0.2790921653
0.279092921
0.2790940789
0.2790955852
0.279097442
0.2790996079
0.2791019599
0.279104453
0.2791069774
0.2791094707
0.2791119429
0.279114332
0.2791165725
0.2791185862
0.2791201618
0.2790954271
0.2790974377
0.2790998831
0.2791026114
0.2791054786
0.2791083878
0.2791112309
0.2791139031
0.2791164647
0.2791188508
0.2791209875
0.2791229634
0.2791247247
0.2791260388
0.2790988168
0.2791027395
0.2791069173
0.2791111083
0.279115073
0.2791186153
0.2791217299
0.2791243928
0.2791266496
0.2791285703
0.2791301714
0.279131533
0.2791326442
0.2791334297
0.2791055488
0.2791120046
0.2791181448
0.2791234983
0.2791279767
0.2791314832
0.2791342056
0.2791363093
0.2791378334
0.2791389704
0.2791397292
0.2791403155
0.2791407233
0.2791409472
0.2791108588
0.2791186347
0.2791252133
0.2791304746
0.2791344722
0.2791374057
0.2791394747
0.2791409486
0.279141915
0.2791425092
0.2791428759
0.2791430066
0.2791430631
0.2791430255
0.2791055786
0.279111979
0.2791181207
0.2791234874
0.2791279244
0.2791314643
0.2791342176
0.2791363003
0.2791378509
0.2791389725
0.2791397919
0.2791403193
0.2791407358
0.2791409769
0.2790986718
0.2791025427
0.27910676
0.2791109656
0.2791149801
0.2791185678
0.2791217179
0.2791243853
0.2791266805
0.2791285808
0.2791301743
0.2791316063
0.2791327299
0.2791335217
0.2790947459
0.2790967343
0.2790992092
0.2791019316
0.2791047918
0.2791077011
0.2791105358
0.2791132776
0.2791158398
0.279118149
0.2791203001
0.2791223034
0.2791240755
0.2791254506
0.2790931825
0.279094351
0.2790958555
0.2790977164
0.2790998407
0.2791021754
0.2791046755
0.2791071953
0.2791097237
0.2791121758
0.2791145177
0.2791167802
0.2791188102
0.279120346
0.2790933997
0.2790948318
0.2790968229
0.2790993157
0.2791021253
0.2791051671
0.279108229
0.2791112808
0.279114169
0.2791168509
0.2791193333
0.2791215945
0.2791236405
0.2791254251
0.2791267767
0.2790949165
0.2790980633
0.2791019168
0.2791061076
0.2791102848
0.2791142728
0.279117838
0.2791209269
0.2791235686
0.279125826
0.2791277307
0.2791293656
0.2791307214
0.2791318307
0.2791326712
0.2791101955
0.279118339
0.2791257678
0.2791318684
0.279136516
0.2791398925
0.2791421297
0.2791435432
0.2791443351
0.2791447433
0.2791448541
0.2791447824
0.2791445906
0.2791443935
0.2791339062
0.2791477681
0.2791573411
0.2791630197
0.2791657797
0.2791664334
0.2791657614
0.2791643079
0.2791624979
0.2791604835
0.2791585301
0.2791566303
0.2791549279
0.2791536087
0.2791670819
0.2791808981
0.2791868927
0.2791880139
0.2791864118
0.2791833543
0.279179728
0.2791759309
0.2791722239
0.2791687394
0.2791655554
0.2791626392
0.2791601305
0.279158257
0.2791349388
0.2791488205
0.2791584043
0.2791641049
0.2791668048
0.27916746
0.27916679
0.2791653306
0.2791634988
0.2791615594
0.2791595748
0.279157655
0.2791559103
0.279154639
0.2791092933
0.2791174461
0.2791249143
0.2791310201
0.2791356739
0.2791389892
0.2791411957
0.2791426409
0.2791434629
0.2791438653
0.2791439934
0.2791439189
0.2791437516
0.2791435954
0.2790986499
0.2791025492
0.2791067379
0.2791109566
0.2791149257
0.2791184751
0.2791216178
0.2791242764
0.2791265499
0.2791284512
0.2791300778
0.2791314844
0.2791326071
0.2791334108
0.2790949037
0.2790969207
0.279099395
0.2791022475
0.2791052558
0.2791083045
0.2791113159
0.2791141721
0.2791169133
0.2791194002
0.2791216912
0.2791237081
0.2791254648
0.2791268206
0.2790946113
0.2790969908
0.2791001219
0.2791037449
0.2791075626
0.2791113076
0.2791148935
0.2791182409
0.2791212374
0.2791239352
0.2791262367
0.2791282781
0.2791300497
0.2791315409
0.2791325963
0.279099177
0.2791051194
0.2791115833
0.2791177838
0.2791231707
0.279127639
0.2791311278
0.2791338499
0.2791359351
0.2791374974
0.2791386097
0.2791393671
0.2791399208
0.2791403012
0.2791405019
0.2791180144
0.2791348991
0.2791487361
0.2791583252
0.2791640039
0.2791667041
0.2791673567
0.2791666402
0.2791652099
0.2791633816
0.2791613935
0.2791594411
0.2791575459
0.2791558613
0.2791545336
0.2792192768
0.2792368127
0.2792397933
0.2792348328
0.27922639
0.2792168802
0.2792075405
0.279198951
0.2791912783
0.2791845356
0.27917869
0.2791736853
0.279169504
0.279166432
0.279391375
0.2793698375
0.2793365121
0.2793044543
0.2792771952
0.2792549207
0.2792369379
0.2792224324
0.2792106151
0.2792009488
0.2791929415
0.2791862561
0.279180811
0.2791768606
0.2792203032
0.2792378371
0.2792408433
0.2792359612
0.2792275828
0.2792180444
0.2792086788
0.2792000981
0.279192429
0.279185689
0.2791798827
0.279174808
0.2791705957
0.2791675293
0.279133758
0.2791476318
0.2791572259
0.2791628555
0.2791655224
0.2791662043
0.279165534
0.2791641018
0.2791622315
0.2791602572
0.2791582904
0.2791563587
0.2791546678
0.2791533143
0.2791048154
0.2791112974
0.2791174602
0.2791228398
0.2791272992
0.2791308615
0.2791335993
0.2791356674
0.2791372285
0.2791383644
0.2791391535
0.2791397121
0.2791400931
0.2791403101
0.2790966717
0.2790997603
0.2791033508
0.2791071474
0.2791108993
0.2791144862
0.2791178304
0.279120857
0.2791235026
0.2791258579
0.2791278668
0.2791296532
0.2791311212
0.2791321561
0.2790953313
0.2790984173
0.2791021855
0.2791062644
0.2791103905
0.2791143596
0.2791180862
0.2791214254
0.2791243757
0.279126938
0.2791291719
0.2791310337
0.279132611
0.2791338775
0.2791347848
0.279103413
0.2791115602
0.2791192809
0.2791258822
0.2791311038
0.2791351289
0.2791380248
0.2791401437
0.2791415873
0.2791425344
0.2791431864
0.2791435715
0.2791437022
0.2791437345
0.2791437304
0.2791428992
0.2791673291
0.2791811768
0.2791871567
0.2791883136
0.2791866745
0.2791836141
0.2791800006
0.2791762099
0.2791725481
0.2791690746
0.2791658637
0.2791629787
0.2791605175
0.2791586879
0.2793613533
0.2793912706
0.27936972
0.2793364102
0.2793043813
0.2792770821
0.2792547765
0.2792367988
0.2792222899
0.2792104528
0.2792007776
0.2791927765
0.2791861606
0.2791807284
0.2791768159
0.2827631587
0.2823966162
0.2821949477
0.282078108
0.2820069176
0.2819615272
0.2819313548
0.2819105768
0.2818959059
0.2818853382
0.2818777276
0.281872354
0.2818687242
0.2818671581
0.2793908084
0.279369285
0.2793359703
0.2793039253
0.2792766461
0.2792543801
0.2792364105
0.2792219007
0.2792100712
0.2792003841
0.279192411
0.2791857975
0.2791803405
0.2791764212
0.279167
0.2791807906
0.2791867297
0.279187834
0.2791862409
0.2791831838
0.279179553
0.2791757659
0.2791720645
0.2791685917
0.2791653716
0.2791625252
0.2791600717
0.279158259
0.2791120356
0.2791198372
0.2791264464
0.279131663
0.2791356541
0.2791385849
0.279140659
0.2791421019
0.2791430335
0.2791436554
0.2791439905
0.2791441294
0.2791441904
0.2791441641
0.2790985816
0.2791023553
0.2791064566
0.2791105861
0.2791145797
0.2791182354
0.2791216301
0.2791245579
0.2791271859
0.2791293905
0.2791312546
0.2791328409
0.2791341242
0.2791350311
0.2790942689
0.2790966847
0.2790997882
0.2791033538
0.2791071596
0.279110925
0.279114523
0.2791178774
0.2791208826
0.2791235501
0.2791258852
0.2791279213
0.2791296626
0.2791311607
0.2791322436
0.2790994937
0.279105428
0.2791119092
0.2791180807
0.2791234927
0.2791279533
0.2791315263
0.2791342692
0.2791363244
0.2791378666
0.279139003
0.2791397761
0.2791403768
0.2791407732
0.2791409809
0.2791174767
0.2791343518
0.2791481836
0.2791577572
0.2791634196
0.2791661128
0.279166716
0.2791660848
0.2791646774
0.279162814
0.2791608716
0.2791588841
0.2791569967
0.2791552344
0.2791538945
0.2791810703
0.2792202021
0.2792377283
0.2792407459
0.2792358656
0.2792274673
0.2792179446
0.2792086029
0.2792000093
0.2791923313
0.2791856191
0.2791797934
0.2791747795
0.279170526
0.279167423
0.2793610028
0.2793909559
0.2793694265
0.2793361251
0.2793040435
0.2792767726
0.2792545486
0.2792365818
0.2792220451
0.2792102533
0.2792005666
0.2791925547
0.2791859145
0.2791804823
0.2791765615
0.279180968
0.2792200763
0.2792376361
0.2792406374
0.2792357624
0.2792273279
0.2792178463
0.2792084993
0.2791998811
0.2791922452
0.2791855373
0.2791797202
0.2791747108
0.2791704932
0.2791673817
0.2791348742
0.279148734
0.2791582994
0.2791639719
0.2791666732
0.2791672829
0.2791666332
0.2791652528
0.2791634307
0.2791614124
0.2791594252
0.2791575083
0.2791557898
0.2791544559
0.2791053079
0.2791117496
0.2791178841
0.2791232585
0.2791277053
0.2791312587
0.2791339734
0.2791360373
0.2791375929
0.2791387166
0.279139538
0.2791401411
0.2791405337
0.2791408318
0.2790970989
0.2791002177
0.2791037926
0.2791075994
0.2791113791
0.2791149645
0.2791183243
0.2791213738
0.2791240749
0.2791264068
0.2791284409
0.2791301698
0.2791316026
0.279132673
0.2790934685
0.2790949312
0.2790969079
0.2790994284
0.279102264
0.279105286
0.2791083536
0.2791113165
0.2791141695
0.2791168713
0.2791193223
0.2791215621
0.2791236343
0.2791254248
0.2791267475
0.2790957937
0.2790989208
0.2791027766
0.2791069873
0.2791111412
0.2791151136
0.2791186654
0.2791217994
0.2791244764
0.2791267299
0.2791286892
0.2791303594
0.2791317578
0.2791328776
0.27913371
0.2791011008
0.2791089214
0.2791170849
0.2791245408
0.2791306944
0.2791353667
0.2791387123
0.2791409679
0.2791423939
0.2791432737
0.2791436322
0.2791437466
0.2791436499
0.2791434689
0.2791432732
0.279118115
0.2791349963
0.2791488304
0.2791584165
0.2791640629
0.2791667469
0.2791673339
0.2791666676
0.279165234
0.2791633954
0.2791614411
0.2791594471
0.2791575693
0.2791558325
0.2791545027
0.2791423611
0.2791668055
0.2791806346
0.2791865985
0.2791876868
0.2791860624
0.2791830405
0.27917939
0.2791756558
0.2791719257
0.2791684393
0.2791652951
0.2791624419
0.2791599924
0.2791581278
0.2791181748
0.2791351001
0.2791489519
0.2791585536
0.2791642376
0.2791669434
0.2791675849
0.279166885
0.2791654432
0.2791636462
0.2791616797
0.2791597037
0.2791577971
0.2791560966
0.2791547783
0.2791023785
0.2791101639
0.2791183573
0.2791257946
0.2791318679
0.2791365087
0.2791398478
0.2791420878
0.2791434831
0.27914429
0.2791447114
0.2791448541
0.2791447437
0.2791445773
0.2791443772
0.2790977575
0.2791016191
0.2791058404
0.2791100259
0.2791139579
0.2791175241
0.2791206603
0.2791233637
0.2791256135
0.2791275336
0.2791291145
0.2791304742
0.2791315949
0.2791324011
0.2790949604
0.2790969648
0.2790994668
0.279102286
0.2791052906
0.2791083829
0.2791114112
0.2791142814
0.2791169763
0.2791194743
0.2791216902
0.2791237633
0.2791255487
0.2791268909
0.2790922374
0.2790930321
0.2790941416
0.2790956543
0.2790975403
0.2790996428
0.279101943
0.2791044198
0.2791069419
0.2791094398
0.2791118754
0.2791142495
0.2791164954
0.279118539
0.2791201524
0.2790931467
0.2790946147
0.2790965654
0.2790990013
0.2791017187
0.2791046151
0.2791075477
0.2791104412
0.2791131567
0.2791157645
0.2791181075
0.2791202488
0.279122225
0.2791239635
0.2791253024
0.2790960489
0.2790991529
0.2791030471
0.2791072707
0.2791115101
0.2791154609
0.2791190087
0.2791221151
0.2791247807
0.2791270488
0.2791289462
0.2791306014
0.2791319804
0.2791330825
0.2791339277
0.2790988173
0.2791047474
0.2791112084
0.2791173503
0.2791226989
0.279127151
0.2791306491
0.2791333665
0.2791354251
0.2791369498
0.279138076
0.2791388983
0.2791395344
0.2791399392
0.279140141
0.279103954
0.2791121465
0.2791198977
0.2791264689
0.2791317084
0.2791356892
0.2791386004
0.2791407274
0.27914217
0.2791431079
0.2791437356
0.2791440598
0.2791442335
0.2791442582
0.2791442223
0.2790995233
0.2791054569
0.2791118889
0.2791180256
0.2791233808
0.2791278281
0.279131349
0.2791340818
0.2791361481
0.2791376868
0.2791387841
0.2791395605
0.2791401533
0.2791405569
0.2791408226
0.2790958934
0.2790990759
0.2791029179
0.2791071084
0.2791113269
0.279115288
0.2791188516
0.2791219648
0.2791246492
0.279126984
0.2791288982
0.2791305286
0.2791318358
0.2791329526
0.2791337656
0.2790946604
0.2790961283
0.2790981417
0.2791006051
0.2791033288
0.2791061897
0.2791090809
0.279111925
0.2791146151
0.2791171674
0.2791195114
0.2791216875
0.2791236862
0.2791254034
0.2791266752
0.2790933742
0.2790945035
0.2790960077
0.2790978958
0.2791000587
0.2791023998
0.2791048434
0.2791073638
0.2791098409
0.2791122768
0.2791146363
0.2791168443
0.2791188739
0.2791204329
0.2790923096
0.2790927961
0.2790935027
0.2790944966
0.2790958027
0.2790974088
0.2790992685
0.2791013462
0.2791035533
0.2791058591
0.27910821
0.27911056
0.2791128518
0.2791149774
0.2791167121
0.2790923506
0.2790931083
0.2790942511
0.2790957957
0.2790976529
0.2790997852
0.2791021245
0.2791046467
0.279107149
0.2791096317
0.279112093
0.279114487
0.2791167058
0.27911873
0.2791203198
0.2790930754
0.2790945555
0.2790965684
0.2790990657
0.2791019258
0.2791049481
0.2791079997
0.2791110167
0.2791138993
0.2791166116
0.2791191115
0.2791213278
0.2791233603
0.2791251544
0.2791264593
0.2790948262
0.2790971945
0.2791003124
0.2791038849
0.2791076648
0.2791114216
0.2791150206
0.2791183622
0.2791213597
0.2791240499
0.2791264075
0.2791284595
0.2791302236
0.2791316734
0.2791327375
0.2790956622
0.2790987136
0.2791024661
0.2791065536
0.2791106868
0.2791146863
0.2791183987
0.2791217133
0.2791246667
0.2791272292
0.2791294571
0.2791313747
0.2791329523
0.2791342331
0.2791351505
0.2790943256
0.279096753
0.2790998661
0.2791034396
0.2791072425
0.2791110176
0.2791146321
0.279117997
0.2791210228
0.2791236755
0.2791259894
0.279128022
0.2791297492
0.2791311495
0.2791322188
0.2790928655
0.279094326
0.2790963702
0.2790988917
0.2791017019
0.279104722
0.2791077722
0.2791107329
0.2791136366
0.2791163118
0.2791187948
0.2791210698
0.2791231543
0.2791249293
0.2791262667
0.2790923808
0.2790931882
0.279094344
0.279095834
0.2790976889
0.2790998382
0.2791021742
0.2791046515
0.2791071823
0.2791096939
0.2791121513
0.2791145183
0.2791167082
0.2791187239
0.2791202991
0.2790920913
0.2790925776
0.2790932667
0.2790942452
0.2790955515
0.2790971446
0.279098995
0.2791010573
0.279103297
0.2791056297
0.2791079612
0.2791103447
0.2791126428
0.2791147882
0.279116466
)
;

boundaryField
{
    top
    {
        type            calculated;
        value           nonuniform List<scalar> 
127
(
0.2790920913
0.2790928854
0.2790931825
0.2790949037
0.2790966717
0.2790985816
0.2790970989
0.2790949604
0.2790933742
0.2790925776
0.2790935891
0.279094351
0.2790969207
0.2790997603
0.2791023553
0.2791002177
0.2790969648
0.2790945035
0.2790932667
0.2790945637
0.2790958555
0.279099395
0.2791033508
0.2791064566
0.2791037926
0.2790994668
0.2790960077
0.2790942452
0.2790958851
0.2790977164
0.2791022475
0.2791071474
0.2791105861
0.2791075994
0.279102286
0.2790978958
0.2790955515
0.27909749
0.2790998407
0.2791052558
0.2791108993
0.2791145797
0.2791113791
0.2791052906
0.2791000587
0.2790971446
0.2790993601
0.2791021754
0.2791083045
0.2791144862
0.2791182354
0.2791149645
0.2791083829
0.2791023998
0.279098995
0.2791014341
0.2791046755
0.2791113159
0.2791178304
0.2791216301
0.2791183243
0.2791114112
0.2791048434
0.2791010573
0.2791036264
0.2791071953
0.2791141721
0.279120857
0.2791245579
0.2791213738
0.2791142814
0.2791073638
0.279103297
0.2791059171
0.2791097237
0.2791169133
0.2791235026
0.2791271859
0.2791240749
0.2791169763
0.2791098409
0.2791056297
0.2791082719
0.2791121758
0.2791194002
0.2791258579
0.2791293905
0.2791264068
0.2791194743
0.2791122768
0.2791079612
0.2791106268
0.2791145177
0.2791216912
0.2791278668
0.2791312546
0.2791284409
0.2791216902
0.2791146363
0.2791103447
0.2791129086
0.2791167802
0.2791237081
0.2791296532
0.2791328409
0.2791301698
0.2791237633
0.2791168443
0.2791126428
0.2791150414
0.2791188102
0.2791254648
0.2791311212
0.2791341242
0.2791316026
0.2791255487
0.2791188739
0.2791147882
0.2791167376
0.279120346
0.2791268206
0.2791321561
0.2791350311
0.279132673
0.2791268909
0.2791204329
0.279116466
)
;
    }
    bottom
    {
        type            calculated;
        value           nonuniform List<scalar> 
134
(
0.2790921653
0.2790933997
0.2790946113
0.2790953313
0.2790942689
0.2790934685
0.2790922374
0.2790923096
0.2790927184
0.279092921
0.2790948318
0.2790969908
0.2790984173
0.2790966847
0.2790949312
0.2790930321
0.2790927961
0.2790934112
0.2790940789
0.2790968229
0.2791001219
0.2791021855
0.2790997882
0.2790969079
0.2790941416
0.2790935027
0.2790944296
0.2790955852
0.2790993157
0.2791037449
0.2791062644
0.2791033538
0.2790994284
0.2790956543
0.2790944966
0.2790957303
0.279097442
0.2791021253
0.2791075626
0.2791103905
0.2791071596
0.279102264
0.2790975403
0.2790958027
0.2790973285
0.2790996079
0.2791051671
0.2791113076
0.2791143596
0.279110925
0.279105286
0.2790996428
0.2790974088
0.2790992146
0.2791019599
0.279108229
0.2791148935
0.2791180862
0.279114523
0.2791083536
0.279101943
0.2790992685
0.279101263
0.279104453
0.2791112808
0.2791182409
0.2791214254
0.2791178774
0.2791113165
0.2791044198
0.2791013462
0.2791034714
0.2791069774
0.279114169
0.2791212374
0.2791243757
0.2791208826
0.2791141695
0.2791069419
0.2791035533
0.2791057787
0.2791094707
0.2791168509
0.2791239352
0.279126938
0.2791235501
0.2791168713
0.2791094398
0.2791058591
0.2791081151
0.2791119429
0.2791193333
0.2791262367
0.2791291719
0.2791258852
0.2791193223
0.2791118754
0.27910821
0.2791104879
0.279114332
0.2791215945
0.2791282781
0.2791310337
0.2791279213
0.2791215621
0.2791142495
0.27911056
0.2791127888
0.2791165725
0.2791236405
0.2791300497
0.279132611
0.2791296626
0.2791236343
0.2791164954
0.2791128518
0.2791149115
0.2791185862
0.2791254251
0.2791315409
0.2791338775
0.2791311607
0.2791254248
0.279118539
0.2791149774
0.27911661
0.2791201618
0.2791267767
0.2791325963
0.2791347848
0.2791322436
0.2791267475
0.2791201524
0.2791167121
)
;
    }
    side-walls
    {
        type            calculated;
        value           nonuniform List<scalar> 
261
(
0.2790927184
0.279092712
0.2790941966
0.2790971747
0.2790986425
0.2790971324
0.279094438
0.279093689
0.2790928854
0.2790934112
0.2790938428
0.2790961854
0.2791002958
0.2791023526
0.2791002729
0.2790964735
0.2790948287
0.2790935891
0.2790944296
0.2790953664
0.2790986569
0.2791038979
0.2791064241
0.2791038714
0.2790989831
0.2790963143
0.2790945637
0.2790957303
0.2790972126
0.2791014832
0.2791077111
0.2791105469
0.2791076601
0.2791018294
0.2790981243
0.2790958851
0.2790973285
0.2790993604
0.2791045334
0.2791114781
0.2791145617
0.2791114334
0.2791048557
0.2791003013
0.27909749
0.2790992146
0.2791017555
0.2791076184
0.2791151084
0.2791182656
0.2791150691
0.279107895
0.2791026006
0.2790993601
0.279101263
0.279104159
0.2791106031
0.2791184201
0.279121609
0.2791183626
0.2791109651
0.2791051057
0.2791014341
0.2791034714
0.2791067175
0.2791134856
0.2791214624
0.2791245657
0.2791213838
0.2791138178
0.2791076293
0.2791036264
0.2791057787
0.2791092413
0.2791162069
0.2791240903
0.2791271336
0.2791241138
0.2791165055
0.2791101086
0.2791059171
0.2791081151
0.2791117377
0.2791187065
0.2791264221
0.2791293484
0.2791265051
0.2791190134
0.2791126014
0.2791082719
0.2791104879
0.2791141063
0.2791209927
0.2791284438
0.2791312171
0.2791285414
0.2791212569
0.2791149857
0.2791106268
0.2791127888
0.2791163508
0.2791230507
0.2791301605
0.279132799
0.2791303082
0.2791233037
0.2791171931
0.2791129086
0.2791149115
0.279118358
0.2791248571
0.2791315977
0.2791341164
0.2791317619
0.2791250918
0.2791192146
0.2791150414
0.27911661
0.2791199238
0.2791261786
0.2791326172
0.2791350491
0.2791328015
0.2791263954
0.2791207972
0.2791167376
0.2790923096
0.2790923506
0.2790930754
0.2790948262
0.2790956622
0.2790943256
0.2790928655
0.2790923808
0.2790920913
0.2790927961
0.2790931083
0.2790945555
0.2790971945
0.2790987136
0.279096753
0.279094326
0.2790931882
0.2790925776
0.2790935027
0.2790942511
0.2790965684
0.2791003124
0.2791024661
0.2790998661
0.2790963702
0.279094344
0.2790932667
0.2790944966
0.2790957957
0.2790990657
0.2791038849
0.2791065536
0.2791034396
0.2790988917
0.279095834
0.2790942452
0.2790958027
0.2790976529
0.2791019258
0.2791076648
0.2791106868
0.2791072425
0.2791017019
0.2790976889
0.2790955515
0.2790974088
0.2790997852
0.2791049481
0.2791114216
0.2791146863
0.2791110176
0.279104722
0.2790998382
0.2790971446
0.2790992685
0.2791021245
0.2791079997
0.2791150206
0.2791183987
0.2791146321
0.2791077722
0.2791021742
0.279098995
0.2791013462
0.2791046467
0.2791110167
0.2791183622
0.2791217133
0.279117997
0.2791107329
0.2791046515
0.2791010573
0.2791035533
0.279107149
0.2791138993
0.2791213597
0.2791246667
0.2791210228
0.2791136366
0.2791071823
0.279103297
0.2791058591
0.2791096317
0.2791166116
0.2791240499
0.2791272292
0.2791236755
0.2791163118
0.2791096939
0.2791056297
0.27910821
0.279112093
0.2791191115
0.2791264075
0.2791294571
0.2791259894
0.2791187948
0.2791121513
0.2791079612
0.27911056
0.279114487
0.2791213278
0.2791284595
0.2791313747
0.279128022
0.2791210698
0.2791145183
0.2791103447
0.2791128518
0.2791167058
0.2791233603
0.2791302236
0.2791329523
0.2791297492
0.2791231543
0.2791167082
0.2791126428
0.2791149774
0.27911873
0.2791251544
0.2791316734
0.2791342331
0.2791311495
0.2791249293
0.2791187239
0.2791147882
0.2791167121
0.2791203198
0.2791264593
0.2791327375
0.2791351505
0.2791322188
0.2791262667
0.2791202991
0.279116466
)
;
    }
    inlet
    {
        type            calculated;
        value           nonuniform 0();
    }
    outlet
    {
        type            calculated;
        value           nonuniform List<scalar> 
81
(
0.27911661
0.2791199238
0.2791261786
0.2791326172
0.2791350491
0.2791328015
0.2791263954
0.2791207972
0.2791167376
0.2791201618
0.2791260388
0.2791334297
0.2791409472
0.2791430255
0.2791409769
0.2791335217
0.2791254506
0.279120346
0.2791267767
0.2791326712
0.2791443935
0.2791536087
0.279158257
0.279154639
0.2791435954
0.2791334108
0.2791268206
0.2791325963
0.2791405019
0.2791545336
0.279166432
0.2791768606
0.2791675293
0.2791533143
0.2791403101
0.2791321561
0.2791347848
0.2791437304
0.2791586879
0.2791768159
0.2818671581
0.2791764212
0.279158259
0.2791441641
0.2791350311
0.2791322436
0.2791409809
0.2791538945
0.279167423
0.2791765615
0.2791673817
0.2791544559
0.2791408318
0.279132673
0.2791267475
0.27913371
0.2791432732
0.2791545027
0.2791581278
0.2791547783
0.2791443772
0.2791324011
0.2791268909
0.2791201524
0.2791253024
0.2791339277
0.279140141
0.2791442223
0.2791408226
0.2791337656
0.2791266752
0.2791204329
0.2791167121
0.2791203198
0.2791264593
0.2791327375
0.2791351505
0.2791322188
0.2791262667
0.2791202991
0.279116466
)
;
    }
    procBoundary1to0
    {
        type            processor;
        value           nonuniform List<scalar> 
97
(
0.2790922638
0.2790922638
0.2790919369
0.2790927293
0.2790947647
0.2790956153
0.2790947235
0.2790929846
0.279092903
0.2790924461
0.2790916936
0.2790939472
0.2790939472
0.2790939472
0.2790956742
0.2790996287
0.2791026641
0.2790996357
0.2790955564
0.279093293
0.2790924139
0.2790925066
0.2790927977
0.2791024251
0.2791024251
0.2791024251
0.2791170119
0.2791425953
0.2791180684
0.2791015127
0.2790955288
0.2790934847
0.2790930522
0.279094841
0.2791024726
0.2791801263
0.2791801263
0.2791801263
0.2793613079
0.2791811474
0.2791168537
0.279098858
0.2790942571
0.2790932641
0.2790965311
0.2791102518
0.2791641494
0.2821619536
0.2821619536
0.2821619536
0.2793607861
0.2793607861
0.2791425296
0.2791038603
0.2790954964
0.2790927043
0.2790951619
0.2791019146
0.2791234228
0.2791637489
0.2791232907
0.2791179917
0.2791179917
0.2791179917
0.2790994096
0.2790946517
0.2790926164
0.2790937429
0.2790952797
0.2791025722
0.2791097428
0.2791025978
0.2790965651
0.279094603
0.279094603
0.279094603
0.2790935098
0.2790917888
0.2790922308
0.2790939788
0.2790944707
0.2790970928
0.2790952004
0.2790938352
0.279093751
0.2790925704
0.2790925704
0.2790925704
0.2790920518
0.279091892
0.2790921634
0.2790932508
0.2790936246
0.2790927595
0.2790919684
0.2790919128
0.2790918435
)
;
    }
}


// ************************************************************************* //
