/*--------------------------------*- C++ -*----------------------------------*\
| =========                 |                                                 |
| \\      /  F ield         | OpenFOAM: The Open Source CFD Toolbox           |
|  \\    /   O peration     | Version:  4.x                                   |
|   \\  /    A nd           | Web:      www.OpenFOAM.org                      |
|    \\/     M anipulation  |                                                 |
\*---------------------------------------------------------------------------*/
FoamFile
{
    version     2.0;
    format      ascii;
    class       volVectorField;
    location    "2000";
    object      U;
}
// * * * * * * * * * * * * * * * * * * * * * * * * * * * * * * * * * * * * * //

dimensions      [0 1 -1 0 0 0 0];

internalField   nonuniform List<vector> 
1174
(
(0.01100028307 -2.343532806e-08 -2.248216642e-08)
(0.011000342 -2.294650463e-08 -2.213565002e-08)
(0.01100040017 -1.794028529e-08 -1.650192025e-08)
(0.01100041395 -1.299781766e-08 -1.223733888e-08)
(0.01100039913 -7.482099776e-09 -7.284542436e-09)
(0.01100035515 -4.092710694e-09 -6.891979601e-09)
(0.01100029024 -3.366013582e-09 -4.20092055e-09)
(0.0110002087 -1.443345426e-09 -1.027736727e-09)
(0.01100011878 8.273421329e-10 1.959614467e-09)
(0.01100002224 -7.591590845e-10 4.663743015e-09)
(0.01099992173 2.306534608e-09 4.032232184e-09)
(0.01099981672 3.489720694e-09 3.698890343e-09)
(0.01099972795 3.869506845e-09 4.92647981e-09)
(0.01099962828 4.118713894e-09 4.615606459e-09)
(0.01100029657 -9.850625337e-08 -2.859856374e-08)
(0.0110003292 -9.026259454e-08 -2.783799799e-08)
(0.01100037007 -7.011978875e-08 -2.037628398e-08)
(0.01100035652 -5.107143246e-08 -1.410548449e-08)
(0.01100030934 -3.353764621e-08 -9.048005844e-09)
(0.01100023116 -2.088549009e-08 -3.844964957e-09)
(0.01100014379 -1.177886671e-08 -8.723362321e-10)
(0.01100004272 -3.500165311e-09 3.164938576e-10)
(0.01099993744 1.857802678e-09 3.065617212e-09)
(0.01099983585 4.610138317e-09 3.759027792e-09)
(0.01099973236 6.524719882e-09 4.131425752e-09)
(0.01099962855 7.32044471e-09 3.958482879e-09)
(0.0109995448 1.276737035e-08 6.40469483e-09)
(0.01099945467 1.375400907e-08 4.606524412e-09)
(0.01100031662 -9.620487725e-08 -5.497587659e-08)
(0.01100030652 -8.991936317e-08 -4.949629638e-08)
(0.01100030777 -6.523813839e-08 -3.292239553e-08)
(0.01100023791 -4.281236104e-08 -1.883536665e-08)
(0.01100013091 -2.640690917e-08 -7.983217306e-09)
(0.0110000057 -1.262589982e-08 -3.410862406e-09)
(0.01099987958 -4.941844363e-09 -9.035144429e-11)
(0.01099975559 7.568326685e-10 2.203373724e-09)
(0.01099963715 7.368618206e-09 4.273186716e-09)
(0.01099952863 8.206279097e-09 5.037691307e-09)
(0.01099943196 9.229753372e-09 4.504945121e-09)
(0.01099933686 1.149116254e-08 4.108933035e-09)
(0.01099926571 1.514911566e-08 6.828698127e-09)
(0.0109991912 1.615008072e-08 5.47984732e-09)
(0.01100034146 -1.463345736e-07 -3.828753502e-08)
(0.01100022179 -1.040811652e-07 -4.765211067e-08)
(0.01100017084 -6.316402845e-08 -2.607833714e-08)
(0.01100003674 -3.373156378e-08 -9.104272252e-09)
(0.01099988623 -1.798537069e-08 -1.504667891e-10)
(0.01099972968 -1.12074652e-08 5.904652643e-09)
(0.01099958102 -2.959121605e-09 8.042163549e-09)
(0.01099944709 7.680275869e-10 8.882930816e-09)
(0.01099932989 1.800650742e-09 7.449252343e-09)
(0.01099922965 5.804256566e-09 8.619897733e-09)
(0.01099914015 6.313372234e-09 7.160728407e-09)
(0.0109990667 7.242615192e-09 6.346596465e-09)
(0.01099900767 1.03314997e-08 9.092396713e-09)
(0.01099895414 9.650289784e-09 7.193485092e-09)
(0.0110004396 -2.166903459e-09 -1.013268812e-07)
(0.0110002292 8.874417221e-11 -6.934381118e-08)
(0.01100012494 6.258398531e-10 -3.311958533e-08)
(0.01099995056 2.053204017e-09 -9.351808537e-09)
(0.01099977043 -6.115453848e-11 1.046961078e-09)
(0.01099959963 -3.024941515e-10 7.428311774e-09)
(0.01099944765 -4.50807159e-10 7.61153212e-09)
(0.01099931373 -3.470186743e-11 7.126467232e-09)
(0.01099919698 -1.237425066e-09 6.144874657e-09)
(0.01099910056 -1.634794678e-09 6.849336362e-09)
(0.01099902227 -2.181878712e-10 5.772424074e-09)
(0.01099895449 1.943170958e-10 4.948548402e-09)
(0.01099890548 5.476134765e-10 7.367461676e-09)
(0.01099885845 -1.765111719e-10 7.330195832e-09)
(0.01100034276 1.469782411e-07 -3.769199184e-08)
(0.011000223 1.043577057e-07 -4.748816873e-08)
(0.01100017054 6.402832166e-08 -2.536246104e-08)
(0.01100003747 3.441490585e-08 -1.066917522e-08)
(0.01099988323 1.90636572e-08 8.357777653e-10)
(0.01099972849 9.560212195e-09 7.608564759e-09)
(0.0109995823 2.086343173e-09 9.499653726e-09)
(0.0109994507 -4.218602896e-10 1.066498597e-08)
(0.01099932892 -3.625220552e-09 1.178220136e-08)
(0.01099922523 -4.932645486e-09 7.49070514e-09)
(0.01099914192 -5.927483066e-09 7.5054979e-09)
(0.01099906628 -5.944430637e-09 7.154689605e-09)
(0.01099900699 -9.311590843e-09 9.620031273e-09)
(0.01099895577 -9.187996344e-09 7.963996217e-09)
(0.01100031929 9.534522273e-08 -5.388446425e-08)
(0.01100030681 9.018151948e-08 -5.023187666e-08)
(0.01100030785 6.715495992e-08 -3.179514701e-08)
(0.01100023434 4.236908538e-08 -1.684301337e-08)
(0.01100012767 2.685819496e-08 -6.101862015e-09)
(0.01100000616 1.347073805e-08 6.994764715e-10)
(0.01099987548 3.52307884e-09 3.183046998e-09)
(0.01099975512 -2.312505408e-09 5.430992602e-09)
(0.01099963675 -3.7556865e-09 8.343035845e-09)
(0.01099952906 -7.109830956e-09 7.479249884e-09)
(0.01099942896 -9.843449206e-09 5.573247438e-09)
(0.01099934009 -1.15607086e-08 6.006442436e-09)
(0.01099926391 -1.651628869e-08 7.299219717e-09)
(0.01099919423 -1.404896346e-08 7.2765365e-09)
(0.01100029625 9.948133992e-08 -2.733532586e-08)
(0.01100032803 9.154697408e-08 -2.892637501e-08)
(0.01100036923 7.066667575e-08 -2.069810247e-08)
(0.01100035178 4.966193496e-08 -1.125954715e-08)
(0.01100030518 3.326448034e-08 -9.176054538e-09)
(0.01100023508 2.168752395e-08 -2.37574431e-09)
(0.01100013956 1.166801967e-08 6.202438385e-10)
(0.0110000434 4.53821692e-09 2.391107377e-09)
(0.01099993819 -2.172561185e-09 4.87761501e-09)
(0.01099983604 -5.336288979e-09 4.362566342e-09)
(0.01099973012 -7.840211266e-09 2.094060947e-09)
(0.01099962882 -9.708387803e-09 5.971305222e-09)
(0.01099954702 -1.441805329e-08 7.472727663e-09)
(0.01099945425 -1.354702997e-08 5.964929517e-09)
(0.01100028134 2.371229169e-08 -2.494546908e-08)
(0.01100034108 2.140104851e-08 -2.453661707e-08)
(0.01100040048 1.733807537e-08 -1.857995931e-08)
(0.01100041162 1.407408932e-08 -1.20701878e-08)
(0.01100039783 9.164285869e-09 -8.469158709e-09)
(0.01100035244 4.585922191e-09 -6.000828013e-09)
(0.01100028703 2.959232569e-09 -2.224891704e-09)
(0.0110002088 7.613632631e-10 -7.302311619e-10)
(0.01100011611 5.586819051e-10 3.752070936e-10)
(0.01100001916 -1.990766721e-09 2.001354346e-09)
(0.01099992029 -1.681183885e-09 2.538065204e-09)
(0.01099981654 -3.678745121e-09 3.371388034e-09)
(0.01099972696 -4.47672698e-09 4.114807607e-09)
(0.01099962959 -6.589429853e-09 5.3554862e-09)
(0.01100010817 -5.828758914e-08 -1.414148974e-07)
(0.01100029585 -2.532527841e-08 -9.998439945e-08)
(0.01100032893 -2.76883438e-08 -9.068088004e-08)
(0.01100037126 -2.066548647e-08 -6.989860274e-08)
(0.01100035387 -1.333639267e-08 -5.021121262e-08)
(0.01100030617 -8.262012379e-09 -3.31812659e-08)
(0.0110002327 -3.15295931e-09 -1.984399631e-08)
(0.01100014115 5.361031668e-10 -1.063208412e-08)
(0.01100004321 2.117147347e-09 -3.33106052e-09)
(0.01099993995 2.666733976e-09 1.984998672e-09)
(0.01099983369 3.722723364e-09 5.654118492e-09)
(0.01099973364 3.372522765e-09 1.009384109e-08)
(0.01099962889 3.857699831e-09 1.149257515e-08)
(0.01099954491 6.910933314e-09 1.44601241e-08)
(0.01099945257 6.6380747e-09 1.419184347e-08)
(0.011000312 -1.317495138e-07 -1.298662185e-07)
(0.01100028104 -1.185414013e-07 -1.193986763e-07)
(0.01100028165 -8.591310457e-08 -8.580229641e-08)
(0.01100021259 -5.559387614e-08 -5.563350976e-08)
(0.01100011719 -3.365456715e-08 -3.249452935e-08)
(0.01100000915 -1.491927449e-08 -1.628007944e-08)
(0.01099989011 -4.11113241e-09 -3.537161969e-09)
(0.01099978099 3.937643344e-09 3.566668499e-09)
(0.01099967229 9.61319911e-09 8.809299425e-09)
(0.01099956955 1.024278838e-08 1.089476569e-08)
(0.01099947655 1.291265385e-08 1.239132167e-08)
(0.01099939056 1.320784263e-08 1.282755442e-08)
(0.0109993195 1.689443822e-08 1.72540654e-08)
(0.01099924594 1.669538811e-08 1.667315183e-08)
(0.01100032728 -1.060274436e-07 -2.52059764e-07)
(0.01100015073 -1.114043485e-07 -2.105418134e-07)
(0.01100006058 -7.214480865e-08 -1.276270238e-07)
(0.01099989312 -3.788635662e-08 -6.719246975e-08)
(0.01099972227 -1.456171588e-08 -3.0882437e-08)
(0.010999565 -9.118362833e-10 -5.371033943e-09)
(0.01099942589 6.452901384e-09 9.087359752e-09)
(0.01099930899 1.228917898e-08 1.429399632e-08)
(0.01099921017 1.322875931e-08 1.73697888e-08)
(0.01099913024 1.336983948e-08 1.759800648e-08)
(0.01099906316 1.189192952e-08 1.734885444e-08)
(0.01099900806 1.359863201e-08 1.698960343e-08)
(0.01099896287 1.904793639e-08 2.050476093e-08)
(0.01099892504 1.790788068e-08 2.051973135e-08)
(0.01100025615 -2.002902778e-07 -2.554231153e-07)
(0.01099979617 -1.309125106e-07 -2.298914083e-07)
(0.01099961084 -6.681027748e-08 -1.186678648e-07)
(0.01099936769 -2.730748244e-08 -4.490814797e-08)
(0.01099916186 -7.383122595e-09 -3.756395435e-09)
(0.01099900355 2.497555922e-09 1.63047303e-08)
(0.01099888244 6.793949315e-09 2.554275583e-08)
(0.01099879557 6.905511171e-09 2.724714534e-08)
(0.01099873561 8.591503997e-09 2.644154455e-08)
(0.01099869212 8.020110128e-09 2.207355482e-08)
(0.01099866601 8.692252451e-09 2.201438263e-08)
(0.01099864856 1.003520713e-08 2.011845519e-08)
(0.01099863876 1.24541101e-08 2.505041317e-08)
(0.01099863178 1.226382207e-08 2.277929687e-08)
(0.01100039356 -2.443826054e-09 -5.076614768e-07)
(0.01099960359 -1.760336223e-09 -3.222812101e-07)
(0.01099933823 -1.527265501e-10 -1.385356102e-07)
(0.01099906456 3.620216922e-10 -4.03443382e-08)
(0.01099885969 1.680928828e-10 1.257051071e-09)
(0.01099871922 4.013734604e-10 2.148785145e-08)
(0.01099862232 3.887751612e-10 2.694343522e-08)
(0.01099856485 1.155692278e-10 2.612586257e-08)
(0.01099852505 5.559331365e-10 2.466050261e-08)
(0.01099850752 -2.231542998e-10 2.206591262e-08)
(0.01099849691 3.152512834e-10 2.094308757e-08)
(0.01099849968 -6.926895809e-10 1.961940081e-08)
(0.01099850566 2.472701552e-10 2.51056175e-08)
(0.01099851312 -4.746259379e-10 2.387890519e-08)
(0.01100025179 1.988447359e-07 -2.553824986e-07)
(0.01099979797 1.293967565e-07 -2.315013364e-07)
(0.01099961152 6.596690441e-08 -1.189787922e-07)
(0.01099936849 2.656454407e-08 -4.411572309e-08)
(0.01099916371 8.771026817e-09 -4.55909552e-09)
(0.0109990032 -6.197758238e-10 1.738131405e-08)
(0.01099888062 -6.293313248e-09 2.600113994e-08)
(0.01099879576 -7.585803482e-09 2.729648305e-08)
(0.01099873221 -7.857899622e-09 2.553739075e-08)
(0.01099869055 -7.681263358e-09 2.350148916e-08)
(0.01099866473 -9.456066112e-09 2.336448677e-08)
(0.01099864616 -9.594015527e-09 2.057081133e-08)
(0.01099863756 -1.219368273e-08 2.444143138e-08)
(0.01099863077 -1.232942049e-08 2.298853687e-08)
(0.01100032313 1.08537651e-07 -2.504571791e-07)
(0.01100015443 1.128075647e-07 -2.10846833e-07)
(0.01100006221 7.398715146e-08 -1.288374381e-07)
(0.01099989634 3.964234666e-08 -6.913617698e-08)
(0.01099972084 1.724728204e-08 -3.108531717e-08)
(0.01099956371 -1.006476119e-10 -5.642231621e-09)
(0.01099942137 -7.431246296e-09 9.918479278e-09)
(0.01099930951 -1.017482657e-08 1.622281591e-08)
(0.01099920798 -1.30232401e-08 1.631621414e-08)
(0.01099912951 -1.388068111e-08 1.734845509e-08)
(0.01099906489 -1.570509768e-08 1.772592119e-08)
(0.01099900651 -1.371459009e-08 1.735823503e-08)
(0.01099896429 -1.965967717e-08 2.19838045e-08)
(0.0109989215 -1.648858725e-08 2.037802519e-08)
(0.01100031213 1.297975691e-07 -1.318720035e-07)
(0.01100028132 1.210255397e-07 -1.206427441e-07)
(0.0110002823 8.508524729e-08 -8.768316527e-08)
(0.01100021127 5.703063031e-08 -5.570086687e-08)
(0.01100011555 3.316340728e-08 -3.120035458e-08)
(0.01100000496 1.601335262e-08 -1.528518971e-08)
(0.01099988968 2.491406702e-09 -3.908621945e-09)
(0.01099977943 -5.034157235e-09 3.773336028e-09)
(0.01099966825 -9.138964878e-09 1.018665579e-08)
(0.01099956825 -1.135551274e-08 9.4859659e-09)
(0.0109994787 -1.176378145e-08 1.269189911e-08)
(0.01099939128 -1.25874819e-08 1.387601789e-08)
(0.01099931838 -1.799553117e-08 1.752324882e-08)
(0.01099924447 -1.645446954e-08 1.549315937e-08)
(0.01100029604 2.681260838e-08 -9.921104897e-08)
(0.01100032758 2.660151901e-08 -9.170338932e-08)
(0.0110003715 2.035011309e-08 -7.064191026e-08)
(0.0110003539 1.322829889e-08 -4.990642197e-08)
(0.01100030746 8.697802621e-09 -3.376467682e-08)
(0.01100023089 4.415580911e-09 -2.025647864e-08)
(0.01100013859 1.617322249e-09 -1.064127573e-08)
(0.01100004209 -1.540210147e-09 -4.209479087e-09)
(0.01099993646 -2.565578979e-09 1.128540168e-09)
(0.01099983113 -3.18710942e-09 4.074235298e-09)
(0.01099973216 -2.33985177e-09 7.155474468e-09)
(0.01099962948 -4.886125588e-09 9.36829716e-09)
(0.01099954589 -5.966283923e-09 1.315775057e-08)
(0.01099945865 -6.685533269e-09 1.25744225e-08)
(0.01100005584 -1.205692103e-07 -1.795416364e-07)
(0.01100031964 -4.994191696e-08 -9.528966682e-08)
(0.01100030794 -4.887577199e-08 -9.04647646e-08)
(0.01100030824 -2.910203983e-08 -6.48150158e-08)
(0.01100023354 -1.597550957e-08 -4.174374883e-08)
(0.01100012746 -8.056880075e-09 -2.51167421e-08)
(0.01100000711 2.526655053e-09 -1.169465804e-08)
(0.01099987932 5.691941998e-09 -1.672383533e-09)
(0.01099975553 6.429147616e-09 3.89938645e-09)
(0.01099963655 7.566657694e-09 8.499827579e-09)
(0.01099952758 7.031409036e-09 9.257942405e-09)
(0.0109994298 7.854563948e-09 9.482996458e-09)
(0.01099933821 7.42838119e-09 1.290917046e-08)
(0.01099926331 9.344936897e-09 1.659126223e-08)
(0.01099918744 9.823507823e-09 1.640776005e-08)
(0.01099999371 -4.879078601e-07 -3.017438632e-07)
(0.01100032396 -2.51982532e-07 -1.083149203e-07)
(0.01100014927 -2.098974334e-07 -1.126491732e-07)
(0.01100006151 -1.288511163e-07 -7.155460057e-08)
(0.01099989298 -6.813975443e-08 -3.828057423e-08)
(0.01099972318 -3.058906816e-08 -1.472374797e-08)
(0.01099956385 -5.564807724e-09 -1.098556253e-09)
(0.01099942416 7.447968377e-09 8.979913644e-09)
(0.01099930981 1.369526167e-08 1.442278659e-08)
(0.01099921352 1.735240731e-08 1.661234516e-08)
(0.01099912878 1.786440932e-08 1.325699538e-08)
(0.01099906491 1.696752328e-08 1.369156559e-08)
(0.01099900991 1.725809711e-08 1.583698364e-08)
(0.01099896406 2.28428397e-08 1.963817185e-08)
(0.01099892612 2.21070594e-08 1.796590847e-08)
(0.01100023269 -2.241683233e-07 -2.283175852e-07)
(0.01099967449 -2.055393183e-07 -2.07677408e-07)
(0.01099938612 -9.906542459e-08 -1.015897732e-07)
(0.0109990616 -3.100761922e-08 -3.140960614e-08)
(0.01099881988 1.530676148e-09 3.391762182e-09)
(0.01099865414 1.96941719e-08 2.005644233e-08)
(0.01099854919 2.426978525e-08 2.583256991e-08)
(0.01099849292 2.6001652e-08 2.490141148e-08)
(0.01099846423 2.281351003e-08 2.191415905e-08)
(0.01099845558 2.049057598e-08 1.935528058e-08)
(0.010998462 1.985826562e-08 1.778971662e-08)
(0.01099847335 1.774670067e-08 1.792763636e-08)
(0.01099849139 2.266081257e-08 2.222920381e-08)
(0.01099850946 2.300849037e-08 2.143485524e-08)
(0.01099961262 -4.212977259e-07 -3.142020429e-09)
(0.01099833988 -2.281250676e-07 -1.798702586e-07)
(0.01099796408 -8.029433021e-08 -3.758298746e-08)
(0.01099764125 -8.91522342e-09 3.860176478e-08)
(0.01099748961 1.260841878e-08 5.348217982e-08)
(0.01099746448 1.902000274e-08 5.506709033e-08)
(0.01099750351 1.798712823e-08 4.744352055e-08)
(0.01099758271 1.566995676e-08 3.786479124e-08)
(0.01099767419 1.254640122e-08 3.062844155e-08)
(0.01099777794 9.650922759e-09 2.255604241e-08)
(0.01099787463 1.098437903e-08 1.866158398e-08)
(0.01099796828 1.143910846e-08 1.717855297e-08)
(0.01099805105 1.5024473e-08 2.379329301e-08)
(0.01099812856 1.460452498e-08 2.466888388e-08)
(0.01099936607 -1.362444673e-09 1.072216131e-07)
(0.01099716042 -1.486268982e-09 -1.749965048e-07)
(0.01099683616 -6.950594659e-11 -1.270999156e-08)
(0.01099666885 -4.197257158e-10 6.554038227e-08)
(0.01099668635 1.159517054e-09 6.412772939e-08)
(0.01099681837 -2.667841877e-10 5.520059104e-08)
(0.01099698113 4.440535217e-10 4.217506393e-08)
(0.01099715549 3.018188718e-10 3.210430756e-08)
(0.01099732846 -5.089112956e-10 2.488097961e-08)
(0.01099748555 7.227535688e-10 1.850329799e-08)
(0.01099762662 2.963812118e-11 1.642483127e-08)
(0.01099776163 1.250472395e-09 1.545528144e-08)
(0.01099787174 9.715801357e-10 2.279101796e-08)
(0.01099797802 1.409500933e-10 2.253933728e-08)
(0.01099961268 4.194827439e-07 -4.798760781e-09)
(0.01099834052 2.269965184e-07 -1.809335775e-07)
(0.0109979646 8.055686317e-08 -3.887979371e-08)
(0.01099763993 9.761854265e-09 3.659727099e-08)
(0.01099748944 -1.172133765e-08 5.368851489e-08)
(0.01099746486 -1.915123618e-08 5.468590894e-08)
(0.01099750232 -1.742979093e-08 4.873806783e-08)
(0.0109975838 -1.62954418e-08 3.802808179e-08)
(0.01099767714 -1.363107362e-08 2.923659573e-08)
(0.01099777489 -1.159608989e-08 2.429650521e-08)
(0.01099787501 -1.123185198e-08 1.810935576e-08)
(0.01099796672 -1.169757132e-08 1.776895848e-08)
(0.01099805161 -1.513438503e-08 2.321716238e-08)
(0.01099812843 -1.417085934e-08 2.584382935e-08)
(0.01100023118 2.270479527e-07 -2.279655279e-07)
(0.01099967721 2.085491448e-07 -2.049635664e-07)
(0.01099938459 1.012711286e-07 -9.784020256e-08)
(0.01099906032 3.143087666e-08 -3.088338151e-08)
(0.01099881932 -7.928323398e-10 2.89666539e-09)
(0.01099865546 -1.930791447e-08 1.923592053e-08)
(0.01099855059 -2.515600353e-08 2.559938254e-08)
(0.01099849288 -2.548961134e-08 2.496247286e-08)
(0.01099846123 -2.254139501e-08 2.300579954e-08)
(0.01099845592 -1.963694862e-08 1.917921582e-08)
(0.01099846261 -1.984016795e-08 1.945817636e-08)
(0.01099847392 -1.625984617e-08 1.721822149e-08)
(0.01099849031 -2.323116298e-08 2.398776329e-08)
(0.01099850464 -2.218420112e-08 2.211017138e-08)
(0.01100032558 2.514247343e-07 -1.086824076e-07)
(0.01100015326 2.090021476e-07 -1.13616397e-07)
(0.0110000628 1.262561499e-07 -7.376613786e-08)
(0.01099989183 6.848767097e-08 -3.777328925e-08)
(0.01099972136 3.047189005e-08 -1.468413762e-08)
(0.01099956236 5.77952442e-09 -1.677439359e-09)
(0.01099942164 -9.108507978e-09 7.84213946e-09)
(0.01099930875 -1.60184546e-08 1.073867527e-08)
(0.01099920903 -1.725858423e-08 1.107079117e-08)
(0.01099913022 -1.915896463e-08 1.329344818e-08)
(0.01099906642 -1.801487858e-08 1.735698907e-08)
(0.01099900493 -1.795320302e-08 1.340395922e-08)
(0.01099896517 -2.250660004e-08 2.079802015e-08)
(0.01099892111 -2.10527477e-08 1.671137754e-08)
(0.01100032102 5.235116141e-08 -9.4560204e-08)
(0.0110003068 4.888312077e-08 -8.986769326e-08)
(0.01100031087 3.202670568e-08 -6.510870209e-08)
(0.01100023337 1.71993969e-08 -4.355592263e-08)
(0.01100012927 5.727347879e-09 -2.678721123e-08)
(0.01100000631 1.921698986e-10 -1.41488048e-08)
(0.01099987684 -2.873511674e-09 -3.800052112e-09)
(0.01099975466 -5.785601396e-09 1.399827177e-09)
(0.01099963671 -7.556608467e-09 4.163847976e-09)
(0.01099952777 -7.057925327e-09 7.684740878e-09)
(0.01099943063 -7.372504149e-09 8.133635378e-09)
(0.01099933926 -6.547479578e-09 1.145158107e-08)
(0.01099926637 -9.187253841e-09 1.660156241e-08)
(0.01099919067 -7.727596195e-09 1.655141665e-08)
(0.01100003633 -1.759902228e-07 -2.887586862e-07)
(0.01100034221 -3.671627106e-08 -1.488708075e-07)
(0.01100022317 -4.652875699e-08 -1.036144599e-07)
(0.01100016931 -2.509906505e-08 -6.347119837e-08)
(0.01100003491 -7.03755402e-09 -3.693563684e-08)
(0.01099988581 3.905360781e-09 -1.774218553e-08)
(0.01099973118 8.993762105e-09 -6.877287536e-09)
(0.01099958064 9.596669865e-09 -1.918190977e-09)
(0.01099945049 1.049665579e-08 2.643485764e-09)
(0.01099932806 9.750650607e-09 4.394571922e-09)
(0.01099922755 7.324737064e-09 6.392202168e-09)
(0.01099914202 7.132641047e-09 9.274243714e-09)
(0.01099906866 7.456074259e-09 8.714999013e-09)
(0.010999005 7.310597681e-09 9.511089608e-09)
(0.01099895002 9.517881803e-09 1.151703999e-08)
(0.01099994294 -7.836853457e-07 -6.08237086e-07)
(0.01100025489 -2.548017692e-07 -2.019062175e-07)
(0.01099979674 -2.307020842e-07 -1.321722989e-07)
(0.0109996087 -1.175779403e-07 -6.863873263e-08)
(0.01099936622 -4.317596384e-08 -2.739513807e-08)
(0.0109991618 -3.803496377e-09 -8.785207539e-09)
(0.01099900424 1.729963715e-08 2.3731828e-09)
(0.01099888591 2.488780242e-08 6.864215558e-09)
(0.01099879606 2.599614042e-08 9.950209282e-09)
(0.01099873451 2.555336644e-08 1.001207663e-08)
(0.01099869159 2.353319613e-08 1.060306725e-08)
(0.01099866384 2.087758826e-08 1.141651482e-08)
(0.01099864806 1.88691698e-08 1.119899283e-08)
(0.0109986373 2.483857575e-08 1.189253043e-08)
(0.01099863212 2.336550215e-08 1.242178602e-08)
(0.0109993445 -1.176690382e-06 -1.771510369e-06)
(0.01099961362 -3.771479737e-09 -4.229705757e-07)
(0.01099833855 -1.772145598e-07 -2.298760743e-07)
(0.01099796336 -3.739260869e-08 -8.178743571e-08)
(0.01099764031 3.862777031e-08 -9.972665239e-09)
(0.01099749021 5.286336329e-08 1.275199339e-08)
(0.01099746433 5.420803194e-08 2.01301468e-08)
(0.01099750449 4.701271838e-08 1.944784691e-08)
(0.01099758233 3.682959508e-08 1.6209167e-08)
(0.0109976763 2.85164766e-08 1.518456264e-08)
(0.01099777724 2.309203814e-08 9.479817802e-09)
(0.0109978728 2.025052014e-08 1.182734565e-08)
(0.0109979682 1.542017982e-08 9.66403298e-09)
(0.01099805006 2.436781292e-08 1.56223957e-08)
(0.01099812813 2.51975267e-08 1.481178872e-08)
(0.01099628015 1.326550596e-07 1.296995725e-07)
(0.0109940002 -9.680078587e-08 -9.737214537e-08)
(0.01099428764 2.079102477e-08 2.056016982e-08)
(0.0109945076 6.838714943e-08 7.067588353e-08)
(0.01099490623 5.610608404e-08 5.55311799e-08)
(0.01099537172 3.912723929e-08 4.05268305e-08)
(0.01099580616 2.568143466e-08 2.82169632e-08)
(0.01099620321 1.709991346e-08 1.837175003e-08)
(0.01099654328 1.044434981e-08 1.188277986e-08)
(0.01099684584 7.177000895e-09 9.395895239e-09)
(0.01099709674 6.503933936e-09 9.071305453e-09)
(0.01099732222 8.906421387e-09 8.923654517e-09)
(0.01099750321 1.481837675e-08 1.514105547e-08)
(0.0109976691 1.613329109e-08 1.498747945e-08)
(0.01099170417 -1.691581352e-09 1.19064109e-06)
(0.01098835425 -2.076606061e-09 1.72540051e-07)
(0.01099061687 -3.183652352e-09 4.269154046e-08)
(0.0109920305 -5.806139837e-10 7.477551948e-08)
(0.01099319079 2.113577485e-10 3.539629277e-08)
(0.01099416274 4.132021199e-10 1.420253846e-08)
(0.01099492776 3.056888847e-10 6.116100605e-09)
(0.01099554276 -8.157602703e-10 3.340174517e-09)
(0.01099603547 -2.931653221e-10 2.616769319e-09)
(0.01099643773 -8.8508061e-10 2.174628351e-09)
(0.01099676999 -1.721089684e-10 5.098653926e-09)
(0.01099705205 -5.258100671e-10 5.053616167e-09)
(0.01099728105 -4.687610891e-10 1.378273935e-08)
(0.01099749004 -4.36414166e-11 9.114309051e-09)
(0.01099628047 -1.339147158e-07 1.321553481e-07)
(0.01099400323 9.589486617e-08 -9.65036408e-08)
(0.01099429078 -1.766710146e-08 1.989568623e-08)
(0.01099450835 -6.916875522e-08 7.075893238e-08)
(0.01099490603 -5.615017185e-08 5.712860311e-08)
(0.01099537038 -4.04392346e-08 4.005642162e-08)
(0.01099580727 -2.683440913e-08 2.726260393e-08)
(0.01099620231 -1.7253063e-08 1.791387341e-08)
(0.01099654664 -1.199362353e-08 1.273086298e-08)
(0.01099684617 -9.882664346e-09 6.678239952e-09)
(0.01099709649 -8.516395644e-09 8.8849098e-09)
(0.01099732312 -9.543389361e-09 7.432391557e-09)
(0.01099750406 -1.556573443e-08 1.665389412e-08)
(0.01099767155 -1.530540026e-08 1.669438012e-08)
(0.01099961221 3.875631831e-09 -4.200677636e-07)
(0.01099833997 1.787312584e-07 -2.308067443e-07)
(0.01099796131 3.808580928e-08 -8.329865936e-08)
(0.0109976399 -3.628816736e-08 -1.068937897e-08)
(0.01099749072 -5.222090417e-08 1.161184539e-08)
(0.01099746272 -5.651565611e-08 1.734127413e-08)
(0.01099750444 -4.770868905e-08 1.909515468e-08)
(0.01099758155 -3.869382409e-08 1.648982258e-08)
(0.01099767604 -2.940771983e-08 1.419717676e-08)
(0.01099777791 -2.241510784e-08 1.045329677e-08)
(0.01099786976 -1.907582271e-08 1.089233111e-08)
(0.01099797208 -1.63002023e-08 1.073209329e-08)
(0.01099804827 -2.423186261e-08 1.448949101e-08)
(0.01099813187 -2.728664554e-08 1.342782221e-08)
(0.01100025341 2.558307779e-07 -2.0093671e-07)
(0.01099979765 2.302712436e-07 -1.319249055e-07)
(0.01099961331 1.176476145e-07 -6.750142322e-08)
(0.01099936667 4.358732573e-08 -2.722902165e-08)
(0.01099916144 4.124606669e-09 -9.103458275e-09)
(0.01099899932 -1.653063306e-08 2.06606108e-09)
(0.01099888286 -2.50716625e-08 8.368354555e-09)
(0.01099879751 -2.664880825e-08 1.017673139e-08)
(0.01099873364 -2.732046504e-08 9.409447489e-09)
(0.01099869264 -2.287720377e-08 8.693540459e-09)
(0.01099866317 -2.152467456e-08 8.753499508e-09)
(0.01099864762 -2.097656189e-08 9.561697305e-09)
(0.01099863658 -2.458993417e-08 1.20418594e-08)
(0.01099863098 -2.203682334e-08 1.18767823e-08)
(0.01100034127 4.081587798e-08 -1.459315343e-07)
(0.01100022131 4.890222032e-08 -1.046996026e-07)
(0.01100017053 2.503654761e-08 -6.42764812e-08)
(0.01100003722 8.622373333e-09 -3.607656421e-08)
(0.01099988502 -1.513808046e-09 -1.951851415e-08)
(0.01099972981 -6.023128397e-09 -8.987250762e-09)
(0.01099958132 -9.63540719e-09 -1.47373867e-09)
(0.01099944821 -9.142145717e-09 3.191275866e-09)
(0.01099932988 -9.450560126e-09 4.126817361e-09)
(0.01099922627 -7.766986983e-09 5.61420577e-09)
(0.01099914099 -9.987234096e-09 6.696656765e-09)
(0.01099906683 -6.356953481e-09 7.080712898e-09)
(0.01099900718 -9.122531773e-09 9.581214085e-09)
(0.01099895154 -7.052732026e-09 8.937981286e-09)
(0.01099993431 -4.267400413e-07 -3.196408775e-10)
(0.01100043867 -9.435481802e-08 8.858765356e-10)
(0.01100022769 -6.947646856e-08 -2.569450021e-09)
(0.01100012518 -2.890251274e-08 1.901083916e-10)
(0.01099994945 -5.162326402e-09 3.002618375e-09)
(0.01099977184 7.624206027e-09 2.336649111e-10)
(0.01099960149 1.018454878e-08 1.51679102e-09)
(0.01099944749 1.199239421e-08 1.894480963e-09)
(0.0109993134 1.220655568e-08 1.900515901e-10)
(0.01099919846 1.247914376e-08 5.007999933e-10)
(0.01099910205 8.695351324e-09 2.975272287e-09)
(0.01099902183 1.01126432e-08 2.052083724e-09)
(0.01099895521 1.051219638e-08 3.952644712e-10)
(0.01099890263 1.100321222e-08 4.034889142e-10)
(0.01099885828 9.752854826e-09 9.734446517e-10)
(0.01099968691 -1.943243724e-06 -2.179030389e-09)
(0.01100039291 -5.053138892e-07 -1.614720358e-09)
(0.01099960645 -3.221308739e-07 -2.747679898e-09)
(0.01099933989 -1.383400114e-07 1.214749764e-10)
(0.0109990655 -3.960702694e-08 3.785002532e-09)
(0.0109988586 1.739068289e-09 2.638884334e-09)
(0.01099872213 2.055250478e-08 4.376948763e-10)
(0.01099862614 2.617815023e-08 1.230265962e-09)
(0.01099856321 2.438807341e-08 -4.601934167e-10)
(0.01099852754 2.402474558e-08 5.095578395e-10)
(0.01099850727 1.936148212e-08 3.278514085e-09)
(0.01099849633 1.925524682e-08 2.534955938e-09)
(0.01099849861 1.769946923e-08 2.124064361e-09)
(0.01099850462 2.468826766e-08 1.602122646e-09)
(0.01099851462 2.388490417e-08 5.958774424e-10)
(0.01099797016 -4.061765921e-06 -5.719940617e-10)
(0.01099936719 1.096181565e-07 -7.678245963e-10)
(0.01099715737 -1.704599947e-07 -4.699586849e-10)
(0.01099683556 -1.181438043e-08 1.563830468e-09)
(0.0109966683 6.715789126e-08 1.287027959e-09)
(0.01099668652 6.525993475e-08 2.456801818e-09)
(0.01099681765 5.411076453e-08 2.370817738e-10)
(0.01099697946 4.174291791e-08 4.293878042e-10)
(0.01099715528 3.042523833e-08 6.843929825e-10)
(0.0109973236 2.278430985e-08 -4.482501516e-10)
(0.01099748537 1.75554587e-08 1.08009129e-09)
(0.01099762848 1.451409395e-08 1.405933171e-09)
(0.01099776222 1.467389357e-08 2.895532952e-09)
(0.01099787109 2.467136455e-08 2.499706276e-09)
(0.01099797452 2.445250803e-08 -7.036260496e-10)
(0.01098831469 -1.87504683e-05 1.275113199e-09)
(0.01099170196 1.189026949e-06 -7.209276931e-10)
(0.01098835518 1.724491134e-07 -1.150565126e-09)
(0.0109906146 4.341946214e-08 -7.406749703e-10)
(0.01099202813 7.336172153e-08 6.384995217e-10)
(0.01099318732 3.47454196e-08 2.748684826e-09)
(0.01099416154 1.392293837e-08 -2.542927313e-10)
(0.01099492914 4.245504783e-09 3.839450014e-10)
(0.01099554055 2.674969451e-09 -4.950407882e-11)
(0.01099603745 6.481302628e-10 -8.043654209e-10)
(0.01099643817 1.067168698e-09 -3.575676489e-11)
(0.01099677088 4.392614118e-09 1.517191755e-09)
(0.01099705351 4.663393311e-09 1.084666477e-09)
(0.01099727967 1.39164051e-08 9.512411454e-10)
(0.01099748965 7.78796578e-09 1.182703847e-09)
(0.01097800627 -6.204215052e-10 -5.98237588e-10)
(0.01097292533 -1.054694858e-09 4.254474108e-10)
(0.0109830204 -1.532003205e-09 5.364112855e-10)
(0.01098791281 -6.857351287e-10 1.215434228e-10)
(0.01099069977 -8.050423646e-10 2.00646455e-09)
(0.01099256782 -2.765278121e-10 -6.624778892e-10)
(0.01099384264 -4.49723154e-11 2.254499831e-09)
(0.01099475878 8.031232067e-10 2.609094486e-10)
(0.01099544488 6.664994968e-10 1.528512503e-09)
(0.01099598126 -6.368530033e-10 1.182095913e-09)
(0.01099640524 -1.703218624e-09 1.315924912e-10)
(0.01099675796 -3.995665114e-10 6.066719959e-10)
(0.01099702609 -7.188278353e-10 1.965076824e-09)
(0.01099730565 1.728091345e-10 8.594359e-10)
(0.01099170209 -1.191421205e-06 -3.241576859e-10)
(0.01098835491 -1.747568409e-07 7.174515419e-10)
(0.01099061661 -4.545439183e-08 -2.268393778e-10)
(0.01099202903 -7.56815709e-08 -4.009070313e-10)
(0.01099318951 -3.667773439e-08 4.816344132e-10)
(0.01099416078 -1.544611782e-08 1.028692281e-09)
(0.01099492754 -5.575341599e-09 1.236410243e-09)
(0.01099554114 -3.004329075e-09 1.154822821e-09)
(0.0109960358 -3.324011648e-09 9.793333034e-10)
(0.01099643994 -2.180641701e-09 9.253084342e-10)
(0.0109967673 -4.310030326e-09 -9.76966449e-10)
(0.01099705307 -5.140228869e-09 1.793364593e-09)
(0.01099727953 -1.445416266e-08 9.092606124e-10)
(0.01099748902 -8.745232e-09 -7.237024495e-10)
(0.01099936262 -1.112430542e-07 -1.168790424e-09)
(0.0109971558 1.716821368e-07 -1.262401787e-10)