/*--------------------------------*- C++ -*----------------------------------*\
| =========                 |                                                 |
| \\      /  F ield         | OpenFOAM: The Open Source CFD Toolbox           |
|  \\    /   O peration     | Version:  4.x                                   |
|   \\  /    A nd           | Web:      www.OpenFOAM.org                      |
|    \\/     M anipulation  |                                                 |
\*---------------------------------------------------------------------------*/
FoamFile
{
    version     2.0;
    format      ascii;
    class       volScalarField;
    location    "2000";
    object      X_CO2;
}
// * * * * * * * * * * * * * * * * * * * * * * * * * * * * * * * * * * * * * //

dimensions      [0 0 0 0 0 0 0];

internalField   nonuniform List<scalar> 
1174
(
5.973921378e-06
1.043465767e-05
1.673701752e-05
2.496238055e-05
3.50259562e-05
4.670831677e-05
5.970085471e-05
7.365176325e-05
8.820403188e-05
0.0001030206123
0.0001177894508
0.0001321772417
0.0001455922614
0.0001561419609
1.015904306e-05
1.730981872e-05
2.683751234e-05
3.852480804e-05
5.197229327e-05
6.669445553e-05
8.219771153e-05
9.803202286e-05
0.0001138173574
0.0001292503076
0.0001440906606
0.000158104971
0.0001708428738
0.000180684897
1.940379997e-05
3.204488633e-05
4.769514266e-05
6.547716701e-05
8.443976912e-05
0.0001037275795
0.0001226622263
0.0001407597381
0.0001577115976
0.0001733491483
0.0001875993693
0.0002004164163
0.0002115903673
0.0002199691804
3.295039711e-05
5.25908656e-05
7.51538316e-05
9.89948713e-05
0.0001227416322
0.0001454065528
0.0001663706974
0.0001853138108
0.0002021328134
0.0002168687448
0.0002296445053
0.0002405994058
0.0002497437557
0.0002563777873
4.262575507e-05
6.61102696e-05
9.174800686e-05
0.0001177384076
0.0001427765808
0.0001660270607
0.000187033182
0.0002056167707
0.0002217893998
0.0002356813894
0.0002474855743
0.0002574013166
0.0002655140197
0.0002713049311
3.294982446e-05
5.259002546e-05
7.515265743e-05
9.899328895e-05
0.0001227395787
0.0001454039883
0.0001663675767
0.0001853101067
0.000202128616
0.0002168640368
0.0002296393121
0.0002405937804
0.0002497377212
0.0002563713426
1.940300507e-05
3.204382849e-05
4.769373455e-05
6.547526873e-05
8.44372289e-05
0.0001037242465
0.0001226580267
0.0001407545857
0.0001577054647
0.0001733420597
0.0001875913291
0.0002004074883
0.0002115805733
0.0002199586369
1.015832264e-05
1.730897073e-05
2.683643748e-05
3.852334643e-05
5.197026518e-05
6.669164627e-05
8.219398392e-05
9.802721244e-05
0.000113811344
0.0001292430455
0.000144082139
0.0001580951555
0.0001708318174
0.0001806727235
5.973408998e-06
1.043414263e-05
1.673638687e-05
2.496148253e-05
3.502460569e-05
4.670629841e-05
5.96979617e-05
7.364778953e-05
8.819879261e-05
0.0001030139852
0.0001177813095
0.0001321675249
0.0001455809308
0.0001561289622
5.332900091e-06
1.015849019e-05
1.730928593e-05
2.683697367e-05
3.85242627e-05
5.197173918e-05
6.669388546e-05
8.219714387e-05
9.803144281e-05
0.0001138167723
0.0001292497039
0.0001440900873
0.0001581044067
0.0001708423
0.0001806843554
1.959466318e-05
3.21516633e-05
4.747296873e-05
6.464251404e-05
8.273895662e-05
0.0001009851533
0.000118801602
0.0001358004423
0.000151751597
0.000166540836
0.0001801248928
0.0001924654428
0.000203339727
0.000211566276
4.333477668e-05
6.773572112e-05
9.427719698e-05
0.000120719208
0.0001455246855
0.0001678531459
0.0001873967684
0.0002041923012
0.000218466291
0.0002305265482
0.0002406918911
0.0002492369723
0.0002562848936
0.0002613694898
8.552848105e-05
0.0001261101296
0.0001647369136
0.0001985222356
0.0002264523839
0.0002486522282
0.0002658006746
0.0002787607921
0.0002883814663
0.000295409181
0.0003004609006
0.000304026412
0.0003064711265
0.0003079685342
0.000125350704
0.0001741897237
0.0002156248019
0.0002485578756
0.0002736247839
0.0002920796322
0.0003052615785
0.0003143743499
0.0003204181908
0.0003241900402
0.0003263098407
0.000327258435
0.0003274291496
0.0003272216219
8.552613243e-05
0.0001261072765
0.0001647334782
0.0001985181651
0.0002264476101
0.0002486468
0.0002657946523
0.0002787542381
0.000288374459
0.0002954017793
0.000300453212
0.0003040184117
0.0003064629042
0.0003079600646
4.333226794e-05
6.773300251e-05
9.427398616e-05
0.0001207151847
0.000145519596
0.0001678468734
0.0001873892932
0.0002041836608
0.0002184565602
0.0002305158226
0.0002406802678
0.0002492246128
0.0002562718284
0.0002613557559
1.959312026e-05
3.215022744e-05
4.747122946e-05
6.464009058e-05
8.273553725e-05
0.0001009804975
0.0001187955764
0.0001357929684
0.0001517426474
0.0001665303976
0.0001801130661
0.0001924522857
0.0002033253044
0.0002115507322
1.01583914e-05
1.730899141e-05
2.683633973e-05
3.852305204e-05
5.196967738e-05
6.669070332e-05
8.219261788e-05
9.802537888e-05
0.0001138090361
0.0001292402152
0.0001440787769
0.0001580913244
0.0001708274452
0.0001806676568
1.031824597e-05
1.940243678e-05
3.204341563e-05
4.769359666e-05
6.547556495e-05
8.443812458e-05
0.0001037259033
0.0001226605519
0.000140758062
0.00015770993
0.0001733474991
0.0001875977532
0.0002004148298
0.0002115888237
0.0002199677039
2.36416409e-05
4.333296868e-05
6.773413673e-05
9.42757428e-05
0.0001207178297
0.0001455233665
0.0001678518572
0.0001873955047
0.0002041910771
0.0002184650945
0.0002305253906
0.000240690769
0.0002492358853
0.0002562838061
0.0002613684526
0.0001134652847
0.000164951657
0.0002116248628
0.0002499529127
0.0002791966228
0.0003001819228
0.0003143774153
0.0003233484507
0.0003284926151
0.0003309477017
0.0003315897537
0.0003310769033
0.0003299322766
0.0003287385247
0.0002694562812
0.0003564714585
0.0004166206573
0.0004522763153
0.0004691936592
0.0004731928715
0.0004689794953
0.0004599683647
0.0004484792134
0.0004360141062
0.0004235123669
0.0004115767761
0.0004007763724
0.0003925038605
0.0004738362612
0.0005605606097
0.0005980627652
0.0006049880538
0.0005946943186
0.0005756121763
0.0005527493892
0.0005289616898
0.0005058108215
0.0004840996226
0.0004642029677
0.0004463064744
0.0004307441924
0.0004191074671
0.0002694453938
0.0003564609827
0.0004166099491
0.0004522650554
0.0004691817478
0.0004731805394
0.0004689668786
0.0004599556507
0.0004484665144
0.0004360015703
0.0004235000304
0.0004115646678
0.0004007644126
0.0003924919677
0.0001134574806
0.0001649449128
0.0002116173116
0.0002499437065
0.000279185429
0.0003001688405
0.0003143627931
0.0003233326104
0.0003284758158
0.0003309301725
0.0003315717363
0.0003310584997
0.0003299136048
0.0003287195221
4.333243247e-05
6.773273042e-05
9.427300254e-05
0.0001207133272
0.0001455167719
0.0001678430721
0.0001873846202
0.0002041781837
0.0002184504024
0.0002305090471
0.0002406730225
0.0002492169155
0.000256263753
0.0002613473578
1.940317661e-05
3.204371556e-05
4.769304896e-05
6.547374765e-05
8.443464058e-05
0.0001037204559
0.0001226529375
0.0001407482017
0.0001576978111
0.0001733331775
0.000187581325
0.0002003964164
0.0002115685033
0.0002199454783
1.780671816e-05
3.29481115e-05
5.258827422e-05
7.515102391e-05
9.899189811e-05
0.0001227385564
0.0001454034188
0.0001663675555
0.0001853106544
0.0002021297224
0.0002168656815
0.0002296415217
0.0002405965022
0.0002497409403
0.0002563750214
4.822425987e-05
8.552420523e-05
0.0001261058708
0.0001647327628
0.000198518256
0.0002264485711
0.0002486485635
0.0002657972094
0.0002787574999
0.0002883783746
0.0002954062262
0.0003004581106
0.0003040237359
0.0003064685969
0.00030796609
0.0001634250506
0.0002694477836
0.0003564648702
0.0004166153052
0.0004522718352
0.0004691898186
0.0004731895357
0.0004689765114
0.00045996575
0.0004484768956
0.0004360119864
0.000423510457
0.0004115750645
0.0004007747958
0.0003925023553
0.0008043872975
0.0009144247781
0.00093327582
0.0009025639154
0.000849621789
0.0007899173169
0.0007313171178
0.0006773469272
0.0006292350204
0.0005870816217
0.0005505010377
0.0005190168083
0.0004925687766
0.0004732511042
0.001855015588
0.001719741584
0.001510282255
0.00130892711
0.001137572827
0.0009976489969
0.0008847060863
0.0007934388203
0.0007192028273
0.0006583093558
0.0006079519175
0.000566119715
0.0005318647281
0.0005072467084
0.0008043486824
0.0009143967903
0.0009332500064
0.0009025386805
0.0008495972547
0.000789893598
0.000731294576
0.0006773255728
0.0006292148762
0.0005870626806
0.0005504832782
0.0005189999221
0.0004925526431
0.0004732354874
0.0002694465937
0.0003564579086
0.0004166025999
0.0004522542322
0.0004691685139
0.0004731658964
0.0004689514826
0.0004599399365
0.0004484507824
0.0004359859861
0.0004234847451
0.0004115496905
0.0004007498176
0.0003924774833
8.552678719e-05
0.0001261057891
0.0001647291223
0.0001985107379
0.0002264373006
0.0002486339869
0.000265779756
0.0002787376807
0.0002883566435
0.0002953829629
0.0003004336288
0.0003039983205
0.0003064423739
0.0003079390665
3.295026602e-05
5.258955614e-05
7.515061202e-05
9.898913729e-05
0.0001227330034
0.0001453948544
0.0001663559486
0.0001852961083
0.0002021123985
0.0002168458227
0.0002296193452
0.0002405723062
0.0002497148588
0.0002563470244
2.342766851e-05
4.262299394e-05
6.610697911e-05
9.174428264e-05
0.000117734345
0.0001427723035
0.0001660226483
0.0001870287134
0.0002056122894
0.0002217849483
0.0002356769922
0.0002474812325
0.0002573971076
0.0002655098929
0.0002713008982
7.389873609e-05
0.000125344923
0.0001741834171
0.0002156183413
0.0002485514786
0.0002736185885
0.0002920736875
0.0003052559624
0.0003143690073
0.0003204131543
0.0003241853253
0.0003263053928
0.000327254185
0.0003274250661
0.0003272177197
0.0003203565382
0.0004738230116
0.0005605476198
0.0005980511367
0.0006049779736
0.0005946855261
0.0005756046148
0.0005527428032
0.0005289559052
0.0005058057239
0.0004840950684
0.0004641988204
0.0004463026873
0.0004307406872
0.0004191041803
0.001666979805
0.001854975035
0.001719715934
0.001510264969
0.001308914878
0.001137563712
0.0009976419116
0.0008847004738
0.0007934342672
0.0007191989561
0.0006583060224
0.0006079489962
0.0005661172276
0.0005318624583
0.0005072446385
0.006400801862
0.004095755148
0.002818053809
0.002069164452
0.001604861458
0.001300948473
0.001091813676
0.000941402687
0.0008290896064
0.0007425919295
0.0006743222698
0.0006195365507
0.0005757750803
0.0005447976588
0.001855016876
0.001719701479
0.001510231513
0.001308876994
0.001137526882
0.0009976079212
0.0008846694955
0.000793406091
0.0007191732845
0.0006582824929
0.0006079273673
0.0005660971628
0.0005318436318
0.0005072265536
0.0004738391842
0.0005605453503
0.0005980350357
0.0006049531653
0.0005946559967
0.0005755726806
0.0005527099789
0.000528923122
0.0005057734446
0.0004840636318
0.000464168302
0.0004462731725
0.0004307120345
0.0004190759654
0.0001253517901
0.0001741851159
0.0002156139511
0.0002485413202
0.0002736034784
0.0002920546172
0.0003052337655
0.000314344395
0.0003203867444
0.0003241575637
0.000326276616
0.0003272247659
0.0003273951251
0.0003271871859
4.262638071e-05
6.610899568e-05
9.17438248e-05
0.0001177306688
0.0001427650221
0.0001660116699
0.0001870141885
0.0002055944398
0.0002217641167
0.0002356534627
0.0002474553868
0.0002573692218
0.0002654801957
0.0002712693163
1.780652614e-05
3.294743217e-05
5.258700758e-05
7.514909174e-05
9.898926112e-05
0.0001227351854
0.0001453993236
0.0001663627533
0.0001853051478
0.0002021235737
0.0002168589953
0.0002296342993
0.0002405888324
0.0002497328596
0.0002563665602
4.822241711e-05
8.55208819e-05
0.0001261012507
0.0001647269757
0.0001985114644
0.0002264408827
0.0002486401876
0.0002657882204
0.0002787479966
0.0002883684189
0.0002953959816
0.000300447648
0.0003040130769
0.0003064577707
0.000307955058
0.0001634080326
0.0002694315828
0.0003564470664
0.0004165967578
0.0004522529666
0.0004691707784
0.000473170639
0.0004689580686
0.0004599477524
0.0004484593544
0.0004359950564
0.0004234939984
0.0004115590986
0.0004007592188
0.0003924870285
0.0005586119204
0.0008043129159
0.0009143676855
0.0009332267999
0.0009025203286
0.0008495824749
0.0007898816369
0.000731284691
0.0006773172802
0.0006292078422
0.0005870565713
0.000550477856
0.0005189951246
0.0004925483124
0.0004732313654
0.001666971034
0.001854961823
0.001719667082
0.001510208755
0.001308861075
0.00113751545
0.0009975993453
0.0008846628681
0.0007934007615
0.0007191689272
0.0006582788491
0.0006079241559
0.0005660943517
0.0005318411636
0.0005072242735
0.0005586236905
0.0008043112864
0.0009143531877
0.0009332041639
0.0009024936787
0.0008495547028
0.0007898543656
0.0007312585482
0.0006772926055
0.0006291848062
0.0005870350247
0.0005504576597
0.0005189760941
0.0004925303111
0.0004732139463
0.0002694560875
0.0003564527934
0.0004165889257
0.0004522358516
0.000469147753
0.0004731440285
0.0004689294908
0.0004599183549
0.0004484298129
0.0004359656855
0.0004234651573
0.0004115308432
0.0004007315699
0.0003924596114
8.553009438e-05
0.0001261057052
0.0001647256502
0.0001985044023
0.0002264287069
0.0002486237
0.0002657682533
0.0002787253474
0.0002883436841
0.0002953696414
0.0003004200937
0.0003039846191
0.0003064285619
0.0003079251402
3.295125338e-05
5.258973951e-05
7.514956986e-05
9.898667223e-05
0.0001227290789
0.0001453895225
0.0001663493535
0.0001852883947
0.0002021037392
0.0002168363454
0.0002296092091
0.0002405615687
0.000249703646
0.0002563354151
1.031780572e-05
1.940136956e-05
3.204162525e-05
4.769097292e-05
6.547199171e-05
8.44334853e-05
0.0001037201257
0.0001226535709
0.0001407498975
0.0001577006044
0.0001733370418
0.000187586239
0.0002004023632
0.0002115754414
0.0002199535089
2.363866208e-05
4.332896632e-05
6.772886381e-05
9.426917671e-05
0.0001207098528
0.0001455139371
0.0001678410037
0.0001873833282
0.0002041776961
0.0002184506248
0.000230509985
0.000240674533
0.0002492189462
0.0002562662648
0.0002613502923
6.440784331e-05
0.0001134494878
0.0001649358543
0.0002116077757
0.000249934108
0.0002791760854
0.0003001599382
0.0003143543518
0.0003233246516
0.000328468371
0.0003309231544
0.0003315650843
0.0003310522528
0.000329907637
0.0003287137548
0.0001634080635
0.0002694283886
0.0003564397251
0.000416585627
0.000452238979
0.000469155075
0.0004731539425
0.0004689409554
0.0004599306305
0.0004484424803
0.0004359785332
0.0004234779379
0.0004115435803
0.0004007441159
0.0003924721137
0.0003203560513
0.0004738095173
0.0005605201883
0.0005980144526
0.0006049364375
0.0005946422291
0.000575561282
0.0005527004284
0.0005289150248
0.0005057664597
0.0004840574786
0.0004641629044
0.0004462683534
0.0004307076367
0.0004190718128
0.000163407122
0.0002694248839
0.000356432471
0.0004165748529
0.0004522255514
0.0004691398285
0.000473137778
0.0004689243162
0.0004599139955
0.0004484261224
0.0004359625136
0.000423462362
0.0004115284072
0.0004007293664
0.0003924575416
6.441347789e-05
0.0001134536449
0.0001649357056
0.0002116025053
0.0002499240569
0.0002791620879
0.0003001428766
0.0003143350721
0.0003233037767
0.0003284464591
0.000330900641
0.0003315422417
0.0003310291521
0.0003298844956
0.0003286903778
4.33348063e-05
6.773185711e-05
9.426882865e-05
0.0001207059061
0.0001455063809
0.0001678300754
0.0001873693797
0.0002041611172
0.0002184317854
0.0002304892257
0.000240652174
0.0002491952443
0.0002562414387
0.0002613244319
1.94042846e-05
3.204387095e-05
4.769174809e-05
6.547063299e-05
8.442951646e-05
0.0001037132655
0.0001226437278
0.0001407370624
0.0001576848945
0.0001733186584
0.0001875653584
0.0002003791892
0.0002115501789
0.0002199261872
5.332222978e-06
1.015738196e-05
1.730762225e-05
2.683464476e-05
3.852109655e-05
5.196755428e-05
6.668850671e-05
8.219045368e-05
9.802333513e-05
0.0001138071737
0.0001292385982
0.0001440774829
0.000158090351
0.0001708268808
0.000180667701
1.044802958e-05
1.95913738e-05
3.214784391e-05
4.746822353e-05
6.463652022e-05
8.273148142e-05
0.0001009760478
0.0001187908195
0.000135787948
0.0001517374632
0.0001665250902
0.0001801076712
0.0001924468266
0.0002033198363
0.0002115452647
2.36386626e-05
4.332863751e-05
6.772791673e-05
9.42673804e-05
0.0001207071211
0.000145510213
0.000167836344
0.0001873777959
0.0002041714167
0.0002184437108
0.0002305025053
0.0002406666317
0.0002492106841
0.0002562576723
0.0002613414396
4.822248229e-05
8.551934703e-05
0.0001260971048
0.0001647197952
0.0001985012248
0.0002264279191
0.0002486248879
0.0002657710627
0.0002787294312
0.000288348802
0.0002953755768
0.0003004266972
0.0003039917748
0.000306436158
0.0003079331001
7.389849079e-05
0.0001253403589
0.0001741730122
0.0002156020391
0.0002485300655
0.000273593035
0.0002920449961
0.0003052249511
0.0003143363341
0.0003203793468
0.0003241507468
0.0003262703694
0.0003272189829
0.0003273897068
0.0003271820112
4.822173721e-05
8.551772764e-05
0.0001260941592
0.0001647153178
0.0001984952444
0.0002264206299
0.0002486165136
0.0002657618447
0.0002787195164
0.0002883384426
0.0002953648338
0.0003004156822
0.0003039805645
0.0003064248121
0.0003079216208
2.36390613e-05
4.332878554e-05
6.772687431e-05
9.426449245e-05
0.000120702054
0.0001455029159
0.000167826932
0.0001873664845
0.0002041584513
0.0002184293825
0.0002304870145
0.0002406501657
0.0002491933525
0.000256239666
0.0002613227669
1.044920976e-05
1.959264429e-05
3.214846875e-05
4.746756922e-05
6.463413144e-05
8.272703883e-05
0.0001009694131
0.0001187819456
0.0001357769188
0.0001517243575
0.0001665100773
0.0001800909015
0.0001924284624
0.0002032999869
0.0002115240903
1.015905753e-05
1.730883523e-05
2.683503485e-05
3.852025058e-05
5.196508309e-05
6.668408202e-05
8.218381537e-05
9.801435243e-05
0.000113795775
0.0001292247924
0.0001440612991
0.0001580718623
0.0001708061984
0.0001806448986
3.105486898e-06
5.972794558e-06
1.043322784e-05
1.673511427e-05
2.49598107e-05
3.502250659e-05
4.670376259e-05
5.969500088e-05
7.364443135e-05
8.819507705e-05
0.000103009947
0.0001177769952
0.0001321629798
0.0001455761912
0.0001561241087
5.332242329e-06
1.015736003e-05
1.730750276e-05
2.683435135e-05
3.852054382e-05
5.196666067e-05
6.668721841e-05
8.218872233e-05
9.802111504e-05
0.0001138044672
0.0001292353918
0.0001440737899
0.0001580861562
0.0001708221838
0.0001806623454
1.031784372e-05
1.94011916e-05
3.20409826e-05
4.768958812e-05
6.546961791e-05
8.442993784e-05
0.0001037152997
0.0001226474316
0.0001407424676
0.0001576919197
0.0001733272151
0.0001875753143
0.0002003904376
0.0002115625746
0.0002199395878
1.780655612e-05
3.294676119e-05
5.258498605e-05
7.514513182e-05
9.898295726e-05
0.0001227263349
0.0001453879052
0.000166348848
0.000185288985
0.0002021053532
0.0002168389285
0.0002296126659
0.0002405657921
0.000249708567
0.0002563408933
2.342760231e-05
4.262145828e-05
6.610292823e-05
9.173695516e-05
0.0001177233295
0.0001427574622
0.0001660041175
0.0001870067239
0.0002055871812
0.0002217571194
0.0002356467968
0.0002474490483
0.000257363182
0.0002654744402
0.000271263797
1.7806264e-05
3.294612849e-05
5.258379334e-05
7.514319082e-05
9.898014878e-05
0.0001227226009
0.0001453832179
0.0001663432862
0.0001852826048
0.00020209823
0.0002168311392
0.0002296043023
0.0002405569722
0.0002496992957
0.0002563312764
1.03177586e-05
1.940092181e-05
3.204020974e-05
4.768795627e-05
6.546682059e-05
8.442576927e-05
0.0001037096182
0.0001226401947
0.0001407336979
0.0001576817006
0.0001733156393
0.0001875625277
0.00020037653
0.0002115476666
0.0002199237616
5.332392264e-06
1.015754661e-05
1.730744809e-05
2.683370687e-05
3.851895219e-05
5.196381123e-05
6.668284641e-05
8.218262014e-05
9.801320027e-05
0.0001137946875
0.0001292237468
0.0001440603051
0.0001580709214
0.0001708053032
0.0001806440171
3.105824602e-06
5.973264195e-06
1.043360335e-05
1.673510791e-05
2.495908668e-05
3.502071704e-05
4.670056857e-05
5.969010043e-05
7.3637587e-05
8.818610347e-05
0.0001029987218
0.0001177634822
0.0001321471608
0.0001455581086
0.0001561038187
)
;

boundaryField
{
    top
    {
        type            calculated;
        value           nonuniform List<scalar> 
127
(
3.105824602e-06
5.973408998e-06
1.01583914e-05
1.940317661e-05
3.295026602e-05
4.262638071e-05
3.295125338e-05
1.94042846e-05
1.015905753e-05
5.973264195e-06
1.043414263e-05
1.730899141e-05
3.204371556e-05
5.258955614e-05
6.610899568e-05
5.258973951e-05
3.204387095e-05
1.730883523e-05
1.043360335e-05
1.673638687e-05
2.683633973e-05
4.769304896e-05
7.515061202e-05
9.17438248e-05
7.514956986e-05
4.769174809e-05
2.683503485e-05
1.673510791e-05
2.496148253e-05
3.852305204e-05
6.547374765e-05
9.898913729e-05
0.0001177306688
9.898667223e-05
6.547063299e-05
3.852025058e-05
2.495908668e-05
3.502460569e-05
5.196967738e-05
8.443464058e-05
0.0001227330034
0.0001427650221
0.0001227290789
8.442951646e-05
5.196508309e-05
3.502071704e-05
4.670629841e-05
6.669070332e-05
0.0001037204559
0.0001453948544
0.0001660116699
0.0001453895225
0.0001037132655
6.668408202e-05
4.670056857e-05
5.96979617e-05
8.219261788e-05
0.0001226529375
0.0001663559486
0.0001870141885
0.0001663493535
0.0001226437278
8.218381537e-05
5.969010043e-05
7.364778953e-05
9.802537888e-05
0.0001407482017
0.0001852961083
0.0002055944398
0.0001852883947
0.0001407370624
9.801435243e-05
7.3637587e-05
8.819879261e-05
0.0001138090361
0.0001576978111
0.0002021123985
0.0002217641167
0.0002021037392
0.0001576848945
0.000113795775
8.818610347e-05
0.0001030139852
0.0001292402152
0.0001733331775
0.0002168458227
0.0002356534627
0.0002168363454
0.0001733186584
0.0001292247924
0.0001029987218
0.0001177813095
0.0001440787769
0.000187581325
0.0002296193452
0.0002474553868
0.0002296092091
0.0001875653584
0.0001440612991
0.0001177634822
0.0001321675249
0.0001580913244
0.0002003964164
0.0002405723062
0.0002573692218
0.0002405615687
0.0002003791892
0.0001580718623
0.0001321471608
0.0001455809308
0.0001708274452
0.0002115685033
0.0002497148588
0.0002654801957
0.000249703646
0.0002115501789
0.0001708061984
0.0001455581086
0.0001561289622
0.0001806676568
0.0002199454783
0.0002563470244
0.0002712693163
0.0002563354151
0.0002199261872
0.0001806448986
0.0001561038187
)
;
    }
    bottom
    {
        type            calculated;
        value           nonuniform List<scalar> 
134
(
5.332900091e-06
1.031824597e-05
1.780671816e-05
2.342766851e-05
1.780652614e-05
1.031780572e-05
5.332222978e-06
3.105486898e-06
5.973921378e-06
1.015849019e-05
1.940243678e-05
3.29481115e-05
4.262299394e-05
3.294743217e-05
1.940136956e-05
1.015738196e-05
5.972794558e-06
1.043465767e-05
1.730928593e-05
3.204341563e-05
5.258827422e-05
6.610697911e-05
5.258700758e-05
3.204162525e-05
1.730762225e-05
1.043322784e-05
1.673701752e-05
2.683697367e-05
4.769359666e-05
7.515102391e-05
9.174428264e-05
7.514909174e-05
4.769097292e-05
2.683464476e-05
1.673511427e-05
2.496238055e-05
3.85242627e-05
6.547556495e-05
9.899189811e-05
0.000117734345
9.898926112e-05
6.547199171e-05
3.852109655e-05
2.49598107e-05
3.50259562e-05
5.197173918e-05
8.443812458e-05
0.0001227385564
0.0001427723035
0.0001227351854
8.44334853e-05
5.196755428e-05
3.502250659e-05
4.670831677e-05
6.669388546e-05
0.0001037259033
0.0001454034188
0.0001660226483
0.0001453993236
0.0001037201257
6.668850671e-05
4.670376259e-05
5.970085471e-05
8.219714387e-05
0.0001226605519
0.0001663675555
0.0001870287134
0.0001663627533
0.0001226535709
8.219045368e-05
5.969500088e-05
7.365176325e-05
9.803144281e-05
0.000140758062
0.0001853106544
0.0002056122894
0.0001853051478
0.0001407498975
9.802333513e-05
7.364443135e-05
8.820403188e-05
0.0001138167723
0.00015770993
0.0002021297224
0.0002217849483
0.0002021235737
0.0001577006044
0.0001138071737
8.819507705e-05
0.0001030206123
0.0001292497039
0.0001733474991
0.0002168656815
0.0002356769922
0.0002168589953
0.0001733370418
0.0001292385982
0.000103009947
0.0001177894508
0.0001440900873
0.0001875977532
0.0002296415217
0.0002474812325
0.0002296342993
0.000187586239
0.0001440774829
0.0001177769952
0.0001321772417
0.0001581044067
0.0002004148298
0.0002405965022
0.0002573971076
0.0002405888324
0.0002004023632
0.000158090351
0.0001321629798
0.0001455922614
0.0001708423
0.0002115888237
0.0002497409403
0.0002655098929
0.0002497328596
0.0002115754414
0.0001708268808
0.0001455761912
0.0001561419609
0.0001806843554
0.0002199677039
0.0002563750214
0.0002713008982
0.0002563665602
0.0002199535089
0.000180667701
0.0001561241087
)
;
    }
    side-walls
    {
        type            calculated;
        value           nonuniform List<scalar> 
261
(
5.973921378e-06
1.015904306e-05
1.940379997e-05
3.295039711e-05
4.262575507e-05
3.294982446e-05
1.940300507e-05
1.015832264e-05
5.973408998e-06
1.043465767e-05
1.730981872e-05
3.204488633e-05
5.25908656e-05
6.61102696e-05
5.259002546e-05
3.204382849e-05
1.730897073e-05
1.043414263e-05
1.673701752e-05
2.683751234e-05
4.769514266e-05
7.51538316e-05
9.174800686e-05
7.515265743e-05
4.769373455e-05
2.683643748e-05
1.673638687e-05
2.496238055e-05
3.852480804e-05
6.547716701e-05
9.89948713e-05
0.0001177384076
9.899328895e-05
6.547526873e-05
3.852334643e-05
2.496148253e-05
3.50259562e-05
5.197229327e-05
8.443976912e-05
0.0001227416322
0.0001427765808
0.0001227395787
8.44372289e-05
5.197026518e-05
3.502460569e-05
4.670831677e-05
6.669445553e-05
0.0001037275795
0.0001454065528
0.0001660270607
0.0001454039883
0.0001037242465
6.669164627e-05
4.670629841e-05
5.970085471e-05
8.219771153e-05
0.0001226622263
0.0001663706974
0.000187033182
0.0001663675767
0.0001226580267
8.219398392e-05
5.96979617e-05
7.365176325e-05
9.803202286e-05
0.0001407597381
0.0001853138108
0.0002056167707
0.0001853101067
0.0001407545857
9.802721244e-05
7.364778953e-05
8.820403188e-05
0.0001138173574
0.0001577115976
0.0002021328134
0.0002217893998
0.000202128616
0.0001577054647
0.000113811344
8.819879261e-05
0.0001030206123
0.0001292503076
0.0001733491483
0.0002168687448
0.0002356813894
0.0002168640368
0.0001733420597
0.0001292430455
0.0001030139852
0.0001177894508
0.0001440906606
0.0001875993693
0.0002296445053
0.0002474855743
0.0002296393121
0.0001875913291
0.000144082139
0.0001177813095
0.0001321772417
0.000158104971
0.0002004164163
0.0002405994058
0.0002574013166
0.0002405937804
0.0002004074883
0.0001580951555
0.0001321675249
0.0001455922614
0.0001708428738
0.0002115903673
0.0002497437557
0.0002655140197
0.0002497377212
0.0002115805733
0.0001708318174
0.0001455809308
0.0001561419609
0.000180684897
0.0002199691804
0.0002563777873
0.0002713049311
0.0002563713426
0.0002199586369
0.0001806727235
0.0001561289622
3.105486898e-06
5.332242329e-06
1.031784372e-05
1.780655612e-05
2.342760231e-05
1.7806264e-05
1.03177586e-05
5.332392264e-06
3.105824602e-06
5.972794558e-06
1.015736003e-05
1.94011916e-05
3.294676119e-05
4.262145828e-05
3.294612849e-05
1.940092181e-05
1.015754661e-05
5.973264195e-06
1.043322784e-05
1.730750276e-05
3.20409826e-05
5.258498605e-05
6.610292823e-05
5.258379334e-05
3.204020974e-05
1.730744809e-05
1.043360335e-05
1.673511427e-05
2.683435135e-05
4.768958812e-05
7.514513182e-05
9.173695516e-05
7.514319082e-05
4.768795627e-05
2.683370687e-05
1.673510791e-05
2.49598107e-05
3.852054382e-05
6.546961791e-05
9.898295726e-05
0.0001177233295
9.898014878e-05
6.546682059e-05
3.851895219e-05
2.495908668e-05
3.502250659e-05
5.196666067e-05
8.442993784e-05
0.0001227263349
0.0001427574622
0.0001227226009
8.442576927e-05
5.196381123e-05
3.502071704e-05
4.670376259e-05
6.668721841e-05
0.0001037152997
0.0001453879052
0.0001660041175
0.0001453832179
0.0001037096182
6.668284641e-05
4.670056857e-05
5.969500088e-05
8.218872233e-05
0.0001226474316
0.000166348848
0.0001870067239
0.0001663432862
0.0001226401947
8.218262014e-05
5.969010043e-05
7.364443135e-05
9.802111504e-05
0.0001407424676
0.000185288985
0.0002055871812
0.0001852826048
0.0001407336979
9.801320027e-05
7.3637587e-05
8.819507705e-05
0.0001138044672
0.0001576919197
0.0002021053532
0.0002217571194
0.00020209823
0.0001576817006
0.0001137946875
8.818610347e-05
0.000103009947
0.0001292353918
0.0001733272151
0.0002168389285
0.0002356467968
0.0002168311392
0.0001733156393
0.0001292237468
0.0001029987218
0.0001177769952
0.0001440737899
0.0001875753143
0.0002296126659
0.0002474490483
0.0002296043023
0.0001875625277
0.0001440603051
0.0001177634822
0.0001321629798
0.0001580861562
0.0002003904376
0.0002405657921
0.000257363182
0.0002405569722
0.00020037653
0.0001580709214
0.0001321471608
0.0001455761912
0.0001708221838
0.0002115625746
0.000249708567
0.0002654744402
0.0002496992957
0.0002115476666
0.0001708053032
0.0001455581086
0.0001561241087
0.0001806623454
0.0002199395878
0.0002563408933
0.000271263797
0.0002563312764
0.0002199237616
0.0001806440171
0.0001561038187
)
;
    }
    inlet
    {
        type            calculated;
        value           nonuniform 0();
    }
    outlet
    {
        type            calculated;
        value           nonuniform List<scalar> 
81
(
0.0001561419609
0.000180684897
0.0002199691804
0.0002563777873
0.0002713049311
0.0002563713426
0.0002199586369
0.0001806727235
0.0001561289622
0.0001806843554
0.000211566276
0.0002613694898
0.0003079685342
0.0003272216219
0.0003079600646
0.0002613557559
0.0002115507322
0.0001806676568
0.0002199677039
0.0002613684526
0.0003287385247
0.0003925038605
0.0004191074671
0.0003924919677
0.0003287195221
0.0002613473578
0.0002199454783
0.0002563750214
0.00030796609
0.0003925023553
0.0004732511042
0.0005072467084
0.0004732354874
0.0003924774833
0.0003079390665
0.0002563470244
0.0002713008982
0.0003272177197
0.0004191041803
0.0005072446385
0.0005447976588
0.0005072265536
0.0004190759654
0.0003271871859
0.0002712693163
0.0002563665602
0.000307955058
0.0003924870285
0.0004732313654
0.0005072242735
0.0004732139463
0.0003924596114
0.0003079251402
0.0002563354151
0.0002199535089
0.0002613502923
0.0003287137548
0.0003924721137
0.0004190718128
0.0003924575416
0.0003286903778
0.0002613244319
0.0002199261872
0.000180667701
0.0002115452647
0.0002613414396
0.0003079331001
0.0003271820112
0.0003079216208
0.0002613227669
0.0002115240903
0.0001806448986
0.0001561241087
0.0001806623454
0.0002199395878
0.0002563408933
0.000271263797
0.0002563312764
0.0002199237616
0.0001806440171
0.0001561038187
)
;
    }
    procBoundary1to0
    {
        type            processor;
        value           nonuniform List<scalar> 
97
(
3.105816796e-06
3.105816796e-06
5.332302043e-06
1.03173275e-05
1.780494908e-05
2.342499788e-05
1.780448421e-05
1.031667087e-05
5.331648892e-06
3.105163606e-06
2.48041588e-06
1.044924863e-05
1.044924863e-05
1.044924863e-05