/*--------------------------------*- C++ -*----------------------------------*\
| =========                 |                                                 |
| \\      /  F ield         | OpenFOAM: The Open Source CFD Toolbox           |
|  \\    /   O peration     | Version:  4.x                                   |
|   \\  /    A nd           | Web:      www.OpenFOAM.org                      |
|    \\/     M anipulation  |                                                 |
\*---------------------------------------------------------------------------*/
FoamFile
{
    version     2.0;
    format      ascii;
    class       volScalarField;
    location    "2000";
    object      X_N2;
}
// * * * * * * * * * * * * * * * * * * * * * * * * * * * * * * * * * * * * * //

dimensions      [0 0 0 0 0 0 0];

internalField   nonuniform List<scalar> 
1174
(
0.5999708637
0.5999708608
0.5999708566
0.599970851
0.5999708439
0.5999708354
0.5999708254
0.5999708142
0.5999708019
0.5999707886
0.5999707746
0.5999707602
0.599970746
0.5999707344
0.599970861
0.5999708566
0.5999708506
0.599970843
0.5999708339
0.5999708233
0.5999708115
0.5999707987
0.599970785
0.5999707707
0.599970756
0.5999707412
0.5999707269
0.5999707155
0.5999708557
0.5999708486
0.5999708395
0.5999708286
0.5999708162
0.5999708027
0.5999707883
0.5999707734
0.5999707582
0.5999707429
0.5999707276
0.5999707126
0.5999706985
0.5999706875
0.5999708491
0.5999708389
0.5999708265
0.5999708124
0.5999707971
0.5999707812
0.599970765
0.5999707487
0.5999707327
0.599970717
0.5999707017
0.599970687
0.5999706734
0.5999706629
0.5999708453
0.5999708336
0.5999708197
0.5999708044
0.5999707882
0.5999707717
0.5999707551
0.5999707386
0.5999707226
0.599970707
0.599970692
0.5999706776
0.5999706643
0.5999706542
0.5999708493
0.5999708392
0.5999708269
0.599970813
0.599970798
0.5999707823
0.5999707664
0.5999707505
0.5999707348
0.5999707193
0.5999707043
0.5999706899
0.5999706765
0.5999706663
0.599970856
0.599970849
0.5999708401
0.5999708294
0.5999708173
0.5999708042
0.5999707903
0.5999707759
0.5999707612
0.5999707464
0.5999707317
0.5999707172
0.5999707035
0.5999706929
0.5999708613
0.5999708569
0.599970851
0.5999708436
0.5999708347
0.5999708245
0.5999708132
0.599970801
0.5999707879
0.5999707743
0.5999707603
0.5999707462
0.5999707326
0.5999707218
0.5999708639
0.5999708609
0.5999708568
0.5999708513
0.5999708444
0.5999708362
0.5999708267
0.5999708161
0.5999708044
0.5999707919
0.5999707787
0.5999707651
0.5999707518
0.5999707412
0.5999708643
0.5999708613
0.5999708569
0.5999708509
0.5999708433
0.5999708342
0.5999708236
0.5999708118
0.599970799
0.5999707853
0.599970771
0.5999707563
0.5999707414
0.5999707271
0.5999707157
0.5999708554
0.5999708486
0.5999708397
0.5999708292
0.5999708173
0.5999708043
0.5999707905
0.5999707762
0.5999707616
0.5999707468
0.5999707319
0.5999707173
0.5999707034
0.5999706927
0.5999708432
0.5999708312
0.5999708172
0.5999708018
0.5999707858
0.5999707696
0.5999707537
0.5999707381
0.5999707229
0.5999707082
0.599970694
0.5999706804
0.5999706678
0.5999706583
0.5999708256
0.5999708073
0.5999707876
0.599970768
0.5999707491
0.5999707315
0.599970715
0.5999706996
0.5999706853
0.5999706718
0.5999706591
0.599970647
0.5999706361
0.599970628
0.5999708133
0.5999707917
0.59997077
0.5999707496
0.5999707308
0.5999707137
0.599970698
0.5999706835
0.5999706702
0.5999706577
0.5999706459
0.5999706348
0.5999706247
0.5999706174
0.5999708265
0.5999708083
0.5999707889
0.5999707696
0.5999707512
0.5999707339
0.5999707178
0.5999707028
0.5999706888
0.5999706755
0.599970663
0.5999706512
0.5999706403
0.5999706324
0.5999708442
0.5999708323
0.5999708185
0.5999708035
0.5999707881
0.5999707726
0.5999707573
0.5999707424
0.5999707278
0.5999707137
0.5999707
0.5999706868
0.5999706746
0.5999706655
0.599970856
0.5999708491
0.5999708404
0.5999708302
0.5999708188
0.5999708064
0.5999707934
0.5999707799
0.5999707661
0.5999707521
0.599970738
0.5999707241
0.599970711
0.5999707009
0.5999708612
0.5999708569
0.5999708511
0.5999708437
0.599970835
0.599970825
0.5999708139
0.5999708019
0.5999707892
0.5999707758
0.5999707621
0.5999707482
0.5999707349
0.5999707245
0.5999708615
0.5999708565
0.5999708494
0.5999708403
0.5999708294
0.599970817
0.5999708035
0.5999707891
0.5999707742
0.599970759
0.5999707437
0.5999707284
0.5999707134
0.5999706992
0.5999706882
0.5999708536
0.5999708443
0.5999708321
0.599970818
0.5999708025
0.5999707865
0.5999707703
0.5999707543
0.5999707387
0.5999707235
0.5999707088
0.5999706946
0.5999706809
0.5999706683
0.5999706588
0.5999708113
0.59997079
0.5999707674
0.5999707457
0.5999707257
0.5999707077
0.5999706917
0.5999706773
0.5999706643
0.5999706523
0.5999706412
0.5999706308
0.5999706213
0.5999706144
0.5999707554
0.5999707215
0.5999706919
0.5999706679
0.599970649
0.5999706343
0.5999706226
0.5999706131
0.599970605
0.5999705978
0.5999705911
0.5999705849
0.5999705792
0.5999705753
0.5999707049
0.5999706668
0.5999706391
0.5999706201
0.599970607
0.5999705978
0.599970591
0.5999705855
0.5999705809
0.5999705766
0.5999705724
0.5999705682
0.5999705642
0.5999705617
0.5999707597
0.5999707255
0.5999706962
0.5999706728
0.5999706545
0.5999706402
0.5999706288
0.5999706195
0.5999706115
0.5999706043
0.5999705976
0.5999705913
0.5999705855
0.5999705816
0.5999708143
0.5999707925
0.5999707706
0.5999707498
0.599970731
0.5999707141
0.599970699
0.5999706854
0.599970673
0.5999706615
0.5999706507
0.5999706405
0.5999706312
0.5999706246
0.5999708441
0.5999708324
0.599970819
0.5999708045
0.5999707895
0.5999707746
0.5999707598
0.5999707453
0.5999707311
0.5999707173
0.5999707039
0.5999706909
0.5999706789
0.59997067
0.5999708559
0.5999708491
0.5999708404
0.5999708302
0.5999708186
0.5999708061
0.5999707929
0.5999707793
0.5999707653
0.5999707511
0.599970737
0.5999707231
0.59997071
0.5999707
0.5999708578
0.5999708503
0.5999708402
0.5999708279
0.5999708138
0.5999707986
0.5999707827
0.5999707665
0.5999707503
0.5999707342
0.5999707185
0.5999707031
0.5999706884
0.5999706747
0.5999706642
0.5999708437
0.599970828
0.5999708094
0.5999707896
0.5999707699
0.5999707509
0.5999707332
0.5999707166
0.5999707012
0.5999706867
0.5999706732
0.5999706604
0.5999706483
0.5999706372
0.5999706291
0.5999707952
0.5999707601
0.5999707248
0.5999706944
0.59997067
0.5999706508
0.5999706358
0.599970624
0.5999706143
0.5999706061
0.5999705988
0.5999705921
0.5999705857
0.59997058
0.599970576
0.5999705883
0.5999705498
0.5999705267
0.5999705164
0.5999705135
0.5999705146
0.5999705175
0.5999705207
0.5999705236
0.5999705259
0.5999705275
0.5999705282
0.5999705284
0.599970529
0.5999703693
0.5999703651
0.5999703827
0.5999704071
0.5999704304
0.5999704504
0.5999704668
0.5999704797
0.5999704898
0.5999704976
0.5999705033
0.5999705074
0.5999705103
0.5999705129
0.5999706033
0.599970561
0.5999705379
0.5999705282
0.5999705256
0.5999705267
0.5999705291
0.5999705319
0.5999705343
0.5999705361
0.599970537
0.5999705373
0.5999705371
0.5999705374
0.5999707592
0.599970727
0.5999706999
0.5999706784
0.5999706613
0.5999706478
0.5999706369
0.5999706278
0.5999706198
0.5999706125
0.5999706057
0.5999705992
0.5999705933
0.5999705893
0.5999708262
0.599970809
0.5999707911
0.5999707735
0.5999707566
0.5999707407
0.5999707257
0.5999707116
0.5999706982
0.5999706855
0.5999706734
0.5999706619
0.5999706513
0.5999706437
0.5999708491
0.5999708394
0.599970828
0.5999708151
0.5999708014
0.5999707871
0.5999707725
0.5999707579
0.5999707434
0.599970729
0.599970715
0.5999707014
0.5999706888
0.5999706793
0.5999708555
0.5999708467
0.5999708352
0.5999708215
0.5999708063
0.5999707903
0.5999707738
0.5999707572
0.5999707408
0.5999707247
0.5999707091
0.599970694
0.5999706796
0.5999706663
0.5999706562
0.5999708359
0.5999708163
0.5999707947
0.599970773
0.5999707526
0.5999707337
0.5999707164
0.5999707006
0.599970686
0.5999706725
0.5999706599
0.599970648
0.5999706368
0.5999706266
0.5999706192
0.599970761
0.5999707125
0.599970673
0.5999706446
0.5999706248
0.5999706111
0.5999706014
0.5999705941
0.5999705883
0.5999705833
0.5999705788
0.5999705744
0.59997057
0.5999705659
0.5999705633
0.599970447
0.5999703898
0.5999703774
0.5999703909
0.5999704129
0.5999704347
0.5999704537
0.5999704694
0.5999704818
0.5999704917
0.5999704991
0.5999705047
0.5999705086
0.5999705114
0.5999705139
0.5999694889
0.5999698863
0.5999701083
0.5999702373
0.5999703187
0.5999703721
0.5999704089
0.599970435
0.5999704541
0.5999704683
0.5999704789
0.5999704866
0.5999704924
0.5999704972
0.5999703684
0.5999703812
0.599970406
0.5999704316
0.5999704536
0.5999704715
0.5999704857
0.5999704968
0.5999705054
0.5999705118
0.5999705163
0.5999705194
0.5999705216
0.5999705237
0.5999707031
0.5999706734
0.5999706525
0.5999706376
0.5999706266
0.5999706183
0.5999706115
0.5999706058
0.5999706006
0.5999705957
0.5999705908
0.5999705859
0.5999705814
0.5999705786
0.5999708125
0.5999707936
0.5999707752
0.5999707579
0.5999707417
0.5999707266
0.5999707124
0.5999706992
0.5999706867
0.5999706748
0.5999706635
0.5999706527
0.5999706428
0.5999706357
0.5999708448
0.5999708341
0.5999708217
0.5999708082
0.5999707941
0.5999707796
0.5999707649
0.5999707503
0.5999707359
0.5999707218
0.599970708
0.5999706947
0.5999706824
0.5999706733
0.5999708578
0.5999708505
0.5999708407
0.5999708287
0.599970815
0.5999708001
0.5999707846
0.5999707687
0.5999707529
0.5999707372
0.5999707218
0.5999707068
0.5999706923
0.5999706788
0.5999706686
0.5999708444
0.5999708292
0.5999708112
0.599970792
0.5999707728
0.5999707544
0.5999707371
0.5999707209
0.5999707058
0.5999706916
0.5999706783
0.5999706656
0.5999706537
0.5999706428
0.5999706348
0.5999708026
0.5999707668
0.5999707322
0.5999707025
0.5999706785
0.5999706597
0.5999706449
0.599970633
0.5999706232
0.5999706149
0.5999706074
0.5999706005
0.5999705939
0.599970588
0.599970584
0.5999706927
0.5999706215
0.5999705747
0.5999705488
0.5999705368
0.5999705325
0.5999705323
0.5999705338
0.5999705358
0.5999705376
0.599970539
0.5999705396
0.5999705396
0.5999705392
0.5999705394
0.5999704509
0.599970395
0.5999703975
0.5999704168
0.5999704391
0.599970459
0.5999704755
0.5999704889
0.5999704994
0.5999705075
0.5999705135
0.5999705179
0.5999705208
0.5999705227
0.5999705248
0.599970687
0.5999706213
0.5999705815
0.5999705604
0.5999705508
0.5999705474
0.599970547
0.599970548
0.5999705492
0.5999705502
0.5999705507
0.5999705506
0.59997055
0.599970549
0.599970549
0.5999707553
0.5999707298
0.599970707
0.5999706879
0.5999706722
0.5999706593
0.5999706485
0.5999706392
0.599970631
0.5999706234
0.5999706162
0.5999706094
0.5999706031
0.599970599
0.5999708247
0.5999708092
0.599970793
0.5999707768
0.5999707611
0.5999707461
0.5999707318
0.5999707181
0.5999707051
0.5999706926
0.5999706806
0.5999706692
0.5999706587
0.5999706511
0.5999708486
0.5999708393
0.5999708285
0.5999708165
0.5999708035
0.59997079
0.5999707761
0.599970762
0.599970748
0.5999707341
0.5999707204
0.5999707071
0.5999706948
0.5999706856
0.5999708617
0.5999708569
0.5999708501
0.5999708414
0.599970831
0.5999708191
0.5999708061
0.5999707924
0.5999707781
0.5999707635
0.5999707488
0.5999707341
0.5999707196
0.599970706
0.5999706954
0.5999708549
0.5999708459
0.5999708343
0.5999708208
0.599970806
0.5999707908
0.5999707754
0.5999707601
0.5999707452
0.5999707307
0.5999707165
0.5999707028
0.5999706895
0.5999706773
0.5999706681
0.5999708371
0.5999708183
0.5999707969
0.5999707751
0.5999707544
0.5999707354
0.5999707183
0.599970703
0.5999706892
0.5999706765
0.5999706648
0.5999706538
0.5999706434
0.599970634
0.5999706273
0.5999708023
0.5999707681
0.5999707355
0.5999707078
0.5999706854
0.5999706676
0.5999706534
0.5999706418
0.5999706321
0.5999706237
0.5999706161
0.5999706089
0.5999706022
0.599970596
0.5999705919
0.5999707608
0.5999707178
0.5999706855
0.5999706623
0.5999706455
0.5999706331
0.5999706237
0.5999706161
0.5999706096
0.5999706039
0.5999705986
0.5999705934
0.5999705882
0.5999705835
0.5999705806
0.5999708027
0.5999707697
0.5999707392
0.5999707136
0.5999706927
0.5999706759
0.5999706623
0.599970651
0.5999706413
0.5999706327
0.5999706249
0.5999706175
0.5999706105
0.5999706041
0.5999705999
0.5999708345
0.5999708164
0.5999707972
0.5999707781
0.5999707599
0.5999707431
0.5999707277
0.5999707135
0.5999707006
0.5999706885
0.5999706771
0.5999706663
0.5999706561
0.5999706467
0.5999706401
0.5999708432
0.599970833
0.5999708213
0.5999708084
0.5999707951
0.5999707815
0.5999707679
0.5999707544
0.599970741
0.5999707279
0.599970715
0.5999707025
0.5999706909
0.5999706823
0.5999708554
0.5999708491
0.5999708412
0.5999708319
0.5999708214
0.59997081
0.5999707979
0.5999707852
0.5999707722
0.5999707589
0.5999707456
0.5999707324
0.5999707199
0.5999707104
0.5999708646
0.5999708617
0.5999708576
0.5999708519
0.5999708447
0.599970836
0.5999708261
0.5999708149
0.5999708028
0.59997079
0.5999707765
0.5999707626
0.5999707485
0.5999707349
0.5999707242
0.5999708616
0.5999708568
0.5999708502
0.5999708418
0.5999708319
0.5999708207
0.5999708086
0.5999707957
0.5999707823
0.5999707685
0.5999707546
0.5999707406
0.5999707267
0.5999707136
0.5999707035
0.5999708548
0.599970846
0.5999708347
0.5999708216
0.5999708074
0.5999707926
0.5999707777
0.599970763
0.5999707484
0.5999707343
0.5999707204
0.5999707069
0.5999706939
0.5999706818
0.5999706728
0.5999708443
0.5999708299
0.5999708131
0.5999707955
0.599970778
0.599970761
0.5999707449
0.5999707298
0.5999707154
0.5999707019
0.599970689
0.5999706767
0.5999706649
0.5999706542
0.5999706465
0.5999708358
0.5999708182
0.5999707995
0.5999707809
0.5999707633
0.5999707466
0.5999707311
0.5999707166
0.599970703
0.5999706902
0.599970678
0.5999706665
0.5999706554
0.5999706454
0.5999706382
0.5999708446
0.5999708307
0.5999708147
0.5999707979
0.5999707812
0.599970765
0.5999707495
0.5999707348
0.5999707209
0.5999707076
0.5999706949
0.5999706827
0.5999706711
0.5999706605
0.5999706528
0.5999708547
0.599970846
0.5999708354
0.5999708233
0.5999708102
0.5999707967
0.5999707829
0.5999707692
0.5999707556
0.5999707421
0.5999707289
0.599970716
0.5999707034
0.5999706917
0.599970683
0.5999708611
0.5999708563
0.59997085
0.5999708423
0.5999708333
0.5999708232
0.5999708122
0.5999708006
0.5999707883
0.5999707757
0.5999707628
0.5999707498
0.5999707368
0.5999707245
0.5999707151
0.599970861
0.599970857
0.5999708518
0.5999708453
0.5999708375
0.5999708286
0.5999708186
0.5999708078
0.5999707962
0.5999707841
0.5999707715
0.5999707587
0.5999707463
0.5999707368
0.599970866
0.5999708642
0.5999708614
0.5999708574
0.5999708521
0.5999708455
0.5999708375
0.5999708282
0.5999708177
0.5999708062
0.5999707938
0.5999707808
0.5999707673
0.5999707541
0.5999707435
0.5999708646
0.5999708617
0.5999708576
0.599970852
0.599970845
0.5999708365
0.5999708267
0.5999708158
0.599970804
0.5999707914
0.5999707781
0.5999707645
0.5999707507
0.5999707374
0.5999707271
0.5999708616
0.5999708569
0.5999708504
0.5999708421
0.5999708321
0.5999708209
0.5999708086
0.5999707956
0.599970782
0.5999707681
0.599970754
0.5999707399
0.5999707259
0.5999707128
0.5999707028
0.5999708578
0.5999708508
0.5999708416
0.5999708306
0.5999708181
0.5999708046
0.5999707904
0.5999707759
0.5999707613
0.5999707467
0.5999707323
0.5999707181
0.5999707044
0.5999706917
0.5999706822
0.5999708554
0.5999708473
0.599970837
0.599970825
0.5999708118
0.5999707977
0.5999707832
0.5999707685
0.5999707538
0.5999707392
0.5999707249
0.599970711
0.5999706975
0.5999706851
0.5999706759
0.5999708579
0.5999708511
0.5999708423
0.5999708316
0.5999708196
0.5999708066
0.599970793
0.599970779
0.5999707648
0.5999707506
0.5999707366
0.5999707228
0.5999707093
0.5999706968
0.5999706875
0.5999708617
0.5999708571
0.5999708508
0.599970843
0.5999708337
0.5999708232
0.5999708118
0.5999707996
0.5999707868
0.5999707737
0.5999707604
0.599970747
0.5999707336
0.5999707211
0.5999707116
0.5999708645
0.5999708617
0.5999708577
0.5999708524
0.5999708459
0.5999708381
0.5999708292
0.5999708192
0.5999708084
0.5999707968
0.5999707846
0.599970772
0.5999707591
0.5999707467
0.5999707372
0.5999708659
0.599970864
0.5999708612
0.5999708575
0.5999708526
0.5999708465
0.5999708393
0.599970831
0.5999708216
0.5999708112
0.5999708001
0.5999707883
0.5999707761
0.5999707641
0.5999707548
)
;

boundaryField
{
    top
    {
        type            calculated;
        value           nonuniform List<scalar> 
127
(
0.5999708659
0.5999708639
0.5999708612
0.5999708559
0.5999708491
0.5999708448
0.5999708486
0.5999708554
0.599970861
0.599970864
0.5999708609
0.5999708569
0.5999708491
0.5999708394
0.5999708341
0.5999708393
0.5999708491
0.599970857
0.5999708612
0.5999708568
0.5999708511
0.5999708404
0.599970828
0.5999708217
0.5999708285
0.5999708412
0.5999708518
0.5999708575
0.5999708513
0.5999708437
0.5999708302
0.5999708151
0.5999708082
0.5999708165
0.5999708319
0.5999708453
0.5999708526
0.5999708444
0.599970835
0.5999708186
0.5999708014
0.5999707941
0.5999708035
0.5999708214
0.5999708375
0.5999708465
0.5999708362
0.599970825
0.5999708061
0.5999707871
0.5999707796
0.59997079
0.59997081
0.5999708286
0.5999708393
0.5999708267
0.5999708139
0.5999707929
0.5999707725
0.5999707649
0.5999707761
0.5999707979
0.5999708186
0.599970831
0.5999708161
0.5999708019
0.5999707793
0.5999707579
0.5999707503
0.599970762
0.5999707852
0.5999708078
0.5999708216
0.5999708044
0.5999707892
0.5999707653
0.5999707434
0.5999707359
0.599970748
0.5999707722
0.5999707962
0.5999708112
0.5999707919
0.5999707758
0.5999707511
0.599970729
0.5999707218
0.5999707341
0.5999707589
0.5999707841
0.5999708001
0.5999707787
0.5999707621
0.599970737
0.599970715
0.599970708
0.5999707204
0.5999707456
0.5999707715
0.5999707883
0.5999707651
0.5999707482
0.5999707231
0.5999707014
0.5999706947
0.5999707071
0.5999707324
0.5999707587
0.5999707761
0.5999707518
0.5999707349
0.59997071
0.5999706888
0.5999706824
0.5999706948
0.5999707199
0.5999707463
0.5999707641
0.5999707412
0.5999707245
0.5999707
0.5999706793
0.5999706733
0.5999706856
0.5999707104
0.5999707368
0.5999707548
)
;
    }
    bottom
    {
        type            calculated;
        value           nonuniform List<scalar> 
134
(
0.5999708643
0.5999708615
0.5999708578
0.5999708555
0.5999708578
0.5999708617
0.5999708646
0.599970866
0.5999708637
0.5999708613
0.5999708565
0.5999708503
0.5999708467
0.5999708505
0.5999708569
0.5999708617
0.5999708642
0.5999708608
0.5999708569
0.5999708494
0.5999708402
0.5999708352
0.5999708407
0.5999708501
0.5999708576
0.5999708614
0.5999708566
0.5999708509
0.5999708403
0.5999708279
0.5999708215
0.5999708287
0.5999708414
0.5999708519
0.5999708574
0.599970851
0.5999708433
0.5999708294
0.5999708138
0.5999708063
0.599970815
0.599970831
0.5999708447
0.5999708521
0.5999708439
0.5999708342
0.599970817
0.5999707986
0.5999707903
0.5999708001
0.5999708191
0.599970836
0.5999708455
0.5999708354
0.5999708236
0.5999708035
0.5999707827
0.5999707738
0.5999707846
0.5999708061
0.5999708261
0.5999708375
0.5999708254
0.5999708118
0.5999707891
0.5999707665
0.5999707572
0.5999707687
0.5999707924
0.5999708149
0.5999708282
0.5999708142
0.599970799
0.5999707742
0.5999707503
0.5999707408
0.5999707529
0.5999707781
0.5999708028
0.5999708177
0.5999708019
0.5999707853
0.599970759
0.5999707342
0.5999707247
0.5999707372
0.5999707635
0.59997079
0.5999708062
0.5999707886
0.599970771
0.5999707437
0.5999707185
0.5999707091
0.5999707218
0.5999707488
0.5999707765
0.5999707938
0.5999707746
0.5999707563
0.5999707284
0.5999707031
0.599970694
0.5999707068
0.5999707341
0.5999707626
0.5999707808
0.5999707602
0.5999707414
0.5999707134
0.5999706884
0.5999706796
0.5999706923
0.5999707196
0.5999707485
0.5999707673
0.599970746
0.5999707271
0.5999706992
0.5999706747
0.5999706663
0.5999706788
0.599970706
0.5999707349
0.5999707541
0.5999707344
0.5999707157
0.5999706882
0.5999706642
0.5999706562
0.5999706686
0.5999706954
0.5999707242
0.5999707435
)
;
    }
    side-walls
    {
        type            calculated;
        value           nonuniform List<scalar> 
261
(
0.5999708637
0.599970861
0.5999708557
0.5999708491
0.5999708453
0.5999708493
0.599970856
0.5999708613
0.5999708639
0.5999708608
0.5999708566
0.5999708486
0.5999708389
0.5999708336
0.5999708392
0.599970849
0.5999708569
0.5999708609
0.5999708566
0.5999708506
0.5999708395
0.5999708265
0.5999708197
0.5999708269
0.5999708401
0.599970851
0.5999708568
0.599970851
0.599970843
0.5999708286
0.5999708124
0.5999708044
0.599970813
0.5999708294
0.5999708436
0.5999708513
0.5999708439
0.5999708339
0.5999708162
0.5999707971
0.5999707882
0.599970798
0.5999708173
0.5999708347
0.5999708444
0.5999708354
0.5999708233
0.5999708027
0.5999707812
0.5999707717
0.5999707823
0.5999708042
0.5999708245
0.5999708362
0.5999708254
0.5999708115
0.5999707883
0.599970765
0.5999707551
0.5999707664
0.5999707903
0.5999708132
0.5999708267
0.5999708142
0.5999707987
0.5999707734
0.5999707487
0.5999707386
0.5999707505
0.5999707759
0.599970801
0.5999708161
0.5999708019
0.599970785
0.5999707582
0.5999707327
0.5999707226
0.5999707348
0.5999707612
0.5999707879
0.5999708044
0.5999707886
0.5999707707
0.5999707429
0.599970717
0.599970707
0.5999707193
0.5999707464
0.5999707743
0.5999707919
0.5999707746
0.599970756
0.5999707276
0.5999707017
0.599970692
0.5999707043
0.5999707317
0.5999707603
0.5999707787
0.5999707602
0.5999707412
0.5999707126
0.599970687
0.5999706776
0.5999706899
0.5999707172
0.5999707462
0.5999707651
0.599970746
0.5999707269
0.5999706985
0.5999706734
0.5999706643
0.5999706765
0.5999707035
0.5999707326
0.5999707518
0.5999707344
0.5999707155
0.5999706875
0.5999706629
0.5999706542
0.5999706663
0.5999706929
0.5999707218
0.5999707412
0.599970866
0.5999708646
0.5999708616
0.5999708578
0.5999708554
0.5999708579
0.5999708617
0.5999708645
0.5999708659
0.5999708642
0.5999708617
0.5999708569
0.5999708508
0.5999708473
0.5999708511
0.5999708571
0.5999708617
0.599970864
0.5999708614
0.5999708576
0.5999708504
0.5999708416
0.599970837
0.5999708423
0.5999708508
0.5999708577
0.5999708612
0.5999708574
0.599970852
0.5999708421
0.5999708306
0.599970825
0.5999708316
0.599970843
0.5999708524
0.5999708575
0.5999708521
0.599970845
0.5999708321
0.5999708181
0.5999708118
0.5999708196
0.5999708337
0.5999708459
0.5999708526
0.5999708455
0.5999708365
0.5999708209
0.5999708046
0.5999707977
0.5999708066
0.5999708232
0.5999708381
0.5999708465
0.5999708375
0.5999708267
0.5999708086
0.5999707904
0.5999707832
0.599970793
0.5999708118
0.5999708292
0.5999708393
0.5999708282
0.5999708158
0.5999707956
0.5999707759
0.5999707685
0.599970779
0.5999707996
0.5999708192
0.599970831
0.5999708177
0.599970804
0.599970782
0.5999707613
0.5999707538
0.5999707648
0.5999707868
0.5999708084
0.5999708216
0.5999708062
0.5999707914
0.5999707681
0.5999707467
0.5999707392
0.5999707506
0.5999707737
0.5999707968
0.5999708112
0.5999707938
0.5999707781
0.599970754
0.5999707323
0.5999707249
0.5999707366
0.5999707604
0.5999707846
0.5999708001
0.5999707808
0.5999707645
0.5999707399
0.5999707181
0.599970711
0.5999707228
0.599970747
0.599970772
0.5999707883
0.5999707673
0.5999707507
0.5999707259
0.5999707044
0.5999706975
0.5999707093
0.5999707336
0.5999707591
0.5999707761
0.5999707541
0.5999707374
0.5999707128
0.5999706917
0.5999706851
0.5999706968
0.5999707211
0.5999707467
0.5999707641
0.5999707435
0.5999707271
0.5999707028
0.5999706822
0.5999706759
0.5999706875
0.5999707116
0.5999707372
0.5999707548
)
;
    }
    inlet
    {
        type            calculated;
        value           nonuniform 0();
    }
    outlet
    {
        type            calculated;
        value           nonuniform List<scalar> 
81
(
0.5999707344
0.5999707155
0.5999706875
0.5999706629
0.5999706542
0.5999706663
0.5999706929
0.5999707218
0.5999707412
0.5999707157
0.5999706927
0.5999706583
0.599970628
0.5999706174
0.5999706324
0.5999706655
0.5999707009
0.5999707245
0.5999706882
0.5999706588
0.5999706144
0.5999705753
0.5999705617
0.5999705816
0.5999706246
0.59997067
0.5999707
0.5999706642
0.5999706291
0.599970576
0.599970529
0.5999705129
0.5999705374
0.5999705893
0.5999706437
0.5999706793
0.5999706562
0.5999706192
0.5999705633
0.5999705139
0.5999704972
0.5999705237
0.5999705786
0.5999706357
0.5999706733
0.5999706686
0.5999706348
0.599970584
0.5999705394
0.5999705248
0.599970549
0.599970599
0.5999706511
0.5999706856
0.5999706954
0.5999706681
0.5999706273
0.5999705919
0.5999705806
0.5999705999
0.5999706401
0.5999706823
0.5999707104
0.5999707242
0.5999707035
0.5999706728
0.5999706465
0.5999706382
0.5999706528
0.599970683
0.5999707151
0.5999707368
0.5999707435
0.5999707271
0.5999707028
0.5999706822
0.5999706759
0.5999706875
0.5999707116
0.5999707372
0.5999707548
)
;
    }
    procBoundary1to0
    {
        type            processor;
        value           nonuniform List<scalar> 
97
(
0.5999708659
0.5999708659
0.5999708646
0.599970862
0.5999708587
0.5999708568
0.5999708588
0.5999708622
0.5999708649
0.5999708662
0.5999708667
0.5999708611
0.5999708611
0.5999708611
0.5999708551
0.5999708465
0.599970841
0.5999708474
0.5999708563
0.5999708622
0.5999708649
0.5999708654
0.5999708624
0.5999708347
0.5999708347
0.5999708347
0.5999708081
0.5999707894
0.5999708139
0.5999708412
0.5999708562
0.5999708622
0.5999708635
0.5999708576
0.5999708414
0.5999706935
0.5999706935
0.5999706935
0.5999706459
0.5999707373
0.5999708136
0.5999708472
0.5999708587
0.5999708624
0.5999708538
0.5999708256
0.5999707541
0.5999703532
0.5999703532
0.5999703532
0.5999706365
0.5999706365
0.5999707871
0.5999708404
0.5999708566
0.5999708635
0.5999708573
0.5999708392
0.5999707982
0.5999707453
0.5999708038
0.5999707979
0.5999707979
0.5999707979
0.5999708448
0.5999708582
0.5999708653
0.5999708621
0.599970854
0.599970839
0.5999708244
0.5999708402
0.5999708546
0.5999708537
0.5999708537
0.5999708537
0.5999708616
0.5999708667
0.5999708653
0.5999708621
0.5999708572
0.5999708536
0.5999708575
0.5999708623
0.5999708653
0.5999708643
0.5999708643
0.5999708643
0.5999708674
0.5999708667
0.5999708653
0.5999708634
0.5999708623
0.5999708635
0.5999708653
0.5999708667
0.5999708674
)
;
    }
}


// ************************************************************************* //
