/*--------------------------------*- C++ -*----------------------------------*\
| =========                 |                                                 |
| \\      /  F ield         | OpenFOAM: The Open Source CFD Toolbox           |
|  \\    /   O peration     | Version:  4.x                                   |
|   \\  /    A nd           | Web:      www.OpenFOAM.org                      |
|    \\/     M anipulation  |                                                 |
\*---------------------------------------------------------------------------*/
FoamFile
{
    version     2.0;
    format      ascii;
    class       volScalarField;
    location    "10000";
    object      CO;
}
// * * * * * * * * * * * * * * * * * * * * * * * * * * * * * * * * * * * * * //

dimensions      [0 0 0 0 0 0 0];

internalField   nonuniform List<scalar> 
1174
(
0.3101804764
0.3101796491
0.3101784933
0.3101770008
0.3101751931
0.3101731147
0.3101708245
0.3101683871
0.3101658662
0.3101633208
0.3101608041
0.3101583718
0.3101561229
0.3101543708
0.3101797153
0.3101784127
0.3101766961
0.3101746118
0.3101722365
0.3101696595
0.3101669692
0.3101642439
0.3101615484
0.3101589331
0.3101564368
0.3101540967
0.3101519862
0.3101503699
0.3101780524
0.310175791
0.3101730222
0.3101699089
0.3101666215
0.310163309
0.3101600859
0.3101570314
0.3101541933
0.3101515957
0.3101492463
0.3101471491
0.3101453349
0.3101439866
0.3101756502
0.3101721848
0.3101682477
0.3101641312
0.3101600722
0.3101562359
0.3101527211
0.3101495747
0.3101468066
0.3101444035
0.310142339
0.3101405852
0.3101391352
0.310138094
0.3101739626
0.3101698487
0.3101654037
0.3101609425
0.3101566866
0.3101527728
0.310149271
0.3101462032
0.3101435598
0.3101413121
0.3101394221
0.3101378516
0.3101365813
0.3101356851
0.3101756502
0.3101721849
0.3101682478
0.3101641313
0.3101600723
0.310156236
0.3101527212
0.3101495748
0.3101468067
0.3101444036
0.3101423392
0.3101405853
0.3101391353
0.3101380942
0.3101780525
0.3101757911
0.3101730222
0.310169909
0.3101666217
0.3101633091
0.3101600861
0.3101570316
0.3101541935
0.3101515959
0.3101492466
0.3101471494
0.3101453352
0.3101439869
0.3101797153
0.3101784128
0.3101766962
0.3101746119
0.3101722366
0.3101696597
0.3101669694
0.3101642442
0.3101615487
0.3101589334
0.3101564371
0.3101540971
0.3101519866
0.3101503703
0.3101804764
0.3101796491
0.3101784934
0.3101770009
0.3101751932
0.3101731149
0.3101708247
0.3101683873
0.3101658665
0.3101633211
0.3101608044
0.3101583722
0.3101561233
0.3101543712
0.3101806047
0.3101797153
0.3101784128
0.3101766961
0.3101746118
0.3101722365
0.3101696595
0.3101669692
0.3101642439
0.3101615484
0.3101589331
0.3101564368
0.3101540967
0.3101519862
0.3101503699
0.3101780272
0.3101757866
0.3101730823
0.3101700822
0.3101669496
0.3101638183
0.3101607854
0.3101579133
0.3101552374
0.3101527731
0.3101505244
0.310148495
0.3101467191
0.3101453866
0.3101738335
0.310169567
0.3101649813
0.3101604644
0.3101562723
0.3101525371
0.3101492991
0.3101465416
0.3101442182
0.3101422713
0.3101406433
0.3101392855
0.3101381748
0.3101373807
0.3101664952
0.3101595179
0.310152964
0.3101473066
0.3101426916
0.3101390735
0.3101363191
0.3101342704
0.310132777
0.3101317094
0.3101309624
0.3101304534
0.3101301198
0.3101299255
0.310159692
0.3101513832
0.310144428
0.3101389765
0.3101348893
0.3101319312
0.3101298615
0.3101284685
0.3101275795
0.3101270586
0.3101268015
0.3101267276
0.3101267704
0.3101268565
0.3101664953
0.3101595181
0.3101529642
0.3101473068
0.3101426918
0.3101390738
0.3101363194
0.3101342706
0.3101327772
0.3101317096
0.3101309627
0.3101304536
0.31013012
0.3101299257
0.3101738337
0.3101695672
0.3101649816
0.3101604646
0.3101562726
0.3101525374
0.3101492994
0.310146542
0.3101442186
0.3101422716
0.3101406437
0.3101392859
0.3101381752
0.3101373811
0.3101780273
0.3101757867
0.3101730825
0.3101700824
0.3101669498
0.3101638186
0.3101607856
0.3101579137
0.3101552378
0.3101527735
0.3101505249
0.3101484954
0.3101467195
0.3101453871
0.3101797153
0.3101784128
0.3101766962
0.3101746119
0.3101722366
0.3101696597
0.3101669694
0.3101642442
0.3101615487
0.3101589335
0.3101564372
0.3101540972
0.3101519867
0.3101503704
0.3101796971
0.3101780525
0.310175791
0.3101730222
0.3101699089
0.3101666215
0.310163309
0.3101600859
0.3101570314
0.3101541933
0.3101515957
0.3101492464
0.3101471491
0.310145335
0.3101439866
0.3101773202
0.3101738335
0.310169567
0.3101649814
0.3101604644
0.3101562723
0.3101525371
0.3101492991
0.3101465416
0.3101442182
0.3101422713
0.3101406433
0.3101392856
0.3101381748
0.3101373807
0.3101616393
0.3101528401
0.3101449862
0.3101386424
0.3101338897
0.3101305515
0.3101283541
0.310127019
0.3101263043
0.3101260172
0.3101260119
0.3101261802
0.3101264363
0.3101266793
0.3101349503
0.3101204132
0.310110608
0.3101050053
0.3101025474
0.3101022099
0.3101031863
0.3101049037
0.3101069808
0.3101091762
0.3101113422
0.3101133861
0.3101152181
0.3101166081
0.3101005983
0.3100864753
0.3100807253
0.3100800624
0.3100821916
0.3100856936
0.3100897417
0.310093875
0.3100978482
0.3101015405
0.3101048999
0.3101079031
0.3101104991
0.3101124262
0.310134951
0.3101204139
0.3101106087
0.3101050059
0.3101025479
0.3101022104
0.3101031868
0.3101049041
0.3101069812
0.3101091766
0.3101113426
0.3101133864
0.3101152184
0.3101166084
0.3101616399
0.3101528407
0.3101449869
0.310138643
0.3101338904
0.3101305521
0.3101283547
0.3101270196
0.3101263049
0.3101260178
0.3101260124
0.3101261808
0.3101264368
0.3101266799
0.3101738337
0.3101695673
0.3101649816
0.3101604647
0.3101562727
0.3101525376
0.3101492996
0.3101465421
0.3101442187
0.3101422718
0.3101406439
0.3101392861
0.3101381754
0.3101373813
0.3101780525
0.3101757911
0.3101730223
0.310169909
0.3101666217
0.3101633093
0.3101600863
0.3101570318
0.3101541938
0.3101515962
0.3101492469
0.3101471497
0.3101453356
0.3101439872
0.3101783535
0.3101756502
0.3101721849
0.3101682478
0.3101641313
0.3101600723
0.310156236
0.3101527212
0.3101495747
0.3101468066
0.3101444035
0.310142339
0.3101405852
0.3101391352
0.310138094
0.3101729952
0.3101664952
0.3101595179
0.310152964
0.3101473066
0.3101426916
0.3101390735
0.3101363191
0.3101342704
0.310132777
0.3101317094
0.3101309625
0.3101304534
0.3101301198
0.3101299255
0.3101530136
0.3101349503
0.3101204132
0.3101106081
0.3101050053
0.3101025474
0.31010221
0.3101031864
0.3101049037
0.3101069809
0.3101091763
0.3101113423
0.3101133861
0.3101152181
0.3101166082
0.310044747
0.3100273239
0.3100252351
0.3100312326
0.3100406863
0.3100510438
0.3100610477
0.3100701616
0.3100782209
0.3100852375
0.3100912947
0.3100964841
0.3101008226
0.3101039713
0.3098706979
0.3098955107
0.3099317917
0.3099660121
0.3099948044
0.3100181297
0.3100368472
0.3100519046
0.3100641084
0.3100740889
0.3100823206
0.3100891407
0.3100947072
0.3100986858
0.3100447494
0.3100273256
0.3100252363
0.3100312335
0.310040687
0.3100510444
0.3100610482
0.3100701621
0.3100782213
0.3100852378
0.310091295
0.3100964844
0.3101008229
0.3101039716
0.3101349509
0.310120414
0.3101106089
0.3101050062
0.3101025483
0.3101022108
0.3101031872
0.3101049045
0.3101069816
0.3101091769
0.3101113429
0.3101133868
0.3101152187
0.3101166088
0.3101664954
0.3101595182
0.3101529644
0.3101473071
0.3101426922
0.3101390742
0.3101363198
0.3101342711
0.3101327777
0.3101317102
0.3101309632
0.3101304541
0.3101301205
0.3101299262
0.3101756502
0.310172185
0.3101682479
0.3101641315
0.3101600726
0.3101562364
0.3101527216
0.3101495752
0.3101468072
0.3101444041
0.3101423397
0.3101405859
0.3101391359
0.3101380948
0.3101773623
0.3101739626
0.3101698487
0.3101654038
0.3101609425
0.3101566867
0.3101527729
0.3101492711
0.3101462033
0.3101435599
0.3101413121
0.3101394221
0.3101378517
0.3101365813
0.3101356852
0.3101685616
0.3101596921
0.3101513834
0.3101444282
0.3101389767
0.3101348894
0.3101319313
0.3101298616
0.3101284686
0.3101275796
0.3101270587
0.3101268016
0.3101267277
0.3101267705
0.3101268566
0.3101263428
0.3101005985
0.3100864757
0.3100807256
0.3100800627
0.3100821919
0.3100856938
0.3100897419
0.3100938751
0.3100978483
0.3101015406
0.3101049
0.3101079032
0.3101104992
0.3101124263
0.3098996644
0.309870699
0.3098955114
0.3099317923
0.3099660124
0.3099948046
0.3100181299
0.3100368473
0.3100519048
0.3100641085
0.310074089
0.3100823207
0.3100891408
0.3100947073
0.3100986859
0.3091307598
0.3095137909
0.3097240855
0.3098463892
0.3099217915
0.3099709707
0.3100047466
0.3100290168
0.3100471333
0.3100610833
0.3100720903
0.3100809169
0.3100879537
0.3100929094
0.3098706981
0.3098955124
0.3099317934
0.3099660135
0.3099948055
0.3100181306
0.310036848
0.3100519053
0.310064109
0.3100740894
0.3100823211
0.3100891412
0.3100947077
0.3100986862
0.3101005985
0.3100864761
0.3100807263
0.3100800635
0.3100821927
0.3100856946
0.3100897427
0.3100938759
0.310097849
0.3101015413
0.3101049007
0.3101079039
0.3101104999
0.3101124269
0.3101596922
0.3101513836
0.3101444286
0.3101389772
0.31013489
0.310131932
0.3101298623
0.3101284693
0.3101275803
0.3101270595
0.3101268023
0.3101267285
0.3101267713
0.3101268573
0.3101739627
0.3101698488
0.310165404
0.3101609428
0.310156687
0.3101527734
0.3101492716
0.3101462039
0.3101435605
0.3101413129
0.3101394229
0.3101378525
0.3101365821
0.310135686
0.3101783536
0.3101756502
0.3101721849
0.3101682479
0.3101641314
0.3101600724
0.3101562361
0.3101527213
0.3101495749
0.3101468068
0.3101444037
0.3101423392
0.3101405854
0.3101391354
0.3101380943
0.3101729954
0.3101664954
0.3101595182
0.3101529643
0.3101473069
0.310142692
0.3101390739
0.3101363195
0.3101342708
0.3101327773
0.3101317098
0.3101309628
0.3101304537
0.3101301201
0.3101299258
0.3101530144
0.3101349512
0.3101204142
0.3101106089
0.3101050061
0.3101025481
0.3101022106
0.3101031869
0.3101049043
0.3101069814
0.3101091767
0.3101113427
0.3101133865
0.3101152185
0.3101166085
0.3100855928
0.31004475
0.3100273263
0.3100252369
0.310031234
0.3100406874
0.3100510448
0.3100610485
0.3100701623
0.3100782216
0.3100852381
0.3100912952
0.3100964845
0.3101008231
0.3101039717
0.3098996644
0.3098706994
0.3098955134
0.3099317942
0.3099660141
0.309994806
0.3100181311
0.3100368484
0.3100519056
0.3100641093
0.3100740897
0.3100823213
0.3100891413
0.3100947078
0.3100986863
0.3100855922
0.31004475
0.3100273266
0.3100252374
0.3100312346
0.3100406881
0.3100510455
0.3100610492
0.3100701629
0.3100782221
0.3100852386
0.3100912957
0.310096485
0.3101008235
0.3101039721
0.3101349503
0.3101204139
0.310110609
0.3101050064
0.3101025486
0.3101022112
0.3101031876
0.3101049049
0.310106982
0.3101091774
0.3101113433
0.3101133872
0.3101152191
0.3101166092
0.3101664952
0.3101595181
0.3101529644
0.3101473072
0.3101426923
0.3101390744
0.31013632
0.3101342714
0.310132778
0.3101317104
0.3101309635
0.3101304544
0.3101301208
0.3101299265
0.3101756502
0.3101721849
0.3101682479
0.3101641315
0.3101600727
0.3101562364
0.3101527217
0.3101495754
0.3101468074
0.3101444043
0.3101423399
0.3101405861
0.3101391362
0.310138095
0.3101796972
0.3101780525
0.3101757911
0.3101730223
0.310169909
0.3101666217
0.3101633092
0.3101600862
0.3101570317
0.3101541936
0.310151596
0.3101492467
0.3101471495
0.3101453353
0.310143987
0.3101773204
0.3101738337
0.3101695673
0.3101649817
0.3101604647
0.3101562727
0.3101525375
0.3101492996
0.3101465421
0.3101442187
0.3101422717
0.3101406438
0.310139286
0.3101381753
0.3101373812
0.3101701479
0.31016164
0.3101528408
0.310144987
0.3101386432
0.3101338905
0.3101305523
0.3101283549
0.3101270198
0.3101263051
0.3101260179
0.3101260125
0.3101261809
0.3101264369
0.31012668
0.3101530145
0.3101349513
0.3101204145
0.3101106093
0.3101050065
0.3101025486
0.3101022111
0.3101031874
0.3101049047
0.3101069818
0.3101091771
0.3101113431
0.3101133869
0.3101152188
0.3101166089
0.3101263426
0.3101005989
0.3100864765
0.3100807266
0.3100800638
0.310082193
0.3100856949
0.310089743
0.3100938762
0.3100978493
0.3101015415
0.3101049009
0.3101079041
0.3101105
0.310112427
0.3101530144
0.3101349512
0.3101204144
0.3101106094
0.3101050067
0.3101025488
0.3101022113
0.3101031877
0.310104905
0.3101069821
0.3101091774
0.3101113434
0.3101133872
0.3101152192
0.3101166092
0.3101701476
0.3101616397
0.3101528406
0.310144987
0.3101386432
0.3101338907
0.3101305525
0.3101283552
0.3101270202
0.3101263055
0.3101260184
0.310126013
0.3101261814
0.3101264374
0.3101266805
0.3101738335
0.3101695672
0.3101649816
0.3101604648
0.3101562728
0.3101525378
0.3101492999
0.3101465424
0.3101442191
0.3101422722
0.3101406443
0.3101392866
0.3101381759
0.3101373818
0.3101780524
0.310175791
0.3101730223
0.3101699091
0.3101666218
0.3101633094
0.3101600864
0.310157032
0.310154194
0.3101515964
0.3101492472
0.31014715
0.3101453359
0.3101439876
0.3101806048
0.3101797153
0.3101784128
0.3101766963
0.310174612
0.3101722367
0.3101696598
0.3101669695
0.3101642442
0.3101615488
0.3101589335
0.3101564372
0.3101540972
0.3101519867
0.3101503704
0.3101796784
0.3101780274
0.3101757868
0.3101730825
0.3101700825
0.3101669499
0.3101638186
0.3101607857
0.3101579137
0.3101552378
0.3101527736
0.3101505249
0.3101484955
0.3101467196
0.3101453872
0.3101773204
0.3101738337
0.3101695673
0.3101649817
0.3101604648
0.3101562728
0.3101525377
0.3101492997
0.3101465422
0.3101442189
0.3101422719
0.310140644
0.3101392862
0.3101381755
0.3101373814
0.3101729954
0.3101664955
0.3101595184
0.3101529646
0.3101473072
0.3101426923
0.3101390743
0.31013632
0.3101342713
0.3101327778
0.3101317103
0.3101309633
0.3101304542
0.3101301206
0.3101299263
0.3101685616
0.3101596923
0.3101513837
0.3101444287
0.3101389773
0.3101348901
0.3101319321
0.3101298624
0.3101284694
0.3101275804
0.3101270596
0.3101268024
0.3101267286
0.3101267714
0.3101268574
0.3101729954
0.3101664955
0.3101595184
0.3101529646
0.3101473073
0.3101426924
0.3101390744
0.3101363201
0.3101342714
0.310132778
0.3101317105
0.3101309635
0.3101304545
0.3101301209
0.3101299266
0.3101773204
0.3101738337
0.3101695673
0.3101649817
0.3101604649
0.3101562729
0.3101525378
0.3101492999
0.3101465425
0.3101442192
0.3101422723
0.3101406443
0.3101392866
0.3101381759
0.3101373818
0.3101796783
0.3101780273
0.3101757867
0.3101730825
0.3101700825
0.3101669499
0.3101638188
0.3101607859
0.310157914
0.3101552381
0.3101527739
0.3101505253
0.3101484959
0.31014672
0.3101453876
0.3101797153
0.3101784128
0.3101766962
0.3101746119
0.3101722367
0.3101696598
0.3101669696
0.3101642444
0.310161549
0.3101589338
0.3101564375
0.3101540976
0.3101519871
0.3101503709
0.3101810147
0.3101804764
0.3101796492
0.3101784934
0.3101770009
0.3101751933
0.3101731149
0.3101708247
0.3101683873
0.3101658666
0.3101633212
0.3101608045
0.3101583723
0.3101561234
0.3101543713
0.3101806048
0.3101797153
0.3101784128
0.3101766962
0.310174612
0.3101722367
0.3101696598
0.3101669695
0.3101642443
0.3101615488
0.3101589335
0.3101564373
0.3101540973
0.3101519868
0.3101503705
0.3101796972
0.3101780525
0.3101757911
0.3101730223
0.3101699091
0.3101666218
0.3101633093
0.3101600863
0.3101570318
0.3101541938
0.3101515962
0.310149247
0.3101471498
0.3101453356
0.3101439873
0.3101783536
0.3101756503
0.310172185
0.310168248
0.3101641316
0.3101600727
0.3101562364
0.3101527217
0.3101495753
0.3101468073
0.3101444042
0.3101423398
0.310140586
0.310139136
0.3101380949
0.3101773623
0.3101739627
0.3101698489
0.310165404
0.3101609429
0.3101566871
0.3101527734
0.3101492717
0.3101462039
0.3101435606
0.3101413129
0.310139423
0.3101378525
0.3101365822
0.3101356861
0.3101783536
0.3101756503
0.310172185
0.310168248
0.3101641316
0.3101600727
0.3101562365
0.3101527218
0.3101495754
0.3101468074
0.3101444044
0.31014234
0.3101405862
0.3101391362
0.3101380951
0.3101796972
0.3101780525
0.3101757912
0.3101730224
0.3101699092
0.3101666219
0.3101633095
0.3101600865
0.3101570321
0.3101541941
0.3101515965
0.3101492473
0.3101471501
0.310145336
0.3101439877
0.3101806047
0.3101797153
0.3101784128
0.3101766963
0.310174612
0.3101722367
0.3101696599
0.3101669696
0.3101642444
0.3101615491
0.3101589338
0.3101564376
0.3101540976
0.3101519872
0.3101503709
0.3101810147
0.3101804764
0.3101796491
0.3101784934
0.3101770009
0.3101751933
0.310173115
0.3101708248
0.3101683875
0.3101658667
0.3101633214
0.3101608047
0.3101583726
0.3101561238
0.3101543717
)
;

boundaryField
{
    top
    {
        type            zeroGradient;
    }
    bottom
    {
        type            zeroGradient;
    }
    side-walls
    {
        type            zeroGradient;
    }
    inlet
    {
        type            zeroGradient;
    }
    outlet
    {
        type            zeroGradient;
    }
    procBoundary1to0
    {
        type            processor;
        value           nonuniform List<scalar> 
97
(
0.3101810147
0.3101810147
0.3101806047
0.3101796972
0.3101783536
0.3101773624
0.3101783536
0.3101796972
0.3101806048
0.3101810147
0.3101811372
0.3101796783
0.3101796783
0.3101796783
0.3101773204
0.3101729955
0.3101685618
0.3101729956
0.3101773205
0.3101796784
0.3101806048
0.3101807208
0.3101796642
0.3101701475
0.3101701475
0.3101701475
0.3101530145
0.310126344
0.3101530152
0.3101701482
0.3101773205
0.3101796972
0.3101801192
0.3101778265
0.310169927
0.3100855912
0.3100855912
0.3100855912
0.309899671
0.3100855949
0.3101530151
0.3101729956
0.3101783536
0.3101796965
0.3101761225
0.3101613235
0.3101037708
0.308392329
0.308392329
0.308392329
0.3098996707
0.3098996707
0.310126344
0.3101685619
0.3101773624
0.3101801192
0.3101778265
0.3101699271
0.3101473417
0.3101037703
0.3101473418
0.310153014
0.310153014
0.310153014
0.3101729954
0.3101783536
0.3101807208
0.3101796643
0.3101766106
0.3101699271
0.3101613233
0.3101699271
0.3101766105
0.3101773203
0.3101773203
0.3101773203
0.3101796972
0.3101811372
0.3101807145
0.3101796643
0.3101778265
0.3101761225
0.3101778265
0.3101796643
0.3101807145
0.3101806047
0.3101806047
0.3101806047
0.3101813278
0.3101811372
0.3101807208
0.3101801192
0.3101796965
0.3101801192
0.3101807208
0.3101811372
0.3101813278
)
;
    }
}


// ************************************************************************* //
