/*--------------------------------*- C++ -*----------------------------------*\
| =========                 |                                                 |
| \\      /  F ield         | OpenFOAM: The Open Source CFD Toolbox           |
|  \\    /   O peration     | Version:  4.x                                   |
|   \\  /    A nd           | Web:      www.OpenFOAM.org                      |
|    \\/     M anipulation  |                                                 |
\*---------------------------------------------------------------------------*/
FoamFile
{
    version     2.0;
    format      ascii;
    class       volScalarField;
    location    "10000";
    object      CO2;
}
// * * * * * * * * * * * * * * * * * * * * * * * * * * * * * * * * * * * * * //

dimensions      [0 0 0 0 0 0 0];

internalField   nonuniform List<scalar> 
1174
(
0.06498258084
0.0649834853
0.06498474887
0.06498638056
0.06498835688
0.06499062911
0.06499313296
0.06499579775
0.0649985537
0.06500133655
0.06500408809
0.06500674718
0.06500920593
0.06501112154
0.06498341293
0.06498483693
0.06498671365
0.06498899239
0.06499158925
0.06499440655
0.06499734783
0.06500032729
0.0650032742
0.06500613349
0.06500886269
0.06501142102
0.06501372843
0.06501549555
0.06498523082
0.06498770318
0.06499073025
0.06499413391
0.06499772787
0.06500134938
0.06500487308
0.06500821254
0.06501131533
0.0650141553
0.06501672378
0.06501901666
0.06502100008
0.06502247427
0.06498785713
0.06499164564
0.06499594995
0.06500045043
0.06500488799
0.06500908215
0.06501292481
0.06501636477
0.06501939104
0.06502201836
0.06502427542
0.06502619289
0.06502777817
0.0650289165
0.06498970209
0.06499419971
0.06499905923
0.06500393661
0.06500858945
0.06501286829
0.06501669674
0.06502005072
0.06502294074
0.06502539813
0.06502746447
0.06502918145
0.06503057035
0.06503155015
0.06498785711
0.06499164561
0.06499594991
0.06500045038
0.06500488793
0.06500908208
0.06501292474
0.0650163647
0.06501939097
0.06502201828
0.06502427533
0.0650261928
0.06502777808
0.06502891641
0.06498523078
0.06498770312
0.06499073018
0.06499413382
0.06499772777
0.06500134927
0.06500487295
0.06500821241
0.06501131518
0.06501415515
0.06501672362
0.0650190165
0.06502099991
0.0650224741
0.06498341288
0.06498483686
0.06498671356
0.06498899228
0.06499158912
0.0649944064
0.06499734766
0.0650003271
0.06500327399
0.06500613327
0.06500886246
0.06501142078
0.06501372819
0.0650154953
0.06498258081
0.06498348525
0.0649847488
0.06498638048
0.06498835678
0.06499062899
0.06499313282
0.06499579758
0.06499855352
0.06500133635
0.06500408787
0.06500674695
0.06500920568
0.06501112128
0.06498244055
0.06498341293
0.06498483693
0.06498671365
0.06498899239
0.06499158925
0.06499440655
0.06499734783
0.06500032729
0.0650032742
0.06500613349
0.06500886269
0.06501142102
0.06501372843
0.06501549555
0.06498525837
0.06498770797
0.06499066445
0.06499394436
0.0649973692
0.06500079254
0.06500410839
0.0650072483
0.06501017383
0.06501286799
0.06501532643
0.06501754525
0.06501948683
0.06502094361
0.06498984315
0.06499450757
0.06499952096
0.06500445925
0.0650090423
0.06501312589
0.06501666593
0.06501968067
0.0650222208
0.06502434937
0.06502612925
0.06502761366
0.06502882804
0.06502969627
0.06499786586
0.06500549393
0.06501265916
0.06501884425
0.06502388969
0.06502784525
0.06503085659
0.06503309645
0.06503472923
0.06503589641
0.0650367131
0.0650372697
0.06503763446
0.06503784693
0.0650053036
0.06501438736
0.06502199133
0.06502795132
0.06503241982
0.06503565382
0.06503791666
0.06503943958
0.06504041157
0.06504098106
0.06504126223
0.06504134301
0.06504129628
0.06504120227
0.06499786574
0.06500549379
0.065012659
0.06501884408
0.06502388952
0.06502784508
0.06503085644
0.0650330963
0.06503472908
0.06503589627
0.06503671296
0.06503726957
0.06503763434
0.06503784681
0.064989843
0.06499450738
0.06499952076
0.06500445903
0.06500904207
0.06501312565
0.06501666569
0.06501968042
0.06502222056
0.06502434914
0.06502612902
0.06502761343
0.06502882782
0.06502969605
0.06498525827
0.06498770785
0.0649906643
0.0649939442
0.06499736901
0.06500079234
0.06500410817
0.06500724806
0.06501017359
0.06501286773
0.06501532618
0.06501754498
0.06501948657
0.06502094334
0.06498341289
0.06498483687
0.06498671357
0.06498899228
0.06499158912
0.0649944064
0.06499734766
0.0650003271
0.06500327399
0.06500613326
0.06500886244
0.06501142076
0.06501372816
0.06501549528
0.06498343275
0.06498523082
0.06498770318
0.06499073025
0.06499413391
0.06499772787
0.06500134939
0.06500487308
0.06500821255
0.06501131533
0.0650141553
0.06501672378
0.06501901666
0.06502100008
0.06502247427
0.06498603126
0.06498984317
0.06499450758
0.06499952098
0.06500445927
0.06500904233
0.06501312591
0.06501666595
0.06501968068
0.06502222081
0.06502434938
0.06502612926
0.06502761366
0.06502882804
0.06502969628
0.06500317454
0.06501279455
0.06502138094
0.06502831657
0.06503351253
0.06503716219
0.06503956456
0.0650410242
0.06504180559
0.06504211953
0.06504212544
0.0650419414
0.0650416615
0.06504139584
0.0650323527
0.06504824579
0.06505896564
0.06506509108
0.06506777831
0.0650681473
0.06506707992
0.06506520242
0.06506293157
0.06506053149
0.06505816348
0.06505592903
0.06505392622
0.06505240657
0.06506990903
0.06508534943
0.06509163584
0.06509236056
0.06509003284
0.06508620432
0.06508177863
0.0650772599
0.06507291619
0.06506887951
0.06506520678
0.0650619235
0.06505908541
0.06505697868
0.06503235206
0.06504824514
0.06505896504
0.06506509056
0.06506777786
0.06506814693
0.0650670796
0.06506520215
0.06506293134
0.06506053129
0.0650581633
0.06505592887
0.06505392607
0.06505240643
0.06500317397
0.06501279397
0.06502138036
0.065028316
0.06503351199
0.06503716169
0.06503956411
0.06504102379
0.06504180522
0.06504211919
0.06504212512
0.0650419411
0.06504166123
0.06504139558
0.06498984299
0.06499450736
0.06499952072
0.06500445898
0.065009042
0.06501312557
0.06501666561
0.06501968034
0.06502222047
0.06502434904
0.06502612892
0.06502761333
0.06502882772
0.06502969595
0.06498523077
0.0649877031
0.06499073014
0.06499413377
0.0649977277
0.06500134919
0.06500487286
0.0650082123
0.06501131507
0.06501415503
0.06501672349
0.06501901636
0.06502099977
0.06502247396
0.06498490165
0.06498785714
0.06499164564
0.06499594996
0.06500045044
0.065004888
0.06500908216
0.06501292482
0.06501636478
0.06501939105
0.06502201837
0.06502427542
0.06502619289
0.06502777817
0.0650289165
0.06499075966
0.06499786595
0.06500549401
0.06501265924
0.06501884433
0.06502388977
0.06502784532
0.06503085665
0.06503309649
0.06503472926
0.06503589644
0.06503671311
0.06503726971
0.06503763447
0.06503784693
0.06501260459
0.06503235286
0.0650482459
0.06505896571
0.06506509113
0.06506777833
0.06506814729
0.06506707989
0.06506520239
0.06506293153
0.06506053144
0.06505816344
0.06505592899
0.06505392618
0.06505240653
0.06513096911
0.06515001785
0.06515230178
0.06514574505
0.06513540969
0.06512408612
0.0651131492
0.06510318525
0.06509437426
0.06508670329
0.06508008114
0.06507440779
0.06506966457
0.0650662223
0.06532125382
0.06529412685
0.0652544617
0.06521704949
0.06518557166
0.06516007072
0.06513960736
0.06512314546
0.0651098034
0.06509889203
0.06508989253
0.06508243628
0.0650763506
0.06507200095
0.06513096703
0.06515001638
0.06515230076
0.06514574435
0.06513540922
0.06512408581
0.06511314899
0.06510318511
0.06509437415
0.0650867032
0.06508008106
0.06507440772
0.0650696645
0.06506622222
0.06503235212
0.0650482451
0.06505896493
0.06506509041
0.06506777769
0.06506814674
0.06506707941
0.06506520197
0.06506293116
0.06506053111
0.06505816314
0.06505592871
0.06505392592
0.06505240628
0.06499786566
0.06500549364
0.06501265881
0.06501884386
0.06502388928
0.06502784483
0.06503085617
0.06503309603
0.06503472882
0.06503589602
0.06503671271
0.06503726932
0.0650376341
0.06503784657
0.06498785706
0.06499164553
0.06499594979
0.06500045023
0.06500488775
0.06500908187
0.0650129245
0.06501636445
0.0650193907
0.06502201801
0.06502427506
0.06502619253
0.0650277778
0.06502891613
0.06498598531
0.06498970208
0.06499419968
0.0649990592
0.06500393658
0.06500858942
0.06501286827
0.06501669672
0.0650200507
0.06502294072
0.06502539812
0.06502746445
0.06502918143
0.06503057033
0.06503155013
0.06499560684
0.06500530357
0.06501438727
0.06502199125
0.06502795126
0.06503241976
0.06503565378
0.06503791662
0.06503943955
0.06504041154
0.06504098103
0.06504126221
0.06504134299
0.06504129625
0.06504120224
0.06504176337
0.06506990904
0.06508534922
0.06509163565
0.06509236041
0.06509003273
0.06508620424
0.06508177855
0.06507725983
0.06507291613
0.06506887946
0.06506520673
0.06506192345
0.06505908537
0.06505697864
0.06528958538
0.06532125329
0.06529412643
0.06525446142
0.06521704931
0.06518557152
0.06516007062
0.06513960728
0.06512314539
0.06510980334
0.06509889197
0.06508989248
0.06508243624
0.06507635056
0.06507200091
0.06613021373
0.0657114545
0.06548154389
0.06534783174
0.06526539596
0.06521162932
0.06517470275
0.06514816869
0.06512836223
0.06511311101
0.06510107731
0.06509142745
0.06508373426
0.06507831639
0.06532125364
0.06529412549
0.06525446062
0.06521704872
0.0651855711
0.0651600703
0.06513960703
0.06512314518
0.06510980316
0.06509889182
0.06508989234
0.06508243611
0.06507635044
0.06507200079
0.06506990873
0.06508534876
0.06509163515
0.06509235993
0.06509003228
0.06508620383
0.06508177819
0.0650772595
0.06507291583
0.06506887918
0.06506520647
0.06506192321
0.06505908514
0.06505697841
0.06500530337
0.06501438699
0.0650219909
0.06502795086
0.06503241934
0.06503565335
0.0650379162
0.06503943914
0.06504041114
0.06504098065
0.06504126184
0.06504134263
0.06504129591
0.06504120191
0.064989702
0.06499419956
0.06499905902
0.06500393635
0.06500858914
0.06501286795
0.06501669638
0.06502005034
0.06502294035
0.06502539774
0.06502746407
0.06502918105
0.06503056995
0.06503154975
0.06498490164
0.0649878571
0.06499164559
0.06499594989
0.06500045037
0.06500488792
0.06500908207
0.06501292472
0.06501636469
0.06501939095
0.06502201827
0.06502427532
0.06502619279
0.06502777806
0.06502891639
0.06499075951
0.06499786572
0.06500549373
0.06501265893
0.06501884402
0.06502388947
0.06502784503
0.06503085639
0.06503309626
0.06503472904
0.06503589623
0.06503671293
0.06503726953
0.0650376343
0.06503784678
0.06501260395
0.06503235214
0.06504824513
0.06505896501
0.06506509052
0.06506777782
0.06506814687
0.06506707954
0.06506520208
0.06506293127
0.06506053121
0.06505816323
0.0650559288
0.06505392601
0.06505240637
0.06508631416
0.06513096693
0.0651500161
0.06515230049
0.0651457441
0.06513540899
0.0651240856
0.0651131488
0.06510318493
0.06509437399
0.06508670306
0.06508008094
0.06507440761
0.0650696644
0.06506622214
0.06528958548
0.06532125302
0.06529412492
0.06525446012
0.06521704829
0.06518557071
0.06516006997
0.06513960675
0.06512314495
0.06510980296
0.06509889164
0.06508989219
0.06508243599
0.06507635033
0.0650720007
0.06508631465
0.06513096696
0.06515001597
0.06515230028
0.06514574385
0.06513540871
0.06512408531
0.06511314852
0.06510318467
0.06509437375
0.06508670284
0.06508008073
0.06507440741
0.06506966422
0.06506622197
0.06503235269
0.06504824534
0.06505896502
0.06506509041
0.06506777764
0.06506814665
0.0650670793
0.06506520184
0.06506293102
0.06506053097
0.065058163
0.06505592857
0.06505392578
0.06505240614
0.0649978658
0.06500549374
0.06501265887
0.06501884388
0.06502388928
0.0650278448
0.06503085613
0.06503309598
0.06503472876
0.06503589594
0.06503671263
0.06503726924
0.06503763401
0.06503784648
0.0649878571
0.06499164556
0.06499594982
0.06500045025
0.06500488775
0.06500908186
0.06501292448
0.06501636442
0.06501939067
0.06502201796
0.065024275
0.06502619247
0.06502777774
0.06502891606
0.06498343272
0.06498523077
0.0649877031
0.06499073015
0.06499413379
0.06499772774
0.06500134924
0.06500487292
0.06500821238
0.06501131515
0.06501415512
0.06501672359
0.06501901647
0.06502099988
0.06502247407
0.06498603114
0.06498984299
0.06499450735
0.06499952072
0.065004459
0.06500904204
0.06501312562
0.06501666566
0.0650196804
0.06502222053
0.06502434911
0.06502612899
0.0650276134
0.06502882779
0.06502969602
0.06499387254
0.06500317397
0.06501279393
0.06502138032
0.06502831597
0.06503351196
0.06503716166
0.06503956407
0.06504102374
0.06504180518
0.06504211915
0.06504212508
0.06504194106
0.06504166119
0.06504139554
0.06501260388
0.06503235198
0.06504824491
0.06505896476
0.06506509027
0.06506777757
0.06506814664
0.06506707933
0.06506520189
0.06506293109
0.06506053105
0.06505816308
0.06505592866
0.06505392587
0.06505240623
0.06504176352
0.0650699088
0.06508534875
0.0650916351
0.06509235984
0.06509003216
0.0650862037
0.06508177805
0.06507725937
0.06507291571
0.06506887906
0.06506520636
0.06506192311
0.06505908504
0.06505697833
0.06501260401
0.06503235213
0.06504824504
0.06505896486
0.06506509032
0.06506777758
0.06506814661
0.06506707926
0.06506520181
0.06506293099
0.06506053094
0.06505816296
0.06505592854
0.06505392576
0.06505240612
0.06499387276
0.06500317421
0.06501279415
0.06502138048
0.06502831607
0.065033512
0.06503716165
0.06503956402
0.06504102366
0.06504180507
0.06504211902
0.06504212493
0.06504194091
0.06504166102
0.06504139537
0.06498984314
0.06499450747
0.0649995208
0.06500445902
0.06500904202
0.06501312556
0.06501666557
0.06501968028
0.06502222039
0.06502434895
0.06502612881
0.06502761321
0.06502882759
0.06502969581
0.06498523082
0.06498770314
0.06499073018
0.0649941338
0.06499772771
0.06500134918
0.06500487283
0.06500821226
0.06501131501
0.06501415495
0.06501672341
0.06501901627
0.06502099966
0.06502247384
0.06498244051
0.06498341288
0.06498483685
0.06498671355
0.06498899226
0.0649915891
0.06499440638
0.06499734764
0.06500032708
0.06500327397
0.06500613324
0.06500886243
0.06501142075
0.06501372816
0.06501549528
0.0649834533
0.06498525826
0.06498770784
0.06499066429
0.06499394418
0.06499736899
0.06500079232
0.06500410815
0.06500724805
0.06501017357
0.06501286771
0.06501532616
0.06501754496
0.06501948654
0.06502094332
0.06498603114
0.06498984299
0.06499450735
0.06499952071
0.06500445897
0.065009042
0.06501312557
0.0650166656
0.06501968033
0.06502222046
0.06502434903
0.06502612891
0.06502761332
0.0650288277
0.06502969594
0.0649907595
0.06499786566
0.06500549363
0.06501265879
0.06501884385
0.06502388927
0.06502784482
0.06503085616
0.06503309602
0.06503472881
0.065035896
0.06503671269
0.0650372693
0.06503763408
0.06503784655
0.06499560681
0.06500530345
0.06501438707
0.06502199097
0.06502795093
0.0650324194
0.0650356534
0.06503791624
0.06503943917
0.06504041116
0.06504098066
0.06504126184
0.06504134262
0.0650412959
0.06504120189
0.06499075953
0.06499786571
0.06500549368
0.06501265885
0.06501884389
0.0650238893
0.06502784483
0.06503085616
0.06503309601
0.06503472878
0.06503589596
0.06503671265
0.06503726925
0.06503763401
0.06503784648
0.06498603117
0.06498984303
0.06499450738
0.06499952073
0.06500445898
0.06500904199
0.06501312554
0.06501666555
0.06501968026
0.06502222038
0.06502434893
0.0650261288
0.0650276132
0.06502882758
0.0650296958
0.06498345334
0.06498525831
0.06498770788
0.06499066433
0.06499394421
0.064997369
0.06500079231
0.06500410812
0.06500724799
0.06501017349
0.06501286762
0.06501532604
0.06501754483
0.0650194864
0.06502094316
0.06498341293
0.0649848369
0.0649867136
0.0649889923
0.06499158913
0.06499440639
0.06499734764
0.06500032706
0.06500327393
0.06500613318
0.06500886235
0.06501142065
0.06501372803
0.06501549513
0.06498199235
0.0649825808
0.06498348525
0.06498474879
0.06498638047
0.06498835677
0.06499062898
0.0649931328
0.06499579756
0.0649985535
0.06500133633
0.06500408785
0.06500674693
0.06500920565
0.06501112125
0.06498244052
0.06498341289
0.06498483686
0.06498671356
0.06498899227
0.06499158911
0.06499440639
0.06499734764
0.06500032708
0.06500327397
0.06500613324
0.06500886242
0.06501142074
0.06501372814
0.06501549525
0.06498343272
0.06498523077
0.06498770309
0.06499073014
0.06499413377
0.0649977277
0.06500134918
0.06500487286
0.0650082123
0.06501131506
0.06501415502
0.06501672349
0.06501901636
0.06502099977
0.06502247395
0.06498490162
0.06498785707
0.06499164553
0.0649959498
0.06500045024
0.06500488777
0.06500908189
0.06501292452
0.06501636447
0.06501939072
0.06502201803
0.06502427507
0.06502619254
0.06502777781
0.06502891614
0.0649859853
0.06498970203
0.06499419959
0.06499905906
0.06500393639
0.06500858919
0.065012868
0.06501669643
0.06502005038
0.06502294039
0.06502539777
0.06502746409
0.06502918107
0.06503056997
0.06503154976
0.06498490162
0.06498785707
0.06499164553
0.0649959498
0.06500045024
0.06500488776
0.06500908187
0.0650129245
0.06501636443
0.06501939068
0.06502201798
0.06502427501
0.06502619248
0.06502777774
0.06502891607
0.06498343272
0.06498523076
0.06498770307
0.06499073011
0.06499413373
0.06499772764
0.06500134911
0.06500487277
0.0650082122
0.06501131496
0.0650141549
0.06501672336
0.06501901622
0.06502099963
0.0650224738
0.06498244052
0.06498341289
0.06498483687
0.06498671356
0.06498899227
0.06499158909
0.06499440635
0.0649973476
0.06500032702
0.06500327389
0.06500613314
0.06500886231
0.06501142062
0.06501372801
0.06501549511
0.06498199236
0.06498258082
0.06498348527
0.06498474882
0.06498638049
0.06498835678
0.06499062898
0.0649931328
0.06499579755
0.06499855347
0.06500133628
0.06500408778
0.06500674684
0.06500920555
0.06501112114
)
;

boundaryField
{
    top
    {
        type            zeroGradient;
    }
    bottom
    {
        type            zeroGradient;
    }
    side-walls
    {
        type            zeroGradient;
    }
    inlet
    {
        type            zeroGradient;
    }
    outlet
    {
        type            zeroGradient;
    }
    procBoundary1to0
    {
        type            processor;
        value           nonuniform List<scalar> 
97
(
0.06498199237
0.06498199237
0.06498244053
0.06498343272
0.0649849016
0.06498598526
0.06498490159
0.0649834327
0.0649824405
0.06498199234
0.06498185842
0.06498345335
0.06498345335
0.06498345335
0.06498603118
0.06499075948
0.0649956067
0.0649907594
0.06498603107
0.06498345327
0.0649824405
0.06498231368
0.06498346874
0.06499387283
0.06499387283
0.06499387283
0.06501260402
0.06504176298
0.06501260347
0.06499387235
0.06498603107
0.06498343269
0.0649829714
0.0649854779
0.06499411409
0.065086316
0.065086316
0.065086316
0.06528958433
0.06508631324
0.06501260355
0.06499075936
0.06498490157
0.06498343348
0.06498734081
0.06500352005
0.06506644146
0.06693757219
0.06693757219
0.06693757219
0.06528958434
0.06528958434
0.06504176282
0.06499560658
0.06498598522
0.06498297139
0.06498547785
0.06499411394
0.06501880578
0.06506644161
0.0650188059
0.06501260428
0.06501260428
0.06501260428
0.06499075949
0.0649849016
0.06498231367
0.06498346871
0.06498680715
0.06499411392
0.06500352016
0.06499411399
0.06498680721
0.06498603122
0.06498603122
0.06498603122
0.06498343273
0.06498185841
0.06498232055
0.06498346872
0.06498547785
0.06498734081
0.06498547787
0.06498346872
0.06498232056
0.06498244054
0.06498244054
0.06498244054
0.06498165004
0.06498185842
0.06498231367
0.06498297139
0.06498343348
0.06498297139
0.06498231367
0.06498185842
0.06498165004
)
;
    }
}


// ************************************************************************* //
