/*--------------------------------*- C++ -*----------------------------------*\
| =========                 |                                                 |
| \\      /  F ield         | OpenFOAM: The Open Source CFD Toolbox           |
|  \\    /   O peration     | Version:  4.x                                   |
|   \\  /    A nd           | Web:      www.OpenFOAM.org                      |
|    \\/     M anipulation  |                                                 |
\*---------------------------------------------------------------------------*/
FoamFile
{
    version     2.0;
    format      ascii;
    class       volScalarField;
    location    "10000";
    object      Cpv;
}
// * * * * * * * * * * * * * * * * * * * * * * * * * * * * * * * * * * * * * //

dimensions      [0 2 -2 -1 0 0 0];

internalField   nonuniform List<scalar> 
1174
(
1277.532936
1277.532827
1277.532684
1277.532487
1277.532249
1277.531988
1277.531687
1277.531354
1277.531037
1277.530712
1277.530373
1277.530042
1277.529756
1277.529534
1277.533494
1277.533355
1277.533098
1277.532848
1277.532567
1277.532229
1277.531899
1277.531597
1277.531259
1277.530953
1277.530652
1277.530354
1277.530095
1277.529871
1277.532264
1277.531965
1277.531621
1277.531231
1277.530812
1277.53036
1277.529946
1277.529551
1277.529211
1277.528875
1277.528579
1277.52835
1277.528125
1277.527949
1277.532003
1277.531578
1277.531089
1277.530548
1277.530023
1277.52953
1277.529071
1277.528638
1277.528314
1277.527996
1277.527706
1277.527502
1277.527321
1277.527198
1277.532242
1277.531701
1277.531133
1277.530558
1277.530016
1277.529504
1277.529061
1277.528664
1277.528351
1277.528076
1277.527845
1277.52763
1277.52747
1277.527335
1277.532474
1277.532042
1277.531534
1277.531017
1277.530482
1277.530002
1277.529564
1277.529128
1277.528762
1277.528468
1277.528199
1277.527974
1277.527782
1277.527649
1277.53275
1277.532485
1277.532104
1277.531697
1277.531272
1277.530859
1277.530442
1277.530085
1277.529742
1277.52942
1277.529096
1277.528837
1277.528599
1277.528437
1277.532363
1277.532198
1277.532009
1277.531715
1277.531438
1277.531107
1277.530728
1277.530373
1277.530015
1277.529686
1277.529372
1277.529058
1277.528783
1277.528597
1277.532796
1277.532661
1277.532513
1277.53233
1277.532099
1277.531826
1277.531531
1277.531229
1277.530916
1277.530593
1277.530283
1277.529947
1277.529641
1277.529414
1277.533628
1277.533512
1277.533336
1277.533121
1277.532889
1277.53258
1277.53226
1277.531906
1277.531581
1277.531236
1277.530914
1277.530578
1277.53029
1277.530048
1277.52986
1277.532784
1277.532487
1277.532139
1277.531763
1277.531371
1277.53096
1277.530561
1277.530199
1277.529838
1277.529539
1277.52924
1277.528986
1277.528748
1277.528591
1277.531698
1277.531198
1277.530614
1277.530064
1277.529552
1277.529072
1277.528694
1277.528337
1277.528037
1277.527761
1277.527518
1277.527346
1277.527192
1277.527077
1277.531091
1277.530234
1277.529408
1277.528667
1277.52807
1277.527591
1277.527256
1277.527004
1277.526811
1277.526655
1277.526586
1277.52651
1277.526487
1277.52645
1277.531644
1277.530578
1277.529704
1277.529005
1277.528495
1277.528149
1277.52789
1277.527729
1277.527592
1277.527511
1277.527492
1277.527467
1277.527472
1277.527501
1277.532321
1277.531423
1277.530558
1277.529837
1277.529261
1277.528808
1277.528448
1277.528166
1277.527986
1277.527841
1277.527755
1277.527684
1277.527645
1277.527604
1277.532408
1277.531869
1277.531304
1277.530701
1277.530177
1277.529665
1277.529249
1277.528892
1277.528581
1277.5283
1277.528092
1277.527889
1277.527772
1277.527702
1277.532156
1277.531878
1277.531516
1277.531137
1277.530736
1277.530311
1277.529939
1277.529575
1277.529257
1277.528934
1277.528658
1277.528433
1277.528231
1277.528048
1277.533603
1277.53343
1277.533207
1277.532938
1277.532647
1277.532318
1277.531993
1277.531623
1277.531282
1277.530984
1277.530671
1277.53036
1277.530114
1277.5299
1277.53233
1277.532119
1277.531834
1277.531502
1277.531089
1277.530705
1277.530284
1277.529852
1277.529442
1277.529092
1277.528797
1277.528495
1277.528254
1277.528033
1277.527843
1277.531916
1277.531471
1277.530938
1277.530367
1277.529801
1277.529245
1277.528768
1277.528348
1277.527964
1277.52769
1277.527447
1277.527252
1277.527094
1277.526963
1277.526877
1277.5312
1277.5301
1277.529113
1277.528267
1277.527673
1277.527257
1277.526973
1277.526811
1277.526707
1277.526667
1277.526669
1277.526685
1277.526716
1277.526714
1277.526447
1277.524591
1277.523337
1277.522633
1277.52229
1277.522218
1277.522363
1277.52258
1277.522844
1277.523148
1277.523437
1277.523706
1277.523943
1277.52415
1277.523334
1277.521513
1277.520759
1277.520689
1277.520971
1277.521458
1277.521954
1277.522483
1277.523018
1277.523522
1277.523926
1277.524318
1277.524614
1277.524835
1277.526102
1277.524238
1277.522986
1277.522271
1277.521935
1277.521906
1277.522029
1277.522248
1277.522521
1277.522823
1277.523106
1277.523361
1277.523575
1277.523737
1277.529353
1277.528235
1277.527211
1277.526415
1277.525816
1277.525351
1277.525076
1277.5249
1277.52481
1277.524773
1277.524758
1277.524779
1277.524827
1277.5248
1277.532894
1277.532362
1277.531784
1277.531223
1277.530697
1277.530217
1277.529789
1277.529432
1277.529117
1277.528871
1277.52867
1277.528488
1277.528356
1277.528268
1277.532942
1277.53264
1277.532292
1277.531872
1277.531451
1277.531047
1277.530643
1277.530237
1277.529878
1277.529529
1277.529224
1277.528973
1277.528732
1277.528555
1277.531875
1277.53152
1277.53108
1277.530584
1277.530063
1277.52954
1277.529052
1277.528589
1277.528197
1277.527826
1277.527506
1277.527224
1277.526971
1277.526797
1277.526665
1277.533254
1277.532444
1277.53157
1277.530722
1277.530006
1277.52945
1277.528992
1277.528645
1277.528397
1277.528217
1277.528072
1277.527982
1277.527949
1277.527898
1277.527891
1277.530615
1277.528279
1277.526406
1277.52515
1277.52443
1277.52411
1277.524064
1277.524177
1277.524393
1277.524672
1277.524952
1277.525228
1277.525495
1277.525739
1277.525918
1277.517285
1277.515066
1277.514789
1277.515566
1277.516773
1277.518111
1277.519384
1277.520533
1277.521571
1277.522432
1277.523212
1277.523877
1277.524419
1277.524836
1277.493275
1277.496448
1277.501098
1277.505482
1277.509163
1277.512176
1277.51456
1277.516473
1277.518025
1277.519322
1277.520391
1277.521238
1277.521953
1277.522475
1277.514649
1277.512421
1277.512168
1277.512947
1277.514157
1277.51552
1277.51681
1277.517959
1277.518993
1277.519907
1277.520678
1277.521354
1277.521917
1277.522321
1277.52765
1277.525761
1277.524491
1277.523759
1277.523429
1277.523383
1277.523515
1277.523731
1277.52399
1277.524255
1277.524545
1277.524795
1277.525037
1277.525215
1277.530898
1277.530055
1277.529231
1277.528493
1277.527903
1277.527438
1277.527073
1277.526816
1277.52661
1277.526487
1277.526378
1277.526294
1277.526233
1277.526189
1277.532718
1277.53227
1277.531764
1277.531208
1277.530674
1277.53017
1277.529697
1277.529325
1277.528973
1277.528644
1277.528397
1277.528169
1277.527982
1277.527868
1277.532704
1277.532244
1277.531699
1277.531156
1277.530564
1277.530012
1277.529508
1277.529049
1277.528648
1277.528317
1277.52803
1277.527792
1277.527597
1277.527427
1277.527346
1277.532519
1277.531411
1277.530335
1277.529397
1277.52875
1277.52822
1277.527809
1277.527523
1277.52737
1277.527259
1277.527219
1277.527174
1277.527173
1277.527179
1277.527157
1277.526312
1277.523011
1277.521195
1277.520479
1277.520401
1277.52066
1277.521091
1277.521604
1277.522131
1277.522676
1277.523169
1277.523573
1277.523935
1277.524269
1277.524514
1277.496847
1277.493192
1277.496373
1277.501014
1277.505399
1277.509095
1277.512101
1277.514506
1277.51644
1277.517977
1277.519241
1277.520313
1277.521212
1277.521909
1277.522395
1276.922362
1276.971351
1276.998076
1277.013485
1277.022854
1277.028826
1277.032826
1277.035616
1277.037592
1277.039043
1277.04013
1277.040897
1277.04144
1277.041699
1277.492998
1277.496188
1277.500826
1277.505224
1277.508897
1277.51188
1277.514286
1277.516216
1277.517762
1277.51905
1277.520124
1277.521006
1277.521708
1277.522226
1277.522054
1277.520232
1277.51951
1277.519431
1277.519714
1277.520158
1277.520699
1277.521221
1277.521734
1277.522191
1277.522616
1277.522998
1277.523347
1277.523574
1277.529411
1277.528348
1277.527457
1277.526747
1277.526233
1277.525866
1277.525586
1277.525412
1277.525324
1277.525251
1277.525227
1277.525246
1277.525219
1277.525225
1277.531857
1277.531313
1277.530753
1277.530191
1277.529655
1277.52917
1277.528727
1277.528335
1277.528003
1277.527711
1277.527455
1277.527262
1277.527104
1277.527
1277.533763
1277.533424
1277.53296
1277.532473
1277.531958
1277.531441
1277.530958
1277.530529
1277.530132
1277.529783
1277.529482
1277.529213
1277.528982
1277.528791
1277.528666
1277.532116
1277.531261
1277.530361
1277.529503
1277.52876
1277.528181
1277.527712
1277.527397
1277.527099
1277.526888
1277.526724
1277.526609
1277.526533
1277.526499
1277.526452
1277.529913
1277.527607
1277.525741
1277.524512
1277.523787
1277.523501
1277.523452
1277.523566
1277.523776
1277.524044
1277.524344
1277.524626
1277.524907
1277.525177
1277.525373
1277.520755
1277.51551
1277.513317
1277.513037
1277.513781
1277.514987
1277.516312
1277.517605
1277.518773
1277.519831
1277.520688
1277.521458
1277.52212
1277.522697
1277.52311
1277.497472
1277.493779
1277.496962
1277.501594
1277.505999
1277.509687
1277.512685
1277.515077
1277.51703
1277.518602
1277.519866
1277.520956
1277.521852
1277.522552
1277.523034
1277.522144
1277.516889
1277.514654
1277.514409
1277.51518
1277.516377
1277.517689
1277.518987
1277.520152
1277.521179
1277.522106
1277.522892
1277.523552
1277.524099
1277.524514
1277.527285
1277.525446
1277.524209
1277.5235
1277.523195
1277.523147
1277.523265
1277.523487
1277.523739
1277.52401
1277.524283
1277.524556
1277.524771
1277.524937
1277.530577
1277.529681
1277.528843
1277.528116
1277.527533
1277.527076
1277.526715
1277.526461
1277.526281
1277.526132
1277.526011
1277.525948
1277.525888
1277.525862
1277.53256
1277.532108
1277.531592
1277.531071
1277.530551
1277.530057
1277.529609
1277.529202
1277.528833
1277.528517
1277.528283
1277.528073
1277.527895
1277.527744
1277.532423
1277.532233
1277.53196
1277.531607
1277.531224
1277.530798
1277.530359
1277.529931
1277.529526
1277.529167
1277.528823
1277.52854
1277.528283
1277.52805
1277.527876
1277.532961
1277.53251
1277.531955
1277.531344
1277.530766
1277.530228
1277.52975
1277.52932
1277.528984
1277.528686
1277.528416
1277.528211
1277.528031
1277.527891
1277.527779
1277.530989
1277.529881
1277.528754
1277.527736
1277.526926
1277.526292
1277.525857
1277.525576
1277.525412
1277.52533
1277.525299
1277.525271
1277.525321
1277.525342
1277.525362
1277.528581
1277.526267
1277.524417
1277.523155
1277.522429
1277.522134
1277.522081
1277.522191
1277.522429
1277.522672
1277.522961
1277.523244
1277.523515
1277.523745
1277.523934
1277.527466
1277.524175
1277.522339
1277.521627
1277.521522
1277.521832
1277.522288
1277.52278
1277.523297
1277.523822
1277.524279
1277.524663
1277.525055
1277.525388
1277.525644
1277.529625
1277.527291
1277.525429
1277.524165
1277.523431
1277.523124
1277.523078
1277.523227
1277.523441
1277.523725
1277.523999
1277.524309
1277.524573
1277.52483
1277.525016
1277.532146
1277.531066
1277.529953
1277.528941
1277.528136
1277.52756
1277.527125
1277.526878
1277.526681
1277.526602
1277.526559
1277.526528
1277.526561
1277.52658
1277.526606
1277.532544
1277.532006
1277.5314
1277.530836
1277.530303
1277.52981
1277.529389
1277.529045
1277.528748
1277.52851
1277.528321
1277.528148
1277.528043
1277.527947
1277.532474
1277.532182
1277.531839
1277.53146
1277.531026
1277.530612
1277.530196
1277.529821
1277.52944
1277.529116
1277.528786
1277.528503
1277.528254
1277.528094
1277.532443
1277.532347
1277.532141
1277.531925
1277.531643
1277.531367
1277.531051
1277.530709
1277.53036
1277.53001
1277.529699
1277.52936
1277.529097
1277.528847
1277.528639
1277.532395
1277.532163
1277.531863
1277.531491
1277.531132
1277.530736
1277.530321
1277.529929
1277.529568
1277.529218
1277.52892
1277.528611
1277.528356
1277.528112
1277.527946
1277.53344
1277.532998
1277.53247
1277.531886
1277.531292
1277.53077
1277.530274
1277.529878
1277.529502
1277.529203
1277.528953
1277.528719
1277.52853
1277.5284
1277.528302
1277.53258
1277.531752
1277.530877
1277.530051
1277.529345
1277.528744
1277.528261
1277.5279
1277.527661
1277.527447
1277.527325
1277.527249
1277.527191
1277.527129
1277.527111
1277.531743
1277.530594
1277.529533
1277.528658
1277.527957
1277.527425
1277.527038
1277.526796
1277.526613
1277.526475
1277.526431
1277.526398
1277.526438
1277.526489
1277.526479
1277.53272
1277.531901
1277.531006
1277.530173
1277.529463
1277.528876
1277.528426
1277.52807
1277.527829
1277.527633
1277.527501
1277.5274
1277.527337
1277.527279
1277.527259
1277.532011
1277.531571
1277.530974
1277.530371
1277.529801
1277.529263
1277.528769
1277.528358
1277.528004
1277.52769
1277.527441
1277.527204
1277.527046
1277.52687
1277.526761
1277.532808
1277.532591
1277.532296
1277.531952
1277.531548
1277.531128
1277.530785
1277.530378
1277.530008
1277.529646
1277.529318
1277.529033
1277.52878
1277.528559
1277.528402
1277.53342
1277.533233
1277.533012
1277.532738
1277.53243
1277.532109
1277.531765
1277.531431
1277.531098
1277.530749
1277.530427
1277.530122
1277.52989
1277.529684
1277.5328
1277.532734
1277.532639
1277.53251
1277.532322
1277.532088
1277.531842
1277.531538
1277.531223
1277.530897
1277.530538
1277.530223
1277.529911
1277.52963
1277.529415
1277.533455
1277.533341
1277.533169
1277.532963
1277.532694
1277.532397
1277.532067
1277.531729
1277.53138
1277.531042
1277.530704
1277.530386
1277.530091
1277.529826
1277.529635
1277.533044
1277.532824
1277.532503
1277.532142
1277.531733
1277.531311
1277.530919
1277.530483
1277.530083
1277.529738
1277.529398
1277.529105
1277.528822
1277.528582
1277.528414
1277.533016
1277.532673
1277.53225
1277.531754
1277.531212
1277.530708
1277.53025
1277.529764
1277.529358
1277.52902
1277.528715
1277.528449
1277.528215
1277.52806
1277.527942
1277.532743
1277.532301
1277.531768
1277.531199
1277.530611
1277.53007
1277.529546
1277.529077
1277.528679
1277.528349
1277.528019
1277.527763
1277.527562
1277.527376
1277.52725
1277.532659
1277.532284
1277.531817
1277.531338
1277.530803
1277.530259
1277.529788
1277.529324
1277.528933
1277.528581
1277.528275
1277.527975
1277.527765
1277.527552
1277.527434
1277.531338
1277.531137
1277.530852
1277.530513
1277.530117
1277.529678
1277.529236
1277.52883
1277.528429
1277.528072
1277.527736
1277.527449
1277.527183
1277.52694
1277.526771
1277.533049
1277.532927
1277.53276
1277.532526
1277.532245
1277.531933
1277.531603
1277.531261
1277.530898
1277.530576
1277.530232
1277.529918
1277.529613
1277.529356
1277.529145
1277.533119
1277.533058
1277.532955
1277.532819
1277.532646
1277.53242
1277.532167
1277.531863
1277.531565
1277.531232
1277.530911
1277.530585
1277.530296
1277.530013
1277.529772
)
;

boundaryField
{
    top
    {
        type            calculated;
        value           nonuniform List<scalar> 
127
(
1277.533119
1277.532796
1277.533603
1277.532942
1277.532718
1277.531857
1277.53256
1277.532474
1277.53342
1277.533058
1277.532661
1277.53343
1277.53264
1277.53227
1277.531313
1277.532108
1277.532182
1277.533233
1277.532955
1277.532513
1277.533207
1277.532292
1277.531764
1277.530753
1277.531592
1277.531839
1277.533012
1277.532819
1277.53233
1277.532938
1277.531872
1277.531208
1277.530191
1277.531071
1277.53146
1277.532738
1277.532646
1277.532099
1277.532647
1277.531451
1277.530674
1277.529655
1277.530551
1277.531026
1277.53243
1277.53242
1277.531826
1277.532318
1277.531047
1277.53017
1277.52917
1277.530057
1277.530612
1277.532109
1277.532167
1277.531531
1277.531993
1277.530643
1277.529697
1277.528727
1277.529609
1277.530196
1277.531765
1277.531863
1277.531229
1277.531623
1277.530237
1277.529325
1277.528335
1277.529202
1277.529821
1277.531431
1277.531565
1277.530916
1277.531282
1277.529878
1277.528973
1277.528003
1277.528833
1277.52944
1277.531098
1277.531232
1277.530593
1277.530984
1277.529529
1277.528644
1277.527711
1277.528517
1277.529116
1277.530749
1277.530911
1277.530283
1277.530671
1277.529224
1277.528397
1277.527455
1277.528283
1277.528786
1277.530427
1277.530585
1277.529947
1277.53036
1277.528973
1277.528169
1277.527262
1277.528073
1277.528503
1277.530122
1277.530296
1277.529641
1277.530114
1277.528732
1277.527982
1277.527104
1277.527895
1277.528254
1277.52989
1277.530013
1277.529414
1277.5299
1277.528555
1277.527868
1277.527
1277.527744
1277.528094
1277.529684
1277.529772
)
;
    }
    bottom
    {
        type            calculated;
        value           nonuniform List<scalar> 
134
(
1277.533628
1277.53233
1277.531875
1277.532704
1277.533763
1277.532423
1277.532443
1277.5328
1277.532936
1277.533512
1277.532119
1277.53152
1277.532244
1277.533424
1277.532233
1277.532347
1277.532734
1277.532827
1277.533336
1277.531834
1277.53108
1277.531699
1277.53296
1277.53196
1277.532141
1277.532639
1277.532684
1277.533121
1277.531502
1277.530584
1277.531156
1277.532473
1277.531607
1277.531925
1277.53251
1277.532487
1277.532889
1277.531089
1277.530063
1277.530564
1277.531958
1277.531224
1277.531643
1277.532322
1277.532249
1277.53258
1277.530705
1277.52954
1277.530012
1277.531441
1277.530798
1277.531367
1277.532088
1277.531988
1277.53226
1277.530284
1277.529052
1277.529508
1277.530958
1277.530359
1277.531051
1277.531842
1277.531687
1277.531906
1277.529852
1277.528589
1277.529049
1277.530529
1277.529931
1277.530709
1277.531538
1277.531354
1277.531581
1277.529442
1277.528197
1277.528648
1277.530132
1277.529526
1277.53036
1277.531223
1277.531037
1277.531236
1277.529092
1277.527826
1277.528317
1277.529783
1277.529167
1277.53001
1277.530897
1277.530712
1277.530914
1277.528797
1277.527506
1277.52803
1277.529482
1277.528823
1277.529699
1277.530538
1277.530373
1277.530578
1277.528495
1277.527224
1277.527792
1277.529213
1277.52854
1277.52936
1277.530223
1277.530042
1277.53029
1277.528254
1277.526971
1277.527597
1277.528982
1277.528283
1277.529097
1277.529911
1277.529756
1277.530048
1277.528033
1277.526797
1277.527427
1277.528791
1277.52805
1277.528847
1277.52963
1277.529534
1277.52986
1277.527843
1277.526665
1277.527346
1277.528666
1277.527876
1277.528639
1277.529415
)
;
    }
    side-walls
    {
        type            calculated;
        value           nonuniform List<scalar> 
261
(
1277.532936
1277.533494
1277.532264
1277.532003
1277.532242
1277.532474
1277.53275
1277.532363
1277.532796
1277.532827
1277.533355
1277.531965
1277.531578
1277.531701
1277.532042
1277.532485
1277.532198
1277.532661
1277.532684
1277.533098
1277.531621
1277.531089
1277.531133
1277.531534
1277.532104
1277.532009
1277.532513
1277.532487
1277.532848
1277.531231
1277.530548
1277.530558
1277.531017
1277.531697
1277.531715
1277.53233
1277.532249
1277.532567
1277.530812
1277.530023
1277.530016
1277.530482
1277.531272
1277.531438
1277.532099
1277.531988
1277.532229
1277.53036
1277.52953
1277.529504
1277.530002
1277.530859
1277.531107
1277.531826
1277.531687
1277.531899
1277.529946
1277.529071
1277.529061
1277.529564
1277.530442
1277.530728
1277.531531
1277.531354
1277.531597
1277.529551
1277.528638
1277.528664
1277.529128
1277.530085
1277.530373
1277.531229
1277.531037
1277.531259
1277.529211
1277.528314
1277.528351
1277.528762
1277.529742
1277.530015
1277.530916
1277.530712
1277.530953
1277.528875
1277.527996
1277.528076
1277.528468
1277.52942
1277.529686
1277.530593
1277.530373
1277.530652
1277.528579
1277.527706
1277.527845
1277.528199
1277.529096
1277.529372
1277.530283
1277.530042
1277.530354
1277.52835
1277.527502
1277.52763
1277.527974
1277.528837
1277.529058
1277.529947
1277.529756
1277.530095
1277.528125
1277.527321
1277.52747
1277.527782
1277.528599
1277.528783
1277.529641
1277.529534
1277.529871
1277.527949
1277.527198
1277.527335
1277.527649
1277.528437
1277.528597
1277.529414
1277.5328
1277.533455
1277.533044
1277.533016
1277.532743
1277.532659
1277.531338
1277.533049
1277.533119
1277.532734
1277.533341
1277.532824
1277.532673
1277.532301
1277.532284
1277.531137
1277.532927
1277.533058
1277.532639
1277.533169
1277.532503
1277.53225
1277.531768
1277.531817
1277.530852
1277.53276
1277.532955
1277.53251
1277.532963
1277.532142
1277.531754
1277.531199
1277.531338
1277.530513
1277.532526
1277.532819
1277.532322
1277.532694
1277.531733
1277.531212
1277.530611
1277.530803
1277.530117
1277.532245
1277.532646
1277.532088
1277.532397
1277.531311
1277.530708
1277.53007
1277.530259
1277.529678
1277.531933
1277.53242
1277.531842
1277.532067
1277.530919
1277.53025
1277.529546
1277.529788
1277.529236
1277.531603
1277.532167
1277.531538
1277.531729
1277.530483
1277.529764
1277.529077
1277.529324
1277.52883
1277.531261
1277.531863
1277.531223
1277.53138
1277.530083
1277.529358
1277.528679
1277.528933
1277.528429
1277.530898
1277.531565
1277.530897
1277.531042
1277.529738
1277.52902
1277.528349
1277.528581
1277.528072
1277.530576
1277.531232
1277.530538
1277.530704
1277.529398
1277.528715
1277.528019
1277.528275
1277.527736
1277.530232
1277.530911
1277.530223
1277.530386
1277.529105
1277.528449
1277.527763
1277.527975
1277.527449
1277.529918
1277.530585
1277.529911
1277.530091
1277.528822
1277.528215
1277.527562
1277.527765
1277.527183
1277.529613
1277.530296
1277.52963
1277.529826
1277.528582
1277.52806
1277.527376
1277.527552
1277.52694
1277.529356
1277.530013
1277.529415
1277.529635
1277.528414
1277.527942
1277.52725
1277.527434
1277.526771
1277.529145
1277.529772
)
;
    }
    inlet
    {
        type            calculated;
        value           nonuniform 0();
    }
    outlet
    {
        type            calculated;
        value           nonuniform List<scalar> 
81
(
1277.529534
1277.529871
1277.527949
1277.527198
1277.527335
1277.527649
1277.528437
1277.528597
1277.529414
1277.52986
1277.528591
1277.527077
1277.52645
1277.527501
1277.527604
1277.527702
1277.528048
1277.5299
1277.527843
1277.526877
1277.526714
1277.52415
1277.524835
1277.523737
1277.5248
1277.528268
1277.528555
1277.526665
1277.527891
1277.525918
1277.524836
1277.522475
1277.522321
1277.525215
1277.526189
1277.527868
1277.527346
1277.527157
1277.524514
1277.522395
1277.041699
1277.522226
1277.523574
1277.525225
1277.527
1277.528666
1277.526452
1277.525373
1277.52311
1277.523034
1277.524514
1277.524937
1277.525862
1277.527744
1277.527876
1277.527779
1277.525362
1277.523934
1277.525644
1277.525016
1277.526606
1277.527947
1277.528094
1277.528639
1277.527946
1277.528302
1277.527111
1277.526479
1277.527259
1277.526761
1277.528402
1277.529684
1277.529415
1277.529635
1277.528414
1277.527942
1277.52725
1277.527434
1277.526771
1277.529145
1277.529772
)
;
    }
    procBoundary1to0
    {
        type            processor;
        value           nonuniform List<scalar> 
97
(
1277.533004
1277.533004
1277.533612
1277.532499
1277.53235
1277.532662
1277.532817
1277.532942
1277.532473
1277.532882
1277.533687
1277.532998
1277.532998
1277.532998
1277.53216
1277.531923
1277.532755
1277.533187
1277.532816
1277.532378
1277.533692
1277.532474
1277.532237
1277.532284
1277.532284
1277.532284
1277.528787
1277.526606
1277.528432
1277.530454
1277.533329
1277.53318
1277.532127
1277.533884
1277.532776
1277.522484
1277.522484
1277.522484
1277.49699
1277.519878
1277.529958
1277.531724
1277.533083
1277.532992
1277.533497
1277.530779
1277.523158
1276.827032
1276.827032
1276.827032
1277.496685
1277.496685
1277.525333
1277.530536
1277.532281
1277.533969
1277.532719
1277.532094
1277.528645
1277.523793
1277.530046
1277.529606
1277.529606
1277.529606
1277.531403
1277.532895
1277.532571
1277.533258
1277.531844
1277.530748
1277.53194
1277.53179
1277.532958
1277.53299
1277.53299
1277.53299
1277.532706
1277.53251
1277.532532
1277.533718
1277.533167
1277.532776
1277.533334
1277.5323
1277.532917
1277.533501
1277.533501
1277.533501
1277.532851
1277.533513
1277.533188
1277.533247
1277.533037
1277.532892
1277.531487
1277.533106
1277.533169
)
;
    }
}


// ************************************************************************* //
