/*--------------------------------*- C++ -*----------------------------------*\
| =========                 |                                                 |
| \\      /  F ield         | OpenFOAM: The Open Source CFD Toolbox           |
|  \\    /   O peration     | Version:  4.x                                   |
|   \\  /    A nd           | Web:      www.OpenFOAM.org                      |
|    \\/     M anipulation  |                                                 |
\*---------------------------------------------------------------------------*/
FoamFile
{
    version     2.0;
    format      ascii;
    class       volScalarField;
    location    "10000";
    object      H2O;
}
// * * * * * * * * * * * * * * * * * * * * * * * * * * * * * * * * * * * * * //

dimensions      [0 0 0 0 0 0 0];

internalField   nonuniform List<scalar> 
1174
(
1.057289698e-05
1.098978353e-05
1.157217654e-05
1.232423322e-05
1.323511433e-05
1.428236485e-05
1.543634949e-05
1.666448677e-05
1.79346203e-05
1.92171259e-05
2.04851737e-05
2.171059553e-05
2.284366051e-05
2.372641439e-05
1.095647277e-05
1.1612825e-05
1.247783376e-05
1.352811594e-05
1.472500782e-05
1.602347901e-05
1.737906997e-05
1.875223369e-05
2.011036854e-05
2.142809399e-05
2.268583846e-05
2.386480825e-05
2.492811556e-05
2.574241459e-05
1.17944467e-05
1.293399987e-05
1.432920736e-05
1.589796264e-05
1.755440054e-05
1.922351536e-05
2.084751457e-05
2.23865749e-05
2.381651904e-05
2.512531132e-05
2.630895061e-05
2.736554596e-05
2.827950513e-05
2.895876896e-05
1.300502191e-05
1.475119024e-05
1.673507072e-05
1.88093374e-05
2.085456822e-05
2.278757773e-05
2.455855382e-05
2.614389602e-05
2.753854278e-05
2.874928209e-05
2.978935727e-05
3.06728988e-05
3.140332797e-05
3.192777543e-05
1.385540201e-05
1.59283906e-05
1.816815633e-05
2.041612173e-05
2.256055464e-05
2.453257732e-05
2.629697922e-05
2.784266805e-05
2.917448998e-05
3.030689679e-05
3.125904119e-05
3.205016447e-05
3.26900672e-05
3.314143111e-05
1.300499549e-05
1.47511506e-05
1.67350167e-05
1.88092631e-05
2.085447273e-05
2.278745656e-05
2.45584047e-05
2.614372084e-05
2.753833869e-05
2.874905964e-05
2.978910977e-05
3.067263372e-05
3.140303988e-05
3.19274718e-05
1.179440265e-05
1.293394017e-05
1.432913027e-05
1.589786177e-05
1.755426851e-05
1.922333771e-05
2.08472951e-05
2.238630761e-05
2.381620722e-05
2.512495719e-05
2.630855383e-05
2.736511301e-05
2.827903173e-05
2.895826153e-05
1.095642832e-05
1.161277078e-05
1.247776262e-05
1.352802179e-05
1.472488007e-05
1.602331012e-05
1.737885367e-05
1.875196133e-05
2.011003933e-05
2.14277068e-05
2.268538827e-05
2.386430071e-05
2.492755337e-05
2.574180057e-05
1.05728654e-05
1.098974946e-05
1.15721331e-05
1.232417377e-05
1.323502649e-05
1.428224145e-05
1.543617627e-05
1.666425782e-05
1.793432901e-05
1.921676527e-05
2.048474134e-05
2.171008876e-05
2.284308181e-05
2.372576095e-05
1.050823475e-05
1.095644598e-05
1.161280211e-05
1.247780987e-05
1.352809264e-05
1.472498369e-05
1.602345433e-05
1.737904883e-05
1.875221323e-05
2.011034615e-05
2.142807056e-05
2.268581531e-05
2.386478386e-05
2.492809169e-05
2.574238995e-05
1.180717622e-05
1.293622651e-05
1.429889314e-05
1.581061829e-05
1.738911278e-05
1.896690017e-05
2.049511456e-05
2.194220827e-05
2.329047922e-05
2.453207864e-05
2.566501854e-05
2.668749245e-05
2.758217589e-05
2.825341113e-05
1.392055781e-05
1.607041918e-05
1.838110758e-05
2.065714955e-05
2.276942949e-05
2.465147304e-05
2.628297211e-05
2.767232718e-05
2.884291169e-05
2.982379352e-05
3.064394363e-05
3.132789876e-05
3.188739205e-05
3.228734241e-05
1.761847877e-05
2.113427665e-05
2.443671348e-05
2.728736147e-05
2.961269972e-05
3.143567298e-05
3.282343053e-05
3.385558277e-05
3.460791997e-05
3.514565406e-05
3.552183482e-05
3.577813227e-05
3.59460147e-05
3.604369965e-05
2.104656594e-05
2.523327178e-05
2.873790857e-05
3.148477993e-05
3.354417056e-05
3.503454942e-05
3.607728393e-05
3.677897649e-05
3.722672783e-05
3.748896972e-05
3.761831257e-05
3.765529521e-05
3.763350306e-05
3.758992173e-05
1.761835326e-05
2.113412719e-05
2.443653627e-05
2.728715339e-05
2.961246092e-05
3.143540024e-05
3.282312971e-05
3.385526127e-05
3.460757719e-05
3.5145293e-05
3.552146197e-05
3.577775493e-05
3.594562522e-05
3.604330333e-05
1.39204094e-05
1.60702547e-05
1.838091253e-05
2.065691316e-05
2.276913733e-05
2.465112949e-05
2.628257017e-05
2.767187374e-05
2.884241261e-05
2.982325352e-05
3.064336677e-05
3.132729219e-05
3.188675999e-05
3.228668136e-05
1.180708277e-05
1.293613141e-05
1.429877575e-05
1.581046202e-05
1.738890407e-05
1.896662922e-05
2.049477734e-05
2.194180408e-05
2.329000428e-05
2.453153654e-05
2.566441249e-05
2.66868277e-05
2.758145948e-05
2.825264854e-05
1.09564333e-05
1.161277479e-05
1.247776117e-05
1.352801129e-05
1.472485675e-05
1.602326947e-05
1.737879313e-05
1.875188088e-05
2.010993312e-05
2.142757398e-05
2.268523691e-05
2.38641252e-05
2.492735279e-05
2.57415692e-05
1.096559869e-05
1.179438322e-05
1.293393282e-05
1.4329139e-05
1.58978949e-05
1.755433363e-05
1.922344573e-05
2.084744789e-05
2.238650726e-05
2.381645414e-05
2.5125245e-05
2.630888705e-05
2.736548399e-05
2.827943982e-05
2.895870812e-05
1.216350246e-05
1.39204761e-05
1.607035296e-05
1.838104994e-05
2.065709629e-05
2.276938148e-05
2.465142965e-05
2.628292773e-05
2.767228627e-05
2.884287145e-05
2.982375454e-05
3.064390407e-05
3.132785961e-05
3.188735074e-05
3.228730188e-05
2.006564254e-05
2.449940441e-05
2.845677736e-05
3.165328971e-05
3.404794891e-05
3.572989559e-05
3.68369431e-05
3.750946972e-05
3.786938688e-05
3.801385282e-05
3.801633615e-05
3.793127447e-05
3.780203115e-05
3.767935703e-05
3.351456728e-05
4.083944029e-05
4.577995701e-05
4.860288063e-05
4.984111219e-05
5.001085563e-05
4.951858352e-05
4.865295098e-05
4.760602698e-05
4.649955649e-05
4.540787974e-05
4.437776914e-05
4.345442672e-05
4.275376189e-05
5.082409357e-05
5.794030996e-05
6.083744654e-05
6.117113193e-05
6.009792189e-05
5.83329995e-05
5.629285951e-05
5.420986028e-05
5.220755321e-05
5.034677394e-05
4.865375073e-05
4.714024189e-05
4.58319267e-05
4.486068928e-05
3.351394558e-05
4.083883468e-05
4.577934836e-05
4.860226424e-05
4.984048409e-05
5.001022897e-05
4.951796179e-05
4.865233101e-05
4.760541846e-05
4.649896019e-05
4.540730259e-05
4.437720678e-05
4.345387716e-05
4.27532239e-05
2.006514602e-05
2.449893735e-05
2.845626314e-05
3.165270115e-05
3.404728608e-05
3.572916474e-05
3.683616457e-05
3.750864906e-05
3.786854097e-05
3.801298784e-05
3.801546065e-05
3.793039235e-05
3.780114503e-05
3.767845495e-05
1.392041158e-05
1.607022962e-05
1.838085003e-05
2.065680469e-05
2.276898685e-05
2.465093031e-05
2.628233569e-05
2.767160224e-05
2.884211433e-05
2.982292566e-05
3.064301752e-05
3.132692556e-05
3.188637611e-05
3.228628705e-05
1.179440788e-05
1.293392988e-05
1.43290875e-05
1.589777532e-05
1.755412857e-05
1.92231418e-05
2.084703795e-05
2.238598924e-05
2.381582949e-05
2.512452187e-05
2.630806897e-05
2.736458045e-05
2.827845779e-05
2.895763828e-05
1.164268664e-05
1.300491876e-05
1.475107639e-05
1.673495247e-05
1.880921448e-05
2.085444203e-05
2.278745605e-05
2.455843262e-05
2.614377524e-05
2.753842103e-05
2.874916577e-05
2.978923823e-05
3.067278798e-05
3.140321842e-05
3.192766912e-05
1.434296079e-05
1.761831895e-05
2.113413067e-05
2.443658393e-05
2.728723844e-05
2.961258313e-05
3.143556397e-05
3.282332269e-05
3.385547812e-05
3.460781995e-05
3.514555599e-05
3.552173708e-05
3.577803729e-05
3.594591882e-05
3.604360803e-05
2.441247521e-05
3.351425368e-05
4.083921682e-05
4.577978102e-05
4.860272338e-05
4.984096808e-05
5.001072719e-05
4.951846578e-05
4.865283333e-05
4.760591964e-05
4.649945429e-05
4.540778777e-05
4.437768106e-05
4.345434679e-05
4.275369409e-05
7.896879729e-05
8.774699779e-05
8.879879069e-05
8.577609041e-05
8.101193507e-05
7.579242736e-05
7.075119417e-05
6.615846588e-05
6.209718107e-05
5.856137276e-05
5.55089787e-05
5.289390633e-05
5.070753633e-05
4.912075338e-05
0.000166669425
0.0001541655324
0.0001358831268
0.0001186392085
0.0001041305532
9.237677284e-05
8.294489286e-05
7.535733318e-05
6.920774535e-05
6.41784861e-05
6.003042851e-05
5.659366793e-05
5.37885892e-05
5.178361608e-05
7.8966696e-05
8.774547283e-05
8.879745921e-05
8.577486575e-05
8.10107986e-05
7.579136201e-05
7.075021346e-05
6.615755532e-05
6.209632294e-05
5.856056245e-05
5.550821515e-05
5.28931831e-05
5.070684759e-05
4.912008281e-05
3.351401513e-05
4.083869001e-05
4.577899975e-05
4.860175308e-05
4.983986115e-05
5.000954276e-05
4.951724171e-05
4.865160155e-05
4.76046922e-05
4.649825028e-05
4.54066028e-05
4.437653026e-05
4.345321573e-05
4.275256551e-05
1.761834554e-05
2.113400273e-05
2.443626632e-05
2.72867354e-05
2.961191113e-05
3.14347415e-05
3.282238482e-05
3.385444506e-05
3.460671523e-05
3.514439509e-05
3.552053196e-05
3.577680806e-05
3.594466725e-05
3.604232881e-05
1.30049965e-05
1.475109704e-05
1.673487848e-05
1.880901608e-05
2.085410714e-05
2.278696904e-05
2.455779857e-05
2.614300612e-05
2.753752618e-05
2.874816126e-05
2.978813575e-05
3.067159921e-05
3.140195071e-05
3.192631507e-05
1.214217916e-05
1.38552691e-05
1.592823659e-05
1.816798557e-05
2.041594151e-05
2.256036831e-05
2.453238736e-05
2.629679349e-05
2.784248095e-05
2.917430703e-05
3.030671528e-05
3.125886907e-05
3.204999756e-05
3.268990643e-05
3.314127107e-05
1.657705711e-05
2.104629188e-05
2.523298019e-05
2.873762159e-05
3.148450134e-05
3.35439045e-05
3.50342997e-05
3.607705426e-05
3.677875509e-05
3.72265241e-05
3.748877244e-05
3.761813004e-05
3.765512525e-05
3.76333427e-05
3.758976912e-05
3.785139161e-05
5.0823445e-05
5.793968244e-05
6.083689623e-05
6.117066281e-05
6.009753165e-05
5.833266749e-05
5.629256417e-05
5.420960484e-05
5.220732564e-05
5.034657218e-05
4.865357605e-05
4.714007902e-05
4.583177381e-05
4.486054015e-05
0.0001520740582
0.0001666674223
0.0001541642872
0.0001358823035
0.0001186386431
0.0001041301419
9.237645254e-05
8.294463232e-05
7.535712782e-05
6.920757453e-05
6.417834755e-05
6.003031121e-05
5.659355474e-05
5.378849321e-05
5.178353222e-05
0.0005395154943
0.0003465071325
0.0002405410979
0.0001789133669
0.0001409189415
0.0001161380428
9.911865768e-05
8.688913757e-05
7.776031954e-05
7.073098158e-05
6.518458617e-05
6.073688291e-05
5.719098068e-05
5.469371524e-05
0.0001666694541
0.0001541636674
0.0001358808001
0.0001186369503
0.0001041285273
9.237496661e-05
8.294328769e-05
7.535589996e-05
6.920645781e-05
6.417732088e-05
6.002936007e-05
5.659267303e-05
5.378766543e-05
5.178273413e-05
5.082411449e-05
5.793948678e-05
6.083606977e-05
6.116945934e-05
6.009612122e-05
5.833117396e-05
5.629104997e-05
5.420810086e-05
5.220586151e-05
5.034515261e-05
4.86521987e-05
4.713875097e-05
4.583048675e-05
4.485927347e-05
2.104653282e-05
2.52329526e-05
2.873729402e-05
3.148390522e-05
3.354308428e-05
3.503330252e-05
3.607592612e-05
3.6777536e-05
3.722523323e-05
3.748743354e-05
3.761675744e-05
3.765372849e-05
3.763192979e-05
3.758834016e-05
1.385539651e-05
1.592827879e-05
1.816789295e-05
2.041568304e-05
2.255993275e-05
2.453177513e-05
2.629601126e-05
2.784154836e-05
2.917324045e-05
3.030553694e-05
3.125759207e-05
3.204863203e-05
3.268846627e-05
3.31397536e-05
1.164267766e-05
1.300488464e-05
1.475101434e-05
1.673485869e-05
1.880908643e-05
2.085428313e-05
2.278725963e-05
2.455820169e-05
2.614351632e-05
2.753813347e-05
2.874885393e-05
2.978890416e-05
3.067243133e-05
3.140284403e-05
3.19272732e-05
1.434284111e-05
1.761811047e-05
2.113385167e-05
2.443624402e-05
2.728685722e-05
2.961216535e-05
3.143511346e-05
3.282285289e-05
3.385499953e-05
3.460732684e-05
3.514505615e-05
3.552123343e-05
3.577753247e-05
3.594541377e-05
3.604309424e-05
2.441156984e-05
3.351337392e-05
4.083826817e-05
4.577881012e-05
4.860176922e-05
4.984002935e-05
5.000981456e-05
4.951758938e-05
4.865199449e-05
4.76051135e-05
4.649868411e-05
4.540704302e-05
4.437696528e-05
4.345364899e-05
4.27530051e-05
5.83854387e-05
7.89651188e-05
8.774419189e-05
8.879642962e-05
8.577405129e-05
8.10101293e-05
7.57908097e-05
7.074974047e-05
6.615714781e-05
6.209597551e-05
5.856026636e-05
5.550795888e-05
5.289295571e-05
5.070663574e-05
4.911988581e-05
0.000152073803
0.0001666668908
0.0001541620235
0.0001358796949
0.0001186361476
0.0001041279106
9.237448623e-05
8.294289865e-05
7.535558761e-05
6.920619296e-05
6.417710173e-05
6.002917227e-05
5.659251709e-05
5.378752594e-05
5.178261298e-05
5.838616678e-05
7.896519791e-05
8.774363587e-05
8.87954451e-05
8.577283753e-05
8.100885956e-05
7.578954469e-05
7.074852836e-05
6.615601362e-05
6.2094913e-05
5.855926797e-05
5.550702224e-05
5.289207618e-05
5.070580915e-05
4.911908872e-05
3.351458086e-05
4.083855969e-05
4.577845805e-05
4.86009769e-05
4.983896394e-05
5.000858815e-05
4.951627543e-05
4.865063699e-05
4.760375297e-05
4.649733755e-05
4.540572733e-05
4.437567783e-05
4.345239468e-05
4.275176087e-05
1.761853501e-05
2.113403108e-05
2.443613731e-05
2.728647212e-05
2.961153989e-05
3.143428887e-05
3.282187533e-05
3.385390005e-05
3.460613561e-05
3.514379803e-05
3.551992577e-05
3.577619131e-05
3.594404115e-05
3.604169992e-05
1.30050521e-05
1.475111563e-05
1.673484032e-05
1.880891183e-05
2.085393204e-05
2.27867296e-05
2.455750206e-05
2.614265784e-05
2.75371343e-05
2.874773419e-05
2.978767725e-05
3.067111286e-05
3.140144391e-05
3.19257907e-05
1.096557447e-05
1.179432518e-05
1.293383802e-05
1.432900352e-05
1.589771047e-05
1.755409854e-05
1.92231591e-05
2.08471033e-05
2.238610898e-05
2.38160035e-05
2.512474638e-05
2.630834005e-05
2.736489723e-05
2.827881415e-05
2.895804376e-05
1.216334051e-05
1.392025816e-05
1.60700688e-05
1.83807006e-05
2.065668234e-05
2.276889728e-05
2.465088302e-05
2.628232258e-05
2.76716256e-05
2.884216665e-05
2.982301113e-05
3.064312695e-05
3.132705714e-05
3.188652981e-05
3.228645628e-05
1.577778839e-05
2.006479958e-05
2.449855392e-05
2.845586629e-05
3.165230506e-05
3.404690274e-05
3.572879625e-05
3.683581123e-05
3.750831771e-05
3.786823118e-05
3.801269883e-05
3.801518762e-05
3.793012965e-05
3.780089953e-05
3.767821822e-05
2.441155363e-05
3.351319749e-05
4.083789408e-05
4.577826381e-05
4.860109612e-05
4.983928516e-05
5.000903571e-05
4.951680086e-05
4.865120576e-05
4.760434552e-05
4.649793743e-05
4.540631822e-05
4.43762682e-05
4.345297411e-05
4.275233878e-05
3.78514707e-05
5.082290849e-05
5.793847135e-05
6.083523384e-05
6.116876503e-05
6.009553187e-05
5.833066701e-05
5.629061841e-05
5.420773182e-05
5.220553506e-05
5.034486693e-05
4.865194868e-05
4.713852049e-05
4.583028015e-05
4.485907393e-05
2.441159012e-05
3.351313927e-05
4.083765479e-05
4.577785107e-05
4.860054287e-05
4.983863375e-05
5.000832574e-05
4.951606118e-05
4.865045939e-05
4.760360398e-05
4.649720862e-05
4.540560526e-05
4.437557151e-05
4.345229301e-05
4.275166617e-05
1.577811336e-05
2.006506939e-05
2.449863079e-05
2.845569923e-05
3.165190817e-05
3.404630764e-05
3.572804934e-05
3.683495462e-05
3.750738354e-05
3.786724293e-05
3.801166993e-05
3.801414624e-05
3.792908634e-05
3.779984833e-05
3.767715232e-05
1.392055505e-05
1.607022466e-05
1.838069169e-05
2.065649586e-05
2.276853848e-05
2.465036166e-05
2.628165978e-05
2.767083603e-05
2.884127987e-05
2.982203593e-05
3.064208154e-05
3.132594806e-05
3.188536627e-05
3.228524889e-05
1.179447176e-05
1.29339484e-05
1.432903648e-05
1.589763635e-05
1.755389514e-05
1.922281537e-05
2.084661377e-05
2.23854759e-05
2.381523517e-05
2.512385385e-05
2.630733499e-05
2.736378805e-05
2.827761207e-05
2.895675202e-05
1.050819632e-05
1.095638183e-05
1.16127073e-05
1.247767866e-05
1.352791722e-05
1.472475701e-05
1.602316659e-05
1.737869434e-05
1.875179103e-05
2.010985922e-05
2.142751305e-05
2.268519152e-05
2.386409691e-05
2.49273458e-05
2.574159061e-05
1.097506247e-05
1.180700155e-05
1.293602443e-05
1.429864404e-05
1.581030842e-05
1.73887321e-05
1.896644218e-05
2.049457669e-05
2.194159691e-05
2.328978912e-05
2.453131647e-05
2.566419266e-05
2.668660586e-05
2.758123714e-05
2.825242424e-05
1.216334416e-05
1.392024725e-05
1.607002869e-05
1.838062125e-05
2.065655721e-05
2.276872538e-05
2.465066478e-05
2.628206376e-05
2.767133532e-05
2.884184772e-05
2.982266628e-05
3.064276501e-05
3.132667767e-05
3.188613146e-05
3.228604736e-05
1.434284148e-05
1.761803101e-05
2.113364135e-05
2.443588817e-05
2.72863537e-05
2.961153836e-05
3.143438326e-05
3.282204232e-05
3.385412428e-05
3.460640938e-05
3.514410592e-05
3.552026057e-05
3.577654879e-05
3.594441729e-05
3.604208617e-05
1.657706015e-05
2.10460883e-05
2.523249449e-05
2.873684956e-05
3.148348927e-05
3.354269808e-05
3.503295143e-05
3.607560032e-05
3.677723735e-05
3.722495762e-05
3.748718147e-05
3.761652419e-05
3.765350511e-05
3.763171748e-05
3.758813969e-05
1.434282901e-05
1.761799038e-05
2.113354841e-05
2.443572625e-05
2.728611973e-05
2.961124043e-05
3.143402899e-05
3.282164258e-05
3.385368689e-05
3.460594602e-05
3.514362987e-05
3.551976884e-05
3.577604475e-05
3.594390654e-05
3.60415661e-05
1.216337041e-05
1.392026639e-05
1.606999483e-05
1.838050079e-05
2.065633235e-05
2.276839393e-05
2.465023219e-05
2.628153882e-05
2.767073431e-05
2.884118329e-05
2.982194614e-05
3.064200178e-05
3.132587586e-05
3.188530172e-05
3.228519084e-05
1.097512801e-05
1.180707277e-05
1.293606523e-05
1.429862316e-05
1.581020243e-05
1.738852982e-05
1.896613209e-05
2.049416168e-05
2.194107689e-05
2.328917218e-05
2.453061242e-05
2.566340201e-05
2.668574284e-05
2.758030818e-05
2.825143712e-05
1.095647276e-05
1.16127753e-05
1.247770717e-05
1.352788643e-05
1.472464872e-05
1.602296476e-05
1.737838651e-05
1.875137016e-05
2.010932048e-05
2.142686339e-05
2.268443014e-05
2.386322959e-05
2.492637303e-05
2.574052275e-05
1.030160017e-05
1.057283486e-05
1.09897043e-05
1.157207147e-05
1.232409349e-05
1.323492837e-05
1.428212586e-05
1.543604334e-05
1.666410871e-05
1.793416605e-05
1.921659262e-05
2.048455753e-05
2.170989305e-05
2.284287792e-05
2.372555343e-05
1.050819782e-05
1.095638409e-05
1.161270541e-05
1.247767151e-05
1.352789968e-05
1.472472397e-05
1.602311817e-05
1.737862598e-05
1.875169906e-05
2.010973884e-05
2.142737382e-05
2.26850312e-05
2.386391364e-05
2.492713509e-05
2.574134792e-05
1.096557932e-05
1.179431947e-05
1.293381212e-05
1.432894111e-05
1.589760359e-05
1.755393459e-05
1.922293171e-05
2.08468167e-05
2.238575931e-05
2.381559721e-05
2.512428615e-05
2.63078313e-05
2.73643483e-05
2.827822031e-05
2.895740333e-05
1.164267813e-05
1.30048485e-05
1.475091076e-05
1.67346611e-05
1.880877605e-05
2.085384918e-05
2.278670327e-05
2.455752979e-05
2.614273926e-05
2.753726381e-05
2.874790146e-05
2.978788453e-05
3.067135558e-05
3.140171607e-05
3.19260912e-05
1.21421779e-05
1.385519761e-05
1.592804136e-05
1.816763103e-05
2.041540889e-05
2.25596547e-05
2.453150149e-05
2.62957458e-05
2.784128758e-05
2.917298816e-05
3.030529793e-05
3.125735839e-05
3.204841176e-05
3.268825925e-05
3.313955274e-05
1.164266481e-05
1.300482327e-05
1.475085893e-05
1.6734572e-05
1.880864458e-05
2.085367545e-05
2.278648505e-05
2.455726875e-05
2.614243803e-05
2.753692731e-05
2.874753648e-05
2.978749513e-05
3.067094092e-05
3.140128282e-05
3.192563795e-05
1.096557099e-05
1.179430086e-05
1.293376473e-05
1.43288473e-05
1.589745107e-05
1.755371424e-05
1.922263829e-05
2.084644664e-05
2.238531929e-05
2.381508917e-05
2.512371578e-05
2.630720519e-05
2.736366875e-05
2.827750261e-05
2.895664519e-05
1.050820661e-05
1.095639411e-05
1.161270302e-05
1.247763742e-05
1.352781748e-05
1.472457941e-05
1.60228973e-05
1.737832138e-05
1.875130802e-05
2.010925817e-05
2.142680514e-05
2.268437473e-05
2.386317704e-05
2.49263254e-05
2.574047896e-05
1.030161923e-05
1.0572861e-05
1.098972668e-05
1.157207577e-05
1.232406191e-05
1.3234845e-05
1.428197221e-05
1.543580915e-05
1.666378038e-05
1.793373525e-05
1.921605279e-05
2.048391068e-05
2.170914147e-05
2.28420193e-05
2.372459371e-05
)
;

boundaryField
{
    top
    {
        type            zeroGradient;
    }
    bottom
    {
        type            zeroGradient;
    }
    side-walls
    {
        type            zeroGradient;
    }
    inlet
    {
        type            zeroGradient;
    }
    outlet
    {
        type            zeroGradient;
    }
    procBoundary1to0
    {
        type            processor;
        value           nonuniform List<scalar> 
97
(
1.03016204e-05
1.03016204e-05
1.050820285e-05
1.096554993e-05
1.164259042e-05
1.214204253e-05
1.164257058e-05
1.096551462e-05
1.050816593e-05
1.030158249e-05
1.023985202e-05
1.09751311e-05
1.09751311e-05
1.09751311e-05
1.21633401e-05
1.434264929e-05
1.657657629e-05
1.434253445e-05
1.21631947e-05
1.097500036e-05
1.050816736e-05
1.044971659e-05
1.098214549e-05
1.577812788e-05
1.577812788e-05
1.577812788e-05
2.441115832e-05
3.784891243e-05
2.441041974e-05
1.577736871e-05
1.21631957e-05
1.096551583e-05
1.075290154e-05
1.190827447e-05
1.588889851e-05
5.83862338e-05
5.83862338e-05
5.83862338e-05
0.0001520576192
5.83814164e-05
2.441048625e-05
1.434253697e-05
1.16425696e-05
1.096590552e-05
1.276696413e-05
2.022433797e-05
4.92240871e-05
0.0009115067373
0.0009115067373
0.0009115067373
0.0001520584246
0.0001520584246
3.784903298e-05
1.657657315e-05
1.21420439e-05
1.075290718e-05
1.190828119e-05
1.588901742e-05
2.726999313e-05
4.922489853e-05
2.726958366e-05
2.441211022e-05
2.441211022e-05
2.441211022e-05
1.434278993e-05
1.164262413e-05
1.044971997e-05
1.098216323e-05
1.252104195e-05
1.588902009e-05
2.022449299e-05
1.588895794e-05
1.252101278e-05
1.21634787e-05
1.21634787e-05
1.21634787e-05
1.096558417e-05
1.023985502e-05
1.045289447e-05
1.098216621e-05
1.190828553e-05
1.276698409e-05
1.190826858e-05
1.098215303e-05
1.045289256e-05
1.05082349e-05
1.05082349e-05
1.05082349e-05
1.014379366e-05
1.023985578e-05
1.044972325e-05
1.075291055e-05
1.096591026e-05
1.075290287e-05
1.044971418e-05
1.02398535e-05
1.014379442e-05
)
;
    }
}


// ************************************************************************* //
