/*--------------------------------*- C++ -*----------------------------------*\
| =========                 |                                                 |
| \\      /  F ield         | OpenFOAM: The Open Source CFD Toolbox           |
|  \\    /   O peration     | Version:  4.x                                   |
|   \\  /    A nd           | Web:      www.OpenFOAM.org                      |
|    \\/     M anipulation  |                                                 |
\*---------------------------------------------------------------------------*/
FoamFile
{
    version     2.0;
    format      ascii;
    class       volScalarField;
    location    "10000";
    object      molarConc;
}
// * * * * * * * * * * * * * * * * * * * * * * * * * * * * * * * * * * * * * //

dimensions      [0 -3 0 0 1 0 0];

internalField   nonuniform List<scalar> 
1174
(
9.963281108
9.963279755
9.963277387
9.963274984
9.963272007
9.963267957
9.963264182
9.963260811
9.963255922
9.963251251
9.963247572
9.963244145
9.963239945
9.963236707
9.96324636
9.963242557
9.963241325
9.963236654
9.963231162
9.963226886
9.963221207
9.963213856
9.963208602
9.963202422
9.963196914
9.963192638
9.963188254
9.963186164
9.963295081
9.963291441
9.963285804
9.963279699
9.963273612
9.963268971
9.963263148
9.963257814
9.963251468
9.963246934
9.963242439
9.963236656
9.963233009
9.963230773
9.963288287
9.963280995
9.963273031
9.963266223
9.963259091
9.96325216
9.963246239
9.963242039
9.963235485
9.96323165
9.963229214
9.963225034
9.963222197
9.963219847
9.963262038
9.963255244
9.963247061
9.963239093
9.963231155
9.963224591
9.963217945
9.963212591
9.96320647
9.963201785
9.963197834
9.963195716
9.963193328
9.963192737
9.963264356
9.963257393
9.963250381
9.963242367
9.9632357
9.963228163
9.963221126
9.963217103
9.96321266
9.963207635
9.963204155
9.963201027
9.963198731
9.963196882
9.963270348
9.96326498
9.963261246
9.963255971
9.963250181
9.963243558
9.963237911
9.96323065
9.963224434
9.963219187
9.963216116
9.963211854
9.963208882
9.96320591
9.963303937
9.963301435
9.963296761
9.963294307
9.963288604
9.963283958
9.963280802
9.963276171
9.9632719
9.963266861
9.963262052
9.96325853
9.963254957
9.963250956
9.963288253
9.963288201
9.963286091
9.963282945
9.963279631
9.963276188
9.963272131
9.963267185
9.963262088
9.96325729
9.963252115
9.963248935
9.963245778
9.963242765
9.963246959
9.963245455
9.963243562
9.963240149
9.963234577
9.963230513
9.963225268
9.963220867
9.963214704
9.963209793
9.963204363
9.963200702
9.963195863
9.963190594
9.963186717
9.963268393
9.963264819
9.963259965
9.963254058
9.963247862
9.963242695
9.963237723
9.963232219
9.963228292
9.963222971
9.963219447
9.963215524
9.963212872
9.963209756
9.963288641
9.963278487
9.963269936
9.963260224
9.963251338
9.963244597
9.963236825
9.963232047
9.963227954
9.963225797
9.96322464
9.963222156
9.963220759
9.963220032
9.963258259
9.963243647
9.963230961
9.963221461
9.963213338
9.963207537
9.963201675
9.963197439
9.963194852
9.963193989
9.963191291
9.963190972
9.963189447
9.963189757
9.963173291
9.96315817
9.963144574
9.963134686
9.963126554
9.963119508
9.963115481
9.963112147
9.96311173
9.963111604
9.963110492
9.963111201
9.963111375
9.963110683
9.963195687
9.963183115
9.963172428
9.963161916
9.963152706
9.963145644
9.963140999
9.963138304
9.963135072
9.96313359
9.963131799
9.963131223
9.963130479
9.963131041
9.96325254
9.963244338
9.963234799
9.963227835
9.963219479
9.96321441
9.963208576
9.963203761
9.963200279
9.963198373
9.963195406
9.963194506
9.9631912
9.963188216
9.963300344
9.963295824
9.963291687
9.963285921
9.963280217
9.963275702
9.963269372
9.963263928
9.963257832
9.963253714
9.963249047
9.963243615
9.963239135
9.963237331
9.963240837
9.963238768
9.963235772
9.963232098
9.963227055
9.963222315
9.963216416
9.963212531
9.963207405
9.963200805
9.963195919
9.963192263
9.963187209
9.963184641
9.963305467
9.96330247
9.963298105
9.963291898
9.963286925
9.963279038
9.963272832
9.963267943
9.963263357
9.963257493
9.963250879
9.963246701
9.963241538
9.963237671
9.96323613
9.963306658
9.963300208
9.963291738
9.963282477
9.963273605
9.963266921
9.963260077
9.963254443
9.963251014
9.963245616
9.963241796
9.963238177
9.96323495
9.963232421
9.963230226
9.963212165
9.963194694
9.963179361
9.963169435
9.963160049
9.963153401
9.963149602
9.963146747
9.963146136
9.963145854
9.963145777
9.963146449
9.96314709
9.963149255
9.963231088
9.963204147
9.963186118
9.963175231
9.963172233
9.963173159
9.963174013
9.963177437
9.963181411
9.963184364
9.963187795
9.963191275
9.963194582
9.963195721
9.963102452
9.963077179
9.963067625
9.963065781
9.963069302
9.963073911
9.963082558
9.963090253
9.963096305
9.963101567
9.963109147
9.963114365
9.963121061
9.963125944
9.963248672
9.963222118
9.963203973
9.963193597
9.963190259
9.963189006
9.963191004
9.963194259
9.963197829
9.963200853
9.963204645
9.963208801
9.96321329
9.963216708
9.963306174
9.963289583
9.963276102
9.963263705
9.963254539
9.963250383
9.963246081
9.963243945
9.963242607
9.963242191
9.963242988
9.963243405
9.96324313
9.963246584
9.963227798
9.963219239
9.963210396
9.963201241
9.963193051
9.963186334
9.963181103
9.963176315
9.963172953
9.963169313
9.963165973
9.963163996
9.963161489
9.963159378
9.963260557
9.963257076
9.963251673
9.963247059
9.963241077
9.963233991
9.963227664
9.963222864
9.963217483
9.963213612
9.963209558
9.963204916
9.963202088
9.963199846
9.963317372
9.963312881
9.963306335
9.963298745
9.963290894
9.963283655
9.963276505
9.963270758
9.963264486
9.963260313
9.96325657
9.963253736
9.963252038
9.963248843
9.963246929
9.96320249
9.963189396
9.963175647
9.963164065
9.963153301
9.963143133
9.963136263
9.963130969
9.963126584
9.963123333
9.96312186
9.963120265
9.96311779
9.963117622
9.963116443
9.963169883
9.963137849
9.963111778
9.963093841
9.963083765
9.963079596
9.963079243
9.963081715
9.96308516
9.96308839
9.963092554
9.963096694
9.963100249
9.963103182
9.963105735
9.962943759
9.962911132
9.962907886
9.962918591
9.96293629
9.96295485
9.962973759
9.962991509
9.963006117
9.963020952
9.963031928
9.963041513
9.963050232
9.963055385
9.962710948
9.962757022
9.962823803
9.962886823
9.962940219
9.962981918
9.963017069
9.963045638
9.963068706
9.963086136
9.963100562
9.963114497
9.963124652
9.963131378
9.963077829
9.96304567
9.963041235
9.963051828
9.96306934
9.963086657
9.963104681
9.963122425
9.963137202
9.9631494
9.963160826
9.963169852
9.963177487
9.963183273
9.9631699
9.963144616
9.963127382
9.96311787
9.96311424
9.963113846
9.96311536
9.963118765
9.963123016
9.96312797
9.963131357
9.963135798
9.963138868
9.963141433
9.963268101
9.963252714
9.963239944
9.963230307
9.963221794
9.963215329
9.96321093
9.963206988
9.963205044
9.963202437
9.96320183
9.963201932
9.9632023
9.963202953
9.963251911
9.963245788
9.96323867
9.963232614
9.963225909
9.963219563
9.963214312
9.963207058
9.963201878
9.963198608
9.963194004
9.963191017
9.963188495
9.963185666
9.9632669
9.963261954
9.963255357
9.963245886
9.963238748
9.963231348
9.963224349
9.963218538
9.963213372
9.963208188
9.963204113
9.963200525
9.963197396
9.963195494
9.963192194
9.963202829
9.963185123
9.963170523
9.963160192
9.963147617
9.963140522
9.963136801
9.963134173
9.9631304
9.963128657
9.963126438
9.963126636
9.963126134
9.963126261
9.963128148
9.963165939
9.963118852
9.963093376
9.963081877
9.96308043
9.963085152
9.963092572
9.96310034
9.963108178
9.963113725
9.963119527
9.963127132
9.963133828
9.963138601
9.963142287
9.962771026
9.962715062
9.962760751
9.962828007
9.962890979
9.962943656
9.962985683
9.963019813
9.963047271
9.963071096
9.963090243
9.963104557
9.963115798
9.963126926
9.96313547
9.985573372
9.986292772
9.986696863
9.986938848
9.987094723
9.987203474
9.987283333
9.987345063
9.987396536
9.987439797
9.987476871
9.987511955
9.987543411
9.987571864
9.962725057
9.962770175
9.962837531
9.96289982
9.962953648
9.962996877
9.963030921
9.963058619
9.963081987
9.963099899
9.963114107
9.963126247
9.963137112
9.963144025
9.963167609
9.963142365
9.963131117
9.96312971
9.963133198
9.963139938
9.963146321
9.963154365
9.963161548
9.963169245
9.963175725
9.963181441
9.963185434
9.963190019
9.963286918
9.963271631
9.963258921
9.963249548
9.963241588
9.963235664
9.96323267
9.963229938
9.963227073
9.963226488
9.963225657
9.963224125
9.963225938
9.963226389
9.963281634
9.963274982
9.963266356
9.963257764
9.963249529
9.963241532
9.963234861
9.963229279
9.963224148
9.963220268
9.96321761
9.963214358
9.963211873
9.963209706
9.96322132
9.963216003
9.963210675
9.963202581
9.963194459
9.963186922
9.963179465
9.963172006
9.963166009
9.963160694
9.963156021
9.963152538
9.963149699
9.963147371
9.96314512
9.963260382
9.963249625
9.963237133
9.963226108
9.963216707
9.963207691
9.963201356
9.963194483
9.96319258
9.963190945
9.963190412
9.963190113
9.963189814
9.963188813
9.963189625
9.963205553
9.963172046
9.963145596
9.963126308
9.963116474
9.963110584
9.963110334
9.96311275
9.963116509
9.963120299
9.96312348
9.963127278
9.96313013
9.963131752
9.963133411
9.963108231
9.963033904
9.963000004
9.96299693
9.963009326
9.963027097
9.963046312
9.963064182
9.963081017
9.963094592
9.963109668
9.96312112
9.963130869
9.963137795
9.963143116
9.962739255
9.962685182
9.962730738
9.962798377
9.962860381
9.96291341
9.962955897
9.962990669
9.963017176
9.963039223
9.963058373
9.963071749
9.96308322
9.963094143
9.963102884
9.963037592
9.962963739
9.962931974
9.962927081
9.962938079
9.962956287
9.962976196
9.962993829
9.963010781
9.963025911
9.963037472
9.963048121
9.963057972
9.963066413
9.963071651
9.963188479
9.963160622
9.963141688
9.963131007
9.963126071
9.963125775
9.96312802
9.963131143
9.963135768
9.963140389
9.963144681
9.963147907
9.96315235
9.963155534
9.963284455
9.963271768
9.963259661
9.963249452
9.963240633
9.963233721
9.963229138
9.963224976
9.963221776
9.96322051
9.963220488
9.963219519
9.963219842
9.963219565
9.963259965
9.963254027
9.963247421
9.963239609
9.963232199
9.963225329
9.963218815
9.963213266
9.963209017
9.96320504
9.96319978
9.963195872
9.963192904
9.963191916
9.963300709
9.963296668
9.963291695
9.963286549
9.963280028
9.963274302
9.963269005
9.963263924
9.963259062
9.963253703
9.963249526
9.963244396
9.963239999
9.963236805
9.963234432
9.963253495
9.963247317
9.963239933
9.96323279
9.963224469
9.96321692
9.963210085
9.963204963
9.963199075
9.963194916
9.963192429
9.96318936
9.963187218
9.96318515
9.96318429
9.963293959
9.963279251
9.96326313
9.96324936
9.963237634
9.9632303
9.963224611
9.963220625
9.963217857
9.963216174
9.963215384
9.963216843
9.963215788
9.963216932
9.96321797
9.963273368
9.963240195
9.96321292
9.963195321
9.963185537
9.963180082
9.963180044
9.963182675
9.963185027
9.963190098
9.963193805
9.963197569
9.963200913
9.963204573
9.963206609
9.963107222
9.963059582
9.96303511
9.96302338
9.963023262
9.963025376
9.963031562
9.963040429
9.963048752
9.963055314
9.963062956
9.963071566
9.963076766
9.963081572
9.963084713
9.963220226
9.963188075
9.963161423
9.963143901
9.963134519
9.963129687
9.963129299
9.963129947
9.963133478
9.963136485
9.963140926
9.963143331
9.963147023
9.963149357
9.96315153
9.963235107
9.963219001
9.963202143
9.963188039
9.963176037
9.963165724
9.963160021
9.963154299
9.963153272
9.963151363
9.963151231
9.963152851
9.963152635
9.963153889
9.963154645
9.963245624
9.963237344
9.963229937
9.963220931
9.963213058
9.963206976
9.963201431
9.963195918
9.963191728
9.963187605
9.963183697
9.963181234
9.963177338
9.963175653
9.963284405
9.963280401
9.963274731
9.963268048
9.963262674
9.963256128
9.963250402
9.963243993
9.963239742
9.96323461
9.963231837
9.963228784
9.963226352
9.963223267
9.963307262
9.963304727
9.963304371
9.963301006
9.963297958
9.963292187
9.96328679
9.96328179
9.963276816
9.963272177
9.963266172
9.963262653
9.963256535
9.96325171
9.963248829
9.963301986
9.963299999
9.963296547
9.963292921
9.963286153
9.963280163
9.96327519
9.963269826
9.963264276
9.963259814
9.963254435
9.963251427
9.963247521
9.963245154
9.963242555
9.963229121
9.963222504
9.963213762
9.963205193
9.963197734
9.963189307
9.963183382
9.963176543
9.963172715
9.963168605
9.963165123
9.963163507
9.96316185
9.963159255
9.963157655
9.963236738
9.963224617
9.963210896
9.963198175
9.963186926
9.963178966
9.963173396
9.963168808
9.963163961
9.963162448
9.963159794
9.963157501
9.963156268
9.963156694
9.963156053
9.963242338
9.963226716
9.963211299
9.96319775
9.96318795
9.963180916
9.963175974
9.963171093
9.963168838
9.963168502
9.963166458
9.96316606
9.963163481
9.963161328
9.9631626
9.963229659
9.963217044
9.963204327
9.96319197
9.963180881
9.963172247
9.963165012
9.963160182
9.963155356
9.963152958
9.963150809
9.963149776
9.963148804
9.96314903
9.963148496
9.963301818
9.963295095
9.963289859
9.963282266
9.963273571
9.963265997
9.963259936
9.963253863
9.963248887
9.963245522
9.963242005
9.963240531
9.963237315
9.963237027
9.963236004
9.963280944
9.963278248
9.963274546
9.963269466
9.963265016
9.963260231
9.963251554
9.963246949
9.963241857
9.963237987
9.963234153
9.963229907
9.963225882
9.963222398
9.963219286
9.963250147
9.96324879
9.963245689
9.963242232
9.963238127
9.963232931
9.96322799
9.963222257
9.963216765
9.963212722
9.963208296
9.963204345
9.963198575
9.963195592
9.963292502
9.963291389
9.963289311
9.963286253
9.963283374
9.963280178
9.963275401
9.963271771
9.963267481
9.963263028
9.963260068
9.963255178
9.963250749
9.963246325
9.96324269
9.963255792
9.963254162
9.963252039
9.963248188
9.963244508
9.963239799
9.963235088
9.96322986
9.963224881
9.963219626
9.963215022
9.963210402
9.963205956
9.96320188
9.963198154
9.963269119
9.963266561
9.963264049
9.963259309
9.963254145
9.963248174
9.963240521
9.96323581
9.963230705
9.9632246
9.96322029
9.9632156
9.963212568
9.963209676
9.963207037
9.96325933
9.963254207
9.963246806
9.963239178
9.963232403
9.963224156
9.963215485
9.963210898
9.963205363
9.963199509
9.963194977
9.963191344
9.963188659
9.963184504
9.963181853
9.96326491
9.963259014
9.963251801
9.963243652
9.96323635
9.963228381
9.963222405
9.963217034
9.963211752
9.963206535
9.963204619
9.963201915
9.963199073
9.963198004
9.963197004
9.963277465
9.963273999
9.963268845
9.963260332
9.96325323
9.96324704
9.963238996
9.963233278
9.963226966
9.963221811
9.963217386
9.963215454
9.963211574
9.963210335
9.963207715
9.963355907
9.963352409
9.963348049
9.963342213
9.963336352
9.963331281
9.963326134
9.963319907
9.963314852
9.963309362
9.963304821
9.963299858
9.963295951
9.963293215
9.963290563
9.96327642
9.963275223
9.963272828
9.963270443
9.963267353
9.963263394
9.963258671
9.963253638
9.963249423
9.963243305
9.96323903
9.963234208
9.963230236
9.963225769
9.963223014
9.963276316
9.963274886
9.963273263
9.96327053
9.963266874
9.963263267
9.963258842
9.963255199
9.963250053
9.963245946
9.963241066
9.963236684
9.963231117
9.963226813
9.96322449
)
;

boundaryField
{
    top
    {
        type            calculated;
        value           nonuniform List<scalar> 
127
(
9.963276316
9.963288253
9.963240837
9.963260557
9.963251911
9.963281634
9.963259965
9.963284405
9.963250147
9.963274886
9.963288201
9.963238768
9.963257076
9.963245788
9.963274982
9.963254027
9.963280401
9.96324879
9.963273263
9.963286091
9.963235772
9.963251673
9.96323867
9.963266356
9.963247421
9.963274731
9.963245689
9.96327053
9.963282945
9.963232098
9.963247059
9.963232614
9.963257764
9.963239609
9.963268048
9.963242232
9.963266874
9.963279631
9.963227055
9.963241077
9.963225909
9.963249529
9.963232199
9.963262674
9.963238127
9.963263267
9.963276188
9.963222315
9.963233991
9.963219563
9.963241532
9.963225329
9.963256128
9.963232931
9.963258842
9.963272131
9.963216416
9.963227664
9.963214312
9.963234861
9.963218815
9.963250402
9.96322799
9.963255199
9.963267185
9.963212531
9.963222864
9.963207058
9.963229279
9.963213266
9.963243993
9.963222257
9.963250053
9.963262088
9.963207405
9.963217483
9.963201878
9.963224148
9.963209017
9.963239742
9.963216765
9.963245946
9.96325729
9.963200805
9.963213612
9.963198608
9.963220268
9.96320504
9.96323461
9.963212722
9.963241066
9.963252115
9.963195919
9.963209558
9.963194004
9.96321761
9.96319978
9.963231837
9.963208296
9.963236684
9.963248935
9.963192263
9.963204916
9.963191017
9.963214358
9.963195872
9.963228784
9.963204345
9.963231117
9.963245778
9.963187209
9.963202088
9.963188495
9.963211873
9.963192904
9.963226352
9.963198575
9.963226813
9.963242765
9.963184641
9.963199846
9.963185666
9.963209706
9.963191916
9.963223267
9.963195592
9.96322449
)
;
    }
    bottom
    {
        type            calculated;
        value           nonuniform List<scalar> 
134
(
9.963246959
9.963305467
9.963317372
9.9632669
9.96322132
9.963300709
9.963307262
9.963292502
9.963281108
9.963245455
9.96330247
9.963312881
9.963261954
9.963216003
9.963296668
9.963304727
9.963291389
9.963279755
9.963243562
9.963298105
9.963306335
9.963255357
9.963210675
9.963291695
9.963304371
9.963289311
9.963277387
9.963240149
9.963291898
9.963298745
9.963245886
9.963202581
9.963286549
9.963301006
9.963286253
9.963274984
9.963234577
9.963286925
9.963290894
9.963238748
9.963194459
9.963280028
9.963297958
9.963283374
9.963272007
9.963230513
9.963279038
9.963283655
9.963231348
9.963186922
9.963274302
9.963292187
9.963280178
9.963267957
9.963225268
9.963272832
9.963276505
9.963224349
9.963179465
9.963269005
9.96328679
9.963275401
9.963264182
9.963220867
9.963267943
9.963270758
9.963218538
9.963172006
9.963263924
9.96328179
9.963271771
9.963260811
9.963214704
9.963263357
9.963264486
9.963213372
9.963166009
9.963259062
9.963276816
9.963267481
9.963255922
9.963209793
9.963257493
9.963260313
9.963208188
9.963160694
9.963253703
9.963272177
9.963263028
9.963251251
9.963204363
9.963250879
9.96325657
9.963204113
9.963156021
9.963249526
9.963266172
9.963260068
9.963247572
9.963200702
9.963246701
9.963253736
9.963200525
9.963152538
9.963244396
9.963262653
9.963255178
9.963244145
9.963195863
9.963241538
9.963252038
9.963197396
9.963149699
9.963239999
9.963256535
9.963250749
9.963239945
9.963190594
9.963237671
9.963248843
9.963195494
9.963147371
9.963236805
9.96325171
9.963246325
9.963236707
9.963186717
9.96323613
9.963246929
9.963192194
9.96314512
9.963234432
9.963248829
9.96324269
)
;
    }
    side-walls
    {
        type            calculated;
        value           nonuniform List<scalar> 
261
(
9.963281108
9.96324636
9.963295081
9.963288287
9.963262038
9.963264356
9.963270348
9.963303937
9.963288253
9.963279755
9.963242557
9.963291441
9.963280995
9.963255244
9.963257393
9.96326498
9.963301435
9.963288201
9.963277387
9.963241325
9.963285804
9.963273031
9.963247061
9.963250381
9.963261246
9.963296761
9.963286091
9.963274984
9.963236654
9.963279699
9.963266223
9.963239093
9.963242367
9.963255971
9.963294307
9.963282945
9.963272007
9.963231162
9.963273612
9.963259091
9.963231155
9.9632357
9.963250181
9.963288604
9.963279631
9.963267957
9.963226886
9.963268971
9.96325216
9.963224591
9.963228163
9.963243558
9.963283958
9.963276188
9.963264182
9.963221207
9.963263148
9.963246239
9.963217945
9.963221126
9.963237911
9.963280802
9.963272131
9.963260811
9.963213856
9.963257814
9.963242039
9.963212591
9.963217103
9.96323065
9.963276171
9.963267185
9.963255922
9.963208602
9.963251468
9.963235485
9.96320647
9.96321266
9.963224434
9.9632719
9.963262088
9.963251251
9.963202422
9.963246934
9.96323165
9.963201785
9.963207635
9.963219187
9.963266861
9.96325729
9.963247572
9.963196914
9.963242439
9.963229214
9.963197834
9.963204155
9.963216116
9.963262052
9.963252115
9.963244145
9.963192638
9.963236656
9.963225034
9.963195716
9.963201027
9.963211854
9.96325853
9.963248935
9.963239945
9.963188254
9.963233009
9.963222197
9.963193328
9.963198731
9.963208882
9.963254957
9.963245778
9.963236707
9.963186164
9.963230773
9.963219847
9.963192737
9.963196882
9.96320591
9.963250956
9.963242765
9.963292502
9.963255792
9.963269119
9.96325933
9.96326491
9.963277465
9.963355907
9.96327642
9.963276316
9.963291389
9.963254162
9.963266561
9.963254207
9.963259014
9.963273999
9.963352409
9.963275223
9.963274886
9.963289311
9.963252039
9.963264049
9.963246806
9.963251801
9.963268845
9.963348049
9.963272828
9.963273263
9.963286253
9.963248188
9.963259309
9.963239178
9.963243652
9.963260332
9.963342213
9.963270443
9.96327053
9.963283374
9.963244508
9.963254145
9.963232403
9.96323635
9.96325323
9.963336352
9.963267353
9.963266874
9.963280178
9.963239799
9.963248174
9.963224156
9.963228381
9.96324704
9.963331281
9.963263394
9.963263267
9.963275401
9.963235088
9.963240521
9.963215485
9.963222405
9.963238996
9.963326134
9.963258671
9.963258842
9.963271771
9.96322986
9.96323581
9.963210898
9.963217034
9.963233278
9.963319907
9.963253638
9.963255199
9.963267481
9.963224881
9.963230705
9.963205363
9.963211752
9.963226966
9.963314852
9.963249423
9.963250053
9.963263028
9.963219626
9.9632246
9.963199509
9.963206535
9.963221811
9.963309362
9.963243305
9.963245946
9.963260068
9.963215022
9.96322029
9.963194977
9.963204619
9.963217386
9.963304821
9.96323903
9.963241066
9.963255178
9.963210402
9.9632156
9.963191344
9.963201915
9.963215454
9.963299858
9.963234208
9.963236684
9.963250749
9.963205956
9.963212568
9.963188659
9.963199073
9.963211574
9.963295951
9.963230236
9.963231117
9.963246325
9.96320188
9.963209676
9.963184504
9.963198004
9.963210335
9.963293215
9.963225769
9.963226813
9.96324269
9.963198154
9.963207037
9.963181853
9.963197004
9.963207715
9.963290563
9.963223014
9.96322449
)
;
    }
    inlet
    {
        type            calculated;
        value           nonuniform 0();
    }
    outlet
    {
        type            calculated;
        value           nonuniform List<scalar> 
81
(
9.963236707
9.963186164
9.963230773
9.963219847
9.963192737
9.963196882
9.96320591
9.963250956
9.963242765
9.963186717
9.963209756
9.963220032
9.963189757
9.963110683
9.963131041
9.963188216
9.963237331
9.963184641
9.96323613
9.963230226
9.963149255
9.963195721
9.963125944
9.963216708
9.963246584
9.963159378
9.963199846
9.963246929
9.963116443
9.963105735
9.963055385
9.963131378
9.963183273
9.963141433
9.963202953
9.963185666
9.963192194
9.963128148
9.963142287
9.96313547
9.987571864
9.963144025
9.963190019
9.963226389
9.963209706
9.96314512
9.963189625
9.963133411
9.963143116
9.963102884
9.963071651
9.963155534
9.963219565
9.963191916
9.963234432
9.96318429
9.96321797
9.963206609
9.963084713
9.96315153
9.963154645
9.963175653
9.963223267
9.963248829
9.963242555
9.963157655
9.963156053
9.9631626
9.963148496
9.963236004
9.963219286
9.963195592
9.96324269
9.963198154
9.963207037
9.963181853
9.963197004
9.963207715
9.963290563
9.963223014
9.96322449
)
;
    }
    procBoundary1to0
    {
        type            processor;
        value           nonuniform List<scalar> 
97
(
9.963282147
9.963282147
9.963247807
9.963296837
9.963293202
9.963269032
9.963269465
9.963274311
9.96330572
9.963288365
9.963248413
9.963271311
9.963271311
9.963271311
9.963294238
9.963270201
9.963190789
9.963205844
9.963260875
9.963302853
9.963243704
9.963306684
9.963309921
9.963228081
9.963228081
9.963228081
9.963262828
9.963150853
9.963280887
9.963321141
9.963234778
9.963262211
9.963319291
9.96321074
9.963201142
9.963020246
9.963020246
9.963020246
9.962762743
9.963152634
9.963203228
9.963280317
9.963255907
9.963271746
9.963216225
9.96323089
9.963137681
9.984224408
9.984224408
9.984224408
9.962778294
9.962778294
9.963215641
9.963303692
9.963288443
9.963225561
9.963270003
9.963235852
9.963222687
9.963105414
9.963151346
9.963221237
9.963221237
9.963221237
9.963296661
9.963265487
9.963301742
9.963257935
9.963304387
9.963304375
9.96317183
9.963251326
9.963247719
9.963252037
9.963252037
9.963252037
9.9632863
9.963308315
9.963303656
9.963234555
9.963247245
9.963252918
9.963238727
9.963306697
9.963284065
9.963253411
9.963253411
9.963253411
9.963292545
9.963257284
9.963270303
9.963262293
9.963269468
9.963280367
9.963356888
9.963277971
9.963276378
)
;
    }
}


// ************************************************************************* //
