/*--------------------------------*- C++ -*----------------------------------*\
| =========                 |                                                 |
| \\      /  F ield         | OpenFOAM: The Open Source CFD Toolbox           |
|  \\    /   O peration     | Version:  4.x                                   |
|   \\  /    A nd           | Web:      www.OpenFOAM.org                      |
|    \\/     M anipulation  |                                                 |
\*---------------------------------------------------------------------------*/
FoamFile
{
    version     2.0;
    format      ascii;
    class       volScalarField;
    location    "10000";
    object      N2;
}
// * * * * * * * * * * * * * * * * * * * * * * * * * * * * * * * * * * * * * //

dimensions      [0 0 0 0 0 0 0];

internalField   nonuniform List<scalar> 
1174
(
0.6203626153
0.6203621711
0.6203615507
0.6203607495
0.6203597791
0.6203586634
0.620357434
0.6203561256
0.6203547724
0.620353406
0.620352055
0.6203507494
0.6203495422
0.6203486017
0.6203622066
0.6203615074
0.6203605859
0.620359467
0.6203581919
0.6203568086
0.6203553644
0.6203539015
0.6203524545
0.6203510506
0.6203497106
0.6203484545
0.6203473216
0.6203464539
0.620361314
0.6203601
0.6203586136
0.6203569424
0.6203551777
0.6203533995
0.6203516694
0.6203500297
0.6203485062
0.6203471118
0.6203458507
0.6203447249
0.6203437511
0.6203430273
0.6203600244
0.6203581641
0.6203560507
0.6203538409
0.620351662
0.6203496026
0.6203477159
0.6203460269
0.620344541
0.620343251
0.6203421428
0.6203412014
0.6203404231
0.6203398642
0.6203591185
0.6203569101
0.620354524
0.6203521291
0.6203498446
0.6203477436
0.6203458639
0.6203442171
0.6203427981
0.6203415916
0.620340577
0.6203397341
0.6203390522
0.6203385712
0.6203600244
0.6203581642
0.6203560507
0.6203538409
0.6203516621
0.6203496027
0.620347716
0.620346027
0.6203445411
0.6203432512
0.620342143
0.6203412016
0.6203404233
0.6203398644
0.620361314
0.6203601
0.6203586137
0.6203569425
0.6203551778
0.6203533997
0.6203516695
0.6203500299
0.6203485064
0.6203471121
0.620345851
0.6203447252
0.6203437515
0.6203430277
0.6203622067
0.6203615075
0.620360586
0.6203594671
0.620358192
0.6203568087
0.6203553646
0.6203539017
0.6203524548
0.6203510509
0.6203497109
0.6203484548
0.620347322
0.6203464544
0.6203626153
0.6203621712
0.6203615507
0.6203607496
0.6203597792
0.6203586635
0.6203574341
0.6203561257
0.6203547726
0.6203534063
0.6203520553
0.6203507498
0.6203495426
0.6203486021
0.6203626841
0.6203622067
0.6203615074
0.6203605859
0.620359467
0.6203581919
0.6203568086
0.6203553644
0.6203539015
0.6203524545
0.6203510506
0.6203497106
0.6203484545
0.6203473216
0.620346454
0.6203613004
0.6203600976
0.620358646
0.6203570355
0.6203553538
0.6203536729
0.6203520448
0.6203505031
0.6203490667
0.6203477438
0.6203465368
0.6203454473
0.6203444941
0.6203437789
0.6203590491
0.6203567588
0.6203542972
0.6203518724
0.6203496221
0.620347617
0.6203458789
0.6203443986
0.6203431514
0.6203421064
0.6203412325
0.6203405037
0.6203399075
0.6203394812
0.6203551098
0.6203513643
0.6203478461
0.6203448092
0.6203423318
0.6203403897
0.6203389111
0.6203378114
0.6203370097
0.6203364367
0.6203360358
0.6203357626
0.6203355835
0.6203354793
0.6203514578
0.6203469976
0.620343264
0.6203403376
0.6203381435
0.6203365556
0.6203354446
0.6203346969
0.6203342198
0.6203339402
0.6203338022
0.6203337626
0.6203337857
0.6203338319
0.6203551099
0.6203513644
0.6203478462
0.6203448093
0.620342332
0.6203403899
0.6203389113
0.6203378116
0.62033701
0.620336437
0.620336036
0.6203357628
0.6203355838
0.6203354796
0.6203590492
0.620356759
0.6203542973
0.6203518726
0.6203496223
0.6203476173
0.6203458792
0.620344399
0.6203431518
0.6203421067
0.6203412329
0.6203405041
0.6203399079
0.6203394817
0.6203613005
0.6203600977
0.6203586461
0.6203570356
0.620355354
0.6203536731
0.6203520451
0.6203505034
0.620349067
0.6203477442
0.6203465372
0.6203454478
0.6203444946
0.6203437794
0.6203622067
0.6203615075
0.620360586
0.6203594671
0.620358192
0.6203568087
0.6203553646
0.6203539017
0.6203524548
0.620351051
0.620349711
0.6203484549
0.6203473221
0.6203464545
0.6203621969
0.620361314
0.6203601
0.6203586137
0.6203569424
0.6203551778
0.6203533996
0.6203516694
0.6203500297
0.6203485062
0.6203471118
0.6203458507
0.620344725
0.6203437512
0.6203430274
0.6203609209
0.6203590492
0.6203567589
0.6203542972
0.6203518725
0.6203496221
0.6203476171
0.6203458789
0.6203443987
0.6203431515
0.6203421064
0.6203412325
0.6203405037
0.6203399075
0.6203394813
0.6203525029
0.6203477795
0.6203435635
0.6203401581
0.6203376069
0.6203358149
0.6203346354
0.6203339188
0.6203335352
0.6203333811
0.6203333783
0.6203334687
0.6203336062
0.6203337368
0.6203381759
0.6203303724
0.620325109
0.6203221015
0.6203207821
0.620320601
0.6203211252
0.6203220472
0.6203231623
0.6203243408
0.6203255036
0.6203266008
0.6203275843
0.6203283306
0.6203197357
0.6203121545
0.6203090679
0.6203087122
0.6203098552
0.6203117351
0.6203139083
0.6203161271
0.62031826
0.6203202421
0.6203220455
0.6203236577
0.6203250513
0.6203260858
0.6203381764
0.6203303729
0.6203251095
0.6203221019
0.6203207826
0.6203206015
0.6203211257
0.6203220476
0.6203231627
0.6203243413
0.620325504
0.6203266012
0.6203275847
0.620328331
0.6203525033
0.6203477799
0.620343564
0.6203401586
0.6203376074
0.6203358155
0.620334636
0.6203339194
0.6203335358
0.6203333817
0.6203333789
0.6203334693
0.6203336069
0.6203337374
0.6203590492
0.620356759
0.6203542974
0.6203518727
0.6203496224
0.6203476174
0.6203458793
0.6203443992
0.620343152
0.620342107
0.6203412331
0.6203405044
0.6203399082
0.620339482
0.620361314
0.6203601001
0.6203586137
0.6203569425
0.6203551779
0.6203533998
0.6203516697
0.6203500301
0.6203485067
0.6203471124
0.6203458513
0.6203447256
0.6203437518
0.6203430281
0.6203614756
0.6203600244
0.6203581642
0.6203560507
0.620353841
0.6203516621
0.6203496027
0.6203477159
0.6203460269
0.620344541
0.6203432511
0.6203421429
0.6203412015
0.6203404232
0.6203398643
0.6203585991
0.6203551098
0.6203513644
0.6203478462
0.6203448092
0.6203423319
0.6203403897
0.6203389112
0.6203378114
0.6203370098
0.6203364368
0.6203360358
0.6203357626
0.6203355836
0.6203354794
0.6203478724
0.620338176
0.6203303725
0.6203251091
0.6203221015
0.6203207822
0.6203206011
0.6203211253
0.6203220473
0.6203231624
0.6203243409
0.6203255037
0.6203266009
0.6203275844
0.6203283306
0.6202897537
0.6202804014
0.6202792804
0.6202825
0.620287575
0.6202931351
0.6202985053
0.6203033978
0.6203077241
0.6203114907
0.6203147423
0.620317528
0.620319857
0.6203215473
0.6201963245
0.6202096443
0.6202291202
0.6202474899
0.6202629458
0.620275467
0.6202855147
0.6202935976
0.6203001487
0.6203055063
0.6203099251
0.6203135862
0.6203165744
0.6203187102
0.6202897554
0.6202804027
0.6202792814
0.620282501
0.6202875758
0.6202931358
0.620298506
0.6203033984
0.6203077247
0.6203114912
0.6203147428
0.6203175285
0.6203198575
0.6203215477
0.6203381763
0.620330373
0.6203251097
0.6203221023
0.620320783
0.620320602
0.6203211262
0.6203220481
0.6203231632
0.6203243417
0.6203255045
0.6203266017
0.6203275852
0.6203283314
0.6203551099
0.6203513645
0.6203478465
0.6203448096
0.6203423324
0.6203403903
0.6203389119
0.6203378122
0.6203370106
0.6203364376
0.6203360367
0.6203357635
0.6203355845
0.6203354803
0.6203600244
0.6203581642
0.6203560508
0.6203538411
0.6203516623
0.6203496031
0.6203477164
0.6203460275
0.6203445417
0.6203432518
0.6203421437
0.6203412023
0.620340424
0.6203398652
0.6203609435
0.6203591185
0.6203569102
0.6203545241
0.6203521293
0.6203498447
0.6203477437
0.620345864
0.6203442172
0.6203427982
0.6203415917
0.6203405772
0.6203397342
0.6203390523
0.6203385713
0.6203562191
0.620351458
0.6203469978
0.6203432642
0.6203403378
0.6203381437
0.6203365558
0.6203354448
0.6203346971
0.6203342199
0.6203339403
0.6203338024
0.6203337628
0.6203337858
0.620333832
0.6203335556
0.6203197361
0.6203121549
0.6203090683
0.6203087125
0.6203098555
0.6203117354
0.6203139085
0.6203161273
0.6203182601
0.6203202422
0.6203220456
0.6203236578
0.6203250514
0.6203260859
0.6202118736
0.6201963259
0.6202096452
0.6202291208
0.6202474903
0.6202629461
0.6202754672
0.6202855149
0.6202935978
0.6203001488
0.6203055064
0.6203099252
0.6203135863
0.6203165745
0.6203187103
0.6197991264
0.6200047386
0.6201176249
0.6201832775
0.6202237534
0.6202501528
0.6202682837
0.6202813119
0.6202910369
0.6202985253
0.6203044339
0.620309172
0.6203129494
0.6203156097
0.6201963245
0.6202096458
0.6202291219
0.6202474915
0.6202629472
0.6202754682
0.6202855158
0.6202935986
0.6203001496
0.6203055071
0.6203099259
0.6203135869
0.620316575
0.6203187108
0.6203197358
0.6203121551
0.6203090689
0.6203087133
0.6203098564
0.6203117364
0.6203139095
0.6203161283
0.6203182611
0.6203202432
0.6203220466
0.6203236587
0.6203250523
0.6203260868
0.6203514578
0.6203469978
0.6203432644
0.6203403382
0.6203381443
0.6203365565
0.6203354456
0.6203346979
0.6203342208
0.6203339413
0.6203338033
0.6203337637
0.6203337868
0.620333833
0.6203591185
0.6203569102
0.6203545242
0.6203521295
0.620349845
0.6203477442
0.6203458645
0.6203442178
0.620342799
0.6203415925
0.620340578
0.6203397351
0.6203390533
0.6203385723
0.6203614756
0.6203600245
0.6203581643
0.6203560508
0.620353841
0.6203516622
0.6203496029
0.6203477161
0.6203460271
0.6203445413
0.6203432513
0.6203421431
0.6203412017
0.6203404234
0.6203398646
0.6203585992
0.62035511
0.6203513646
0.6203478464
0.6203448095
0.6203423322
0.6203403901
0.6203389115
0.6203378118
0.6203370102
0.6203364371
0.6203360362
0.620335763
0.620335584
0.6203354797
0.6203478731
0.6203381767
0.6203303733
0.6203251098
0.6203221023
0.6203207829
0.6203206018
0.6203211259
0.6203220479
0.6203231629
0.6203243414
0.6203255042
0.6203266014
0.6203275849
0.6203283311
0.6203116807
0.6202897564
0.6202804035
0.6202792821
0.6202825015
0.6202875763
0.6202931362
0.6202985063
0.6203033987
0.6203077249
0.6203114914
0.6203147429
0.6203175286
0.6203198576
0.6203215479
0.6202118738
0.6201963263
0.6202096469
0.6202291227
0.6202474921
0.6202629477
0.6202754686
0.6202855161
0.6202935988
0.6203001498
0.6203055072
0.620309926
0.620313587
0.6203165751
0.6203187109
0.6203116801
0.6202897564
0.6202804039
0.6202792828
0.6202825023
0.6202875771
0.6202931371
0.6202985071
0.6203033994
0.6203077256
0.6203114921
0.6203147436
0.6203175292
0.6203198582
0.6203215484
0.6203381759
0.620330373
0.6203251101
0.6203221028
0.6203207836
0.6203206026
0.6203211268
0.6203220488
0.6203231638
0.6203243424
0.6203255051
0.6203266023
0.6203275857
0.6203283319
0.6203551097
0.6203513645
0.6203478465
0.6203448098
0.6203423327
0.6203403906
0.6203389122
0.6203378125
0.620337011
0.620336438
0.6203360371
0.6203357639
0.6203355849
0.6203354807
0.6203600244
0.6203581642
0.6203560508
0.6203538412
0.6203516624
0.6203496032
0.6203477166
0.6203460277
0.6203445419
0.6203432521
0.620342144
0.6203412026
0.6203404244
0.6203398656
0.6203621969
0.6203613141
0.6203601001
0.6203586138
0.6203569426
0.6203551779
0.6203533998
0.6203516697
0.62035003
0.6203485066
0.6203471122
0.6203458511
0.6203447254
0.6203437516
0.6203430278
0.620360921
0.6203590493
0.6203567591
0.6203542975
0.6203518728
0.6203496225
0.6203476175
0.6203458793
0.6203443991
0.620343152
0.6203421069
0.620341233
0.6203405043
0.6203399081
0.6203394819
0.6203570706
0.6203525036
0.6203477801
0.6203435642
0.6203401589
0.6203376077
0.6203358157
0.6203346362
0.6203339196
0.620333536
0.6203333819
0.6203333791
0.6203334695
0.620333607
0.6203337375
0.6203478731
0.6203381769
0.6203303735
0.6203251102
0.6203221027
0.6203207834
0.6203206023
0.6203211265
0.6203220484
0.6203231635
0.620324342
0.6203255047
0.6203266019
0.6203275853
0.6203283316
0.6203335555
0.6203197365
0.6203121558
0.6203090694
0.6203087138
0.6203098568
0.6203117367
0.6203139098
0.6203161286
0.6203182614
0.6203202434
0.6203220468
0.6203236589
0.6203250524
0.6203260869
0.6203478731
0.6203381769
0.6203303737
0.6203251105
0.6203221031
0.6203207838
0.6203206028
0.620321127
0.6203220489
0.6203231639
0.6203243424
0.6203255052
0.6203266023
0.6203275858
0.620328332
0.6203570704
0.6203525033
0.62034778
0.6203435643
0.6203401591
0.620337608
0.6203358162
0.6203346368
0.6203339202
0.6203335366
0.6203333826
0.6203333798
0.6203334702
0.6203336077
0.6203337383
0.6203590491
0.620356759
0.6203542975
0.6203518729
0.6203496227
0.6203476178
0.6203458798
0.6203443997
0.6203431526
0.6203421075
0.6203412337
0.620340505
0.6203399088
0.6203394827
0.620361314
0.6203601
0.6203586138
0.6203569426
0.6203551781
0.6203534
0.62035167
0.6203500304
0.6203485071
0.6203471128
0.6203458518
0.6203447261
0.6203437524
0.6203430287
0.6203626842
0.6203622067
0.6203615075
0.620360586
0.6203594672
0.6203581921
0.6203568088
0.6203553647
0.6203539018
0.6203524549
0.620351051
0.620349711
0.620348455
0.6203473221
0.6203464545
0.6203621868
0.6203613006
0.6203600978
0.6203586461
0.6203570357
0.6203553541
0.6203536733
0.6203520452
0.6203505035
0.6203490671
0.6203477444
0.6203465373
0.620345448
0.6203444947
0.6203437795
0.620360921
0.6203590493
0.6203567591
0.6203542975
0.6203518729
0.6203496226
0.6203476176
0.6203458795
0.6203443993
0.6203431522
0.6203421071
0.6203412333
0.6203405045
0.6203399083
0.6203394821
0.6203585992
0.6203551101
0.6203513648
0.6203478467
0.6203448099
0.6203423327
0.6203403906
0.6203389121
0.6203378124
0.6203370108
0.6203364378
0.6203360369
0.6203357636
0.6203355846
0.6203354804
0.6203562191
0.6203514581
0.6203469981
0.6203432647
0.6203403385
0.6203381445
0.6203365567
0.6203354458
0.6203346981
0.620334221
0.6203339414
0.6203338034
0.6203337639
0.6203337869
0.6203338332
0.6203585992
0.6203551101
0.6203513648
0.6203478468
0.62034481
0.6203423328
0.6203403908
0.6203389123
0.6203378127
0.6203370111
0.6203364381
0.6203360372
0.620335764
0.620335585
0.6203354808
0.620360921
0.6203590493
0.6203567591
0.6203542976
0.620351873
0.6203496228
0.6203476179
0.6203458798
0.6203443997
0.6203431526
0.6203421076
0.6203412338
0.6203405051
0.6203399089
0.6203394827
0.6203621868
0.6203613005
0.6203600978
0.6203586461
0.6203570358
0.6203553542
0.6203536735
0.6203520455
0.6203505039
0.6203490676
0.6203477448
0.6203465379
0.6203454485
0.6203444953
0.6203437802
0.6203622066
0.6203615075
0.620360586
0.6203594672
0.6203581922
0.6203568089
0.6203553649
0.620353902
0.6203524552
0.6203510514
0.6203497115
0.6203484555
0.6203473227
0.6203464552
0.6203629042
0.6203626153
0.6203621712
0.6203615508
0.6203607496
0.6203597792
0.6203586636
0.6203574342
0.6203561258
0.6203547727
0.6203534064
0.6203520555
0.6203507499
0.6203495428
0.6203486023
0.6203626842
0.6203622067
0.6203615075
0.620360586
0.6203594672
0.6203581921
0.6203568088
0.6203553647
0.6203539018
0.620352455
0.6203510511
0.6203497111
0.6203484551
0.6203473222
0.6203464547
0.6203621969
0.6203613141
0.6203601001
0.6203586138
0.6203569427
0.6203551781
0.6203533999
0.6203516698
0.6203500302
0.6203485068
0.6203471125
0.6203458515
0.6203447258
0.620343752
0.6203430283
0.6203614756
0.6203600245
0.6203581643
0.620356051
0.6203538413
0.6203516625
0.6203496032
0.6203477166
0.6203460276
0.6203445418
0.6203432519
0.6203421438
0.6203412024
0.6203404242
0.6203398654
0.6203609435
0.6203591186
0.6203569103
0.6203545243
0.6203521296
0.6203498452
0.6203477444
0.6203458647
0.620344218
0.6203427991
0.6203415926
0.6203405782
0.6203397353
0.6203390534
0.6203385725
0.6203614757
0.6203600245
0.6203581644
0.620356051
0.6203538414
0.6203516626
0.6203496034
0.6203477168
0.6203460278
0.6203445421
0.6203432522
0.6203421441
0.6203412027
0.6203404245
0.6203398657
0.6203621969
0.6203613141
0.6203601002
0.6203586139
0.6203569428
0.6203551782
0.6203534001
0.6203516701
0.6203500305
0.6203485072
0.6203471129
0.6203458519
0.6203447262
0.6203437525
0.6203430288
0.6203626842
0.6203622067
0.6203615075
0.6203605861
0.6203594672
0.6203581922
0.620356809
0.6203553649
0.6203539021
0.6203524553
0.6203510515
0.6203497116
0.6203484556
0.6203473228
0.6203464553
0.6203629042
0.6203626153
0.6203621712
0.6203615508
0.6203607496
0.6203597793
0.6203586637
0.6203574344
0.6203561261
0.620354773
0.6203534067
0.6203520559
0.6203507504
0.6203495433
0.6203486029
)
;

boundaryField
{
    top
    {
        type            zeroGradient;
    }
    bottom
    {
        type            zeroGradient;
    }
    side-walls
    {
        type            zeroGradient;
    }
    inlet
    {
        type            zeroGradient;
    }
    outlet
    {
        type            zeroGradient;
    }
    procBoundary1to0
    {
        type            processor;
        value           nonuniform List<scalar> 
97
(
0.6203629042
0.6203629042
0.6203626842
0.620362197
0.6203614757
0.6203609436
0.6203614757
0.620362197
0.6203626842
0.6203629043
0.62036297
0.6203621868
0.6203621868
0.6203621868
0.620360921
0.6203585994
0.6203562195
0.6203585994
0.6203609211
0.6203621869
0.6203626842
0.6203627465
0.6203621793
0.6203570703
0.6203570703
0.6203570703
0.6203478734
0.6203335573
0.6203478739
0.6203570709
0.6203609211
0.620362197
0.6203624235
0.6203611927
0.6203569522
0.6203116798
0.6203116798
0.6203116798
0.6202118843
0.6203116834
0.6203478739
0.6203585995
0.6203614757
0.6203621966
0.620360278
0.6203523337
0.6203214396
0.6194027898
0.6194027898
0.6194027898
0.6202118837
0.6202118837
0.6203335572
0.6203562195
0.6203609436
0.6203624235
0.6203611927
0.6203569521
0.620344828
0.620321439
0.6203448283
0.6203478727
0.6203478727
0.6203478727
0.6203585993
0.6203614757
0.6203627465
0.6203621793
0.62036054
0.6203569521
0.6203523335
0.6203569521
0.62036054
0.6203609209
0.6203609209
0.6203609209
0.6203621969
0.62036297
0.6203627431
0.6203621793
0.6203611927
0.6203602779
0.6203611927
0.6203621793
0.6203627431
0.6203626841
0.6203626841
0.6203626841
0.6203630723
0.62036297
0.6203627465
0.6203624235
0.6203621966
0.6203624235
0.6203627465
0.62036297
0.6203630723
)
;
    }
}


// ************************************************************************* //
