/*--------------------------------*- C++ -*----------------------------------*\
| =========                 |                                                 |
| \\      /  F ield         | OpenFOAM: The Open Source CFD Toolbox           |
|  \\    /   O peration     | Version:  4.x                                   |
|   \\  /    A nd           | Web:      www.OpenFOAM.org                      |
|    \\/     M anipulation  |                                                 |
\*---------------------------------------------------------------------------*/
FoamFile
{
    version     2.0;
    format      ascii;
    class       surfaceScalarField;
    location    "10000";
    object      phi;
}
// * * * * * * * * * * * * * * * * * * * * * * * * * * * * * * * * * * * * * //

dimensions      [1 0 -1 0 0 0 0];

internalField   nonuniform List<scalar> 
3172
(
9.165602258e-06
-1.063509687e-11
-9.11917408e-12
9.165619095e-06
-7.968633145e-12
-7.375199579e-12
9.165629453e-06
-3.27409279e-12
-3.177051876e-12
9.16563204e-06
-6.399592339e-13
-1.171695871e-12
9.165632268e-06
-3.879610821e-13
-4.09319194e-13
9.165630761e-06
6.570981428e-13
1.210721163e-12
9.165627214e-06
9.711213826e-13
7.841273272e-13
9.165624752e-06
2.560892982e-12
2.807420134e-12
9.165619331e-06
2.318882299e-12
2.976046322e-12
9.165611924e-06
3.07112003e-12
3.377776784e-12
9.165606225e-06
3.554832564e-12
5.157099232e-12
9.165598892e-06
4.226291887e-12
3.975944414e-12
9.165592537e-06
3.936436672e-12
2.305233047e-12
3.459514874e-12
3.583490773e-12
9.165580867e-06
-1.505827767e-11
-7.711561949e-12
9.165595595e-06
-1.454563075e-11
-1.090018302e-11
9.165602791e-06
-7.971255837e-12
-4.555068156e-12
9.165599305e-06
-2.86433089e-12
-1.693820554e-12
9.165598268e-06
-5.063439793e-14
-1.129513666e-13
9.165591094e-06
1.669825089e-12
6.743833159e-13
9.16558709e-06
3.723599737e-12
2.603095548e-12
9.165576858e-06
6.2192498e-12
3.21437606e-12
9.165571632e-06
5.420028059e-12
4.337086374e-12
9.165562267e-06
4.085787135e-12
4.00366847e-12
9.165556297e-06
3.090517683e-12
3.973811808e-12
9.16554763e-06
3.853406845e-12
4.414600812e-12
9.165541784e-06
4.993034084e-12
3.45988796e-12
4.366874535e-12
3.357306514e-12
9.165648404e-06
-7.571154575e-12
-1.221051585e-11
9.165657428e-06
-7.908300606e-12
-1.337137194e-11
9.165656402e-06
-1.803422698e-12
-2.95592037e-12
9.165647622e-06
2.763002924e-13
2.496847216e-12
9.165637654e-06
5.826276079e-13
5.620694166e-12
9.165628166e-06
1.642786711e-12
5.589095312e-12
9.165622299e-06
3.814776565e-12
7.263267238e-12
9.16560898e-06
1.478567966e-12
5.690668862e-12
9.165603199e-06
3.698979162e-12
6.1958041e-12
9.165595611e-06
4.598448342e-12
6.737722554e-12
9.16559093e-06
4.699035748e-12
6.520473039e-12
9.165582575e-06
3.523331048e-12
4.817408183e-12
9.165576233e-06
4.970585748e-12
5.324147002e-12
4.466965957e-12
3.833317224e-12
9.165647193e-06
3.528342231e-13
5.346323739e-12
9.165652777e-06
1.744966438e-12
-1.573033953e-11
9.165647604e-06
4.132121036e-12
2.425572718e-13
9.165633082e-06
3.261423843e-12
7.626781369e-12
9.16562075e-06
2.394419028e-12
9.981983626e-12
9.165611334e-06
2.875224123e-12
1.108432721e-11
9.165599875e-06
2.075462033e-12
1.156937216e-11
9.165591179e-06
2.359030221e-12
1.146071819e-11
9.165584529e-06
3.478193762e-13
9.792547458e-12
9.16557781e-06
2.316726637e-12
8.49275597e-12
9.165573369e-06
2.253337158e-12
8.465110722e-12
9.165570379e-06
2.832469464e-12
6.564953676e-12
9.165564614e-06
2.271030456e-12
6.589405067e-12
1.424613384e-12
4.970034429e-12
9.1656635e-06
-1.848780801e-13
4.504248605e-11
9.16564489e-06
-2.312612274e-12
2.185684508e-11
9.16562416e-06
-6.787308723e-12
2.881697572e-11
9.165605564e-06
-5.634885509e-12
2.810980433e-11
9.165591402e-06
-2.450720655e-12
2.328703047e-11
9.165579138e-06
-2.386853047e-12
1.941692279e-11
9.165569198e-06
-2.338696099e-12
1.596841149e-11
9.165558973e-06
-2.550198892e-12
1.371575199e-11
9.165555583e-06
-8.986103873e-13
1.160636815e-11
9.165545515e-06
-1.223032313e-12
9.343448564e-12
9.165544905e-06
-1.973008788e-12
8.394620316e-12
9.165539746e-06
-2.804397043e-12
6.692877586e-12
9.165537183e-06
-2.371639708e-12
7.54480956e-12
-1.333949012e-12
5.830034301e-12
9.165625101e-06
1.018117393e-11
4.840188586e-12
9.165629915e-06
8.610880603e-12
-1.58609999e-11
9.165624313e-06
2.698499187e-12
2.280429653e-12
9.165614793e-06
-8.852453089e-13
9.291012409e-12
9.165600121e-06
-1.764103275e-12
1.189904679e-11
9.165586685e-06
-3.439035597e-12
1.280979266e-11
9.165576965e-06
-6.314751132e-12
1.22247401e-11
9.165571211e-06
-5.221870376e-12
1.241556953e-11
9.16556334e-06
-4.924103152e-12
1.072421938e-11
9.165554778e-06
-5.313653114e-12
8.026749454e-12
9.165551013e-06
-5.394045167e-12
7.044233974e-12
9.165548067e-06
-3.832489605e-12
7.181816874e-12
9.165544464e-06
-3.329511363e-12
7.740068649e-12
-2.084872023e-12
7.236929993e-12
9.165622459e-06
1.222139987e-11
-1.315276769e-11
9.165631487e-06
1.243678717e-11
-1.276154613e-11
9.165631968e-06
6.364643169e-12
-8.648502408e-13
9.16562524e-06
1.322231427e-12
4.519093167e-12
9.165613923e-06
-1.842883097e-12
4.194433775e-12
9.165604353e-06
-2.754563412e-12
6.89006119e-12
9.165597536e-06
-3.154429338e-12
8.993875356e-12
9.165589154e-06
-4.412711574e-12
9.245927741e-12
9.165579492e-06
-5.359500553e-12
8.059438393e-12
9.165572082e-06
-5.790578193e-12
5.835622423e-12
9.165566495e-06
-5.739602326e-12
4.69329816e-12
9.165560698e-06
-6.63761804e-12
4.711033594e-12
9.165556287e-06
-6.411220924e-12
6.470024056e-12
-5.092002088e-12
4.387564e-12
9.165630767e-06
8.78064812e-12
-8.249076735e-12
9.165644589e-06
7.692381806e-12
-1.051640303e-11
9.165652526e-06
4.115731097e-12
-4.587193459e-12
9.165653531e-06
3.229183727e-12
-1.603201352e-12
9.165650175e-06
3.08849101e-13
1.08069111e-12
9.165645166e-06
-5.390697356e-13
1.290290783e-12
9.165641839e-06
-2.231111105e-12
3.320816804e-12
9.165637454e-06
-2.362928483e-12
4.859642874e-12
9.165629865e-06
-2.616522465e-12
4.847095323e-12
9.165620784e-06
-3.120881761e-12
3.245739346e-12
9.165615218e-06
-2.509947605e-12
4.802337847e-12
9.165610039e-06
-3.970994985e-12
3.762044465e-12
9.165602822e-06
-2.859873731e-12
5.142886747e-12
-3.080313302e-12
3.779649665e-12
9.165607132e-06
-8.067537482e-12
9.165624299e-06
-7.122890802e-12
9.165635669e-06
-3.338692859e-12
9.165638357e-06
-3.379986648e-12
9.165640201e-06
-2.027387603e-12
9.165637597e-06
-4.420553762e-13
9.165635202e-06
2.156290096e-12
9.165631579e-06
3.04214032e-12
9.165626033e-06
3.517944207e-12
9.165616336e-06
1.518215487e-12
9.165610264e-06
3.159712503e-12
9.165606409e-06
4.755004375e-12
9.165596241e-06
2.453548911e-12
3.904106826e-12
9.165563224e-06
-4.674178103e-11
9.165579612e-06
-8.296210411e-12
-1.248006441e-11
9.165593367e-06
-1.126951513e-11
-1.296030962e-11
9.165599474e-06
-4.78311989e-12
-5.614816627e-12
9.16559871e-06
-1.474608704e-12
-1.184319536e-12
9.165597111e-06
5.125244778e-13
1.504961937e-12
9.165590864e-06
6.912119046e-13
3.491377032e-12
9.165584955e-06
3.510960835e-12
5.542759369e-12
9.165577831e-06
4.307465572e-12
5.048811084e-12
9.165570499e-06
4.662659215e-12
4.584139405e-12
9.165566308e-06
5.255548349e-12
4.69336366e-12
9.165557614e-06
3.712882908e-12
4.673794408e-12
9.165550044e-06
5.537086936e-12
5.378432658e-12
9.165544818e-06
5.190665821e-12
6.595233357e-12
3.09250741e-12
5.545739591e-12
9.165610471e-06
-1.007961874e-11
-9.555574461e-12
9.16562394e-06
-1.573789753e-11
-1.425377885e-11
9.165625299e-06
-8.121494485e-12
-6.204521569e-12
9.165617497e-06
-1.162658249e-12
-1.585870113e-12
9.165611152e-06
2.863863406e-12
2.197648142e-12
9.165604349e-06
5.768786e-12
6.32940911e-12
9.165598697e-06
7.917264563e-12
8.307511188e-12
9.16559126e-06
8.700193295e-12
8.195554576e-12
9.165582975e-06
8.27012314e-12
7.225749141e-12
9.165574934e-06
7.63160299e-12
6.601206854e-12
9.165571933e-06
6.868861951e-12
6.855059045e-12
9.165563205e-06
6.589339491e-12
6.662782818e-12
9.165560596e-06
8.19024706e-12
7.895020338e-12
5.599414275e-12
6.266206733e-12
9.165661878e-06
4.990163728e-12
-6.993737953e-12
9.165657215e-06
-6.573844175e-12
-1.347666483e-11
9.165645393e-06
3.062511746e-12
6.570016311e-12
9.165624584e-06
6.036600817e-12
1.173104265e-11
9.165608802e-06
6.840457652e-12
1.460508192e-11
9.16559712e-06
7.973697932e-12
1.67370072e-11
9.165587275e-06
7.973775055e-12
1.603416929e-11
9.165579189e-06
7.187261141e-12
1.427993609e-11
9.16557679e-06
6.436112784e-12
1.360511358e-11
9.165571295e-06
5.617443371e-12
1.112507596e-11
9.16556994e-06
6.660289621e-12
1.065547813e-11
9.165566253e-06
4.6067956e-12
8.969112797e-12
9.165562938e-06
6.493959308e-12
8.589737177e-12
5.481766772e-12
7.106298275e-12
9.165630762e-06
2.522920813e-11
5.396106843e-11
9.165620313e-06
9.811007666e-12
-2.090358853e-11
9.165600522e-06
9.600389983e-12
9.714086885e-12
9.165579999e-06
8.905689193e-12
2.400860893e-11
9.165565574e-06
7.730554144e-12
2.512953394e-11
9.165554701e-06
7.142116212e-12
2.507908064e-11
9.165545968e-06
4.871009096e-12
2.304776186e-11
9.165541828e-06
3.875877855e-12
1.900457394e-11
9.16553938e-06
2.797783587e-12
1.738936065e-11
9.165537379e-06
3.341871051e-12
1.534328797e-11
9.165535309e-06
2.460272103e-12
1.296190696e-11
9.165536173e-06
3.443062238e-12
1.15523705e-11
9.16553455e-06
3.285159588e-12
1.000255802e-11
2.979905678e-12
8.642567786e-12
9.165612204e-06
-2.483223796e-11
2.800920201e-10
9.165547864e-06
-9.892761066e-12
1.029650767e-10
9.165509841e-06
-1.065956792e-11
8.443099389e-11
9.165487599e-06
-8.564204448e-12
7.212901238e-11
9.165473316e-06
-5.910679372e-12
5.290850743e-11
9.165463867e-06
-5.121677643e-12
3.927226444e-11
9.165460589e-06
-5.41766661e-12
3.200682864e-11
9.165458942e-06
-4.11374053e-12
2.512607097e-11
9.165458319e-06
-2.868392999e-12
1.967633055e-11
9.165460542e-06
-2.709562834e-12
1.71361033e-11
9.165460966e-06
-4.23905849e-12
1.359257944e-11
9.165462123e-06
-3.176040623e-12
1.14312222e-11
9.165462861e-06
-3.467693271e-12
1.000618765e-11
-2.020152774e-12
8.235577064e-12
9.165573105e-06
-3.946646913e-12
5.361756091e-11
9.165564328e-06
7.222884188e-12
-2.15343383e-11
9.1655453e-06
-2.828219972e-12
1.04828434e-11
9.16552495e-06
-7.493863649e-12
2.332754554e-11
9.165508067e-06
-1.090570273e-11
2.4552268e-11
9.165495754e-06
-9.621572989e-12
2.426532012e-11
9.165490418e-06
-9.462817274e-12
2.348194305e-11
9.165487453e-06
-9.109892044e-12
2.04301446e-11
9.165483337e-06
-8.349845805e-12
1.736070377e-11
9.165480747e-06
-7.406009322e-12
1.480994667e-11
9.165482217e-06
-7.491248127e-12
1.390970623e-11
9.165479798e-06
-7.10784547e-12
1.090693856e-11
9.165479841e-06
-5.748139568e-12
1.069316821e-11
-5.028523362e-12
9.311594663e-12
9.16562657e-06
1.02011861e-11
-7.482508788e-12
9.165622337e-06
1.529322955e-11
-1.326248473e-11
9.165609931e-06
6.318049907e-12
5.529257902e-12
9.165593308e-06
-1.428349534e-12
1.329008367e-11
9.165580813e-06
-3.462474609e-12
1.646390047e-11
9.165567655e-06
-6.413371258e-12
1.537523456e-11
9.16556192e-06
-7.762279879e-12
1.603661417e-11
9.165555691e-06
-8.668572673e-12
1.387257213e-11
9.16554945e-06
-8.786059107e-12
1.390380669e-11
9.16554421e-06
-7.825616458e-12
1.235087405e-11
9.165544009e-06
-6.036629091e-12
1.248858511e-11
9.165541617e-06
-7.388443363e-12
9.718011042e-12
9.165534762e-06
-7.805544812e-12
8.90445889e-12
-5.610835939e-12
5.971814083e-12
9.165637794e-06
8.836136999e-12
-1.012683397e-11
9.16564868e-06
1.107539889e-11
-1.493674398e-11
9.165651659e-06
5.47399763e-12
-6.517704401e-12
9.165648652e-06
1.569320562e-12
-1.27839484e-12
9.165640664e-06
-1.391217907e-12
1.952028755e-12
9.16563277e-06
-2.575222083e-12
4.745460583e-12
9.165625997e-06
-3.442689829e-12
6.606120777e-12
9.165618773e-06
-3.629007129e-12
7.684287271e-12
9.165611705e-06
-3.978802386e-12
8.388038543e-12
9.165603292e-06
-5.44812431e-12
7.875931446e-12
9.165596744e-06
-4.014152282e-12
7.197990859e-12
9.165593046e-06
-3.300160881e-12
7.066363128e-12
9.165586779e-06
-5.552324733e-12
6.785954903e-12
-3.637497028e-12
5.476524834e-12
9.165574563e-06
-1.449008628e-11
9.165586916e-06
-1.480732561e-11
9.165595035e-06
-6.837080938e-12
9.165596397e-06
-2.921497244e-12
9.165593589e-06
4.845972637e-13
9.165587681e-06
1.105918083e-12
9.165581778e-06
2.982819458e-12
9.165576374e-06
3.645886245e-12
9.165568601e-06
5.578614429e-12
9.165562647e-06
5.909705651e-12
9.165554074e-06
4.580265314e-12
9.165548284e-06
5.104123112e-12
9.165542467e-06
6.953512497e-12
5.152622138e-12
9.165647848e-06
-7.607242846e-11
-5.23764701e-11
9.165651883e-06
-1.248870465e-11
-9.256173571e-12
9.165662465e-06
-1.230393929e-11
-8.592499984e-12
9.165660931e-06
-1.787248126e-12
-3.311109222e-12
9.165651388e-06
3.659447678e-12
-3.091958461e-13
9.165642399e-06
3.718867968e-12
8.328643885e-13
9.165633109e-06
5.950888625e-12
2.484804627e-12
9.16562166e-06
8.026078543e-12
3.992157267e-12
9.165615231e-06
9.414072103e-12
5.069102133e-12
9.165607983e-06
8.242647851e-12
5.959452215e-12
9.165601775e-06
8.567180001e-12
4.861464078e-12
9.165593117e-06
7.159959108e-12
4.478130295e-12
9.165586154e-06
7.175615241e-12
3.910929576e-12
9.165582497e-06
7.467607057e-12
5.91208207e-12
5.755075608e-12
5.118916156e-12
9.165690413e-06
-9.947683026e-11
9.16567209e-06
-5.813925496e-12
4.416160491e-12
9.165666598e-06
-1.37099944e-11
-8.563610056e-12
9.165652474e-06
5.079299716e-12
1.07009671e-12
9.1656359e-06
1.338935767e-11
5.51678806e-12
9.165623394e-06
1.522286364e-11
6.655101022e-12
9.165613141e-06
1.603466778e-11
9.489079243e-12
9.165602071e-06
1.549050607e-11
8.674586498e-12
9.165594762e-06
1.445305774e-11
6.978621502e-12
9.165590717e-06
1.510597597e-11
9.13433014e-12
9.165584365e-06
1.234918496e-11
6.817357915e-12
9.165581575e-06
1.071289707e-11
7.837921949e-12
9.16557704e-06
8.499475039e-12
6.203934633e-12
9.165574833e-06
8.562013638e-12
5.693161077e-12
7.232386431e-12
4.947820453e-12
9.165651451e-06
3.81540977e-11
3.736821913e-11
9.165600276e-06
1.225623255e-11
1.093709524e-11
9.165553702e-06
2.876420958e-11
2.831623886e-11
9.165521512e-06
3.030930261e-11
2.883829129e-11
9.165503188e-06
2.417309509e-11
2.601957274e-11
9.165492724e-06
2.004709633e-11
2.15389894e-11
9.165489243e-06
1.737978491e-11
1.835154163e-11
9.165487227e-06
1.380217874e-11
1.417370578e-11
9.165487189e-06
1.193027436e-11
1.224466331e-11
9.165488971e-06
1.056021157e-11
1.04155896e-11
9.165492847e-06
9.007049687e-12
1.019944395e-11
9.165493978e-06
7.978580551e-12
8.011126218e-12
9.165496097e-06
8.354760068e-12
6.725120088e-12
6.867482304e-12
6.430270734e-12
9.165647465e-06
1.07457663e-10
2.194998112e-10
9.165576151e-06
4.519774348e-11
1.623713544e-11
9.165526606e-06
3.879850676e-11
4.661428402e-11
9.165499317e-06
2.991086168e-11
4.879350546e-11
9.165493847e-06
2.104685348e-11
3.977314807e-11
9.165496178e-06
1.484158396e-11
3.277619877e-11
9.165502411e-06
1.113874972e-11
2.573608553e-11
9.165508718e-06
8.289574133e-12
2.192852794e-11
9.165517165e-06
5.894048393e-12
1.808179263e-11
9.165524374e-06
4.411925435e-12
1.397173813e-11
9.16552905e-06
3.169673267e-12
1.15188146e-11
9.165536528e-06
3.843451095e-12
8.528159939e-12
9.165542065e-06
3.235627203e-12
9.229901718e-12
3.220173959e-12
7.399550417e-12
9.165636455e-06
-1.070237997e-10
1.132837898e-09
9.16542291e-06
-4.578350389e-11
4.044279992e-10
9.165365199e-06
-3.936173016e-11
2.184177915e-10
9.165357659e-06
-3.004666684e-11
1.364007147e-10
9.165370985e-06
-2.083585281e-11
7.992997783e-11
9.165392179e-06
-1.360030996e-11
5.116185808e-11
9.165408371e-06
-9.919037636e-12
3.541375825e-11
9.165424676e-06
-7.758296548e-12
2.594756981e-11
9.165437382e-06
-5.786069597e-12
1.961912123e-11
9.165447611e-06
-5.031913985e-12
1.44898459e-11
9.16545994e-06
-4.862181019e-12
1.316310245e-11
9.165467316e-06
-3.956344528e-12
1.011992213e-11
9.165477988e-06
-3.251888673e-12
1.086903827e-11
-1.421921743e-12
7.638969739e-12
9.16566331e-06
-3.719755226e-11
2.208497363e-10
9.165591841e-06
-1.082205896e-11
1.596308228e-11
9.165542109e-06
-2.973463325e-11
4.672264571e-11
9.16551691e-06
-3.053905187e-11
4.886152097e-11
9.16550975e-06
-2.489488448e-11
3.994595703e-11
9.165510378e-06
-2.289887213e-11
3.243558564e-11
9.165514691e-06
-1.958286452e-11
2.636723952e-11
9.165524668e-06
-1.581149377e-11
2.28613708e-11
9.165532234e-06
-1.218747876e-11
1.75803742e-11
9.165537936e-06
-9.99992523e-12
1.377096451e-11
9.16554662e-06
-8.197021358e-12
1.170928835e-11
9.165553531e-06
-8.464383413e-12
9.947754437e-12
9.165560612e-06
-7.695673284e-12
9.991780421e-12
-7.639827128e-12
7.941235054e-12
9.165738255e-06
7.866086087e-12
3.811550549e-11
9.165687237e-06
1.345304645e-11
1.100660071e-11
9.165642055e-06
-6.043088037e-12
2.90577297e-11
9.165610048e-06
-1.541237008e-11
2.892804094e-11
9.165590293e-06
-1.736417247e-11
2.436668153e-11
9.165580963e-06
-1.765132884e-11
2.149665879e-11
9.165576365e-06
-1.718448836e-11
1.870583679e-11
9.16557693e-06
-1.532313793e-11
1.692145944e-11
9.165576161e-06
-1.381458528e-11
1.328912766e-11
9.165575325e-06
-1.318332792e-11
1.086447868e-11
9.165579721e-06
-1.105293308e-11
1.000403094e-11
9.165583102e-06
-1.012005937e-11
9.992072733e-12
9.165585293e-06
-8.436278332e-12
9.660036748e-12
-6.943672853e-12
7.747900813e-12
9.165604187e-06
1.097216385e-11
2.740197691e-12
9.165599347e-06
1.180077948e-11
-9.093508563e-12
9.165585117e-06
1.87539178e-12
1.541189251e-12
9.165569699e-06
-3.37310683e-12
6.061353439e-12
9.165555337e-06
-5.188621949e-12
7.863287388e-12
9.165543573e-06
-7.962075922e-12
9.190827565e-12
9.165534883e-06
-7.95110721e-12
9.771767107e-12
9.165528879e-06
-7.832531189e-12
9.85594867e-12
9.165523352e-06
-8.150786255e-12
8.519274322e-12
9.165517086e-06
-7.679189948e-12
9.139328881e-12
9.165514398e-06
-6.421030816e-12
8.05905804e-12
9.165514191e-06
-5.122703317e-12
7.890940864e-12
9.165508987e-06
-5.259631757e-12
6.655769324e-12
-4.132041621e-12
5.899123402e-12
9.165614508e-06
-8.751119814e-12
9.165622746e-06
-9.070616923e-12
9.165621697e-06
-2.202480892e-12
9.16561542e-06
9.645690319e-13
9.165606046e-06
2.297483298e-12
9.16559766e-06
3.952079621e-12
9.165587875e-06
5.417959671e-12
9.165579917e-06
6.869633069e-12
9.165573891e-06
6.146962683e-12
9.16556625e-06
6.264994415e-12
9.165560138e-06
6.55962016e-12
9.165554914e-06
6.369996701e-12
9.165548093e-06
4.686554476e-12
4.167195623e-12
9.165684515e-06
-1.095036598e-10
-4.961763047e-11
9.16567022e-06
3.687858197e-12
-2.268781411e-13
9.165675994e-06
-1.622002502e-11
1.189179979e-13
9.165669927e-06
3.795173629e-13
4.183576146e-12
9.16565683e-06
7.064787985e-12
4.232999152e-12
9.165646239e-06
9.845063161e-12
2.831051552e-12
9.165633199e-06
1.22757477e-11
3.053902035e-12
9.165618115e-06
1.222441775e-11
2.175744726e-12
9.165613082e-06
1.094740181e-11
3.282360433e-12
9.165604911e-06
1.108632621e-11
1.76448146e-12
9.165601226e-06
9.351494757e-12
1.825036705e-12
9.165596872e-06
1.001083315e-11
2.21546812e-12
9.165594538e-06
9.240588212e-12
3.644483599e-12
9.165588756e-06
6.665631274e-12
2.032049048e-12
5.624745206e-12
2.417250825e-12
9.165637235e-06
-2.4457501e-10
-9.5903391e-11
9.165568368e-06
5.448547918e-11
2.442013586e-11
9.165556904e-06
-2.120883127e-11
7.567426597e-12
9.165536296e-06
1.01892161e-11
8.048904202e-12
9.165515192e-06
2.320168282e-11
9.263705116e-12
9.165502166e-06
2.612428167e-11
8.456126377e-12
9.165487956e-06
2.358327281e-11
5.409081816e-12
9.165478536e-06
2.212249656e-11
4.373172734e-12
9.165476045e-06
2.008875239e-11
4.563172431e-12
9.16546949e-06
1.72198428e-11
2.366468213e-12
9.165470821e-06
1.49798913e-11
3.178804458e-12
9.165468528e-06
1.330925594e-11
2.08293356e-12
9.165466529e-06
9.531589787e-12
1.486310606e-12
9.165468876e-06
9.7135077e-12
3.293534298e-12
8.673877365e-12
2.592216212e-12
9.165792524e-06
-2.897220322e-10
9.165560323e-06
2.190576587e-10
1.062441141e-10
9.165490061e-06
1.643276444e-11
4.390517607e-11
9.165439847e-06
4.591713687e-11
3.73792181e-11
9.165418179e-06
5.033990451e-11
2.862938601e-11
9.165408555e-06
3.828356742e-11
1.964036947e-11
9.1654104e-06
3.17329903e-11
1.42782499e-11
9.165415468e-06
2.493748975e-11
1.023831881e-11
9.165422899e-06
2.124305927e-11
8.410365243e-12
9.165430857e-06
1.789377426e-11
6.357619573e-12
9.165440507e-06
1.44041858e-11
5.419262867e-12
9.165444051e-06
1.172075207e-11
3.995204542e-12
9.165450771e-06
9.783412742e-12
3.426730155e-12
9.16545826e-06
1.059306927e-11
3.749463735e-12
7.884645249e-12
2.626606669e-12
9.165193074e-06
4.274743672e-10
4.275375788e-10
9.165210602e-06
8.45120134e-12
8.978102414e-12
9.165219611e-06
4.486478076e-11
4.323728257e-11
9.165235745e-06
4.391816313e-11
3.988286151e-11
9.16526474e-06
2.9160072e-11
2.898253956e-11
9.165291513e-06
1.967065028e-11
1.949651849e-11
9.165319578e-06
1.44333652e-11
1.441002307e-11
9.16534182e-06
1.080156851e-11
1.11127319e-11
9.165360437e-06
6.444606816e-12
7.435814181e-12
9.16537776e-06
6.046174094e-12
6.402375066e-12
9.165391203e-06
3.974422234e-12
4.406926152e-12
9.165404577e-06
4.546928117e-12
3.642401855e-12
9.165415449e-06
4.342200481e-12
2.955472554e-12
3.660676814e-12
2.048986003e-12
9.164880419e-06
-4.26230764e-10
3.388357569e-09
9.164936018e-06
-9.456429297e-12
3.69685117e-10
9.165069068e-06
-4.527301262e-11
1.733468246e-10
9.165175207e-06
-4.465512926e-11
1.137544399e-10
9.165256618e-06
-2.725176643e-11
5.775603146e-11
9.165318422e-06
-1.952231205e-11
3.078801036e-11
9.165363659e-06
-1.407011211e-11
1.749806017e-11
9.165396114e-06
-1.022604419e-11
1.171306187e-11
9.165423011e-06
-8.265434946e-12
8.53931477e-12
9.165444131e-06
-6.603695103e-12
6.801701427e-12
9.165461872e-06
-5.537562762e-12
4.610264749e-12
9.165475724e-06
-4.555265662e-12
3.943517268e-12
9.165490154e-06
-3.634104396e-12
3.115792381e-12
-1.854675291e-12
9.084479267e-13
9.16531632e-06
-2.200694938e-10
4.264972991e-10
9.16533443e-06
-1.560799282e-11
9.377327882e-12
9.165340927e-06
-4.750286935e-11
4.401804685e-11
9.165359368e-06
-5.026654746e-11
4.196366126e-11
9.165385315e-06
-4.116542442e-11
2.842357364e-11
9.16541246e-06
-3.436243143e-11
1.898077003e-11
9.165438437e-06
-2.65251652e-11
1.45478603e-11
9.16546018e-06
-2.115127195e-11
1.069544257e-11
9.16547999e-06
-1.642291519e-11
9.761234319e-12
9.165497314e-06
-1.248571541e-11
9.302500801e-12
9.165511901e-06
-1.131726003e-11
7.252770591e-12
9.165522484e-06
-8.864094904e-12
4.790845114e-12
9.165534666e-06
-8.759648029e-12
3.267810582e-12
-8.044898386e-12
2.002818269e-12
9.165589437e-06
-5.532213652e-11
1.064328822e-10
9.165518907e-06
1.892999783e-11
4.455350898e-11
9.165471746e-06
-1.215327256e-11
3.870129995e-11
9.165446616e-06
-2.613030022e-11
2.963904437e-11
9.165440097e-06
-2.614448126e-11
2.158314662e-11
9.165441282e-06
-2.557464285e-11
1.64409933e-11
9.165447739e-06
-2.338939642e-11
1.198497835e-11
9.165455411e-06
-2.150320145e-11
8.163703971e-12
9.165463096e-06
-1.818450755e-11
6.079205174e-12
9.165468683e-06
-1.455531577e-11
4.942532257e-12
9.1654786e-06
-1.27392622e-11
4.94332104e-12
9.16548495e-06
-1.130059032e-11
3.531683561e-12
9.165490197e-06
-1.209918077e-11
2.855166338e-12
-9.3571984e-12
2.270708591e-12
9.165639012e-06
-4.997614139e-12
2.461257944e-11
9.165626678e-06
1.526790886e-11
9.554841605e-12
9.16560702e-06
5.983612343e-13
1.071264672e-11
9.165588266e-06
-7.666297095e-12
1.072915317e-11
9.165572599e-06
-1.026076079e-11
8.971279733e-12
9.165562278e-06
-1.167889686e-11
7.658589721e-12
9.165555198e-06
-1.192792076e-11
6.663503763e-12
9.165549609e-06
-1.081830201e-11
4.774615475e-12
9.165548819e-06
-9.199947129e-12
5.391210564e-12
9.165543461e-06
-9.867184105e-12
2.596586133e-12
9.16554407e-06
-8.109613669e-12
4.07419228e-12
9.165544988e-06
-6.032034273e-12
4.866992735e-12
9.165544523e-06
-7.582200693e-12
2.886257718e-12
-6.163277931e-12
2.43200385e-12
9.165612603e-06
-8.555548599e-13
9.165618684e-06
1.977587282e-12
9.165613547e-06
3.345264827e-12
9.165604016e-06
4.945443459e-12
9.165591375e-06
4.440858323e-12
9.165580334e-06
4.425522288e-12
9.165571411e-06
1.788409116e-12
9.165561129e-06
2.847718392e-12
9.165554639e-06
1.740519445e-12
9.165545651e-06
9.860096553e-13
9.165540879e-06
2.303235411e-12
9.165537424e-06
2.688870582e-12
9.165534707e-06
2.798335394e-12
2.472211562e-12
9.165708819e-06
-2.832881893e-10
4.805015313e-11
9.165662126e-06
4.662400235e-11
-7.211077074e-13
9.165645327e-06
2.171012137e-11
-2.004908976e-12
9.165623202e-06
2.83707464e-11
-6.158100129e-12
9.165605174e-06
2.800814946e-11
-6.767374219e-12
9.165591984e-06
2.365662774e-11
-4.419946569e-12
9.165578562e-06
2.073015702e-11
-5.132272244e-12
9.165568243e-06
1.76632002e-11
-5.062592469e-12
9.165560571e-06
1.39617066e-11
-4.912283346e-12
9.165553068e-06
1.089766896e-11
-4.882452625e-12
9.165550426e-06
1.055991381e-11
-2.58840741e-12
9.165546208e-06
9.431335612e-12
-2.961119023e-12
9.16553919e-06
6.987194756e-12
-3.037770253e-12
9.165538562e-06
8.01384926e-12
-2.795749518e-12
6.063087961e-12
-4.021680329e-12
9.165807889e-06
-7.702309905e-10
9.639975208e-11
9.165623118e-06
2.804389869e-10
-2.53126822e-11
9.165560895e-06
1.034884043e-10
-8.792902597e-12
9.165523278e-06
8.40944085e-11
-1.205935778e-11
9.165499206e-06
6.963561444e-11
-1.082279317e-11
9.165486617e-06
5.252184418e-11
-8.496917943e-12
9.165479397e-06
4.029877126e-11
-7.37634513e-12
9.16547541e-06
3.07002741e-11
-7.582663094e-12
9.16547377e-06
2.459466168e-11
-5.045550024e-12
9.165473113e-06
2.044344915e-11
-4.715037856e-12
9.165473815e-06
1.750671716e-11
-4.034977823e-12
9.165473713e-06
1.460968721e-11
-3.335143629e-12
9.165472915e-06
1.111843209e-11
-3.666707275e-12
9.16547645e-06
1.067936794e-11
-3.03680826e-12
8.141807653e-12
-3.587411832e-12
9.166284686e-06
-2.054841659e-09
2.867769111e-10
9.165649094e-06
1.131748666e-09
-1.089876237e-10
9.165436724e-06
4.054600415e-10
-4.55680686e-11
9.165378812e-06
2.179072903e-10
-3.954343276e-11
9.165374457e-06
1.358112113e-10
-3.01686789e-11
9.165387429e-06
8.120291475e-11
-2.1159092e-11
9.165406181e-06
5.004972303e-11
-1.572879441e-11
9.16542596e-06
3.429412149e-11
-1.151774847e-11
9.165440158e-06
2.593732798e-11
-8.731439491e-12
9.165453512e-06
1.880715861e-11
-6.243401156e-12
9.165464048e-06
1.471716599e-11
-4.792753027e-12
9.16547425e-06
1.257609888e-11
-4.141635164e-12
9.165482603e-06
9.888264911e-12
-2.265578109e-12
9.165491928e-06
9.561298064e-12
-2.633225355e-12
7.275857006e-12
-2.611645392e-12
9.166283706e-06
4.540325439e-10
9.164884462e-06
3.388479712e-09
-4.278176578e-10
9.164937866e-06
3.694618112e-10
-9.93023291e-12
9.165070369e-06
1.749300836e-10
-4.384768326e-11
9.16518061e-06
1.172898159e-10
-4.186280399e-11
9.165259429e-06
5.701914657e-11
-2.798147934e-11
9.165321262e-06
3.164611961e-11
-2.071220796e-11
9.165366424e-06
1.814409105e-11
-1.502007512e-11
9.165396883e-06
1.19267798e-11
-1.160581822e-11
9.165427173e-06
8.741571385e-12
-7.328886913e-12
9.165446412e-06
5.774179002e-12
-6.039882299e-12
9.165462995e-06
4.909224512e-12
-4.29471969e-12
9.16547655e-06
5.090575652e-12
-3.563032651e-12
9.165490929e-06
4.719931298e-12
-2.593504207e-12
2.033337807e-12
-1.751957953e-12
9.184529659e-06
-3.387680371e-09
-3.388772012e-09
9.186026576e-06
-3.695496903e-10
-3.710699965e-10
9.186740977e-06
-1.7555545e-10
-1.745459852e-10
9.187221753e-06
-1.168603066e-10
-1.150304222e-10
9.187469901e-06
-5.733403846e-11
-5.714275455e-11
9.187615167e-06
-3.1291467e-11
-3.200638381e-11
9.187708974e-06
-1.768186591e-11
-1.896425764e-11
9.187772397e-06
-1.144986727e-11
-1.28246321e-11
9.187823861e-06
-7.012323421e-12
-8.052232502e-12
9.187864059e-06
-3.869511154e-12
-5.784443976e-12
9.187901285e-06
-3.796240538e-12
-5.3257424e-12
9.187932858e-06
-4.087029684e-12
-3.801083676e-12
9.187967071e-06
-4.284312639e-12
-3.134321886e-12
-1.671289876e-12
-6.385343636e-13
9.164891065e-06
-1.133244093e-09
-4.286854852e-10
9.164945697e-06
-4.055106752e-10
-1.04638568e-11
9.165080289e-06
-2.189252254e-10
-4.334301843e-11
9.165188351e-06
-1.368885476e-10
-4.140294674e-11
9.165268485e-06
-8.141656128e-11
-2.665784905e-11
9.165330392e-06
-5.143965119e-11
-1.84065901e-11
9.165376328e-06
-3.565154101e-11
-1.393655009e-11
9.165410398e-06
-2.601480112e-11
-1.022670532e-11
9.165436532e-06
-1.990512229e-11
-8.309157039e-12
9.16545517e-06
-1.632750191e-11
-6.567450668e-12
9.165472301e-06
-1.4000737e-11
-5.374610786e-12
9.165486507e-06
-1.010118849e-11
-3.648947384e-12
9.165501884e-06
-8.896199065e-12
-3.418386901e-12
-6.946559981e-12
-2.723818234e-12
9.165693033e-06
-2.813018187e-10
-1.077265555e-10
9.165478457e-06
-1.046896896e-10
-4.616123189e-11
9.165423146e-06
-8.502417347e-11
-3.826167384e-11
9.165418527e-06
-7.207571775e-11
-2.919102124e-11
9.165431857e-06
-5.386290163e-11
-2.042398859e-11
9.16545136e-06
-4.063649834e-11
-1.412940635e-11
9.165468788e-06
-3.12584037e-11
-1.164433088e-11
9.165484032e-06
-2.573442132e-11
-7.775632892e-12
9.16549821e-06
-1.929859682e-11
-6.077093195e-12
9.165508453e-06
-1.603040696e-11
-5.806391406e-12
9.165519037e-06
-1.300880936e-11
-3.436464686e-12
9.16552706e-06
-1.013144457e-11
-3.12564822e-12
9.165535958e-06
-1.196695348e-11
-3.315822775e-12
-8.180896557e-12
-3.193388031e-12
9.165714554e-06
-4.713756976e-11
-2.514265847e-11
9.165650079e-06
-2.31352177e-11
-9.007981161e-12
9.165613888e-06
-3.070327622e-11
-9.949584275e-12
9.165590935e-06
-2.983902331e-11
-1.003648896e-11
9.165578797e-06
-2.345560532e-11
-8.934744782e-12
9.165571363e-06
-2.029670883e-11
-7.908600767e-12
9.165565484e-06
-1.838702228e-11
-5.948731319e-12
9.165566345e-06
-1.364357166e-11
-2.716359553e-12
9.165563023e-06
-1.287267905e-11
-4.218382141e-12
9.165564387e-06
-1.073168428e-11
-3.145872707e-12
9.165564949e-06
-9.167654725e-12
-2.763351988e-12
9.165564875e-06
-7.979854378e-12
-3.591964299e-12
9.165567446e-06
-7.168711901e-12
-2.088529566e-12
-4.414370313e-12
-1.853479847e-12
9.165681078e-06
1.165538467e-13
9.16566072e-06
-1.52662061e-12
9.165642178e-06
-2.319789726e-12
9.165623304e-06
-3.822174005e-12
9.165607929e-06
-4.268452776e-12
9.165595087e-06
-3.828411873e-12
9.165586759e-06
-1.990638671e-12
9.165576358e-06
-2.434694647e-12
9.165570331e-06
-1.849483197e-12
9.165564512e-06
-9.98423017e-14
9.165560464e-06
1.215793761e-13
9.165557824e-06
-1.641277591e-12
9.165555708e-06
-1.818685557e-12
-2.600935116e-12
9.165596156e-06
-1.084015361e-10
5.465089504e-11
9.165580298e-06