/*--------------------------------*- C++ -*----------------------------------*\
| =========                 |                                                 |
| \\      /  F ield         | OpenFOAM: The Open Source CFD Toolbox           |
|  \\    /   O peration     | Version:  4.x                                   |
|   \\  /    A nd           | Web:      www.OpenFOAM.org                      |
|    \\/     M anipulation  |                                                 |
\*---------------------------------------------------------------------------*/
FoamFile
{
    version     2.0;
    format      ascii;
    class       volScalarField;
    location    "10000";
    object      rho;
}
// * * * * * * * * * * * * * * * * * * * * * * * * * * * * * * * * * * * * * //

dimensions      [1 -3 0 0 0 0 0];

internalField   nonuniform List<scalar> 
1174
(
0.2699634477
0.2699636157
0.2699638256
0.2699641084
0.26996445
0.2699648068
0.2699652554
0.2699657231
0.2699661852
0.2699666717
0.2699671403
0.2699676175
0.2699680315
0.2699683386
0.2699626841
0.2699628949
0.2699632516
0.2699636126
0.2699640377
0.2699645048
0.2699649658
0.2699654385
0.2699659135
0.2699663664
0.2699668041
0.2699672219
0.2699675895
0.2699679006
0.2699643893
0.2699648234
0.269965332
0.26996589
0.2699664846
0.2699671318
0.2699677135
0.2699683038
0.2699687921
0.2699692706
0.2699696936
0.269970034
0.2699703858
0.269970614
0.2699647763
0.2699654152
0.2699661061
0.2699668833
0.2699676276
0.2699683245
0.269968996
0.2699695925
0.2699701208
0.2699705327
0.2699709621
0.2699712423
0.2699715208
0.2699717042
0.2699644815
0.2699652344
0.2699660535
0.2699668709
0.2699676453
0.2699683884
0.2699690297
0.2699696177
0.2699700767
0.2699704898
0.2699708007
0.2699711183
0.2699713387
0.2699715232
0.2699641081
0.2699647346
0.2699654645
0.269966234
0.2699669913
0.2699676802
0.269968338
0.2699689323
0.2699694483
0.2699699052
0.2699702906
0.2699706041
0.26997085
0.2699710633
0.2699637241
0.2699641139
0.2699646558
0.2699652523
0.2699658794
0.2699664205
0.2699670138
0.2699675577
0.2699680501
0.2699685401
0.2699689771
0.2699693688
0.2699696968
0.2699699344
0.2699642471
0.2699644847
0.2699647967
0.2699651783
0.2699655874
0.2699660768
0.2699665938
0.2699670868
0.269967616
0.2699681258
0.26996855
0.2699689866
0.2699693884
0.2699696678
0.2699636494
0.2699638351
0.2699640384
0.2699643346
0.2699646453
0.2699650445
0.2699654475
0.2699659037
0.2699663579
0.2699668072
0.2699672659
0.2699677361
0.269968182
0.2699685162
0.2699625054
0.2699626676
0.2699629394
0.2699632377
0.2699635869
0.2699640041
0.2699644506
0.2699649784
0.2699654783
0.2699659481
0.2699664155
0.2699668787
0.2699672842
0.2699676581
0.2699679408
0.269963685
0.269964111
0.269964607
0.2699651668
0.2699657178
0.2699663007
0.2699668708
0.2699673642
0.2699679024
0.2699683642
0.269968786
0.2699691755
0.269969501
0.2699697165
0.2699651908
0.2699659345
0.2699667667
0.2699675591
0.2699682962
0.2699689649
0.2699695633
0.2699700611
0.2699704815
0.2699708757
0.2699712169
0.2699714689
0.2699716948
0.2699718485
0.2699660989
0.2699673471
0.2699685353
0.2699695957
0.2699704317
0.2699711192
0.2699716296
0.2699719743
0.2699722469
0.2699724535
0.2699725963
0.2699726762
0.2699727441
0.2699727669
0.2699653716
0.2699669215
0.2699681663
0.2699691464
0.2699699086
0.2699704364
0.2699707774
0.2699710248
0.2699711884
0.2699713244
0.2699713605
0.2699714074
0.2699713904
0.2699713343
0.2699643933
0.2699657118
0.26996693
0.2699680006
0.2699688363
0.2699694729
0.2699699823
0.2699703649
0.2699706292
0.2699708262
0.2699709932
0.269971104
0.2699711619
0.269971196
0.2699642343
0.2699650159
0.2699658358
0.2699667055
0.2699674389
0.2699681756
0.2699687627
0.2699692757
0.2699697136
0.2699701223
0.2699704402
0.2699707037
0.269970922
0.2699710159
0.2699645513
0.2699649697
0.2699654677
0.2699660381
0.2699665954
0.2699671874
0.2699677419
0.2699682482
0.2699687257
0.2699691805
0.269969555
0.2699699092
0.2699702074
0.2699704488
0.2699625532
0.2699627937
0.2699631179
0.2699635032
0.2699639206
0.2699643945
0.2699648739
0.2699653855
0.2699658579
0.269966297
0.2699667682
0.2699671864
0.2699675576
0.2699678533
0.2699642647
0.2699646053
0.2699649996
0.269965485
0.2699660665
0.2699666478
0.2699672468
0.2699678571
0.2699684379
0.2699689534
0.2699693797
0.2699698284
0.2699701794
0.2699704842
0.2699707489
0.2699648715
0.2699655364
0.2699663009
0.2699671246
0.2699679266
0.2699687139
0.2699694291
0.2699700258
0.2699705645
0.2699709589
0.2699713265
0.2699716093
0.2699718438
0.2699720209
0.2699721423
0.2699659761
0.2699675635
0.2699690035
0.2699701906
0.2699710372
0.269971677
0.2699720664
0.2699723189
0.2699724425
0.2699725315
0.2699725127
0.2699724865
0.2699724401
0.2699724625
0.2699726975
0.2699754029
0.2699772024
0.2699782149
0.2699787083
0.2699787674
0.2699785804
0.2699782982
0.2699779069
0.2699774934
0.269977079
0.2699766817
0.2699763425
0.2699760272
0.2699772691
0.2699798995
0.2699809839
0.2699810954
0.2699806716
0.2699799957
0.2699792783
0.2699784988
0.2699777558
0.2699770566
0.2699764334
0.2699758893
0.2699754337
0.2699751341
0.2699731983
0.2699758997
0.2699776966
0.2699787291
0.2699791918
0.2699792601
0.2699790618
0.2699787355
0.269978331
0.2699779085
0.2699775275
0.2699771642
0.2699768387
0.2699766247
0.2699685312
0.2699701264
0.2699715798
0.2699727527
0.2699736089
0.2699742569
0.2699746997
0.2699749382
0.2699750779
0.2699751438
0.2699751385
0.269975106
0.2699750553
0.2699750478
0.2699635905
0.2699643208
0.2699651513
0.2699659785
0.269966746
0.2699674058
0.2699680439
0.2699685399
0.2699689965
0.2699693265
0.2699696212
0.2699698846
0.2699701014
0.2699702463
0.2699634567
0.2699639025
0.2699644037
0.2699649942
0.2699656004
0.2699661782
0.2699667806
0.2699673519
0.2699678621
0.2699683574
0.269968816
0.2699691933
0.2699695493
0.2699697924
0.2699649425
0.2699654505
0.2699660626
0.2699667844
0.2699675356
0.2699682538
0.2699690062
0.2699696653
0.2699702384
0.2699707537
0.2699712161
0.2699715964
0.269971963
0.2699722379
0.26997243
0.2699630725
0.2699642481
0.2699654955
0.2699667188
0.2699677416
0.2699685597
0.269969238
0.2699697121
0.2699700428
0.2699703309
0.2699705459
0.2699706757
0.2699707202
0.2699707619
0.2699707807
0.2699668751
0.2699702116
0.269972894
0.269974721
0.2699757124
0.2699761887
0.2699762643
0.2699760946
0.2699757842
0.2699754145
0.269974996
0.2699746129
0.2699742199
0.2699738797
0.2699736235
0.269986038
0.2699892356
0.2699896187
0.269988487
0.2699867266
0.2699848512
0.2699830169
0.2699813494
0.2699798823
0.2699786549
0.2699775255
0.2699765812
0.2699758041
0.2699752156
0.2700203524
0.2700158202
0.2700091766
0.2700028879
0.2699975787
0.2699932933
0.2699898686
0.2699871183
0.269984877
0.2699830232
0.2699814969
0.2699802672
0.2699792273
0.2699784734
0.2699896403
0.2699928331
0.2699932171
0.2699921137
0.2699903476
0.2699884122
0.2699865908
0.2699849435
0.2699834363
0.2699821493
0.2699810201
0.2699800559
0.2699792654
0.2699786804
0.2699711066
0.2699737846
0.2699756047
0.2699766417
0.269977119
0.2699771992
0.2699770079
0.2699767074
0.2699763128
0.2699759362
0.2699755251
0.2699751948
0.26997485
0.2699745657
0.2699663237
0.2699675953
0.2699687801
0.2699698272
0.2699706905
0.2699713614
0.2699718769
0.2699722142
0.2699725213
0.269972717
0.2699728489
0.2699729856
0.2699730812
0.2699731205
0.2699637948
0.2699644266
0.269965167
0.2699659277
0.2699667253
0.2699674355
0.2699680921
0.2699686661
0.2699691698
0.2699696267
0.2699699964
0.2699703388
0.2699705894
0.2699707446
0.2699638125
0.2699644506
0.2699652282
0.2699660333
0.2699668793
0.2699676653
0.2699683589
0.2699690425
0.2699696135
0.2699701001
0.2699705039
0.2699708614
0.2699711751
0.2699713996
0.2699715272
0.2699640839
0.2699657075
0.2699672398
0.2699685703
0.2699695517
0.2699702895
0.2699708678
0.2699712785
0.2699714784
0.2699716599
0.2699717272
0.2699717869
0.2699718291
0.2699718227
0.2699718133
0.2699729738
0.2699777136
0.2699803136
0.2699813653
0.2699814707
0.2699811396
0.269980501
0.2699797355
0.2699789773
0.2699782069
0.2699775286
0.269976951
0.2699764093
0.2699759326
0.2699755887
0.2700152304
0.2700205055
0.2700159405
0.2700092677
0.2700030041
0.2699976792
0.2699933665
0.269989915
0.269987176
0.2699849413
0.2699831273
0.269981617
0.2699803159
0.2699793092
0.2699786042
0.2708133814
0.2707430775
0.2707047461
0.2706826411
0.2706692191
0.2706606211
0.270654859
0.2706508913
0.2706480207
0.2706459214
0.2706443898
0.2706432495
0.2706424453
0.2706420452
0.2700207979
0.2700162061
0.27000951
0.2700032112
0.2699979599
0.2699936756
0.269990246
0.2699874721
0.2699852389
0.2699834019
0.2699818615
0.2699805811
0.2699795693
0.2699788354
0.2699790576
0.2699816775
0.2699826882
0.2699827901
0.269982389
0.2699817705
0.2699810005
0.2699802269
0.2699795112
0.2699788524
0.269978247
0.2699776893
0.2699771913
0.2699768595
0.2699684656
0.2699700041
0.2699712881
0.2699722997
0.2699730334
0.2699735716
0.2699739662
0.2699742196
0.2699743705
0.2699744436
0.269974483
0.2699744915
0.2699744837
0.2699745001
0.2699650046
0.269965758
0.26996657
0.269967382
0.2699681506
0.2699688366
0.2699694819
0.2699700532
0.2699705266
0.269970957
0.2699713228
0.2699716021
0.2699718199
0.2699719758
0.2699623606
0.2699628373
0.2699634765
0.2699641833
0.2699649185
0.2699656691
0.2699663705
0.2699669894
0.2699675585
0.2699680558
0.2699684977
0.2699688811
0.269969204
0.2699694763
0.2699696331
0.2699646796
0.2699658585
0.2699671553
0.2699683708
0.2699694564
0.2699703078
0.2699709528
0.2699714382
0.2699718678
0.269972158
0.2699723876
0.2699725491
0.2699726502
0.2699727391
0.2699727715
0.2699678257
0.2699711276
0.2699738164
0.2699755983
0.2699766298
0.2699770483
0.2699770908
0.2699769467
0.2699766469
0.2699762717
0.2699758621
0.2699754302
0.2699750175
0.269974648
0.2699743894
0.2699809335
0.269988452
0.2699916342
0.2699920158
0.2699909736
0.2699892202
0.2699873259
0.2699854851
0.2699838059
0.2699822895
0.2699810474
0.2699799556
0.2699790069
0.2699781723
0.2699775657
0.2700143924
0.2700196995
0.2700151429
0.2700084878
0.2700021677
0.2699968597
0.2699925717
0.2699891273
0.2699863592
0.2699840901
0.2699822622
0.2699806987
0.2699794411
0.2699784186
0.2699777389
0.2699790282
0.2699865436
0.2699897855
0.2699901497
0.2699890429
0.2699873194
0.2699853933
0.2699835398
0.2699818926
0.2699803926
0.2699790963
0.2699779748
0.2699770426
0.2699762435
0.2699756437
0.2699715808
0.2699742122
0.2699760119
0.2699770178
0.2699774655
0.2699775356
0.2699773764
0.2699770252
0.269976648
0.2699762763
0.2699759002
0.2699755045
0.2699752059
0.2699749438
0.2699668105
0.2699680861
0.2699692914
0.2699703523
0.2699712054
0.2699718447
0.269972363
0.269972752
0.2699729873
0.269973193
0.2699733553
0.2699734786
0.2699735204
0.2699735812
0.2699640243
0.26996464
0.2699653897
0.2699661574
0.2699668995
0.2699675893
0.2699682569
0.2699688433
0.2699693602
0.2699698259
0.269970171
0.2699704773
0.2699707369
0.2699709145
0.2699641447
0.2699644516
0.2699648413
0.2699653509
0.2699658818
0.2699665012
0.2699671435
0.2699677354
0.2699683332
0.2699688591
0.2699693413
0.2699697553
0.2699701385
0.2699704508
0.2699706963
0.2699634373
0.2699640747
0.2699648803
0.2699657412
0.2699666031
0.2699673614
0.2699680747
0.269968677
0.2699691687
0.2699695738
0.2699699576
0.269970243
0.2699705023
0.2699707393
0.2699708802
0.2699662127
0.2699678092
0.2699694232
0.2699708838
0.269972063
0.269972955
0.2699735843
0.2699739712
0.2699742071
0.2699743494
0.2699744379
0.2699744343
0.2699743663
0.2699743426
0.2699743267
0.2699696399
0.2699729758
0.2699756599
0.269977454
0.2699784765
0.2699789152
0.2699789863
0.2699788413
0.2699784948
0.2699781427
0.2699777531
0.2699773211
0.2699769588
0.2699766302
0.2699763543
0.2699713475
0.2699761118
0.2699787316
0.2699797866
0.2699799095
0.2699794926
0.2699788265
0.2699780925
0.2699773648
0.2699766331
0.2699760002
0.2699754369
0.2699748591
0.2699743965
0.2699739984
0.2699682168
0.2699715628
0.2699742128
0.2699760485
0.269977094
0.2699775376
0.269977599
0.2699774367
0.2699770912
0.2699767207
0.2699763245
0.2699758772
0.2699754984
0.2699751331
0.2699748716
0.2699646117
0.2699661429
0.2699677916
0.269969212
0.2699703916
0.2699712254
0.2699718237
0.2699722168
0.2699724658
0.2699725926
0.2699726286
0.2699726797
0.269972671
0.2699726466
0.2699725846
0.2699640425
0.2699648325
0.2699656826
0.2699665078
0.269967272
0.2699679821
0.2699685881
0.2699690394
0.2699695147
0.2699698558
0.2699701372
0.2699703488
0.2699705278
0.2699706676
0.2699641029
0.2699645339
0.2699650311
0.2699655767
0.269966179
0.2699668258
0.2699673862
0.2699679405
0.2699684567
0.2699689502
0.2699694096
0.2699698024
0.2699701499
0.26997041
0.2699641448
0.269964268
0.2699645653
0.2699648748
0.2699652528
0.2699656783
0.2699661027
0.2699666013
0.2699671211
0.2699676496
0.2699680781
0.2699685568
0.2699689631
0.2699693409
0.2699696273
0.2699641867
0.2699645251
0.2699649636
0.2699654799
0.2699660466
0.2699665872
0.2699671789
0.2699677337
0.2699682797
0.2699687665
0.2699691968
0.2699696291
0.2699700165
0.2699703553
0.269970582
0.2699627792
0.2699634199
0.2699641886
0.2699650283
0.2699658727
0.269966628
0.2699673383
0.2699679222
0.2699684468
0.2699688687
0.2699692344
0.2699695626
0.2699698292
0.2699700239
0.269970181
0.269964022
0.2699651997
0.2699664331
0.2699676362
0.2699686541
0.2699695321
0.2699701988
0.2699707164
0.26997108
0.2699713676
0.2699715493
0.2699716714
0.2699717804
0.2699718391
0.2699718529
0.2699651563
0.2699668169
0.269968356
0.2699696051
0.2699706192
0.2699713652
0.2699719535
0.2699723115
0.2699725739
0.2699727381
0.2699728331
0.2699728759
0.2699728277
0.2699727525
0.269972766
0.2699638005
0.2699649896
0.2699662582
0.2699674605
0.2699684697
0.2699693361
0.2699699826
0.2699704814
0.2699708349
0.2699711158
0.2699713598
0.2699714768
0.2699715733
0.2699716449
0.2699716557
0.2699647359
0.2699653968
0.2699662228
0.2699671108
0.2699679431
0.2699686919
0.26996941
0.2699699746
0.269970516
0.2699709611
0.2699713039
0.2699716376
0.2699718726
0.2699721026
0.2699723044
0.269963645
0.2699639495
0.2699643682
0.2699648733
0.2699654466
0.2699660468
0.2699665661
0.269967144
0.269967683
0.2699681863
0.2699686762
0.2699690411
0.2699694184
0.2699697521
0.2699699686
0.2699627812
0.2699630428
0.269963361
0.269963745
0.2699642144
0.2699646743
0.2699651657
0.2699656718
0.2699661502
0.2699666343
0.2699671034
0.2699675317
0.2699678684
0.2699681898
0.2699636259
0.2699637329
0.2699638651
0.2699640537
0.2699643254
0.2699646419
0.2699650395
0.2699654317
0.2699658887
0.2699663603
0.2699668824
0.2699673442
0.2699677698
0.2699681931
0.2699685242
0.269962743
0.2699629045
0.2699631411
0.2699634652
0.2699638357
0.269964249
0.2699647249
0.2699652426
0.2699657273
0.2699661878
0.2699666937
0.2699671858
0.2699675963
0.2699679455
0.2699682139
0.2699633154
0.2699636121
0.2699640759
0.2699645959
0.2699652022
0.2699657985
0.2699663861
0.2699669911
0.2699675338
0.2699680682
0.2699685329
0.2699689604
0.2699694115
0.2699697203
0.269969971
0.2699633589
0.269963841
0.2699644722
0.2699652012
0.269965954
0.2699666708
0.2699673475
0.2699680002
0.269968602
0.2699691028
0.2699695251
0.2699699132
0.2699702488
0.2699705135
0.2699706949
0.2699636977
0.2699643611
0.2699651178
0.2699659469
0.2699667962
0.2699675875
0.2699683339
0.2699690268
0.2699695791
0.2699700526
0.2699705301
0.2699708691
0.2699711985
0.2699714709
0.2699716322
0.2699638235
0.269964401
0.2699650473
0.2699657531
0.2699665077
0.2699672836
0.2699679774
0.2699686268
0.2699692118
0.2699697224
0.2699701627
0.2699705794
0.269970891
0.2699711757
0.2699713686
0.2699656448
0.269965952
0.2699663743
0.2699668376
0.2699674397
0.2699680565
0.2699686725
0.2699692567
0.2699698372
0.269970379
0.2699708409
0.2699712625
0.2699716631
0.2699720023
0.2699722146
0.2699633052
0.2699634744
0.2699637286
0.2699640585
0.269964438
0.2699648883
0.2699653668
0.2699658695
0.2699663954
0.2699668409
0.2699673435
0.2699678028
0.2699682225
0.2699685816
0.269968903
0.2699631721
0.2699632783
0.2699634289
0.2699636247
0.2699638846
0.2699642036
0.2699645689
0.2699649962
0.2699654435
0.2699659091
0.2699663755
0.2699668356
0.2699672755
0.2699676717
0.2699680064
)
;

boundaryField
{
    top
    {
        type            calculated;
        value           nonuniform List<scalar> 
127
(
0.2699631721
0.2699636494
0.2699625532
0.2699634567
0.2699637948
0.2699650046
0.2699640243
0.2699641029
0.2699627812
0.2699632783
0.2699638351
0.2699627937
0.2699639025
0.2699644266
0.269965758
0.26996464
0.2699645339
0.2699630428
0.2699634289
0.2699640384
0.2699631179
0.2699644037
0.269965167
0.26996657
0.2699653897
0.2699650311
0.269963361
0.2699636247
0.2699643346
0.2699635032
0.2699649942
0.2699659277
0.269967382
0.2699661574
0.2699655767
0.269963745
0.2699638846
0.2699646453
0.2699639206
0.2699656004
0.2699667253
0.2699681506
0.2699668995
0.269966179
0.2699642144
0.2699642036
0.2699650445
0.2699643945
0.2699661782
0.2699674355
0.2699688366
0.2699675893
0.2699668258
0.2699646743
0.2699645689
0.2699654475
0.2699648739
0.2699667806
0.2699680921
0.2699694819
0.2699682569
0.2699673862
0.2699651657
0.2699649962
0.2699659037
0.2699653855
0.2699673519
0.2699686661
0.2699700532
0.2699688433
0.2699679405
0.2699656718
0.2699654435
0.2699663579
0.2699658579
0.2699678621
0.2699691698
0.2699705266
0.2699693602
0.2699684567
0.2699661502
0.2699659091
0.2699668072
0.269966297
0.2699683574
0.2699696267
0.269970957
0.2699698259
0.2699689502
0.2699666343
0.2699663755
0.2699672659
0.2699667682
0.269968816
0.2699699964
0.2699713228
0.269970171
0.2699694096
0.2699671034
0.2699668356
0.2699677361
0.2699671864
0.2699691933
0.2699703388
0.2699716021
0.2699704773
0.2699698024
0.2699675317
0.2699672755
0.269968182
0.2699675576
0.2699695493
0.2699705894
0.2699718199
0.2699707369
0.2699701499
0.2699678684
0.2699676717
0.2699685162
0.2699678533
0.2699697924
0.2699707446
0.2699719758
0.2699709145
0.26997041
0.2699681898
0.2699680064
)
;
    }
    bottom
    {
        type            calculated;
        value           nonuniform List<scalar> 
134
(
0.2699625054
0.2699642647
0.2699649425
0.2699638125
0.2699623606
0.2699641447
0.2699641448
0.2699636259
0.2699634477
0.2699626676
0.2699646053
0.2699654505
0.2699644506
0.2699628373
0.2699644516
0.269964268
0.2699637329
0.2699636157
0.2699629394
0.2699649996
0.2699660626
0.2699652282
0.2699634765
0.2699648413
0.2699645653
0.2699638651
0.2699638256
0.2699632377
0.269965485
0.2699667844
0.2699660333
0.2699641833
0.2699653509
0.2699648748
0.2699640537
0.2699641084
0.2699635869
0.2699660665
0.2699675356
0.2699668793
0.2699649185
0.2699658818
0.2699652528
0.2699643254
0.26996445
0.2699640041
0.2699666478
0.2699682538
0.2699676653
0.2699656691
0.2699665012
0.2699656783
0.2699646419
0.2699648068
0.2699644506
0.2699672468
0.2699690062
0.2699683589
0.2699663705
0.2699671435
0.2699661027
0.2699650395
0.2699652554
0.2699649784
0.2699678571
0.2699696653
0.2699690425
0.2699669894
0.2699677354
0.2699666013
0.2699654317
0.2699657231
0.2699654783
0.2699684379
0.2699702384
0.2699696135
0.2699675585
0.2699683332
0.2699671211
0.2699658887
0.2699661852
0.2699659481
0.2699689534
0.2699707537
0.2699701001
0.2699680558
0.2699688591
0.2699676496
0.2699663603
0.2699666717
0.2699664155
0.2699693797
0.2699712161
0.2699705039
0.2699684977
0.2699693413
0.2699680781
0.2699668824
0.2699671403
0.2699668787
0.2699698284
0.2699715964
0.2699708614
0.2699688811
0.2699697553
0.2699685568
0.2699673442
0.2699676175
0.2699672842
0.2699701794
0.269971963
0.2699711751
0.269969204
0.2699701385
0.2699689631
0.2699677698
0.2699680315
0.2699676581
0.2699704842
0.2699722379
0.2699713996
0.2699694763
0.2699704508
0.2699693409
0.2699681931
0.2699683386
0.2699679408
0.2699707489
0.26997243
0.2699715272
0.2699696331
0.2699706963
0.2699696273
0.2699685242
)
;
    }
    side-walls
    {
        type            calculated;
        value           nonuniform List<scalar> 
261
(
0.2699634477
0.2699626841
0.2699643893
0.2699647763
0.2699644815
0.2699641081
0.2699637241
0.2699642471
0.2699636494
0.2699636157
0.2699628949
0.2699648234
0.2699654152
0.2699652344
0.2699647346
0.2699641139
0.2699644847
0.2699638351
0.2699638256
0.2699632516
0.269965332
0.2699661061
0.2699660535
0.2699654645
0.2699646558
0.2699647967
0.2699640384
0.2699641084
0.2699636126
0.26996589
0.2699668833
0.2699668709
0.269966234
0.2699652523
0.2699651783
0.2699643346
0.26996445
0.2699640377
0.2699664846
0.2699676276
0.2699676453
0.2699669913
0.2699658794
0.2699655874
0.2699646453
0.2699648068
0.2699645048
0.2699671318
0.2699683245
0.2699683884
0.2699676802
0.2699664205
0.2699660768
0.2699650445
0.2699652554
0.2699649658
0.2699677135
0.269968996
0.2699690297
0.269968338
0.2699670138
0.2699665938
0.2699654475
0.2699657231
0.2699654385
0.2699683038
0.2699695925
0.2699696177
0.2699689323
0.2699675577
0.2699670868
0.2699659037
0.2699661852
0.2699659135
0.2699687921
0.2699701208
0.2699700767
0.2699694483
0.2699680501
0.269967616
0.2699663579
0.2699666717
0.2699663664
0.2699692706
0.2699705327
0.2699704898
0.2699699052
0.2699685401
0.2699681258
0.2699668072
0.2699671403
0.2699668041
0.2699696936
0.2699709621
0.2699708007
0.2699702906
0.2699689771
0.26996855
0.2699672659
0.2699676175
0.2699672219
0.269970034
0.2699712423
0.2699711183
0.2699706041
0.2699693688
0.2699689866
0.2699677361
0.2699680315
0.2699675895
0.2699703858
0.2699715208
0.2699713387
0.26997085
0.2699696968
0.2699693884
0.269968182
0.2699683386
0.2699679006
0.269970614
0.2699717042
0.2699715232
0.2699710633
0.2699699344
0.2699696678
0.2699685162
0.2699636259
0.269962743
0.2699633154
0.2699633589
0.2699636977
0.2699638235
0.2699656448
0.2699633052
0.2699631721
0.2699637329
0.2699629045
0.2699636121
0.269963841
0.2699643611
0.269964401
0.269965952
0.2699634744
0.2699632783
0.2699638651
0.2699631411
0.2699640759
0.2699644722
0.2699651178
0.2699650473
0.2699663743
0.2699637286
0.2699634289
0.2699640537
0.2699634652
0.2699645959
0.2699652012
0.2699659469
0.2699657531
0.2699668376
0.2699640585
0.2699636247
0.2699643254
0.2699638357
0.2699652022
0.269965954
0.2699667962
0.2699665077
0.2699674397
0.269964438
0.2699638846
0.2699646419
0.269964249
0.2699657985
0.2699666708
0.2699675875
0.2699672836
0.2699680565
0.2699648883
0.2699642036
0.2699650395
0.2699647249
0.2699663861
0.2699673475
0.2699683339
0.2699679774
0.2699686725
0.2699653668
0.2699645689
0.2699654317
0.2699652426
0.2699669911
0.2699680002
0.2699690268
0.2699686268
0.2699692567
0.2699658695
0.2699649962
0.2699658887
0.2699657273
0.2699675338
0.269968602
0.2699695791
0.2699692118
0.2699698372
0.2699663954
0.2699654435
0.2699663603
0.2699661878
0.2699680682
0.2699691028
0.2699700526
0.2699697224
0.269970379
0.2699668409
0.2699659091
0.2699668824
0.2699666937
0.2699685329
0.2699695251
0.2699705301
0.2699701627
0.2699708409
0.2699673435
0.2699663755
0.2699673442
0.2699671858
0.2699689604
0.2699699132
0.2699708691
0.2699705794
0.2699712625
0.2699678028
0.2699668356
0.2699677698
0.2699675963
0.2699694115
0.2699702488
0.2699711985
0.269970891
0.2699716631
0.2699682225
0.2699672755
0.2699681931
0.2699679455
0.2699697203
0.2699705135
0.2699714709
0.2699711757
0.2699720023
0.2699685816
0.2699676717
0.2699685242
0.2699682139
0.269969971
0.2699706949
0.2699716322
0.2699713686
0.2699722146
0.269968903
0.2699680064
)
;
    }
    inlet
    {
        type            calculated;
        value           nonuniform 0();
    }
    outlet
    {
        type            calculated;
        value           nonuniform List<scalar> 
81
(
0.2699683386
0.2699679006
0.269970614
0.2699717042
0.2699715232
0.2699710633
0.2699699344
0.2699696678
0.2699685162
0.2699679408
0.2699697165
0.2699718485
0.2699727669
0.2699713343
0.269971196
0.2699710159
0.2699704488
0.2699678533
0.2699707489
0.2699721423
0.2699724625
0.2699760272
0.2699751341
0.2699766247
0.2699750478
0.2699702463
0.2699697924
0.26997243
0.2699707807
0.2699736235
0.2699752156
0.2699784734
0.2699786804
0.2699745657
0.2699731205
0.2699707446
0.2699715272
0.2699718133
0.2699755887
0.2699786042
0.2706420452
0.2699788354
0.2699768595
0.2699745001
0.2699719758
0.2699696331
0.2699727715
0.2699743894
0.2699775657
0.2699777389
0.2699756437
0.2699749438
0.2699735812
0.2699709145
0.2699706963
0.2699708802
0.2699743267
0.2699763543
0.2699739984
0.2699748716
0.2699725846
0.2699706676
0.26997041
0.2699696273
0.269970582
0.269970181
0.2699718529
0.269972766
0.2699716557
0.2699723044
0.2699699686
0.2699681898
0.2699685242
0.2699682139
0.269969971
0.2699706949
0.2699716322
0.2699713686
0.2699722146
0.269968903
0.2699680064
)
;
    }
    procBoundary1to0
    {
        type            processor;
        value           nonuniform List<scalar> 
97
(
0.2699633609
0.2699633609
0.2699625307
0.2699640837
0.269964281
0.2699638439
0.269963674
0.2699634625
0.269964122
0.2699635222
0.2699623995
0.2699633829
0.2699633829
0.2699633829
0.2699645455
0.2699648882
0.269963769
0.2699631522
0.2699636421
0.2699642469
0.2699623904
0.2699640953
0.2699644316
0.2699644498
0.2699644498
0.2699644498
0.2699694149
0.2699725668
0.2699698527
0.2699669444
0.2699629247
0.2699631161
0.2699645684
0.2699621379
0.269963762
0.2699785695
0.2699785695
0.2699785695
0.2700150081
0.2699821404
0.2699677528
0.2699651888
0.2699632611
0.2699633702
0.2699627222
0.2699665761
0.2699774785
0.2709501338
0.2709501338
0.2709501338
0.2700154514
0.2700154514
0.2699743281
0.2699668505
0.2699643799
0.2699620047
0.2699637849
0.2699646953
0.2699695911
0.2699766292
0.2699676744
0.2699682448
0.2699682448
0.2699682448
0.2699656231
0.2699635177
0.2699639611
0.269963038
0.2699649974
0.2699665436
0.2699649852
0.2699651075
0.2699634938
0.269963382
0.269963382
0.269963382
0.2699637729
0.2699640389
0.2699639798
0.2699623814
0.2699631394
0.2699637332
0.2699629264
0.2699643393
0.2699634804
0.2699626886
0.2699626886
0.2699626886
0.2699635636
0.269962658
0.2699631131
0.2699630421
0.2699632898
0.2699635323
0.2699654465
0.2699632079
0.2699631436
)
;
    }
}


// ************************************************************************* //
