/*--------------------------------*- C++ -*----------------------------------*\
| =========                 |                                                 |
| \\      /  F ield         | OpenFOAM: The Open Source CFD Toolbox           |
|  \\    /   O peration     | Version:  4.x                                   |
|   \\  /    A nd           | Web:      www.OpenFOAM.org                      |
|    \\/     M anipulation  |                                                 |
\*---------------------------------------------------------------------------*/
FoamFile
{
    version     2.0;
    format      ascii;
    class       volScalarField;
    location    "10000";
    object      T;
}
// * * * * * * * * * * * * * * * * * * * * * * * * * * * * * * * * * * * * * //

dimensions      [0 0 0 1 0 0 0];

internalField   nonuniform List<scalar> 
1174
(
1223.149848
1223.149962
1223.150234
1223.150532
1223.150897
1223.15148
1223.15187
1223.15233
1223.152903
1223.153392
1223.153931
1223.154342
1223.154845
1223.155307
1223.154113
1223.154536
1223.154737
1223.155307
1223.155894
1223.156504
1223.157262
1223.158003
1223.158703
1223.159418
1223.160075
1223.160658
1223.161224
1223.161525
1223.148147
1223.148573
1223.149199
1223.149965
1223.15075
1223.151322
1223.152097
1223.152654
1223.153444
1223.154024
1223.154592
1223.155268
1223.155593
1223.155985
1223.148936
1223.149708
1223.150744
1223.151579
1223.152502
1223.153403
1223.15408
1223.154706
1223.15524
1223.155916
1223.156154
1223.156739
1223.15701
1223.15728
1223.152058
1223.153
1223.153993
1223.15501
1223.156005
1223.156779
1223.157578
1223.15816
1223.158876
1223.159382
1223.159972
1223.160194
1223.160538
1223.160649
1223.151963
1223.152792
1223.153652
1223.154521
1223.155385
1223.156323
1223.157061
1223.157697
1223.158287
1223.158759
1223.159196
1223.159631
1223.16005
1223.160184
1223.151161
1223.151788
1223.152263
1223.152854
1223.153492
1223.154545
1223.155267
1223.156034
1223.156806
1223.157333
1223.157838
1223.158282
1223.158715
1223.159064
1223.147032
1223.147334
1223.147736
1223.148213
1223.148873
1223.149382
1223.149886
1223.150535
1223.150989
1223.151446
1223.152165
1223.152662
1223.153074
1223.153518
1223.148934
1223.148968
1223.14927
1223.149508
1223.150012
1223.150403
1223.151
1223.151512
1223.152121
1223.152778
1223.153362
1223.153804
1223.154163
1223.154502
1223.153982
1223.154188
1223.154335
1223.1548
1223.155423
1223.156046
1223.15675
1223.157205
1223.157823
1223.158546
1223.159195
1223.159737
1223.160375
1223.160913
1223.161342
1223.151365
1223.151806
1223.15242
1223.153058
1223.153877
1223.154549
1223.155175
1223.155978
1223.15637
1223.156884
1223.157352
1223.157734
1223.158137
1223.15857
1223.148981
1223.150126
1223.151208
1223.152398
1223.153494
1223.154416
1223.155131
1223.155792
1223.156345
1223.156619
1223.156794
1223.157088
1223.157238
1223.157381
1223.152632
1223.154361
1223.155914
1223.157096
1223.158191
1223.158904
1223.159505
1223.16011
1223.160454
1223.160647
1223.160789
1223.160964
1223.161008
1223.161109
1223.163129
1223.164899
1223.16662
1223.167948
1223.168819
1223.169557
1223.170201
1223.170553
1223.170751
1223.170684
1223.170791
1223.170655
1223.170685
1223.170847
1223.16036
1223.16177
1223.163187
1223.164323
1223.165419
1223.166363
1223.166969
1223.167402
1223.167784
1223.168019
1223.168052
1223.168087
1223.168176
1223.168226
1223.153314
1223.154288
1223.155426
1223.156265
1223.157378
1223.157992
1223.158758
1223.159351
1223.159824
1223.160032
1223.160313
1223.160555
1223.16074
1223.161154
1223.14744
1223.147915
1223.14852
1223.149111
1223.1499
1223.150531
1223.151228
1223.151972
1223.15264
1223.153186
1223.153868
1223.154409
1223.154937
1223.155252
1223.154707
1223.154995
1223.155343
1223.155802
1223.156424
1223.157004
1223.157678
1223.158244
1223.158955
1223.159732
1223.160238
1223.160819
1223.161369
1223.161739
1223.146971
1223.147168
1223.147775
1223.148506
1223.149166
1223.15001
1223.150801
1223.151446
1223.152046
1223.152713
1223.15353
1223.153982
1223.154609
1223.155147
1223.155374
1223.146737
1223.147415
1223.148466
1223.149587
1223.150733
1223.151602
1223.152313
1223.153036
1223.153512
1223.154183
1223.154576
1223.155016
1223.155389
1223.155761
1223.15605
1223.158328
1223.160448
1223.162235
1223.16357
1223.164763
1223.165396
1223.165956
1223.166223
1223.166418
1223.166317
1223.166407
1223.166345
1223.166283
1223.165923
1223.156123
1223.159251
1223.161475
1223.162817
1223.16318
1223.163268
1223.16308
1223.162538
1223.162111
1223.161659
1223.161242
1223.160878
1223.160474
1223.16043
1223.171772
1223.174803
1223.175974
1223.176167
1223.175831
1223.175185
1223.174148
1223.173302
1223.172461
1223.171719
1223.170985
1223.17027
1223.169585
1223.168901
1223.153854
1223.157
1223.159236
1223.160487
1223.16099
1223.161035
1223.160899
1223.160557
1223.16019
1223.159778
1223.15921
1223.158691
1223.158226
1223.157723
1223.146751
1223.148836
1223.150563
1223.151962
1223.153112
1223.153707
1223.154025
1223.154356
1223.154478
1223.154482
1223.15451
1223.154477
1223.154434
1223.15421
1223.156231
1223.157437
1223.158527
1223.159559
1223.160517
1223.16148
1223.162015
1223.162685
1223.163074
1223.163638
1223.164024
1223.164266
1223.164458
1223.164641
1223.152372
1223.152746
1223.153405
1223.154024
1223.154756
1223.155643
1223.156324
1223.156967
1223.157658
1223.158161
1223.158568
1223.159077
1223.159383
1223.159708
1223.145322
1223.145882
1223.146775
1223.147671
1223.148624
1223.149665
1223.150315
1223.151047
1223.151779
1223.152373
1223.15282
1223.15328
1223.153474
1223.153762
1223.153992
1223.159466
1223.161018
1223.162751
1223.164144
1223.165497
1223.166673
1223.167428
1223.168194
1223.168862
1223.169136
1223.169289
1223.169491
1223.169826
1223.169989
1223.170108
1223.163385
1223.167386
1223.170619
1223.172718
1223.174154
1223.174596
1223.174609
1223.174342
1223.173928
1223.173403
1223.172974
1223.172415
1223.172031
1223.171632
1223.17132
1223.191163
1223.195118
1223.195591
1223.194366
1223.192331
1223.189861
1223.18758
1223.185485
1223.183599
1223.181731
1223.180436
1223.17922
1223.178147
1223.177479
1223.219977
1223.214231
1223.205911
1223.198168
1223.191736
1223.186455
1223.182154
1223.178673
1223.175907
1223.17374
1223.17194
1223.170291
1223.169109
1223.168313
1223.174842
1223.178819
1223.179288
1223.177935
1223.175926
1223.173728
1223.171388
1223.169202
1223.167498
1223.1659
1223.164603
1223.163477
1223.162465
1223.161782
1223.163331
1223.166583
1223.168713
1223.169944
1223.170381
1223.170373
1223.170204
1223.169746
1223.169333
1223.168714
1223.168283
1223.167614
1223.167236
1223.167052
1223.151614
1223.153236
1223.154804
1223.156047
1223.157018
1223.157807
1223.158385
1223.159024
1223.159212
1223.159453
1223.159645
1223.159562
1223.159481
1223.159507
1223.153383
1223.154188
1223.154999
1223.155909
1223.15659
1223.157431
1223.158175
1223.158903
1223.159549
1223.160021
1223.16053
1223.160833
1223.161231
1223.161628
1223.151491
1223.152198
1223.153028
1223.154084
1223.154972
1223.155914
1223.156913
1223.15752
1223.158179
1223.15877
1223.159318
1223.159697
1223.159937
1223.160262
1223.160631
1223.159576
1223.161607
1223.163458
1223.164789
1223.166112
1223.167093
1223.167603
1223.167931
1223.168497
1223.168615
1223.168859
1223.168859
1223.168745
1223.168727
1223.168677
1223.163985
1223.169759
1223.172926
1223.174245
1223.174467
1223.173711
1223.172895
1223.172076
1223.171134
1223.170418
1223.16958
1223.16864
1223.167914
1223.167325
1223.166842
1223.212516
1223.219283
1223.213686
1223.205498
1223.197641
1223.19128
1223.186123
1223.181944
1223.178412
1223.175616
1223.173268
1223.171396
1223.17007
1223.168739
1223.16772
1220.419667
1220.331699
1220.282292
1220.252742
1220.233606
1220.220426
1220.210732
1220.202987
1220.196797
1220.191529
1220.18681
1220.18263
1220.178824
1220.175394
1223.217958
1223.212482
1223.2044
1223.196703
1223.190009
1223.184723
1223.180445
1223.17707
1223.174268
1223.172025
1223.170289
1223.16887
1223.16756
1223.166673
1223.163669
1223.166747
1223.168252
1223.16849
1223.168051
1223.167144
1223.166345
1223.165473
1223.164509
1223.163583
1223.162769
1223.162115
1223.161622
1223.161085
1223.14911
1223.150933
1223.152476
1223.153661
1223.154662
1223.155353
1223.155754
1223.156078
1223.156334
1223.156552
1223.156645
1223.156683
1223.156671
1223.156504
1223.149688
1223.150627
1223.151653
1223.152694
1223.153715
1223.154748
1223.15553
1223.156187
1223.156838
1223.157265
1223.157607
1223.158002
1223.158358
1223.158599
1223.15702
1223.157721
1223.158492
1223.159456
1223.160481
1223.161375
1223.162257
1223.163171
1223.163922
1223.164597
1223.165137
1223.165583
1223.165975
1223.166274
1223.166664
1223.152184
1223.153722
1223.15523
1223.156659
1223.157727
1223.158753
1223.159658
1223.160373
1223.160593
1223.160857
1223.160946
1223.161003
1223.161082
1223.16103
1223.161088
1223.159078
1223.163236
1223.166439
1223.168743
1223.169998
1223.170701
1223.170864
1223.170481
1223.17002
1223.16952
1223.16905
1223.168713
1223.168417
1223.168151
1223.16785
1223.171056
1223.180226
1223.184251
1223.18473
1223.1831
1223.181034
1223.17865
1223.176398
1223.174356
1223.172694
1223.170892
1223.169426
1223.16823
1223.167418
1223.166832
1223.216313
1223.222935
1223.217299
1223.209031
1223.201431
1223.194993
1223.189725
1223.185513
1223.182112
1223.179473
1223.177188
1223.175557
1223.174034
1223.172774
1223.171641
1223.179688
1223.188872
1223.192626
1223.193185
1223.191848
1223.189646
1223.187406
1223.185212
1223.183025
1223.181288
1223.179732
1223.1784
1223.17713
1223.176157
1223.175541
1223.161183
1223.164646
1223.166869
1223.16824
1223.168811
1223.168849
1223.168535
1223.168307
1223.167815
1223.167174
1223.166583
1223.166211
1223.165624
1223.165339
1223.149409
1223.151013
1223.152488
1223.153668
1223.154686
1223.155618
1223.156183
1223.156587
1223.1571
1223.157297
1223.15735
1223.157329
1223.157491
1223.15742
1223.152343
1223.153221
1223.15399
1223.154868
1223.155801
1223.156734
1223.157428
1223.1581
1223.158687
1223.159119
1223.159739
1223.160206
1223.160563
1223.160859
1223.147515
1223.147865
1223.148492
1223.149113
1223.150002
1223.150674
1223.151269
1223.151998
1223.152521
1223.153141
1223.153704
1223.154313
1223.154795
1223.155298
1223.155612
1223.153235
1223.154037
1223.154902
1223.155854
1223.156729
1223.157729
1223.15845
1223.159146
1223.159836
1223.160458
1223.160778
1223.161207
1223.161467
1223.161568
1223.161769
1223.148251
1223.150022
1223.152022
1223.153716
1223.155087
1223.156074
1223.156755
1223.157326
1223.157669
1223.157779
1223.15768
1223.1577
1223.157829
1223.157664
1223.157477
1223.150858
1223.154862
1223.158087
1223.160335
1223.161631
1223.162243
1223.162276
1223.161898
1223.161648
1223.161043
1223.160483
1223.160146
1223.159622
1223.159171
1223.158948
1223.171353
1223.177016
1223.180094
1223.181398
1223.181541
1223.181173
1223.180482
1223.179521
1223.17844
1223.177548
1223.176506
1223.1755
1223.174938
1223.174285
1223.174048
1223.157306
1223.161264
1223.164644
1223.166703
1223.167895
1223.168485
1223.168562
1223.168262
1223.168007
1223.167486
1223.166955
1223.166687
1223.166239
1223.165954
1223.165666
1223.155505
1223.157572
1223.159415
1223.161291
1223.16266
1223.163911
1223.164732
1223.165275
1223.165558
1223.165739
1223.165878
1223.16565
1223.16551
1223.165348
1223.165371
1223.154183
1223.155119
1223.15612
1223.157161
1223.158134
1223.15887
1223.15955
1223.160422
1223.160726
1223.16124
1223.161687
1223.162163
1223.162526
1223.162732
1223.149445
1223.149885
1223.150562
1223.151385
1223.152134
1223.152709
1223.15358
1223.1543
1223.154964
1223.155476
1223.15588
1223.156318
1223.156662
1223.15691
1223.146554
1223.146937
1223.146968
1223.147382
1223.147875
1223.148461
1223.149265
1223.149852
1223.15038
1223.150837
1223.151663
1223.152134
1223.152769
1223.153289
1223.153701
1223.147344
1223.147558
1223.147943
1223.148465
1223.149072
1223.149937
1223.15057
1223.151265
1223.15183
1223.152455
1223.153112
1223.153532
1223.153923
1223.154267
1223.154649
1223.156217
1223.157004
1223.158036
1223.159085
1223.160038
1223.161052
1223.161786
1223.162566
1223.163107
1223.163653
1223.164055
1223.16429
1223.164517
1223.164809
1223.164937
1223.155164
1223.156707
1223.158502
1223.159987
1223.161362
1223.162267
1223.163074
1223.163643
1223.164163
1223.164439
1223.164744
1223.16498
1223.165023
1223.165109
1223.16525
1223.154717
1223.15658
1223.1584
1223.160101
1223.161275
1223.16222
1223.162684
1223.163251
1223.163535
1223.16373
1223.163849
1223.163926
1223.164221
1223.164514
1223.164361
1223.156167
1223.157659
1223.159295
1223.160784
1223.162198
1223.163156
1223.164054
1223.164708
1223.165273
1223.16558
1223.165603
1223.165861
1223.165962
1223.165988
1223.166144
1223.147352
1223.148047
1223.14882
1223.149649
1223.150658
1223.151701
1223.1524
1223.153268
1223.153732
1223.154173
1223.154679
1223.154889
1223.155259
1223.155391
1223.155316
1223.149799
1223.150166
1223.150641
1223.151214
1223.151791
1223.152386
1223.153346
1223.153937
1223.154533
1223.155084
1223.155471
1223.156197
1223.156634
1223.157
1223.157428
1223.153674
1223.153866
1223.154241
1223.154707
1223.155094
1223.155736
1223.156356
1223.156947
1223.157631
1223.158204
1223.15872
1223.159254
1223.159961
1223.160215
1223.148471
1223.148556
1223.148833
1223.149201
1223.149549
1223.150028
1223.150425
1223.151072
1223.15158
1223.15211
1223.152437
1223.153007
1223.153652
1223.154113
1223.154466
1223.152905
1223.153115
1223.153421
1223.153769
1223.154296
1223.154937
1223.155507
1223.156008
1223.156695
1223.15746
1223.157935
1223.158346
1223.158962
1223.159611
1223.160105
1223.151272
1223.151668
1223.15196
1223.152534
1223.153082
1223.153858
1223.154701
1223.15537
1223.156143
1223.156724
1223.157366
1223.157914
1223.158089
1223.158608
1223.158898
1223.152497
1223.153173
1223.153981
1223.154844
1223.15579
1223.156837
1223.15783
1223.158592
1223.159194
1223.159853
1223.160482
1223.160907
1223.161241
1223.161575
1223.161854
1223.152011
1223.152603
1223.153528
1223.154475
1223.155349
1223.156267
1223.157026
1223.157592
1223.158335
1223.158986
1223.1592
1223.159663
1223.159831
1223.15994
1223.160156
1223.150392
1223.150637
1223.151376
1223.152344
1223.153281
1223.15406
1223.154976
1223.155753
1223.156431
1223.157046
1223.157593
1223.157888
1223.158331
1223.158575
1223.158802
1223.140718
1223.141067
1223.141547
1223.142378
1223.142944
1223.143628
1223.144342
1223.145105
1223.145707
1223.146254
1223.14691
1223.147485
1223.147888
1223.148269
1223.148734
1223.150358
1223.150533
1223.150759
1223.151081
1223.151567
1223.15204
1223.152599
1223.153168
1223.153668
1223.154501
1223.154991
1223.155551
1223.156125
1223.15673
1223.156983
1223.150528
1223.150616
1223.150809
1223.151145
1223.151546
1223.152014
1223.152558
1223.153045
1223.153597
1223.154154
1223.154734
1223.155312
1223.155892
1223.156475
1223.156812
)
;

boundaryField
{
    top
    {
        type            zeroGradient;
    }
    bottom
    {
        type            zeroGradient;
    }
    side-walls
    {
        type            zeroGradient;
    }
    inlet
    {
        type            zeroGradient;
    }
    outlet
    {
        type            zeroGradient;
    }
    procBoundary1to0
    {
        type            processor;
        value           nonuniform List<scalar> 
97
(
1223.149672
1223.149672
1223.153867
1223.147791
1223.148319
1223.151349
1223.151069
1223.150606
1223.146657
1223.148941
1223.153898
1223.150987
1223.150987
1223.150987
1223.148214
1223.151239
1223.161003
1223.159104
1223.152308
1223.147072
1223.154503
1223.146656
1223.14625
1223.156239
1223.156239
1223.156239
1223.151878
1223.165829
1223.149894
1223.144937
1223.155558
1223.152175
1223.145149
1223.158587
1223.159589
1223.181768
1223.181768
1223.181768
1223.213531
1223.165589
1223.159408
1223.149877
1223.15294
1223.151025
1223.157743
1223.155945
1223.167471
1220.584528
1220.584528
1220.584528
1223.211523
1223.211523
1223.157849
1223.147041
1223.14892
1223.156764
1223.151125
1223.15536
1223.157084
1223.171318
1223.165768
1223.157179
1223.157179
1223.157179
1223.147909
1223.151777
1223.147264
1223.152564
1223.146918
1223.146986
1223.163154
1223.153493
1223.153731
1223.153486
1223.153486
1223.153486
1223.1492
1223.146471
1223.147186
1223.155539
1223.15405
1223.153163
1223.155014
1223.146668
1223.149448
1223.153152
1223.153152
1223.153152
1223.148422
1223.152727
1223.151106
1223.152064
1223.151389
1223.149843
1223.140533
1223.150236
1223.150325
)
;
    }
}


// ************************************************************************* //
