/*--------------------------------*- C++ -*----------------------------------*\
| =========                 |                                                 |
| \\      /  F ield         | OpenFOAM: The Open Source CFD Toolbox           |
|  \\    /   O peration     | Version:  4.x                                   |
|   \\  /    A nd           | Web:      www.OpenFOAM.org                      |
|    \\/     M anipulation  |                                                 |
\*---------------------------------------------------------------------------*/
FoamFile
{
    version     2.0;
    format      ascii;
    class       volVectorField;
    location    "10000";
    object      U;
}
// * * * * * * * * * * * * * * * * * * * * * * * * * * * * * * * * * * * * * //

dimensions      [0 1 -1 0 0 0 0];

internalField   nonuniform List<vector> 
1174
(
(0.01100021038 -5.06148788e-09 -3.830992928e-09)
(0.0110002131 -4.351333442e-09 -3.005795423e-09)
(0.01100022753 -3.445173159e-09 -1.293380236e-09)
(0.01100022119 -1.661070719e-09 -1.941650859e-10)
(0.01100020752 -1.469335804e-09 -1.090484658e-09)
(0.01100019297 -7.220445315e-10 -2.934221951e-10)
(0.0110001712 -9.576507528e-10 -2.324724835e-10)
(0.01100014834 1.343646564e-09 1.340332346e-09)
(0.01100012505 1.580777522e-09 7.39579289e-10)
(0.01100009745 -3.728360795e-10 4.096521733e-09)
(0.01100007029 2.811082885e-09 3.505011415e-09)
(0.0110000404 2.862339917e-09 2.290061701e-09)
(0.01100001997 2.206755974e-09 1.703695319e-09)
(0.01099999311 8.795522545e-10 2.946679934e-09)
(0.01100021926 -2.256541898e-08 -1.716305411e-09)
(0.0110002151 -1.832942569e-08 -6.988822128e-09)
(0.0110002186 -8.914781671e-09 -3.350250681e-09)
(0.01100020516 -2.943564277e-09 -2.103983719e-09)
(0.01100018389 -1.875660275e-09 -6.285553366e-10)
(0.01100015907 1.050207916e-09 -1.504962886e-09)
(0.01100013531 3.461311531e-09 1.363250039e-09)
(0.01100010673 5.821054456e-09 9.695317129e-10)
(0.01100007746 4.397538937e-09 1.844986763e-09)
(0.01100005263 5.945720692e-09 1.127623144e-09)
(0.0110000224 5.195919152e-09 2.664632668e-09)
(0.0109999968 6.667522863e-09 2.929215423e-09)
(0.01099997441 6.575822564e-09 1.851542608e-09)
(0.01099995038 5.694612952e-09 3.151241153e-09)
(0.01100024511 -1.185226507e-08 -5.07602024e-09)
(0.01100021154 -1.620157582e-08 -6.556832354e-09)
(0.01100020442 -9.083066977e-09 -5.225613694e-09)
(0.01100017236 -4.441007202e-09 -2.265189831e-09)
(0.01100013666 -3.914542321e-10 3.426492875e-09)
(0.01100009798 1.534628434e-09 9.740380999e-10)
(0.01100006543 5.174313349e-09 2.313834117e-09)
(0.01100002968 5.523226577e-09 1.388220324e-09)
(0.01099999832 7.439210441e-09 6.758451991e-10)
(0.01099997078 5.968369533e-09 2.574941225e-09)
(0.01099994687 4.568683952e-09 2.357806683e-09)
(0.01099992616 3.891486933e-09 6.870787835e-10)
(0.01099990246 6.712996864e-09 2.043560226e-09)
(0.01099988542 6.968310724e-09 1.20173929e-09)
(0.01100025103 -1.120665701e-08 8.508728852e-09)
(0.01100017897 -3.014524341e-09 -1.198020117e-08)
(0.01100016595 5.606020242e-09 -4.616542997e-09)
(0.01100011855 7.914501066e-09 -5.985926579e-10)
(0.01100007066 6.035275195e-09 5.258112848e-10)
(0.01100003057 6.086399187e-09 2.482888807e-09)
(0.0109999889 5.285103805e-09 6.750141111e-09)
(0.0109999533 4.019151003e-09 6.759204297e-09)
(0.01099992338 4.102211422e-09 4.931504873e-09)
(0.01099989717 6.303136733e-09 5.221458438e-09)
(0.0109998729 6.78975315e-09 5.334370475e-09)
(0.01099985847 5.816470589e-09 3.474336716e-09)
(0.01099984082 5.345492823e-09 4.876534216e-09)
(0.01099982786 5.01265524e-09 2.744927002e-09)
(0.011000328 4.468482418e-10 2.583123267e-08)
(0.01100018295 6.248720754e-11 6.188074311e-09)
(0.01100014526 -1.987301031e-09 7.355810244e-09)
(0.01100008708 -2.190551147e-09 8.497968221e-09)
(0.01100003452 -4.100100214e-10 8.981006987e-09)
(0.01099998918 5.70196567e-10 6.53309434e-09)
(0.01099995008 6.902071499e-10 5.373251249e-09)
(0.0109999151 -6.217017166e-10 5.435341434e-09)
(0.0109998892 -2.36164872e-10 4.14999159e-09)
(0.01099986312 -1.222757598e-10 3.460194114e-09)
(0.01099984491 1.918380649e-10 3.623746695e-09)
(0.01099982794 3.134215035e-10 2.81951247e-09)
(0.01099981511 -4.548228476e-10 2.851175966e-09)
(0.01099980661 2.973116723e-10 1.393019184e-09)
(0.01100025006 1.38467616e-08 8.377942301e-09)
(0.01100017771 2.806706037e-09 -1.186905806e-08)
(0.01100016512 -6.055125776e-09 -2.097076833e-09)
(0.01100011822 -8.742715905e-09 1.468497138e-09)
(0.01100007413 -5.908175223e-09 3.709265353e-09)
(0.01100002843 -7.896089305e-09 5.725820001e-09)
(0.01099998854 -7.683724461e-09 5.657063019e-09)
(0.01099995368 -6.917066235e-09 7.330139428e-09)
(0.0109999244 -3.87749996e-09 6.355063905e-09)
(0.01099989701 -4.411353974e-09 4.772754704e-09)
(0.01099987511 -6.450743279e-09 5.017039338e-09)
(0.01099985484 -5.198591145e-09 4.576932731e-09)
(0.0109998426 -4.48703225e-09 6.162536156e-09)
(0.01099983303 -2.563941936e-09 3.788942208e-09)
(0.01100024436 1.104338929e-08 -4.236843324e-09)
(0.01100020948 1.629242005e-08 -7.40811956e-09)
(0.01100020252 8.191291239e-09 -4.842084516e-10)
(0.01100017135 1.014967473e-09 1.695489766e-09)
(0.01100013357 -2.156998101e-09 6.584447719e-10)
(0.011000099 -3.314812528e-09 3.72353169e-09)
(0.0110000644 -6.251490488e-09 5.543258882e-09)
(0.01100003254 -5.789374808e-09 5.904396491e-09)
(0.01100000284 -8.269467574e-09 4.326052499e-09)
(0.01099997343 -8.323468953e-09 4.288641861e-09)
(0.01099994525 -7.663678744e-09 3.416336417e-09)
(0.01099992364 -8.198924686e-09 4.14840389e-09)
(0.01099990623 -6.649593858e-09 4.642695787e-09)
(0.01099988761 -5.620608383e-09 3.262075446e-09)
(0.01100021685 2.041041665e-08 -1.202151964e-09)
(0.01100021046 1.673527217e-08 -5.157125326e-09)
(0.01100021638 8.425701644e-09 -2.413454304e-09)
(0.01100020192 3.566279486e-09 -9.192276755e-10)
(0.01100018561 -1.005339885e-09 -1.526717672e-09)
(0.0110001606 -1.441957794e-09 -6.873443127e-10)
(0.01100013234 -3.26151479e-09 2.646091398e-09)
(0.01100010847 -4.831027335e-09 2.785668596e-09)
(0.01100007885 -5.547777383e-09 2.40450299e-09)
(0.01100004904 -6.813312254e-09 1.331388804e-09)
(0.01100002366 -6.169283628e-09 3.232288368e-09)
(0.01099999887 -6.568588848e-09 2.88312369e-09)
(0.01099997673 -6.361863283e-09 3.144896738e-09)
(0.01099995225 -5.394617444e-09 3.108950107e-09)
(0.01100020675 3.447043006e-09 -3.254412817e-09)
(0.0110002124 3.290116998e-09 -4.571125225e-09)
(0.01100022395 2.185129075e-09 -2.693093958e-09)
(0.01100021811 3.393013088e-09 -1.960787708e-09)
(0.01100020854 8.374121498e-10 -3.913792492e-09)
(0.01100019106 5.218129859e-11 -8.746385995e-10)
(0.01100017141 -1.526338174e-09 2.265691696e-09)
(0.01100015125 -1.067305512e-09 2.789739792e-09)
(0.01100012422 -1.197850564e-09 2.159919576e-09)
(0.01100009848 -1.634309487e-09 4.692893512e-10)
(0.01100006959 -4.95075993e-10 1.298027404e-09)
(0.01100004289 -3.475429576e-09 3.015205739e-09)
(0.01100001821 -2.376987543e-09 2.209576076e-09)
(0.01099999376 -2.546648762e-09 3.054457288e-09)
(0.01100017267 -1.763729145e-08 -5.250246966e-08)
(0.01100021933 -1.978699775e-09 -2.03040993e-08)
(0.01100021217 -7.464285133e-09 -1.718083242e-08)
(0.0110002176 -3.990348915e-09 -8.471601816e-09)
(0.01100020301 -2.032991271e-09 -3.228351148e-09)
(0.01100018543 -7.230266893e-10 1.192913789e-09)
(0.01100016137 -1.100259959e-09 3.414803455e-09)
(0.01100013244 1.474124498e-10 4.58412864e-09)
(0.0110001061 2.210961496e-09 5.897497753e-09)
(0.01100007696 2.488826092e-09 5.968799415e-09)
(0.01100004939 3.568409002e-09 6.76296427e-09)
(0.01100002465 2.741906343e-09 7.252190911e-09)
(0.01099999652 4.624485492e-09 7.766760852e-09)
(0.01099997774 2.853569584e-09 5.813495837e-09)
(0.01099995086 1.629784312e-09 6.291855782e-09)
(0.01100022898 -2.01970471e-08 -2.12969343e-08)
(0.01100019714 -1.97786224e-08 -2.047429482e-08)
(0.0110001949 -9.291030009e-09 -8.185044707e-09)
(0.0110001655 -2.941113876e-09 -2.054671441e-09)
(0.0110001342 2.044364118e-09 1.940417598e-09)
(0.01100010226 5.657711797e-09 6.435450078e-09)
(0.01100007041 9.112387028e-09 7.90075867e-09)
(0.01100004285 8.894084373e-09 8.698012635e-09)
(0.01100001114 9.531919753e-09 9.336400424e-09)
(0.01099998522 8.600256899e-09 9.402371646e-09)
(0.01099995896 9.383161161e-09 8.75254859e-09)
(0.0109999371 8.492439876e-09 8.451965935e-09)
(0.01099991904 9.133513616e-09 8.657084798e-09)
(0.01099990202 6.575365132e-09 7.154956652e-09)
(0.01100026397 -1.364676005e-09 -2.84373477e-08)
(0.01100016644 -2.180540203e-08 -2.344889414e-08)
(0.01100013925 -1.002971442e-08 1.82102806e-09)
(0.01100008261 -7.837974101e-10 8.168769851e-09)
(0.01100002905 3.439100987e-09 1.268143282e-08)
(0.01099998902 7.537344161e-09 1.662689583e-08)
(0.0109999485 1.057150667e-08 1.705025601e-08)
(0.01099991974 1.141338061e-08 1.414402604e-08)
(0.01099989586 1.083913487e-08 1.45413543e-08)
(0.01099987494 1.012461692e-08 1.267302957e-08)
(0.0109998567 8.770126821e-09 1.210760342e-08)
(0.0109998439 7.990294733e-09 1.076828579e-08)
(0.0109998299 1.058659131e-08 1.050999601e-08)
(0.01099982265 7.86023719e-09 8.913178988e-09)
(0.01100023415 1.984469817e-08 4.873420647e-09)
(0.01100005089 1.160908928e-08 -2.545656995e-08)
(0.01100002017 1.909741998e-08 8.299775702e-09)
(0.0109999468 1.935868524e-08 2.184973201e-08)
(0.01099988843 1.8380516e-08 2.489731052e-08)
(0.01099984921 1.508153453e-08 2.67319915e-08)
(0.0109998143 1.277499657e-08 2.490181065e-08)
(0.01099979371 9.90541997e-09 2.183720365e-08)
(0.01099977821 8.543140346e-09 2.031414006e-08)
(0.01099976825 7.369523662e-09 1.784560523e-08)
(0.01099975791 7.672964515e-09 1.628085094e-08)
(0.01099975592 5.72596295e-09 1.345038518e-08)
(0.01099975279 7.327480066e-09 1.190302501e-08)
(0.0109997527 6.271990695e-09 1.006801995e-08)
(0.01100036825 -4.464570003e-10 1.049122383e-07)
(0.01099998246 -3.839841081e-10 5.83391141e-08)
(0.01099993138 -4.311973471e-10 7.473000693e-08)
(0.01099985252 7.510668639e-10 6.723734567e-08)
(0.01099980019 1.771779211e-09 5.24351212e-08)
(0.01099976454 2.158861501e-09 4.181909086e-08)
(0.01099974409 -2.172978611e-10 3.503829899e-08)
(0.01099973159 3.092269214e-10 2.8960483e-08)
(0.01099972259 6.447997849e-11 2.321892523e-08)
(0.01099971949 5.185126774e-10 2.083591131e-08)
(0.01099971946 -8.853731304e-10 1.68456599e-08)
(0.01099971783 1.028132409e-09 1.443506934e-08)
(0.01099972004 -3.056948986e-11 1.308264228e-08)
(0.01099972389 1.164329486e-09 1.198630633e-08)
(0.01100023571 -1.887832736e-08 4.129996586e-09)
(0.01100004809 -1.082948774e-08 -2.473234966e-08)
(0.01100002033 -1.93484771e-08 8.272998228e-09)
(0.01099994664 -2.099053609e-08 2.226205434e-08)
(0.01099988857 -1.913224796e-08 2.622570037e-08)
(0.01099984603 -1.580783321e-08 2.750695913e-08)
(0.01099981378 -1.374979568e-08 2.606734655e-08)
(0.01099979317 -1.208706638e-08 2.351988023e-08)
(0.01099977829 -8.854189338e-09 2.013451572e-08)
(0.01099976661 -8.676282916e-09 1.635133656e-08)
(0.01099976063 -8.203408639e-09 1.591878617e-08)
(0.010999754 -7.821315003e-09 1.393818675e-08)
(0.01099975142 -7.514506547e-09 1.24112145e-08)
(0.01099975051 -5.446024495e-09 1.179908574e-08)
(0.01100025963 2.866105015e-09 -2.988035458e-08)
(0.01100016387 2.174917546e-08 -2.221215526e-08)
(0.01100013611 8.257436674e-09 -2.763095966e-10)
(0.01100007794 -1.401477847e-09 1.090509101e-08)
(0.01100003148 -7.366215979e-09 1.429694677e-08)
(0.0109999842 -9.947205002e-09 1.564268029e-08)
(0.01099994929 -1.15959161e-08 1.764367083e-08)
(0.01099992145 -1.257120473e-08 1.677418391e-08)
(0.01099989611 -1.289470203e-08 1.645174473e-08)
(0.01099987237 -9.689405564e-09 1.310072021e-08)
(0.01099985615 -1.015955612e-08 1.261679372e-08)
(0.01099984597 -1.123055336e-08 1.077232435e-08)
(0.0109998313 -9.426778994e-09 1.203740687e-08)
(0.0109998211 -7.517779753e-09 8.049317231e-09)
(0.01100022784 2.135376585e-08 -2.107445706e-08)
(0.01100019372 2.030578028e-08 -2.057475156e-08)
(0.0110001915 8.476099688e-09 -9.621041252e-09)
(0.01100016445 5.087537236e-10 -2.560848474e-09)
(0.01100013545 -2.51027275e-09 2.829423748e-09)
(0.0110001016 -6.142084725e-09 5.825091028e-09)
(0.01100006887 -8.193400364e-09 6.5684063e-09)
(0.01100004065 -8.604653326e-09 9.965358363e-09)
(0.01100001149 -8.584008307e-09 1.029989562e-08)
(0.01099998511 -9.75811384e-09 8.416943627e-09)
(0.01099995958 -8.415374422e-09 9.1484786e-09)
(0.0109999389 -7.817300906e-09 7.2463462e-09)
(0.0109999208 -8.351643596e-09 8.941428108e-09)
(0.01099990339 -6.947275886e-09 6.402776977e-09)
(0.01100022038 2.213906243e-09 -2.090127499e-08)
(0.01100020963 5.472425135e-09 -1.750333819e-08)
(0.01100021552 4.478360053e-09 -8.467492031e-09)
(0.01100020224 2.379005903e-09 -5.179105583e-09)
(0.01100018501 -8.682180933e-10 4.399094207e-10)
(0.0110001604 -2.746103515e-10 1.710831327e-09)
(0.01100013342 -8.903698103e-10 3.70988915e-09)
(0.01100010429 -3.096004284e-09 3.895526304e-09)
(0.01100007786 -3.054262982e-09 6.909701222e-09)
(0.01100005145 -4.079378259e-09 6.384835275e-09)
(0.01100002421 -2.364077058e-09 5.883837566e-09)
(0.0109999977 -1.329616163e-09 6.705344745e-09)
(0.01099997664 -3.409688357e-09 7.826534371e-09)
(0.01099995421 -2.430432342e-09 5.619783467e-09)
(0.01100018139 -3.81734733e-08 -5.820816553e-08)
(0.01100024323 -3.894269681e-10 -1.064426376e-08)
(0.01100021062 -6.005219261e-09 -1.623242889e-08)
(0.01100020359 -1.358028812e-09 -8.557057343e-09)
(0.01100017082 1.217294145e-09 -3.342132869e-09)
(0.01100013667 -4.166336555e-10 -6.219068877e-10)
(0.01100009885 2.90392095e-09 3.449766097e-09)
(0.01100006154 6.139341819e-09 5.772074644e-09)
(0.01100002794 7.839279902e-09 7.118801859e-09)
(0.01099999914 6.783064968e-09 8.40247231e-09)
(0.0109999721 7.118661084e-09 5.545135541e-09)
(0.01099994762 6.643230666e-09 7.35017938e-09)
(0.01099992177 6.500426462e-09 5.551500795e-09)
(0.01099990612 7.872200339e-09 1.001710728e-08)
(0.01099988452 5.447443921e-09 8.005442936e-09)
(0.01100019499 -1.700021424e-07 -9.391569412e-08)
(0.01100025962 -2.965651887e-08 -3.086038571e-10)
(0.01100016353 -2.337082282e-08 -2.029566848e-08)
(0.01100013526 7.724584259e-10 -9.933153561e-09)
(0.01100008087 1.077003991e-08 -2.538842924e-09)
(0.01100002939 1.319598698e-08 2.492875232e-09)
(0.01099998599 1.659389382e-08 9.154837306e-09)
(0.01099994879 1.732785339e-08 1.117189415e-08)
(0.01099991703 1.718676991e-08 1.030843938e-08)
(0.01099989389 1.54311454e-08 1.16368113e-08)
(0.01099987318 1.47598197e-08 8.060899707e-09)
(0.01099985694 1.29878995e-08 1.009258181e-08)
(0.01099984347 1.179048336e-08 7.99763792e-09)
(0.01099983141 1.096326785e-08 9.351995595e-09)
(0.01099982338 9.38942093e-09 7.82730678e-09)
(0.01100030039 1.464297985e-08 1.205946561e-08)
(0.01100003978 -2.214138255e-08 -2.330157231e-08)
(0.01099995807 6.743015751e-09 7.69787113e-09)
(0.0109998555 1.928164179e-08 1.900249036e-08)
(0.01099979178 2.20274186e-08 2.256659692e-08)
(0.01099974977 2.189468746e-08 2.46222795e-08)
(0.01099972554 2.137506328e-08 2.333680642e-08)
(0.01099971175 1.956894765e-08 2.00431275e-08)
(0.01099970818 1.999569084e-08 1.958338956e-08)
(0.01099970533 1.707694185e-08 1.550295459e-08)
(0.01099970792 1.463042461e-08 1.536270583e-08)
(0.01099971337 1.056644979e-08 1.162704675e-08)
(0.01099971762 1.228232814e-08 9.957382533e-09)
(0.01099972011 1.042833481e-08 9.407167654e-09)
(0.011000143 1.212645472e-07 1.098789428e-07)
(0.01099965329 7.807420675e-08 -6.582233519e-08)
(0.01099959628 7.874974837e-08 6.192311316e-09)
(0.01099949799 6.566743586e-08 3.295072601e-08)
(0.01099945802 4.776987281e-08 3.602728912e-08)
(0.01099945688 3.324380788e-08 3.668971387e-08)
(0.01099946967 2.571481341e-08 3.21108011e-08)
(0.01099949033 1.924776321e-08 2.782415832e-08)
(0.01099951497 1.472271983e-08 2.473830648e-08)
(0.01099954242 1.271464012e-08 2.075972278e-08)
(0.01099956459 9.984752534e-09 1.618528414e-08)
(0.01099958953 9.275065861e-09 1.398715142e-08)
(0.01099960978 9.256451012e-09 1.293387424e-08)
(0.01099963107 7.276217972e-09 1.128634281e-08)
(0.01100035528 -2.066705216e-10 6.256909494e-07)
(0.01099925864 -6.861118433e-10 9.715881924e-08)
(0.01099924013 -9.416635184e-10 1.10553032e-07)
(0.01099919847 6.688951544e-10 1.036934685e-07)
(0.01099922003 -3.230164419e-10 7.496931369e-08)
(0.01099927494 1.945393513e-09 5.724276935e-08)
(0.01099932419 8.784664536e-10 4.579831149e-08)
(0.01099937681 2.228638436e-10 3.508746535e-08)
(0.01099942411 -2.553701385e-10 2.772947252e-08)
(0.01099946658 5.405470318e-11 2.23914648e-08)
(0.01099950477 -1.368450572e-09 1.841881327e-08)
(0.01099953827 -3.165369207e-10 1.408506166e-08)
(0.01099956605 -6.925437711e-10 1.505831561e-08)
(0.0109995932 1.025414546e-09 1.041764563e-08)
(0.01100014304 -1.204599839e-07 1.106864671e-07)
(0.01099965109 -7.776702369e-08 -6.700032596e-08)
(0.0109995947 -7.882324396e-08 6.806181746e-09)
(0.0109994968 -6.646544224e-08 3.268247605e-08)
(0.0109994588 -4.730723432e-08 3.511061396e-08)
(0.01099945755 -3.605678848e-08 3.498934434e-08)
(0.0109994656 -2.64495249e-08 3.396446227e-08)
(0.01099948806 -2.00011554e-08 2.981671063e-08)
(0.01099951665 -1.605580452e-08 2.411669685e-08)
(0.01099954058 -1.324871714e-08 1.992919801e-08)
(0.01099956682 -1.094377101e-08 1.759605329e-08)
(0.01099958934 -8.488117379e-09 1.418016959e-08)
(0.0109996105 -8.64071223e-09 1.515602291e-08)
(0.01099962858 -7.035802746e-09 1.171446851e-08)
(0.01100030154 -1.085901921e-08 1.268714296e-08)
(0.01100003938 2.245935139e-08 -2.398600072e-08)
(0.01099995715 -8.281298378e-09 7.334437923e-09)
(0.01099985666 -2.148041763e-08 1.866806407e-08)
(0.01099979132 -2.368319838e-08 2.273095054e-08)
(0.0109997501 -2.509862203e-08 2.254050399e-08)
(0.01099972342 -2.403505363e-08 2.39218725e-08)
(0.01099971325 -2.193320963e-08 2.177949666e-08)
(0.01099970666 -1.815310406e-08 1.939281445e-08)
(0.01099970507 -1.649304207e-08 1.712301679e-08)
(0.01099970518 -1.39276648e-08 1.561724913e-08)
(0.01099971367 -1.428302367e-08 1.405858651e-08)
(0.01099971474 -1.119879898e-08 1.209096195e-08)
(0.01099972141 -1.031505967e-08 9.690926483e-09)
(0.01100025896 2.904119934e-08 -2.003816907e-09)
(0.01100016367 2.305778708e-08 -2.17335851e-08)
(0.01100013514 -8.289730609e-10 -9.304618626e-09)
(0.01100007938 -1.150193291e-08 -1.017501343e-09)
(0.01100003003 -1.477585597e-08 3.315424193e-09)
(0.01099998783 -1.666783946e-08 7.298992823e-09)
(0.01099994674 -1.770017631e-08 1.09076563e-08)
(0.01099992071 -1.54482331e-08 1.146264537e-08)
(0.01099989271 -1.53392203e-08 1.132509768e-08)
(0.01099987389 -1.419949714e-08 1.261521466e-08)
(0.01099985602 -1.24449774e-08 1.058080046e-08)
(0.01099984273 -1.158441795e-08 1.097119755e-08)
(0.01099983331 -1.055025549e-08 9.5030967e-09)
(0.01099981846 -8.758341462e-09 8.642407272e-09)
(0.01100024595 1.265515686e-09 -1.225981321e-08)
(0.01100020878 6.41610757e-09 -1.887479652e-08)
(0.01100020127 1.864265141e-09 -9.159349156e-09)
(0.01100016886 -4.747174818e-10 -3.108833885e-09)
(0.01100013506 -3.067981781e-09 5.347223372e-11)
(0.0110000992 -3.859117885e-09 1.764982787e-09)
(0.01100006415 -3.956578271e-09 5.568934014e-09)
(0.0110000302 -6.139508998e-09 8.056892288e-09)
(0.01100000119 -5.674132205e-09 8.644866684e-09)
(0.01099997327 -5.389808856e-09 8.642701078e-09)
(0.01099994601 -4.108887268e-09 8.477431654e-09)
(0.01099992469 -1.830455188e-09 8.798244517e-09)
(0.01099990426 -3.009414736e-09 7.547210887e-09)
(0.01099988191 -2.126767425e-09 6.491689215e-09)
(0.01100019465 -4.995688931e-08 -9.826697235e-08)
(0.01100025169 9.962017038e-09 -1.248563978e-08)
(0.01100017967 -1.069532506e-08 -3.783413844e-09)
(0.01100016608 -2.082134909e-09 3.5378078e-09)
(0.01100011688 1.200944063e-09 7.650911035e-09)
(0.01100007594 5.659499425e-09 6.910841823e-09)
(0.01100002978 5.959132926e-09 6.889794601e-09)
(0.01099998701 6.120459362e-09 8.03712149e-09)
(0.01099995245 5.000548422e-09 7.122071941e-09)
(0.01099992146 6.892639262e-09 5.789026787e-09)
(0.01099989456 7.140113139e-09 5.059691869e-09)
(0.01099987398 7.248489214e-09 4.611111383e-09)
(0.01099985691 6.341665919e-09 5.155696136e-09)
(0.01099984113 4.063100279e-09 6.188715452e-09)
(0.01099982618 3.625597935e-09 5.191382603e-09)
(0.01100021541 -2.491446968e-07 -1.963249675e-07)
(0.01100023499 3.314689313e-09 1.708637337e-08)
(0.0110000492 -2.660918823e-08 8.264324963e-09)
(0.01100001887 8.255077792e-09 1.738150682e-08)
(0.01099994551 1.978811431e-08 1.999620883e-08)
(0.01099989006 2.389210424e-08 1.694918039e-08)
(0.01099984665 2.611929922e-08 1.435877356e-08)
(0.01099981217 2.487567008e-08 1.236412848e-08)
(0.01099979274 2.343075063e-08 1.04725278e-08)
(0.01099977657 2.073867128e-08 9.78975093e-09)
(0.01099976509 1.81409412e-08 9.009640984e-09)
(0.0109997569 1.69569658e-08 7.991730453e-09)
(0.01099975462 1.375577576e-08 6.319075468e-09)
(0.01099975167 1.312125352e-08 6.7200787e-09)
(0.01099975235 1.087529177e-08 5.854784117e-09)
(0.01100021234 -2.977190728e-07 -5.803626903e-07)
(0.01100014198 1.099408317e-07 1.194781022e-07)
(0.0109996513 -6.501237318e-08 7.751163527e-08)
(0.01099959359 5.339775305e-09 7.641828181e-08)
(0.01099949871 3.293249553e-08 6.354969134e-08)
(0.01099946021 3.658543659e-08 4.774691992e-08)
(0.01099945565 3.484153754e-08 3.391778823e-08)
(0.01099946718 3.136933628e-08 2.53687196e-08)
(0.01099949133 2.785374227e-08 1.950911711e-08)
(0.01099951285 2.432205389e-08 1.499577e-08)
(0.01099954268 1.975032634e-08 1.20161128e-08)
(0.01099956278 1.757726413e-08 1.093178662e-08)
(0.01099958868 1.360667758e-08 9.470813511e-09)
(0.01099960962 1.543763724e-08 9.219930838e-09)
(0.01099962785 1.080596742e-08 7.170302004e-09)
(0.01099917815 6.306635085e-07 6.304695076e-07)
(0.01099847017 1.317598335e-07 1.327933056e-07)
(0.01099872472 1.233994378e-07 1.219994628e-07)
(0.01099874208 1.0660275e-07 1.023152052e-07)
(0.0109988358 7.136550632e-08 7.364113774e-08)
(0.01099895192 5.131133409e-08 5.170728503e-08)
(0.01099905787 3.587067854e-08 3.652032464e-08)
(0.01099915863 2.875015746e-08 2.915181805e-08)
(0.01099924026 2.013065371e-08 2.114875515e-08)
(0.01099931463 1.665623734e-08 1.570414507e-08)
(0.01099937658 1.330628738e-08 1.373260677e-08)
(0.0109994325 1.088765881e-08 1.056558064e-08)
(0.010999477 9.526813766e-09 1.108331756e-08)
(0.01099951891 8.840462376e-09 8.035758115e-09)
(0.01099843346 8.751435221e-10 3.819202351e-06)
(0.01099664081 -1.366206764e-09 1.073507627e-06)
(0.01099770332 -3.852880843e-10 4.777174877e-07)
(0.01099805274 -1.652807863e-09 2.715286139e-07)
(0.01099836023 1.401633964e-09 1.44742857e-07)
(0.01099862496 2.878165789e-10 8.156042021e-08)
(0.01099882463 8.326579799e-10 4.822489074e-08)
(0.01099898377 2.681194456e-10 3.269359431e-08)
(0.01099910969 -9.495390726e-10 2.329267303e-08)
(0.01099921386 1.030170542e-10 1.65801467e-08)
(0.01099929831 -1.44303924e-09 1.573785625e-08)
(0.01099936719 -3.380064225e-10 1.222643125e-08)
(0.01099942316 4.950684154e-10 1.083977217e-08)
(0.01099947651 1.277234876e-09 7.422894788e-09)
(0.01099917979 -6.305951055e-07 6.30344717e-07)
(0.01099846906 -1.311715028e-07 1.330401419e-07)
(0.01099872352 -1.241845566e-07 1.235629369e-07)
(0.01099874139 -1.064279401e-07 1.037071495e-07)
(0.01099883553 -7.254284055e-08 7.265761042e-08)
(0.01099895232 -5.223130839e-08 5.062906354e-08)
(0.01099905675 -3.637666368e-08 3.746551941e-08)
(0.01099915501 -2.780236625e-08 2.839137221e-08)
(0.01099924089 -1.963078251e-08 2.164971713e-08)
(0.01099931536 -1.639956655e-08 1.791658146e-08)
(0.01099937868 -1.283259937e-08 1.448999372e-08)
(0.01099943486 -9.283117872e-09 1.146497693e-08)
(0.01099947641 -7.74149089e-09 9.652797193e-09)
(0.0109995196 -6.7964389e-09 8.757976786e-09)
(0.01100014101 -1.095977568e-07 1.198267832e-07)
(0.01099964957 6.58249679e-08 7.76477563e-08)
(0.0109995947 -8.701008996e-09 7.847051748e-08)
(0.01099949731 -3.36440938e-08 6.38926388e-08)
(0.01099945739 -3.820712385e-08 4.68380379e-08)
(0.01099945555 -3.724248704e-08 3.611249958e-08)
(0.01099946891 -3.406596814e-08 2.686905544e-08)
(0.01099948911 -2.9514347e-08 1.972194417e-08)
(0.01099951502 -2.571905461e-08 1.60390378e-08)
(0.01099953932 -1.924524969e-08 1.27855255e-08)
(0.01099956541 -1.701051276e-08 1.20730653e-08)
(0.01099958898 -1.496327405e-08 1.008388062e-08)
(0.0109996071 -1.623570786e-08 1.024563129e-08)
(0.01099962851 -1.301700878e-08 7.938606406e-09)
(0.01100023576 -7.046914835e-09 1.630047136e-08)
(0.01100004851 2.220590645e-08 9.953203483e-09)
(0.01100001753 -7.894965206e-09 1.913966706e-08)
(0.01099994688 -2.339181711e-08 2.133353761e-08)
(0.01099988977 -2.517185244e-08 1.879638771e-08)
(0.01099984719 -2.678963121e-08 1.706292503e-08)
(0.01099981418 -2.550487907e-08 1.406211123e-08)
(0.01099979372 -2.307162753e-08 1.160185712e-08)
(0.01099977671 -2.021106779e-08 1.158798202e-08)
(0.01099976719 -1.682378432e-08 8.156852272e-09)
(0.01099975727 -1.627651285e-08 8.801063796e-09)
(0.0109997551 -1.29975743e-08 9.877040998e-09)
(0.01099974849 -1.378394109e-08 7.433355302e-09)
(0.01099974813 -1.110609937e-08 6.31983277e-09)
(0.01100025188 -7.766756776e-09 -1.321666906e-08)
(0.01100017655 1.096647489e-08 -1.95735734e-09)
(0.01100016287 3.070774373e-09 4.861685844e-09)
(0.01100011857 1.389997891e-10 6.976177965e-09)
(0.01100007217 -4.05643661e-09 7.458462327e-09)
(0.01100002847 -5.872179371e-09 8.423837945e-09)
(0.01099998949 -6.626510633e-09 6.262494321e-09)
(0.01099995529 -6.213315506e-09 8.273009617e-09)
(0.01099992349 -4.887384967e-09 6.030116778e-09)
(0.0109998967 -7.45617637e-09 4.747768156e-09)
(0.01099987492 -4.630419005e-09 7.053155606e-09)
(0.0109998561 -3.933820611e-09 6.243463491e-09)
(0.01099984006 -5.555085944e-09 5.499191778e-09)
(0.01099982862 -4.550640473e-09 5.423966676e-09)
(0.01100022989 -1.326961575e-07 -2.662401258e-10)
(0.01100032489 3.063346567e-08 -7.328727325e-10)
(0.01100018447 5.691691769e-09 -1.771932076e-09)
(0.01100014719 1.049849045e-08 2.135581591e-10)
(0.01100008768 1.237533156e-08 -3.147522301e-09)
(0.0110000329 1.304224961e-08 -1.540503537e-09)
(0.01099998981 1.178131471e-08 -2.11731976e-09)
(0.01099994767 1.063712031e-08 -3.93983241e-09)
(0.01099991466 1.027769668e-08 -1.968843619e-09)
(0.01099988635 7.824023832e-09 -2.204259345e-09)
(0.01099986253 6.487512522e-09 6.175336047e-11)
(0.01099984546 7.913251547e-09 -6.196445458e-10)
(0.01099982569 5.31729727e-09 7.228720998e-10)
(0.01099981178 6.937928344e-09 -7.418067782e-10)
(0.01099980276 5.388299587e-09 -1.071887324e-09)
(0.01100029921 -6.397341583e-07 -1.284553286e-10)
(0.01100036849 1.065320242e-07 -1.168810814e-09)
(0.01099998294 5.86653647e-08 -1.206005359e-09)
(0.01099993035 7.281008999e-08 -2.270093402e-09)
(0.0109998521 6.545685651e-08 -2.48043935e-09)
(0.01099979754 5.168567709e-08 -5.655670452e-10)
(0.01099976527 4.327957926e-08 -1.363673545e-09)
(0.01099974063 3.512207433e-08 -2.7671362e-09)
(0.01099972918 2.733362804e-08 3.417130663e-10)
(0.01099972109 2.304612027e-08 -1.849095099e-09)
(0.01099971925 2.073647752e-08 -1.541933624e-09)
(0.01099971735 1.715715832e-08 -2.176878211e-09)
(0.01099971746 1.386839211e-08 -8.699934684e-10)
(0.01099971681 1.37221626e-08 1.043390517e-09)
(0.01099972058 1.048862641e-08 -1.024636279e-09)
(0.01100033658 -1.141234478e-06 -4.077916213e-10)
(0.01100035362 6.254095518e-07 -1.547934002e-09)
(0.01099925711 9.913131024e-08 -2.28272028e-09)
(0.01099924025 1.108774695e-07 -8.736422604e-10)
(0.0109992013 1.008854261e-07 -1.243825914e-09)
(0.01099922138 7.589406016e-08 -4.085128645e-10)
(0.01099927031 5.652869834e-08 -1.130393081e-09)
(0.01099932438 4.418579674e-08 2.982811086e-10)
(0.01099937723 3.578910156e-08 2.73090826e-10)
(0.01099942306 2.798004157e-08 6.668076321e-10)
(0.01099946729 2.322381595e-08 7.824855742e-10)
(0.0109995026 1.860713541e-08 -4.096135819e-10)
(0.01099953591 1.501764571e-08 -6.366161014e-10)
(0.01099956454 1.403198959e-08 4.462853712e-10)
(0.01099959169 1.006681329e-08 -1.528407865e-10)
(0.01099870766 -5.495709601e-06 5.060598477e-11)
(0.01099843346 3.818290701e-06 2.822499259e-10)
(0.01099663872 1.073022765e-06 -3.140152948e-10)
(0.0109977026 4.784211953e-07 -6.137915011e-10)
(0.01099805294 2.732614214e-07 -5.116307369e-10)
(0.01099835996 1.445324477e-07 5.680963618e-10)
(0.01099862403 7.985223108e-08 -1.506923002e-09)
(0.01099882737 4.761823307e-08 -8.270696781e-10)
(0.01099898283 3.313780084e-08 -1.231170833e-09)
(0.01099911117 2.234362428e-08 -3.622656888e-10)
(0.01099921273 1.728364945e-08 8.010839981e-10)
(0.01099929501 1.543099247e-08 -2.691430739e-11)
(0.01099936572 1.091903791e-08 2.193235632e-10)
(0.01099942296 1.083942448e-08 5.294415258e-11)
(0.01099947434 8.255920791e-09 -4.087467356e-10)
(0.01099706004 7.330205882e-10 -4.884465376e-10)
(0.01099001373 -7.721649277e-12 -1.086778005e-09)
(0.01099504059 -1.804587105e-11 1.20953469e-10)
(0.01099672197 2.208889804e-10 -1.073653987e-09)
(0.01099758632 4.902158266e-10 7.849361051e-10)
(0.01099815649 7.144745181e-10 -1.079175883e-09)
(0.01099852529 1.214714759e-09 -8.316706952e-10)
(0.01099877621 3.966619971e-10 -6.582641876e-10)
(0.01099895843 2.0888125e-09 1.154389991e-10)
(0.01099910064 8.95946283e-10 9.527858007e-10)
(0.01099920596 -6.505221999e-10 -1.504473117e-09)
(0.01099929381 1.978811764e-09 2.837723467e-10)
(0.01099936175 1.10421229e-09 9.297775161e-10)
(0.01099943007 5.024129252e-10 9.938382021e-11)
(0.01099842989 -3.818647523e-06 -8.875133407e-10)
(0.01099663672 -1.07418251e-06 -7.062670514e-10)
(0.01099770154 -4.797741703e-07 -6.110711145e-10)
(0.01099805441 -2.735467516e-07 -2.801849472e-10)
(0.01099835846 -1.458821322e-07 5.544930026e-10)
(0.01099862263 -8.227013243e-08 1.408505089e-10)
(0.01099882577 -4.908263579e-08 -6.899245392e-10)
(0.01099898407 -3.387589592e-08 1.305420798e-10)
(0.01099911192 -2.340267323e-08 1.674585292e-09)
(0.0109992127 -1.645057287e-08 1.880577541e-09)
(0.01099929514 -1.331768375e-08 2.367764182e-09)
(0.01099936831 -1.179059059e-08 6.632571377e-10)
(0.01099942271 -1.120095544e-08 1.663115932e-10)
(0.01099947613 -7.648092378e-09 -1.930513734e-09)
(0.01100035048 -6.280124429e-07 -1.187767609e-09)
(0.01099925344 -9.787778113e-08 2.021767438e-10)
(0.01099923906 -1.114802288e-07 3.729705218e-11)
(0.01099919919 -1.038816743e-07 3.48539388e-10)