/*--------------------------------*- C++ -*----------------------------------*\
| =========                 |                                                 |
| \\      /  F ield         | OpenFOAM: The Open Source CFD Toolbox           |
|  \\    /   O peration     | Version:  4.x                                   |
|   \\  /    A nd           | Web:      www.OpenFOAM.org                      |
|    \\/     M anipulation  |                                                 |
\*---------------------------------------------------------------------------*/
FoamFile
{
    version     2.0;
    format      ascii;
    class       volScalarField;
    location    "10000";
    object      X_CO2;
}
// * * * * * * * * * * * * * * * * * * * * * * * * * * * * * * * * * * * * * //

dimensions      [0 0 0 0 0 0 0];

internalField   nonuniform List<scalar> 
1174
(
0.04000812348
0.04000870906
0.04000952713
0.04001058355
0.04001186309
0.04001333423
0.04001495532
0.04001668061
0.04001846493
0.04002026668
0.04002204814
0.04002376977
0.04002536167
0.04002660193
0.0400086622
0.04000958415
0.04001079921
0.04001227456
0.04001395587
0.04001577991
0.04001768423
0.04001961327
0.04002152123
0.04002337248
0.04002513949
0.04002679589
0.04002828982
0.04002943395
0.04000983918
0.04001143988
0.04001339974
0.04001560342
0.04001793032
0.04002027506
0.04002255649
0.04002471863
0.04002672754
0.0400285663
0.04003022927
0.04003171381
0.04003299798
0.04003395245
0.04001153956
0.04001399241
0.04001677923
0.04001969307
0.04002256619
0.04002528172
0.04002776969
0.04002999693
0.04003195632
0.0400336574
0.04003511875
0.04003636023
0.04003738663
0.04003812364
0.04001273408
0.04001564605
0.04001879235
0.04002195023
0.04002496275
0.04002773313
0.0400302119
0.04003238348
0.04003425466
0.04003584573
0.0400371836
0.04003829526
0.04003919451
0.04003982888
0.04001153955
0.04001399239
0.0400167792
0.04001969304
0.04002256615
0.04002528168
0.04002776964
0.04002999688
0.04003195627
0.04003365735
0.0400351187
0.04003636018
0.04003738657
0.04003812359
0.04000983915
0.04001143984
0.04001339969
0.04001560336
0.04001793025
0.04002027499
0.04002255641
0.04002471855
0.04002672745
0.0400285662
0.04003022918
0.04003171371
0.04003299788
0.04003395235
0.04000866217
0.04000958411
0.04001079916
0.04001227449
0.04001395579
0.04001577982
0.04001768412
0.04001961315
0.04002152111
0.04002337234
0.04002513935
0.04002679574
0.04002828967
0.04002943379
0.04000812345
0.04000870903
0.04000952709
0.0400105835
0.04001186303
0.04001333415
0.04001495523
0.0400166805
0.04001846482
0.04002026655
0.04002204801
0.04002376962
0.04002536152
0.04002660178
0.04000803264
0.0400086622
0.04000958415
0.04001079921
0.04001227456
0.04001395587
0.04001577991
0.04001768423
0.04001961327
0.04002152123
0.04002337248
0.04002513949
0.04002679589
0.04002828982
0.04002943394
0.04000985701
0.04001144298
0.04001335713
0.0400154807
0.0400176981
0.04001991454
0.04002206138
0.04002409432
0.04002598847
0.04002773281
0.04002932454
0.04003076111
0.0400320182
0.04003296139
0.0400128254
0.04001584537
0.0400190913
0.04002228862
0.04002525596
0.04002789992
0.04003019196
0.04003214388
0.04003378852
0.04003516668
0.04003631907
0.04003728015
0.0400380664
0.04003862853
0.04001801972
0.04002295858
0.04002759781
0.04003160246
0.04003486925
0.04003743036
0.04003938012
0.04004083036
0.04004188752
0.04004264321
0.04004317195
0.04004353229
0.04004376843
0.04004390596
0.04002283537
0.04002871681
0.04003364017
0.04003749913
0.04004039239
0.04004248633
0.04004395146
0.04004493749
0.04004556679
0.04004593549
0.04004611749
0.04004616974
0.04004613943
0.04004607851
0.04001801965
0.04002295849
0.04002759771
0.04003160236
0.04003486914
0.04003743026
0.04003938002
0.04004083026
0.04004188743
0.04004264312
0.04004317187
0.04004353222
0.04004376835
0.04004390589
0.04001282531
0.04001584525
0.04001909117
0.04002228848
0.04002525581
0.04002789976
0.0400301918
0.04003214373
0.04003378837
0.04003516654
0.04003631893
0.04003728001
0.04003806626
0.0400386284
0.04000985695
0.04001144291
0.04001335704
0.04001548059
0.04001769798
0.04001991441
0.04002206125
0.04002409418
0.04002598832
0.04002773265
0.04002932438
0.04003076095
0.04003201803
0.04003296123
0.04000866218
0.04000958411
0.04001079916
0.04001227449
0.04001395579
0.04001577982
0.04001768412
0.04001961315
0.0400215211
0.04002337233
0.04002513935
0.04002679573
0.04002828966
0.04002943378
0.04000867504
0.04000983918
0.04001143988
0.04001339974
0.04001560342
0.04001793032
0.04002027507
0.04002255649
0.04002471864
0.04002672755
0.0400285663
0.04003022927
0.04003171381
0.04003299798
0.04003395245
0.04001035742
0.04001282542
0.04001584538
0.04001909131
0.04002228864
0.04002525597
0.04002789993
0.04003019197
0.04003214389
0.04003378853
0.04003516669
0.04003631908
0.04003728016
0.0400380664
0.04003862853
0.04002145687
0.04002768549
0.04003324495
0.04003773562
0.04004109991
0.04004346299
0.04004501846
0.04004596352
0.04004646942
0.04004667264
0.04004667641
0.04004655719
0.04004637591
0.04004620385
0.04004034908
0.04005063984
0.04005758103
0.04006154734
0.04006328732
0.04006352619
0.04006283496
0.04006161917
0.04006014867
0.04005859451
0.04005706112
0.04005561422
0.04005431732
0.04005333329
0.04006466731
0.04007466552
0.04007873621
0.04007920542
0.04007769801
0.04007521878
0.04007235287
0.04006942674
0.04006661397
0.04006400003
0.04006162178
0.04005949572
0.04005765795
0.04005629377
0.04004034867
0.04005063942
0.04005758065
0.040061547
0.04006328704
0.04006352595
0.04006283476
0.040061619
0.04006014853
0.04005859438
0.04005706101
0.04005561413
0.04005431724
0.04005333321
0.04002145651
0.04002768512
0.04003324457
0.04003773526
0.04004109956
0.04004346267
0.04004501818
0.04004596327
0.04004646919
0.04004667243
0.04004667622
0.04004655701
0.04004637574
0.04004620369
0.0400128253
0.04001584523
0.04001909114
0.04002228845
0.04002525577
0.04002789972
0.04003019175
0.04003214368
0.04003378831
0.04003516648
0.04003631887
0.04003727996
0.04003806621
0.04003862834
0.04000983914
0.04001143983
0.04001339967
0.04001560333
0.04001793021
0.04002027494
0.04002255635
0.04002471849
0.04002672739
0.04002856613
0.0400302291
0.04003171363
0.0400329978
0.04003395226
0.04000962607
0.04001153957
0.04001399242
0.04001677924
0.04001969308
0.0400225662
0.04002528173
0.0400277697
0.04002999694
0.04003195633
0.04003365741
0.04003511876
0.04003636024
0.04003738663
0.04003812364
0.04001341881
0.04001801979
0.04002295863
0.04002759787
0.04003160252
0.0400348693
0.04003743041
0.04003938016
0.04004083039
0.04004188754
0.04004264323
0.04004317196
0.0400435323
0.04004376843
0.04004390596
0.04002756255
0.04004034919
0.04005063991
0.04005758108
0.04006154737
0.04006328734
0.04006352618
0.04006283494
0.04006161914
0.04006014865
0.04005859448
0.04005706109
0.04005561419
0.0400543173
0.04005333327
0.04010420756
0.04011654353
0.04011802253
0.0401137762
0.04010708288
0.04009974973
0.0400926671
0.04008621467
0.04008050895
0.04007554154
0.04007125335
0.04006757959
0.04006450815
0.04006227915
0.04022745379
0.04020988136
0.04018418839
0.04015995626
0.04013956898
0.04012305352
0.04010980108
0.04009914037
0.04009050027
0.04008343437
0.04007760664
0.04007277832
0.04006883754
0.04006602096
0.04010420624
0.04011654259
0.04011802189
0.04011377577
0.04010708259
0.04009974954
0.04009266698
0.04008621459
0.0400805089
0.0400755415
0.04007125331
0.04006757955
0.04006450812
0.04006227911
0.04004034871
0.0400506394
0.04005758059
0.04006154692
0.04006328694
0.04006352584
0.04006283465
0.04006161889
0.04006014843
0.04005859428
0.04005706092
0.04005561403
0.04005431715
0.04005333312
0.0400180196
0.0400229584
0.04002759759
0.04003160222
0.04003486899
0.0400374301
0.04003937987
0.04004083011
0.04004188727
0.04004264297
0.04004317172
0.04004353207
0.04004376821
0.04004390575
0.04001153952
0.04001399234
0.04001677913
0.04001969294
0.04002256604
0.04002528155
0.0400277695
0.04002999673
0.04003195611
0.04003365719
0.04003511854
0.04003636002
0.04003738641
0.04003812343
0.04001032767
0.04001273407
0.04001564603
0.04001879233
0.04002195021
0.04002496273
0.04002773311
0.04003021189
0.04003238347
0.04003425465
0.04003584572
0.04003718359
0.04003829526
0.0400391945
0.04003982887
0.04001655713
0.04002283536
0.04002871675
0.04003364013
0.04003749909
0.04004039235
0.04004248631
0.04004395143
0.04004493747
0.04004556678
0.04004593547
0.04004611747
0.04004616972
0.04004613941
0.0400460785
0.04004644255
0.04006466733
0.04007466539
0.04007873609
0.04007920533
0.04007769795
0.04007521873
0.04007235282
0.0400694267
0.04006661393
0.040064
0.04006162175
0.04005949569
0.04005765793
0.04005629374
0.04020693994
0.04022745346
0.0402098811
0.04018418822
0.04015995615
0.0401395689
0.04012305346
0.04010980103
0.04009914033
0.04009050023
0.04008343434
0.04007760661
0.04007277829
0.04006883752
0.04006602094
0.04075182738
0.04048030047
0.04033130113
0.04024467058
0.04019127054
0.04015644548
0.04013252957
0.04011534535
0.04010251859
0.04009264209
0.04008484939
0.0400786005
0.04007361874
0.04007011041
0.04022745365
0.0402098805
0.04018418772
0.0401599558
0.04013956866
0.04012305328
0.0401098009
0.04009914022
0.04009050014
0.04008343426
0.04007760654
0.04007277822
0.04006883746
0.04006602088
0.04006466711
0.04007466509
0.04007873578
0.04007920504
0.04007769768
0.04007521849
0.04007235261
0.04006942651
0.04006661376
0.04006399984
0.04006162161
0.04005949556
0.0400576578
0.04005629362
0.04002283522
0.04002871657
0.0400336399
0.04003749884
0.04004039209
0.04004248605
0.04004395118
0.04004493723
0.04004556654
0.04004593524
0.04004611725
0.04004616951
0.04004613921
0.0400460783
0.04001273402
0.04001564595
0.04001879221
0.04002195007
0.04002496256
0.04002773292
0.04003021168
0.04003238325
0.04003425443
0.04003584549
0.04003718336
0.04003829503
0.04003919428
0.04003982865
0.04000962605
0.04001153955
0.04001399238
0.0400167792
0.04001969303
0.04002256615
0.04002528168
0.04002776964
0.04002999688
0.04003195627
0.04003365735
0.04003511869
0.04003636017
0.04003738657
0.04003812358
0.04001341871
0.04001801964
0.04002295845
0.04002759767
0.04003160232
0.04003486911
0.04003743023
0.04003938
0.04004083024
0.04004188741
0.0400426431
0.04004317185
0.0400435322
0.04004376833
0.04004390587
0.04002756214
0.04004034874
0.04005063942
0.04005758064
0.04006154699
0.04006328702
0.04006352592
0.04006283473
0.04006161896
0.04006014849
0.04005859434
0.04005706097
0.04005561409
0.0400543172
0.04005333317
0.04007529036
0.04010420619
0.04011654243
0.04011802173
0.04011377562
0.04010708245
0.04009974941
0.04009266686
0.04008621448
0.0400805088
0.04007554141
0.04007125324
0.04006757948
0.04006450806
0.04006227906
0.04020694
0.04022745329
0.04020988015
0.04018418741
0.04015995552
0.04013956841
0.04012305307
0.04010980072
0.04009914006
0.04009050001
0.04008343414
0.04007760644
0.04007277814
0.04006883739
0.04006602082
0.04007529066
0.04010420622
0.04011654235
0.0401180216
0.04011377547
0.04010708229
0.04009974925
0.04009266671
0.04008621434
0.04008050866
0.04007554128
0.04007125311
0.04006757937
0.04006450795
0.04006227896
0.04004034908
0.04005063955
0.04005758066
0.04006154693
0.04006328692
0.0400635258
0.0400628346
0.04006161883
0.04006014836
0.04005859421
0.04005706084
0.04005561396
0.04005431707
0.04005333305
0.04001801968
0.04002295846
0.04002759763
0.04003160224
0.040034869
0.04003743009
0.04003937985
0.04004083008
0.04004188724
0.04004264293
0.04004317168
0.04004353203
0.04004376817
0.0400439057
0.04001153954
0.04001399236
0.04001677915
0.04001969296
0.04002256604
0.04002528155
0.04002776949
0.04002999672
0.0400319561
0.04003365717
0.04003511851
0.04003635999
0.04003738638
0.04003812339
0.04000867502
0.04000983915
0.04001143983
0.04001339968
0.04001560335
0.04001793024
0.04002027498
0.04002255639
0.04002471853
0.04002672744
0.04002856619
0.04003022916
0.04003171369
0.04003299786
0.04003395233
0.04001035734
0.0400128253
0.04001584524
0.04001909115
0.04002228846
0.04002525579
0.04002789975
0.04003019179
0.04003214372
0.04003378835
0.04003516652
0.04003631891
0.04003728
0.04003806625
0.04003862838
0.04001543424
0.04002145651
0.0400276851
0.04003324455
0.04003773524
0.04004109955
0.04004346266
0.04004501816
0.04004596324
0.04004646917
0.04004667241
0.04004667619
0.04004655699
0.04004637572
0.04004620367
0.04002756209
0.04004034863
0.04005063929
0.04005758049
0.04006154684
0.04006328687
0.04006352579
0.0400628346
0.04006161885
0.04006014839
0.04005859425
0.04005706088
0.04005561401
0.04005431712
0.0400533331
0.04004644264
0.04006466718
0.04007466511
0.04007873576
0.04007920499
0.04007769761
0.04007521841
0.04007235253
0.04006942643
0.04006661368
0.04006399977
0.04006162154
0.0400594955
0.04005765774
0.04005629357
0.04002756218
0.04004034873
0.04005063938
0.04005758056
0.04006154688
0.04006328689
0.04006352578
0.04006283457
0.04006161881
0.04006014833
0.04005859419
0.04005706082
0.04005561394
0.04005431706
0.04005333303
0.04001543438
0.04002145667
0.04002768524
0.04003324466
0.04003773531
0.04004109959
0.04004346266
0.04004501815
0.04004596321
0.04004646911
0.04004667234
0.04004667612
0.04004655691
0.04004637563
0.04004620358
0.0400128254
0.04001584531
0.0400190912
0.04002228848
0.04002525579
0.04002789972
0.04003019175
0.04003214366
0.04003378828
0.04003516643
0.04003631882
0.04003727989
0.04003806614
0.04003862826
0.04000983917
0.04001143986
0.04001339969
0.04001560335
0.04001793022
0.04002027494
0.04002255634
0.04002471847
0.04002672736
0.0400285661
0.04003022906
0.04003171358
0.04003299774
0.0400339522
0.04000803263
0.04000866217
0.0400095841
0.04001079915
0.04001227448
0.04001395578
0.04001577981
0.04001768411
0.04001961314
0.04002152109
0.04002337233
0.04002513934
0.04002679573
0.04002828966
0.04002943378
0.04000868834
0.04000985695
0.0400114429
0.04001335703
0.04001548059
0.04001769797
0.0400199144
0.04002206124
0.04002409417
0.04002598831
0.04002773264
0.04002932437
0.04003076094
0.04003201802
0.04003296122
0.04001035734
0.0400128253
0.04001584523
0.04001909114
0.04002228844
0.04002525577
0.04002789972
0.04003019176
0.04003214368
0.04003378831
0.04003516648
0.04003631887
0.04003727995
0.0400380662
0.04003862833
0.0400134187
0.0400180196
0.04002295839
0.04002759758
0.04003160222
0.04003486899
0.0400374301
0.04003937987
0.0400408301
0.04004188727
0.04004264297
0.04004317172
0.04004353207
0.0400437682
0.04004390574
0.04001655711
0.04002283528
0.04002871663
0.04003363996
0.0400374989
0.04004039214
0.04004248609
0.04004395121
0.04004493725
0.04004556656
0.04004593525
0.04004611726
0.04004616951
0.04004613921
0.0400460783
0.04001341872
0.04001801963
0.04002295843
0.04002759762
0.04003160225
0.04003486902
0.04003743012
0.04003937987
0.0400408301
0.04004188726
0.04004264295
0.04004317169
0.04004353204
0.04004376817
0.0400439057
0.04001035736
0.04001282533
0.04001584526
0.04001909116
0.04002228846
0.04002525577
0.04002789971
0.04003019173
0.04003214365
0.04003378827
0.04003516643
0.04003631881
0.04003727989
0.04003806613
0.04003862826
0.04000868836
0.04000985698
0.04001144293
0.04001335706
0.0400154806
0.04001769798
0.0400199144
0.04002206122
0.04002409414
0.04002598827
0.04002773259
0.04002932431
0.04003076087
0.04003201795
0.04003296113
0.0400086622
0.04000958413
0.04001079918
0.0400122745
0.0400139558
0.04001577982
0.04001768411
0.04001961313
0.04002152107
0.0400233723
0.0400251393
0.04002679567
0.04002828959
0.04002943371
0.04000774247
0.04000812345
0.04000870902
0.04000952709
0.04001058349
0.04001186302
0.04001333414
0.04001495522
0.0400166805
0.04001846481
0.04002026654
0.040022048
0.04002376961
0.04002536151
0.04002660176
0.04000803263
0.04000866217
0.04000958411
0.04001079916
0.04001227448
0.04001395579
0.04001577981
0.04001768411
0.04001961314
0.04002152109
0.04002337233
0.04002513933
0.04002679572
0.04002828965
0.04002943377
0.04000867502
0.04000983915
0.04001143983
0.04001339967
0.04001560333
0.04001793021
0.04002027494
0.04002255635
0.04002471849
0.04002672739
0.04002856613
0.0400302291
0.04003171363
0.0400329978
0.04003395226
0.04000962605
0.04001153953
0.04001399235
0.04001677914
0.04001969296
0.04002256605
0.04002528157
0.04002776952
0.04002999675
0.04003195613
0.04003365721
0.04003511855
0.04003636003
0.04003738642
0.04003812343
0.04001032766
0.04001273404
0.04001564598
0.04001879224
0.0400219501
0.04002496259
0.04002773296
0.04003021172
0.04003238328
0.04003425446
0.04003584552
0.04003718338
0.04003829505
0.04003919429
0.04003982866
0.04000962605
0.04001153953
0.04001399235
0.04001677914
0.04001969296
0.04002256605
0.04002528156
0.04002776951
0.04002999673
0.04003195611
0.04003365718
0.04003511852
0.04003636
0.04003738638
0.0400381234
0.04000867502
0.04000983914
0.04001143982
0.04001339965
0.04001560331
0.04001793018
0.0400202749
0.04002255631
0.04002471843
0.04002672733
0.04002856607
0.04003022903
0.04003171355
0.04003299772
0.04003395218
0.04000803263
0.04000866218
0.04000958411
0.04001079916
0.04001227448
0.04001395578
0.04001577979
0.04001768409
0.04001961311
0.04002152105
0.04002337227
0.04002513928
0.04002679565
0.04002828957
0.04002943369
0.04000774248
0.04000812346
0.04000870904
0.0400095271
0.04001058351
0.04001186303
0.04001333415
0.04001495522
0.04001668049
0.0400184648
0.04002026652
0.04002204797
0.04002376957
0.04002536146
0.04002660171
)
;

boundaryField
{
    top
    {
        type            calculated;
        value           nonuniform List<scalar> 
127
(
0.04000774248
0.04000812345
0.04000866218
0.04000983914
0.04001153952
0.04001273402
0.04001153954
0.04000983917
0.0400086622
0.04000812346
0.04000870903
0.04000958411
0.04001143983
0.04001399234
0.04001564595
0.04001399236
0.04001143986
0.04000958413
0.04000870904
0.04000952709
0.04001079916
0.04001339967
0.04001677913
0.04001879221
0.04001677915
0.04001339969
0.04001079918
0.0400095271
0.0400105835
0.04001227449
0.04001560333
0.04001969294
0.04002195007
0.04001969296
0.04001560335
0.0400122745
0.04001058351
0.04001186303
0.04001395579
0.04001793021
0.04002256604
0.04002496256
0.04002256604
0.04001793022
0.0400139558
0.04001186303
0.04001333415
0.04001577982
0.04002027494
0.04002528155
0.04002773292
0.04002528155
0.04002027494
0.04001577982
0.04001333415
0.04001495523
0.04001768412
0.04002255635
0.0400277695
0.04003021168
0.04002776949
0.04002255634
0.04001768411
0.04001495522
0.0400166805
0.04001961315
0.04002471849
0.04002999673
0.04003238325
0.04002999672
0.04002471847
0.04001961313
0.04001668049
0.04001846482
0.0400215211
0.04002672739
0.04003195611
0.04003425443
0.0400319561
0.04002672736
0.04002152107
0.0400184648
0.04002026655
0.04002337233
0.04002856613
0.04003365719
0.04003584549
0.04003365717
0.0400285661
0.0400233723
0.04002026652
0.04002204801
0.04002513935
0.0400302291
0.04003511854
0.04003718336
0.04003511851
0.04003022906
0.0400251393
0.04002204797
0.04002376962
0.04002679573
0.04003171363
0.04003636002
0.04003829503
0.04003635999
0.04003171358
0.04002679567
0.04002376957
0.04002536152
0.04002828966
0.0400329978
0.04003738641
0.04003919428
0.04003738638
0.04003299774
0.04002828959
0.04002536146
0.04002660178
0.04002943378
0.04003395226
0.04003812343
0.04003982865
0.04003812339
0.0400339522
0.04002943371
0.04002660171
)
;
    }
    bottom
    {
        type            calculated;
        value           nonuniform List<scalar> 
134
(
0.04000803264
0.04000867504
0.04000962607
0.04001032767
0.04000962605
0.04000867502
0.04000803263
0.04000774247
0.04000812348
0.0400086622
0.04000983918
0.04001153957
0.04001273407
0.04001153955
0.04000983915
0.04000866217
0.04000812345
0.04000870906
0.04000958415
0.04001143988
0.04001399242
0.04001564603
0.04001399238
0.04001143983
0.0400095841
0.04000870902
0.04000952713
0.04001079921
0.04001339974
0.04001677924
0.04001879233
0.0400167792
0.04001339968
0.04001079915
0.04000952709
0.04001058355
0.04001227456
0.04001560342
0.04001969308
0.04002195021
0.04001969303
0.04001560335
0.04001227448
0.04001058349
0.04001186309
0.04001395587
0.04001793032
0.0400225662
0.04002496273
0.04002256615
0.04001793024
0.04001395578
0.04001186302
0.04001333423
0.04001577991
0.04002027507
0.04002528173
0.04002773311
0.04002528168
0.04002027498
0.04001577981
0.04001333414
0.04001495532
0.04001768423
0.04002255649
0.0400277697
0.04003021189
0.04002776964
0.04002255639
0.04001768411
0.04001495522
0.04001668061
0.04001961327
0.04002471864
0.04002999694
0.04003238347
0.04002999688
0.04002471853
0.04001961314
0.0400166805
0.04001846493
0.04002152123
0.04002672755
0.04003195633
0.04003425465
0.04003195627
0.04002672744
0.04002152109
0.04001846481
0.04002026668
0.04002337248
0.0400285663
0.04003365741
0.04003584572
0.04003365735
0.04002856619
0.04002337233
0.04002026654
0.04002204814
0.04002513949
0.04003022927
0.04003511876
0.04003718359
0.04003511869
0.04003022916
0.04002513934
0.040022048
0.04002376977
0.04002679589
0.04003171381
0.04003636024
0.04003829526
0.04003636017
0.04003171369
0.04002679573
0.04002376961
0.04002536167
0.04002828982
0.04003299798
0.04003738663
0.0400391945
0.04003738657
0.04003299786
0.04002828966
0.04002536151
0.04002660193
0.04002943394
0.04003395245
0.04003812364
0.04003982887
0.04003812358
0.04003395233
0.04002943378
0.04002660176
)
;
    }
    side-walls
    {
        type            calculated;
        value           nonuniform List<scalar> 
261
(
0.04000812348
0.0400086622
0.04000983918
0.04001153956
0.04001273408
0.04001153955
0.04000983915
0.04000866217
0.04000812345
0.04000870906
0.04000958415
0.04001143988
0.04001399241
0.04001564605
0.04001399239
0.04001143984
0.04000958411
0.04000870903
0.04000952713
0.04001079921
0.04001339974
0.04001677923
0.04001879235
0.0400167792
0.04001339969
0.04001079916
0.04000952709
0.04001058355
0.04001227456
0.04001560342
0.04001969307
0.04002195023
0.04001969304
0.04001560336
0.04001227449
0.0400105835
0.04001186309
0.04001395587
0.04001793032
0.04002256619
0.04002496275
0.04002256615
0.04001793025
0.04001395579
0.04001186303
0.04001333423
0.04001577991
0.04002027506
0.04002528172
0.04002773313
0.04002528168
0.04002027499
0.04001577982
0.04001333415
0.04001495532
0.04001768423
0.04002255649
0.04002776969
0.0400302119
0.04002776964
0.04002255641
0.04001768412
0.04001495523
0.04001668061
0.04001961327
0.04002471863
0.04002999693
0.04003238348
0.04002999688
0.04002471855
0.04001961315
0.0400166805
0.04001846493
0.04002152123
0.04002672754
0.04003195632
0.04003425466
0.04003195627
0.04002672745
0.04002152111
0.04001846482
0.04002026668
0.04002337248
0.0400285663
0.0400336574
0.04003584573
0.04003365735
0.0400285662
0.04002337234
0.04002026655
0.04002204814
0.04002513949
0.04003022927
0.04003511875
0.0400371836
0.0400351187
0.04003022918
0.04002513935
0.04002204801
0.04002376977
0.04002679589
0.04003171381
0.04003636023
0.04003829526
0.04003636018
0.04003171371
0.04002679574
0.04002376962
0.04002536167
0.04002828982
0.04003299798
0.04003738663
0.04003919451
0.04003738657
0.04003299788
0.04002828967
0.04002536152
0.04002660193
0.04002943395
0.04003395245
0.04003812364
0.04003982888
0.04003812359
0.04003395235
0.04002943379
0.04002660178
0.04000774247
0.04000803263
0.04000867502
0.04000962605
0.04001032766
0.04000962605
0.04000867502
0.04000803263
0.04000774248
0.04000812345
0.04000866217
0.04000983915
0.04001153953
0.04001273404
0.04001153953
0.04000983914
0.04000866218
0.04000812346
0.04000870902
0.04000958411
0.04001143983
0.04001399235
0.04001564598
0.04001399235
0.04001143982
0.04000958411
0.04000870904
0.04000952709
0.04001079916
0.04001339967
0.04001677914
0.04001879224
0.04001677914
0.04001339965
0.04001079916
0.0400095271
0.04001058349
0.04001227448
0.04001560333
0.04001969296
0.0400219501
0.04001969296
0.04001560331
0.04001227448
0.04001058351
0.04001186302
0.04001395579
0.04001793021
0.04002256605
0.04002496259
0.04002256605
0.04001793018
0.04001395578
0.04001186303
0.04001333414
0.04001577981
0.04002027494
0.04002528157
0.04002773296
0.04002528156
0.0400202749
0.04001577979
0.04001333415
0.04001495522
0.04001768411
0.04002255635
0.04002776952
0.04003021172
0.04002776951
0.04002255631
0.04001768409
0.04001495522
0.0400166805
0.04001961314
0.04002471849
0.04002999675
0.04003238328
0.04002999673
0.04002471843
0.04001961311
0.04001668049
0.04001846481
0.04002152109
0.04002672739
0.04003195613
0.04003425446
0.04003195611
0.04002672733
0.04002152105
0.0400184648
0.04002026654
0.04002337233
0.04002856613
0.04003365721
0.04003584552
0.04003365718
0.04002856607
0.04002337227
0.04002026652
0.040022048
0.04002513933
0.0400302291
0.04003511855
0.04003718338
0.04003511852
0.04003022903
0.04002513928
0.04002204797
0.04002376961
0.04002679572
0.04003171363
0.04003636003
0.04003829505
0.04003636
0.04003171355
0.04002679565
0.04002376957
0.04002536151
0.04002828965
0.0400329978
0.04003738642
0.04003919429
0.04003738638
0.04003299772
0.04002828957
0.04002536146
0.04002660176
0.04002943377
0.04003395226
0.04003812343
0.04003982866
0.0400381234
0.04003395218
0.04002943369
0.04002660171
)
;
    }
    inlet
    {
        type            calculated;
        value           nonuniform 0();
    }
    outlet
    {
        type            calculated;
        value           nonuniform List<scalar> 
81
(
0.04002660193
0.04002943395
0.04003395245
0.04003812364
0.04003982888
0.04003812359
0.04003395235
0.04002943379
0.04002660178
0.04002943394
0.04003296139
0.04003862853
0.04004390596
0.04004607851
0.04004390589
0.0400386284
0.04003296123
0.04002943378
0.04003395245
0.04003862853
0.04004620385
0.04005333329
0.04005629377
0.04005333321
0.04004620369
0.04003862834
0.04003395226
0.04003812364
0.04004390596
0.04005333327
0.04006227915
0.04006602096
0.04006227911
0.04005333312
0.04004390575
0.04003812343
0.04003982887
0.0400460785
0.04005629374
0.04006602094
0.04007011041
0.04006602088
0.04005629362
0.0400460783
0.04003982865
0.04003812358
0.04004390587
0.04005333317
0.04006227906
0.04006602082
0.04006227896
0.04005333305
0.0400439057
0.04003812339
0.04003395233
0.04003862838
0.04004620367
0.0400533331
0.04005629357
0.04005333303
0.04004620358
0.04003862826
0.0400339522
0.04002943378
0.04003296122
0.04003862833
0.04004390574
0.0400460783
0.0400439057
0.04003862826
0.04003296113
0.04002943371
0.04002660176
0.04002943377
0.04003395226
0.04003812343
0.04003982866
0.0400381234
0.04003395218
0.04002943369
0.04002660171
)
;
    }
    procBoundary1to0
    {
        type            processor;
        value           nonuniform List<scalar> 
97
(
0.04000774248
0.04000774248
0.04000803263
0.04000867502
0.04000962603
0.04001032764
0.04000962602
0.040008675
0.04000803262
0.04000774246
0.04000765576
0.04000868837
0.04000868837
0.04000868837
0.04001035737
0.0400134187
0.04001655705
0.04001341864
0.0400103573
0.04000868832
0.04000803262
0.04000795051
0.04000869834
0.04001543443
0.04001543443
0.04001543443
0.0400275622
0.04004644234
0.04002756185
0.04001543413
0.0400103573
0.040008675
0.04000837634
0.04000999916
0.04001559065
0.04007529156
0.04007529156
0.04007529156
0.04020693954
0.04007528983
0.0400275619
0.04001341862
0.04000962601
0.04000867552
0.04001120529
0.04002168062
0.04006242208
0.04127583651
0.04127583651
0.04127583651
0.04020693954
0.04020693954
0.04004644222
0.04001655696
0.04001032761
0.04000837634
0.04000999912
0.04001559055
0.0400315777
0.04006242216
0.04003157779
0.04002756235
0.04002756235
0.04002756235
0.0400134187
0.04000962603
0.0400079505
0.04000869832
0.04001085977
0.04001559053
0.04002168069
0.04001559058
0.04001085981
0.04001035739
0.04001035739
0.04001035739
0.04000867502
0.04000765575
0.04000795496
0.04000869832
0.04000999912
0.04001120529
0.04000999913
0.04000869833
0.04000795497
0.04000803264
0.04000803264
0.04000803264
0.04000752084
0.04000765575
0.0400079505
0.04000837634
0.04000867551
0.04000837634
0.0400079505
0.04000765575
0.04000752084
)
;
    }
}


// ************************************************************************* //
