/*--------------------------------*- C++ -*----------------------------------*\
| =========                 |                                                 |
| \\      /  F ield         | OpenFOAM: The Open Source CFD Toolbox           |
|  \\    /   O peration     | Version:  4.x                                   |
|   \\  /    A nd           | Web:      www.OpenFOAM.org                      |
|    \\/     M anipulation  |                                                 |
\*---------------------------------------------------------------------------*/
FoamFile
{
    version     2.0;
    format      ascii;
    class       volScalarField;
    location    "10000";
    object      X_CO;
}
// * * * * * * * * * * * * * * * * * * * * * * * * * * * * * * * * * * * * * //

dimensions      [0 0 0 0 0 0 0];

internalField   nonuniform List<scalar> 
1174
(
0.3000571245
0.3000565388
0.3000557206
0.3000546641
0.3000533844
0.300051913
0.3000502917
0.3000485661
0.3000467814
0.3000449793
0.3000431975
0.3000414754
0.3000398831
0.3000386425
0.3000565857
0.3000556636
0.3000544484
0.3000529729
0.3000512914
0.3000494671
0.3000475625
0.3000456331
0.3000437248
0.3000418731
0.3000401057
0.3000384489
0.3000369545
0.3000358101
0.3000554086
0.3000538078
0.3000518477
0.3000496438
0.3000473166
0.3000449716
0.3000426898
0.3000405272
0.3000385179
0.3000366787
0.3000350153
0.3000335304
0.3000322458
0.300031291
0.3000537081
0.3000512551
0.300048468
0.3000455539
0.3000426804
0.3000399645
0.3000374762
0.3000352485
0.3000332887
0.3000315871
0.3000301253
0.3000288834
0.3000278566
0.3000271192
0.3000525136
0.3000496014
0.3000464548
0.3000432966
0.3000402838
0.300037513
0.3000350338
0.3000328618
0.3000309902
0.3000293986
0.3000280603
0.3000269482
0.3000260485
0.3000254138
0.3000537081
0.3000512551
0.3000484681
0.3000455539
0.3000426805
0.3000399646
0.3000374763
0.3000352486
0.3000332888
0.3000315873
0.3000301255
0.3000288836
0.3000278568
0.3000271194
0.3000554086
0.3000538078
0.3000518478
0.3000496439
0.3000473167
0.3000449717
0.3000426899
0.3000405274
0.3000385181
0.300036679
0.3000350156
0.3000335306
0.3000322461
0.3000312913
0.3000565857
0.3000556637
0.3000544485
0.300052973
0.3000512915
0.3000494672
0.3000475627
0.3000456333
0.300043725
0.3000418734
0.300040106
0.3000384492
0.3000369549
0.3000358105
0.3000571245
0.3000565389
0.3000557207
0.3000546642
0.3000533845
0.3000519131
0.3000502918
0.3000485663
0.3000467817
0.3000449796
0.3000431978
0.3000414758
0.3000398835
0.300038643
0.3000572153
0.3000565857
0.3000556636
0.3000544485
0.3000529729
0.3000512914
0.3000494671
0.3000475625
0.3000456331
0.3000437248
0.3000418732
0.3000401057
0.3000384489
0.3000369546
0.3000358101
0.3000553908
0.3000538047
0.3000518903
0.3000497665
0.3000475489
0.3000453321
0.3000431849
0.3000411516
0.3000392571
0.3000375123
0.3000359201
0.3000344831
0.3000332256
0.3000322821
0.3000524222
0.300049402
0.3000461558
0.3000429582
0.3000399905
0.3000373462
0.3000350537
0.3000331014
0.3000314563
0.3000300777
0.3000289249
0.3000279633
0.3000271767
0.3000266142
0.3000472276
0.3000422885
0.300037649
0.3000336439
0.3000303767
0.3000278152
0.3000258649
0.3000244143
0.3000233566
0.3000226005
0.3000220713
0.3000217105
0.300021474
0.3000213362
0.300042412
0.3000365302
0.3000316065
0.3000277471
0.3000248534
0.300022759
0.3000212934
0.3000203069
0.3000196772
0.300019308
0.3000191256
0.3000190729
0.3000191028
0.3000191635
0.3000472277
0.3000422887
0.3000376491
0.3000336441
0.3000303769
0.3000278154
0.3000258652
0.3000244145
0.3000233569
0.3000226007
0.3000220716
0.3000217108
0.3000214743
0.3000213364
0.3000524223
0.3000494022
0.300046156
0.3000429584
0.3000399907
0.3000373464
0.300035054
0.3000331017
0.3000314566
0.300030078
0.3000289252
0.3000279637
0.3000271771
0.3000266147
0.3000553908
0.3000538048
0.3000518904
0.3000497667
0.300047549
0.3000453323
0.3000431852
0.3000411519
0.3000392574
0.3000375127
0.3000359206
0.3000344836
0.3000332261
0.3000322826
0.3000565857
0.3000556637
0.3000544485
0.300052973
0.3000512915
0.3000494673
0.3000475627
0.3000456334
0.3000437251
0.3000418735
0.3000401061
0.3000384493
0.300036955
0.3000358106
0.3000565729
0.3000554086
0.3000538078
0.3000518477
0.3000496438
0.3000473167
0.3000449716
0.3000426898
0.3000405273
0.300038518
0.3000366788
0.3000350154
0.3000335304
0.3000322458
0.300031291
0.3000548903
0.3000524222
0.300049402
0.3000461558
0.3000429582
0.3000399905
0.3000373462
0.3000350537
0.3000331014
0.3000314563
0.3000300777
0.3000289249
0.3000279634
0.3000271767
0.3000266143
0.3000437902
0.3000375614
0.3000320016
0.3000275105
0.3000241458
0.3000217822
0.3000202263
0.3000192807
0.3000187744
0.3000185707
0.3000185665
0.3000186853
0.3000188663
0.300019038
0.3000248977
0.3000146066
0.3000076649
0.3000036981
0.3000019576
0.3000017182
0.3000024089
0.3000036242
0.3000050943
0.300006648
0.300008181
0.3000096275
0.3000109241
0.3000119079
0.3000005799
0.2999905812
0.2999865098
0.2999860399
0.2999875467
0.2999900254
0.2999928907
0.2999958164
0.2999986287
0.3000012422
0.3000036201
0.3000057458
0.3000075832
0.3000089472
0.3000248982
0.3000146072
0.3000076655
0.3000036986
0.3000019581
0.3000017186
0.3000024093
0.3000036246
0.3000050946
0.3000066484
0.3000081813
0.3000096278
0.3000109244
0.3000119082
0.3000437907
0.3000375619
0.3000320021
0.300027511
0.3000241463
0.3000217828
0.3000202268
0.3000192813
0.300018775
0.3000185713
0.3000185671
0.3000186859
0.3000188668
0.3000190386
0.3000524223
0.3000494022
0.300046156
0.3000429585
0.3000399908
0.3000373466
0.3000350541
0.3000331018
0.3000314568
0.3000300782
0.3000289254
0.3000279639
0.3000271773
0.3000266149
0.3000554086
0.3000538078
0.3000518478
0.3000496439
0.3000473168
0.3000449718
0.3000426901
0.3000405276
0.3000385184
0.3000366792
0.3000350159
0.3000335309
0.3000322464
0.3000312916
0.3000556218
0.3000537082
0.3000512551
0.3000484681
0.3000455539
0.3000426805
0.3000399646
0.3000374762
0.3000352486
0.3000332887
0.3000315872
0.3000301254
0.3000288835
0.3000278566
0.3000271193
0.3000518288
0.3000472277
0.3000422886
0.300037649
0.3000336439
0.3000303767
0.3000278152
0.300025865
0.3000244143
0.3000233567
0.3000226005
0.3000220714
0.3000217106
0.3000214741
0.3000213362
0.3000376845
0.3000248978
0.3000146067
0.300007665
0.3000036982
0.3000019576
0.3000017182
0.300002409
0.3000036243
0.3000050943
0.3000066481
0.300008181
0.3000096276
0.3000109241
0.3000119079
0.299961039
0.2999487028
0.2999472231
0.2999514686
0.2999581612
0.2999654937
0.2999725758
0.2999790277
0.299984733
0.2999897
0.2999939878
0.2999976612
0.3000007324
0.3000029612
0.2998377966
0.2998553672
0.2998810584
0.2999052891
0.2999256753
0.2999421899
0.2999554416
0.2999661018
0.2999747414
0.2999818069
0.2999876343
0.2999924623
0.2999964027
0.2999992191
0.2999610409
0.2999487041
0.2999472242
0.2999514695
0.299958162
0.2999654944
0.2999725763
0.2999790282
0.2999847334
0.2999897004
0.2999939882
0.2999976616
0.3000007327
0.3000029615
0.3000248982
0.3000146073
0.3000076657
0.3000036989
0.3000019584
0.300001719
0.3000024098
0.3000036251
0.3000050951
0.3000066488
0.3000081817
0.3000096282
0.3000109248
0.3000119086
0.3000472278
0.3000422888
0.3000376493
0.3000336444
0.3000303773
0.3000278158
0.3000258656
0.300024415
0.3000233574
0.3000226013
0.3000220721
0.3000217113
0.3000214748
0.300021337
0.3000537081
0.3000512552
0.3000484682
0.3000455541
0.3000426808
0.3000399649
0.3000374767
0.3000352491
0.3000332893
0.3000315878
0.3000301261
0.3000288842
0.3000278574
0.3000271201
0.3000549201
0.3000525136
0.3000496015
0.3000464549
0.3000432967
0.3000402839
0.3000375131
0.3000350339
0.3000328619
0.3000309903
0.3000293987
0.3000280604
0.3000269483
0.3000260486
0.3000254139
0.3000486905
0.3000424121
0.3000365304
0.3000316067
0.3000277473
0.3000248536
0.3000227591
0.3000212935
0.300020307
0.3000196773
0.3000193081
0.3000191257
0.300019073
0.3000191029
0.3000191635
0.3000188051
0.3000005802
0.2999905816
0.2999865102
0.2999860402
0.299987547
0.2999900256
0.2999928909
0.2999958165
0.2999986288
0.3000012423
0.3000036202
0.3000057459
0.3000075833
0.3000089472
0.2998583114
0.2998377978
0.299855368
0.2998810589
0.2999052894
0.2999256755
0.2999421901
0.2999554418
0.2999661019
0.2999747415
0.299981807
0.2999876343
0.2999924623
0.2999964028
0.2999992192
0.299313442
0.2995849573
0.2997339502
0.299820577
0.2998739748
0.2999087984
0.2999327133
0.2999498968
0.299962723
0.299972599
0.2999803913
0.2999866399
0.2999916214
0.2999951295
0.2998377966
0.2998553687
0.29988106
0.2999052905
0.2999256765
0.2999421909
0.2999554425
0.2999661026
0.2999747421
0.2999818075
0.2999876349
0.2999924628
0.2999964033
0.2999992196
0.30000058
0.2999905819
0.2999865108
0.299986041
0.2999875478
0.2999900265
0.2999928918
0.2999958174
0.2999986297
0.3000012431
0.300003621
0.3000057466
0.300007584
0.300008948
0.3000424121
0.3000365306
0.300031607
0.3000277477
0.3000248541
0.3000227598
0.3000212943
0.3000203078
0.3000196781
0.3000193089
0.3000191265
0.3000190738
0.3000191037
0.3000191644
0.3000525136
0.3000496015
0.300046455
0.300043297
0.3000402842
0.3000375135
0.3000350344
0.3000328625
0.3000309909
0.3000293995
0.3000280612
0.3000269491
0.3000260495
0.3000254148
0.3000556218
0.3000537082
0.3000512552
0.3000484682
0.300045554
0.3000426806
0.3000399647
0.3000374764
0.3000352487
0.3000332889
0.3000315874
0.3000301256
0.3000288837
0.3000278569
0.3000271195
0.300051829
0.3000472279
0.3000422888
0.3000376493
0.3000336443
0.3000303771
0.3000278155
0.3000258653
0.3000244146
0.300023357
0.3000226009
0.3000220717
0.3000217109
0.3000214744
0.3000213366
0.3000376852
0.3000248985
0.3000146075
0.3000076658
0.3000036989
0.3000019583
0.3000017189
0.3000024095
0.3000036248
0.3000050948
0.3000066485
0.3000081815
0.300009628
0.3000109245
0.3000119083
0.2999899574
0.2999610417
0.2999487049
0.2999472248
0.29995147
0.2999581624
0.2999654947
0.2999725766
0.2999790285
0.2999847337
0.2999897006
0.2999939884
0.2999976618
0.3000007329
0.3000029617
0.2998583115
0.2998377982
0.2998553697
0.2998810607
0.2999052911
0.2999256769
0.2999421913
0.2999554428
0.2999661028
0.2999747423
0.2999818077
0.299987635
0.2999924629
0.2999964034
0.2999992197
0.2999899569
0.2999610416
0.2999487052
0.2999472253
0.2999514707
0.2999581631
0.2999654954
0.2999725773
0.2999790291
0.2999847343
0.2999897012
0.2999939889
0.2999976623
0.3000007334
0.3000029621
0.3000248977
0.3000146072
0.3000076659
0.3000036993
0.3000019589
0.3000017195
0.3000024103
0.3000036256
0.3000050956
0.3000066493
0.3000081822
0.3000096287
0.3000109252
0.300011909
0.3000472276
0.3000422887
0.3000376494
0.3000336445
0.3000303774
0.300027816
0.3000258659
0.3000244153
0.3000233577
0.3000226016
0.3000220724
0.3000217117
0.3000214752
0.3000213373
0.3000537081
0.3000512551
0.3000484682
0.3000455542
0.3000426808
0.3000399651
0.3000374768
0.3000352492
0.3000332895
0.3000315881
0.3000301263
0.3000288844
0.3000278577
0.3000271204
0.3000565729
0.3000554087
0.3000538079
0.3000518479
0.300049644
0.3000473168
0.3000449718
0.30004269
0.3000405275
0.3000385182
0.3000366791
0.3000350157
0.3000335307
0.3000322462
0.3000312914
0.3000548905
0.3000524224
0.3000494023
0.3000461561
0.3000429585
0.3000399909
0.3000373466
0.3000350541
0.3000331018
0.3000314568
0.3000300782
0.3000289254
0.3000279639
0.3000271772
0.3000266148
0.3000498133
0.3000437909
0.3000375621
0.3000320023
0.3000275112
0.3000241465
0.300021783
0.300020227
0.3000192815
0.3000187751
0.3000185715
0.3000185672
0.300018686
0.3000188669
0.3000190387
0.3000376853
0.3000248986
0.3000146077
0.3000076661
0.3000036993
0.3000019588
0.3000017193
0.30000241
0.3000036253
0.3000050953
0.300006649
0.3000081819
0.3000096284
0.3000109249
0.3000119087
0.300018805
0.3000005806
0.2999905824
0.2999865112
0.2999860414
0.2999875482
0.2999900268
0.2999928921
0.2999958176
0.2999986299
0.3000012433
0.3000036211
0.3000057468
0.3000075842
0.3000089481
0.3000376852
0.3000248986
0.3000146078
0.3000076663
0.3000036996
0.3000019591
0.3000017197
0.3000024104
0.3000036257
0.3000050957
0.3000066494
0.3000081823
0.3000096288
0.3000109253
0.3000119091
0.3000498131
0.3000437907
0.3000375619
0.3000320023
0.3000275114
0.3000241468
0.3000217833
0.3000202275
0.300019282
0.3000187757
0.300018572
0.3000185678
0.3000186866
0.3000188675
0.3000190393
0.3000524222
0.3000494021
0.3000461561
0.3000429586
0.300039991
0.3000373468
0.3000350545
0.3000331022
0.3000314572
0.3000300787
0.3000289259
0.3000279645
0.3000271778
0.3000266154
0.3000554086
0.3000538078
0.3000518478
0.300049644
0.3000473169
0.300044972
0.3000426903
0.3000405279
0.3000385187
0.3000366796
0.3000350163
0.3000335314
0.3000322468
0.3000312921
0.3000572154
0.3000565857
0.3000556637
0.3000544486
0.3000529731
0.3000512916
0.3000494673
0.3000475627
0.3000456334
0.3000437251
0.3000418735
0.3000401061
0.3000384493
0.300036955
0.3000358106
0.3000565596
0.3000553909
0.3000538048
0.3000518905
0.3000497668
0.3000475491
0.3000453324
0.3000431853
0.300041152
0.3000392575
0.3000375128
0.3000359207
0.3000344837
0.3000332262
0.3000322827
0.3000548905
0.3000524224
0.3000494023
0.3000461562
0.3000429586
0.300039991
0.3000373467
0.3000350543
0.300033102
0.3000314569
0.3000300784
0.3000289256
0.3000279641
0.3000271774
0.300026615
0.300051829
0.3000472279
0.300042289
0.3000376495
0.3000336446
0.3000303775
0.300027816
0.3000258658
0.3000244151
0.3000233575
0.3000226014
0.3000220722
0.3000217115
0.300021475
0.3000213371
0.3000486905
0.3000424123
0.3000365308
0.3000316072
0.3000277479
0.3000248543
0.3000227599
0.3000212944
0.3000203079
0.3000196782
0.300019309
0.3000191266
0.3000190739
0.3000191039
0.3000191645
0.300051829
0.3000472279
0.300042289
0.3000376496
0.3000336447
0.3000303776
0.3000278161
0.300025866
0.3000244154
0.3000233578
0.3000226017
0.3000220725
0.3000217117
0.3000214752
0.3000213374
0.3000548904
0.3000524223
0.3000494023
0.3000461562
0.3000429587
0.3000399911
0.3000373469
0.3000350546
0.3000331023
0.3000314573
0.3000300788
0.300028926
0.3000279645
0.3000271779
0.3000266155
0.3000565595
0.3000553908
0.3000538048
0.3000518905
0.3000497668
0.3000475492
0.3000453326
0.3000431855
0.3000411523
0.3000392578
0.3000375132
0.3000359211
0.3000344842
0.3000332267
0.3000322833
0.3000565857
0.3000556637
0.3000544485
0.3000529731
0.3000512916
0.3000494674
0.3000475629
0.3000456336
0.3000437254
0.3000418739
0.3000401065
0.3000384498
0.3000369556
0.3000358112
0.3000575055
0.3000571245
0.3000565389
0.3000557207
0.3000546642
0.3000533845
0.3000519132
0.3000502919
0.3000485664
0.3000467818
0.3000449797
0.3000431979
0.3000414759
0.3000398836
0.3000386431
0.3000572154
0.3000565857
0.3000556637
0.3000544486
0.3000529731
0.3000512916
0.3000494673
0.3000475628
0.3000456335
0.3000437252
0.3000418736
0.3000401062
0.3000384494
0.3000369551
0.3000358107
0.3000565729
0.3000554087
0.3000538079
0.3000518479
0.300049644
0.3000473169
0.3000449719
0.3000426902
0.3000405277
0.3000385185
0.3000366794
0.300035016
0.3000335311
0.3000322465
0.3000312918
0.3000556218
0.3000537082
0.3000512553
0.3000484683
0.3000455542
0.3000426809
0.3000399651
0.3000374768
0.3000352492
0.3000332894
0.3000315879
0.3000301262
0.3000288843
0.3000278575
0.3000271202
0.3000549202
0.3000525137
0.3000496016
0.3000464552
0.3000432971
0.3000402843
0.3000375136
0.3000350345
0.3000328626
0.300030991
0.3000293996
0.3000280613
0.3000269492
0.3000260496
0.3000254149
0.3000556218
0.3000537082
0.3000512553
0.3000484683
0.3000455543
0.300042681
0.3000399652
0.3000374769
0.3000352493
0.3000332896
0.3000315881
0.3000301264
0.3000288845
0.3000278578
0.3000271205
0.3000565729
0.3000554087
0.3000538079
0.3000518479
0.3000496441
0.3000473171
0.3000449721
0.3000426904
0.300040528
0.3000385188
0.3000366797
0.3000350164
0.3000335314
0.3000322469
0.3000312922
0.3000572153
0.3000565857
0.3000556637
0.3000544486
0.3000529731
0.3000512917
0.3000494675
0.3000475629
0.3000456337
0.3000437254
0.3000418739
0.3000401066
0.3000384499
0.3000369556
0.3000358112
0.3000575055
0.3000571245
0.3000565389
0.3000557207
0.3000546642
0.3000533845
0.3000519133
0.300050292
0.3000485665
0.300046782
0.30004498
0.3000431982
0.3000414763
0.3000398841
0.3000386436
)
;

boundaryField
{
    top
    {
        type            calculated;
        value           nonuniform List<scalar> 
127
(
0.3000575055
0.3000571245
0.3000565857
0.3000554086
0.3000537081
0.3000525136
0.3000537081
0.3000554086
0.3000565857
0.3000571245
0.3000565389
0.3000556637
0.3000538078
0.3000512552
0.3000496015
0.3000512551
0.3000538078
0.3000556637
0.3000565389
0.3000557207
0.3000544485
0.3000518478
0.3000484682
0.300046455
0.3000484682
0.3000518478
0.3000544485
0.3000557207
0.3000546642
0.300052973
0.3000496439
0.3000455541
0.300043297
0.3000455542
0.300049644
0.3000529731
0.3000546642
0.3000533845
0.3000512915
0.3000473168
0.3000426808
0.3000402842
0.3000426808
0.3000473169
0.3000512916
0.3000533845
0.3000519131
0.3000494673
0.3000449718
0.3000399649
0.3000375135
0.3000399651
0.300044972
0.3000494674
0.3000519133
0.3000502918
0.3000475627
0.3000426901
0.3000374767
0.3000350344
0.3000374768
0.3000426903
0.3000475629
0.300050292
0.3000485663
0.3000456334
0.3000405276
0.3000352491
0.3000328625
0.3000352492
0.3000405279
0.3000456336
0.3000485665
0.3000467817
0.3000437251
0.3000385184
0.3000332893
0.3000309909
0.3000332895
0.3000385187
0.3000437254
0.300046782
0.3000449796
0.3000418735
0.3000366792
0.3000315878
0.3000293995
0.3000315881
0.3000366796
0.3000418739
0.30004498
0.3000431978
0.3000401061
0.3000350159
0.3000301261
0.3000280612
0.3000301263
0.3000350163
0.3000401065
0.3000431982
0.3000414758
0.3000384493
0.3000335309
0.3000288842
0.3000269491
0.3000288844
0.3000335314
0.3000384498
0.3000414763
0.3000398835
0.300036955
0.3000322464
0.3000278574
0.3000260495
0.3000278577
0.3000322468
0.3000369556
0.3000398841
0.300038643
0.3000358106
0.3000312916
0.3000271201
0.3000254148
0.3000271204
0.3000312921
0.3000358112
0.3000386436
)
;
    }
    bottom
    {
        type            calculated;
        value           nonuniform List<scalar> 
134
(
0.3000572153
0.3000565729
0.3000556218
0.3000549201
0.3000556218
0.3000565729
0.3000572154
0.3000575055
0.3000571245
0.3000565857
0.3000554086
0.3000537082
0.3000525136
0.3000537082
0.3000554087
0.3000565857
0.3000571245
0.3000565388
0.3000556636
0.3000538078
0.3000512551
0.3000496015
0.3000512552
0.3000538079
0.3000556637
0.3000565389
0.3000557206
0.3000544485
0.3000518477
0.3000484681
0.3000464549
0.3000484682
0.3000518479
0.3000544486
0.3000557207
0.3000546641
0.3000529729
0.3000496438
0.3000455539
0.3000432967
0.300045554
0.300049644
0.3000529731
0.3000546642
0.3000533844
0.3000512914
0.3000473167
0.3000426805
0.3000402839
0.3000426806
0.3000473168
0.3000512916
0.3000533845
0.300051913
0.3000494671
0.3000449716
0.3000399646
0.3000375131
0.3000399647
0.3000449718
0.3000494673
0.3000519132
0.3000502917
0.3000475625
0.3000426898
0.3000374762
0.3000350339
0.3000374764
0.30004269
0.3000475627
0.3000502919
0.3000485661
0.3000456331
0.3000405273
0.3000352486
0.3000328619
0.3000352487
0.3000405275
0.3000456334
0.3000485664
0.3000467814
0.3000437248
0.300038518
0.3000332887
0.3000309903
0.3000332889
0.3000385182
0.3000437251
0.3000467818
0.3000449793
0.3000418732
0.3000366788
0.3000315872
0.3000293987
0.3000315874
0.3000366791
0.3000418735
0.3000449797
0.3000431975
0.3000401057
0.3000350154
0.3000301254
0.3000280604
0.3000301256
0.3000350157
0.3000401061
0.3000431979
0.3000414754
0.3000384489
0.3000335304
0.3000288835
0.3000269483
0.3000288837
0.3000335307
0.3000384493
0.3000414759
0.3000398831
0.3000369546
0.3000322458
0.3000278566
0.3000260486
0.3000278569
0.3000322462
0.300036955
0.3000398836
0.3000386425
0.3000358101
0.300031291
0.3000271193
0.3000254139
0.3000271195
0.3000312914
0.3000358106
0.3000386431
)
;
    }
    side-walls
    {
        type            calculated;
        value           nonuniform List<scalar> 
261
(
0.3000571245
0.3000565857
0.3000554086
0.3000537081
0.3000525136
0.3000537081
0.3000554086
0.3000565857
0.3000571245
0.3000565388
0.3000556636
0.3000538078
0.3000512551
0.3000496014
0.3000512551
0.3000538078
0.3000556637
0.3000565389
0.3000557206
0.3000544484
0.3000518477
0.300048468
0.3000464548
0.3000484681
0.3000518478
0.3000544485
0.3000557207
0.3000546641
0.3000529729
0.3000496438
0.3000455539
0.3000432966
0.3000455539
0.3000496439
0.300052973
0.3000546642
0.3000533844
0.3000512914
0.3000473166
0.3000426804
0.3000402838
0.3000426805
0.3000473167
0.3000512915
0.3000533845
0.300051913
0.3000494671
0.3000449716
0.3000399645
0.300037513
0.3000399646
0.3000449717
0.3000494672
0.3000519131
0.3000502917
0.3000475625
0.3000426898
0.3000374762
0.3000350338
0.3000374763
0.3000426899
0.3000475627
0.3000502918
0.3000485661
0.3000456331
0.3000405272
0.3000352485
0.3000328618
0.3000352486
0.3000405274
0.3000456333
0.3000485663
0.3000467814
0.3000437248
0.3000385179
0.3000332887
0.3000309902
0.3000332888
0.3000385181
0.300043725
0.3000467817
0.3000449793
0.3000418731
0.3000366787
0.3000315871
0.3000293986
0.3000315873
0.300036679
0.3000418734
0.3000449796
0.3000431975
0.3000401057
0.3000350153
0.3000301253
0.3000280603
0.3000301255
0.3000350156
0.300040106
0.3000431978
0.3000414754
0.3000384489
0.3000335304
0.3000288834
0.3000269482
0.3000288836
0.3000335306
0.3000384492
0.3000414758
0.3000398831
0.3000369545
0.3000322458
0.3000278566
0.3000260485
0.3000278568
0.3000322461
0.3000369549
0.3000398835
0.3000386425
0.3000358101
0.300031291
0.3000271192
0.3000254138
0.3000271194
0.3000312913
0.3000358105
0.300038643
0.3000575055
0.3000572154
0.3000565729
0.3000556218
0.3000549202
0.3000556218
0.3000565729
0.3000572153
0.3000575055
0.3000571245
0.3000565857
0.3000554087
0.3000537082
0.3000525137
0.3000537082
0.3000554087
0.3000565857
0.3000571245
0.3000565389
0.3000556637
0.3000538079
0.3000512553
0.3000496016
0.3000512553
0.3000538079
0.3000556637
0.3000565389
0.3000557207
0.3000544486
0.3000518479
0.3000484683
0.3000464552
0.3000484683
0.3000518479
0.3000544486
0.3000557207
0.3000546642
0.3000529731
0.300049644
0.3000455542
0.3000432971
0.3000455543
0.3000496441
0.3000529731
0.3000546642
0.3000533845
0.3000512916
0.3000473169
0.3000426809
0.3000402843
0.300042681
0.3000473171
0.3000512917
0.3000533845
0.3000519132
0.3000494673
0.3000449719
0.3000399651
0.3000375136
0.3000399652
0.3000449721
0.3000494675
0.3000519133
0.3000502919
0.3000475628
0.3000426902
0.3000374768
0.3000350345
0.3000374769
0.3000426904
0.3000475629
0.300050292
0.3000485664
0.3000456335
0.3000405277
0.3000352492
0.3000328626
0.3000352493
0.300040528
0.3000456337
0.3000485665
0.3000467818
0.3000437252
0.3000385185
0.3000332894
0.300030991
0.3000332896
0.3000385188
0.3000437254
0.300046782
0.3000449797
0.3000418736
0.3000366794
0.3000315879
0.3000293996
0.3000315881
0.3000366797
0.3000418739
0.30004498
0.3000431979
0.3000401062
0.300035016
0.3000301262
0.3000280613
0.3000301264
0.3000350164
0.3000401066
0.3000431982
0.3000414759
0.3000384494
0.3000335311
0.3000288843
0.3000269492
0.3000288845
0.3000335314
0.3000384499
0.3000414763
0.3000398836
0.3000369551
0.3000322465
0.3000278575
0.3000260496
0.3000278578
0.3000322469
0.3000369556
0.3000398841
0.3000386431
0.3000358107
0.3000312918
0.3000271202
0.3000254149
0.3000271205
0.3000312922
0.3000358112
0.3000386436
)
;
    }
    inlet
    {
        type            calculated;
        value           nonuniform 0();
    }
    outlet
    {
        type            calculated;
        value           nonuniform List<scalar> 
81
(
0.3000386425
0.3000358101
0.300031291
0.3000271192
0.3000254138
0.3000271194
0.3000312913
0.3000358105
0.300038643
0.3000358101
0.3000322821
0.3000266142
0.3000213362
0.3000191635
0.3000213364
0.3000266147
0.3000322826
0.3000358106
0.300031291
0.3000266143
0.300019038
0.3000119079
0.3000089472
0.3000119082
0.3000190386
0.3000266149
0.3000312916
0.3000271193
0.3000213362
0.3000119079
0.3000029612
0.2999992191
0.3000029615
0.3000119086
0.300021337
0.3000271201
0.3000254139
0.3000191635
0.3000089472
0.2999992192
0.2999951295
0.2999992196
0.300008948
0.3000191644
0.3000254148
0.3000271195
0.3000213366
0.3000119083
0.3000029617
0.2999992197
0.3000029621
0.300011909
0.3000213373
0.3000271204
0.3000312914
0.3000266148
0.3000190387
0.3000119087
0.3000089481
0.3000119091
0.3000190393
0.3000266154
0.3000312921
0.3000358106
0.3000322827
0.300026615
0.3000213371
0.3000191645
0.3000213374
0.3000266155
0.3000322833
0.3000358112
0.3000386431
0.3000358107
0.3000312918
0.3000271202
0.3000254149
0.3000271205
0.3000312922
0.3000358112
0.3000386436
)
;
    }
    procBoundary1to0
    {
        type            processor;
        value           nonuniform List<scalar> 
97
(
0.3000575055
0.3000575055
0.3000572153
0.3000565729
0.3000556219
0.3000549202
0.3000556219
0.3000565729
0.3000572154
0.3000575056
0.3000575923
0.3000565595
0.3000565595
0.3000565595
0.3000548904
0.3000518291
0.3000486908
0.3000518292
0.3000548906
0.3000565596
0.3000572154
0.3000572975
0.3000565496
0.300049813
0.300049813
0.300049813
0.3000376854
0.3000188064
0.300037686
0.3000498136
0.3000548906
0.3000565729
0.3000568716
0.3000552487
0.3000496571
0.2999899562
0.2999899562
0.2999899562
0.2998583198
0.2999899597
0.3000376859
0.3000518292
0.3000556219
0.3000565724
0.3000540426
0.3000435671
0.3000028269
0.2987895191
0.2987895191
0.2987895191
0.2998583194
0.2998583194
0.3000188064
0.3000486909
0.3000549203
0.3000568716
0.3000552487
0.3000496571
0.3000336699
0.3000028264
0.30003367
0.3000376848
0.3000376848
0.3000376848
0.300051829
0.3000556218
0.3000572975
0.3000565496
0.300054388
0.3000496571
0.300043567
0.3000496571
0.300054388
0.3000548904
0.3000548904
0.3000548904
0.3000565729
0.3000575923
0.300057293
0.3000565496
0.3000552487
0.3000540425
0.3000552487
0.3000565496
0.300057293
0.3000572153
0.3000572153
0.3000572153
0.3000577272
0.3000575923
0.3000572975
0.3000568716
0.3000565724
0.3000568716
0.3000572975
0.3000575923
0.3000577272
)
;
    }
}


// ************************************************************************* //
