/*--------------------------------*- C++ -*----------------------------------*\
| =========                 |                                                 |
| \\      /  F ield         | OpenFOAM: The Open Source CFD Toolbox           |
|  \\    /   O peration     | Version:  4.x                                   |
|   \\  /    A nd           | Web:      www.OpenFOAM.org                      |
|    \\/     M anipulation  |                                                 |
\*---------------------------------------------------------------------------*/
FoamFile
{
    version     2.0;
    format      ascii;
    class       volScalarField;
    location    "10000";
    object      X_H2O;
}
// * * * * * * * * * * * * * * * * * * * * * * * * * * * * * * * * * * * * * //

dimensions      [0 0 0 0 0 0 0];

internalField   nonuniform List<scalar> 
1174
(
1.590251479e-05
1.652964711e-05
1.740575628e-05
1.853709814e-05
1.990736582e-05
2.148278659e-05
2.321877649e-05
2.506632446e-05
2.697705992e-05
2.890641283e-05
3.081402759e-05
3.265752351e-05
3.436208542e-05
3.569009017e-05
1.64795378e-05
1.746690492e-05
1.876816264e-05
2.03481404e-05
2.2148672e-05
2.410202307e-05
2.614131449e-05
2.820704679e-05
3.025018024e-05
3.223253346e-05
3.41246605e-05
3.589828964e-05
3.74979187e-05
3.872294886e-05
1.77401241e-05
1.945439082e-05
2.155325225e-05
2.391320147e-05
2.640507205e-05
2.891602588e-05
3.135912572e-05
3.367445111e-05
3.582564221e-05
3.779458504e-05
3.957525103e-05
4.116479745e-05
4.2539767e-05
4.35616655e-05
1.956122991e-05
2.218805968e-05
2.517250873e-05
2.829295056e-05
3.136973506e-05
3.427771902e-05
3.694195322e-05
3.932694647e-05
4.142505469e-05
4.324651148e-05
4.481121656e-05
4.614043962e-05
4.723931643e-05
4.802830984e-05
2.084048888e-05
2.395897755e-05
2.73283828e-05
3.071014867e-05
3.393618832e-05
3.690287806e-05
3.955724161e-05
4.188258636e-05
4.388620399e-05
4.558981434e-05
4.702224749e-05
4.821243707e-05
4.917512868e-05
4.985417916e-05
1.95611908e-05
2.218800241e-05
2.517243013e-05
2.829284109e-05
3.136958997e-05
3.427753421e-05
3.694173085e-05
3.932668055e-05
4.142475253e-05
4.324617443e-05
4.481084237e-05
4.61400408e-05
4.723888776e-05
4.802786097e-05
1.774005725e-05
1.945429902e-05
2.155313764e-05
2.391305133e-05
2.640487232e-05
2.891576119e-05
3.135879683e-05
3.367405194e-05
3.582517499e-05
3.779404932e-05
3.957465477e-05
4.116414741e-05
4.25390556e-05
4.356089839e-05
1.64794707e-05
1.7466824e-05
1.876805546e-05
2.034799655e-05
2.214847749e-05
2.410176911e-05
2.614098741e-05
2.820663599e-05
3.024968535e-05
3.223194966e-05
3.412398471e-05
3.589752755e-05
3.749707795e-05
3.872203013e-05
1.590246823e-05
1.652959719e-05
1.740569083e-05
1.853700701e-05
1.99072335e-05
2.148259978e-05
2.321851556e-05
2.506598088e-05
2.697662023e-05
2.890587007e-05
3.081337582e-05
3.265676193e-05
3.436121497e-05
3.568910793e-05
1.580524211e-05
1.647949769e-05
1.746687076e-05
1.876812724e-05
2.034810379e-05
2.214863782e-05
2.410198744e-05
2.614128059e-05
2.82070136e-05
3.025014767e-05
3.223249998e-05
3.4124625e-05
3.58982521e-05
3.749788522e-05
3.872291433e-05
1.775927304e-05
1.945773804e-05
2.150764908e-05
2.37818055e-05
2.615642227e-05
2.852998238e-05
3.082898412e-05
3.300595958e-05
3.503427531e-05
3.690212435e-05
3.860651638e-05
4.014472428e-05
4.149069785e-05
4.250051348e-05
2.09385075e-05
2.417264048e-05
2.764873989e-05
3.107274438e-05
3.425041353e-05
3.708174653e-05
3.953616658e-05
4.162632239e-05
4.338736541e-05
4.486302498e-05
4.609688132e-05
4.712583887e-05
4.79675545e-05
4.856925776e-05
2.650146909e-05
3.17905223e-05
3.675865933e-05
4.104717816e-05
4.454545426e-05
4.728798296e-05
4.937576752e-05
5.092858151e-05
5.20604325e-05
5.28694262e-05
5.343536399e-05
5.38209584e-05
5.407352337e-05
5.422048783e-05
3.16585745e-05
3.795700273e-05
4.322940185e-05
4.736186091e-05
5.046008165e-05
5.270226831e-05
5.427101434e-05
5.532668072e-05
5.600030411e-05
5.639483632e-05
5.658942181e-05
5.664506205e-05
5.661227705e-05
5.654670805e-05
2.650128256e-05
3.179029865e-05
3.675839305e-05
4.104686498e-05
4.454508928e-05
4.728756449e-05
4.937531175e-05
5.092809569e-05
5.205991184e-05
5.286887968e-05
5.34348069e-05
5.382038398e-05
5.407293799e-05
5.421988656e-05
2.093828217e-05
2.417239158e-05
2.764844416e-05
3.107238711e-05
3.424997867e-05
3.708122468e-05
3.953556699e-05
4.162564135e-05
4.33866173e-05
4.48622151e-05
4.60960139e-05
4.712492872e-05
4.79666055e-05
4.856825822e-05
1.775913171e-05
1.945759651e-05
2.150747226e-05
2.378157135e-05
2.615610665e-05
2.852957784e-05
3.082847532e-05
3.300535115e-05
3.50335596e-05
3.690131337e-05
3.860560776e-05
4.014373135e-05
4.148961809e-05
4.249936372e-05
1.647947807e-05
1.746682847e-05
1.876805463e-05
2.034798206e-05
2.214844471e-05
2.410171011e-05
2.614089497e-05
2.820651543e-05
3.024952769e-05
3.223175257e-05
3.412375503e-05
3.589726112e-05
3.749677569e-05
3.872168098e-05
1.649326693e-05
1.774002702e-05
1.945428919e-05
2.155315065e-05
2.391310124e-05
2.640496987e-05
2.891592121e-05
3.135902233e-05
3.367435458e-05
3.582554826e-05
3.779448374e-05
3.95751545e-05
4.116470369e-05
4.253966715e-05
4.356157229e-05
1.829530471e-05
2.093838157e-05
2.417253954e-05
2.764865204e-05
3.107266548e-05
3.425034379e-05
3.708167769e-05
3.953610255e-05
4.162626316e-05
4.338730765e-05
4.486296331e-05
4.609681934e-05
4.712577841e-05
4.796749462e-05
4.856919747e-05
3.01828979e-05
3.685297383e-05
4.280646244e-05
4.761536907e-05
5.121798616e-05
5.374838464e-05
5.541388897e-05
5.642567356e-05
5.69671555e-05
5.718450115e-05
5.718823334e-05
5.706026651e-05
5.686582391e-05
5.66812619e-05
5.041554785e-05
6.143552275e-05
6.886848429e-05
7.311560718e-05
7.497855203e-05
7.523393892e-05
7.449330514e-05
7.319093551e-05
7.161582342e-05
6.995112731e-05
6.830868912e-05
6.675888909e-05
6.536972646e-05
6.431558267e-05
7.645748233e-05
8.716417256e-05
9.152313157e-05
9.202519262e-05
9.041045414e-05
8.775499764e-05
8.468548497e-05
8.155150093e-05
7.853894016e-05
7.573933047e-05
7.319214639e-05
7.091503855e-05
6.894667534e-05
6.74854426e-05
5.041461008e-05
6.143460987e-05
6.886757077e-05
7.311467691e-05
7.497760748e-05
7.523299383e-05
7.449237086e-05
7.319001239e-05
7.161491127e-05
6.995022999e-05
6.830782431e-05
6.675804476e-05
6.536889872e-05
6.431477408e-05
3.018215017e-05
3.685227049e-05
4.280569157e-05
4.761448328e-05
5.121698528e-05
5.374728645e-05
5.541271841e-05
5.642444629e-05
5.696588677e-05
5.718319661e-05
5.718692023e-05
5.705894024e-05
5.68644903e-05
5.667991052e-05
2.093828524e-05
2.417235404e-05
2.764835309e-05
3.107222645e-05
3.424975325e-05
3.708092875e-05
3.95352138e-05
4.162523662e-05
4.338616624e-05
4.486172019e-05
4.609548771e-05
4.712437482e-05
4.796602572e-05
4.856766897e-05
1.774006489e-05
1.945428355e-05
2.15530722e-05
2.391292181e-05
2.640466361e-05
2.891546504e-05
3.135841009e-05
3.367357291e-05
3.582460602e-05
3.779339729e-05
3.957392625e-05
4.116334551e-05
4.253819056e-05
4.355995958e-05
1.751182673e-05
1.956107524e-05
2.218788903e-05
2.517233188e-05
2.829276801e-05
3.136954908e-05
3.427753524e-05
3.694177159e-05
3.9326764e-05
4.142487448e-05
4.324633455e-05
4.481103928e-05
4.614027436e-05
4.723915404e-05
4.80281512e-05
2.157394527e-05
2.650122983e-05
3.179030478e-05
3.67584667e-05
4.104699401e-05
4.454527896e-05
4.728781281e-05
4.937560711e-05
5.092842133e-05
5.206027562e-05
5.286927249e-05
5.343521634e-05
5.382080653e-05
5.407338164e-05
5.422035157e-05
3.672219394e-05
5.04150743e-05
6.14351811e-05
6.886821344e-05
7.311537281e-05
7.497833584e-05
7.523374263e-05
7.449312314e-05
7.319076659e-05
7.161566496e-05
6.995097655e-05
6.830855333e-05
6.675876243e-05
6.536960697e-05
6.431548137e-05
0.0001188040924
0.0001320126389
0.0001335952954
0.0001290469799
0.0001218783767
0.0001140247093
0.0001064394365
9.952911546e-05
9.341850926e-05
8.809860307e-05
8.350608359e-05
7.957158104e-05
7.628210845e-05
7.389475806e-05
0.0002507849932
0.0002319654316
0.0002044500685
0.0001784992595
0.0001566660277
0.0001389792154
0.000124786868
0.0001133700432
0.000104117115
9.655002972e-05
9.030891117e-05
8.513805951e-05
8.091767094e-05
7.790110929e-05
0.0001188009294
0.0001320103485
0.0001335932945
0.0001290451432
0.0001218766568
0.0001140231037
0.000106437956
9.952774742e-05
9.341721931e-05
8.809738264e-05
8.350493639e-05
7.957049814e-05
7.628107524e-05
7.389374357e-05
5.041471383e-05
6.143439366e-05
6.886704146e-05
7.311390955e-05
7.497667546e-05
7.523196052e-05
7.449128021e-05
7.318891095e-05
7.161381831e-05
6.994915769e-05
6.830677155e-05
6.675702893e-05
6.536790505e-05
6.43137823e-05
2.65012711e-05
3.179010999e-05
3.67579887e-05
4.104623975e-05
4.454426609e-05
4.728658036e-05
4.937419438e-05
5.092687058e-05
5.205861856e-05
5.286752339e-05
5.343340944e-05
5.381896265e-05
5.407149975e-05
5.421842342e-05
1.956119171e-05
2.21879207e-05
2.517221989e-05
2.829247001e-05
3.136904285e-05
3.427680217e-05
3.694082168e-05
3.932560255e-05
4.142352881e-05
4.324482266e-05
4.48093804e-05
4.613848349e-05
4.723724386e-05
4.802611419e-05
1.826322833e-05
2.084028935e-05
2.395874906e-05
2.732812633e-05
3.070987725e-05
3.393590798e-05
3.690259142e-05
3.955696315e-05
4.18823038e-05
4.388592448e-05
4.558954436e-05
4.702199094e-05
4.82121855e-05
4.917488574e-05
4.985393528e-05
2.493480264e-05
3.165816134e-05
3.795656389e-05
4.322897005e-05
4.736143785e-05
5.045967928e-05
5.270189427e-05
5.427066721e-05
5.532635163e-05
5.599999881e-05
5.63945378e-05
5.658915057e-05
5.664480603e-05
5.661203878e-05
5.654648234e-05
5.694009103e-05
7.645650193e-05
8.716322912e-05
9.15223055e-05
9.202448617e-05
9.040986691e-05
8.775450194e-05
8.46850414e-05
8.155111763e-05
7.853859862e-05
7.5739028e-05
7.319187344e-05
7.091479649e-05
6.894644323e-05
6.748521724e-05
0.0002288176424
0.0002507819752
0.0002319635499
0.0002044488493
0.0001784984369
0.0001566653983
0.000138978747
0.0001247864773
0.000113369724
0.0001041168597
9.654981899e-05
9.030872748e-05
8.513788775e-05
8.091752814e-05
7.790098148e-05
0.0008123262928
0.0005215477339
0.0003619855937
0.0002692141543
0.0002120289346
0.0001747353542
0.0001491241738
0.0001307218015
0.0001169857413
0.0001064090319
9.806381303e-05
9.137182029e-05
8.60367627e-05
8.227948498e-05
0.0002507850351
0.0002319626171
0.0002044466013
0.0001784958903
0.0001566629776
0.0001389765066
0.0001247844506
0.0001133678817
0.0001041151749
9.654827033e-05
9.030729809e-05
8.513656535e-05
8.091628664e-05
7.789977904e-05
7.645750918e-05
8.716292962e-05
9.152105734e-05
9.202267592e-05
9.040775082e-05
8.775225289e-05
8.468275134e-05
8.154885227e-05
7.853639397e-05
7.573689193e-05
7.318981491e-05
7.091279731e-05
6.894450539e-05
6.748331214e-05
3.165852591e-05
3.795651896e-05
4.322847865e-05
4.736054427e-05
5.045844627e-05
5.270039474e-05
5.426897079e-05
5.532451441e-05
5.599805016e-05
5.639252363e-05
5.658708402e-05
5.664270299e-05
5.660991538e-05
5.654433402e-05
2.084048047e-05
2.395881079e-05
2.732798783e-05
3.070948826e-05
3.393525167e-05
3.690166955e-05
3.955578743e-05
4.188090366e-05
4.38843225e-05
4.558777126e-05
4.702006973e-05
4.821013374e-05
4.917272094e-05
4.985165846e-05
1.751181315e-05
1.956102211e-05
2.218779581e-05
2.517219071e-05
2.829257484e-05
3.136930728e-05
3.427724031e-05
3.694142428e-05
3.93263697e-05
4.142444211e-05
4.324586508e-05
4.481053729e-05
4.613973408e-05
4.723859085e-05
4.80275583e-05
2.157376306e-05
2.650091576e-05
3.178988447e-05
3.675795737e-05
4.104641858e-05
4.454465015e-05
4.728713819e-05
4.937489956e-05
5.092769873e-05
5.20595382e-05
5.286852379e-05
5.343445803e-05
5.382004858e-05
5.407261758e-05
5.421957724e-05
3.672083609e-05
5.041375014e-05
6.143375916e-05
6.886676355e-05
7.311393692e-05
7.497692325e-05
7.523237489e-05
7.449181058e-05
7.318949926e-05
7.161445284e-05
6.99498138e-05
6.830743413e-05
6.675768038e-05
6.536855723e-05
6.431444448e-05
8.783390768e-05
0.0001187985609
0.0001320084171
0.0001335917513
0.0001290438953
0.0001218756471
0.0001140222712
0.0001064372481
9.952713297e-05
9.341669635e-05
8.809693596e-05
8.350454913e-05
7.957015134e-05
7.628075286e-05
7.38934489e-05
0.0002288172531
0.0002507811844
0.0002319601583
0.0002044449112
0.0001784946596
0.0001566620396
0.0001389757813
0.0001247838778
0.0001133674096
0.0001041147862
9.654794733e-05
9.030702033e-05
8.513632932e-05
8.091607603e-05
7.789960116e-05
8.783499939e-05
0.0001187986797
0.0001320075692
0.0001335902537
0.0001290420772
0.000121873731
0.0001140203726
0.0001064354265
9.952542071e-05
9.341509295e-05
8.809543126e-05
8.350314321e-05
7.956882967e-05
7.627950988e-05
7.389224722e-05
5.041556668e-05
6.143419554e-05
6.886623183e-05
7.311274329e-05
7.497532392e-05
7.523052586e-05
7.448982854e-05
7.318746437e-05
7.161240091e-05
6.994779236e-05
6.830545411e-05
6.675574321e-05
6.536667202e-05
6.431257737e-05
2.650155557e-05
3.179015551e-05
3.675779395e-05
4.104584071e-05
4.454370897e-05
4.728589732e-05
4.937343016e-05
5.092604824e-05
5.205774464e-05
5.286662849e-05
5.34324971e-05
5.381803381e-05
5.407055963e-05
5.421747875e-05
1.956127616e-05
2.218794845e-05
2.517216345e-05
2.829231082e-05
3.136877962e-05
3.427644179e-05
3.694037441e-05
3.932507945e-05
4.142294106e-05
4.324417967e-05
4.480869024e-05
4.613775284e-05
4.723648259e-05
4.80253268e-05
1.649323058e-05
1.773994068e-05
1.945414751e-05
2.155294687e-05
2.391282473e-05
2.640461895e-05
2.891549006e-05
3.13585072e-05
3.367375454e-05
3.582486912e-05
3.779373624e-05
3.957433462e-05
4.116382526e-05
4.253872839e-05
4.356057802e-05
1.82950621e-05
2.093805423e-05
2.41721118e-05
2.76481249e-05
3.107204054e-05
3.424961672e-05
3.70808521e-05
3.953519172e-05
4.162526984e-05
4.338624709e-05
4.486184988e-05
4.609565227e-05
4.712457297e-05
4.796625993e-05
4.85679238e-05
2.373241974e-05
3.018163021e-05
3.685169472e-05
4.280509276e-05
4.761388931e-05
5.121640921e-05
5.374673221e-05
5.541218609e-05
5.64239452e-05
5.696541731e-05
5.718276151e-05
5.718650794e-05
5.705854517e-05
5.686411593e-05
5.667955134e-05
3.672081197e-05
5.041348777e-05
6.143319141e-05
6.886594188e-05
7.311292696e-05
7.497580318e-05
7.523120156e-05
7.449062069e-05
7.318831633e-05
7.161329923e-05
6.994869045e-05
6.830634405e-05
6.675663186e-05
6.536754208e-05
6.431344114e-05
5.694021587e-05
7.645570092e-05
8.71614151e-05
9.151981119e-05
9.202163396e-05
9.040686813e-05
8.77514915e-05
8.46821147e-05
8.15482973e-05
7.853590248e-05
7.573646748e-05
7.31894266e-05
7.091245112e-05
6.894419585e-05
6.748301831e-05
3.672086975e-05
5.04133961e-05
6.143283808e-05
6.886532298e-05
7.311209885e-05
7.497482988e-05
7.523013589e-05
7.448950193e-05
7.31871902e-05
7.161217259e-05
6.994759215e-05
6.830526638e-05
6.675558129e-05
6.536651347e-05
6.431243487e-05
2.37329101e-05
3.018203739e-05
3.685180865e-05
4.28048411e-05
4.76132914e-05
5.121551813e-05
5.374561225e-05
5.541089505e-05
5.642254198e-05
5.69639301e-05
5.718122533e-05
5.718494569e-05
5.705696972e-05
5.68625351e-05
5.667794849e-05
2.093850166e-05
2.417234494e-05
2.764811306e-05
3.107176033e-05
3.424907542e-05
3.70800703e-05
3.953419189e-05
4.162408485e-05
4.338491268e-05
4.486038077e-05
4.609407503e-05
4.712290458e-05
4.796450944e-05
4.856610696e-05
1.774016184e-05
1.94543121e-05
2.155299545e-05
2.391271253e-05
2.640431169e-05
2.89149704e-05
3.135776886e-05
3.367279856e-05
3.582371261e-05
3.779238921e-05
3.957282051e-05
4.116215448e-05
4.253692462e-05
4.355862858e-05
1.580518467e-05
1.647940026e-05
1.746672905e-05
1.876792996e-05
2.03478421e-05
2.214829459e-05
2.410155393e-05
2.614074844e-05
2.820638295e-05
3.024941245e-05
3.223166027e-05
3.412368863e-05
3.589721928e-05
3.749676306e-05
3.872171525e-05
1.650750167e-05
1.775901085e-05
1.945743629e-05
2.150727679e-05
2.378134162e-05
2.615584793e-05
2.852929406e-05
3.082817489e-05
3.300503643e-05
3.503323779e-05
3.690097954e-05
3.860527602e-05
4.014339717e-05
4.14892856e-05
4.249902859e-05
1.82950681e-05
2.093803891e-05
2.417205126e-05
2.764800644e-05
3.107185184e-05
3.424935579e-05
3.708052549e-05
3.953480355e-05
4.162483236e-05
4.338576951e-05
4.486132972e-05
4.609510506e-05
4.712400505e-05
4.796566404e-05
4.856730816e-05
2.157376301e-05
2.650079603e-05
3.178956613e-05
3.675741838e-05
4.104566082e-05
4.454370555e-05
4.728603977e-05
4.93736819e-05
5.092638302e-05
5.20581601e-05
5.286709114e-05
5.343299992e-05
5.381857169e-05
5.407111967e-05
5.421805935e-05
2.493480766e-05
3.165785448e-05
3.795583116e-05
4.322780674e-05
4.735991832e-05
5.045787136e-05
5.26998708e-05
5.426848359e-05
5.532406611e-05
5.599764064e-05
5.639214567e-05
5.658673407e-05
5.664237128e-05
5.660959305e-05
5.654403008e-05
2.157374541e-05
2.650073461e-05
3.178942926e-05
3.675717779e-05
4.104531551e-05
4.454325854e-05
4.728550867e-05
4.937307912e-05
5.092572799e-05
5.205746276e-05
5.286637167e-05
5.343225797e-05
5.381781255e-05
5.407035152e-05
5.421727935e-05
1.829510826e-05
2.093806723e-05
2.417200096e-05
2.76478264e-05
3.107151306e-05
3.42488575e-05
3.707987812e-05
3.953401716e-05
4.162392914e-05
4.338476687e-05
4.486024509e-05
4.609395754e-05
4.712279553e-05
4.796441219e-05
4.856601975e-05
1.650760117e-05
1.775911792e-05
1.945749704e-05
2.150724428e-05
2.378118235e-05
2.615554345e-05
2.852882671e-05
3.082754902e-05
3.300425339e-05
3.503230821e-05
3.689991824e-05
3.860408744e-05
4.014209773e-05
4.148788945e-05
4.24975447e-05
1.647953747e-05
1.746683095e-05
1.876797329e-05
2.034779534e-05
2.214813189e-05
2.41012516e-05
2.614028404e-05
2.820574641e-05
3.024860328e-05
3.223068375e-05
3.412254412e-05
3.589591535e-05
3.749530035e-05
3.872010424e-05
1.549439892e-05
1.590242228e-05
1.652952808e-05
1.740559913e-05
1.853688617e-05
1.990708737e-05
2.148242534e-05
2.321831775e-05
2.506575803e-05
2.697637719e-05
2.890561224e-05
3.081309996e-05
3.265646818e-05
3.43609085e-05
3.568879387e-05
1.580518801e-05
1.647940478e-05
1.746672636e-05
1.876791944e-05
2.034781587e-05
2.214824569e-05
2.41014817e-05
2.614064568e-05
2.820624085e-05
3.024923485e-05
3.22314518e-05
3.412344649e-05
3.589694303e-05
3.749644703e-05
3.872134873e-05
1.649323748e-05
1.773993302e-05
1.945410678e-05
2.155285363e-05
2.391266403e-05
2.640437252e-05
2.891514933e-05
3.135807504e-05
3.367322908e-05
3.5824258e-05
3.779304123e-05
3.957356758e-05
4.116299471e-05
4.25378382e-05
4.355961129e-05
1.751181367e-05
1.956097077e-05
2.218763984e-05
2.517189333e-05
2.829210765e-05
3.136865259e-05
3.427640056e-05
3.694041782e-05
3.932520428e-05
4.142313506e-05
4.324443615e-05
4.480900546e-05
4.613811724e-05
4.723689039e-05
4.802577118e-05
1.826322771e-05
2.084018274e-05
2.395845429e-05
2.732759494e-05
3.070907604e-05
3.393483191e-05
3.690125869e-05
3.955538384e-05
4.188051103e-05
4.388394068e-05
4.558740883e-05
4.701971869e-05
4.820980304e-05
4.917240785e-05
4.985135346e-05
1.751179506e-05
1.956093059e-05
2.21875625e-05
2.517175898e-05
2.829191069e-05
3.136839168e-05
3.427607303e-05
3.694002412e-05
3.932475144e-05
4.142262814e-05
4.32438833e-05
4.480841331e-05
4.613749237e-05
4.723623804e-05
4.802509376e-05
1.649322489e-05
1.773990355e-05
1.945403499e-05
2.155271098e-05
2.391243318e-05
2.640404004e-05
2.89147078e-05
3.135751677e-05
3.36725655e-05
3.582349088e-05
3.779218305e-05
3.957262391e-05
4.116197664e-05
4.253675508e-05
4.355847187e-05
1.580519976e-05
1.647941979e-05
1.7466722e-05
1.87678678e-05
2.034769078e-05
2.214802912e-05
2.410114913e-05
2.614018626e-05
2.820565387e-05
3.024851048e-05
3.223059493e-05
3.412245654e-05
3.589583403e-05
3.749523169e-05
3.872004011e-05
1.54944271e-05
1.590246248e-05
1.65295622e-05
1.740560428e-05
1.85368398e-05
1.990696166e-05
2.148219562e-05
2.321796335e-05
2.506526225e-05
2.69757275e-05
2.890480019e-05
3.081212691e-05
3.26553338e-05
3.435961853e-05
3.568735207e-05
)
;

boundaryField
{
    top
    {
        type            calculated;
        value           nonuniform List<scalar> 
127
(
1.54944271e-05
1.590246823e-05
1.647947807e-05
1.774006489e-05
1.956119171e-05
2.084048047e-05
1.956127616e-05
1.774016184e-05
1.647953747e-05
1.590246248e-05
1.652959719e-05
1.746682847e-05
1.945428355e-05
2.21879207e-05
2.395881079e-05
2.218794845e-05
1.94543121e-05
1.746683095e-05
1.65295622e-05
1.740569083e-05
1.876805463e-05
2.15530722e-05
2.517221989e-05
2.732798783e-05
2.517216345e-05
2.155299545e-05
1.876797329e-05
1.740560428e-05
1.853700701e-05
2.034798206e-05
2.391292181e-05
2.829247001e-05
3.070948826e-05
2.829231082e-05
2.391271253e-05
2.034779534e-05
1.85368398e-05
1.99072335e-05
2.214844471e-05
2.640466361e-05
3.136904285e-05
3.393525167e-05
3.136877962e-05
2.640431169e-05
2.214813189e-05
1.990696166e-05
2.148259978e-05
2.410171011e-05
2.891546504e-05
3.427680217e-05
3.690166955e-05
3.427644179e-05
2.89149704e-05
2.41012516e-05
2.148219562e-05
2.321851556e-05
2.614089497e-05
3.135841009e-05
3.694082168e-05
3.955578743e-05
3.694037441e-05
3.135776886e-05
2.614028404e-05
2.321796335e-05
2.506598088e-05
2.820651543e-05
3.367357291e-05
3.932560255e-05
4.188090366e-05
3.932507945e-05
3.367279856e-05
2.820574641e-05
2.506526225e-05
2.697662023e-05
3.024952769e-05
3.582460602e-05
4.142352881e-05
4.38843225e-05
4.142294106e-05
3.582371261e-05
3.024860328e-05
2.69757275e-05
2.890587007e-05
3.223175257e-05
3.779339729e-05
4.324482266e-05
4.558777126e-05
4.324417967e-05
3.779238921e-05
3.223068375e-05
2.890480019e-05
3.081337582e-05
3.412375503e-05
3.957392625e-05
4.48093804e-05
4.702006973e-05
4.480869024e-05
3.957282051e-05
3.412254412e-05
3.081212691e-05
3.265676193e-05
3.589726112e-05
4.116334551e-05
4.613848349e-05
4.821013374e-05
4.613775284e-05
4.116215448e-05
3.589591535e-05
3.26553338e-05
3.436121497e-05
3.749677569e-05
4.253819056e-05
4.723724386e-05
4.917272094e-05
4.723648259e-05
4.253692462e-05
3.749530035e-05
3.435961853e-05
3.568910793e-05
3.872168098e-05
4.355995958e-05
4.802611419e-05
4.985165846e-05
4.80253268e-05
4.355862858e-05
3.872010424e-05
3.568735207e-05
)
;
    }
    bottom
    {
        type            calculated;
        value           nonuniform List<scalar> 
134
(
1.580524211e-05
1.649326693e-05
1.751182673e-05
1.826322833e-05
1.751181315e-05
1.649323058e-05
1.580518467e-05
1.549439892e-05
1.590251479e-05
1.647949769e-05
1.774002702e-05
1.956107524e-05
2.084028935e-05
1.956102211e-05
1.773994068e-05
1.647940026e-05
1.590242228e-05
1.652964711e-05
1.746687076e-05
1.945428919e-05
2.218788903e-05
2.395874906e-05
2.218779581e-05
1.945414751e-05
1.746672905e-05
1.652952808e-05
1.740575628e-05
1.876812724e-05
2.155315065e-05
2.517233188e-05
2.732812633e-05
2.517219071e-05
2.155294687e-05
1.876792996e-05
1.740559913e-05
1.853709814e-05
2.034810379e-05
2.391310124e-05
2.829276801e-05
3.070987725e-05
2.829257484e-05
2.391282473e-05
2.03478421e-05
1.853688617e-05
1.990736582e-05
2.214863782e-05
2.640496987e-05
3.136954908e-05
3.393590798e-05
3.136930728e-05
2.640461895e-05
2.214829459e-05
1.990708737e-05
2.148278659e-05
2.410198744e-05
2.891592121e-05
3.427753524e-05
3.690259142e-05
3.427724031e-05
2.891549006e-05
2.410155393e-05
2.148242534e-05
2.321877649e-05
2.614128059e-05
3.135902233e-05
3.694177159e-05
3.955696315e-05
3.694142428e-05
3.13585072e-05
2.614074844e-05
2.321831775e-05
2.506632446e-05
2.82070136e-05
3.367435458e-05
3.9326764e-05
4.18823038e-05
3.93263697e-05
3.367375454e-05
2.820638295e-05
2.506575803e-05
2.697705992e-05
3.025014767e-05
3.582554826e-05
4.142487448e-05
4.388592448e-05
4.142444211e-05
3.582486912e-05
3.024941245e-05
2.697637719e-05
2.890641283e-05
3.223249998e-05
3.779448374e-05
4.324633455e-05
4.558954436e-05
4.324586508e-05
3.779373624e-05
3.223166027e-05
2.890561224e-05
3.081402759e-05
3.4124625e-05
3.95751545e-05
4.481103928e-05
4.702199094e-05
4.481053729e-05
3.957433462e-05
3.412368863e-05
3.081309996e-05
3.265752351e-05
3.58982521e-05
4.116470369e-05
4.614027436e-05
4.82121855e-05
4.613973408e-05
4.116382526e-05
3.589721928e-05
3.265646818e-05
3.436208542e-05
3.749788522e-05
4.253966715e-05
4.723915404e-05
4.917488574e-05
4.723859085e-05
4.253872839e-05
3.749676306e-05
3.43609085e-05
3.569009017e-05
3.872291433e-05
4.356157229e-05
4.80281512e-05
4.985393528e-05
4.80275583e-05
4.356057802e-05
3.872171525e-05
3.568879387e-05
)
;
    }
    side-walls
    {
        type            calculated;
        value           nonuniform List<scalar> 
261
(
1.590251479e-05
1.64795378e-05
1.77401241e-05
1.956122991e-05
2.084048888e-05
1.95611908e-05
1.774005725e-05
1.64794707e-05
1.590246823e-05
1.652964711e-05
1.746690492e-05
1.945439082e-05
2.218805968e-05
2.395897755e-05
2.218800241e-05
1.945429902e-05
1.7466824e-05
1.652959719e-05
1.740575628e-05
1.876816264e-05
2.155325225e-05
2.517250873e-05
2.73283828e-05
2.517243013e-05
2.155313764e-05
1.876805546e-05
1.740569083e-05
1.853709814e-05
2.03481404e-05
2.391320147e-05
2.829295056e-05
3.071014867e-05
2.829284109e-05
2.391305133e-05
2.034799655e-05
1.853700701e-05
1.990736582e-05
2.2148672e-05
2.640507205e-05
3.136973506e-05
3.393618832e-05
3.136958997e-05
2.640487232e-05
2.214847749e-05
1.99072335e-05
2.148278659e-05
2.410202307e-05
2.891602588e-05
3.427771902e-05
3.690287806e-05
3.427753421e-05
2.891576119e-05
2.410176911e-05
2.148259978e-05
2.321877649e-05
2.614131449e-05
3.135912572e-05
3.694195322e-05
3.955724161e-05
3.694173085e-05
3.135879683e-05
2.614098741e-05
2.321851556e-05
2.506632446e-05
2.820704679e-05
3.367445111e-05
3.932694647e-05
4.188258636e-05
3.932668055e-05
3.367405194e-05
2.820663599e-05
2.506598088e-05
2.697705992e-05
3.025018024e-05
3.582564221e-05
4.142505469e-05
4.388620399e-05
4.142475253e-05
3.582517499e-05
3.024968535e-05
2.697662023e-05
2.890641283e-05
3.223253346e-05
3.779458504e-05
4.324651148e-05
4.558981434e-05
4.324617443e-05
3.779404932e-05
3.223194966e-05
2.890587007e-05
3.081402759e-05
3.41246605e-05
3.957525103e-05
4.481121656e-05
4.702224749e-05
4.481084237e-05
3.957465477e-05
3.412398471e-05
3.081337582e-05
3.265752351e-05
3.589828964e-05
4.116479745e-05
4.614043962e-05
4.821243707e-05
4.61400408e-05
4.116414741e-05
3.589752755e-05
3.265676193e-05
3.436208542e-05
3.74979187e-05
4.2539767e-05
4.723931643e-05
4.917512868e-05
4.723888776e-05
4.25390556e-05
3.749707795e-05
3.436121497e-05
3.569009017e-05
3.872294886e-05
4.35616655e-05
4.802830984e-05
4.985417916e-05
4.802786097e-05
4.356089839e-05
3.872203013e-05
3.568910793e-05
1.549439892e-05
1.580518801e-05
1.649323748e-05
1.751181367e-05
1.826322771e-05
1.751179506e-05
1.649322489e-05
1.580519976e-05
1.54944271e-05
1.590242228e-05
1.647940478e-05
1.773993302e-05
1.956097077e-05
2.084018274e-05
1.956093059e-05
1.773990355e-05
1.647941979e-05
1.590246248e-05
1.652952808e-05
1.746672636e-05
1.945410678e-05
2.218763984e-05
2.395845429e-05
2.21875625e-05
1.945403499e-05
1.7466722e-05
1.65295622e-05
1.740559913e-05
1.876791944e-05
2.155285363e-05
2.517189333e-05
2.732759494e-05
2.517175898e-05
2.155271098e-05
1.87678678e-05
1.740560428e-05
1.853688617e-05
2.034781587e-05
2.391266403e-05
2.829210765e-05
3.070907604e-05
2.829191069e-05
2.391243318e-05
2.034769078e-05
1.85368398e-05
1.990708737e-05
2.214824569e-05
2.640437252e-05
3.136865259e-05
3.393483191e-05
3.136839168e-05
2.640404004e-05
2.214802912e-05
1.990696166e-05
2.148242534e-05
2.41014817e-05
2.891514933e-05
3.427640056e-05
3.690125869e-05
3.427607303e-05
2.89147078e-05
2.410114913e-05
2.148219562e-05
2.321831775e-05
2.614064568e-05
3.135807504e-05
3.694041782e-05
3.955538384e-05
3.694002412e-05
3.135751677e-05
2.614018626e-05
2.321796335e-05
2.506575803e-05
2.820624085e-05
3.367322908e-05
3.932520428e-05
4.188051103e-05
3.932475144e-05
3.36725655e-05
2.820565387e-05
2.506526225e-05
2.697637719e-05
3.024923485e-05
3.5824258e-05
4.142313506e-05
4.388394068e-05
4.142262814e-05
3.582349088e-05
3.024851048e-05
2.69757275e-05
2.890561224e-05
3.22314518e-05
3.779304123e-05
4.324443615e-05
4.558740883e-05
4.32438833e-05
3.779218305e-05
3.223059493e-05
2.890480019e-05
3.081309996e-05
3.412344649e-05
3.957356758e-05
4.480900546e-05
4.701971869e-05
4.480841331e-05
3.957262391e-05
3.412245654e-05
3.081212691e-05
3.265646818e-05
3.589694303e-05
4.116299471e-05
4.613811724e-05
4.820980304e-05
4.613749237e-05
4.116197664e-05
3.589583403e-05
3.26553338e-05
3.43609085e-05
3.749644703e-05
4.25378382e-05
4.723689039e-05
4.917240785e-05
4.723623804e-05
4.253675508e-05
3.749523169e-05
3.435961853e-05
3.568879387e-05
3.872134873e-05
4.355961129e-05
4.802577118e-05
4.985135346e-05
4.802509376e-05
4.355847187e-05
3.872004011e-05
3.568735207e-05
)
;
    }
    inlet
    {
        type            calculated;
        value           nonuniform 0();
    }
    outlet
    {
        type            calculated;
        value           nonuniform List<scalar> 
81
(
3.569009017e-05
3.872294886e-05
4.35616655e-05
4.802830984e-05
4.985417916e-05
4.802786097e-05
4.356089839e-05
3.872203013e-05
3.568910793e-05
3.872291433e-05
4.250051348e-05
4.856925776e-05
5.422048783e-05
5.654670805e-05
5.421988656e-05
4.856825822e-05
4.249936372e-05
3.872168098e-05
4.356157229e-05
4.856919747e-05
5.66812619e-05
6.431558267e-05
6.74854426e-05
6.431477408e-05
5.667991052e-05
4.856766897e-05
4.355995958e-05
4.80281512e-05
5.422035157e-05
6.431548137e-05
7.389475806e-05
7.790110929e-05
7.389374357e-05
6.43137823e-05
5.421842342e-05
4.802611419e-05
4.985393528e-05
5.654648234e-05
6.748521724e-05
7.790098148e-05
8.227948498e-05
7.789977904e-05
6.748331214e-05
5.654433402e-05
4.985165846e-05
4.80275583e-05
5.421957724e-05
6.431444448e-05
7.38934489e-05
7.789960116e-05
7.389224722e-05
6.431257737e-05
5.421747875e-05
4.80253268e-05
4.356057802e-05
4.85679238e-05
5.667955134e-05
6.431344114e-05
6.748301831e-05
6.431243487e-05
5.667794849e-05
4.856610696e-05
4.355862858e-05
3.872171525e-05
4.249902859e-05
4.856730816e-05
5.421805935e-05
5.654403008e-05
5.421727935e-05
4.856601975e-05
4.24975447e-05
3.872010424e-05
3.568879387e-05
3.872134873e-05
4.355961129e-05
4.802577118e-05
4.985135346e-05
4.802509376e-05
4.355847187e-05
3.872004011e-05
3.568735207e-05
)
;
    }
    procBoundary1to0
    {
        type            processor;
        value           nonuniform List<scalar> 
97
(
1.549442833e-05
1.549442833e-05
1.580519466e-05
1.649319133e-05
1.751168248e-05
1.826302308e-05
1.751165135e-05
1.64931384e-05
1.580513831e-05
1.549437096e-05
1.540150928e-05
1.650760529e-05