/*--------------------------------*- C++ -*----------------------------------*\
| =========                 |                                                 |
| \\      /  F ield         | OpenFOAM: The Open Source CFD Toolbox           |
|  \\    /   O peration     | Version:  4.x                                   |
|   \\  /    A nd           | Web:      www.OpenFOAM.org                      |
|    \\/     M anipulation  |                                                 |
\*---------------------------------------------------------------------------*/
FoamFile
{
    version     2.0;
    format      ascii;
    class       volScalarField;
    location    "9000";
    object      CO;
}
// * * * * * * * * * * * * * * * * * * * * * * * * * * * * * * * * * * * * * //

dimensions      [0 0 0 0 0 0 0];

internalField   nonuniform List<scalar> 
1174
(
0.3719618216
0.3719602796
0.3719581001
0.3719552559
0.3719517766
0.3719477389
0.3719432496
0.3719384322
0.3719334102
0.3719283013
0.3719232129
0.3719182608
0.3719136473
0.3719100209
0.371960369
0.3719578921
0.3719545912
0.3719505431
0.3719458869
0.3719407917
0.3719354297
0.3719299579
0.3719245085
0.3719191862
0.3719140746
0.3719092539
0.3719048779
0.3719014992
0.371957156
0.3719527685
0.3719473366
0.3719411672
0.3719345915
0.3719279084
0.3719213542
0.3719150972
0.3719092446
0.3719038545
0.3718989514
0.3718945506
0.3718907218
0.3718878545
0.37195244
0.3719456131
0.3719377723
0.3719294922
0.3719212516
0.3719133945
0.3719061367
0.3718995892
0.3718937872
0.3718887154
0.37188433
0.3718805809
0.371877462
0.371875205
0.3719490663
0.3719408976
0.371931984
0.3719229551
0.371914266
0.3719062071
0.3718989373
0.3718925181
0.3718869435
0.371882168
0.3718781231
0.3718747382
0.37187198
0.3718700177
0.3719524402
0.3719456132
0.3719377723
0.3719294924
0.3719212517
0.3719133947
0.371906137
0.3718995895
0.3718937875
0.3718887155
0.3718843305
0.3718805819
0.3718774628
0.3718752055
0.3719571558
0.3719527684
0.3719473369
0.3719411676
0.3719345915
0.3719279091
0.3719213551
0.3719150976
0.3719092449
0.3719038548
0.3718989522
0.3718945517
0.3718907227
0.3718878554
0.3719603688
0.3719578921
0.3719545913
0.3719505435
0.3719458873
0.3719407923
0.3719354304
0.3719299585
0.3719245089
0.3719191869
0.3719140754
0.3719092549
0.3719048785
0.3719014999
0.3719618215
0.3719602796
0.3719581005
0.3719552561
0.3719517768
0.371947739
0.3719432499
0.3719384325
0.3719334105
0.3719283017
0.3719232137
0.3719182618
0.3719136483
0.3719100221
0.3719620401
0.3719603692
0.371957892
0.3719545912
0.371950543
0.3719458867
0.3719407915
0.3719354297
0.371929958
0.3719245083
0.3719191863
0.3719140749
0.3719092543
0.3719048778
0.3719014991
0.3719570877
0.371952728
0.371947409
0.3719414509
0.3719351759
0.3719288542
0.3719226883
0.3719168129
0.3719113082
0.3719062128
0.3719015414
0.3718973064
0.3718935813
0.3718907666
0.3719488187
0.371940329
0.3719310976
0.3719219073
0.3719132952
0.3719055546
0.3718987918
0.3718929934
0.3718880789
0.3718839409
0.3718804665
0.3718775587
0.3718751713
0.3718734551
0.3719340955
0.371919954
0.371906504
0.3718947542
0.3718850585
0.3718773712
0.3718714536
0.3718670026
0.3718637202
0.3718613446
0.3718596596
0.3718584934
0.3718577152
0.3718572526
0.3719201758
0.3719031446
0.3718887151
0.3718772693
0.3718685818
0.3718622103
0.3718576846
0.3718545826
0.3718525531
0.3718513174
0.3718506585
0.3718504077
0.371850424
0.3718505573
0.3719340958
0.3719199546
0.3719065046
0.3718947549
0.3718850591
0.371877372
0.3718714545
0.3718670031
0.3718637207
0.3718613449
0.3718596601
0.3718584941
0.3718577158
0.3718572533
0.3719488192
0.3719403293
0.3719310983
0.3719219082
0.3719132961
0.3719055556
0.3718987927
0.3718929944
0.3718880803
0.3718839418
0.3718804674
0.3718775598
0.3718751722
0.3718734562
0.3719570876
0.3719527283
0.3719474094
0.3719414516
0.3719351763
0.3719288549
0.3719226891
0.3719168141
0.371911309
0.3719062136
0.3719015425
0.3718973073
0.3718935827
0.3718907684
0.3719603691
0.3719578922
0.3719545916
0.3719505436
0.3719458873
0.3719407923
0.3719354307
0.3719299589
0.3719245093
0.3719191871
0.3719140758
0.3719092553
0.3719048791
0.3719015003
0.3719603087
0.3719571563
0.3719527687
0.3719473372
0.3719411675
0.3719345917
0.3719279086
0.3719213543
0.3719150973
0.3719092447
0.3719038542
0.3718989516
0.3718945509
0.3718907218
0.3718878548
0.3719556701
0.3719488192
0.3719403296
0.3719310979
0.3719219078
0.3719132957
0.3719055544
0.3718987918
0.3718929936
0.3718880792
0.3718839409
0.3718804663
0.3718775586
0.3718751716
0.371873455
0.3719243462
0.371906394
0.3718901326
0.3718767969
0.3718666442
0.3718593839
0.3718545003
0.3718514446
0.3718497274
0.3718489506
0.3718488064
0.3718490653
0.3718495408
0.371850018
0.3718698062
0.3718394271
0.3718184656
0.3718060853
0.3718002658
0.3717989649
0.371800534
0.3718037777
0.3718078837
0.3718123271
0.3718167804
0.3718210321
0.3718248821
0.3718278329
0.3717982301
0.3717679574
0.371754955
0.3717526623
0.3717563899
0.3717631817
0.3717712855
0.3717797032
0.3717878902
0.3717955678
0.3718026059
0.3718089402
0.3718144532
0.3718185789
0.3718698076
0.3718394283
0.3718184669
0.3718060866
0.3718002669
0.3717989662
0.3718005355
0.371803779
0.3718078848
0.3718123284
0.3718167815
0.3718210332
0.3718248831
0.371827834
0.3719243469
0.3719063947
0.3718901335
0.3718767979
0.3718666458
0.3718593854
0.3718545017
0.3718514462
0.3718497289
0.3718489518
0.3718488079
0.3718490665
0.3718495419
0.3718500195
0.3719488195
0.3719403296
0.371931098
0.3719219082
0.3719132963
0.3719055557
0.3718987932
0.3718929945
0.3718880804
0.3718839423
0.371880468
0.3718775601
0.3718751728
0.3718734567
0.3719571564
0.3719527686
0.3719473369
0.3719411674
0.3719345923
0.3719279093
0.3719213554
0.3719150985
0.3719092459
0.3719038557
0.3718989531
0.3718945525
0.3718907235
0.3718878564
0.3719577031
0.3719524402
0.3719456134
0.3719377725
0.3719294924
0.3719212518
0.3719133947
0.3719061368
0.3718995895
0.3718937873
0.3718887154
0.3718843302
0.3718805814
0.3718774625
0.3718752055
0.3719470967
0.3719340957
0.3719199543
0.3719065043
0.3718947545
0.3718850588
0.3718773716
0.3718714539
0.3718670027
0.3718637202
0.3718613448
0.37185966
0.3718584936
0.3718577153
0.3718572529
0.3719068533
0.3718698069
0.3718394279
0.3718184659
0.3718060856
0.3718002659
0.371798965
0.3718005341
0.371803778
0.371807884
0.3718123275
0.3718167804
0.3718210322
0.3718248818
0.3718278329
0.3716824984
0.3716441054
0.3716376786
0.3716486
0.3716672836
0.3716883109
0.3717089307
0.3717279136
0.3717448341
0.3717596605
0.3717725303
0.3717836131
0.3717929284
0.371799737
0.3713141972
0.3713620044
0.3714357358
0.3715065122
0.3715666916
0.3716158054
0.3716554349
0.3716874543
0.3717134993
0.371734867
0.3717525432
0.3717672338
0.37177927
0.371787925
0.3716825032
0.3716441091
0.3716376817
0.3716486026
0.3716672858
0.371688313
0.371708933
0.3717279162
0.3717448362
0.3717596625
0.3717725326
0.3717836148
0.37179293
0.371799738
0.3718698072
0.3718394285
0.3718184676
0.3718060877
0.371800268
0.3717989675
0.3718005368
0.3718037803
0.3718078865
0.3718123299
0.3718167827
0.371821034
0.371824884
0.3718278351
0.3719340958
0.3719199548
0.3719065047
0.3718947553
0.3718850602
0.3718773732
0.3718714557
0.3718670047
0.3718637223
0.3718613466
0.3718596617
0.3718584958
0.3718577175
0.3718572551
0.37195244
0.3719456134
0.371937773
0.3719294927
0.3719212525
0.3719133958
0.3719061382
0.3718995909
0.3718937893
0.3718887176
0.371884332
0.3718805833
0.3718774645
0.3718752079
0.3719557443
0.3719490666
0.3719408979
0.3719319843
0.3719229556
0.3719142661
0.3719062073
0.3718989376
0.3718925185
0.3718869439
0.3718821684
0.3718781233
0.3718747387
0.3718719802
0.3718700179
0.3719381312
0.3719201768
0.3719031453
0.3718887154
0.3718772699
0.3718685822
0.3718622108
0.3718576848
0.3718545829
0.3718525535
0.3718513179
0.3718506588
0.3718504079
0.3718504245
0.3718505577
0.3718519482
0.3717982309
0.3717679589
0.3717549556
0.3717526631
0.371756391
0.3717631828
0.3717712861
0.3717797037
0.3717878907
0.371795568
0.3718026063
0.3718089407
0.3718144535
0.3718185795
0.3713799963
0.3713142018
0.3713620072
0.3714357376
0.3715065136
0.3715666925
0.3716158057
0.3716554352
0.3716874543
0.3717134993
0.3717348672
0.3717525436
0.3717672342
0.3717792703
0.3717879255
0.3697267769
0.3705335409
0.3709805738
0.3712423946
0.3714046093
0.3715107423
0.3715837671
0.3716362935
0.3716755279
0.3717057582
0.3717296309
0.3717488005
0.37176412
0.3717749641
0.3713141988
0.3713620095
0.3714357411
0.3715065168
0.3715666955
0.3716158086
0.371655438
0.3716874571
0.3717135018
0.3717348693
0.3717525457
0.3717672361
0.3717792721
0.3717879268
0.3717982301
0.3717679596
0.3717549577
0.3717526658
0.3717563935
0.3717631855
0.3717712893
0.3717797067
0.3717878936
0.371795571
0.3718026091
0.3718089433
0.3718144561
0.3718185817
0.3719201763
0.3719031449
0.3718887161
0.3718772709
0.3718685837
0.3718622126
0.3718576874
0.3718545852
0.371852556
0.3718513203
0.3718506615
0.3718504104
0.3718504269
0.37185056
0.3719490664
0.3719408977
0.3719319843
0.3719229556
0.3719142668
0.3719062083
0.3718989388
0.3718925197
0.3718869458
0.3718821703
0.3718781258
0.3718747409
0.3718719827
0.3718700208
0.3719577031
0.3719524404
0.3719456133
0.3719377729
0.3719294925
0.3719212517
0.3719133951
0.3719061374
0.3718995898
0.371893788
0.371888716
0.3718843307
0.3718805824
0.3718774634
0.3718752063
0.371947097
0.3719340963
0.3719199549
0.3719065047
0.3718947553
0.3718850601
0.3718773729
0.3718714548
0.3718670038
0.3718637213
0.3718613456
0.3718596606
0.3718584947
0.3718577164
0.3718572538
0.371906855
0.3718698085
0.3718394296
0.3718184678
0.3718060877
0.3718002678
0.3717989671
0.3718005363
0.3718037795
0.3718078854
0.3718123291
0.3718167824
0.3718210339
0.3718248836
0.3718278347
0.3717684921
0.3716825065
0.371644112
0.3716376838
0.3716486045
0.3716672871
0.371688314
0.3717089337
0.3717279167
0.3717448368
0.3717596631
0.3717725332
0.3717836152
0.3717929305
0.3717997389
0.3713799975
0.3713142034
0.3713620126
0.3714357432
0.3715065185
0.3715666969
0.3716158098
0.3716554387
0.3716874577
0.3717135022
0.3717348697
0.3717525458
0.3717672363
0.3717792723
0.371787927
0.3717684909
0.3716825068
0.3716441133
0.371637686
0.371648607
0.3716672895
0.3716883164
0.3717089361
0.3717279189
0.3717448387
0.371759665
0.3717725348
0.3717836169
0.3717929319
0.3717997402
0.3718698065
0.3718394292
0.3718184688
0.3718060893
0.3718002699
0.3717989695
0.3718005387
0.3718037823
0.3718078881
0.3718123317
0.3718167846
0.3718210361
0.3718248857
0.3718278366
0.3719340959
0.3719199548
0.3719065052
0.3718947562
0.3718850607
0.371877374
0.3718714566
0.3718670056
0.3718637231
0.3718613479
0.3718596631
0.3718584971
0.3718577187
0.3718572562
0.3719524402
0.3719456132
0.3719377728
0.3719294932
0.3719212524
0.3719133959
0.3719061386
0.3718995916
0.3718937899
0.371888718
0.371884333
0.3718805845
0.3718774658
0.3718752089
0.3719603085
0.3719571564
0.3719527686
0.371947337
0.3719411676
0.3719345924
0.3719279094
0.3719213551
0.371915098
0.3719092456
0.3719038552
0.3718989526
0.3718945522
0.3718907233
0.3718878558
0.3719556703
0.3719488195
0.3719403296
0.3719310983
0.3719219086
0.3719132967
0.371905556
0.3718987931
0.3718929945
0.3718880805
0.3718839422
0.371880468
0.3718775603
0.3718751728
0.3718734563
0.3719414506
0.3719243474
0.3719063954
0.3718901341
0.3718767989
0.3718666464
0.3718593861
0.3718545025
0.3718514471
0.3718497298
0.3718489526
0.3718488088
0.3718490673
0.3718495426
0.3718500201
0.3719068552
0.3718698091
0.3718394307
0.3718184691
0.3718060892
0.3718002695
0.3717989684
0.3718005376
0.3718037812
0.3718078874
0.3718123306
0.3718167835
0.3718210349
0.3718248847
0.3718278358
0.3718519483
0.3717982326
0.371767962
0.3717549598
0.3717526672
0.3717563947
0.3717631865
0.3717712901
0.3717797075
0.3717878945
0.3717955716
0.3718026096
0.3718089436
0.3718144564
0.3718185816
0.3719068553
0.3718698094
0.3718394313
0.3718184701
0.3718060904
0.3718002708
0.3717989698
0.3718005389
0.3718037824
0.3718078882
0.3718123319
0.3718167848
0.3718210363
0.3718248858
0.3718278371
0.3719414503
0.3719243472
0.3719063957
0.3718901346
0.3718767999
0.3718666476
0.3718593876
0.3718545041
0.3718514489
0.3718497315
0.3718489543
0.3718488106
0.3718490689
0.3718495445
0.3718500221
0.3719488192
0.3719403297
0.3719310985
0.3719219089
0.3719132971
0.371905557
0.3718987944
0.3718929961
0.3718880823
0.3718839443
0.3718804698
0.3718775622
0.3718751749
0.3718734587
0.3719571564
0.3719527688
0.3719473372
0.371941168
0.3719345928
0.3719279099
0.3719213561
0.3719150993
0.371909247
0.3719038571
0.3718989546
0.3718945538
0.3718907252
0.3718878581
0.3719620401
0.3719603692
0.3719578922
0.3719545916
0.3719505436
0.3719458876
0.3719407926
0.3719354307
0.3719299588
0.3719245095
0.3719191874
0.3719140761
0.3719092558
0.3719048798
0.371901501
0.3719602625
0.3719570882
0.3719527283
0.3719474098
0.3719414521
0.3719351769
0.3719288553
0.3719226894
0.3719168142
0.3719113095
0.3719062143
0.371901543
0.371897308
0.3718935834
0.3718907693
0.3719556705
0.3719488197
0.3719403299
0.3719310989
0.3719219089
0.3719132971
0.3719055566
0.3718987939
0.3718929955
0.3718880813
0.3718839431
0.3718804687
0.3718775612
0.3718751738
0.3718734576
0.3719470973
0.3719340963
0.3719199554
0.3719065058
0.3718947565
0.3718850611
0.371877374
0.3718714563
0.3718670053
0.3718637231
0.3718613475
0.3718596626
0.3718584965
0.3718577185
0.371857256
0.3719381315
0.3719201773
0.3719031461
0.3718887171
0.3718772719
0.3718685843
0.3718622134
0.371857688
0.3718545861
0.3718525565
0.3718513209
0.371850662
0.3718504107
0.3718504274
0.3718505607
0.3719470973
0.3719340968
0.3719199557
0.3719065061
0.3718947572
0.3718850617
0.3718773749
0.3718714575
0.3718670062
0.3718637238
0.3718613483
0.3718596635
0.3718584972
0.371857719
0.3718572567
0.3719556706
0.3719488197
0.3719403302
0.371931099
0.3719219093
0.3719132977
0.3719055574
0.371898795
0.3718929965
0.3718880825
0.3718839441
0.3718804698
0.3718775624
0.3718751752
0.3718734589
0.3719602622
0.3719570882
0.3719527287
0.37194741
0.3719414524
0.3719351773
0.371928856
0.3719226903
0.3719168153
0.3719113104
0.3719062153
0.3719015441
0.3718973092
0.3718935847
0.3718907705
0.3719603693
0.3719578923
0.3719545919
0.371950544
0.3719458875
0.3719407927
0.3719354313
0.3719299598
0.3719245103
0.3719191886
0.3719140775
0.3719092572
0.3719048809
0.371901502
0.3719628127
0.3719618219
0.3719602801
0.3719581008
0.3719552564
0.3719517771
0.3719477392
0.3719432502
0.3719384329
0.3719334113
0.3719283024
0.3719232142
0.3719182622
0.371913649
0.3719100229
0.3719620402
0.3719603692
0.3719578927
0.3719545921
0.3719505436
0.3719458874
0.3719407928
0.3719354309
0.3719299592
0.3719245098
0.3719191879
0.3719140765
0.3719092559
0.37190488
0.3719015012
0.3719603087
0.3719571565
0.371952769
0.3719473375
0.3719411682
0.3719345928
0.3719279096
0.3719213558
0.371915099
0.3719092467
0.3719038564
0.3718989535
0.3718945531
0.3718907242
0.3718878569
0.3719577032
0.3719524405
0.3719456136
0.3719377734
0.3719294936
0.3719212532
0.3719133964
0.3719061392
0.3718995919
0.3718937899
0.3718887181
0.3718843329
0.3718805843
0.3718774652
0.3718752083
0.3719557446
0.3719490671
0.3719408982
0.3719319851
0.3719229565
0.3719142676
0.3719062094
0.3718989402
0.3718925206
0.3718869465
0.3718821711
0.3718781263
0.3718747416
0.3718719834
0.3718700213
0.3719577031
0.3719524405
0.371945614
0.3719377736
0.3719294936
0.3719212532
0.3719133968
0.3719061396
0.3718995922
0.3718937903
0.3718887184
0.3718843334
0.371880585
0.371877466
0.3718752089
0.3719603087
0.3719571565
0.3719527691
0.3719473377
0.3719411683
0.3719345929
0.3719279105
0.3719213566
0.3719150996
0.3719092472
0.3719038571
0.3718989547
0.3718945542
0.3718907254
0.3718878585
0.3719620404
0.3719603694
0.3719578926
0.3719545919
0.371950544
0.3719458878
0.3719407931
0.3719354316
0.37192996
0.3719245105
0.3719191886
0.3719140774
0.3719092571
0.3719048812
0.3719015027
0.3719628126
0.3719618219
0.3719602799
0.3719581009
0.3719552566
0.3719517774
0.3719477396
0.3719432508
0.3719384334
0.3719334117
0.3719283031
0.3719232152
0.3719182634
0.3719136503
0.3719100243
)
;

boundaryField
{
    top
    {
        type            zeroGradient;
    }
    bottom
    {
        type            zeroGradient;
    }
    side-walls
    {
        type            zeroGradient;
    }
    inlet
    {
        type            zeroGradient;
    }
    outlet
    {
        type            zeroGradient;
    }
    procBoundary1to0
    {
        type            processor;
        value           nonuniform List<scalar> 
97
(
0.3719628126
0.3719628126
0.37196204
0.3719603084
0.3719577034
0.3719557447
0.3719577033
0.3719603086
0.3719620401
0.3719628125
0.371963027
0.3719602619
0.3719602619
0.3719602619
0.3719556702
0.3719470974
0.3719381319
0.3719470975
0.3719556704
0.371960262
0.37196204
0.3719622439
0.3719602112
0.3719414505
0.3719414505
0.3719414505
0.3719068556
0.3718519525
0.3719068571
0.3719414514
0.3719556705
0.3719603084
0.371961094
0.3719566219
0.3719409507
0.3717684892
0.3717684892
0.3717684892
0.3713800244
0.3717684991
0.3719068568
0.3719470978
0.3719577032
0.3719602713
0.3719532281
0.3719235018
0.3718055636
0.3681889809
0.3681889809
0.3681889809
0.3713800247
0.3713800247
0.3718519522
0.3719381322
0.3719557446
0.3719610939
0.3719566219
0.3719409504
0.3718953
0.3718055626
0.3718953004
0.3719068542
0.3719068542
0.3719068542
0.3719470972
0.3719577032
0.3719622435
0.3719602113
0.3719542451
0.3719409507
0.3719235016
0.3719409506
0.3719542457
0.3719556703
0.3719556703
0.3719556703
0.3719603088
0.371963027
0.3719622272
0.3719602115
0.3719566221
0.3719532284
0.3719566222
0.3719602116
0.371962227
0.3719620402
0.3719620402
0.3719620402
0.3719633809
0.3719630271
0.3719622438
0.3719610943
0.3719602717
0.3719610944
0.3719622441
0.3719630273
0.3719633812
)
;
    }
}


// ************************************************************************* //
