/*--------------------------------*- C++ -*----------------------------------*\
| =========                 |                                                 |
| \\      /  F ield         | OpenFOAM: The Open Source CFD Toolbox           |
|  \\    /   O peration     | Version:  4.x                                   |
|   \\  /    A nd           | Web:      www.OpenFOAM.org                      |
|    \\/     M anipulation  |                                                 |
\*---------------------------------------------------------------------------*/
FoamFile
{
    version     2.0;
    format      ascii;
    class       volScalarField;
    location    "9000";
    object      Cpv;
}
// * * * * * * * * * * * * * * * * * * * * * * * * * * * * * * * * * * * * * //

dimensions      [0 2 -2 -1 0 0 0];

internalField   nonuniform List<scalar> 
1174
(
1210.519229
1210.519345
1210.519518
1210.519763
1210.520045
1210.520383
1210.52075
1210.521149
1210.521545
1210.521969
1210.52238
1210.522796
1210.523169
1210.523459
1210.518569
1210.518772
1210.51904
1210.51937
1210.519752
1210.520161
1210.520579
1210.521006
1210.521458
1210.521903
1210.522336
1210.522735
1210.523128
1210.523428
1210.519289
1210.519654
1210.520108
1210.520642
1210.521168
1210.521703
1210.522222
1210.522741
1210.523239
1210.523703
1210.524096
1210.524482
1210.524787
1210.52503
1210.519783
1210.520335
1210.52098
1210.521658
1210.52237
1210.522995
1210.523582
1210.524123
1210.524607
1210.525038
1210.5254
1210.525674
1210.52593
1210.526112
1210.520422
1210.521063
1210.521761
1210.522503
1210.523205
1210.523858
1210.524446
1210.524987
1210.525438
1210.525826
1210.526156
1210.526455
1210.526674
1210.526864
1210.520053
1210.520637
1210.521263
1210.521956
1210.522625
1210.523269
1210.523867
1210.524412
1210.524914
1210.52533
1210.525694
1210.526001
1210.526257
1210.52644
1210.519241
1210.519591
1210.520052
1210.520554
1210.521068
1210.521631
1210.522197
1210.522673
1210.523153
1210.523606
1210.524009
1210.524389
1210.5247
1210.524938
1210.519462
1210.519661
1210.519939
1210.520283
1210.520695
1210.521071
1210.521478
1210.521958
1210.522365
1210.522792
1210.523214
1210.52361
1210.523984
1210.524249
1210.519395
1210.519527
1210.519726
1210.51995
1210.520244
1210.520589
1210.520949
1210.521338
1210.521736
1210.522159
1210.52259
1210.522987
1210.523346
1210.523657
1210.518606
1210.518743
1210.518947
1210.519196
1210.519521
1210.519887
1210.520312
1210.520736
1210.521182
1210.521639
1210.522081
1210.522502
1210.522865
1210.523207
1210.523496
1210.520164
1210.520522
1210.520952
1210.521448
1210.521949
1210.522494
1210.523016
1210.523513
1210.523991
1210.524412
1210.524793
1210.525116
1210.525421
1210.525629
1210.521187
1210.521873
1210.522634
1210.523426
1210.524144
1210.524777
1210.525343
1210.525814
1210.526185
1210.526511
1210.526767
1210.527005
1210.527185
1210.527317
1210.521325
1210.522495
1210.523595
1210.524546
1210.525328
1210.525948
1210.526438
1210.526803
1210.527077
1210.527278
1210.527438
1210.527532
1210.527576
1210.527619
1210.522778
1210.524211
1210.525401
1210.526325
1210.527048
1210.527556
1210.527928
1210.528158
1210.528338
1210.528455
1210.528551
1210.52857
1210.528565
1210.528562
1210.520793
1210.521977
1210.523098
1210.524052
1210.524839
1210.525478
1210.525985
1210.526344
1210.526594
1210.526781
1210.526922
1210.527013
1210.527074
1210.527122
1210.520983
1210.521686
1210.522462
1210.52321
1210.523925
1210.524565
1210.525087
1210.525571
1210.525984
1210.526297
1210.526595
1210.526843
1210.527044
1210.527185
1210.518622
1210.518994
1210.519422
1210.519919
1210.520424
1210.52097
1210.521474
1210.521958
1210.522389
1210.522795
1210.523191
1210.523523
1210.523826
1210.524059
1210.520253
1210.52044
1210.520727
1210.521056
1210.521458
1210.521864
1210.522324
1210.522771
1210.523225
1210.523676
1210.524094
1210.524502
1210.524857
1210.525116
1210.519369
1210.519643
1210.520015
1210.520471
1210.520971
1210.521505
1210.522068
1210.522608
1210.523139
1210.523594
1210.524014
1210.524422
1210.524777
1210.525102
1210.52532
1210.518634
1210.519152
1210.519846
1210.520607
1210.521335
1210.522056
1210.522679
1210.523219
1210.523694
1210.524089
1210.524429
1210.524724
1210.524979
1210.525205
1210.525331
1210.521761
1210.523208
1210.524541
1210.525609
1210.526433
1210.527019
1210.527438
1210.527705
1210.527845
1210.527905
1210.527932
1210.527908
1210.527875
1210.527832
1210.526712
1210.529169
1210.530885
1210.531872
1210.53234
1210.532439
1210.532297
1210.532037
1210.53169
1210.531353
1210.530971
1210.530627
1210.530313
1210.530066
1210.531561
1210.534049
1210.535133
1210.535346
1210.535041
1210.534486
1210.533819
1210.533131
1210.532438
1210.531819
1210.531242
1210.530724
1210.530284
1210.529925
1210.526308
1210.52878
1210.53053
1210.531559
1210.532019
1210.532124
1210.531956
1210.5317
1210.531359
1210.530995
1210.530615
1210.530272
1210.529995
1210.529698
1210.522301
1210.523751
1210.525086
1210.526159
1210.52699
1210.527572
1210.527972
1210.528218
1210.528365
1210.528417
1210.52842
1210.528389
1210.52835
1210.528307
1210.521164
1210.521848
1210.522597
1210.523349
1210.52408
1210.524687
1210.525228
1210.525701
1210.526091
1210.526429
1210.526696
1210.526952
1210.527153
1210.527315
1210.518615
1210.518995
1210.519423
1210.51994
1210.520471
1210.52104
1210.521607
1210.522106
1210.522585
1210.523045
1210.523429
1210.523787
1210.524105
1210.524356
1210.519872
1210.52029
1210.520843
1210.521507
1210.522177
1210.522853
1210.52352
1210.524101
1210.524628
1210.52509
1210.525504
1210.525875
1210.526214
1210.526468
1210.526665
1210.521103
1210.522173
1210.523359
1210.524472
1210.525442
1210.526232
1210.526843
1210.527328
1210.527728
1210.528002
1210.528223
1210.528361
1210.528472
1210.528544
1210.528583
1210.523359
1210.526402
1210.528884
1210.53057
1210.531561
1210.532032
1210.532105
1210.531971
1210.53173
1210.531421
1210.531047
1210.530675
1210.530323
1210.530005
1210.529772
1210.54211
1210.545246
1210.545757
1210.544879
1210.543334
1210.541607
1210.539903
1210.538347
1210.536949
1210.535709
1210.534647
1210.533756
1210.532992
1210.532449
1210.573191
1210.56928
1210.563238
1210.557453
1210.552524
1210.548494
1210.545238
1210.542613
1210.54046
1210.538725
1210.53729
1210.536096
1210.535086
1210.534387
1210.541415
1210.544538
1210.545071
1210.54417
1210.542631
1210.540911
1210.53925
1210.537727
1210.536348
1210.535104
1210.534055
1210.533153
1210.532381
1210.531809
1210.526955
1210.529425
1210.531146
1210.532178
1210.532656
1210.532756
1210.532633
1210.532407
1210.532099
1210.531729
1210.531335
1210.530961
1210.530645
1210.530419
1210.520253
1210.52143
1210.522521
1210.52348
1210.524267
1210.524907
1210.525392
1210.525764
1210.52602
1210.526198
1210.526343
1210.526434
1210.526508
1210.526525
1210.519516
1210.520083
1210.520745
1210.52141
1210.52208
1210.522732
1210.523331
1210.523866
1210.524342
1210.524754
1210.525089
1210.525403
1210.525666
1210.525869
1210.51972
1210.520271
1210.520943
1210.521682
1210.522426
1210.523125
1210.523772
1210.524341
1210.524893
1210.525341
1210.525745
1210.526042
1210.526332
1210.526546
1210.526704
1210.520643
1210.522109
1210.523504
1210.52468
1210.5256
1210.526317
1210.526828
1210.527171
1210.527426
1210.527619
1210.527704
1210.527747
1210.52777
1210.527767
1210.527764
1210.528017
1210.532419
1210.534879
1210.535932
1210.536132
1210.53587
1210.535303
1210.534623
1210.533937
1210.533274
1210.532655
1210.532064
1210.531555
1210.531124
1210.530773
1210.56715
1210.572537
1210.568606
1210.562603
1210.556804
1210.551842
1210.547794
1210.544558
1210.541933
1210.539812
1210.538097
1210.536656
1210.535458
1210.534487
1210.533762
1210.203347
1210.137067
1210.100224
1210.078542
1210.064973
1210.055986
1210.049727
1210.045132
1210.041634
1210.038845
1210.036571
1210.034708
1210.033164
1210.032002
1210.572005
1210.568075
1210.562054
1210.556247
1210.551317
1210.547284
1210.54404
1210.541412
1210.539261
1210.537531
1210.536085
1210.534878
1210.533892
1210.533148
1210.532827
1210.535304
1210.536381
1210.536572
1210.536279
1210.53572
1210.535049
1210.534344
1210.533677
1210.533046
1210.532458
1210.531963
1210.531508
1210.53119
1210.522892
1210.524254
1210.525468
1210.526387
1210.527097
1210.527618
1210.527988
1210.528215
1210.528365
1210.528443
1210.528529
1210.528522
1210.528531
1210.528532
1210.521204
1210.52189
1210.522626
1210.523362
1210.524077
1210.524739
1210.525326
1210.525859
1210.526334
1210.526732
1210.52708
1210.527336
1210.527564
1210.52773
1210.519668
1210.520093
1210.520644
1210.521289
1210.521971
1210.522628
1210.52326
1210.523871
1210.524383
1210.524856
1210.525286
1210.525652
1210.525946
1210.526222
1210.526399
1210.520325
1210.521392
1210.522568
1210.523634
1210.524583
1210.525391
1210.525999
1210.526489
1210.526852
1210.527113
1210.527296
1210.527422
1210.527514
1210.527583
1210.527628
1210.52417
1210.527176
1210.529663
1210.531388
1210.532401
1210.532904
1210.533013
1210.532885
1210.532611
1210.532283
1210.5319
1210.531563
1210.531197
1210.530895
1210.530649
1210.534057
1210.541129
1210.54429
1210.544805
1210.5439
1210.542371
1210.540653
1210.538962
1210.537438
1210.536055
1210.534816
1210.533757
1210.532846
1210.532088
1210.531517
1210.567256
1210.572658
1210.568763
1210.562694
1210.556877
1210.551955
1210.547952
1210.5447
1210.542098
1210.539978
1210.538248
1210.536808
1210.535613
1210.534629
1210.533915
1210.535065
1210.542146
1210.54525
1210.545758
1210.544859
1210.543318
1210.541621
1210.539944
1210.538382
1210.53701
1210.53579
1210.534758
1210.533853
1210.533072
1210.532532
1210.526031
1210.5285
1210.530217
1210.531209
1210.531704
1210.53181
1210.531689
1210.531408
1210.531096
1210.530754
1210.530384
1210.530031
1210.52971
1210.52946
1210.521706
1210.522873
1210.523976
1210.524941
1210.52569
1210.526329
1210.526825
1210.5272
1210.527475
1210.527652
1210.52781
1210.527895
1210.527958
1210.527985
1210.520284
1210.520852
1210.521481
1210.522151
1210.522807
1210.52344
1210.524051
1210.524613
1210.525073
1210.52549
1210.525854
1210.526172
1210.526421
1210.526618
1210.519352
1210.519628
1210.519971
1210.520411
1210.520922
1210.521485
1210.522044
1210.522591
1210.523103
1210.523596
1210.524029
1210.524442
1210.524807
1210.525131
1210.525325
1210.520279
1210.520831
1210.521548
1210.522287
1210.523076
1210.523756
1210.524378
1210.524922
1210.525379
1210.525756
1210.526082
1210.526365
1210.526607
1210.526793
1210.526914
1210.520769
1210.522154
1210.523606
1210.524952
1210.526027
1210.526869
1210.527456
1210.527859
1210.528156
1210.52829
1210.528363
1210.528363
1210.52834
1210.528297
1210.528272
1210.523755
1210.526817
1210.529324
1210.531036
1210.532064
1210.532564
1210.532663
1210.532533
1210.532294
1210.531979
1210.531627
1210.531247
1210.530896
1210.530567
1210.530333
1210.527722
1210.532115
1210.534599
1210.535636
1210.535812
1210.535515
1210.534945
1210.534269
1210.533576
1210.532915
1210.532298
1210.531705
1210.531184
1210.530692
1210.530341
1210.523923
1210.526966
1210.529478
1210.53121
1210.532225
1210.532672
1210.53277
1210.532642
1210.532361
1210.532045
1210.531684
1210.531303
1210.530951
1210.530625
1210.530364
1210.521277
1210.522661
1210.524117
1210.52546
1210.526579
1210.527392
1210.528004
1210.528379
1210.528617
1210.52876
1210.528825
1210.528819
1210.528802
1210.528758
1210.52875
1210.519647
1210.52033
1210.521083
1210.52184
1210.522536
1210.523176
1210.523708
1210.524202
1210.524618
1210.524948
1210.525208
1210.525422
1210.525629
1210.525763
1210.518907
1210.519254
1210.519701
1210.520217
1210.520732
1210.52128
1210.521816
1210.522311
1210.522801
1210.52323
1210.523617
1210.523996
1210.524303
1210.524545
1210.518936
1210.519055
1210.519255
1210.519547
1210.519861
1210.520248
1210.520669
1210.521071
1210.521555
1210.521997
1210.522432
1210.522867
1210.523277
1210.523637
1210.523918
1210.518765
1210.519025
1210.5194
1210.519845
1210.520312
1210.52085
1210.521364
1210.521897
1210.522349
1210.522791
1210.523197
1210.523581
1210.523921
1210.524225
1210.524446
1210.519649
1210.520227
1210.520893
1210.521684
1210.522429
1210.523174
1210.5238
1210.52435
1210.524815
1210.525199
1210.525564
1210.525817
1210.526086
1210.526288
1210.526455
1210.520195
1210.521256
1210.522419
1210.523513
1210.52447
1210.525267
1210.525902
1210.526387
1210.526769
1210.527041
1210.527215
1210.527355
1210.527467
1210.527551
1210.527605
1210.521131
1210.522601
1210.524002
1210.525218
1210.526158
1210.526826
1210.527326
1210.527687
1210.527942
1210.528126
1210.52823
1210.528293
1210.528313
1210.528315
1210.528286
1210.519645
1210.520733
1210.521873
1210.522964
1210.523909
1210.524713
1210.525333
1210.525828
1210.526203
1210.526483
1210.52668
1210.526783
1210.52688
1210.526941
1210.527007
1210.519565
1210.520115
1210.520809
1210.521558
1210.52231
1210.523
1210.523622
1210.524172
1210.524622
1210.525008
1210.525331
1210.52564
1210.52588
1210.526075
1210.526198
1210.518753
1210.519004
1210.519359
1210.519809
1210.520287
1210.520794
1210.521321
1210.521846
1210.522329
1210.522752
1210.523165
1210.523534
1210.523866
1210.524176
1210.524415
1210.519565
1210.51979
1210.520066
1210.52042
1210.520764
1210.521173
1210.521603
1210.522038
1210.522472
1210.522903
1210.523345
1210.523717
1210.524057
1210.524313
1210.519113
1210.519194
1210.519324
1210.519499
1210.519721
1210.520029
1210.520366
1210.520732
1210.52115
1210.521548
1210.521977
1210.522381
1210.522779
1210.523179
1210.523482
1210.518868
1210.519011
1210.519257
1210.519522
1210.519822
1210.520187
1210.520619
1210.521035
1210.52149
1210.521926
1210.522362
1210.522799
1210.523187
1210.523551
1210.523807
1210.51957
1210.519837
1210.52017
1210.520628
1210.521116
1210.521655
1210.522174
1210.522734
1210.523263
1210.523748
1210.524185
1210.524578
1210.524942
1210.525245
1210.525471
1210.518064
1210.518478
1210.519035
1210.519708
1210.52038
1210.52107
1210.521683
1210.522305
1210.522856
1210.523335
1210.523727
1210.524076
1210.524361
1210.524617
1210.5248
1210.519155
1210.519729
1210.520399
1210.52111
1210.521865
1210.522592
1210.523254
1210.52385
1210.52437
1210.524798
1210.525192
1210.52551
1210.525801
1210.526033
1210.526199
1210.51939
1210.519825
1210.520387
1210.521023
1210.521706
1210.522343
1210.523002
1210.523605
1210.524149
1210.524609
1210.525009
1210.525384
1210.525678
1210.525924
1210.526121
1210.519227
1210.519482
1210.519835
1210.520289
1210.52079
1210.521345
1210.521897
1210.522433
1210.522942
1210.523423
1210.523842
1210.524253
1210.524626
1210.524922
1210.525135
1210.51891
1210.519046
1210.519253
1210.5195
1210.519831
1210.520222
1210.520668
1210.521099
1210.521563
1210.522007
1210.522439
1210.522865
1210.523255
1210.523617
1210.52391
1210.518727
1210.518811
1210.518937
1210.519133
1210.519356
1210.519638
1210.519966
1210.52035
1210.520737
1210.521123
1210.521566
1210.521992
1210.522399
1210.522784
1210.523087
)
;

boundaryField
{
    top
    {
        type            calculated;
        value           nonuniform List<scalar> 
127
(
1210.518727
1210.519395
1210.520253
1210.518615
1210.519516
1210.521204
1210.520284
1210.518907
1210.519565
1210.518811
1210.519527
1210.52044
1210.518995
1210.520083
1210.52189
1210.520852
1210.519254
1210.51979
1210.518937
1210.519726
1210.520727
1210.519423
1210.520745
1210.522626
1210.521481
1210.519701
1210.520066
1210.519133
1210.51995
1210.521056
1210.51994
1210.52141
1210.523362
1210.522151
1210.520217
1210.52042
1210.519356
1210.520244
1210.521458
1210.520471
1210.52208
1210.524077
1210.522807
1210.520732
1210.520764
1210.519638
1210.520589
1210.521864
1210.52104
1210.522732
1210.524739
1210.52344
1210.52128
1210.521173
1210.519966
1210.520949
1210.522324
1210.521607
1210.523331
1210.525326
1210.524051
1210.521816
1210.521603
1210.52035
1210.521338
1210.522771
1210.522106
1210.523866
1210.525859
1210.524613
1210.522311
1210.522038
1210.520737
1210.521736
1210.523225
1210.522585
1210.524342
1210.526334
1210.525073
1210.522801
1210.522472
1210.521123
1210.522159
1210.523676
1210.523045
1210.524754
1210.526732
1210.52549
1210.52323
1210.522903
1210.521566
1210.52259
1210.524094
1210.523429
1210.525089
1210.52708
1210.525854
1210.523617
1210.523345
1210.521992
1210.522987
1210.524502
1210.523787
1210.525403
1210.527336
1210.526172
1210.523996
1210.523717
1210.522399
1210.523346
1210.524857
1210.524105
1210.525666
1210.527564
1210.526421
1210.524303
1210.524057
1210.522784
1210.523657
1210.525116
1210.524356
1210.525869
1210.52773
1210.526618
1210.524545
1210.524313
1210.523087
)
;
    }
    bottom
    {
        type            calculated;
        value           nonuniform List<scalar> 
134
(
1210.518606
1210.519369
1210.519872
1210.51972
1210.519668
1210.519352
1210.518936
1210.519113
1210.519229
1210.518743
1210.519643
1210.52029
1210.520271
1210.520093
1210.519628
1210.519055
1210.519194
1210.519345
1210.518947
1210.520015
1210.520843
1210.520943
1210.520644
1210.519971
1210.519255
1210.519324
1210.519518
1210.519196
1210.520471
1210.521507
1210.521682
1210.521289
1210.520411
1210.519547
1210.519499
1210.519763
1210.519521
1210.520971
1210.522177
1210.522426
1210.521971
1210.520922
1210.519861
1210.519721
1210.520045
1210.519887
1210.521505
1210.522853
1210.523125
1210.522628
1210.521485
1210.520248
1210.520029
1210.520383
1210.520312
1210.522068
1210.52352
1210.523772
1210.52326
1210.522044
1210.520669
1210.520366
1210.52075
1210.520736
1210.522608
1210.524101
1210.524341
1210.523871
1210.522591
1210.521071
1210.520732
1210.521149
1210.521182
1210.523139
1210.524628
1210.524893
1210.524383
1210.523103
1210.521555
1210.52115
1210.521545
1210.521639
1210.523594
1210.52509
1210.525341
1210.524856
1210.523596
1210.521997
1210.521548
1210.521969
1210.522081
1210.524014
1210.525504
1210.525745
1210.525286
1210.524029
1210.522432
1210.521977
1210.52238
1210.522502
1210.524422
1210.525875
1210.526042
1210.525652
1210.524442
1210.522867
1210.522381
1210.522796
1210.522865
1210.524777
1210.526214
1210.526332
1210.525946
1210.524807
1210.523277
1210.522779
1210.523169
1210.523207
1210.525102
1210.526468
1210.526546
1210.526222
1210.525131
1210.523637
1210.523179
1210.523459
1210.523496
1210.52532
1210.526665
1210.526704
1210.526399
1210.525325
1210.523918
1210.523482
)
;
    }
    side-walls
    {
        type            calculated;
        value           nonuniform List<scalar> 
261
(
1210.519229
1210.518569
1210.519289
1210.519783
1210.520422
1210.520053
1210.519241
1210.519462
1210.519395
1210.519345
1210.518772
1210.519654
1210.520335
1210.521063
1210.520637
1210.519591
1210.519661
1210.519527
1210.519518
1210.51904
1210.520108
1210.52098
1210.521761
1210.521263
1210.520052
1210.519939
1210.519726
1210.519763
1210.51937
1210.520642
1210.521658
1210.522503
1210.521956
1210.520554
1210.520283
1210.51995
1210.520045
1210.519752
1210.521168
1210.52237
1210.523205
1210.522625
1210.521068
1210.520695
1210.520244
1210.520383
1210.520161
1210.521703
1210.522995
1210.523858
1210.523269
1210.521631
1210.521071
1210.520589
1210.52075
1210.520579
1210.522222
1210.523582
1210.524446
1210.523867
1210.522197
1210.521478
1210.520949
1210.521149
1210.521006
1210.522741
1210.524123
1210.524987
1210.524412
1210.522673
1210.521958
1210.521338
1210.521545
1210.521458
1210.523239
1210.524607
1210.525438
1210.524914
1210.523153
1210.522365
1210.521736
1210.521969
1210.521903
1210.523703
1210.525038
1210.525826
1210.52533
1210.523606
1210.522792
1210.522159
1210.52238
1210.522336
1210.524096
1210.5254
1210.526156
1210.525694
1210.524009
1210.523214
1210.52259
1210.522796
1210.522735
1210.524482
1210.525674
1210.526455
1210.526001
1210.524389
1210.52361
1210.522987
1210.523169
1210.523128
1210.524787
1210.52593
1210.526674
1210.526257
1210.5247
1210.523984
1210.523346
1210.523459
1210.523428
1210.52503
1210.526112
1210.526864
1210.52644
1210.524938
1210.524249
1210.523657
1210.519113
1210.518868
1210.51957
1210.518064
1210.519155
1210.51939
1210.519227
1210.51891
1210.518727
1210.519194
1210.519011
1210.519837
1210.518478
1210.519729
1210.519825
1210.519482
1210.519046
1210.518811
1210.519324
1210.519257
1210.52017
1210.519035
1210.520399
1210.520387
1210.519835
1210.519253
1210.518937
1210.519499
1210.519522
1210.520628
1210.519708
1210.52111
1210.521023
1210.520289
1210.5195
1210.519133
1210.519721
1210.519822
1210.521116
1210.52038
1210.521865
1210.521706
1210.52079
1210.519831
1210.519356
1210.520029
1210.520187
1210.521655
1210.52107
1210.522592
1210.522343
1210.521345
1210.520222
1210.519638
1210.520366
1210.520619
1210.522174
1210.521683
1210.523254
1210.523002
1210.521897
1210.520668
1210.519966
1210.520732
1210.521035
1210.522734
1210.522305
1210.52385
1210.523605
1210.522433
1210.521099
1210.52035
1210.52115
1210.52149
1210.523263
1210.522856
1210.52437
1210.524149
1210.522942
1210.521563
1210.520737
1210.521548
1210.521926
1210.523748
1210.523335
1210.524798
1210.524609
1210.523423
1210.522007
1210.521123
1210.521977
1210.522362
1210.524185
1210.523727
1210.525192
1210.525009
1210.523842
1210.522439
1210.521566
1210.522381
1210.522799
1210.524578
1210.524076
1210.52551
1210.525384
1210.524253
1210.522865
1210.521992
1210.522779
1210.523187
1210.524942
1210.524361
1210.525801
1210.525678
1210.524626
1210.523255
1210.522399
1210.523179
1210.523551
1210.525245
1210.524617
1210.526033
1210.525924
1210.524922
1210.523617
1210.522784
1210.523482
1210.523807
1210.525471
1210.5248
1210.526199
1210.526121
1210.525135
1210.52391
1210.523087
)
;
    }
    inlet
    {
        type            calculated;
        value           nonuniform 0();
    }
    outlet
    {
        type            calculated;
        value           nonuniform List<scalar> 
81
(
1210.523459
1210.523428
1210.52503
1210.526112
1210.526864
1210.52644
1210.524938
1210.524249
1210.523657
1210.523496
1210.525629
1210.527317
1210.527619
1210.528562
1210.527122
1210.527185
1210.524059
1210.525116
1210.52532
1210.525331
1210.527832
1210.530066
1210.529925
1210.529698
1210.528307
1210.527315
1210.524356
1210.526665
1210.528583
1210.529772
1210.532449
1210.534387
1210.531809
1210.530419
1210.526525
1210.525869
1210.526704
1210.527764
1210.530773
1210.533762
1210.032002
1210.533148
1210.53119
1210.528532
1210.52773
1210.526399
1210.527628
1210.530649
1210.531517
1210.533915
1210.532532
1210.52946
1210.527985
1210.526618
1210.525325
1210.526914
1210.528272
1210.530333
1210.530341
1210.530364
1210.52875
1210.525763
1210.524545
1210.523918
1210.524446
1210.526455
1210.527605
1210.528286
1210.527007
1210.526198
1210.524415
1210.524313
1210.523482
1210.523807
1210.525471
1210.5248
1210.526199
1210.526121
1210.525135
1210.52391
1210.523087
)
;
    }
    procBoundary1to0
    {
        type            processor;
        value           nonuniform List<scalar> 
97
(
1210.519146
1210.519146
1210.518435
1210.519032
1210.519347
1210.519875
1210.519653
1210.518996
1210.51933
1210.519295
1210.518525
1210.519877
1210.519877
1210.519877
1210.52062
1210.520286
1210.521312
1210.519699
1210.52041
1210.518321
1210.520131
1210.519202
1210.518282
1210.520352
1210.520352
1210.520352
1210.523676
1210.527154
1210.52324
1210.520911
1210.52057
1210.518346
1210.5196
1210.520309
1210.520548
1210.535059
1210.535059
1210.535059
1210.567784
1210.534366
1210.523916
1210.519203
1210.519112
1210.519347
1210.519407
1210.522145
1210.532475
1210.328839
1210.328839
1210.328839
1210.566592
1210.566592
1210.528404
1210.521447
1210.520666
1210.519406
1210.519552
1210.521375
1210.523666
1210.532576
1210.524681
1210.522999
1210.522999
1210.522999
1210.52065
1210.519832
1210.519192
1210.51993
1210.519716
1210.520988
1210.521837
1210.5211
1210.520195
1210.519093
1210.519093
1210.519093
1210.518648
1210.518842
1210.51861
1210.519273
1210.519408
1210.519918
1210.51889
1210.519222
1210.518574
1210.519445
1210.519445
1210.519445
1210.519063
1210.518811
1210.519409
1210.517785
1210.518787
1210.519114
1210.519079
1210.518854
1210.518659
)
;
    }
}


// ************************************************************************* //
