/*--------------------------------*- C++ -*----------------------------------*\
| =========                 |                                                 |
| \\      /  F ield         | OpenFOAM: The Open Source CFD Toolbox           |
|  \\    /   O peration     | Version:  4.x                                   |
|   \\  /    A nd           | Web:      www.OpenFOAM.org                      |
|    \\/     M anipulation  |                                                 |
\*---------------------------------------------------------------------------*/
FoamFile
{
    version     2.0;
    format      ascii;
    class       volScalarField;
    location    "9000";
    object      molarConc;
}
// * * * * * * * * * * * * * * * * * * * * * * * * * * * * * * * * * * * * * //

dimensions      [0 -3 0 0 1 0 0];

internalField   nonuniform List<scalar> 
1174
(
9.963270928
9.963271493
9.963271763
9.963271105
9.963271267
9.963270876
9.963270947
9.963270685
9.9632715
9.963271202
9.963271549
9.963270976
9.963271228
9.963271622
9.963313573
9.963313572
9.963313705
9.963313772
9.963313726
9.963314223
9.963315355
9.963316514
9.9633162
9.963315697
9.963314927
9.963314704
9.963312807
9.963311552
9.963288572
9.963288268
9.963287734
9.963286175
9.963286868
9.963287533
9.963288537
9.963288154
9.963287121
9.963285893
9.963286375
9.963285012
9.963285475
9.963285049
9.96328266
9.963283028
9.963282903
9.963282883
9.96328087
9.963281891
9.963282316
9.96328203
9.96328154
9.963280695
9.963280558
9.963282363
9.963282325
9.963282512
9.963262767
9.963264323
9.963266091
9.963265954
9.963266445
9.963266861
9.963267284
9.963266445
9.963266738
9.96326692
9.963267017
9.9632658
9.963266216
9.96326461
9.963267843
9.963266491
9.963267381
9.963266566
9.963266909
9.963266886
9.963266653
9.963266205
9.963264743
9.963264721
9.96326446
9.963264476
9.963264417
9.963264528
9.96329119
9.963291673
9.963290829
9.963291005
9.963292341
9.963291471
9.963289876
9.963291879
9.963291855
9.963291203
9.963291125
9.963290082
9.963290231
9.963290072
9.963264684
9.963264881
9.963264462
9.963263766
9.963262102
9.963264334
9.963266104
9.963264395
9.96326651
9.963267048
9.963266872
9.963266761
9.963265955
9.96326659
9.96326183
9.963261505
9.963260372
9.963260871
9.96326039
9.963259586
9.96326004
9.963260328
9.963261068
9.963260823
9.963260048
9.963260505
9.963261546
9.963260781
9.963304028
9.963304067
9.96330397
9.96330518
9.963305534
9.963306331
9.963305923
9.963306754
9.963306866
9.963306278
9.963305957
9.963305854
9.963307579
9.96330851
9.963307824
9.963240944
9.963240875
9.96324117
9.963240777
9.963241446
9.963240001
9.963239056
9.963238195
9.96323669
9.96323649
9.963236621
9.963237896
9.963237905
9.963239163
9.963221982
9.963222509
9.963222226
9.963220068
9.963219387
9.963219444
9.963218767
9.963219009
9.963220752
9.963221457
9.963223019
9.963223036
9.963223876
9.963224345
9.963280478
9.963279825
9.963279941
9.963280527
9.963281211
9.963281736
9.963281433
9.963281403
9.963281147
9.963280779
9.963279595
9.96327967
9.963280762
9.963280499
9.963263319
9.963261214
9.963260765
9.963261552
9.963260905
9.963261683
9.963261596
9.963262935
9.963262149
9.963261312
9.963259032
9.963259097
9.963259342
9.963258909
9.963309634
9.963308185
9.963307106
9.963307586
9.963308002
9.963307462
9.963306243
9.963306568
9.96330761
9.963308034
9.963307878
9.963308129
9.963308265
9.9633077
9.963233166
9.963232772
9.963231653
9.963231896
9.963231394
9.963231044
9.96323279
9.963232324
9.963231757
9.963233157
9.963232435
9.963231877
9.963231577
9.963231573
9.9633254
9.963324549
9.963324969
9.963324468
9.96332498
9.963323415
9.963323469
9.963323326
9.96332444
9.963325044
9.963324347
9.963325146
9.963325241
9.96332512
9.963221347
9.963222197
9.963221276
9.96322144
9.963220312
9.963220925
9.963219762
9.963219872
9.963219455
9.963218615
9.96321867
9.963217922
9.963218146
9.963219089
9.963270029
9.963269165
9.963268459
9.963267844
9.963268131
9.963268412
9.963267527
9.963267369
9.963266364
9.963267713
9.963268885
9.963268524
9.96326886
9.963268228
9.963269127
9.963331082
9.963333451
9.963333524
9.963333234
9.96333458
9.963333763
9.963334356
9.963335098
9.963335113
9.963335524
9.96333546
9.96333489
9.963333986
9.963332329
9.963333158
9.963300323
9.96330159
9.963301548
9.963302865
9.963303257
9.963303773
9.963302719
9.963301815
9.96330187
9.963302033
9.963301249
9.963301374
9.963301087
9.963301263
9.96327378
9.963275484
9.963275533
9.963277017
9.963277505
9.963277908
9.963278639
9.963278363
9.963278951
9.963277478
9.963278446
9.963278195
9.963278169
9.963278458
9.963329232
9.963328762
9.963327689
9.963326348
9.963326345
9.96332626
9.963326467
9.963326426
9.963327639
9.963327132
9.963327158
9.963327162
9.963326542
9.963327703
9.963295905
9.963296806
9.963294951
9.963294142
9.963295039
9.963295152
9.9632973
9.963296816
9.963297084
9.963297058
9.963297917
9.96329765
9.963295545
9.963298621
9.963270754
9.963271861
9.96327168
9.963272752
9.963272756
9.963273468
9.963273431
9.963273717
9.963273355
9.963273994
9.963274496
9.963275042
9.963275032
9.963275254
9.963223261
9.963223879
9.963224281
9.96322432
9.963222899
9.963224366
9.963225058
9.963225167
9.963225893
9.963225903
9.963226913
9.963225936
9.963225631
9.96322447
9.963325478
9.963324339
9.963325246
9.963324597
9.963325024
9.963323817
9.963322169
9.963322924
9.963322937
9.963321948
9.96332292
9.963323045
9.963322802
9.963321932
9.963254174
9.96325489
9.963255231
9.963254041
9.963254494
9.963254401
9.963253122
9.963253891
9.963254393
9.96325509
9.963255176
9.963254529
9.963252774
9.963252876
9.963252221
9.963234326
9.963234033
9.963232529
9.9632319
9.963231486
9.963231688
9.963232715
9.963232697
9.963230752
9.963230507
9.963229057
9.963229072
9.963228218
9.963227789
9.963227726
9.963291242
9.963290757
9.963291067
9.963292764
9.96329402
9.963294341
9.963296188
9.963296501
9.963295182
9.963293691
9.963294248
9.963294639
9.963294846
9.96329502
9.96329458
9.963270537
9.963270995
9.963271848
9.963270967
9.963271821
9.963272076
9.963272955
9.96327302
9.963273723
9.963275139
9.963275574
9.963274714
9.963274779
9.963273959
9.963220128
9.963219939
9.963220189
9.963219616
9.963219643
9.96322008
9.963220725
9.963220882
9.963221998
9.963221179
9.963220515
9.963219985
9.963221324
9.963220791
9.963308569
9.963309757
9.963309407
9.963309757
9.963310306
9.963310182
9.963308705
9.963306989
9.96330665
9.963308283
9.963308012
9.963307711
9.963308192
9.96330903
9.963260465
9.963261439
9.963261195
9.963260225
9.963260138
9.963260513
9.963260234
9.963258081
9.963256522
9.963256849
9.963258468
9.963259936
9.963259983
9.963259096
9.963339197
9.963338181
9.963338749
9.963338895
9.963339277
9.96333875
9.963338686
9.963338322
9.963339025
9.96333992
9.963339538
9.963339798
9.963339266
9.963340396
9.963297256
9.963296821
9.963295731
9.96329649
9.963296743
9.963296276
9.963296036
9.963296075
9.963296037
9.963296262
9.963297551
9.96329719
9.963296799
9.963295784
9.963271301
9.963271053
9.963270899
9.963270395
9.963270145
9.963270833
9.963271582
9.963273012
9.963271601
9.963272055
9.963271349
9.963273217
9.963272534
9.963273206
9.963273341
9.963299736
9.963299986
9.963299983
9.96330029
9.963301235
9.963300937
9.963301536
9.963303066
9.963303028
9.963301549
9.963302454
9.963303044
9.963302948
9.963303009
9.963302584
9.963282421
9.963282251
9.963283277
9.963283928
9.963283293
9.963280919
9.963281535
9.963282417
9.963282252
9.963281856
9.963281363
9.963282141
9.963281639
9.963280516
9.963281235
9.963255818
9.963255875
9.963256787
9.963254935
9.963255095
9.963256969
9.963258455
9.963257916
9.963258108
9.963257457
9.963255562
9.963255208
9.96325497
9.963254124
9.963255029
9.990607152
9.990625863
9.990642689
9.990658253
9.990675299
9.990692464
9.990708401
9.990724952
9.99074099
9.990758458
9.990776153
9.990792416
9.990808451
9.99082359
9.963285013
9.963285865
9.963284978
9.963285574
9.96328569
9.963286345
9.963286287
9.963286606
9.963287634
9.963286547
9.963286441
9.963286676
9.963286725
9.963288673
9.963259918
9.96326002
9.963259367
9.963259146
9.963258504
9.963258651
9.963259067
9.963259971
9.9632598
9.963259886
9.963260558
9.963259243
9.963259475
9.963258353
9.96325707
9.963258904
9.963257087
9.963258101
9.963258182
9.963258243
9.963258265
9.963259774
9.963260656
9.963261952
9.96326021
9.963261708
9.96326113
9.963260495
9.963219962
9.96321902
9.963218695
9.963218911
9.963218689
9.963218568
9.963219045
9.963218681
9.963217637
9.963217255
9.963216363
9.963217549
9.963217417
9.963217128
9.963265324
9.963265646
9.963266114
9.963265977
9.963265773
9.963266723
9.963267341
9.963266432
9.963267812
9.963267895
9.963267122
9.963266747
9.963267467
9.963266342
9.963266797
9.963276927
9.963276823
9.963275821
9.963277756
9.963278517
9.963277717
9.963278946
9.963278617
9.963278742
9.963279164
9.963279811
9.963280465
9.963280649
9.963280363
9.963280027
9.963246841
9.963248341
9.963248395
9.963247938
9.96324801
9.963246572
9.963246464
9.963246408
9.963246881
9.963246485
9.963247494
9.963246005
9.963246988
9.963246252
9.96324652
9.963325894
9.963324215
9.963323307
9.963323952
9.963324574
9.963324532
9.963324324
9.963324481
9.963322818
9.963322656
9.963324035
9.963324325
9.963324537
9.963324257
9.963325017
9.963250026
9.963249263
9.963248146
9.963249871
9.963251068
9.963250766
9.963249734
9.963250118
9.963249023
9.963248373
9.963247294
9.963246865
9.963246449
9.963246372
9.963246648
9.963270697
9.96326852
9.963270707
9.963271733
9.963272009
9.963272652
9.963271268
9.96327065
9.963271085
9.963270344
9.963270676
9.963269459
9.96326934
9.963270327
9.963269385
9.963311106
9.963312112
9.963312108
9.963313262
9.96331228
9.963312322
9.963311897
9.963312781
9.963311446
9.963310253
9.963310529
9.963310803
9.963311127
9.963311586
9.963259608
9.963259102
9.963259055
9.963258906
9.963261366
9.963260822
9.963260214
9.963259639
9.9632593
9.963260303
9.963259205
9.963259769
9.963259799
9.963260437
9.963255218
9.963254707
9.963255441
9.96325586
9.963256913
9.96325747
9.963256563
9.963255155
9.963256007
9.963255942
9.963255678
9.963255081
9.96325542
9.963254774
9.963270965
9.963270009
9.963270882
9.963271152
9.963270828
9.963269511
9.963268829
9.963268321
9.963268311
9.9632676
9.963268077
9.963267408
9.963267166
9.963266598
9.963268878
9.963241007
9.963241497
9.963240306
9.963241224
9.963239268
9.963240646
9.963241267
9.963241823
9.963242805
9.963244242
9.96324492
9.963245028
9.963244827
9.963245343
9.963246416
9.963277949
9.96327877
9.963279793
9.96327899
9.963279948
9.963279378
9.9632798
9.963279637
9.963277069
9.963277469
9.963276974
9.963277598
9.9632777
9.963277936
9.963277172
9.963269589
9.963268017
9.963266961
9.963267203
9.963266474
9.96326519
9.963265599
9.963265674
9.963264253
9.963263109
9.963262477
9.963263273
9.963263463
9.963264221
9.963263828
9.963298566
9.963298857
9.96329858
9.963300155
9.963300765
9.96330033
9.963301103
9.963301779
9.963302026
9.963301478
9.963300894
9.96330179
9.963301912
9.963304171
9.96330486
9.96326037
9.963259835
9.963258516
9.963257666
9.963257611
9.963259235
9.96325974
9.96325971
9.963260546
9.963259446
9.963259338
9.963260223
9.963260421
9.963261054
9.963262102
9.963250131
9.963251008
9.963251806
9.963251164
9.963249704
9.963250703
9.963249771
9.963251132
9.963251833
9.963251718
9.963251648
9.963252596
9.963252406
9.963252689
9.963250999
9.963306338
9.963307007
9.963307148
9.963306915
9.963307425
9.96330714
9.963308305
9.963307279
9.963306509
9.963307001
9.963308359
9.963309725
9.963309102
9.963309426
9.963309498
9.963310147
9.963310038
9.963309463
9.963310728
9.963310699
9.963310753
9.963311706
9.963311102
9.963311813
9.963312619
9.963311568
9.96331193
9.963311567
9.963285996
9.963286955
9.963287098
9.963285924
9.963286873
9.96328656
9.963286369
9.963288433
9.963286466
9.963286668
9.963286748
9.963285843
9.963285002
9.963284945
9.963284682
9.963303296
9.963303331
9.963302333
9.963301829
9.963302986
9.963301674
9.963301853
9.963300326
9.963301935
9.963302406
9.963303034
9.963302973
9.963303323
9.963303398
9.963303941
9.963275521
9.96327455
9.963276152
9.963274244
9.963274672
9.963272488
9.963272968
9.963273171
9.963273706
9.963274742
9.963273314
9.963275055
9.963273346
9.963272986
9.963271576
9.963284073
9.963284258
9.963283967
9.963284408
9.963284664
9.963284498
9.96328424
9.963284227
9.963283249
9.963283068
9.963284201
9.963284116
9.963283238
9.963282134
9.963281258
9.963273016
9.963273034
9.963272699
9.963270769
9.963270644
9.963273048
9.963274234
9.963274756
9.963274736
9.963273746
9.963273621
9.963273122
9.963273141
9.963273002
9.96327398
9.963314166
9.963312868
9.963313908
9.963314464
9.963315378
9.96331486
9.963315362
9.963314817
9.963314265
9.963313624
9.963313522
9.963315467
9.963315382
9.963315503
9.963313962
9.9632801
9.963280697
9.963280774
9.963281182
9.963281185
9.963282005
9.963282703
9.963282913
9.963284263
9.963285184
9.963286047
9.963284736
9.963284592
9.963284639
9.963285635
9.963303967
9.963304488
9.963304566
9.963303797
9.963304345
9.963304731
9.963304196
9.963303092
9.963303001
9.963304531
9.963304772
9.963305545
9.963306348
9.96330608
9.963305599
9.963259044
9.963257809
9.963257505
9.963256286
9.963258295
9.963258769
9.963259276
9.963259996
9.963260674
9.963260952
9.963259656
9.963260879
9.963261934
9.963263056
9.963272803
9.963272804
9.96327261
9.963272823
9.963273436
9.963272146
9.96327183
9.963271924
9.96327062
9.963271354
9.96327078
9.963271477
9.963271889
9.963270661
9.963270327
9.963289702
9.963289386
9.963286983
9.963287292
9.963288998
9.963289943
9.963289102
9.963290395
9.96328998
9.963290594
9.963290552
9.963289558
9.963289937
9.963289638
9.963290789
9.96325904
9.963258557
9.963259982
9.963259248
9.963260192
9.963260204
9.963261713
9.963260471
9.963259535
9.963259269
9.963259472
9.963259997
9.963259797
9.963260378
9.96326083
9.963353192
9.963354113
9.963354222
9.963352521
9.96335287
9.963352065
9.963353726
9.963352211
9.963351412
9.963351174
9.963352473
9.963353037
9.963354281
9.963354231
9.963354342
9.963302236
9.963300759
9.963300674
9.963301715
9.963300852
9.963300012
9.96329994
9.963299868
9.963300198
9.963301764
9.963301628
9.963302327
9.963301573
9.963301262
9.963300981
9.963280544
9.963280344
9.963280207
9.963280502
9.963280278
9.963282312
9.963281481
9.963280981
9.963280559
9.963281402
9.963282263
9.963281411
9.963282132
9.963282637
9.96328196
9.963277829
9.963277983
9.963278317
9.963277801
9.963278038
9.963277148
9.963276892
9.963276934
9.963277131
9.963277047
9.963278261
9.963277767
9.963277098
9.963278034
9.963279215
9.963287383
9.96328745
9.963287208
9.963288514
9.963288534
9.963287991
9.963286442
9.963286852
9.963286017
9.96328611
9.963286323
9.963285929
9.963286222
9.963286018
9.963285134
9.963293983
9.963293779
9.963293797
9.963292862
9.963293416
9.963293557
9.963293736
9.96329283
9.963293243
9.96329461
9.963293252
9.963292752
9.963292682
9.96329229
9.963291976
)
;

boundaryField
{
    top
    {
        type            calculated;
        value           nonuniform List<scalar> 
127
(
9.963293983
9.96326183
9.963221347
9.963325478
9.963297256
9.963219962
9.963255218
9.963309498
9.963259044
9.963293779
9.963261505
9.963222197
9.963324339
9.963296821
9.96321902
9.963254707
9.963310147
9.963257809
9.963293797
9.963260372
9.963221276
9.963325246
9.963295731
9.963218695
9.963255441
9.963310038
9.963257505
9.963292862
9.963260871
9.96322144
9.963324597
9.96329649
9.963218911
9.96325586
9.963309463
9.963256286
9.963293416
9.96326039
9.963220312
9.963325024
9.963296743
9.963218689
9.963256913
9.963310728
9.963258295
9.963293557
9.963259586
9.963220925
9.963323817
9.963296276
9.963218568
9.96325747
9.963310699
9.963258769
9.963293736
9.96326004
9.963219762
9.963322169
9.963296036
9.963219045
9.963256563
9.963310753
9.963259276
9.96329283
9.963260328
9.963219872
9.963322924
9.963296075
9.963218681
9.963255155
9.963311706
9.963259996
9.963293243
9.963261068
9.963219455
9.963322937
9.963296037
9.963217637
9.963256007
9.963311102
9.963260674
9.96329461
9.963260823
9.963218615
9.963321948
9.963296262
9.963217255
9.963255942
9.963311813
9.963260952
9.963293252
9.963260048
9.96321867
9.96332292
9.963297551
9.963216363
9.963255678
9.963312619
9.963259656
9.963292752
9.963260505
9.963217922
9.963323045
9.96329719
9.963217549
9.963255081
9.963311568
9.963260879
9.963292682
9.963261546
9.963218146
9.963322802
9.963296799
9.963217417
9.96325542
9.96331193
9.963261934
9.96329229
9.963260781
9.963219089
9.963321932
9.963295784
9.963217128
9.963254774
9.963311567
9.963263056
9.963291976
)
;
    }
    bottom
    {
        type            calculated;
        value           nonuniform List<scalar> 
134
(
9.963304028
9.963270029
9.963254174
9.963271301
9.963265324
9.963270965
9.963285996
9.963272803
9.963270928
9.963304067
9.963269165
9.96325489
9.963271053
9.963265646
9.963270009
9.963286955
9.963272804
9.963271493
9.96330397
9.963268459
9.963255231
9.963270899
9.963266114
9.963270882
9.963287098
9.96327261
9.963271763
9.96330518
9.963267844
9.963254041
9.963270395
9.963265977
9.963271152
9.963285924
9.963272823
9.963271105
9.963305534
9.963268131
9.963254494
9.963270145
9.963265773
9.963270828
9.963286873
9.963273436
9.963271267
9.963306331
9.963268412
9.963254401
9.963270833
9.963266723
9.963269511
9.96328656
9.963272146
9.963270876
9.963305923
9.963267527
9.963253122
9.963271582
9.963267341
9.963268829
9.963286369
9.96327183
9.963270947
9.963306754
9.963267369
9.963253891
9.963273012
9.963266432
9.963268321
9.963288433
9.963271924
9.963270685
9.963306866
9.963266364
9.963254393
9.963271601
9.963267812
9.963268311
9.963286466
9.96327062
9.9632715
9.963306278
9.963267713
9.96325509
9.963272055
9.963267895
9.9632676
9.963286668
9.963271354
9.963271202
9.963305957
9.963268885
9.963255176
9.963271349
9.963267122
9.963268077
9.963286748
9.96327078
9.963271549
9.963305854
9.963268524
9.963254529
9.963273217
9.963266747
9.963267408
9.963285843
9.963271477
9.963270976
9.963307579
9.96326886
9.963252774
9.963272534
9.963267467
9.963267166
9.963285002
9.963271889
9.963271228
9.96330851
9.963268228
9.963252876
9.963273206
9.963266342
9.963266598
9.963284945
9.963270661
9.963271622
9.963307824
9.963269127
9.963252221
9.963273341
9.963266797
9.963268878
9.963284682
9.963270327
)
;
    }
    side-walls
    {
        type            calculated;
        value           nonuniform List<scalar> 
261
(
9.963270928
9.963313573
9.963288572
9.96328266
9.963262767
9.963267843
9.96329119
9.963264684
9.96326183
9.963271493
9.963313572
9.963288268
9.963283028
9.963264323
9.963266491
9.963291673
9.963264881
9.963261505
9.963271763
9.963313705
9.963287734
9.963282903
9.963266091
9.963267381
9.963290829
9.963264462
9.963260372
9.963271105
9.963313772
9.963286175
9.963282883
9.963265954
9.963266566
9.963291005
9.963263766
9.963260871
9.963271267
9.963313726
9.963286868
9.96328087
9.963266445
9.963266909
9.963292341
9.963262102
9.96326039
9.963270876
9.963314223
9.963287533
9.963281891
9.963266861
9.963266886
9.963291471
9.963264334
9.963259586
9.963270947
9.963315355
9.963288537
9.963282316
9.963267284
9.963266653
9.963289876
9.963266104
9.96326004
9.963270685
9.963316514
9.963288154
9.96328203
9.963266445
9.963266205
9.963291879
9.963264395
9.963260328
9.9632715
9.9633162
9.963287121
9.96328154
9.963266738
9.963264743
9.963291855
9.96326651
9.963261068
9.963271202
9.963315697
9.963285893
9.963280695
9.96326692
9.963264721
9.963291203
9.963267048
9.963260823
9.963271549
9.963314927
9.963286375
9.963280558
9.963267017
9.96326446
9.963291125
9.963266872
9.963260048
9.963270976
9.963314704
9.963285012
9.963282363
9.9632658
9.963264476
9.963290082
9.963266761
9.963260505
9.963271228
9.963312807
9.963285475
9.963282325
9.963266216
9.963264417
9.963290231
9.963265955
9.963261546
9.963271622
9.963311552
9.963285049
9.963282512
9.96326461
9.963264528
9.963290072
9.96326659
9.963260781
9.963272803
9.963289702
9.96325904
9.963353192
9.963302236
9.963280544
9.963277829
9.963287383
9.963293983
9.963272804
9.963289386
9.963258557
9.963354113
9.963300759
9.963280344
9.963277983
9.96328745
9.963293779
9.96327261
9.963286983
9.963259982
9.963354222
9.963300674
9.963280207
9.963278317
9.963287208
9.963293797
9.963272823
9.963287292
9.963259248
9.963352521
9.963301715
9.963280502
9.963277801
9.963288514
9.963292862
9.963273436
9.963288998
9.963260192
9.96335287
9.963300852
9.963280278
9.963278038
9.963288534
9.963293416
9.963272146
9.963289943
9.963260204
9.963352065
9.963300012
9.963282312
9.963277148
9.963287991
9.963293557
9.96327183
9.963289102
9.963261713
9.963353726
9.96329994
9.963281481
9.963276892
9.963286442
9.963293736
9.963271924
9.963290395
9.963260471
9.963352211
9.963299868
9.963280981
9.963276934
9.963286852
9.96329283
9.96327062
9.96328998
9.963259535
9.963351412
9.963300198
9.963280559
9.963277131
9.963286017
9.963293243
9.963271354
9.963290594
9.963259269
9.963351174
9.963301764
9.963281402
9.963277047
9.96328611
9.96329461
9.96327078
9.963290552
9.963259472
9.963352473
9.963301628
9.963282263
9.963278261
9.963286323
9.963293252
9.963271477
9.963289558
9.963259997
9.963353037
9.963302327
9.963281411
9.963277767
9.963285929
9.963292752
9.963271889
9.963289937
9.963259797
9.963354281
9.963301573
9.963282132
9.963277098
9.963286222
9.963292682
9.963270661
9.963289638
9.963260378
9.963354231
9.963301262
9.963282637
9.963278034
9.963286018
9.96329229
9.963270327
9.963290789
9.96326083
9.963354342
9.963300981
9.96328196
9.963279215
9.963285134
9.963291976
)
;
    }
    inlet
    {
        type            calculated;
        value           nonuniform 0();
    }
    outlet
    {
        type            calculated;
        value           nonuniform List<scalar> 
81
(
9.963271622
9.963311552
9.963285049
9.963282512
9.96326461
9.963264528
9.963290072
9.96326659
9.963260781
9.963307824
9.963239163
9.963224345
9.963280499
9.963258909
9.9633077
9.963231573
9.96332512
9.963219089
9.963269127
9.963333158
9.963301263
9.963278458
9.963327703
9.963298621
9.963275254
9.96322447
9.963321932
9.963252221
9.963227726
9.96329458
9.963273959
9.963220791
9.96330903
9.963259096
9.963340396
9.963295784
9.963273341
9.963302584
9.963281235
9.963255029
9.99082359
9.963288673
9.963258353
9.963260495
9.963217128
9.963266797
9.963280027
9.96324652
9.963325017
9.963246648
9.963269385
9.963311586
9.963260437
9.963254774
9.963268878
9.963246416
9.963277172
9.963263828
9.96330486
9.963262102
9.963250999
9.963309426
9.963311567
9.963284682
9.963303941
9.963271576
9.963281258
9.96327398
9.963313962
9.963285635
9.963305599
9.963263056
9.963270327
9.963290789
9.96326083
9.963354342
9.963300981
9.96328196
9.963279215
9.963285134
9.963291976
)
;
    }
    procBoundary1to0
    {
        type            processor;
        value           nonuniform List<scalar> 
97
(
9.96327103
9.96327103
9.963313431
9.963288461
9.963282894
9.963262807
9.963266155
9.963290448
9.963264381
9.963262832
9.963304073
9.963242435
9.963242435
9.963242435
9.963222339
9.963279085
9.963263062
9.963311205
9.963233834
9.963327637
9.963220547
9.963270505
9.963330023
9.963300806
9.963300806
9.963300806
9.963273866
9.963329645
9.963297737
9.963270151
9.963225036
9.963326044
9.963253829
9.963235084
9.963292301
9.963271052
9.963271052
9.963271052
9.963220811
9.963308906
9.96326072
9.963338365
9.963295784
9.963271385
9.963299696
9.963283058
9.963246268
9.990616595
9.990616595
9.990616595
9.963286135
9.963286135
9.963261149
9.963255675
9.963219457
9.963264488
9.963276543
9.963246974
9.963326242
9.96324075
9.963270663
9.963310974
9.963310974
9.963310974
9.963259128
9.963256354
9.963271057
9.963239738
9.963278235
9.963268185
9.963299972
9.963262049
9.963251983
9.963305962
9.963305962
9.963305962
9.963309512
9.963286715
9.963302974
9.963275744
9.96328444
9.963271742
9.96331277
9.96327849
9.963304938
9.963258087
9.963258087
9.963258087
9.963272998
9.963288389
9.963259164
9.963353236
9.96330205
9.963280484
9.963277231
9.963286042
9.963295146
)
;
    }
}


// ************************************************************************* //
