/*--------------------------------*- C++ -*----------------------------------*\
| =========                 |                                                 |
| \\      /  F ield         | OpenFOAM: The Open Source CFD Toolbox           |
|  \\    /   O peration     | Version:  4.x                                   |
|   \\  /    A nd           | Web:      www.OpenFOAM.org                      |
|    \\/     M anipulation  |                                                 |
\*---------------------------------------------------------------------------*/
FoamFile
{
    version     2.0;
    format      ascii;
    class       surfaceScalarField;
    location    "9000";
    object      phi;
}
// * * * * * * * * * * * * * * * * * * * * * * * * * * * * * * * * * * * * * //

dimensions      [1 0 -1 0 0 0 0];

internalField   nonuniform List<scalar> 
3172
(
9.497958253e-06
-6.232280657e-12
-5.891799204e-12
9.497973732e-06
-5.562896277e-12
-6.428928727e-12
9.497981272e-06
-3.106775102e-12
-4.444650929e-12
9.497987363e-06
-3.092477203e-12
-3.626743527e-12
9.497990267e-06
-1.315483507e-12
-3.008761421e-12
9.497994294e-06
1.137611264e-13
-2.320814003e-13
9.497990925e-06
1.141215357e-13
-4.355729164e-13
9.497990553e-06
-2.686774124e-13
5.34797016e-13
9.497988243e-06
2.00323097e-13
1.470908841e-13
9.497987886e-06
1.624428875e-12
2.846354856e-12
9.497983835e-06
1.372758095e-12
3.876258683e-12
9.497982696e-06
1.913587524e-12
2.134228475e-12
9.497973585e-06
1.688199208e-12
1.939540668e-12
2.319778905e-12
2.051762415e-12
9.498005638e-06
-1.063732626e-11
-4.76376402e-12
9.498020985e-06
-1.344743912e-11
-8.388903068e-12
9.498028607e-06
-8.746606487e-12
-5.106945631e-12
9.498033282e-06
-4.145920578e-12
-3.295563656e-12
9.498034749e-06
-1.590575271e-12
-2.69257699e-12
9.498032821e-06
-1.283812183e-12
-7.479696321e-13
9.498030186e-06
-3.434232684e-13
-8.405023943e-13
9.498029359e-06
1.748788502e-12
1.023422665e-12
9.498028327e-06
2.644933803e-12
1.197719504e-12
9.498023072e-06
3.382478311e-13
1.088169128e-12
9.498018831e-06
1.109306092e-12
2.514505903e-12
9.498016151e-06
1.386364912e-12
1.342780082e-12
9.498008745e-06
1.001516323e-12
1.720582458e-12
2.745727914e-12
1.703315925e-12
9.498004534e-06
-5.143280434e-12
-1.001919904e-11
9.49801628e-06
-8.939399515e-12
-1.312969311e-11
9.498017334e-06
-3.883554033e-12
-4.958635512e-12
9.498014482e-06
-1.370367399e-12
-1.084361642e-12
9.498007793e-06
-1.358385588e-12
1.826164261e-12
9.498004813e-06
5.379211178e-13
2.692127477e-12
9.498001585e-06
1.811343994e-12
3.895840624e-12
9.49799694e-06
1.510851808e-12
2.702788799e-12
9.497989562e-06
1.714314802e-12
2.954415353e-12
9.497991083e-06
3.171667135e-12
4.720464878e-12
9.49798582e-06
2.918941221e-12
3.364009197e-12
9.497981982e-06
3.648140216e-12
3.892084364e-12
9.497980219e-06
3.89659115e-12
4.008151402e-12
3.20268152e-12
2.167073237e-12
9.498004898e-06
-2.254643985e-12
7.966740391e-12
9.498015836e-06
-2.591540797e-14
-1.598697688e-11
9.498015601e-06
2.812350224e-12
-3.177917847e-12
9.498009041e-06
3.112812987e-12
3.897320317e-12
9.498002393e-06
1.205099002e-12
5.398809393e-12
9.497995764e-06
2.216980177e-12
5.497947993e-12
9.497988581e-06
6.087795801e-13
6.490758492e-12
9.497984695e-06
1.07136998e-12
5.197072802e-12
9.497980206e-06
2.208430337e-12
3.76810261e-12
9.497979647e-06
3.271409198e-12
4.806064041e-12
9.497974985e-06
2.690940491e-12
5.035201787e-12
9.497973738e-06
2.724482252e-12
5.116272229e-12
9.497972701e-06
2.897363018e-12
4.479592912e-12
1.934601269e-12
2.989566984e-12
9.49802704e-06
1.151823026e-12
4.164032261e-11
9.498015594e-06
1.888550004e-12
1.207656528e-11
9.498002854e-06
-6.551560797e-13
1.73206091e-11
9.497990586e-06
-1.965341061e-12
1.730068134e-11
9.497983948e-06
-7.796968388e-13
1.424002559e-11
9.497974464e-06
-1.227553329e-12
9.664550885e-12
9.497971243e-06
-4.161902774e-13
8.088467354e-12
9.49796703e-06
1.331413238e-13
6.164437118e-12
9.497964939e-06
5.479164357e-13
3.81529039e-12
9.497960635e-06
-7.712139831e-13
3.573082022e-12
9.497958294e-06
-8.120731403e-13
3.819104535e-12
9.497957174e-06
-7.513233392e-13
2.779504104e-12
9.497955246e-06
4.017257099e-13
3.153067906e-12
3.512797818e-13
2.780209915e-12
9.497992153e-06
7.421212215e-12
9.985909637e-12
9.498000493e-06
1.131425825e-11
-1.650887118e-11
9.497999849e-06
5.62870361e-12
-4.024834835e-12
9.497993315e-06
5.14111955e-13
2.309073724e-12
9.497987512e-06
6.26308984e-13
5.321158273e-12
9.497980405e-06
-1.094595824e-12
5.705126758e-12
9.497975336e-06
-1.376356344e-12
5.687707109e-12
9.49796941e-06
-1.259333616e-12
3.481964563e-12
9.497964826e-06
-2.075362027e-12
3.195643853e-12
9.497961811e-06
-2.006454284e-12
2.572755538e-12
9.497960574e-06
-2.014160094e-12
3.122439613e-12
9.497958422e-06
-1.140104395e-12
3.121426489e-12
9.497956466e-06
-3.387660731e-12
3.310325675e-12
-3.516438324e-12
3.170310669e-12
9.498007314e-06
1.273147625e-11
-9.597902394e-12
9.49801601e-06
1.151992154e-11
-1.332794439e-11
9.498017992e-06
6.570264006e-12
-3.445491216e-12
9.4980176e-06
4.955677966e-12
9.620109876e-13
9.498013367e-06
3.217510462e-12
1.667408767e-12
9.498010376e-06
2.877814929e-13
4.875540195e-12
9.49800614e-06
-6.606808781e-13
2.894514013e-12
9.498000663e-06
-2.094091023e-12
1.843508134e-12
9.497997381e-06
-3.018759829e-12
2.181630856e-12
9.497993844e-06
-3.930614096e-12
2.312436424e-12
9.497990114e-06
-2.862268028e-12
2.95414381e-12
9.497987987e-06
-3.233812674e-12
2.192133404e-12
9.497983132e-06
-1.76105838e-12
4.827994485e-12
-1.75572781e-12
3.682121386e-12
9.497957479e-06
5.739379229e-12
-6.294120075e-12
9.497971304e-06
6.817520718e-12
-9.387024066e-12
9.497980266e-06
4.430196859e-12
-6.214031132e-12
9.49798431e-06
3.372106598e-12
-2.576504514e-12
9.497984208e-06
1.0325072e-12
-1.340091825e-12
9.497986457e-06
-4.306450741e-13
5.93403959e-13
9.497985389e-06
-6.928106416e-13
2.309962936e-12
9.497984185e-06
-4.328006193e-13
1.417720607e-12
9.497979527e-06
-1.848357389e-12
4.545870064e-13
9.497978781e-06
-4.43169121e-13
2.14177588e-12
9.49797486e-06
-1.17375526e-12
2.194163831e-12
9.497971393e-06
-1.145231222e-12
2.761652079e-12
9.497963009e-06
-3.974882886e-12
2.142497232e-12
-2.41358948e-12
2.236321782e-12
9.497948184e-06
-7.688324473e-12
9.497961155e-06
-7.14921894e-12
9.49797041e-06
-4.63671302e-12
9.49797626e-06
-3.13215911e-12
9.497979149e-06
-2.264874996e-12
9.497980906e-06
-4.029099031e-13
9.497984009e-06
1.503511736e-14
9.497981347e-06
-8.986984775e-13
9.497981473e-06
2.984190442e-13
9.497977785e-06
7.729369354e-13
9.497975096e-06
-5.09109902e-14
9.497969789e-06
1.231149375e-12
9.497965147e-06
1.662554383e-12
2.1309029e-12
9.497985638e-06
-4.197787126e-11
9.497995732e-06
-4.031608158e-12
-9.221869168e-12
9.498011009e-06
-7.427409545e-12
-1.114178152e-11
9.498019569e-06
-3.785639272e-12
-6.678695233e-12
9.498022818e-06
-1.405482266e-12
-3.931306076e-12
9.498025625e-06
-1.173448752e-12
-2.683405809e-12
9.498024883e-06
-1.440236839e-13
-6.327283416e-13
9.498023923e-06
4.240382052e-13
3.614292283e-13
9.498020237e-06
7.438175749e-13
9.844950593e-13
9.498017273e-06
9.396455021e-13
2.228110587e-12
9.49801416e-06
1.120853452e-12
3.220740275e-12
9.498012149e-06
1.846377832e-12
3.052290977e-12
9.498010493e-06
2.706591743e-12
3.711448968e-12
9.498004068e-06
3.034414126e-12
2.795707938e-12
2.993176666e-12
2.33726491e-12
9.497947142e-06
-4.98551957e-12
-6.996170452e-12
9.497959036e-06
-1.598673341e-11
-1.694292696e-11
9.497963451e-06
-8.859186261e-12
-8.443496142e-12
9.497962807e-06
-3.65877315e-12
-4.243284046e-12
9.497961765e-06
1.359445602e-12
-1.261915725e-12
9.497957757e-06
1.683370272e-12
1.877306905e-12
9.497952624e-06
3.877632406e-12
4.206524833e-12
9.497948686e-06
3.591591922e-12
4.112290812e-12
9.49794495e-06
4.229988855e-12
4.570462531e-12
9.497942485e-06
5.26219416e-12
4.117872378e-12
9.497938723e-06
4.121059576e-12
3.756492168e-12
9.497938766e-06
5.116876394e-12
5.027409715e-12
9.497933042e-06
5.352945388e-12
4.142946037e-12
4.394761739e-12
3.388536886e-12
9.497962748e-06
5.870150427e-12
-7.410338213e-12
9.497963636e-06
-9.099700633e-12
-1.921865323e-11
9.497956232e-06
-5.958939411e-14
-1.690331157e-12
9.497944356e-06
3.309005653e-12
4.957348232e-12
9.49793431e-06
3.770427055e-12
6.069568613e-12
9.497928507e-06
4.392132139e-12
8.418706958e-12
9.49792144e-06
4.30301321e-12
7.756587588e-12
9.497921301e-06
3.574519024e-12
7.890350503e-12
9.497919367e-06
1.920360494e-12
6.57170704e-12
9.497919745e-06
2.676954155e-12
4.107312292e-12
9.497919806e-06
4.42167704e-12
5.072275071e-12
9.497917889e-06
4.027748289e-12
3.305400173e-12
9.497917627e-06
3.548195754e-12
5.101659407e-12
3.730394858e-12
5.809682935e-12
9.498015904e-06
2.347256483e-11
5.948310033e-11
9.498013855e-06
5.346598096e-12
-2.894374429e-11
9.498004776e-06
5.642986202e-12
-1.456701362e-12
9.49799187e-06
5.282719159e-12
9.915304239e-12
9.497981252e-06
3.496031372e-12
1.084530987e-11
9.497974379e-06
3.122665471e-12
1.136135596e-11
9.497969486e-06
1.449282845e-12
1.160238284e-11
9.497970184e-06
2.46530811e-12
9.783856111e-12
9.497970098e-06
1.388997332e-12
7.924364548e-12
9.497970977e-06
2.825922648e-12
7.853760727e-12
9.497967243e-06
1.425458173e-12
4.458116419e-12
9.497968179e-06
1.033800451e-12
3.347838127e-12
9.497969945e-06
1.345845353e-12
3.834595859e-12
1.752708836e-12
4.022015476e-12
9.498056002e-06
-2.353061886e-11
2.624600724e-10
9.498003007e-06
-4.673253053e-12
7.27577083e-11
9.497976243e-06
-4.724792634e-12
5.502495131e-11
9.49795946e-06
-5.737363675e-12
4.586368348e-11
9.497950353e-06
-4.108690355e-12
2.856207154e-11
9.497945874e-06
-3.541136646e-12
2.042558425e-11
9.497946211e-06
-2.483917541e-12
1.44919868e-11
9.497947067e-06
-2.958739415e-12
9.990678026e-12
9.497949211e-06
-1.584763935e-12
7.271097512e-12
9.497947425e-06
-2.343028534e-12
4.39208132e-12
9.497946457e-06
-1.731504008e-12
3.114604791e-12
9.497947491e-06
-1.058945331e-12
3.393517248e-12
9.497949251e-06
-8.921402773e-13
4.972423595e-12
-2.116175505e-13
4.697281229e-12
9.498043862e-06
-6.762848465e-12
5.8664794e-11
9.498040579e-06
1.093027152e-11
-2.938452653e-11
9.498029268e-06
2.877894095e-12
-8.380759385e-13
9.498017078e-06
-1.6191759e-12
1.140434114e-11
9.498005562e-06
-3.359140018e-12
1.264079682e-11
9.49799987e-06
-2.47709393e-12
1.296643869e-11
9.497994711e-06
-4.076037385e-12
9.903975392e-12
9.497995152e-06
-3.495511375e-12
9.470301538e-12
9.497993245e-06
-3.150343638e-12
6.325142314e-12
9.497995271e-06
-2.078086605e-12
4.83723223e-12
9.49799494e-06
-3.532262494e-12
4.467662314e-12
9.497995825e-06
-2.674623251e-12
3.871957808e-12
9.497995843e-06
-2.347242189e-12
4.816738281e-12
-3.240396322e-12
5.369977527e-12
9.497974169e-06
6.813823923e-12
-6.314559128e-12
9.497972402e-06
1.430566225e-11
-1.952125086e-11
9.497965531e-06
6.510020714e-12
-1.970447442e-12
9.497956154e-06
2.903069074e-12
6.121776908e-12
9.497948085e-06
2.073541937e-12
8.491200862e-12
9.497938672e-06
-2.016797169e-12
7.473507468e-12
9.497935537e-06
-1.76588284e-12
8.132861957e-12
9.497934204e-06
-2.042410082e-12
8.005637322e-12
9.497931697e-06
-3.259370784e-12
5.587871085e-12
9.497930447e-06
-4.627564571e-12
4.434100149e-12
9.497927886e-06
-4.308126584e-12
2.761090511e-12
9.497926778e-06
-3.092389909e-12
4.948196863e-12
9.497922476e-06
-3.878438165e-12
4.927353677e-12
-3.774965546e-12
4.361936281e-12
9.498027346e-06
4.539787226e-12
-5.403066408e-12
9.498037597e-06
8.978956129e-12
-1.495478776e-11
9.498043928e-06
7.037034885e-12
-6.464291288e-12
9.498044691e-06
2.808214141e-12
-2.373099011e-12
9.498040474e-06
1.532160793e-13
4.414685271e-13
9.498038217e-06
-6.779383662e-13
6.765937107e-13
9.498033585e-06
-1.986776422e-12
2.447738857e-12
9.49803245e-06
-2.253777423e-12
5.29947634e-12
9.498029659e-06
-1.324611788e-12
4.142195283e-12
9.498025943e-06
-1.171376547e-12
3.2306841e-12
9.498023322e-06
-3.66557334e-12
2.305332393e-12
9.498021327e-06
-4.154182371e-12
3.822547236e-12
9.498017016e-06
-4.358528814e-12
4.462411209e-12
-1.210123266e-12
3.578998794e-12
9.497919451e-06
-9.835147955e-12
9.497932159e-06
-1.268848484e-11
9.497938473e-06
-7.402601253e-12
9.497943293e-06
-2.026753553e-12
9.497944749e-06
-1.963844384e-12
9.497943798e-06
6.578797922e-13
9.497941631e-06
3.790022077e-13
9.497940108e-06
1.458367074e-12
9.497936115e-06
1.148120375e-12
9.497931054e-06
7.211171519e-13
9.497928649e-06
9.410836277e-13
9.497924202e-06
2.100540033e-12
9.497921701e-06
3.082407477e-12
1.953065535e-12
9.497981382e-06
-7.39831603e-11
-5.119577965e-11
9.497985348e-06
-1.064586583e-11
-5.791890638e-12
9.497995815e-06
-1.447837774e-11
-1.013274853e-11
9.497999212e-06
-3.375080714e-12
-3.78743926e-12
9.497993848e-06
6.5793608e-13
-2.742001538e-12
9.497992619e-06
3.145113795e-12
2.636144323e-13
9.497985244e-06
4.206475393e-12
2.135093757e-12
9.497980027e-06
5.662810442e-12
2.864226901e-12
9.497977469e-06
5.194633352e-12
2.2274938e-12
9.497974642e-06
4.12316308e-12
2.245430121e-12
9.497970591e-06
2.686200951e-12
1.197150443e-12
9.497968201e-06
4.313918383e-12
2.624068169e-12
9.497964964e-06
5.418011046e-12
3.358354994e-12
9.497961416e-06
4.706825719e-12
4.246152114e-12
5.397882654e-12
3.900388692e-12
9.498083507e-06
-9.746628593e-11
9.49806885e-06
-4.161973291e-12
7.037120917e-12
9.498070095e-06
-1.768372274e-11
-1.047755318e-11
9.498061839e-06
-3.611451392e-13
-3.426470576e-12
9.498052296e-06
6.270290989e-12
5.30172823e-13
9.498046057e-06
9.127893331e-12
2.862284404e-12
9.498037306e-06
8.624593682e-12
2.020321254e-12
9.4980311e-06
7.97633368e-12
1.944367804e-12
9.498030306e-06
7.423730876e-12
3.268400463e-12
9.498028467e-06
7.482228087e-12
3.091334276e-12
9.498025677e-06
6.42939809e-12
3.31540003e-12
9.498024138e-06
5.073709443e-12
3.111121738e-12
9.498020963e-06
3.366885774e-12
2.190262124e-12
9.498021784e-06
7.137383652e-12
4.245879549e-12
6.664469217e-12
3.526151733e-12
9.498102191e-06
3.627805751e-11
3.487189731e-11
9.498061861e-06
1.870893689e-12
7.114656656e-13
9.498025133e-06
1.675312464e-11
1.63279655e-11
9.498001514e-06
1.921379461e-11
1.781021788e-11
9.497991088e-06
1.567981453e-11
1.465895495e-11
9.497983215e-06
1.04895407e-11
1.152079021e-11
9.497977555e-06
9.644452116e-12
8.766139536e-12
9.49797964e-06
6.934760686e-12
6.225585569e-12
9.497981322e-06
5.210786462e-12
3.983061169e-12
9.497985845e-06
6.515981778e-12
4.355813468e-12
9.49798562e-06
4.220298454e-12
3.318639689e-12
9.4979908e-06
4.56868385e-12
4.240210549e-12
9.497991441e-06
3.613809467e-12
4.624289345e-12
3.235029303e-12
4.351008688e-12
9.49805219e-06
9.919081025e-11
2.163009337e-10
9.497995859e-06
3.319159306e-11
-1.679585028e-12
9.497958264e-06
2.785070541e-11
2.839194356e-11
9.497939493e-06
2.083063678e-11
3.077270847e-11
9.497934453e-06
1.232739394e-11
2.095103333e-11
9.497938623e-06
8.867156144e-12
1.59197552e-11
9.497940375e-06
4.155322723e-12
9.34795544e-12
9.497948023e-06
3.161453586e-12
8.047263121e-12
9.497954566e-06
1.632959794e-12
6.281593644e-12
9.497958956e-06
9.497350837e-13
2.94995863e-12
9.497963647e-06
1.047299151e-12
3.365956109e-12
9.497965725e-06
1.744634382e-12
3.554790126e-12
9.497972621e-06
2.950096851e-12
7.341808915e-12
1.916710459e-12
6.723159625e-12
9.498203469e-06
-9.871724044e-11
1.071966206e-09
9.498002746e-06
-3.244009908e-11
3.332891921e-10
9.497954588e-06
-2.69731187e-11
1.604411792e-10
9.497946333e-06
-1.996819115e-11
9.044152715e-11
9.497956694e-06
-1.150621242e-11
4.470391016e-11
9.497968881e-06
-7.750089352e-12
2.250436378e-11
9.497979762e-06
-6.128272643e-12
1.187570994e-11
9.497991114e-06
-3.943360049e-12
8.532261448e-12
9.498000767e-06
-2.943394217e-12
5.028656984e-12
9.498006829e-06
-2.818592723e-12
2.390139628e-12
9.498013343e-06
-1.384100946e-12
2.262438361e-12
9.498013669e-06
-2.097983628e-12
3.474867216e-12
9.498020759e-06
-1.356375979e-12
5.979201788e-12
-4.026572308e-13
5.376987865e-12
9.498072478e-06
-3.555661574e-11
2.173948755e-10
9.498015664e-06
-5.848074364e-13
-2.433334579e-12
9.49797624e-06
-1.652011492e-11
2.785984085e-11
9.497956448e-06
-1.857661361e-11
2.966723256e-11
9.497950942e-06
-1.444574598e-11
2.223827759e-11
9.497952323e-06
-1.20214139e-11
1.567126551e-11
9.497959313e-06
-8.120047016e-12
1.189792296e-11
9.497966653e-06
-6.846815509e-12
8.351340999e-12
9.497971434e-06
-5.599169688e-12
6.736181504e-12
9.497977936e-06
-4.691449761e-12
4.010645177e-12
9.49798314e-06
-4.368811238e-12
3.922400353e-12
9.497984334e-06
-2.508811281e-12
3.2081897e-12
9.497990531e-06
-3.183745231e-12
4.77606415e-12
-4.392247556e-12
4.340478317e-12
9.498075552e-06
7.081227598e-12
3.590651584e-11
9.498034044e-06
1.962657201e-11
1.280424272e-12
9.497997879e-06
2.499928191e-12
1.69697254e-11
9.497972609e-06
-4.932578382e-12
1.764757664e-11
9.497960222e-06
-6.680697937e-12
1.539850766e-11
9.497955137e-06
-8.24956871e-12
1.253571739e-11
9.497952267e-06
-8.035544733e-12
9.565984306e-12
9.497952754e-06
-5.138900674e-12
8.975197698e-12
9.497954685e-06
-5.843998287e-12
5.30976059e-12
9.497958992e-06
-4.996693133e-12
3.821807256e-12
9.497962489e-06
-5.953683361e-12
3.441205483e-12
9.497963016e-06
-4.015983113e-12
3.83928556e-12
9.497962354e-06
-4.875112545e-12
4.106928152e-12
-3.771903765e-12
4.245708786e-12
9.497966232e-06
9.628925109e-12
6.861863855e-12
9.497964174e-06
1.354673868e-11
-1.126208215e-11
9.497958723e-06
4.6278692e-12
-2.269055565e-12
9.497948213e-06
7.054225447e-13
1.666366819e-12
9.497936306e-06
-2.279642513e-12
1.841790789e-12
9.497932167e-06
-1.664636129e-12
2.760816647e-12
9.497930137e-06
-3.771775675e-12
4.794478118e-12
9.497924732e-06
-6.613668971e-12
4.034827431e-12
9.497922116e-06
-4.084869395e-12
3.790049671e-12
9.497922387e-06
-3.652622312e-12
2.084847109e-12
9.497923827e-06
-4.193954286e-12
3.906847195e-12
9.497919802e-06
-5.081599041e-12
2.626244783e-12
9.497917026e-06
-5.677719754e-12
1.772068409e-12
-3.512339127e-12
2.478903643e-12
9.498040752e-06
-5.744427992e-12
9.498050714e-06
-9.365924339e-12
9.498051139e-06
-4.175528673e-12
9.498047864e-06
-1.806755964e-12
9.498044926e-06
-1.370419825e-12
9.498037039e-06
-9.078362513e-13
9.498033655e-06
2.122893147e-12
9.498031483e-06
4.07784552e-12
9.498026414e-06
1.969869832e-12
9.498021903e-06
6.163222177e-13
9.498022946e-06
2.431646673e-12
9.498018645e-06
2.879044706e-12
9.498014035e-06
4.823736938e-12
2.643545004e-12
9.497994249e-06
-1.056540889e-10
-5.302439786e-11
9.497976865e-06
7.697146903e-12
-2.998832654e-12
9.497989742e-06
-1.75084598e-11
-2.012983727e-12
9.497986259e-06
-5.834463393e-12
1.364306736e-12
9.497982002e-06
2.881470135e-12
3.427513995e-12
9.497978102e-06
6.332930017e-12
3.74886199e-12
9.497967074e-06
5.392150475e-12
9.321025509e-13
9.497960778e-06
5.091081621e-12
1.208537693e-12
9.497958012e-06
6.212424438e-12
1.961724866e-12
9.497955085e-06
6.105696629e-12
2.418497871e-12
9.497952886e-06
4.433023765e-12
2.57756481e-12
9.497948654e-06
4.05016632e-12
2.606736886e-12
9.497946486e-06
3.092875267e-12
9.783145348e-13
9.497944259e-06
3.794228675e-12
1.841368884e-12
3.999525161e-12
2.058609909e-12
9.498038598e-06
-2.452063265e-10
-1.023346022e-10
9.497969688e-06
6.011433674e-11
2.238474192e-11
9.497966574e-06
-2.678938263e-11
3.053383893e-12
9.497955664e-06
1.0472973e-12
5.058675809e-12
9.497943088e-06
1.344316422e-11
5.538993584e-12
9.497935269e-06
1.524553158e-11
4.778034496e-12
9.497927722e-06
1.411340776e-11
2.521350391e-12
9.497923691e-06
1.344056314e-11
4.14950675e-12
9.497920975e-06
9.514842e-12
2.968753869e-12
9.497919632e-06
7.310182534e-12
2.672883304e-12
9.497919561e-06
6.369983186e-12
3.152786192e-12
9.497917569e-06
5.714743074e-12
3.408457174e-12
9.497919075e-06
5.198145895e-12
1.808314999e-12
9.497920504e-06
7.46602521e-12
2.460590126e-12
7.103043047e-12
1.032234184e-12
9.498287299e-06
-3.147471684e-10
9.498065437e-06
2.167429643e-10
9.691133141e-11
9.498010017e-06
-1.338692437e-12
3.127733953e-11
9.49797362e-06
2.889625978e-11
2.770307234e-11
9.497954642e-06
3.114426786e-11
2.036193912e-11
9.497951849e-06
2.066974806e-11
1.300347431e-11
9.49795256e-06
1.452666246e-11
7.344550355e-12
9.497956465e-06
1.012000164e-11
5.172618753e-12
9.497962932e-06
8.275088839e-12
3.953384849e-12
9.497969357e-06
6.564216601e-12
3.493763818e-12
9.497974961e-06
5.267034572e-12
2.957308023e-12
9.497978082e-06
4.947281464e-12
1.792291141e-12
9.497982448e-06
4.539221778e-12
2.342915015e-12
9.49798594e-06
5.189785923e-12
2.948379307e-12
5.202264553e-12
5.056204863e-13
9.49782488e-06
4.183000625e-10
4.18352032e-10
9.497855163e-06
-1.723558444e-11
-1.716011527e-11
9.497867802e-06
2.369001916e-11
2.325889839e-11
9.497879119e-06
2.41813934e-11
2.31049717e-11
9.497899221e-06
1.486382154e-11
1.388972055e-11
9.497916872e-06
8.130307981e-12
8.163603596e-12
9.497931281e-06
4.858633386e-12
6.209559834e-12
9.49794194e-06
3.442907748e-12
1.969928518e-12
9.497951925e-06
2.039175904e-13
2.465706442e-12
9.497959641e-06
-2.845278577e-13
1.725243885e-12
9.497965379e-06
-1.686483831e-13
1.398954708e-12
9.497968916e-06
1.980249128e-12
8.7231079e-13
9.497976156e-06
2.13922113e-12
1.507140285e-12
1.035703479e-12
7.179770274e-13
9.497597277e-06
-4.175700893e-10
3.298195604e-09
9.497631169e-06
1.626157655e-11
2.623978022e-10
9.49772958e-06
-2.315556175e-11
1.070715864e-10
9.497798753e-06
-2.445451035e-11
7.164510253e-11
9.497841008e-06
-1.265182454e-11
2.74398729e-11
9.497872053e-06
-7.612068154e-12
1.233236762e-11
9.497893131e-06
-4.23587773e-12
6.303124608e-12
9.497902217e-06
-4.250242029e-12
1.702364213e-12
9.497911011e-06
-1.838166093e-12
2.833905884e-12
9.497916582e-06
-1.763391446e-12
1.023289376e-12
9.497921201e-06
-1.113506477e-12
5.281770405e-13
9.497922802e-06
-2.084984675e-12
-8.073735205e-13
9.497929116e-06
-3.172816814e-12
-1.668352911e-13
-1.401876889e-12
1.406991295e-12
9.49786112e-06
-2.173648287e-10
4.177311723e-10
9.497892776e-06
2.684505366e-12
-1.668417404e-11
9.497904174e-06
-2.724540383e-11
2.332348871e-11
9.497918435e-06
-3.001503145e-11
2.430596784e-11
9.497933208e-06
-2.188100623e-11
1.335190115e-11
9.497951018e-06
-1.50357002e-11
8.753859628e-12
9.497965975e-06
-1.12013764e-11
5.705066747e-12
9.497976428e-06
-6.361694584e-12
4.007235794e-12
9.497984922e-06
-6.449342672e-12
3.240565408e-12
9.497994166e-06
-4.953343187e-12
2.215330334e-12
9.497998468e-06
-4.771234923e-12
2.090334989e-12
9.498001107e-06
-2.584529844e-12
1.251227334e-12
9.498009323e-06
-3.175886052e-12
1.691617412e-13
-4.390763768e-12
7.856786352e-13
9.498039424e-06
-5.82258811e-11
9.853713369e-11
9.497981332e-06
2.872418187e-11
3.100166798e-11
9.49794305e-06
2.089833615e-12
2.741905332e-11
9.497923924e-06
-1.069410821e-11
1.940579648e-11
9.497916869e-06
-1.385160437e-11
1.235423497e-11
9.497918207e-06
-1.435914686e-11
8.450562429e-12
9.497923839e-06
-1.027507916e-11
6.790588338e-12
9.497927496e-06
-9.345953532e-12
4.127063186e-12
9.497933046e-06
-6.755916751e-12
3.379592357e-12
9.4979398e-06
-5.936127304e-12
2.244286141e-12
9.497946007e-06
-4.712123861e-12
1.477143356e-12
9.497948577e-06
-4.667847335e-12
-1.105893398e-12
9.497952363e-06
-7.188764963e-12
-1.316846252e-12
-6.787575315e-12
-1.694134895e-13
9.498071408e-06
-8.7500904e-12
2.249914877e-11
9.498070709e-06
1.854178571e-11
4.763792825e-12
9.49805642e-06
4.026795799e-12
4.182733999e-12
9.49804502e-06
-2.257812518e-12
3.79334974e-12
9.498035503e-06
-5.239136502e-12
3.021644375e-12
9.498029942e-06
-5.346263526e-12
4.531526858e-12
9.498025488e-06
-6.251365843e-12
3.162697162e-12
9.498022667e-06
-6.158575121e-12
1.408080283e-12
9.498022676e-06
-5.9646116e-12
1.242999645e-12
9.498024363e-06
-5.242311168e-12
4.019805332e-13
9.498025691e-06
-4.531463746e-12
1.104001767e-12
9.498024319e-06
-4.042779396e-12
-1.773096137e-12
9.498025643e-06
-3.58316497e-12
-5.598709607e-13
-3.668075169e-12
1.271072747e-12
9.498021072e-06
-1.217512324e-12
9.498028189e-06
-1.909758525e-12
9.498027886e-06
1.622674992e-12
9.498021812e-06
4.361803039e-13
9.498016034e-06
5.630661163e-13
9.498008627e-06
2.264151904e-12
9.498002822e-06
2.407817306e-12
9.497996093e-06
9.313540118e-13
9.497993762e-06
1.401528776e-12
9.497993629e-06
2.006578312e-12
9.497992068e-06
7.913862269e-13
9.497988598e-06
-7.281904079e-13
9.497983183e-06
3.280750068e-13
1.324629044e-12
9.498077239e-06
-2.917900266e-10
5.114453052e-11
9.498032186e-06
4.124652426e-11
3.930796286e-13
9.498021248e-06
1.02917369e-11
2.189885718e-12
9.498005839e-06
1.583170155e-11
-1.348380201e-12
9.497995773e-06
1.703818644e-11
-1.113977108e-12
9.497985108e-06
1.312548867e-11
-3.09594875e-13
9.497979498e-06
1.01868517e-11
-1.105105131e-12
9.49797562e-06
9.870922043e-12
-1.01381013e-13
9.497970315e-06
7.635484433e-12
-1.946928752e-15
9.497968645e-06
7.056398319e-12
-1.014782812e-12
9.49796591e-06
4.685432186e-12
-1.484780977e-12
9.497962368e-06
3.919326617e-12
6.074757136e-14
9.497963161e-06
4.093735004e-12
-2.482072328e-13
9.497962384e-06
4.808679288e-12
-8.336142989e-13
3.083052837e-12
-1.695045303e-12
9.498265095e-06
-8.193081443e-10
1.001269948e-10
9.498091034e-06
2.637018607e-10
-2.245875982e-11
9.498040147e-06
7.440905646e-11
-1.954988462e-12
9.498013067e-06
5.834021883e-11
-3.185937575e-12
9.497997265e-06
4.824523935e-11
-2.960045483e-12
9.497988452e-06
3.160232142e-11
-3.422671271e-12
9.497985967e-06
2.109555046e-11
-1.997021785e-12
9.497984021e-06
1.347133153e-11
-1.531702627e-12
9.497983849e-06
1.028111858e-11
-8.843314247e-13
9.497985265e-06
6.385267608e-12
-1.377316493e-12
9.497985994e-06
5.493243281e-12
-2.748856512e-12
9.497984875e-06
3.183656006e-12
-1.819150805e-12
9.497990202e-06
5.124456354e-12
-2.450013911e-13
9.497990648e-06
6.512531858e-12
-1.42788123e-12
6.026052464e-12
-1.170857112e-12
9.498768462e-06
-2.259340389e-09
3.132315936e-10
9.498157054e-06
1.072463785e-09
-9.780792554e-11
9.497960155e-06
3.351700122e-10
-3.179021675e-11
9.497908937e-06
1.622859658e-10
-2.651102593e-11
9.497902029e-06
9.129852722e-11
-1.981761799e-11
9.497912511e-06
4.458324548e-11
-1.206606541e-11
9.497926205e-06
2.285951265e-11
-7.79198513e-12
9.497939475e-06
1.36702156e-11
-4.479493552e-12
9.497948355e-06
6.344071224e-12
-2.361305205e-12
9.497957106e-06
4.870247842e-12
-1.598346552e-13
9.497961919e-06
2.677696971e-12
-2.410390187e-12
9.497968891e-06
4.2349322e-12
-2.159921348e-12
9.497971743e-06
2.518398408e-12
-1.932481612e-12
9.497975487e-06
4.782017189e-12
-2.360184703e-12
5.567684445e-12
-1.095115883e-12
9.499017419e-06
5.052403013e-10
9.497629216e-06
3.29762611e-09
-4.178001306e-10
9.497665815e-06
2.627832184e-10
1.7684003e-11
9.497761599e-06
1.069673826e-10
-2.205909614e-11
9.497832669e-06
7.327474398e-11
-2.404543056e-11
9.497878312e-06
2.903920923e-11
-1.262100355e-11
9.497908694e-06
1.248687341e-11
-7.548075342e-12
9.49792424e-06
5.369535598e-12
-3.131425579e-12
9.497938149e-06
2.529197627e-12
-1.814294317e-13
9.497943903e-06
2.478563231e-13
-6.844387637e-13
9.497949231e-06
-1.21765227e-12
-3.550764819e-13
9.497952629e-06
-1.376946261e-12
-2.204698697e-12
9.497956838e-06
9.51165144e-13
-1.727593313e-12
9.497962386e-06
1.277164106e-12
-2.207084611e-12
1.016456283e-12
-1.85194851e-12
9.522075758e-06
-3.298430703e-09
-3.298117637e-09
9.523148121e-06
-2.630000284e-10
-2.622336492e-10
9.523595205e-06
-1.077743663e-10
-1.070583835e-10
9.523901283e-06
-7.292454396e-11
-7.153408974e-11
9.524032789e-06
-2.66176915e-11
-2.746686923e-11
9.524094242e-06
-9.915104843e-12
-1.058672233e-11
9.52412827e-06
-5.102423554e-12
-3.586747579e-12
9.524150668e-06
-2.474235031e-12
-1.634000319e-12
9.524169822e-06
-1.001362512e-12
-1.145911822e-12
9.524189159e-06
-4.930199825e-13
2.420045443e-12
9.524207962e-06
-3.162688101e-13
-1.175438156e-13
9.524224103e-06
-1.320177129e-12
-2.871127774e-13
9.524245128e-06
-3.197404867e-12
-2.050598884e-12
-1.678135913e-12
-1.221139162e-12
9.497659618e-06
-1.071383264e-09
-4.162318352e-10
9.497693638e-06
-3.345570644e-10
1.798779542e-11
9.497791374e-06
-1.608369581e-10
-2.326762033e-11
9.497861821e-06
-9.166633853e-11
-2.513433462e-11
9.497903701e-06
-4.552452675e-11
-1.45212356e-11
9.497932736e-06
-2.386101883e-11
-8.124741184e-12
9.497952533e-06
-1.27537937e-11
-4.757421418e-12
9.497967693e-06
-5.493016545e-12
-1.247277601e-12
9.497973093e-06
-4.407534478e-12
2.067658049e-13
9.497980896e-06
-4.119094533e-12
2.352837369e-14
9.497984611e-06
-3.626237042e-12
-1.097329697e-12
9.497987031e-06
-3.37585565e-12
-1.203254304e-12
9.497996578e-06
-5.261016254e-12
-1.642735604e-12
-4.020245961e-12
-2.810794422e-12
9.498133803e-06
-2.638152461e-10
-9.825534533e-11
9.497938045e-06
-7.19535771e-11
-3.253825033e-11
9.497886119e-06
-5.512434733e-11
-2.75591782e-11
9.497882635e-06
-4.544488789e-11
-2.035646269e-11
9.497889246e-06
-3.156969756e-11
-1.212454531e-11
9.497904576e-06
-2.151589051e-11
-7.83346016e-12
9.497918257e-06
-1.440758398e-11
-5.749636862e-12
9.497926507e-06
-1.21000347e-11
-4.682190442e-12
9.497933679e-06
-8.239686067e-12
-8.178147544e-13
9.497943633e-06
-4.896796769e-12
6.963728181e-14
9.497948434e-06
-4.128424048e-12
-1.351255026e-12
9.49795069e-06
-5.193056279e-12
-1.844905407e-12
9.497957574e-06
-5.786130802e-12
-1.195595186e-12
-5.348413547e-12
-2.045359228e-12
9.498049907e-06
-4.04651792e-11
-2.440871614e-11
9.497998666e-06
-1.00717037e-11
-6.628301147e-12
9.497970888e-06
-1.769474687e-11
-5.584780757e-12
9.497956182e-06
-1.667475062e-11
-5.424059257e-12
9.497947451e-06
-1.455984816e-11
-5.178668586e-12
9.497945166e-06
-1.019748908e-11
-3.34897995e-12
9.497941634e-06
-7.326551486e-12
-2.55557214e-12
9.497943565e-06
-6.76840303e-12
-1.178414157e-12
9.497944262e-06
-6.598062897e-12
6.729383989e-13
9.497947862e-06
-4.504116794e-12
-7.221049749e-13
9.497948238e-06
-4.110261723e-12
-1.820468966e-12
9.497951263e-06
-2.21686004e-12
-1.216329151e-12
9.497951388e-06
-2.683119393e-12
-1.726907152e-12
-2.250700541e-12
-1.673127035e-12
9.497984677e-06
5.254859933e-13
9.497970516e-06
1.508199759e-12
9.497955555e-06
-1.529054424e-12
9.497945027e-06
-3.409382371e-12
9.49793694e-06
-2.750466986e-12
9.497928513e-06
-1.693676482e-12
9.497922317e-06
-1.495549838e-12
9.497918165e-06
1.469551157e-13
9.497915827e-06
2.835444437e-13
9.497912458e-06
-2.838348289e-13
9.497913032e-06
-4.445697492e-13
9.497910367e-06
-2.692115567e-12
9.497909723e-06
-3.334004531e-12
-3.255279771e-12