/*--------------------------------*- C++ -*----------------------------------*\
| =========                 |                                                 |
| \\      /  F ield         | OpenFOAM: The Open Source CFD Toolbox           |
|  \\    /   O peration     | Version:  4.x                                   |
|   \\  /    A nd           | Web:      www.OpenFOAM.org                      |
|    \\/     M anipulation  |                                                 |
\*---------------------------------------------------------------------------*/
FoamFile
{
    version     2.0;
    format      ascii;
    class       volScalarField;
    location    "9000";
    object      rho;
}
// * * * * * * * * * * * * * * * * * * * * * * * * * * * * * * * * * * * * * //

dimensions      [1 -3 0 0 0 0 0];

internalField   nonuniform List<scalar> 
1174
(
0.2797543744
0.2797545739
0.2797548831
0.2797552544
0.2797556951
0.2797561945
0.2797568257
0.2797574425
0.2797581239
0.2797587822
0.2797594773
0.2797601174
0.2797607361
0.2797612259
0.2797557381
0.2797560558
0.2797565237
0.2797570429
0.2797576638
0.2797583667
0.279759099
0.2797598411
0.2797605187
0.2797612252
0.2797618986
0.27976253
0.2797630564
0.2797634564
0.2797554733
0.2797560295
0.2797567563
0.2797575355
0.2797584261
0.2797593126
0.2797601755
0.2797609836
0.2797617238
0.2797624174
0.2797630944
0.2797636506
0.2797641281
0.2797645071
0.2797559338
0.2797568348
0.2797578689
0.2797589428
0.2797599957
0.27976104
0.2797620073
0.2797628818
0.2797636201
0.2797642683
0.2797648415
0.2797653977
0.2797658098
0.2797661104
0.2797558472
0.2797569263
0.2797581519
0.2797593471
0.2797604897
0.2797615758
0.2797625425
0.27976335
0.2797641104
0.2797647504
0.2797652917
0.2797657122
0.2797660501
0.2797662898
0.2797554993
0.2797563959
0.2797574546
0.2797585004
0.2797595897
0.279760634
0.2797615957
0.279762438
0.2797631818
0.2797638542
0.27976439
0.2797648805
0.2797652979
0.2797656164
0.2797555636
0.2797561511
0.279756839
0.2797576459
0.2797585922
0.2797593982
0.2797602188
0.2797611123
0.2797618847
0.2797625901
0.2797632149
0.2797637529
0.279764266
0.27976467
0.2797544002
0.2797546992
0.2797551516
0.2797556487
0.2797562466
0.2797569331
0.2797576828
0.2797584079
0.2797591546
0.2797598457
0.2797605382
0.2797611759
0.2797617733
0.2797621983
0.2797541166
0.2797542975
0.2797545699
0.2797549558
0.279755398
0.2797559108
0.2797565226
0.2797571514
0.2797578355
0.2797584932
0.2797591614
0.2797597978
0.2797604417
0.27976092
0.2797552664
0.2797554788
0.279755827
0.2797562871
0.2797568354
0.2797574644
0.2797581534
0.2797588534
0.279759563
0.2797602884
0.2797609796
0.279761657
0.2797622909
0.2797629227
0.2797633213
0.2797541764
0.2797547257
0.279755438
0.2797562484
0.2797570383
0.2797578489
0.2797586261
0.2797593746
0.2797600538
0.2797607287
0.2797613613
0.2797619149
0.2797624341
0.2797628659
0.2797547232
0.2797558313
0.2797570264
0.2797582245
0.279759339
0.2797603315
0.2797612103
0.2797619871
0.279762698
0.2797632356
0.2797637236
0.279764129
0.2797644634
0.2797646788
0.2797582706
0.2797601404
0.279761899
0.2797634869
0.279764792
0.2797658145
0.2797665798
0.2797671426
0.2797675492
0.2797678607
0.2797680938
0.2797682575
0.2797683542
0.2797684267
0.2797596678
0.2797618402
0.2797637307
0.2797652435
0.2797663735
0.2797672251
0.2797678484
0.2797682375
0.2797685073
0.2797686607
0.2797687215
0.2797687126
0.2797687266
0.2797686954
0.2797591018
0.2797609326
0.2797626661
0.279764236
0.279765521
0.2797665179
0.2797672637
0.2797678784
0.2797683047
0.2797686528
0.2797688783
0.2797690268
0.279769137
0.2797692049
0.2797550142
0.2797561304
0.2797572982
0.2797584945
0.2797596559
0.2797606584
0.279761577
0.2797623369
0.2797629677
0.2797635416
0.2797640056
0.2797643741
0.279764704
0.2797649017
0.279756549
0.279757067
0.279757787
0.2797585637
0.279759382
0.279760185
0.2797609922
0.2797617473
0.2797625114
0.2797632129
0.2797638195
0.2797643949
0.279764872
0.2797652457
0.2797531693
0.279753489
0.2797539185
0.2797544314
0.279755044
0.2797557164
0.2797563921
0.2797571213
0.2797578277
0.2797585343
0.2797591972
0.2797598156
0.2797603931
0.2797608556
0.2797545327
0.2797549441
0.2797555075
0.2797561838
0.2797569989
0.2797578829
0.2797587509
0.279759601
0.2797604109
0.2797611898
0.2797619477
0.2797625855
0.2797631537
0.2797636699
0.2797640347
0.2797568765
0.2797578122
0.2797589219
0.2797601643
0.27976138
0.279762518
0.2797636043
0.2797644809
0.2797652271
0.2797658826
0.2797664382
0.2797668957
0.2797672651
0.2797675034
0.2797677419
0.279760152
0.2797625349
0.2797646741
0.2797664678
0.2797678323
0.2797687758
0.2797694146
0.279769812
0.2797700188
0.2797700803
0.2797701306
0.2797700648
0.2797699961
0.2797699743
0.2797666015
0.2797706255
0.2797733936
0.2797750681
0.2797758153
0.2797760224
0.2797758347
0.2797753918
0.2797748573
0.2797742864
0.2797736672
0.2797731249
0.2797725996
0.2797722453
0.279777523
0.2797815549
0.2797831869
0.2797835026
0.2797829991
0.2797821075
0.279781046
0.2797799419
0.2797789021
0.2797778619
0.2797769108
0.2797760909
0.2797753531
0.2797748283
0.2797672059
0.2797712165
0.2797739256
0.2797755641
0.2797763311
0.2797765158
0.2797763239
0.279775889
0.2797753732
0.2797747926
0.2797742117
0.2797736492
0.27977312
0.2797727791
0.2797592963
0.2797616768
0.2797638266
0.2797656304
0.2797669408
0.27976792
0.279768589
0.2797689887
0.279769214
0.279769325
0.2797693552
0.27976934
0.2797692946
0.2797692338
0.2797547516
0.2797558644
0.279757114
0.2797582997
0.2797594423
0.2797604766
0.2797613636
0.279762174
0.279762842
0.2797633869
0.2797638392
0.2797642224
0.2797645355
0.2797647239
0.279756492
0.2797570807
0.2797578166
0.2797586367
0.2797594778
0.2797603429
0.2797611615
0.2797619739
0.2797627398
0.27976345
0.2797640884
0.2797646661
0.2797651871
0.2797655527
0.2797544431
0.2797551654
0.2797560427
0.2797570741
0.2797581563
0.2797592255
0.2797602551
0.2797612263
0.2797620905
0.2797628684
0.2797635434
0.2797641016
0.2797645876
0.2797649688
0.2797652426
0.2797552935
0.2797569794
0.279758823
0.2797605748
0.2797621185
0.279763402
0.2797644066
0.2797651776
0.279765747
0.2797661774
0.2797664482
0.2797666552
0.2797668008
0.2797668943
0.2797669237
0.2797621815
0.2797670603
0.2797710535
0.2797738428
0.2797755256
0.2797763142
0.2797765489
0.2797763507
0.2797758695
0.2797753121
0.279774744
0.2797741665
0.2797736004
0.2797731028
0.2797727004
0.2797911726
0.2797962464
0.2797971192
0.2797956572
0.2797931816
0.2797904198
0.2797877419
0.2797852756
0.2797830527
0.279781129
0.2797794867
0.2797779706
0.2797767503
0.2797758274
0.2798383377
0.2798320294
0.279822311
0.279812964
0.2798050404
0.2797985368
0.2797933412
0.2797891395
0.2797857086
0.2797828897
0.279780561
0.2797786113
0.2797770369
0.2797758773
0.2797922638
0.2797973211
0.2797981796
0.2797967585
0.2797942969
0.2797915091
0.2797887552
0.279786193
0.2797839865
0.2797820385
0.2797803401
0.279778881
0.2797776518
0.2797768102
0.2797662145
0.2797702468
0.2797729557
0.2797745806
0.2797753562
0.2797755063
0.2797752945
0.2797748497
0.2797742576
0.2797736722
0.2797731202
0.2797726299
0.2797721023
0.2797717043
0.2797599328
0.279761768
0.2797635644
0.2797651348
0.2797663843
0.2797674052
0.2797682003
0.2797687699
0.2797691989
0.2797695432
0.2797697884
0.2797699107
0.279770015
0.2797700777
0.279756331
0.2797572107
0.2797582185
0.2797593509
0.2797604095
0.2797614554
0.2797624192
0.2797632921
0.2797640197
0.2797646898
0.2797653197
0.2797658234
0.2797662105
0.2797664675
0.2797551846
0.279756049
0.2797570937
0.2797582902
0.2797594396
0.2797606258
0.2797617253
0.2797627119
0.279763503
0.2797642645
0.279764881
0.2797654652
0.2797658837
0.2797662851
0.2797665408
0.2797583045
0.2797606712
0.2797629045
0.279764835
0.2797663402
0.279767505
0.2797683522
0.2797690101
0.2797693982
0.2797696592
0.2797698225
0.2797699319
0.2797699521
0.2797699411
0.2797699407
0.2797691638
0.2797762537
0.2797802367
0.2797820063
0.2797823047
0.2797817315
0.2797808241
0.2797797998
0.2797786994
0.2797776183
0.2797766126
0.279775657
0.2797748234
0.2797740914
0.279773527
0.279830667
0.2798392972
0.2798330285
0.2798232891
0.2798139408
0.2798060555
0.2797996101
0.2797943832
0.2797901818
0.2797867351
0.2797838748
0.279781519
0.2797795737
0.2797779884
0.2797768205
0.2808175748
0.2807112822
0.2806526131
0.2806184137
0.2805974161
0.2805838901
0.2805747012
0.2805682019
0.2805634828
0.2805599383
0.2805572929
0.280555198
0.2805536573
0.2805526457
0.279840152
0.2798338587
0.279824129
0.2798148126
0.2798069025
0.2798004095
0.2797951617
0.2797909615
0.2797875427
0.2797847287
0.2797823777
0.2797804482
0.2797788863
0.2797777695
0.2797756129
0.2797795932
0.279781311
0.2797816085
0.2797811121
0.279780215
0.2797791508
0.2797780674
0.2797769883
0.2797759809
0.2797750328
0.2797741997
0.279773441
0.2797728918
0.2797594601
0.2797617472
0.2797636161
0.2797651369
0.2797662774
0.2797671286
0.2797677235
0.2797681703
0.2797684641
0.2797686628
0.2797687292
0.279768767
0.2797687668
0.2797687639
0.2797545931
0.2797556567
0.2797568427
0.2797580332
0.2797591574
0.2797602268
0.2797612099
0.2797620341
0.2797627324
0.2797633676
0.2797638738
0.279764345
0.2797647285
0.2797649623
0.2797547336
0.2797554389
0.2797563604
0.2797573715
0.2797584932
0.279759607
0.279760634
0.2797616038
0.2797624996
0.2797632351
0.2797639081
0.2797644818
0.2797649455
0.2797653429
0.2797656489
0.2797564569
0.2797581627
0.2797600255
0.2797618529
0.2797634172
0.2797646572
0.2797656865
0.2797665118
0.2797670811
0.2797675186
0.2797678573
0.2797681021
0.2797682389
0.2797683361
0.279768408
0.2797609393
0.2797658385
0.2797698515
0.2797726095
0.2797742308
0.2797750016
0.2797751472
0.2797749382
0.2797745247
0.2797740135
0.2797734179
0.2797727882
0.2797722523
0.2797717385
0.2797713386
0.2797814011
0.2797926988
0.2797977255
0.2797986066
0.2797971462
0.2797947056
0.2797919272
0.279789206
0.2797866633
0.2797844385
0.2797824924
0.2797807994
0.2797793624
0.2797781281
0.2797772324
0.2798304928
0.2798391197
0.2798328112
0.2798231102
0.2798138036
0.2798058834
0.2797993755
0.2797941548
0.2797899092
0.279786476
0.2797836386
0.2797812937
0.2797793224
0.2797777367
0.2797766124
0.2797798256
0.2797911251
0.2797962115
0.2797970999
0.2797956561
0.2797932366
0.27979044
0.2797876984
0.2797851748
0.279782969
0.2797809983
0.2797793151
0.2797778276
0.2797766149
0.2797757011
0.2797676317
0.2797716657
0.2797744193
0.2797760641
0.2797768197
0.2797769839
0.2797767792
0.2797763373
0.2797757929
0.279775169
0.279774585
0.2797740358
0.2797735196
0.2797731477
0.2797576714
0.2797595473
0.2797613282
0.2797628574
0.2797641964
0.2797652065
0.2797659849
0.2797665669
0.2797670017
0.2797673018
0.2797675177
0.2797676468
0.2797677676
0.2797678428
0.2797551499
0.2797560658
0.2797571105
0.2797581696
0.2797593078
0.2797603599
0.2797612995
0.2797621427
0.2797628841
0.2797635875
0.279764149
0.2797646298
0.2797650086
0.2797652957
0.2797545654
0.2797549403
0.2797555562
0.279756266
0.2797570715
0.2797579042
0.2797587708
0.2797596205
0.279760452
0.2797611887
0.2797619291
0.2797625637
0.2797631155
0.2797636133
0.2797640553
0.2797543314
0.2797552403
0.2797563527
0.2797575763
0.2797587435
0.2797598926
0.2797609389
0.2797618673
0.2797626699
0.2797633289
0.2797638964
0.2797643554
0.2797647347
0.279765069
0.2797653213
0.2797572635
0.279759546
0.279761923
0.2797640521
0.279765809
0.2797671454
0.2797681102
0.2797687358
0.2797690915
0.279769314
0.2797694166
0.2797694399
0.2797694188
0.2797693649
0.2797693041
0.2797615515
0.2797664104
0.27977039
0.2797731595
0.2797747583
0.2797755069
0.2797756908
0.2797754722
0.2797750093
0.2797744275
0.2797738587
0.2797732777
0.2797727448
0.2797722224
0.2797717982
0.2797696523
0.2797767193
0.2797806907
0.2797824227
0.2797827729
0.2797822755
0.2797813977
0.2797803326
0.2797792422
0.2797781462
0.2797771387
0.2797762004
0.2797753935
0.2797746874
0.2797742196
0.2797613153
0.2797661632
0.2797701412
0.279772879
0.2797745092
0.2797753029
0.2797755159
0.2797753261
0.2797748961
0.2797743562
0.2797737468
0.2797731627
0.2797726296
0.2797721416
0.2797717348
0.2797564833
0.279758755
0.2797611169
0.2797632682
0.2797649867
0.2797663471
0.279767287
0.2797679612
0.2797683407
0.2797686062
0.2797687144
0.2797687296
0.2797687133
0.2797686486
0.2797685647
0.2797570648
0.2797581894
0.2797594263
0.2797606332
0.2797617985
0.2797627934
0.2797637073
0.2797644795
0.2797650906
0.2797656294
0.2797661362
0.2797665415
0.2797668568
0.2797670889
0.2797560562
0.279756644
0.279757376
0.2797581895
0.2797590607
0.2797599586
0.2797608094
0.2797616461
0.2797624167
0.2797631414
0.2797637901
0.2797643842
0.2797648662
0.279765245
0.2797547732
0.2797550081
0.279755341
0.2797557746
0.2797563104
0.2797568956
0.2797575682
0.2797583082
0.2797590318
0.2797597221
0.2797604322
0.279761088
0.2797616797
0.2797622453
0.279762689
0.2797554497
0.2797558956
0.2797564666
0.2797571457
0.2797579259
0.2797587429
0.2797595807
0.2797603865
0.2797611655
0.279761891
0.2797625745
0.2797632246
0.2797637942
0.2797642632
0.2797646397
0.279755299
0.2797561927
0.2797573289
0.2797585162
0.2797597161
0.2797608174
0.2797618261
0.2797627346
0.2797635004
0.2797641721
0.2797647058
0.2797651823
0.2797655317
0.2797658491
0.2797660408
0.2797566683
0.2797584204
0.279760252
0.2797620103
0.2797635782
0.2797648641
0.2797658922
0.2797666775
0.2797672541
0.2797676537
0.2797679848
0.2797682041
0.2797683344
0.279768399
0.2797684388
0.279757511
0.2797599112
0.279762152
0.279764012
0.2797655111
0.2797667265
0.2797675679
0.2797681875
0.27976859
0.2797688767
0.2797690234
0.279769085
0.279769142
0.2797690997
0.2797691007
0.279757518
0.2797592043
0.2797610993
0.2797628865
0.2797644196
0.2797657255
0.2797667273
0.2797674886
0.2797680905
0.279768524
0.2797688355
0.279769086
0.2797692562
0.2797693497
0.2797693556
0.27975541
0.2797563523
0.2797574624
0.2797587019
0.2797599149
0.2797610752
0.2797620942
0.2797629933
0.2797638054
0.2797644649
0.2797650539
0.2797655147
0.2797658522
0.2797661527
0.2797664024
0.2797555099
0.2797559228
0.2797564811
0.2797571926
0.2797579706
0.2797588155
0.279759634
0.2797604295
0.279761209
0.2797619683
0.2797626622
0.2797633035
0.279763866
0.27976434
0.279764699
0.2797541928
0.2797545174
0.2797549307
0.2797554416
0.2797561271
0.2797568108
0.2797575271
0.2797582532
0.2797589904
0.2797596897
0.2797603557
0.2797609931
0.2797616179
0.2797621078
0.2797542763
0.2797544088
0.2797545897
0.2797548993
0.2797552878
0.2797557353
0.2797562504
0.2797568483
0.2797574595
0.2797581078
0.2797587653
0.2797594577
0.2797601137
0.2797607123
0.2797611685
0.2797548457
0.2797550683
0.2797553316
0.2797557675
0.2797563657
0.2797570019
0.2797576451
0.2797583896
0.279759114
0.2797598331
0.2797605261
0.2797611861
0.2797618288
0.2797623846
0.2797628458
0.2797542221
0.279754634
0.2797552376
0.2797559558
0.2797567678
0.2797576597
0.279758582
0.2797594013
0.279760215
0.2797609412
0.2797616865
0.2797623593
0.2797629155
0.2797634336
0.2797638402
0.2797572322
0.279757936
0.2797588513
0.2797598415
0.2797609036
0.2797619877
0.2797630542
0.2797639744
0.2797648298
0.2797655925
0.279766286
0.2797668861
0.2797673886
0.2797678359
0.279768129
0.2797560407
0.2797568758
0.279757974
0.279759161
0.2797603335
0.2797614754
0.2797625158
0.2797634545
0.2797643309
0.2797650833
0.279765726
0.2797662905
0.2797667072
0.2797670605
0.2797673027
0.2797551914
0.2797558869
0.279756758
0.2797577885
0.279758903
0.279760007
0.2797610456
0.2797619759
0.2797628505
0.279763618
0.2797643264
0.2797648915
0.2797653787
0.2797658075
0.2797661202
0.2797547555
0.2797551736
0.2797557592
0.2797564485
0.2797572757
0.2797581516
0.2797589999
0.2797598634
0.2797606989
0.2797614719
0.2797622104
0.2797628444
0.279763413
0.2797639289
0.2797643123
0.2797547698
0.27975501
0.2797553202
0.2797558018
0.2797563289
0.2797569426
0.2797575806
0.2797582778
0.2797589871
0.2797597185
0.2797604195
0.279761094
0.2797617249
0.2797622923
0.2797627242
0.2797549029
0.2797550086
0.2797552105
0.2797554791
0.2797558659
0.2797563128
0.2797568584
0.2797574371
0.2797580778
0.2797587604
0.279759401
0.2797600694
0.2797607161
0.2797613208
0.2797617943
)
;

boundaryField
{
    top
    {
        type            calculated;
        value           nonuniform List<scalar> 
127
(
0.2797549029
0.2797541166
0.2797531693
0.279756492
0.279756331
0.2797545931
0.2797551499
0.2797560562
0.2797541928
0.2797550086
0.2797542975
0.279753489
0.2797570807
0.2797572107
0.2797556567
0.2797560658
0.279756644
0.2797545174
0.2797552105
0.2797545699
0.2797539185
0.2797578166
0.2797582185
0.2797568427
0.2797571105
0.279757376
0.2797549307
0.2797554791
0.2797549558
0.2797544314
0.2797586367
0.2797593509
0.2797580332
0.2797581696
0.2797581895
0.2797554416
0.2797558659
0.279755398
0.279755044
0.2797594778
0.2797604095
0.2797591574
0.2797593078
0.2797590607
0.2797561271
0.2797563128
0.2797559108
0.2797557164
0.2797603429
0.2797614554
0.2797602268
0.2797603599
0.2797599586
0.2797568108
0.2797568584
0.2797565226
0.2797563921
0.2797611615
0.2797624192
0.2797612099
0.2797612995
0.2797608094
0.2797575271
0.2797574371
0.2797571514
0.2797571213
0.2797619739
0.2797632921
0.2797620341
0.2797621427
0.2797616461
0.2797582532
0.2797580778
0.2797578355
0.2797578277
0.2797627398
0.2797640197
0.2797627324
0.2797628841
0.2797624167
0.2797589904
0.2797587604
0.2797584932
0.2797585343
0.27976345
0.2797646898
0.2797633676
0.2797635875
0.2797631414
0.2797596897
0.279759401
0.2797591614
0.2797591972
0.2797640884
0.2797653197
0.2797638738
0.279764149
0.2797637901
0.2797603557
0.2797600694
0.2797597978
0.2797598156
0.2797646661
0.2797658234
0.279764345
0.2797646298
0.2797643842
0.2797609931
0.2797607161
0.2797604417
0.2797603931
0.2797651871
0.2797662105
0.2797647285
0.2797650086
0.2797648662
0.2797616179
0.2797613208
0.27976092
0.2797608556
0.2797655527
0.2797664675
0.2797649623
0.2797652957
0.279765245
0.2797621078
0.2797617943
)
;
    }
    bottom
    {
        type            calculated;
        value           nonuniform List<scalar> 
134
(
0.2797552664
0.2797545327
0.2797544431
0.2797551846
0.2797547336
0.2797545654
0.2797547732
0.2797542763
0.2797543744
0.2797554788
0.2797549441
0.2797551654
0.279756049
0.2797554389
0.2797549403
0.2797550081
0.2797544088
0.2797545739
0.279755827
0.2797555075
0.2797560427
0.2797570937
0.2797563604
0.2797555562
0.279755341
0.2797545897
0.2797548831
0.2797562871
0.2797561838
0.2797570741
0.2797582902
0.2797573715
0.279756266
0.2797557746
0.2797548993
0.2797552544
0.2797568354
0.2797569989
0.2797581563
0.2797594396
0.2797584932
0.2797570715
0.2797563104
0.2797552878
0.2797556951
0.2797574644
0.2797578829
0.2797592255
0.2797606258
0.279759607
0.2797579042
0.2797568956
0.2797557353
0.2797561945
0.2797581534
0.2797587509
0.2797602551
0.2797617253
0.279760634
0.2797587708
0.2797575682
0.2797562504
0.2797568257
0.2797588534
0.279759601
0.2797612263
0.2797627119
0.2797616038
0.2797596205
0.2797583082
0.2797568483
0.2797574425
0.279759563
0.2797604109
0.2797620905
0.279763503
0.2797624996
0.279760452
0.2797590318
0.2797574595
0.2797581239
0.2797602884
0.2797611898
0.2797628684
0.2797642645
0.2797632351
0.2797611887
0.2797597221
0.2797581078
0.2797587822
0.2797609796
0.2797619477
0.2797635434
0.279764881
0.2797639081
0.2797619291
0.2797604322
0.2797587653
0.2797594773
0.279761657
0.2797625855
0.2797641016
0.2797654652
0.2797644818
0.2797625637
0.279761088
0.2797594577
0.2797601174
0.2797622909
0.2797631537
0.2797645876
0.2797658837
0.2797649455
0.2797631155
0.2797616797
0.2797601137
0.2797607361
0.2797629227
0.2797636699
0.2797649688
0.2797662851
0.2797653429
0.2797636133
0.2797622453
0.2797607123
0.2797612259
0.2797633213
0.2797640347
0.2797652426
0.2797665408
0.2797656489
0.2797640553
0.279762689
0.2797611685
)
;
    }
    side-walls
    {
        type            calculated;
        value           nonuniform List<scalar> 
261
(
0.2797543744
0.2797557381
0.2797554733
0.2797559338
0.2797558472
0.2797554993
0.2797555636
0.2797544002
0.2797541166
0.2797545739
0.2797560558
0.2797560295
0.2797568348
0.2797569263
0.2797563959
0.2797561511
0.2797546992
0.2797542975
0.2797548831
0.2797565237
0.2797567563
0.2797578689
0.2797581519
0.2797574546
0.279756839
0.2797551516
0.2797545699
0.2797552544
0.2797570429
0.2797575355
0.2797589428
0.2797593471
0.2797585004
0.2797576459
0.2797556487
0.2797549558
0.2797556951
0.2797576638
0.2797584261
0.2797599957
0.2797604897
0.2797595897
0.2797585922
0.2797562466
0.279755398
0.2797561945
0.2797583667
0.2797593126
0.27976104
0.2797615758
0.279760634
0.2797593982
0.2797569331
0.2797559108
0.2797568257
0.279759099
0.2797601755
0.2797620073
0.2797625425
0.2797615957
0.2797602188
0.2797576828
0.2797565226
0.2797574425
0.2797598411
0.2797609836
0.2797628818
0.27976335
0.279762438
0.2797611123
0.2797584079
0.2797571514
0.2797581239
0.2797605187
0.2797617238
0.2797636201
0.2797641104
0.2797631818
0.2797618847
0.2797591546
0.2797578355
0.2797587822
0.2797612252
0.2797624174
0.2797642683
0.2797647504
0.2797638542
0.2797625901
0.2797598457
0.2797584932
0.2797594773
0.2797618986
0.2797630944
0.2797648415
0.2797652917
0.27976439
0.2797632149
0.2797605382
0.2797591614
0.2797601174
0.27976253
0.2797636506
0.2797653977
0.2797657122
0.2797648805
0.2797637529
0.2797611759
0.2797597978
0.2797607361
0.2797630564
0.2797641281
0.2797658098
0.2797660501
0.2797652979
0.279764266
0.2797617733
0.2797604417
0.2797612259
0.2797634564
0.2797645071
0.2797661104
0.2797662898
0.2797656164
0.27976467
0.2797621983
0.27976092
0.2797542763
0.2797548457
0.2797542221
0.2797572322
0.2797560407
0.2797551914
0.2797547555
0.2797547698
0.2797549029
0.2797544088
0.2797550683
0.279754634
0.279757936
0.2797568758
0.2797558869
0.2797551736
0.27975501
0.2797550086
0.2797545897
0.2797553316
0.2797552376
0.2797588513
0.279757974
0.279756758
0.2797557592
0.2797553202
0.2797552105
0.2797548993
0.2797557675
0.2797559558
0.2797598415
0.279759161
0.2797577885
0.2797564485
0.2797558018
0.2797554791
0.2797552878
0.2797563657
0.2797567678
0.2797609036
0.2797603335
0.279758903
0.2797572757
0.2797563289
0.2797558659
0.2797557353
0.2797570019
0.2797576597
0.2797619877
0.2797614754
0.279760007
0.2797581516
0.2797569426
0.2797563128
0.2797562504
0.2797576451
0.279758582
0.2797630542
0.2797625158
0.2797610456
0.2797589999
0.2797575806
0.2797568584
0.2797568483
0.2797583896
0.2797594013
0.2797639744
0.2797634545
0.2797619759
0.2797598634
0.2797582778
0.2797574371
0.2797574595
0.279759114
0.279760215
0.2797648298
0.2797643309
0.2797628505
0.2797606989
0.2797589871
0.2797580778
0.2797581078
0.2797598331
0.2797609412
0.2797655925
0.2797650833
0.279763618
0.2797614719
0.2797597185
0.2797587604
0.2797587653
0.2797605261
0.2797616865
0.279766286
0.279765726
0.2797643264
0.2797622104
0.2797604195
0.279759401
0.2797594577
0.2797611861
0.2797623593
0.2797668861
0.2797662905
0.2797648915
0.2797628444
0.279761094
0.2797600694
0.2797601137
0.2797618288
0.2797629155
0.2797673886
0.2797667072
0.2797653787
0.279763413
0.2797617249
0.2797607161
0.2797607123
0.2797623846
0.2797634336
0.2797678359
0.2797670605
0.2797658075
0.2797639289
0.2797622923
0.2797613208
0.2797611685
0.2797628458
0.2797638402
0.279768129
0.2797673027
0.2797661202
0.2797643123
0.2797627242
0.2797617943
)
;
    }
    inlet
    {
        type            calculated;
        value           nonuniform 0();
    }
    outlet
    {
        type            calculated;
        value           nonuniform List<scalar> 
81
(
0.2797612259
0.2797634564
0.2797645071
0.2797661104
0.2797662898
0.2797656164
0.27976467
0.2797621983
0.27976092
0.2797633213
0.2797628659
0.2797646788
0.2797684267
0.2797686954
0.2797692049
0.2797649017
0.2797652457
0.2797608556
0.2797640347
0.2797677419
0.2797699743
0.2797722453
0.2797748283
0.2797727791
0.2797692338
0.2797647239
0.2797655527
0.2797652426
0.2797669237
0.2797727004
0.2797758274
0.2797758773
0.2797768102
0.2797717043
0.2797700777
0.2797664675
0.2797665408
0.2797699407
0.279773527
0.2797768205
0.2805526457
0.2797777695
0.2797728918
0.2797687639
0.2797649623
0.2797656489
0.279768408
0.2797713386
0.2797772324
0.2797766124
0.2797757011
0.2797731477
0.2797678428
0.2797652957
0.2797640553
0.2797653213
0.2797693041
0.2797717982
0.2797742196
0.2797717348
0.2797685647
0.2797670889
0.279765245
0.279762689
0.2797646397
0.2797660408
0.2797684388
0.2797691007
0.2797693556
0.2797664024
0.279764699
0.2797621078
0.2797611685
0.2797628458
0.2797638402
0.279768129
0.2797673027
0.2797661202
0.2797643123
0.2797627242
0.2797617943
)
;
    }
    procBoundary1to0
    {
        type            processor;
        value           nonuniform List<scalar> 
97
(
0.2797542108
0.2797542108
0.2797555328
0.2797550784
0.2797552129
0.2797549429
0.2797547816
0.2797551029
0.2797541531
0.2797539866
0.2797551309
0.2797537714
0.2797537714
0.2797537714
0.2797538176
0.2797565418
0.2797572688
0.2797574466
0.2797541437
0.2797561385
0.2797529491
0.2797543024
0.2797562469
0.2797578623
0.2797578623
0.2797578623
0.2797616982
0.2797704968
0.2797623574
0.2797570101
0.2797538917
0.2797561316
0.2797539842
0.2797540215
0.2797577064
0.2797798356
0.2797798356
0.2797798356
0.2798296406
0.2797809146
0.2797613261
0.279758207
0.2797556235
0.2797545867
0.2797563225
0.2797597584
0.2797742828
0.2810216216
0.2810216216
0.2810216216
0.2798314947
0.2798314947
0.2797685698
0.2797570707
0.2797537321
0.2797542882
0.2797551869
0.2797564743
0.2797647062
0.2797741032
0.2797631558
0.2797627252
0.2797627252
0.2797627252
0.2797560027
0.2797544844
0.2797543061
0.2797537008
0.2797555895
0.2797570272
0.2797602382
0.2797568806
0.2797548004
0.2797561618
0.2797561618
0.2797561618
0.2797556359
0.2797546379
0.2797552401
0.2797546976
0.2797554099
0.2797555308
0.2797562181
0.2797547864
0.2797552875
0.2797539714
0.2797539714
0.2797539714
0.2797542261
0.2797546926
0.2797539886
0.2797567445
0.2797554319
0.2797546944
0.279754454
0.2797546381
0.279754836
)
;
    }
}


// ************************************************************************* //
