/*--------------------------------*- C++ -*----------------------------------*\
| =========                 |                                                 |
| \\      /  F ield         | OpenFOAM: The Open Source CFD Toolbox           |
|  \\    /   O peration     | Version:  4.x                                   |
|   \\  /    A nd           | Web:      www.OpenFOAM.org                      |
|    \\/     M anipulation  |                                                 |
\*---------------------------------------------------------------------------*/
FoamFile
{
    version     2.0;
    format      ascii;
    class       volScalarField;
    location    "9000";
    object      T;
}
// * * * * * * * * * * * * * * * * * * * * * * * * * * * * * * * * * * * * * //

dimensions      [0 0 0 1 0 0 0];

internalField   nonuniform List<scalar> 
1174
(
1223.151021
1223.151038
1223.150942
1223.150958
1223.151037
1223.15118
1223.151009
1223.151089
1223.151005
1223.151071
1223.150966
1223.151022
1223.150976
1223.150926
1223.145896
1223.145935
1223.145791
1223.145855
1223.145824
1223.145688
1223.145577
1223.145487
1223.145665
1223.145645
1223.145647
1223.145666
1223.145887
1223.146086
1223.148906
1223.149002
1223.148956
1223.149105
1223.149002
1223.148978
1223.148983
1223.149057
1223.149194
1223.149269
1223.149136
1223.149241
1223.149361
1223.149357
1223.14961
1223.149606
1223.149604
1223.149681
1223.149828
1223.149791
1223.149745
1223.149696
1223.149813
1223.149903
1223.149926
1223.149655
1223.149652
1223.149639
1223.151934
1223.151923
1223.151703
1223.151681
1223.151694
1223.151591
1223.151555
1223.151725
1223.151614
1223.151569
1223.151535
1223.151648
1223.151761
1223.151845
1223.15151
1223.151525
1223.151415
1223.151615
1223.151603
1223.151566
1223.151545
1223.151637
1223.151729
1223.151714
1223.151899
1223.151916
1223.151889
1223.151798
1223.148511
1223.148471
1223.148594
1223.148622
1223.148275
1223.148603
1223.148793
1223.148494
1223.14849
1223.148514
1223.148608
1223.148793
1223.148757
1223.148644
1223.151746
1223.151866
1223.151791
1223.15195
1223.15202
1223.151955
1223.151768
1223.151752
1223.151629
1223.151675
1223.151594
1223.151585
1223.151496
1223.151586
1223.152148
1223.152246
1223.152311
1223.152263
1223.152336
1223.152421
1223.152333
1223.152361
1223.152265
1223.152334
1223.152346
1223.152418
1223.152263
1223.152262
1223.146995
1223.14703
1223.146935
1223.146826
1223.146762
1223.146696
1223.146621
1223.146651
1223.146702
1223.146672
1223.146718
1223.146703
1223.146711
1223.146471
1223.146676
1223.154615
1223.154727
1223.154678
1223.154569
1223.154732
1223.154832
1223.154988
1223.155103
1223.155306
1223.155293
1223.15522
1223.155242
1223.15512
1223.154855
1223.156991
1223.157039
1223.157135
1223.157194
1223.157285
1223.157407
1223.157464
1223.15741
1223.157135
1223.15717
1223.15704
1223.156944
1223.156859
1223.156907
1223.149967
1223.149942
1223.150006
1223.149836
1223.149719
1223.149679
1223.149745
1223.14985
1223.149965
1223.149973
1223.149926
1223.149884
1223.14991
1223.149861
1223.15188
1223.152198
1223.15225
1223.152233
1223.152301
1223.15225
1223.152135
1223.152222
1223.152214
1223.152256
1223.152371
1223.152555
1223.152485
1223.152545
1223.146332
1223.146478
1223.146651
1223.14656
1223.146531
1223.146603
1223.146754
1223.146633
1223.146662
1223.14651
1223.146496
1223.14652
1223.146487
1223.146458
1223.155718
1223.155731
1223.155946
1223.156012
1223.155899
1223.155977
1223.155859
1223.155879
1223.155954
1223.155831
1223.155806
1223.155872
1223.155806
1223.155931
1223.144242
1223.14449
1223.144407
1223.144445
1223.144485
1223.144618
1223.144643
1223.144728
1223.144561
1223.144431
1223.144472
1223.144398
1223.144459
1223.144448
1223.157127
1223.157157
1223.157182
1223.157272
1223.157278
1223.157275
1223.157411
1223.157377
1223.15743
1223.157408
1223.157457
1223.157532
1223.15753
1223.157456
1223.151201
1223.151219
1223.151285
1223.151458
1223.151451
1223.151376
1223.151433
1223.151495
1223.151561
1223.151529
1223.151323
1223.151361
1223.151414
1223.151364
1223.151422
1223.143627
1223.143485
1223.143526
1223.143415
1223.143397
1223.143385
1223.143099
1223.143164
1223.143244
1223.143212
1223.143168
1223.143172
1223.143233
1223.143568
1223.143515
1223.14736
1223.147288
1223.147309
1223.147153
1223.14704
1223.1471
1223.147123
1223.147148
1223.147234
1223.147413
1223.147278
1223.147417
1223.147444
1223.147265
1223.150596
1223.150513
1223.150493
1223.150309
1223.150397
1223.150243
1223.15016
1223.150228
1223.150199
1223.150135
1223.150276
1223.150197
1223.150275
1223.150124
1223.1441
1223.143923
1223.144284
1223.144227
1223.14428
1223.144265
1223.144236
1223.144212
1223.14404
1223.144163
1223.144265
1223.1442
1223.144248
1223.144165
1223.147953
1223.147928
1223.148166
1223.14814
1223.148141
1223.148085
1223.14802
1223.148053
1223.147943
1223.14792
1223.147894
1223.147904
1223.147999
1223.147789
1223.151101
1223.15104
1223.151013
1223.150814
1223.150936
1223.15084
1223.150731
1223.150745
1223.150751
1223.150715
1223.150666
1223.150584
1223.15051
1223.150501
1223.156866
1223.156894
1223.156751
1223.156864
1223.156832
1223.156772
1223.156792
1223.156591
1223.156504
1223.156507
1223.156533
1223.156535
1223.156542
1223.156708
1223.144451
1223.144406
1223.14432
1223.14429
1223.144403
1223.144472
1223.144671
1223.144726
1223.144751
1223.144753
1223.144788
1223.1448
1223.14473
1223.144784
1223.153094
1223.15297
1223.153069
1223.153079
1223.15312
1223.153195
1223.153222
1223.15316
1223.153156
1223.1531
1223.153072
1223.15316
1223.153197
1223.153329
1223.153433
1223.15549
1223.155612
1223.155702
1223.155795
1223.155818
1223.155796
1223.155834
1223.155875
1223.155952
1223.155963
1223.156149
1223.156216
1223.156252
1223.156293
1223.156431
1223.148569
1223.14859
1223.148641
1223.148529
1223.148309
1223.148216
1223.147941
1223.147904
1223.148139
1223.14821
1223.148134
1223.148093
1223.148118
1223.148075
1223.148134
1223.151135
1223.151085
1223.150975
1223.151072
1223.151127
1223.151081
1223.150905
1223.150746
1223.150712
1223.150577
1223.15034
1223.150581
1223.150547
1223.150658
1223.157262
1223.157278
1223.157257
1223.157319
1223.157268
1223.15739
1223.157262
1223.157175
1223.157163
1223.157171
1223.157164
1223.157221
1223.157167
1223.157249
1223.14636
1223.146383
1223.146336
1223.146256
1223.146249
1223.146317
1223.146472
1223.146733
1223.146628
1223.146599
1223.146607
1223.146599
1223.146605
1223.146361
1223.152287
1223.152167
1223.152406
1223.152438
1223.152403
1223.152497
1223.152519
1223.152595
1223.152818
1223.152817
1223.152665
1223.152359
1223.152447
1223.152487
1223.142699
1223.142825
1223.142724
1223.14263
1223.142755
1223.142723
1223.142658
1223.142734
1223.142751
1223.142616
1223.142516
1223.142654
1223.142647
1223.14264
1223.147874
1223.147962
1223.148074
1223.147896
1223.148018
1223.147974
1223.147943
1223.147901
1223.148064
1223.148058
1223.147832
1223.147792
1223.147897
1223.148075
1223.150981
1223.151051
1223.151191
1223.151098
1223.151276
1223.151099
1223.150937
1223.150814
1223.151056
1223.15094
1223.150998
1223.150776
1223.150898
1223.150734
1223.150747
1223.147492
1223.147492
1223.147544
1223.147421
1223.147438
1223.147353
1223.147322
1223.147056
1223.147147
1223.147177
1223.147176
1223.147078
1223.147135
1223.147174
1223.1471
1223.149685
1223.149649
1223.149684
1223.149445
1223.149463
1223.149821
1223.149874
1223.149683
1223.149643
1223.149652
1223.149625
1223.149746
1223.14974
1223.149764
1223.149854
1223.152856
1223.153063
1223.152908
1223.15298
1223.153047
1223.15283
1223.152698
1223.152706
1223.152618
1223.152675
1223.152864
1223.152976
1223.153013
1223.153007
1223.153125
1219.804602
1219.802337
1219.800241
1219.798358
1219.796379
1219.79417
1219.792141
1219.790204
1219.788169
1219.786204
1219.783984
1219.782074
1219.779968
1219.778133
1223.14933
1223.149278
1223.149306
1223.149233
1223.149124
1223.1492
1223.1493
1223.149207
1223.149142
1223.149129
1223.149219
1223.149188
1223.14908
1223.148975
1223.152452
1223.152497
1223.152482
1223.152504
1223.152526
1223.152535
1223.152517
1223.152403
1223.152403
1223.152383
1223.152472
1223.152465
1223.152605
1223.152629
1223.152788
1223.152604
1223.15275
1223.152697
1223.152719
1223.15267
1223.152678
1223.152513
1223.152399
1223.152244
1223.152334
1223.152314
1223.152306
1223.152243
1223.157416
1223.157474
1223.157426
1223.157425
1223.157518
1223.157488
1223.15738
1223.157476
1223.157637
1223.157613
1223.157731
1223.157623
1223.157537
1223.157645
1223.151824
1223.151774
1223.15168
1223.151778
1223.151647
1223.151527
1223.151565
1223.151509
1223.151367
1223.151496
1223.151477
1223.151497
1223.151631
1223.151692
1223.151656
1223.150403
1223.150437
1223.150444
1223.150206
1223.15014
1223.150306
1223.150238
1223.150041
1223.150118
1223.150098
1223.149988
1223.149889
1223.149964
1223.149988
1223.149941
1223.153998
1223.15393
1223.153895
1223.153919
1223.153968
1223.153953
1223.154067
1223.154077
1223.154017
1223.153886
1223.15393
1223.154117
1223.15401
1223.154038
1223.154086
1223.144285
1223.144456
1223.144613
1223.144468
1223.144559
1223.144461
1223.144488
1223.144501
1223.144676
1223.144651
1223.144614
1223.144599
1223.144494
1223.144522
1223.144514
1223.153616
1223.153838
1223.153853
1223.153757
1223.153642
1223.153577
1223.153719
1223.153701
1223.153806
1223.153805
1223.153894
1223.153958
1223.15411
1223.154106
1223.154033
1223.151174
1223.151335
1223.15123
1223.151052
1223.15107
1223.15088
1223.150988
1223.151089
1223.151181
1223.151073
1223.151144
1223.151086
1223.151202
1223.151136
1223.151207
1223.146092
1223.145963
1223.146006
1223.145951
1223.146002
1223.146035
1223.146026
1223.146089
1223.146104
1223.146271
1223.146259
1223.14621
1223.146249
1223.146175
1223.152586
1223.152534
1223.1525
1223.152586
1223.15232
1223.152335
1223.152343
1223.152365
1223.152356
1223.152414
1223.152442
1223.15255
1223.152471
1223.15241
1223.153038
1223.152968
1223.152919
1223.15306
1223.152834
1223.152763
1223.152838
1223.152925
1223.153028
1223.152877
1223.15295
1223.153009
1223.153151
1223.153197
1223.151058
1223.151235
1223.151072
1223.151099
1223.151133
1223.151283
1223.151346
1223.151409
1223.15138
1223.151533
1223.151403
1223.151455
1223.151579
1223.15161
1223.151332
1223.154754
1223.154729
1223.154759
1223.15473
1223.154923
1223.154863
1223.15475
1223.15459
1223.154423
1223.154375
1223.15428
1223.154276
1223.154295
1223.15421
1223.154097
1223.15013
1223.150008
1223.149962
1223.150026
1223.150032
1223.150041
1223.150008
1223.150088
1223.150295
1223.150313
1223.150313
1223.150295
1223.150239
1223.150202
1223.150193
1223.151321
1223.151429
1223.151539
1223.151513
1223.15166
1223.151742
1223.151689
1223.151742
1223.151897
1223.152074
1223.152001
1223.151975
1223.151856
1223.151922
1223.152076
1223.147549
1223.147612
1223.147697
1223.14762
1223.147412
1223.147439
1223.147363
1223.14735
1223.147266
1223.14734
1223.147321
1223.147367
1223.147245
1223.147155
1223.146824
1223.152354
1223.152509
1223.152626
1223.152739
1223.152747
1223.152632
1223.152453
1223.152379
1223.15239
1223.152385
1223.152489
1223.152477
1223.152358
1223.152273
1223.152351
1223.153542
1223.153467
1223.153487
1223.153453
1223.153626
1223.15353
1223.153605
1223.153473
1223.153576
1223.153406
1223.153381
1223.153399
1223.153322
1223.153331
1223.153423
1223.146752
1223.146728
1223.146641
1223.146661
1223.14653
1223.146641
1223.146544
1223.14651
1223.146671
1223.146701
1223.146489
1223.146393
1223.146391
1223.146366
1223.146357
1223.146316
1223.146246
1223.146245
1223.146226
1223.146152
1223.14621
1223.146158
1223.146162
1223.146101
1223.146091
1223.146031
1223.146131
1223.146127
1223.149151
1223.149088
1223.14906
1223.149066
1223.149057
1223.149182
1223.149178
1223.149033
1223.149024
1223.149147
1223.14911
1223.149189
1223.149381
1223.149431
1223.149439
1223.147218
1223.147098
1223.147115
1223.147211
1223.147233
1223.147279
1223.147259
1223.147291
1223.147271
1223.147272
1223.147222
1223.147072
1223.147024
1223.14712
1223.147097
1223.150524
1223.150565
1223.15049
1223.150619
1223.15067
1223.150819
1223.150871
1223.150797
1223.150791
1223.150688
1223.15074
1223.15066
1223.150809
1223.150798
1223.15095
1223.149478
1223.149311
1223.149453
1223.149517
1223.149434
1223.149401
1223.149337
1223.149315
1223.14936
1223.149506
1223.149428
1223.149441
1223.149544
1223.149711
1223.149804
1223.150961
1223.150814
1223.150834
1223.151018
1223.151061
1223.150755
1223.150749
1223.150649
1223.150678
1223.150595
1223.150667
1223.150778
1223.150674
1223.15085
1223.150769
1223.145763
1223.145883
1223.145748
1223.145686
1223.145755
1223.145634
1223.145685
1223.145768
1223.145703
1223.1457
1223.145708
1223.145585
1223.145514
1223.145554
1223.145795
1223.150038
1223.149867
1223.149906
1223.149808
1223.149801
1223.149692
1223.149698
1223.149665
1223.149457
1223.149406
1223.149217
1223.149206
1223.149406
1223.149469
1223.149367
1223.146955
1223.146979
1223.147051
1223.147006
1223.147038
1223.146961
1223.147026
1223.147102
1223.14708
1223.146934
1223.146837
1223.146726
1223.146708
1223.146783
1223.146836
1223.152652
1223.15266
1223.152756
1223.152855
1223.152542
1223.152489
1223.152448
1223.152427
1223.152345
1223.152355
1223.15239
1223.152382
1223.152173
1223.151979
1223.150878
1223.15087
1223.150968
1223.150871
1223.150812
1223.15086
1223.150936
1223.150909
1223.151014
1223.151074
1223.151144
1223.15105
1223.151037
1223.151079
1223.151175
1223.148834
1223.148824
1223.1491
1223.149097
1223.148815
1223.148717
1223.148842
1223.148677
1223.148664
1223.148661
1223.148699
1223.14876
1223.148729
1223.148822
1223.148753
1223.152559
1223.152575
1223.152464
1223.152455
1223.15246
1223.152351
1223.152171
1223.152366
1223.152416
1223.152614
1223.152463
1223.152348
1223.152453
1223.152395
1223.152271
1223.1409
1223.140856
1223.140789
1223.140979
1223.141107
1223.141117
1223.140983
1223.141142
1223.141177
1223.141187
1223.141079
1223.140983
1223.140948
1223.140791
1223.140811
1223.147238
1223.147435
1223.147342
1223.14729
1223.147367
1223.147383
1223.147479
1223.147565
1223.147434
1223.147358
1223.147301
1223.147165
1223.147294
1223.14734
1223.147413
1223.149822
1223.149815
1223.149941
1223.149954
1223.149854
1223.149777
1223.149764
1223.14988
1223.14983
1223.149819
1223.149646
1223.149703
1223.149734
1223.149658
1223.149592
1223.150227
1223.150216
1223.150184
1223.150301
1223.15024
1223.1502
1223.150343
1223.150345
1223.150299
1223.150293
1223.150172
1223.150226
1223.150276
1223.150228
1223.150205
1223.149166
1223.149079
1223.14915
1223.148947
1223.148975
1223.148976
1223.149123
1223.149165
1223.149218
1223.149162
1223.149165
1223.149162
1223.149182
1223.149224
1223.149284
1223.148139
1223.148248
1223.148254
1223.148335
1223.148284
1223.148335
1223.148277
1223.148334
1223.14831
1223.14822
1223.148364
1223.148374
1223.148402
1223.148417
1223.148437
)
;

boundaryField
{
    top
    {
        type            zeroGradient;
    }
    bottom
    {
        type            zeroGradient;
    }
    side-walls
    {
        type            zeroGradient;
    }
    inlet
    {
        type            zeroGradient;
    }
    outlet
    {
        type            zeroGradient;
    }
    procBoundary1to0
    {
        type            processor;
        value           nonuniform List<scalar> 
97
(
1223.151165
1223.151165
1223.145831
1223.148815
1223.149728
1223.152038
1223.151614
1223.148708
1223.151863
1223.152145
1223.147019
1223.154557
1223.154557
1223.154557
1223.157001
1223.150031
1223.152019
1223.146075
1223.155575
1223.144207
1223.157127
1223.151092
1223.143762
1223.147512
1223.147512
1223.147512
1223.150679
1223.143852
1223.147796
1223.151237
1223.156677
1223.144211
1223.153146
1223.155561
1223.148482
1223.151131
1223.151131
1223.151131
1223.15731
1223.146404
1223.152305
1223.14275
1223.147933
1223.150987
1223.147457
1223.149566
1223.154037
1219.803515
1219.803515
1219.803515
1223.149207
1223.149207
1223.152278
1223.152885
1223.157332
1223.151817
1223.150466
1223.153869
1223.144188
1223.154823
1223.150966
1223.146191
1223.146191
1223.146191
1223.152388
1223.152914
1223.151076
1223.154894
1223.150075
1223.151451
1223.147469
1223.152092
1223.153525
1223.146752
1223.146752
1223.146752
1223.146377
1223.149174
1223.147002
1223.150536
1223.14949
1223.150918
1223.145956
1223.150147
1223.146795
1223.152657
1223.152657
1223.152657
1223.150771
1223.148935
1223.152464
1223.141077
1223.14729
1223.150041
1223.150429
1223.149173
1223.148104
)
;
    }
}


// ************************************************************************* //
