/*--------------------------------*- C++ -*----------------------------------*\
| =========                 |                                                 |
| \\      /  F ield         | OpenFOAM: The Open Source CFD Toolbox           |
|  \\    /   O peration     | Version:  4.x                                   |
|   \\  /    A nd           | Web:      www.OpenFOAM.org                      |
|    \\/     M anipulation  |                                                 |
\*---------------------------------------------------------------------------*/
FoamFile
{
    version     2.0;
    format      ascii;
    class       volScalarField;
    location    "9000";
    object      X_CO2;
}
// * * * * * * * * * * * * * * * * * * * * * * * * * * * * * * * * * * * * * //

dimensions      [0 0 0 0 0 0 0];

internalField   nonuniform List<scalar> 
1174
(
0.004153016869
0.004154292228
0.004156094923
0.004158447367
0.004161324764
0.0041646647
0.004168377988
0.004172362692
0.004176516605
0.004180742823
0.004184951942
0.004189048406
0.004192864867
0.004195864859
0.004154218151
0.004156266654
0.004158997066
0.004162345014
0.004166196464
0.004170410881
0.004174845866
0.004179372047
0.004183879496
0.004188282152
0.00419251086
0.004196498656
0.00420011841
0.004202913523
0.004156875148
0.004160504554
0.00416499702
0.004170099307
0.004175538361
0.004181066419
0.004186487803
0.004191662892
0.004196504287
0.004200963146
0.004205019651
0.004208660106
0.004211827848
0.004214199996
0.004160775578
0.004166422196
0.004172907058
0.004179755354
0.004186571243
0.004193070281
0.00419907389
0.004204490202
0.00420928954
0.004213485076
0.004217113439
0.004220215517
0.004222796037
0.004224663492
0.00416356595
0.004170321922
0.004177694295
0.004185161789
0.004192348751
0.004199014629
0.004205028318
0.004210338124
0.004214949778
0.004218900602
0.004222247166
0.004225047699
0.004227330242
0.004228954005
0.004160775949
0.004166421827
0.004172907059
0.004179755209
0.004186571142
0.004193069974
0.004199073388
0.004204489304
0.004209289012
0.004213484754
0.004217112463
0.004220213735
0.004222794607
0.004224662535
0.004156875523
0.004160504158
0.004164996271
0.004170099243
0.004175538292
0.004181065131
0.004186486377
0.004191662571
0.004196503824
0.004200962601
0.004205018395
0.004208658548
0.004211826515
0.004214198908
0.004154218397
0.004156267007
0.004158996611
0.004162344576
0.004166195422
0.004170409836
0.004174844878
0.004179370674
0.004183878868
0.004188281208
0.004192509769
0.004196497362
0.004200117486
0.004202912645
0.004153016755
0.004154291923
0.004156094568
0.004158447017
0.00416132452
0.004164664372
0.004168377603
0.004172362076
0.004176516082
0.004180742087
0.004184950568
0.00418904679
0.004192863475
0.004195863168
0.004152836051
0.004154217947
0.004156267028
0.004158997198
0.004162345247
0.004166196554
0.004170410861
0.004174845752
0.004179371707
0.004183879622
0.004188281747
0.004192510456
0.0041964981
0.00420011887
0.004202913703
0.004156932114
0.004160537497
0.004164936631
0.004169864789
0.004175055193
0.004180284024
0.004185384164
0.004190244141
0.004194797744
0.004199012888
0.004202877473
0.004206381201
0.004209462631
0.004211791891
0.004163770945
0.004170792515
0.004178427779
0.004186028713
0.004193151934
0.004199554582
0.004205148365
0.004209945309
0.004214010938
0.004217434357
0.004220308929
0.004222714902
0.004224690631
0.004226110796
0.004175947443
0.004187643266
0.004198767286
0.004208485688
0.004216505725
0.004222864759
0.004227760182
0.004231442664
0.00423415862
0.004236124824
0.004237518953
0.004238484633
0.004239129666
0.004239512689
0.004187459317
0.004201544933
0.004213479759
0.00422294715
0.00423013298
0.004235403932
0.004239148313
0.004241715241
0.004243395067
0.004244418216
0.004244964278
0.004245172761
0.004245160566
0.004245050909
0.004175947039
0.004187642284
0.00419876628
0.004208485244
0.004216505168
0.004222863719
0.004227758779
0.004231441819
0.004234157813
0.004236123969
0.004237518452
0.004238483925
0.004239128575
0.004239512117
0.004163770549
0.004170791814
0.004178426376
0.004186027334
0.004193150577
0.004199553084
0.00420514735
0.004209944154
0.004214009097
0.004217433177
0.0042203078
0.004222713671
0.004224689288
0.004226109217
0.00415693182
0.004160537517
0.004164936617
0.004169864234
0.004175054776
0.004180282908
0.004185382896
0.004190242731
0.004194796742
0.004199011785
0.004202875404
0.004206379351
0.004209460763
0.004211789457
0.004154218105
0.00415626668
0.004158996472
0.00416234463
0.004166195819
0.004170409783
0.004174844389
0.004179370758
0.004183878282
0.004188280635
0.004192508879
0.004196496505
0.004200116685
0.004202912192
0.004154267767
0.004156875103
0.004160503719
0.004164996182
0.004170099268
0.004175538308
0.004181066107
0.004186487439
0.004191662616
0.004196504117
0.004200963335
0.004205019529
0.004208659874
0.004211827902
0.00421420001
0.004158104254
0.004163770507
0.004170791876
0.004178426736
0.004186028173
0.00419315149
0.004199554639
0.004205148475
0.004209945331
0.004214010923
0.004217434687
0.004220309418
0.004222715225
0.004224690406
0.004226111242
0.004184010554
0.004198858205
0.004212307601
0.0042233382
0.004231736038
0.004237742186
0.004241782312
0.004244310779
0.004245732194
0.004246375843
0.004246496117
0.004246283474
0.004245891288
0.004245497224
0.004229117872
0.004254244165
0.004271582605
0.004281823649
0.004286638162
0.004287715902
0.004286419546
0.004283738008
0.004280343304
0.004276669001
0.00427298682
0.004269471602
0.004266288264
0.004263848291
0.004288315648
0.00431335633
0.004324112607
0.004326011148
0.004322929723
0.004317313537
0.004310612018
0.004303650819
0.004296880871
0.004290531558
0.004284711446
0.00427947322
0.004274914705
0.004271502897
0.004229116293
0.004254243045
0.004271580648
0.004281821772
0.00428663672
0.004287714147
0.004286417458
0.00428373606
0.00428034137
0.00427666776
0.004272985754
0.004269469827
0.004266286282
0.004263846851
0.004184010241
0.004198857341
0.004212306734
0.004223336702
0.004231734021
0.004237739989
0.004241780339
0.004244308788
0.004245729987
0.004246374048
0.004246494238
0.004246281599
0.004245889478
0.004245495424
0.004163769795
0.00417079153
0.004178426845
0.004186027762
0.004193150626
0.004199553208
0.004205146534
0.004209943213
0.004214008776
0.004217432297
0.004220306778
0.004222712789
0.004224688499
0.004226108036
0.004156874977
0.004160503856
0.004164996416
0.004170099
0.004175537469
0.00418106457
0.00418648569
0.004191661357
0.004196502295
0.004200961006
0.004205017107
0.004208657722
0.004211825439
0.004214197239
0.004156422479
0.004160775533
0.004166421464
0.004172906278
0.004179755184
0.004186571104
0.004193069727
0.004199073441
0.004204489392
0.004209289165
0.00421348532
0.004217113054
0.004220214573
0.004222795086
0.004224662749
0.00416519477
0.004175947362
0.004187642729
0.004198767005
0.004208485487
0.004216505591
0.004222864391
0.004227760051
0.004231442261
0.004234158637
0.004236124093
0.004237518856
0.004238484714
0.004239129695
0.00423951295
0.00419847751
0.004229116579
0.004254243318
0.004271581728
0.004281823155
0.004286638492
0.004287715857
0.004286419288
0.004283737686
0.004280342749
0.00427666874
0.004272987088
0.004269471493
0.004266288551
0.004263848265
0.004384045208
0.004415805001
0.004421123612
0.004412090821
0.004396637781
0.004379245873
0.004362191243
0.00434649069
0.004332496206
0.004320233927
0.004309589886
0.004300423772
0.004292719838
0.004287088721
0.00468874462
0.004649191061
0.004588189165
0.004529635848
0.00447985188
0.004439224153
0.004406443308
0.004379958207
0.004358415758
0.004340742167
0.004326122252
0.004313972116
0.004304017474
0.004296859358
0.004384039222
0.00441580056
0.004421119244
0.004412087622
0.00439663429
0.004379242744
0.004362187574
0.004346486763
0.004332493045
0.004320230886
0.004309586548
0.004300421166
0.004292717617
0.00428708721
0.00422911659
0.004254242459
0.004271579866
0.004281820353
0.004286635145
0.004287712019
0.004286415814
0.00428373376
0.004280338893
0.004276665171
0.004272983583
0.004269468475
0.004266285218
0.004263844943
0.00417594684
0.004187642461
0.004198766366
0.004208484721
0.004216503564
0.004222862144
0.004227757179
0.004231439375
0.004234155003
0.004236121401
0.004237516068
0.004238481433
0.004239126021
0.004239509335
0.004160775791
0.004166421623
0.004172906127
0.004179754505
0.004186570077
0.004193068476
0.004199071393
0.004204487244
0.004209286327
0.0042134822
0.004217110457
0.004220211688
0.004222791794
0.004224659084
0.004158042807
0.004163565671
0.004170321746
0.004177693633
0.004185161046
0.004192348342
0.004199014397
0.004205027974
0.004210337684
0.004214949295
0.004218899964
0.004222246922
0.004225047154
0.00422732973
0.004228953296
0.004172608985
0.004187457735
0.004201544287
0.004213479125
0.004222946303
0.004230132424
0.004235403266
0.004239147661
0.004241714612
0.004243394182
0.004244417347
0.00424496371
0.004245172389
0.004245159672
0.004245050238
0.004243885073
0.004288314175
0.004313354273
0.004324111786
0.004326009574
0.004322927933
0.004317311881
0.004310611165
0.004303650234
0.004296879883
0.004290530984
0.004284710899
0.004279472453
0.004274913471
0.004271502131
0.00463429627
0.004688738613
0.004649187326
0.004588186815
0.004529633858
0.004479850773
0.004439223637
0.004406442456
0.004379958049
0.004358415387
0.004340741623
0.004326121552
0.004313971559
0.004304016891
0.004296858636
0.006003237396
0.005334940952
0.004964852376
0.004748169428
0.004613947445
0.004526140091
0.004465729488
0.004422279024
0.004389825224
0.004364820428
0.004345074865
0.004329219379
0.004316549083
0.004307579854
0.004688743479
0.004649184781
0.004588182242
0.004529629274
0.004479846138
0.004439219198
0.004406438101
0.004379953896
0.004358411587
0.004340738273
0.004326118273
0.004313968631
0.004304014488
0.00429685688
0.004288315734
0.004313353559
0.004324108753
0.004326006015
0.00432292432
0.004317307731
0.004310606395
0.004303645772
0.004296875366
0.004290526909
0.004284706604
0.004279468767
0.00427491008
0.004271498364
0.004187458638
0.004201544506
0.00421347789
0.0042229446
0.004230130119
0.004235400276
0.00423914414
0.004241711215
0.004243390877
0.004244414178
0.004244959536
0.004245168736
0.004245155998
0.004245046706
0.004163565682
0.004170321585
0.004177693479
0.004185161038
0.004192347522
0.004199012839
0.004205025985
0.004210335795
0.004214946517
0.004218897113
0.004222242894
0.004225043775
0.004227325952
0.00422894924
0.004156422949
0.004160775414
0.004166421648
0.0041729063
0.004179754886
0.004186570992
0.004193069603
0.004199072486
0.004204489024
0.004209288235
0.004213483951
0.004217111942
0.004220213226
0.004222793736
0.004224661584
0.00416519426
0.004175946352
0.004187641677
0.004198766279
0.004208484345
0.004216503836
0.004222862643
0.004227758474
0.004231440592
0.004234156667
0.004236122919
0.004237517839
0.004238483301
0.004239127771
0.004239511194
0.00419847543
0.004229114768
0.004254241089
0.004271579533
0.004281820645
0.004286635658
0.004287712617
0.004286416497
0.004283735332
0.004280340635
0.004276666258
0.004272984224
0.004269469177
0.004266285771
0.004263845642
0.00431291121
0.004384034667
0.004415796342
0.004421116206
0.004412084942
0.004396632713
0.004379241217
0.004362186906
0.004346485737
0.004332491826
0.004320229876
0.004309585912
0.004300420597
0.004292716645
0.004287085827
0.004634294669
0.004688736147
0.004649180199
0.004588179112
0.004529626565
0.004479844155
0.004439217316
0.004406437505
0.004379953123
0.004358411126
0.004340737638
0.004326118283
0.004313968082
0.00430401411
0.004296856702
0.004312912697
0.004384034332
0.004415794709
0.004421113381
0.004412081287
0.004396629134
0.004379237593
0.0043621833
0.004346483026
0.004332488924
0.004320226866
0.004309583355
0.004300417967
0.004292714716
0.004287084176
0.004229117451
0.00425424162
0.004271578066
0.004281818057
0.00428663224
0.004287709323
0.004286412612
0.004283731152
0.004280336223
0.004276662314
0.004272980625
0.004269465357
0.004266282506
0.004263842798
0.004175947325
0.00418764233
0.004198765636
0.004208483105
0.004216502624
0.004222860801
0.004227755425
0.004231437957
0.004234153498
0.004236119623
0.004237513957
0.004238479646
0.004239124233
0.004239507667
0.004160775406
0.004166421407
0.004172906449
0.004179754097
0.004186570224
0.004193068484
0.004199070686
0.004204486188
0.004209285324
0.004213481199
0.004217108925
0.004220210106
0.004222790347
0.004224657825
0.004154268192
0.004156875022
0.004160504337
0.004164996595
0.00417009905
0.004175537432
0.004181064967
0.004186486137
0.004191662047
0.004196502927
0.004200961894
0.004205017836
0.00420865776
0.004211825518
0.004214198376
0.004158103935
0.004163770181
0.00417079158
0.0041784266
0.004186027063
0.004193149863
0.004199552552
0.004205146522
0.004209943303
0.004214008886
0.004217432742
0.004220307103
0.004222712823
0.004224688325
0.004226109304
0.004169864432
0.004184009192
0.004198856358
0.004212305523
0.004223335736
0.004231733008
0.004237739184
0.004241779219
0.004244307117
0.004245728781
0.004246373069
0.004246493393
0.004246280412
0.004245888229
0.004245494194
0.004198475238
0.004229113692
0.004254239511
0.004271577752
0.004281818137
0.00428663296
0.004287710743
0.00428641449
0.004283732658
0.004280337765
0.004276663663
0.004272982123
0.00426946696
0.004266283933
0.004263843986
0.004243884984
0.004288312141
0.004313349964
0.004324106007
0.004326003932
0.004322922462
0.004317306575
0.004310605774
0.004303644606
0.004296874474
0.004290525451
0.004284706118
0.004279468217
0.004274909928
0.004271499123
0.004198474887
0.00422911343
0.004254238612
0.004271575856
0.004281816448
0.004286631268
0.004287708675
0.004286412244
0.004283730852
0.004280335773
0.00427666187
0.004272980373
0.004269465131
0.004266282254
0.004263841899
0.004169864584
0.00418400895
0.00419885606
0.00421230494
0.004223333912
0.004231730917
0.004237736149
0.004241776732
0.004244304501
0.004245726362
0.004246370089
0.004246490275
0.004246277862
0.004245885551
0.004245490998
0.004163770357
0.004170791364
0.004178426021
0.004186026469
0.004193149487
0.004199551387
0.004205144969
0.004209941145
0.004214005934
0.004217429273
0.004220304151
0.004222710076
0.004224685029
0.004226105193
0.00415687504
0.004160503795
0.004164996053
0.00417009838
0.004175536824
0.004181064104
0.004186484274
0.004191659751
0.004196500868
0.004200959246
0.00420501503
0.004208655346
0.004211822901
0.004214194891
0.004152835616
0.004154217839
0.004156266462
0.004158995996
0.004162344413
0.004166194959
0.004170409224
0.004174844341
0.004179370247
0.004183877932
0.004188280302
0.004192508414
0.004196495706
0.004200116239
0.00420291135
0.004154305774
0.004156931356
0.004160536897
0.004164935907
0.004169863419
0.004175053499
0.004180282107
0.004185382354
0.00419024224
0.004194795797
0.004199010712
0.004202875079
0.004206378538
0.004209459822
0.004211788152
0.004158103611
0.004163769877
0.004170791251
0.004178425621
0.004186026658
0.004193149083
0.004199552145
0.004205145966
0.004209942297
0.004214007623
0.004217431008
0.004220305703
0.004222711366
0.004224686939
0.004226106635
0.004165194231
0.00417594648
0.004187641083
0.004198764663
0.004208482786
0.004216501809
0.004222861009
0.004227756027
0.004231438562
0.004234154178
0.004236120322
0.004237514971
0.004238480301
0.004239124674
0.004239507761
0.004172608617
0.004187457555
0.004201542788
0.004213476597
0.004222943018
0.00423012933
0.004235399652
0.004239143475
0.004241710005
0.004243389493
0.004244412895
0.004244959272
0.004245168348
0.00424515532
0.004245045888
0.004165194262
0.004175945331
0.004187640669
0.00419876426
0.004208481772
0.004216501452
0.004222859582
0.004227754545
0.004231436815
0.004234152805
0.004236118775
0.004237513662
0.004238479403
0.004239123896
0.004239506454
0.004158103406
0.004163769861
0.004170790695
0.004178425301
0.004186025956
0.004193148405
0.00419955063
0.004205144081
0.004209940878
0.004214005674
0.004217429502
0.004220303723
0.004222709375
0.004224684704
0.004226105382
0.004154306112
0.004156931213
0.004160536735
0.004164935563
0.004169862929
0.004175053128
0.004180281306
0.004185380773
0.00419024064
0.004194794112
0.004199008959
0.004202873109
0.004206376659
0.004209457917
0.004211786093
0.004154217821
0.004156266307
0.004158996142
0.00416234374
0.004166195348
0.004170408799
0.004174843552
0.004179369301
0.004183876704
0.004188278747
0.004192506539
0.004196493729
0.004200114234
0.004202909421
0.004152196646
0.004153016278
0.004154291193
0.004156093704
0.004158446369
0.004161324235
0.004164664054
0.004168376995
0.004172361488
0.004176515343
0.00418074107
0.004184950145
0.004189046518
0.004192862381
0.004195862055
0.004152835987
0.004154217771
0.004156265541
0.004158995544
0.00416234452
0.00416619549
0.004170409092
0.004174843998
0.004179369956
0.004183877503
0.004188279873
0.004192507797
0.004196495635
0.004200115555
0.004202911045
0.004154267751
0.00415687465
0.004160503368
0.004164995389
0.004170098291
0.004175536789
0.004181064345
0.004186484978
0.004191660278
0.004196501417
0.004200960593
0.00420501635
0.004208656669
0.004211824572
0.004214196491
0.004156422728
0.004160775168
0.004166421239
0.004172905278
0.004179753439
0.004186569157
0.004193067922
0.004199070204
0.004204485771
0.004209285235
0.004213480983
0.004217108986
0.004220210563
0.004222791454
0.004224658727
0.00415804261
0.004163564559
0.004170320775
0.004177692582
0.004185159679
0.004192346292
0.004199011387
0.004205024222
0.004210334077
0.004214945517
0.004218896031
0.004222242637
0.004225042728
0.004227325052
0.004228948961
0.004156422775
0.004160774861
0.004166420602
0.00417290519
0.004179753265
0.004186568843
0.004193066896
0.00419906955
0.004204485048
0.004209284768
0.004213480843
0.004217108161
0.004220209512
0.004222789863
0.00422465734
0.004154267723
0.004156874533
0.004160503366
0.004164995442
0.004170098193
0.004175536109
0.004181063194
0.004186484158
0.004191659451
0.004196500473
0.004200959323
0.004205014637
0.004208654731
0.004211822322
0.004214194424
0.004152835318
0.004154217539
0.004156265866
0.004158996076
0.004162343963
0.004166194818
0.004170408494
0.004174843102
0.004179368824
0.004183876507
0.004188278688
0.004192506394
0.004196493965
0.004200113586
0.004202908374
0.004152196785
0.004153016172
0.004154291443
0.004156093707
0.004158446001
0.004161323886
0.004164663573
0.004168376191
0.004172360809
0.004176514788
0.00418073995
0.004184948451
0.00418904465
0.004192860487
0.004195859931
)
;

boundaryField
{
    top
    {
        type            calculated;
        value           nonuniform List<scalar> 
127
(
0.004152196785
0.004153016755
0.004154218105
0.004156874977
0.004160775791
0.004163565682
0.004160775406
0.00415687504
0.004154217821
0.004153016172
0.004154291923
0.00415626668
0.004160503856
0.004166421623
0.004170321585
0.004166421407
0.004160503795
0.004156266307
0.004154291443
0.004156094568
0.004158996472
0.004164996416
0.004172906127
0.004177693479
0.004172906449
0.004164996053
0.004158996142
0.004156093707
0.004158447017
0.00416234463
0.004170099
0.004179754505
0.004185161038
0.004179754097
0.00417009838
0.00416234374
0.004158446001
0.00416132452
0.004166195819
0.004175537469
0.004186570077
0.004192347522
0.004186570224
0.004175536824
0.004166195348
0.004161323886
0.004164664372
0.004170409783
0.00418106457
0.004193068476
0.004199012839
0.004193068484
0.004181064104
0.004170408799
0.004164663573
0.004168377603
0.004174844389
0.00418648569
0.004199071393
0.004205025985
0.004199070686
0.004186484274
0.004174843552
0.004168376191
0.004172362076
0.004179370758
0.004191661357
0.004204487244
0.004210335795
0.004204486188
0.004191659751
0.004179369301
0.004172360809
0.004176516082
0.004183878282
0.004196502295
0.004209286327
0.004214946517
0.004209285324
0.004196500868
0.004183876704
0.004176514788
0.004180742087
0.004188280635
0.004200961006
0.0042134822
0.004218897113
0.004213481199
0.004200959246
0.004188278747
0.00418073995
0.004184950568
0.004192508879
0.004205017107
0.004217110457
0.004222242894
0.004217108925
0.00420501503
0.004192506539
0.004184948451
0.00418904679
0.004196496505
0.004208657722
0.004220211688
0.004225043775
0.004220210106
0.004208655346
0.004196493729
0.00418904465
0.004192863475
0.004200116685
0.004211825439
0.004222791794
0.004227325952
0.004222790347
0.004211822901
0.004200114234
0.004192860487
0.004195863168
0.004202912192
0.004214197239
0.004224659084
0.00422894924
0.004224657825
0.004214194891
0.004202909421
0.004195859931
)
;
    }
    bottom
    {
        type            calculated;
        value           nonuniform List<scalar> 
134
(
0.004152836051
0.004154267767
0.004156422479
0.004158042807
0.004156422949
0.004154268192
0.004152835616
0.004152196646
0.004153016869
0.004154217947
0.004156875103
0.004160775533
0.004163565671
0.004160775414
0.004156875022
0.004154217839
0.004153016278
0.004154292228
0.004156267028
0.004160503719
0.004166421464
0.004170321746
0.004166421648
0.004160504337
0.004156266462
0.004154291193
0.004156094923
0.004158997198
0.004164996182
0.004172906278
0.004177693633
0.0041729063
0.004164996595
0.004158995996
0.004156093704
0.004158447367
0.004162345247
0.004170099268
0.004179755184
0.004185161046
0.004179754886
0.00417009905
0.004162344413
0.004158446369
0.004161324764
0.004166196554
0.004175538308
0.004186571104
0.004192348342
0.004186570992
0.004175537432
0.004166194959
0.004161324235
0.0041646647
0.004170410861
0.004181066107
0.004193069727
0.004199014397
0.004193069603
0.004181064967
0.004170409224
0.004164664054
0.004168377988
0.004174845752
0.004186487439
0.004199073441
0.004205027974
0.004199072486
0.004186486137
0.004174844341
0.004168376995
0.004172362692
0.004179371707
0.004191662616
0.004204489392
0.004210337684
0.004204489024
0.004191662047
0.004179370247
0.004172361488
0.004176516605
0.004183879622
0.004196504117
0.004209289165
0.004214949295
0.004209288235
0.004196502927
0.004183877932
0.004176515343
0.004180742823
0.004188281747
0.004200963335
0.00421348532
0.004218899964
0.004213483951
0.004200961894
0.004188280302
0.00418074107
0.004184951942
0.004192510456
0.004205019529
0.004217113054
0.004222246922
0.004217111942
0.004205017836
0.004192508414
0.004184950145
0.004189048406
0.0041964981
0.004208659874
0.004220214573
0.004225047154
0.004220213226
0.00420865776
0.004196495706
0.004189046518
0.004192864867
0.00420011887
0.004211827902
0.004222795086
0.00422732973
0.004222793736
0.004211825518
0.004200116239
0.004192862381
0.004195864859
0.004202913703
0.00421420001
0.004224662749
0.004228953296
0.004224661584
0.004214198376
0.00420291135
0.004195862055
)
;
    }
    side-walls
    {
        type            calculated;
        value           nonuniform List<scalar> 
261
(
0.004153016869
0.004154218151
0.004156875148
0.004160775578
0.00416356595
0.004160775949
0.004156875523
0.004154218397
0.004153016755
0.004154292228
0.004156266654
0.004160504554
0.004166422196
0.004170321922
0.004166421827
0.004160504158
0.004156267007
0.004154291923
0.004156094923
0.004158997066
0.00416499702
0.004172907058
0.004177694295
0.004172907059
0.004164996271
0.004158996611
0.004156094568
0.004158447367
0.004162345014
0.004170099307
0.004179755354
0.004185161789
0.004179755209
0.004170099243
0.004162344576
0.004158447017
0.004161324764
0.004166196464
0.004175538361
0.004186571243
0.004192348751
0.004186571142
0.004175538292
0.004166195422
0.00416132452
0.0041646647
0.004170410881
0.004181066419
0.004193070281
0.004199014629
0.004193069974
0.004181065131
0.004170409836
0.004164664372
0.004168377988
0.004174845866
0.004186487803
0.00419907389
0.004205028318
0.004199073388
0.004186486377
0.004174844878
0.004168377603
0.004172362692
0.004179372047
0.004191662892
0.004204490202
0.004210338124
0.004204489304
0.004191662571
0.004179370674
0.004172362076
0.004176516605
0.004183879496
0.004196504287
0.00420928954
0.004214949778
0.004209289012
0.004196503824
0.004183878868
0.004176516082
0.004180742823
0.004188282152
0.004200963146
0.004213485076
0.004218900602
0.004213484754
0.004200962601
0.004188281208
0.004180742087
0.004184951942
0.00419251086
0.004205019651
0.004217113439
0.004222247166
0.004217112463
0.004205018395
0.004192509769
0.004184950568
0.004189048406
0.004196498656
0.004208660106
0.004220215517
0.004225047699
0.004220213735
0.004208658548
0.004196497362
0.00418904679
0.004192864867
0.00420011841
0.004211827848
0.004222796037
0.004227330242
0.004222794607
0.004211826515
0.004200117486
0.004192863475
0.004195864859
0.004202913523
0.004214199996
0.004224663492
0.004228954005
0.004224662535
0.004214198908
0.004202912645
0.004195863168
0.004152196646
0.004152835987
0.004154267751
0.004156422728
0.00415804261
0.004156422775
0.004154267723
0.004152835318
0.004152196785
0.004153016278
0.004154217771
0.00415687465
0.004160775168
0.004163564559
0.004160774861
0.004156874533
0.004154217539
0.004153016172
0.004154291193
0.004156265541
0.004160503368
0.004166421239
0.004170320775
0.004166420602
0.004160503366
0.004156265866
0.004154291443
0.004156093704
0.004158995544
0.004164995389
0.004172905278
0.004177692582
0.00417290519
0.004164995442
0.004158996076
0.004156093707
0.004158446369
0.00416234452
0.004170098291
0.004179753439
0.004185159679
0.004179753265
0.004170098193
0.004162343963
0.004158446001
0.004161324235
0.00416619549
0.004175536789
0.004186569157
0.004192346292
0.004186568843
0.004175536109
0.004166194818
0.004161323886
0.004164664054
0.004170409092
0.004181064345
0.004193067922
0.004199011387
0.004193066896
0.004181063194
0.004170408494
0.004164663573
0.004168376995
0.004174843998
0.004186484978
0.004199070204
0.004205024222
0.00419906955
0.004186484158
0.004174843102
0.004168376191
0.004172361488
0.004179369956
0.004191660278
0.004204485771
0.004210334077
0.004204485048
0.004191659451
0.004179368824
0.004172360809
0.004176515343
0.004183877503
0.004196501417
0.004209285235
0.004214945517
0.004209284768
0.004196500473
0.004183876507
0.004176514788
0.00418074107
0.004188279873
0.004200960593
0.004213480983
0.004218896031
0.004213480843
0.004200959323
0.004188278688
0.00418073995
0.004184950145
0.004192507797
0.00420501635
0.004217108986
0.004222242637
0.004217108161
0.004205014637
0.004192506394
0.004184948451
0.004189046518
0.004196495635
0.004208656669
0.004220210563
0.004225042728
0.004220209512
0.004208654731
0.004196493965
0.00418904465
0.004192862381
0.004200115555
0.004211824572
0.004222791454
0.004227325052
0.004222789863
0.004211822322
0.004200113586
0.004192860487
0.004195862055
0.004202911045
0.004214196491
0.004224658727
0.004228948961
0.00422465734
0.004214194424
0.004202908374
0.004195859931
)
;
    }
    inlet
    {
        type            calculated;
        value           nonuniform 0();
    }
    outlet
    {
        type            calculated;
        value           nonuniform List<scalar> 
81
(
0.004195864859
0.004202913523
0.004214199996
0.004224663492
0.004228954005
0.004224662535
0.004214198908
0.004202912645
0.004195863168
0.004202913703
0.004211791891
0.004226110796
0.004239512689
0.004245050909
0.004239512117
0.004226109217
0.004211789457
0.004202912192
0.00421420001
0.004226111242
0.004245497224
0.004263848291
0.004271502897
0.004263846851
0.004245495424
0.004226108036
0.004214197239
0.004224662749
0.00423951295
0.004263848265
0.004287088721
0.004296859358
0.00428708721
0.004263844943
0.004239509335
0.004224659084
0.004228953296
0.004245050238
0.004271502131
0.004296858636
0.004307579854
0.00429685688
0.004271498364
0.004245046706
0.00422894924
0.004224661584
0.004239511194
0.004263845642
0.004287085827
0.004296856702
0.004287084176
0.004263842798
0.004239507667
0.004224657825
0.004214198376
0.004226109304
0.004245494194
0.004263843986
0.004271499123
0.004263841899
0.004245490998
0.004226105193
0.004214194891
0.00420291135
0.004211788152
0.004226106635
0.004239507761
0.004245045888
0.004239506454
0.004226105382
0.004211786093
0.004202909421
0.004195862055
0.004202911045
0.004214196491
0.004224658727
0.004228948961
0.00422465734
0.004214194424
0.004202908374
0.004195859931
)
;
    }
    procBoundary1to0
    {
        type            processor;
        value           nonuniform List<scalar> 
97
(
0.004152196925
0.004152196925
0.004152835974
0.004154268061
0.004156422449
0.004158042468
0.004156422393
0.004154268129
0.004152835971
0.004152197133
0.004152019467
0.004154306519
0.004154306519
0.004154306519
0.004158104305
0.004165193779
0.004172608411
0.004165193729
0.004158104077
0.004154306893
0.004152835584
0.00415266708
0.004154348257
0.004169864457
0.004169864457
0.004169864457
0.004198474027
0.004243878432
0.004198472518
0.004169863132
0.004158103737
0.00415426778
0.004153618177
0.004157316962
0.004170277106
0.004312913229
0.004312913229
0.004312913229
0.004634250171
0.004312899715
0.004198472842
0.004165193332
0.004156422688
0.004154299044
0.004160123593
0.00418470734
0.004282245811
0.007278321862
0.007278321862
0.007278321862
0.004634251023
0.004634251023
0.004243879011
0.004172607371
0.004158042286
0.004153618459
0.004157317277
0.004170277496
0.004208031072
0.004282247469
0.004208030455
0.004198476587
0.004198476587
0.004198476587
0.004165193994
0.004156422894
0.004152667568
0.004154348592
0.004159282528
0.004170277054
0.004184707781
0.004170277414
0.004159281864
0.004158104129
0.004158104129
0.004158104129
0.004154267494
0.004152019535
0.004152680483
0.004154348245
0.004157316494
0.004160123361
0.00415731639
0.004154347619
0.004152681175
0.004152835784
0.004152835784
0.004152835784
0.004151726897
0.004152019562
0.004152667294
0.004153617934
0.004154298443
0.004153617676
0.004152666901
0.004152019205
0.00415172633
)
;
    }
}


// ************************************************************************* //
