#  Region type : all 
#       Cells  : 2349
#       Volume : 3.7500000000e-01
#            Time	volIntegrate(rhoeps)	volIntegrate(rho)
                1	1.0490767616e-01	1.0490787435e-01
                2	1.0490831083e-01	1.0490851105e-01
                3	1.0490894300e-01	1.0490914471e-01
                4	1.0490953909e-01	1.0490974180e-01
                5	1.0491011067e-01	1.0491031409e-01
                6	1.0491066665e-01	1.0491087056e-01
                7	1.0491121218e-01	1.0491141647e-01
                8	1.0491175029e-01	1.0491195486e-01
                9	1.0491228311e-01	1.0491248788e-01
               10	1.0491281169e-01	1.0491301663e-01
               11	1.0491333669e-01	1.0491354175e-01
               12	1.0491385705e-01	1.0491406220e-01
               13	1.0491437505e-01	1.0491458027e-01
               14	1.0491489092e-01	1.0491509619e-01
               15	1.0491540483e-01	1.0491561015e-01
               16	1.0491591694e-01	1.0491612229e-01
               17	1.0491642740e-01	1.0491663277e-01
               18	1.0491693629e-01	1.0491714167e-01
               19	1.0491744359e-01	1.0491764898e-01
               20	1.0491794925e-01	1.0491815464e-01
               21	1.0491845338e-01	1.0491865877e-01
               22	1.0491895591e-01	1.0491916130e-01
               23	1.0491945703e-01	1.0491966242e-01
               24	1.0491995669e-01	1.0492016207e-01
               25	1.0492045474e-01	1.0492066012e-01
               26	1.0492095103e-01	1.0492115639e-01
               27	1.0492144556e-01	1.0492165092e-01
               28	1.0492193816e-01	1.0492214350e-01
               29	1.0492242884e-01	1.0492263418e-01
               30	1.0492291744e-01	1.0492312277e-01
               31	1.0492340375e-01	1.0492360907e-01
               32	1.0492388756e-01	1.0492409286e-01
               33	1.0492436863e-01	1.0492457392e-01
               34	1.0492484692e-01	1.0492505220e-01
               35	1.0492532190e-01	1.0492552717e-01
               36	1.0492579356e-01	1.0492599882e-01
               37	1.0492626163e-01	1.0492646688e-01
               38	1.0492672579e-01	1.0492693102e-01
               39	1.0492718543e-01	1.0492739065e-01
               40	1.0492764047e-01	1.0492784568e-01
               41	1.0492809072e-01	1.0492829592e-01
               42	1.0492853571e-01	1.0492874090e-01
               43	1.0492897516e-01	1.0492918034e-01
               44	1.0492940863e-01	1.0492961379e-01
               45	1.0492983575e-01	1.0493004091e-01
               46	1.0493025640e-01	1.0493046155e-01
               47	1.0493067008e-01	1.0493087522e-01
               48	1.0493107659e-01	1.0493128172e-01
               49	1.0493147542e-01	1.0493168054e-01
               50	1.0493186638e-01	1.0493207149e-01
               51	1.0493224908e-01	1.0493245418e-01
               52	1.0493262353e-01	1.0493282862e-01
               53	1.0493298935e-01	1.0493319443e-01
               54	1.0493334620e-01	1.0493355127e-01
               55	1.0493369357e-01	1.0493389863e-01
               56	1.0493403169e-01	1.0493423674e-01
               57	1.0493436017e-01	1.0493456522e-01
               58	1.0493467901e-01	1.0493488405e-01
               59	1.0493498773e-01	1.0493519276e-01
               60	1.0493528658e-01	1.0493549160e-01
               61	1.0493557539e-01	1.0493578040e-01
               62	1.0493585416e-01	1.0493605917e-01
               63	1.0493612246e-01	1.0493632745e-01
               64	1.0493638071e-01	1.0493658570e-01
               65	1.0493662922e-01	1.0493683420e-01
               66	1.0493686752e-01	1.0493707249e-01
               67	1.0493709576e-01	1.0493730073e-01
               68	1.0493731406e-01	1.0493751902e-01
               69	1.0493752244e-01	1.0493772739e-01
               70	1.0493772124e-01	1.0493792619e-01
               71	1.0493791015e-01	1.0493811508e-01
               72	1.0493808946e-01	1.0493829439e-01
               73	1.0493825943e-01	1.0493846436e-01
               74	1.0493842035e-01	1.0493862527e-01
               75	1.0493857217e-01	1.0493877708e-01
               76	1.0493871544e-01	1.0493892034e-01
               77	1.0493885006e-01	1.0493905495e-01
               78	1.0493897652e-01	1.0493918141e-01
               79	1.0493909483e-01	1.0493929972e-01
               80	1.0493920529e-01	1.0493941017e-01
               81	1.0493930808e-01	1.0493951295e-01
               82	1.0493940370e-01	1.0493960856e-01
               83	1.0493949209e-01	1.0493969695e-01
               84	1.0493957380e-01	1.0493977865e-01
               85	1.0493964883e-01	1.0493985368e-01
               86	1.0493971751e-01	1.0493992235e-01
               87	1.0493978016e-01	1.0493998499e-01
               88	1.0493983706e-01	1.0494004189e-01
               89	1.0493988831e-01	1.0494009313e-01
               90	1.0493993420e-01	1.0494013902e-01
               91	1.0493997506e-01	1.0494017987e-01
               92	1.0494001101e-01	1.0494021582e-01
               93	1.0494004231e-01	1.0494024711e-01
               94	1.0494006928e-01	1.0494027408e-01
               95	1.0494009200e-01	1.0494029679e-01
               96	1.0494011088e-01	1.0494031567e-01
               97	1.0494012594e-01	1.0494033072e-01
               98	1.0494013739e-01	1.0494034217e-01
               99	1.0494014555e-01	1.0494035033e-01
              100	1.0494015041e-01	1.0494035518e-01
              101	1.0494015234e-01	1.0494035711e-01
              102	1.0494015124e-01	1.0494035600e-01
              103	1.0494014765e-01	1.0494035241e-01
              104	1.0494014158e-01	1.0494034633e-01
              105	1.0494013311e-01	1.0494033786e-01
              106	1.0494012231e-01	1.0494032705e-01
              107	1.0494010963e-01	1.0494031437e-01
              108	1.0494009488e-01	1.0494029962e-01
              109	1.0494007849e-01	1.0494028323e-01
              110	1.0494006018e-01	1.0494026491e-01
              111	1.0494004048e-01	1.0494024520e-01
              112	1.0494001921e-01	1.0494022393e-01
              113	1.0493999666e-01	1.0494020137e-01
              114	1.0493997266e-01	1.0494017737e-01
              115	1.0493994757e-01	1.0494015228e-01
              116	1.0493992139e-01	1.0494012609e-01
              117	1.0493989420e-01	1.0494009890e-01
              118	1.0493986607e-01	1.0494007077e-01
              119	1.0493983710e-01	1.0494004180e-01
              120	1.0493980729e-01	1.0494001198e-01
              121	1.0493977676e-01	1.0493998145e-01
              122	1.0493974550e-01	1.0493995018e-01
              123	1.0493971365e-01	1.0493991832e-01
              124	1.0493968132e-01	1.0493988600e-01
              125	1.0493964836e-01	1.0493985303e-01
              126	1.0493961497e-01	1.0493981964e-01
              127	1.0493958115e-01	1.0493978581e-01
              128	1.0493954713e-01	1.0493975179e-01
              129	1.0493951260e-01	1.0493971726e-01
              130	1.0493947780e-01	1.0493968245e-01
              131	1.0493944264e-01	1.0493964729e-01
              132	1.0493940724e-01	1.0493961188e-01
              133	1.0493937182e-01	1.0493957646e-01
              134	1.0493933612e-01	1.0493954076e-01
              135	1.0493930013e-01	1.0493950477e-01
              136	1.0493926418e-01	1.0493946881e-01
              137	1.0493922813e-01	1.0493943277e-01
              138	1.0493919215e-01	1.0493939678e-01
              139	1.0493915594e-01	1.0493936057e-01
              140	1.0493911988e-01	1.0493932450e-01
              141	1.0493908360e-01	1.0493928822e-01
              142	1.0493904732e-01	1.0493925194e-01
              143	1.0493901113e-01	1.0493921575e-01
              144	1.0493897496e-01	1.0493917957e-01
              145	1.0493893882e-01	1.0493914343e-01
              146	1.0493890271e-01	1.0493910732e-01
              147	1.0493886664e-01	1.0493907124e-01
              148	1.0493883060e-01	1.0493903520e-01
              149	1.0493879455e-01	1.0493899915e-01
              150	1.0493875864e-01	1.0493896324e-01
              151	1.0493872295e-01	1.0493892755e-01
              152	1.0493868734e-01	1.0493889194e-01
              153	1.0493865183e-01	1.0493885642e-01
              154	1.0493861643e-01	1.0493882102e-01
              155	1.0493858112e-01	1.0493878570e-01
              156	1.0493854590e-01	1.0493875048e-01
              157	1.0493851086e-01	1.0493871544e-01
              158	1.0493847585e-01	1.0493868043e-01
              159	1.0493844095e-01	1.0493864553e-01
              160	1.0493840639e-01	1.0493861097e-01
              161	1.0493837182e-01	1.0493857640e-01
              162	1.0493833739e-01	1.0493854196e-01
              163	1.0493830309e-01	1.0493850766e-01
              164	1.0493826899e-01	1.0493847356e-01
              165	1.0493823514e-01	1.0493843970e-01
              166	1.0493820133e-01	1.0493840590e-01
              167	1.0493816781e-01	1.0493837237e-01
              168	1.0493813441e-01	1.0493833897e-01
              169	1.0493810111e-01	1.0493830567e-01
              170	1.0493806790e-01	1.0493827245e-01
              171	1.0493803487e-01	1.0493823943e-01
              172	1.0493800202e-01	1.0493820657e-01
              173	1.0493796937e-01	1.0493817392e-01
              174	1.0493793682e-01	1.0493814137e-01
              175	1.0493790430e-01	1.0493810884e-01
              176	1.0493787203e-01	1.0493807658e-01
              177	1.0493783994e-01	1.0493804449e-01
              178	1.0493780800e-01	1.0493801255e-01
              179	1.0493777621e-01	1.0493798075e-01
              180	1.0493774463e-01	1.0493794917e-01
              181	1.0493771306e-01	1.0493791760e-01
              182	1.0493768175e-01	1.0493788628e-01
              183	1.0493765052e-01	1.0493785505e-01
              184	1.0493761957e-01	1.0493782410e-01
              185	1.0493758876e-01	1.0493779330e-01
              186	1.0493755799e-01	1.0493776252e-01
              187	1.0493752750e-01	1.0493773203e-01
              188	1.0493749706e-01	1.0493770159e-01
              189	1.0493746663e-01	1.0493767115e-01
              190	1.0493743647e-01	1.0493764100e-01
              191	1.0493740647e-01	1.0493761099e-01
              192	1.0493737668e-01	1.0493758120e-01
              193	1.0493734700e-01	1.0493755153e-01
              194	1.0493731745e-01	1.0493752198e-01
              195	1.0493728813e-01	1.0493749265e-01
              196	1.0493725882e-01	1.0493746334e-01
              197	1.0493722955e-01	1.0493743406e-01
              198	1.0493720072e-01	1.0493740524e-01
              199	1.0493717176e-01	1.0493737628e-01
              200	1.0493714292e-01	1.0493734744e-01
              201	1.0493711427e-01	1.0493731878e-01
              202	1.0493708590e-01	1.0493729041e-01
              203	1.0493705766e-01	1.0493726217e-01
              204	1.0493702950e-01	1.0493723401e-01
              205	1.0493700145e-01	1.0493720596e-01
              206	1.0493697363e-01	1.0493717814e-01
              207	1.0493694590e-01	1.0493715040e-01
              208	1.0493691839e-01	1.0493712290e-01
              209	1.0493689097e-01	1.0493709547e-01
              210	1.0493686360e-01	1.0493706810e-01
              211	1.0493683630e-01	1.0493704080e-01
              212	1.0493680922e-01	1.0493701372e-01
              213	1.0493678229e-01	1.0493698679e-01
              214	1.0493675552e-01	1.0493696002e-01
              215	1.0493672878e-01	1.0493693328e-01
              216	1.0493670224e-01	1.0493690673e-01
              217	1.0493667570e-01	1.0493688019e-01
              218	1.0493664937e-01	1.0493685386e-01
              219	1.0493662302e-01	1.0493682751e-01
              220	1.0493659694e-01	1.0493680143e-01
              221	1.0493657090e-01	1.0493677540e-01
              222	1.0493654495e-01	1.0493674945e-01
              223	1.0493651915e-01	1.0493672364e-01
              224	1.0493649352e-01	1.0493669801e-01
              225	1.0493646779e-01	1.0493667229e-01
              226	1.0493644233e-01	1.0493664682e-01
              227	1.0493641704e-01	1.0493662153e-01
              228	1.0493639176e-01	1.0493659625e-01
              229	1.0493636664e-01	1.0493657112e-01
              230	1.0493634149e-01	1.0493654598e-01
              231	1.0493631660e-01	1.0493652108e-01
              232	1.0493629182e-01	1.0493649631e-01
              233	1.0493626704e-01	1.0493647153e-01
              234	1.0493624236e-01	1.0493644685e-01
              235	1.0493621780e-01	1.0493642228e-01
              236	1.0493619325e-01	1.0493639774e-01
              237	1.0493616889e-01	1.0493637338e-01
              238	1.0493614472e-01	1.0493634921e-01
              239	1.0493612057e-01	1.0493632506e-01
              240	1.0493609650e-01	1.0493630098e-01
              241	1.0493607260e-01	1.0493627708e-01
              242	1.0493604872e-01	1.0493625320e-01
              243	1.0493602501e-01	1.0493622949e-01
              244	1.0493600140e-01	1.0493620588e-01
              245	1.0493597776e-01	1.0493618224e-01
              246	1.0493595421e-01	1.0493615869e-01
              247	1.0493593075e-01	1.0493613523e-01
              248	1.0493590746e-01	1.0493611194e-01
              249	1.0493588419e-01	1.0493608867e-01
              250	1.0493586114e-01	1.0493606562e-01
              251	1.0493583804e-01	1.0493604252e-01
              252	1.0493581509e-01	1.0493601957e-01
              253	1.0493579224e-01	1.0493599672e-01
              254	1.0493576950e-01	1.0493597398e-01
              255	1.0493574669e-01	1.0493595117e-01
              256	1.0493572414e-01	1.0493592862e-01
              257	1.0493570167e-01	1.0493590615e-01
              258	1.0493567919e-01	1.0493588367e-01
              259	1.0493565678e-01	1.0493586126e-01
              260	1.0493563449e-01	1.0493583897e-01
              261	1.0493561229e-01	1.0493581676e-01
              262	1.0493559012e-01	1.0493579460e-01
              263	1.0493556798e-01	1.0493577246e-01
              264	1.0493554599e-01	1.0493575047e-01
              265	1.0493552406e-01	1.0493572853e-01
              266	1.0493550229e-01	1.0493570676e-01
              267	1.0493548056e-01	1.0493568503e-01
              268	1.0493545885e-01	1.0493566333e-01
              269	1.0493543723e-01	1.0493564170e-01
              270	1.0493541583e-01	1.0493562030e-01
              271	1.0493539432e-01	1.0493559880e-01
              272	1.0493537296e-01	1.0493557743e-01
              273	1.0493535165e-01	1.0493555612e-01
              274	1.0493533049e-01	1.0493553496e-01
              275	1.0493530942e-01	1.0493551389e-01
              276	1.0493528829e-01	1.0493549276e-01
              277	1.0493526727e-01	1.0493547174e-01
              278	1.0493524631e-01	1.0493545078e-01
              279	1.0493522538e-01	1.0493542986e-01
              280	1.0493520463e-01	1.0493540910e-01
              281	1.0493518394e-01	1.0493538842e-01
              282	1.0493516319e-01	1.0493536766e-01
              283	1.0493514255e-01	1.0493534703e-01
              284	1.0493512213e-01	1.0493532661e-01
              285	1.0493510168e-01	1.0493530615e-01
              286	1.0493508125e-01	1.0493528573e-01
              287	1.0493506086e-01	1.0493526533e-01
              288	1.0493504055e-01	1.0493524502e-01
              289	1.0493502035e-01	1.0493522483e-01
              290	1.0493500035e-01	1.0493520483e-01
              291	1.0493498041e-01	1.0493518489e-01
              292	1.0493496053e-01	1.0493516501e-01
              293	1.0493494047e-01	1.0493514494e-01
              294	1.0493492066e-01	1.0493512513e-01
              295	1.0493490078e-01	1.0493510525e-01
              296	1.0493488100e-01	1.0493508547e-01
              297	1.0493486135e-01	1.0493506582e-01
              298	1.0493484155e-01	1.0493504602e-01
              299	1.0493482205e-01	1.0493502653e-01
              300	1.0493480251e-01	1.0493500699e-01
              301	1.0493478302e-01	1.0493498750e-01
              302	1.0493476361e-01	1.0493496809e-01
              303	1.0493474432e-01	1.0493494880e-01
              304	1.0493472502e-01	1.0493492950e-01
              305	1.0493470592e-01	1.0493491040e-01
              306	1.0493468670e-01	1.0493489118e-01
              307	1.0493466767e-01	1.0493487215e-01
              308	1.0493464857e-01	1.0493485305e-01
              309	1.0493462951e-01	1.0493483399e-01
              310	1.0493461059e-01	1.0493481507e-01
              311	1.0493459179e-01	1.0493479627e-01
              312	1.0493457299e-01	1.0493477747e-01
              313	1.0493455423e-01	1.0493475872e-01
              314	1.0493453547e-01	1.0493473995e-01
              315	1.0493451670e-01	1.0493472118e-01
              316	1.0493449809e-01	1.0493470257e-01
              317	1.0493447952e-01	1.0493468401e-01
              318	1.0493446105e-01	1.0493466553e-01
              319	1.0493444263e-01	1.0493464711e-01
              320	1.0493442420e-01	1.0493462868e-01
              321	1.0493440587e-01	1.0493461035e-01
              322	1.0493438770e-01	1.0493459218e-01
              323	1.0493436943e-01	1.0493457391e-01
              324	1.0493435134e-01	1.0493455582e-01
              325	1.0493433307e-01	1.0493453756e-01
              326	1.0493431491e-01	1.0493451940e-01
              327	1.0493429685e-01	1.0493450134e-01
              328	1.0493427888e-01	1.0493448337e-01
              329	1.0493426083e-01	1.0493446532e-01
              330	1.0493424307e-01	1.0493444756e-01
              331	1.0493422529e-01	1.0493442978e-01
              332	1.0493420752e-01	1.0493441201e-01
              333	1.0493418968e-01	1.0493439417e-01
              334	1.0493417186e-01	1.0493437635e-01
              335	1.0493415413e-01	1.0493435862e-01
              336	1.0493413653e-01	1.0493434102e-01
              337	1.0493411892e-01	1.0493432342e-01
              338	1.0493410136e-01	1.0493430585e-01
              339	1.0493408382e-01	1.0493428831e-01
              340	1.0493406643e-01	1.0493427092e-01
              341	1.0493404909e-01	1.0493425359e-01
              342	1.0493403185e-01	1.0493423634e-01
              343	1.0493401451e-01	1.0493421901e-01
              344	1.0493399715e-01	1.0493420165e-01
              345	1.0493397999e-01	1.0493418449e-01
              346	1.0493396279e-01	1.0493416729e-01
              347	1.0493394573e-01	1.0493415023e-01
              348	1.0493392871e-01	1.0493413321e-01
              349	1.0493391168e-01	1.0493411618e-01
              350	1.0493389461e-01	1.0493409911e-01
              351	1.0493387767e-01	1.0493408217e-01
              352	1.0493386080e-01	1.0493406530e-01
              353	1.0493384388e-01	1.0493404838e-01
              354	1.0493382696e-01	1.0493403146e-01
              355	1.0493381009e-01	1.0493401459e-01
              356	1.0493379344e-01	1.0493399794e-01
              357	1.0493377678e-01	1.0493398129e-01
              358	1.0493376009e-01	1.0493396460e-01
              359	1.0493374346e-01	1.0493394796e-01
              360	1.0493372694e-01	1.0493393145e-01
              361	1.0493371044e-01	1.0493391495e-01
              362	1.0493369399e-01	1.0493389850e-01
              363	1.0493367758e-01	1.0493388209e-01
              364	1.0493366125e-01	1.0493386576e-01
              365	1.0493364480e-01	1.0493384931e-01
              366	1.0493362856e-01	1.0493383307e-01
              367	1.0493361222e-01	1.0493381673e-01
              368	1.0493359594e-01	1.0493380045e-01
              369	1.0493357961e-01	1.0493378412e-01
              370	1.0493356326e-01	1.0493376777e-01
              371	1.0493354727e-01	1.0493375178e-01
              372	1.0493353120e-01	1.0493373572e-01
              373	1.0493351513e-01	1.0493371965e-01
              374	1.0493349916e-01	1.0493370368e-01
              375	1.0493348319e-01	1.0493368771e-01
              376	1.0493346716e-01	1.0493367168e-01
              377	1.0493345121e-01	1.0493365573e-01
              378	1.0493343538e-01	1.0493363990e-01
              379	1.0493341950e-01	1.0493362402e-01
              380	1.0493340364e-01	1.0493360816e-01
              381	1.0493338794e-01	1.0493359247e-01
              382	1.0493337228e-01	1.0493357680e-01
              383	1.0493335658e-01	1.0493356110e-01
              384	1.0493334089e-01	1.0493354542e-01
              385	1.0493332534e-01	1.0493352986e-01
              386	1.0493330966e-01	1.0493351419e-01
              387	1.0493329402e-01	1.0493349855e-01
              388	1.0493327851e-01	1.0493348303e-01
              389	1.0493326298e-01	1.0493346751e-01
              390	1.0493324754e-01	1.0493345207e-01
              391	1.0493323207e-01	1.0493343660e-01
              392	1.0493321661e-01	1.0493342114e-01
              393	1.0493320135e-01	1.0493340588e-01
              394	1.0493318587e-01	1.0493339040e-01
              395	1.0493317048e-01	1.0493337502e-01
              396	1.0493315521e-01	1.0493335975e-01
              397	1.0493313994e-01	1.0493334448e-01
              398	1.0493312474e-01	1.0493332928e-01
              399	1.0493310965e-01	1.0493331419e-01
              400	1.0493309455e-01	1.0493329908e-01
              401	1.0493307939e-01	1.0493328393e-01
              402	1.0493306439e-01	1.0493326893e-01
              403	1.0493304930e-01	1.0493325384e-01
              404	1.0493303436e-01	1.0493323890e-01
              405	1.0493301944e-01	1.0493322398e-01
              406	1.0493300455e-01	1.0493320910e-01
              407	1.0493298977e-01	1.0493319431e-01
              408	1.0493297495e-01	1.0493317949e-01
              409	1.0493296006e-01	1.0493316460e-01
              410	1.0493294544e-01	1.0493314998e-01
              411	1.0493293055e-01	1.0493313510e-01
              412	1.0493291571e-01	1.0493312025e-01
              413	1.0493290099e-01	1.0493310554e-01
              414	1.0493288627e-01	1.0493309083e-01
              415	1.0493287154e-01	1.0493307609e-01
              416	1.0493285694e-01	1.0493306149e-01
              417	1.0493284222e-01	1.0493304678e-01
              418	1.0493282766e-01	1.0493303222e-01
              419	1.0493281305e-01	1.0493301761e-01
              420	1.0493279836e-01	1.0493300292e-01
              421	1.0493278380e-01	1.0493298836e-01
              422	1.0493276940e-01	1.0493297396e-01
              423	1.0493275471e-01	1.0493295927e-01
              424	1.0493274037e-01	1.0493294493e-01
              425	1.0493272609e-01	1.0493293065e-01
              426	1.0493271183e-01	1.0493291639e-01
              427	1.0493269747e-01	1.0493290204e-01
              428	1.0493268320e-01	1.0493288777e-01
              429	1.0493266904e-01	1.0493287360e-01
              430	1.0493265467e-01	1.0493285923e-01
              431	1.0493264048e-01	1.0493284505e-01
              432	1.0493262635e-01	1.0493283092e-01
              433	1.0493261221e-01	1.0493281678e-01
              434	1.0493259805e-01	1.0493280263e-01
              435	1.0493258385e-01	1.0493278842e-01
              436	1.0493256986e-01	1.0493277443e-01
              437	1.0493255590e-01	1.0493276048e-01
              438	1.0493254205e-01	1.0493274662e-01
              439	1.0493252796e-01	1.0493273254e-01
              440	1.0493251399e-01	1.0493271857e-01
              441	1.0493250009e-01	1.0493270467e-01
              442	1.0493248626e-01	1.0493269084e-01
              443	1.0493247249e-01	1.0493267707e-01
              444	1.0493245859e-01	1.0493266317e-01
              445	1.0493244487e-01	1.0493264946e-01
              446	1.0493243117e-01	1.0493263576e-01
              447	1.0493241739e-01	1.0493262197e-01
              448	1.0493240362e-01	1.0493260820e-01
              449	1.0493238989e-01	1.0493259448e-01
              450	1.0493237610e-01	1.0493258069e-01
              451	1.0493236252e-01	1.0493256711e-01
              452	1.0493234889e-01	1.0493255348e-01
              453	1.0493233538e-01	1.0493253997e-01
              454	1.0493232182e-01	1.0493252641e-01
              455	1.0493230834e-01	1.0493251293e-01
              456	1.0493229471e-01	1.0493249931e-01
              457	1.0493228116e-01	1.0493248575e-01
              458	1.0493226757e-01	1.0493247217e-01
              459	1.0493225412e-01	1.0493245872e-01
              460	1.0493224070e-01	1.0493244530e-01
              461	1.0493222746e-01	1.0493243206e-01
              462	1.0493221406e-01	1.0493241866e-01
              463	1.0493220056e-01	1.0493240516e-01
              464	1.0493218728e-01	1.0493239188e-01
              465	1.0493217387e-01	1.0493237848e-01
              466	1.0493216073e-01	1.0493236534e-01
              467	1.0493214743e-01	1.0493235204e-01
              468	1.0493213421e-01	1.0493233882e-01
              469	1.0493212099e-01	1.0493232560e-01
              470	1.0493210773e-01	1.0493231235e-01
              471	1.0493209456e-01	1.0493229918e-01
              472	1.0493208142e-01	1.0493228603e-01
              473	1.0493206835e-01	1.0493227296e-01
              474	1.0493205521e-01	1.0493225983e-01
              475	1.0493204206e-01	1.0493224668e-01
              476	1.0493202904e-01	1.0493223366e-01
              477	1.0493201595e-01	1.0493222057e-01
              478	1.0493200301e-01	1.0493220763e-01
              479	1.0493199000e-01	1.0493219462e-01
              480	1.0493197711e-01	1.0493218174e-01
              481	1.0493196415e-01	1.0493216878e-01
              482	1.0493195119e-01	1.0493215581e-01
              483	1.0493193819e-01	1.0493214282e-01
              484	1.0493192532e-01	1.0493212995e-01
              485	1.0493191246e-01	1.0493211709e-01
              486	1.0493189966e-01	1.0493210429e-01
              487	1.0493188686e-01	1.0493209149e-01
              488	1.0493187398e-01	1.0493207862e-01
              489	1.0493186129e-01	1.0493206592e-01
              490	1.0493184854e-01	1.0493205318e-01
              491	1.0493183574e-01	1.0493204038e-01
              492	1.0493182312e-01	1.0493202776e-01
              493	1.0493181045e-01	1.0493201509e-01
              494	1.0493179773e-01	1.0493200237e-01
              495	1.0493178529e-01	1.0493198993e-01
              496	1.0493177269e-01	1.0493197734e-01
              497	1.0493176006e-01	1.0493196471e-01
              498	1.0493174756e-01	1.0493195221e-01
              499	1.0493173502e-01	1.0493193967e-01
              500	1.0493172254e-01	1.0493192718e-01
              501	1.0493171005e-01	1.0493191470e-01
              502	1.0493169752e-01	1.0493190218e-01
              503	1.0493168504e-01	1.0493188969e-01
              504	1.0493167262e-01	1.0493187727e-01
              505	1.0493166009e-01	1.0493186474e-01
              506	1.0493164769e-01	1.0493185234e-01
              507	1.0493163537e-01	1.0493184002e-01
              508	1.0493162288e-01	1.0493182754e-01
              509	1.0493161053e-01	1.0493181519e-01
              510	1.0493159817e-01	1.0493180283e-01
              511	1.0493158577e-01	1.0493179044e-01
              512	1.0493157344e-01	1.0493177810e-01
              513	1.0493156128e-01	1.0493176595e-01
              514	1.0493154895e-01	1.0493175362e-01
              515	1.0493153665e-01	1.0493174132e-01
              516	1.0493152444e-01	1.0493172911e-01
              517	1.0493151222e-01	1.0493171690e-01
              518	1.0493150002e-01	1.0493170469e-01
              519	1.0493148792e-01	1.0493169260e-01
              520	1.0493147587e-01	1.0493168054e-01
              521	1.0493146376e-01	1.0493166844e-01
              522	1.0493145168e-01	1.0493165636e-01
              523	1.0493143960e-01	1.0493164428e-01
              524	1.0493142743e-01	1.0493163211e-01
              525	1.0493141545e-01	1.0493162013e-01
              526	1.0493140346e-01	1.0493160814e-01
              527	1.0493139149e-01	1.0493159618e-01
              528	1.0493137953e-01	1.0493158422e-01
              529	1.0493136755e-01	1.0493157224e-01
              530	1.0493135567e-01	1.0493156036e-01
              531	1.0493134384e-01	1.0493154853e-01
              532	1.0493133188e-01	1.0493153657e-01
              533	1.0493131988e-01	1.0493152457e-01
              534	1.0493130800e-01	1.0493151270e-01
              535	1.0493129605e-01	1.0493150075e-01
              536	1.0493128429e-01	1.0493148899e-01
              537	1.0493127244e-01	1.0493147714e-01
              538	1.0493126063e-01	1.0493146533e-01
              539	1.0493124893e-01	1.0493145363e-01
              540	1.0493123721e-01	1.0493144191e-01
              541	1.0493122542e-01	1.0493143013e-01
              542	1.0493121376e-01	1.0493141846e-01
              543	1.0493120208e-01	1.0493140679e-01
              544	1.0493119035e-01	1.0493139506e-01
              545	1.0493117875e-01	1.0493138346e-01
              546	1.0493116704e-01	1.0493137175e-01
              547	1.0493115555e-01	1.0493136026e-01
              548	1.0493114400e-01	1.0493134871e-01
              549	1.0493113250e-01	1.0493133722e-01
              550	1.0493112081e-01	1.0493132553e-01
              551	1.0493110932e-01	1.0493131404e-01
              552	1.0493109778e-01	1.0493130250e-01
              553	1.0493108618e-01	1.0493129091e-01
              554	1.0493107465e-01	1.0493127938e-01
              555	1.0493106314e-01	1.0493126786e-01
              556	1.0493105171e-01	1.0493125644e-01
              557	1.0493104016e-01	1.0493124489e-01
              558	1.0493102864e-01	1.0493123337e-01
              559	1.0493101716e-01	1.0493122189e-01
              560	1.0493100563e-01	1.0493121036e-01
              561	1.0493099428e-01	1.0493119902e-01
              562	1.0493098285e-01	1.0493118759e-01
              563	1.0493097154e-01	1.0493117628e-01
              564	1.0493096030e-01	1.0493116504e-01
              565	1.0493094892e-01	1.0493115366e-01
              566	1.0493093767e-01	1.0493114241e-01
              567	1.0493092621e-01	1.0493113095e-01
              568	1.0493091495e-01	1.0493111969e-01
              569	1.0493090375e-01	1.0493110850e-01
              570	1.0493089239e-01	1.0493109714e-01
              571	1.0493088121e-01	1.0493108596e-01
              572	1.0493087001e-01	1.0493107476e-01
              573	1.0493085883e-01	1.0493106358e-01
              574	1.0493084760e-01	1.0493105235e-01