/*--------------------------------*- C++ -*----------------------------------*\
| =========                 |                                                 |
| \\      /  F ield         | OpenFOAM: The Open Source CFD Toolbox           |
|  \\    /   O peration     | Version:  4.x                                   |
|   \\  /    A nd           | Web:      www.OpenFOAM.org                      |
|    \\/     M anipulation  |                                                 |
\*---------------------------------------------------------------------------*/
FoamFile
{
    version     2.0;
    format      ascii;
    class       volScalarField;
    location    "3000";
    object      CO;
}
// * * * * * * * * * * * * * * * * * * * * * * * * * * * * * * * * * * * * * //

dimensions      [0 0 0 0 0 0 0];

internalField   nonuniform List<scalar> 
1175
(
0.3101816127
0.3101816127
0.3101816127
0.3101816127
0.3101816126
0.3101816125
0.310181612
0.3101816103
0.3101816051
0.3101815898
0.3101815469
0.310181435
0.310181166
0.3101805805
0.3101794439
0.3101816127
0.3101816127
0.3101816127
0.3101816127
0.3101816126
0.3101816124
0.3101816117
0.3101816094
0.310181602
0.3101815792
0.3101815128
0.3101813327
0.310180885
0.3101798896
0.3101779577
0.3101816127
0.3101816127
0.3101816127
0.3101816127
0.3101816126
0.3101816123
0.3101816113
0.3101816079
0.3101815963
0.3101815592
0.3101814458
0.3101811237
0.3101802893
0.3101783806
0.310174668
0.3101816127
0.3101816127
0.3101816127
0.3101816127
0.3101816126
0.3101816122
0.3101816109
0.3101816062
0.31018159
0.3101815358
0.3101813636
0.3101808522
0.3101794702
0.3101762013
0.3101697991
0.3101816127
0.3101816127
0.3101816127
0.3101816127
0.3101816126
0.3101816122
0.3101816107
0.3101816055
0.3101815869
0.3101815237
0.3101813182
0.3101806905
0.3101789398
0.3101746706
0.3101662066
0.3101816127
0.3101816127
0.3101816127
0.3101816127
0.3101816126
0.3101816122
0.3101816109
0.3101816062
0.31018159
0.3101815358
0.3101813636
0.3101808522
0.3101794703
0.3101762013
0.3101697992
0.3101816127
0.3101816127
0.3101816127
0.3101816127
0.3101816126
0.3101816123
0.3101816113
0.3101816079
0.3101815963
0.3101815592
0.3101814458
0.3101811237
0.3101802893
0.3101783807
0.3101746682
0.3101816127
0.3101816127
0.3101816127
0.3101816127
0.3101816126
0.3101816124
0.3101816117
0.3101816094
0.310181602
0.3101815792
0.3101815128
0.3101813327
0.310180885
0.3101798897
0.3101779578
0.3101816127
0.3101816127
0.3101816127
0.3101816127
0.3101816126
0.3101816125
0.310181612
0.3101816103
0.3101816051
0.3101815898
0.3101815469
0.310181435
0.310181166
0.3101805805
0.310179444
0.3101816127
0.3101816127
0.3101816127
0.3101816127
0.3101816126
0.3101816124
0.3101816117
0.3101816094
0.310181602
0.3101815792
0.3101815128
0.3101813327
0.310180885
0.3101798895
0.3101816127
0.3101816127
0.3101816127
0.3101816127
0.3101816126
0.3101816123
0.3101816114
0.310181608
0.3101815968
0.3101815603
0.3101814483
0.3101811271
0.3101802884
0.3101783579
0.3101746
0.3101816127
0.3101816127
0.3101816127
0.3101816127
0.3101816126
0.3101816122
0.3101816107
0.3101816055
0.3101815867
0.3101815223
0.3101813114
0.3101806665
0.310178876
0.3101745542
0.3101660566
0.3101816127
0.3101816127
0.3101816127
0.3101816126
0.3101816125
0.310181612
0.31018161
0.3101816026
0.3101815747
0.3101814739
0.3101811242
0.3101799837
0.3101765953
0.310167901
0.3101503903
0.3101816127
0.3101816127
0.3101816127
0.3101816126
0.3101816125
0.3101816119
0.3101816097
0.3101816011
0.3101815683
0.3101814461
0.3101810057
0.3101794989
0.31017475
0.3101617345
0.3101343249
0.3101816127
0.3101816127
0.3101816127
0.3101816126
0.3101816125
0.310181612
0.31018161
0.3101816026
0.3101815747
0.3101814739
0.3101811242
0.3101799837
0.3101765954
0.3101679011
0.3101503907
0.3101816127
0.3101816127
0.3101816127
0.3101816127
0.3101816126
0.3101816122
0.3101816107
0.3101816055
0.3101815867
0.3101815223
0.3101813114
0.3101806666
0.3101788761
0.3101745544
0.3101660572
0.3101816127
0.3101816127
0.3101816127
0.3101816127
0.3101816126
0.3101816123
0.3101816114
0.310181608
0.3101815968
0.3101815603
0.3101814483
0.3101811271
0.3101802884
0.3101783581
0.3101746004
0.3101816127
0.3101816127
0.3101816127
0.3101816127
0.3101816126
0.3101816124
0.3101816117
0.3101816094
0.310181602
0.3101815792
0.3101815128
0.3101813327
0.310180885
0.3101798897
0.3101779578
0.3101816127
0.3101816127
0.3101816127
0.3101816127
0.3101816126
0.3101816123
0.3101816113
0.3101816079
0.3101815963
0.3101815592
0.3101814458
0.3101811237
0.3101802892
0.3101783804
0.3101816127
0.3101816127
0.3101816127
0.3101816127
0.3101816126
0.3101816122
0.3101816107
0.3101816055
0.3101815867
0.3101815223
0.3101813114
0.3101806665
0.310178876
0.3101745538
0.3101816127
0.3101816127
0.3101816127
0.3101816126
0.3101816125
0.3101816119
0.3101816096
0.3101816008
0.3101815671
0.3101814425
0.3101810009
0.3101795304
0.3101750799
0.3101634992
0.3101400772
0.3101816127
0.3101816127
0.3101816127
0.3101816126
0.3101816124
0.3101816116
0.3101816084
0.3101815952
0.3101815418
0.3101813309
0.3101805227
0.3101775785
0.3101677262
0.3101393189
0.3100780446
0.3101816127
0.3101816127
0.3101816127
0.3101816126
0.3101816124
0.3101816115
0.3101816078
0.3101815922
0.3101815271
0.3101812585
0.3101801684
0.3101758835
0.3101600365
0.3101082137
0.3099814494
0.3101816127
0.3101816127
0.3101816127
0.3101816126
0.3101816124
0.3101816116
0.3101816084
0.3101815952
0.3101815418
0.3101813309
0.3101805227
0.3101775786
0.3101677265
0.3101393198
0.3100780472
0.3101816127
0.3101816127
0.3101816127
0.3101816126
0.3101816125
0.3101816119
0.3101816096
0.3101816008
0.3101815671
0.3101814425
0.3101810009
0.3101795305
0.3101750801
0.3101635001
0.3101400797
0.3101816127
0.3101816127
0.3101816127
0.3101816127
0.3101816126
0.3101816122
0.3101816107
0.3101816055
0.3101815867
0.3101815223
0.3101813114
0.3101806666
0.3101788761
0.3101745544
0.3101660572
0.3101816127
0.3101816127
0.3101816127
0.3101816127
0.3101816126
0.3101816123
0.3101816113
0.3101816079
0.3101815963
0.3101815592
0.3101814458
0.3101811237
0.3101802893
0.3101783807
0.3101746682
0.3101816127
0.3101816127
0.3101816127
0.3101816127
0.3101816126
0.3101816122
0.3101816109
0.3101816062
0.31018159
0.3101815358
0.3101813636
0.3101808521
0.3101794701
0.3101762009
0.3101816127
0.3101816127
0.3101816127
0.3101816126
0.3101816125
0.310181612
0.31018161
0.3101816026
0.3101815747
0.3101814739
0.3101811242
0.3101799836
0.3101765951
0.3101679001
0.3101816127
0.3101816127
0.3101816127
0.3101816126
0.3101816124
0.3101816116
0.3101816084
0.3101815952
0.3101815418
0.3101813309
0.3101805227
0.3101775784
0.3101677258
0.3101393168
0.3101816127
0.3101816127
0.3101816127
0.3101816126
0.3101816124
0.3101816112
0.3101816065
0.3101815858
0.3101814962
0.3101811109
0.3101794747
0.3101727355
0.3101466344
0.3100576642
0.3098340865
0.3101816127
0.3101816127
0.3101816127
0.3101816126
0.3101816123
0.310181611
0.3101816054
0.3101815804
0.310181467
0.3101809479
0.3101785499
0.3101674436
0.3101168154
0.3099003249
0.3091617054
0.3101816127
0.3101816127
0.3101816127
0.3101816126
0.3101816124
0.3101816112
0.3101816065
0.3101815858
0.3101814962
0.3101811109
0.3101794748
0.3101727357
0.3101466354
0.3100576686
0.3098341031
0.3101816127
0.3101816127
0.3101816127
0.3101816126
0.3101816124
0.3101816116
0.3101816084
0.3101815952
0.3101815418
0.3101813309
0.3101805227
0.3101775785
0.3101677264
0.3101393196
0.310078047
0.3101816127
0.3101816127
0.3101816127
0.3101816126
0.3101816125
0.310181612
0.31018161
0.3101816026
0.3101815747
0.3101814739
0.3101811242
0.3101799837
0.3101765953
0.3101679011
0.3101503908
0.3101816127
0.3101816127
0.3101816127
0.3101816127
0.3101816126
0.3101816122
0.3101816109
0.3101816062
0.31018159
0.3101815358
0.3101813636
0.3101808522
0.3101794702
0.3101762013
0.3101697992
0.3101816127
0.3101816127
0.3101816127
0.3101816127
0.3101816126
0.3101816122
0.3101816107
0.3101816055
0.3101815869
0.3101815237
0.3101813182
0.3101806904
0.3101789396
0.3101746701
0.3101816127
0.3101816127
0.3101816127
0.3101816126
0.3101816125
0.3101816119
0.3101816097
0.3101816011
0.3101815683
0.3101814461
0.3101810057
0.3101794988
0.3101747496
0.3101617332
0.3101816127
0.3101816127
0.3101816127
0.3101816126
0.3101816124
0.3101816115
0.3101816078
0.3101815922
0.3101815271
0.3101812585
0.3101801684
0.3101758833
0.3101600354
0.3101082088
0.3101816127
0.3101816127
0.3101816127
0.3101816126
0.3101816123
0.310181611
0.3101816054
0.3101815804
0.3101814669
0.3101809479
0.3101785498
0.3101674432
0.3101168128
0.3099003076
0.3101816127
0.3101816127
0.3101816127
0.3101816126
0.3101816123
0.3101816108
0.3101816042
0.3101815732
0.3101814251
0.3101806895
0.3101768593
0.3101557198
0.310030748
0.3092338645
0.3037195022
0.3101816127
0.3101816127
0.3101816127
0.3101816126
0.3101816123
0.310181611
0.3101816054
0.3101815804
0.3101814669
0.3101809479
0.3101785499
0.3101674435
0.3101168149
0.3099003229
0.3091617026
0.3101816127
0.3101816127
0.3101816127
0.3101816126
0.3101816124
0.3101816115
0.3101816078
0.3101815922
0.3101815271
0.3101812585
0.3101801684
0.3101758834
0.3101600363
0.3101082131
0.3099814489
0.3101816127
0.3101816127
0.3101816127
0.3101816126
0.3101816125
0.3101816119
0.3101816097
0.3101816011
0.3101815683
0.3101814461
0.3101810057
0.3101794989
0.31017475
0.3101617344
0.3101343249
0.3101816127
0.3101816127
0.3101816127
0.3101816127
0.3101816126
0.3101816122
0.3101816107
0.3101816055
0.3101815869
0.3101815237
0.3101813182
0.3101806905
0.3101789398
0.3101746705
0.3101662066
0.3101816127
0.3101816127
0.3101816127
0.3101816127
0.3101816126
0.3101816122
0.3101816109
0.3101816062
0.31018159
0.3101815358
0.3101813636
0.3101808521
0.3101794701
0.3101762009
0.3101816127
0.3101816127
0.3101816127
0.3101816126
0.3101816125
0.310181612
0.31018161
0.3101816026
0.3101815747
0.3101814739
0.3101811242
0.3101799836
0.3101765951
0.3101679002
0.3101816127
0.3101816127
0.3101816127
0.3101816126
0.3101816124
0.3101816116
0.3101816084
0.3101815952
0.3101815418
0.3101813309
0.3101805226
0.3101775783
0.3101677256
0.3101393169
0.3101816127
0.3101816127
0.3101816127
0.3101816126
0.3101816124
0.3101816112
0.3101816065
0.3101815858
0.3101814962
0.3101811109
0.3101794747
0.3101727353
0.3101466334
0.3100576603
0.3101816127
0.3101816127
0.3101816127
0.3101816126
0.3101816123
0.310181611
0.3101816054
0.3101815804
0.3101814669
0.3101809479
0.3101785498
0.3101674431
0.3101168125
0.3099003071
0.3101816127
0.3101816127
0.3101816127
0.3101816126
0.3101816124
0.3101816112
0.3101816065
0.3101815858
0.3101814962
0.3101811109
0.3101794747
0.3101727354
0.3101466338
0.3100576612
0.3101816127
0.3101816127
0.3101816127
0.3101816126
0.3101816124
0.3101816116
0.3101816084
0.3101815952
0.3101815418
0.3101813309
0.3101805227
0.3101775784
0.3101677259
0.310139318
0.310078042
0.3101816127
0.3101816127
0.3101816127
0.3101816126
0.3101816125
0.310181612
0.31018161
0.3101816026
0.3101815747
0.3101814739
0.3101811242
0.3101799836
0.3101765952
0.3101679007
0.3101503898
0.3101816127
0.3101816127
0.3101816127
0.3101816127
0.3101816126
0.3101816122
0.3101816109
0.3101816062
0.31018159
0.3101815358
0.3101813636
0.3101808521
0.3101794702
0.3101762012
0.310169799
0.3101816127
0.3101816127
0.3101816127
0.3101816127
0.3101816126
0.3101816123
0.3101816113
0.3101816079
0.3101815963
0.3101815592
0.3101814458
0.3101811236
0.3101802892
0.3101783805
0.3101816127
0.3101816127
0.3101816127
0.3101816127
0.3101816126
0.3101816122
0.3101816107
0.3101816055
0.3101815867
0.3101815223
0.3101813114
0.3101806665
0.3101788759
0.3101745539
0.3101816127
0.3101816127
0.3101816127
0.3101816126
0.3101816125
0.3101816119
0.3101816096
0.3101816008
0.3101815671
0.3101814425
0.3101810009
0.3101795303
0.3101750797
0.3101634989
0.3101816127
0.3101816127
0.3101816127
0.3101816126
0.3101816124
0.3101816116
0.3101816084
0.3101815952
0.3101815418
0.3101813309
0.3101805226
0.3101775783
0.3101677255
0.3101393168
0.3101816127
0.3101816127
0.3101816127
0.3101816126
0.3101816124
0.3101816115
0.3101816078
0.3101815922
0.3101815271
0.3101812585
0.3101801684
0.3101758832
0.3101600352
0.3101082087
0.3101816127
0.3101816127
0.3101816127
0.3101816126
0.3101816124
0.3101816116
0.3101816084
0.3101815952
0.3101815418
0.3101813309
0.3101805226
0.3101775783
0.3101677256
0.3101393172
0.3101816127
0.3101816127
0.3101816127
0.3101816126
0.3101816125
0.3101816119
0.3101816096
0.3101816008
0.3101815671
0.3101814425
0.3101810009
0.3101795303
0.3101750798
0.3101634988
0.3101816127
0.3101816127
0.3101816127
0.3101816127
0.3101816126
0.3101816122
0.3101816107
0.3101816055
0.3101815867
0.3101815223
0.3101813114
0.3101806665
0.310178876
0.310174554
0.3101660562
0.3101816127
0.3101816127
0.3101816127
0.3101816127
0.3101816126
0.3101816123
0.3101816113
0.3101816079
0.3101815963
0.3101815592
0.3101814458
0.3101811237
0.3101802892
0.3101783805
0.3101746679
0.3101816127
0.3101816127
0.3101816127
0.3101816127
0.3101816126
0.3101816124
0.3101816117
0.3101816094
0.310181602
0.3101815792
0.3101815128
0.3101813327
0.3101808849
0.3101798895
0.3101816127
0.3101816127
0.3101816127
0.3101816127
0.3101816126
0.3101816123
0.3101816114
0.310181608
0.3101815968
0.3101815603
0.3101814483
0.3101811271
0.3101802883
0.3101783579
0.3101816127
0.3101816127
0.3101816127
0.3101816127
0.3101816126
0.3101816122
0.3101816107
0.3101816055
0.3101815867
0.3101815223
0.3101813114
0.3101806665
0.3101788759
0.3101745539
0.3101816127
0.3101816127
0.3101816127
0.3101816126
0.3101816125
0.310181612
0.31018161
0.3101816026
0.3101815747
0.3101814739
0.3101811241
0.3101799836
0.310176595
0.3101679002
0.3101816127
0.3101816127
0.3101816127
0.3101816126
0.3101816125
0.3101816119
0.3101816097
0.3101816011
0.3101815683
0.3101814461
0.3101810057
0.3101794988
0.3101747496
0.3101617332
0.3101816127
0.3101816127
0.3101816127
0.3101816126
0.3101816125
0.310181612
0.31018161
0.3101816026
0.3101815747
0.3101814739
0.3101811242
0.3101799836
0.310176595
0.3101679003
0.3101816127
0.3101816127
0.3101816127
0.3101816127
0.3101816126
0.3101816122
0.3101816107
0.3101816055
0.3101815867
0.3101815223
0.3101813114
0.3101806665
0.3101788759
0.3101745539
0.3101816127
0.3101816127
0.3101816127
0.3101816127
0.3101816126
0.3101816123
0.3101816114
0.310181608
0.3101815968
0.3101815603
0.3101814483
0.3101811271
0.3101802883
0.3101783579
0.3101816127
0.3101816127
0.3101816127
0.3101816127
0.3101816126
0.3101816124
0.3101816117
0.3101816094
0.310181602
0.3101815792
0.3101815128
0.3101813327
0.310180885
0.3101798896
0.3101779576
0.3101816127
0.3101816127
0.3101816127
0.3101816127
0.3101816126
0.3101816125
0.310181612
0.3101816103
0.3101816051
0.3101815898
0.3101815469
0.310181435
0.310181166
0.3101805805
0.3101816127
0.3101816127
0.3101816127
0.3101816127
0.3101816126
0.3101816124
0.3101816117
0.3101816094
0.310181602
0.3101815792
0.3101815128
0.3101813327
0.3101808849
0.3101798895
0.3101816127
0.3101816127
0.3101816127
0.3101816127
0.3101816126
0.3101816123
0.3101816113
0.3101816079
0.3101815963
0.3101815592
0.3101814458
0.3101811236
0.3101802892
0.3101783804
0.3101816127
0.3101816127
0.3101816127
0.3101816127
0.3101816126
0.3101816122
0.3101816109
0.3101816062
0.31018159
0.3101815358
0.3101813636
0.3101808521
0.3101794701
0.3101762009
0.3101816127
0.3101816127
0.3101816127
0.3101816127
0.3101816126
0.3101816122
0.3101816107
0.3101816055
0.3101815869
0.3101815237
0.3101813182
0.3101806904
0.3101789396
0.3101746701
0.3101816127
0.3101816127
0.3101816127
0.3101816127
0.3101816126
0.3101816122
0.3101816109
0.3101816062
0.31018159
0.3101815358
0.3101813636
0.3101808521
0.3101794701
0.310176201
0.3101816127
0.3101816127
0.3101816127
0.3101816127
0.3101816126
0.3101816123
0.3101816113
0.3101816079
0.3101815963
0.3101815592
0.3101814458
0.3101811236
0.3101802892
0.3101783805
0.3101816127
0.3101816127
0.3101816127
0.3101816127
0.3101816126
0.3101816124
0.3101816117
0.3101816094
0.310181602
0.3101815792
0.3101815128
0.3101813327
0.3101808849
0.3101798895
0.3101816127
0.3101816127
0.3101816127
0.3101816127
0.3101816126
0.3101816125
0.310181612
0.3101816103
0.3101816051
0.3101815898
0.3101815469
0.310181435
0.310181166
0.3101805805
)
;

boundaryField
{
    top
    {
        type            zeroGradient;
    }
    bottom
    {
        type            zeroGradient;
    }
    side-walls
    {
        type            zeroGradient;
    }
    inlet
    {
        type            zeroGradient;
    }
    outlet
    {
        type            zeroGradient;
    }
    procBoundary0to1
    {
        type            processor;
        value           nonuniform List<scalar> 
97
(
0.3101774899
0.3101779576
0.31017473
0.3101687018
0.3101599952
0.3101538793
0.3101599954
0.310168702
0.3101747302
0.31017749
0.3101779576
0.3101779576
0.3101686112
0.3101660561
0.3101534144
0.3101268311
0.310102188
0.3101268316
0.3101534151
0.3101686117
0.3101747302
0.3101746678
0.3101660561
0.3101660561
0.3101092439
0.3100780408
0.3100126107
0.3098882546
0.3100126132
0.3101092462
0.3101534151
0.3101687021
0.3101697988
0.3101503893
0.3100780408
0.3100780408
0.3096861752
0.3091616752
0.3090566076
0.3096861848
0.3100126132
0.3101268318
0.3101599954
0.3101662062
0.3101343237
0.3099814437
0.3091616752
0.3091616752
0.306376875
0.3091616778
0.3090566079
0.3098340923
0.3098882549
0.3101021883
0.3101538794
0.3101697989
0.3101503899
0.3100780442
0.3098340939
0.3091616778
0.3098340923
0.3098340923
0.3100126106
0.3101400775
0.3101268309
0.3101599952
0.310174668
0.3101660568
0.3101400786
0.3100780442
0.3099814443
0.3100780446
0.3101400775
0.3101400775
0.3101534144
0.3101746
0.3101687018
0.3101779577
0.3101746002
0.3101660567
0.3101503899
0.3101343239
0.31015039
0.3101660567
0.3101746
0.3101746
0.31017473
0.3101794439
0.310179444
0.3101779577
0.310174668
0.3101697989
0.3101662064
0.310169799
0.310174668
0.3101779577
0.3101794439
)
;
    }
}


// ************************************************************************* //
