/*--------------------------------*- C++ -*----------------------------------*\
| =========                 |                                                 |
| \\      /  F ield         | OpenFOAM: The Open Source CFD Toolbox           |
|  \\    /   O peration     | Version:  4.x                                   |
|   \\  /    A nd           | Web:      www.OpenFOAM.org                      |
|    \\/     M anipulation  |                                                 |
\*---------------------------------------------------------------------------*/
FoamFile
{
    version     2.0;
    format      ascii;
    class       volScalarField;
    location    "3000";
    object      Cpv;
}
// * * * * * * * * * * * * * * * * * * * * * * * * * * * * * * * * * * * * * //

dimensions      [0 2 -2 -1 0 0 0];

internalField   nonuniform List<scalar> 
1175
(
1277.533375
1277.533367
1277.533399
1277.533377
1277.53338
1277.533385
1277.533362
1277.533355
1277.533358
1277.533345
1277.533341
1277.53332
1277.5333
1277.533242
1277.53314
1277.532893
1277.532875
1277.532891
1277.532858
1277.532864
1277.532887
1277.532883
1277.532894
1277.532888
1277.532896
1277.5329
1277.532885
1277.532834
1277.532745
1277.532574
1277.533043
1277.533044
1277.533046
1277.533042
1277.533025
1277.533025
1277.533012
1277.533007
1277.533019
1277.533036
1277.532998
1277.532953
1277.532869
1277.532673
1277.532299
1277.533313
1277.533297
1277.533338
1277.533343
1277.533348
1277.533331
1277.533328
1277.533335
1277.533355
1277.533367
1277.533326
1277.533274
1277.533146
1277.532838
1277.532178
1277.533297
1277.533318
1277.533299
1277.533279
1277.533288
1277.533277
1277.533291
1277.533269
1277.53327
1277.53327
1277.53325
1277.53321
1277.533031
1277.532594
1277.531763
1277.533424
1277.533426
1277.533425
1277.53342
1277.533407
1277.533422
1277.533396
1277.533413
1277.5334
1277.533381
1277.533391
1277.533336
1277.533197
1277.53288
1277.53224
1277.53295
1277.532921
1277.53292
1277.532928
1277.532929
1277.53292
1277.532901
1277.532873
1277.532897
1277.532872
1277.532874
1277.532828
1277.532746
1277.53257
1277.532219
1277.532988
1277.533013
1277.53303
1277.533007
1277.533021
1277.533064
1277.533044
1277.533052
1277.533046
1277.533055
1277.533055
1277.533034
1277.532999
1277.532917
1277.532732
1277.533616
1277.533614
1277.533617
1277.533595
1277.533591
1277.533583
1277.533549
1277.53356
1277.533565
1277.533582
1277.533569
1277.53354
1277.533514
1277.533448
1277.53334
1277.533247
1277.533224
1277.533227
1277.53324
1277.533277
1277.533301
1277.533317
1277.533278
1277.533296
1277.533289
1277.533285
1277.533283
1277.533243
1277.533148
1277.533327
1277.533315
1277.533303
1277.533317
1277.533329
1277.533294
1277.533251
1277.533273
1277.533292
1277.533263
1277.533271
1277.533252
1277.533174
1277.533007
1277.532633
1277.533281
1277.53327
1277.533295
1277.533307
1277.533304
1277.533308
1277.533309
1277.533309
1277.533316
1277.533291
1277.533282
1277.533221
1277.533037
1277.532629
1277.531808
1277.532966
1277.53297
1277.532956
1277.532949
1277.532945
1277.532918
1277.532917
1277.532893
1277.532842
1277.532847
1277.532812
1277.532685
1277.532357
1277.53151
1277.52979
1277.533673
1277.533667
1277.533677
1277.533672
1277.533704
1277.533689
1277.533685
1277.533706
1277.533701
1277.533675
1277.533634
1277.533465
1277.532995
1277.531704
1277.52902
1277.533518
1277.533503
1277.533478
1277.533516
1277.53351
1277.533481
1277.533478
1277.533495
1277.533484
1277.533468
1277.533436
1277.533306
1277.53296
1277.532098
1277.530382
1277.533095
1277.533085
1277.533066
1277.533052
1277.533027
1277.533039
1277.533025
1277.533014
1277.533029
1277.533015
1277.533008
1277.532958
1277.532799
1277.532379
1277.531566
1277.533364
1277.533369
1277.533386
1277.533381
1277.53338
1277.533373
1277.533362
1277.533302
1277.533286
1277.533296
1277.53329
1277.533243
1277.533148
1277.53297
1277.532606
1277.533265
1277.533271
1277.533275
1277.533278
1277.53327
1277.533262
1277.533275
1277.533295
1277.533288
1277.533291
1277.533287
1277.533275
1277.533227
1277.533114
1277.532897
1277.53312
1277.533128
1277.533119
1277.533109
1277.533109
1277.5331
1277.5331
1277.533114
1277.53312
1277.533115
1277.533107
1277.53309
1277.533009
1277.532809
1277.533407
1277.533425
1277.533432
1277.533422
1277.533406
1277.533433
1277.533433
1277.533436
1277.533429
1277.533449
1277.533416
1277.533349
1277.533179
1277.532772
1277.533469
1277.533451
1277.533451
1277.53345
1277.533467
1277.533468
1277.533441
1277.533426
1277.533422
1277.533408
1277.533375
1277.533228
1277.532772
1277.531652
1277.529355
1277.533185
1277.533182
1277.533184
1277.53315
1277.53315
1277.533157
1277.533172
1277.533206
1277.533201
1277.533191
1277.533122
1277.53281
1277.531869
1277.529063
1277.523064
1277.533455
1277.533444
1277.533458
1277.533413
1277.533413
1277.533423
1277.533428
1277.533431
1277.533432
1277.5334
1277.533279
1277.532865
1277.531304
1277.526234
1277.513787
1277.53312
1277.533156
1277.533131
1277.533135
1277.533139
1277.533125
1277.533105
1277.533122
1277.533136
1277.533129
1277.533057
1277.53277
1277.531796
1277.529017
1277.522983
1277.532408
1277.532377
1277.532369
1277.532376
1277.532349
1277.532351
1277.532373
1277.532403
1277.532372
1277.532348
1277.532302
1277.532166
1277.531745
1277.530611
1277.528332
1277.533067
1277.533055
1277.533064
1277.533047
1277.533052
1277.533041
1277.533062
1277.533063
1277.533062
1277.53311
1277.533094
1277.533041
1277.532846
1277.532428
1277.531583
1277.532766
1277.532763
1277.53274
1277.532764
1277.532758
1277.532781
1277.532767
1277.532771
1277.53277
1277.53276
1277.532758
1277.532731
1277.532665
1277.532463
1277.532098
1277.532816
1277.532818
1277.532841
1277.532855
1277.532818
1277.532829
1277.532813
1277.532788
1277.532787
1277.53279
1277.532768
1277.532722
1277.532579
1277.532281
1277.533763
1277.533758
1277.533753
1277.533734
1277.533744
1277.533771
1277.533745
1277.533767
1277.53374
1277.533727
1277.533707
1277.53359
1277.533265
1277.532393
1277.533372
1277.533357
1277.53335
1277.533375
1277.533389
1277.533375
1277.533367
1277.533371
1277.533385
1277.53337
1277.533298
1277.533
1277.531991
1277.529218
1277.533689
1277.533657
1277.533655
1277.533678
1277.533676
1277.533668
1277.53368
1277.53369
1277.533675
1277.533624
1277.533481
1277.532836
1277.530257
1277.521497
1277.499507
1277.532865
1277.532815
1277.532828
1277.532834
1277.532836
1277.532855
1277.532846
1277.532837
1277.532804
1277.53278
1277.532559
1277.531485
1277.526485
1277.505198
1277.430526
1277.532686
1277.532703
1277.532724
1277.532727
1277.532721
1277.53274
1277.53274
1277.532723
1277.532708
1277.532686
1277.53251
1277.531844
1277.529276
1277.520507
1277.498553
1277.533645
1277.533661
1277.53368
1277.533672
1277.533662
1277.533641
1277.533647
1277.533641
1277.533656
1277.533629
1277.53352
1277.533226
1277.532269
1277.529501
1277.523473
1277.532399
1277.532393
1277.532384
1277.532376
1277.532399
1277.532403
1277.532402
1277.532391
1277.532407
1277.532409
1277.532352
1277.532235
1277.531904
1277.531036
1277.529308
1277.533486
1277.533499
1277.533532
1277.533515
1277.533516
1277.533519
1277.533526
1277.533503
1277.533466
1277.533462
1277.533438
1277.533381
1277.533261
1277.532921
1277.532295
1277.533348
1277.533328
1277.533323
1277.533306
1277.533292
1277.533275
1277.533249
1277.53327
1277.533287
1277.533266
1277.53325
1277.533199
1277.533
1277.5326
1277.533179
1277.53319
1277.533164
1277.533171
1277.533166
1277.533177
1277.533178
1277.533196
1277.533182
1277.533202
1277.533157
1277.533038
1277.532548
1277.531277
1277.533021
1277.533035
1277.533031
1277.533044
1277.533064
1277.533074
1277.533059
1277.533037
1277.533038
1277.533012
1277.532911
1277.532495
1277.530957
1277.525878
1277.533609
1277.533602
1277.533583
1277.533586
1277.533571
1277.533565
1277.533577
1277.533568
1277.533558
1277.533486
1277.533253
1277.532146
1277.527146
1277.505851
1277.533387
1277.533411
1277.533382
1277.533376
1277.533413
1277.533428
1277.533411
1277.533423
1277.533397
1277.533331
1277.532955
1277.530858
1277.518539
1277.440073
1275.295238
1277.533041
1277.533036
1277.53303
1277.533015
1277.533014
1277.532991
1277.532984
1277.532998
1277.53301
1277.532962
1277.53278
1277.531672
1277.5267
1277.505396
1277.430676
1277.532976
1277.533006
1277.532991
1277.532997
1277.532975
1277.532989
1277.533004
1277.532999
1277.532988
1277.532966
1277.532847
1277.532425
1277.530837
1277.525727
1277.513276
1277.532993
1277.532997
1277.532963
1277.532932
1277.53293
1277.532939
1277.532962
1277.53294
1277.532941
1277.532913
1277.532866
1277.532731
1277.532241
1277.530964
1277.528277
1277.532984
1277.532998
1277.532959
1277.532956
1277.532962
1277.532961
1277.532972
1277.532984
1277.532974
1277.532959
1277.532928
1277.532863
1277.532658
1277.532244
1277.531425
1277.533646
1277.533627
1277.533623
1277.533629
1277.533651
1277.53365
1277.533664
1277.533658
1277.533666
1277.533671
1277.533616
1277.533575
1277.533427
1277.533118
1277.532656
1277.532658
1277.532638
1277.532643
1277.532662
1277.532657
1277.532648
1277.532643
1277.532634
1277.532621
1277.53259
1277.532483
1277.532175
1277.531315
1277.532928
1277.532918
1277.53291
1277.532929
1277.532922
1277.532907
1277.532923
1277.532921
1277.532901
1277.532876
1277.532784
1277.532498
1277.531567
1277.52877
1277.533539
1277.533553
1277.533567
1277.533574
1277.533566
1277.533566
1277.533546
1277.533551
1277.533544
1277.533537
1277.533359
1277.532706
1277.530132
1277.521434
1277.53323
1277.533219
1277.533199
1277.533193
1277.533165
1277.533178
1277.533171
1277.533158
1277.53316
1277.533111
1277.532892
1277.531804
1277.526826
1277.505537
1277.533962
1277.533968
1277.533958
1277.533966
1277.533972
1277.533952
1277.533978
1277.533974
1277.533938
1277.53386
1277.533692
1277.533052
1277.530485
1277.521727
1277.533546
1277.533525
1277.533526
1277.533527
1277.53354
1277.533544
1277.533515
1277.533545
1277.533558
1277.533538
1277.533484
1277.533169
1277.532213
1277.529417
1277.523415
1277.533438
1277.533435
1277.533441
1277.533438
1277.533425
1277.533405
1277.533391
1277.533375
1277.533369
1277.533335
1277.533281
1277.533162
1277.532823
1277.531932
1277.53024
1277.532817
1277.532831
1277.532829
1277.532838
1277.532824
1277.532849
1277.532857
1277.53288
1277.532881
1277.532886
1277.532844
1277.532765
1277.532679
1277.53235
1277.531721
1277.532736
1277.532729
1277.532746
1277.532729
1277.532754
1277.532755
1277.532755
1277.532744
1277.532737
1277.532725
1277.532718
1277.532677
1277.532604
1277.532402
1277.533144
1277.533132
1277.533156
1277.533143
1277.533125
1277.533111
1277.533124
1277.533148
1277.533159
1277.533179
1277.533165
1277.533101
1277.532945
1277.532514
1277.532505
1277.532486
1277.532497
1277.532515
1277.532516
1277.532504
1277.532531
1277.532516
1277.532493
1277.5325
1277.532455
1277.532348
1277.531923
1277.530814
1277.533413
1277.533396
1277.53337
1277.533383
1277.533389
1277.533391
1277.533386
1277.533403
1277.533387
1277.533385
1277.53331
1277.533028
1277.532082
1277.529291
1277.533536
1277.533547
1277.53354
1277.53353
1277.533545
1277.533561
1277.533558
1277.533579
1277.533562
1277.533549
1277.533463
1277.533026
1277.531494
1277.526417
1277.532725
1277.532728
1277.532722
1277.532722
1277.532737
1277.53274
1277.532702
1277.53266
1277.532641
1277.532617
1277.532545
1277.532249
1277.531285
1277.528507
1277.533079
1277.533075
1277.533085
1277.533061
1277.533033
1277.533055
1277.533084
1277.533079
1277.533108
1277.533146
1277.533121
1277.532964
1277.532509
1277.531347
1277.533328
1277.533314
1277.533306
1277.533294
1277.53329
1277.533307
1277.533298
1277.533291
1277.53329
1277.533291
1277.53329
1277.533227
1277.53307
1277.532633
1277.531806
1277.533255
1277.533219
1277.533238
1277.533236
1277.533234
1277.533252
1277.533249
1277.533245
1277.533225
1277.533228
1277.533181
1277.533165
1277.533061
1277.532859
1277.532479
1277.532735
1277.532736
1277.532728
1277.532713
1277.532699
1277.532699
1277.532718
1277.532713
1277.532708
1277.532691
1277.532703
1277.53271
1277.53268
1277.532595
1277.532933
1277.532917
1277.532927
1277.532929
1277.532915
1277.532901
1277.532895
1277.532923
1277.532918
1277.532887
1277.532872
1277.532805
1277.532707
1277.532515
1277.533849
1277.533855
1277.533863
1277.533853
1277.533852
1277.533844
1277.533852
1277.533823
1277.533828
1277.533799
1277.533758
1277.533677
1277.533503
1277.533084
1277.533531
1277.533546
1277.533543
1277.53357
1277.533561
1277.533605
1277.5336
1277.533584
1277.533598
1277.533595
1277.53357
1277.533444
1277.533113
1277.532247
1277.533057
1277.533036
1277.533023
1277.533024
1277.532998
1277.533013
1277.533013
1277.533012
1277.533032
1277.532987
1277.532944
1277.532806
1277.532338
1277.531049
1277.533627
1277.533621
1277.533582
1277.533574
1277.533577
1277.533561
1277.533571
1277.533562
1277.533561
1277.533552
1277.533497
1277.533398
1277.53307
1277.5322
1277.53258
1277.532556
1277.532568
1277.532571
1277.532577
1277.532556
1277.532536
1277.532517
1277.532525
1277.532503
1277.532481
1277.532421
1277.532233
1277.531816
1277.532984
1277.532994
1277.533002
1277.533002
1277.532982
1277.532992
1277.532997
1277.533022
1277.533052
1277.533076
1277.533049
1277.533002
1277.532908
1277.532721
1277.533194
1277.533198
1277.533176
1277.533177
1277.533174
1277.533176
1277.53316
1277.533146
1277.533149
1277.533141
1277.533127
1277.533124
1277.533069
1277.532975
1277.532785
1277.53285
1277.532843
1277.532822
1277.532838
1277.532836
1277.532839
1277.532846
1277.532853
1277.532854
1277.53287
1277.532846
1277.532815
1277.532811
1277.532775
1277.533414
1277.533406
1277.533419
1277.533428
1277.533403
1277.53341
1277.533379
1277.533383
1277.533393
1277.533399
1277.533404
1277.533385
1277.533327
1277.533212
1277.533391
1277.53337
1277.533391
1277.533382
1277.533388
1277.533404
1277.533387
1277.533421
1277.533421
1277.533421
1277.5334
1277.533386
1277.533299
1277.53312
1277.533744
1277.533753
1277.53376
1277.533737
1277.533721
1277.53375
1277.533727
1277.5337
1277.533677
1277.533673
1277.533654
1277.533611
1277.533501
1277.533208
1277.532888
1277.532871
1277.532871
1277.532888
1277.532903
1277.532898
1277.532922
1277.532907
1277.532929
1277.532929
1277.532932
1277.532868
1277.532692
1277.53227
1277.532819
1277.532809
1277.5328
1277.532804
1277.532792
1277.532801
1277.532807
1277.532818
1277.532821
1277.532816
1277.53278
1277.532747
1277.532632
1277.532308
1277.532434
1277.532455
1277.53247
1277.532463
1277.532478
1277.532493
1277.532511
1277.532501
1277.532499
1277.532515
1277.532499
1277.53248
1277.532393
1277.532214
1277.532914
1277.532904
1277.532912
1277.532904
1277.532881
1277.53289
1277.532882
1277.532867
1277.532874
1277.532894
1277.532841
1277.532815
1277.532782
1277.532675
1277.533154
1277.53315
1277.533145
1277.533146
1277.533144
1277.533166
1277.533176
1277.533182
1277.533174
1277.533183
1277.5332
1277.533177
1277.533161
1277.533095
)
;

boundaryField
{
    top
    {
        type            calculated;
        value           nonuniform List<scalar> 
134
(
1277.533616
1277.533265
1277.532766
1277.533486
1277.532984
1277.532817
1277.533255
1277.533194
1277.533154
1277.533614
1277.533271
1277.532763
1277.533499
1277.532998
1277.532831
1277.533219
1277.533198
1277.53315
1277.533617
1277.533275
1277.53274
1277.533532
1277.532959
1277.532829
1277.533238
1277.533176
1277.533145
1277.533595
1277.533278
1277.532764
1277.533515
1277.532956
1277.532838
1277.533236
1277.533177
1277.533146
1277.533591
1277.53327
1277.532758
1277.533516
1277.532962
1277.532824
1277.533234
1277.533174
1277.533144
1277.533583
1277.533262
1277.532781
1277.533519
1277.532961
1277.532849
1277.533252
1277.533176
1277.533166
1277.533549
1277.533275
1277.532767
1277.533526
1277.532972
1277.532857
1277.533249
1277.53316
1277.533176
1277.53356
1277.533295
1277.532771
1277.533503
1277.532984
1277.53288
1277.533245
1277.533146
1277.533182
1277.533565
1277.533288
1277.53277
1277.533466
1277.532974
1277.532881
1277.533225
1277.533149
1277.533174
1277.533582
1277.533291
1277.53276
1277.533462
1277.532959
1277.532886
1277.533228
1277.533141
1277.533183
1277.533569
1277.533287
1277.532758
1277.533438
1277.532928
1277.532844
1277.533181
1277.533127
1277.5332
1277.53354
1277.533275
1277.532731
1277.533381
1277.532863
1277.532765
1277.533165
1277.533124
1277.533177
1277.533514
1277.533227
1277.532665
1277.533261
1277.532658
1277.532679
1277.533061
1277.533069
1277.533161
1277.533448
1277.533114
1277.532463
1277.532921
1277.532244
1277.53235
1277.532859
1277.532975
1277.533095
1277.53334
1277.532897
1277.532098
1277.532295
1277.531425
1277.531721
1277.532479
1277.532785
)
;
    }
    bottom
    {
        type            calculated;
        value           nonuniform List<scalar> 
127
(
1277.533375
1277.533247
1277.53312
1277.532816
1277.533348
1277.533646
1277.532736
1277.532735
1277.53285
1277.533367
1277.533224
1277.533128
1277.532818
1277.533328
1277.533627
1277.532729
1277.532736
1277.532843
1277.533399
1277.533227
1277.533119
1277.532841
1277.533323
1277.533623
1277.532746
1277.532728
1277.532822
1277.533377
1277.53324
1277.533109
1277.532855
1277.533306
1277.533629
1277.532729
1277.532713
1277.532838
1277.53338
1277.533277
1277.533109
1277.532818
1277.533292
1277.533651
1277.532754
1277.532699
1277.532836
1277.533385
1277.533301
1277.5331
1277.532829
1277.533275
1277.53365
1277.532755
1277.532699
1277.532839
1277.533362
1277.533317
1277.5331
1277.532813
1277.533249
1277.533664
1277.532755
1277.532718
1277.532846
1277.533355
1277.533278
1277.533114
1277.532788
1277.53327
1277.533658
1277.532744
1277.532713
1277.532853
1277.533358
1277.533296
1277.53312
1277.532787
1277.533287
1277.533666
1277.532737
1277.532708
1277.532854
1277.533345
1277.533289
1277.533115
1277.53279
1277.533266
1277.533671
1277.532725
1277.532691
1277.53287
1277.533341
1277.533285
1277.533107
1277.532768
1277.53325
1277.533616
1277.532718
1277.532703
1277.532846
1277.53332
1277.533283
1277.53309
1277.532722
1277.533199
1277.533575
1277.532677
1277.53271
1277.532815
1277.5333
1277.533243
1277.533009
1277.532579
1277.533
1277.533427
1277.532604
1277.53268
1277.532811
1277.533242
1277.533148
1277.532809
1277.532281
1277.5326
1277.533118
1277.532402
1277.532595
1277.532775
1277.53314
)
;
    }
    side-walls
    {
        type            calculated;
        value           nonuniform List<scalar> 
261
(
1277.533375
1277.532893
1277.533043
1277.533313
1277.533297
1277.533424
1277.53295
1277.532988
1277.533616
1277.533367
1277.532875
1277.533044
1277.533297
1277.533318
1277.533426
1277.532921
1277.533013
1277.533614
1277.533399
1277.532891
1277.533046
1277.533338
1277.533299
1277.533425
1277.53292
1277.53303
1277.533617
1277.533377
1277.532858
1277.533042
1277.533343
1277.533279
1277.53342
1277.532928
1277.533007
1277.533595
1277.53338
1277.532864
1277.533025
1277.533348
1277.533288
1277.533407
1277.532929
1277.533021
1277.533591
1277.533385
1277.532887
1277.533025
1277.533331
1277.533277
1277.533422
1277.53292
1277.533064
1277.533583
1277.533362
1277.532883
1277.533012
1277.533328
1277.533291
1277.533396
1277.532901
1277.533044
1277.533549
1277.533355
1277.532894
1277.533007
1277.533335
1277.533269
1277.533413
1277.532873
1277.533052
1277.53356
1277.533358
1277.532888
1277.533019
1277.533355
1277.53327
1277.5334
1277.532897
1277.533046
1277.533565
1277.533345
1277.532896
1277.533036
1277.533367
1277.53327
1277.533381
1277.532872
1277.533055
1277.533582
1277.533341
1277.5329
1277.532998
1277.533326
1277.53325
1277.533391
1277.532874
1277.533055
1277.533569
1277.53332
1277.532885
1277.532953
1277.533274
1277.53321
1277.533336
1277.532828
1277.533034
1277.53354
1277.5333
1277.532834
1277.532869
1277.533146
1277.533031
1277.533197
1277.532746
1277.532999
1277.533514
1277.533242
1277.532745
1277.532673
1277.532838
1277.532594
1277.53288
1277.53257
1277.532917
1277.533448
1277.53314
1277.532574
1277.532299
1277.532178
1277.531763
1277.53224
1277.532219
1277.532732
1277.53334
1277.53285
1277.533414
1277.533391
1277.533744
1277.532888
1277.532819
1277.532434
1277.532914
1277.533154
1277.532843
1277.533406
1277.53337
1277.533753
1277.532871
1277.532809
1277.532455
1277.532904
1277.53315
1277.532822
1277.533419
1277.533391
1277.53376
1277.532871
1277.5328
1277.53247
1277.532912
1277.533145
1277.532838
1277.533428
1277.533382
1277.533737
1277.532888
1277.532804
1277.532463
1277.532904
1277.533146
1277.532836
1277.533403
1277.533388
1277.533721
1277.532903
1277.532792
1277.532478
1277.532881
1277.533144
1277.532839
1277.53341
1277.533404
1277.53375
1277.532898
1277.532801
1277.532493
1277.53289
1277.533166
1277.532846
1277.533379
1277.533387
1277.533727
1277.532922
1277.532807
1277.532511
1277.532882
1277.533176
1277.532853
1277.533383
1277.533421
1277.5337
1277.532907
1277.532818
1277.532501
1277.532867
1277.533182
1277.532854
1277.533393
1277.533421
1277.533677
1277.532929
1277.532821
1277.532499
1277.532874
1277.533174
1277.53287
1277.533399
1277.533421
1277.533673
1277.532929
1277.532816
1277.532515
1277.532894
1277.533183
1277.532846
1277.533404
1277.5334
1277.533654
1277.532932
1277.53278
1277.532499
1277.532841
1277.5332
1277.532815
1277.533385
1277.533386
1277.533611
1277.532868
1277.532747
1277.53248
1277.532815
1277.533177
1277.532811
1277.533327
1277.533299
1277.533501
1277.532692
1277.532632
1277.532393
1277.532782
1277.533161
1277.532775
1277.533212
1277.53312
1277.533208
1277.53227
1277.532308
1277.532214
1277.532675
1277.533095
)
;
    }
    inlet
    {
        type            calculated;
        value           nonuniform List<scalar> 
81
(
1277.533375
1277.532893
1277.533043
1277.533313
1277.533297
1277.533424
1277.53295
1277.532988
1277.533616
1277.533247
1277.533327
1277.533281
1277.532966
1277.533673
1277.533518
1277.533095
1277.533364
1277.533265
1277.53312
1277.533407
1277.533469
1277.533185
1277.533455
1277.53312
1277.532408
1277.533067
1277.532766
1277.532816
1277.533763
1277.533372
1277.533689
1277.532865
1277.532686
1277.533645
1277.532399
1277.533486
1277.533348
1277.533179
1277.533021
1277.533609
1277.533387
1277.533041
1277.532976
1277.532993
1277.532984
1277.533646
1277.532656
1277.532928
1277.533539
1277.53323
1277.533962
1277.533546
1277.533438
1277.532817
1277.532736
1277.533144
1277.532505
1277.533413
1277.533536
1277.532725
1277.533079
1277.533328
1277.533255
1277.532735
1277.532933
1277.533849
1277.533531
1277.533057
1277.533627
1277.53258
1277.532984
1277.533194
1277.53285
1277.533414
1277.533391
1277.533744
1277.532888
1277.532819
1277.532434
1277.532914
1277.533154
)
;
    }
    outlet
    {
        type            calculated;
        value           nonuniform 0();
    }
    procBoundary0to1
    {
        type            processor;
        value           nonuniform List<scalar> 
97
(
1277.532932
1277.532963
1277.532248
1277.531721
1277.531232
1277.530549
1277.53128
1277.531674
1277.532431
1277.53315
1277.532963
1277.532963
1277.532066
1277.531935
1277.530539
1277.527489
1277.525848
1277.528089
1277.530335
1277.531992
1277.53264
1277.532441
1277.531935
1277.531935
1277.526338
1277.523179
1277.516616
1277.504638
1277.516551
1277.525331
1277.530324
1277.531543
1277.53165
1277.530692
1277.523179
1277.523179
1277.485022
1277.431247
1277.420293
1277.484062
1277.517006
1277.527005
1277.531316
1277.53173
1277.528603
1277.513416
1277.431247
1277.431247
1275.560672
1277.4309
1277.420449
1277.499754
1277.504131
1277.52512
1277.530242
1277.532469
1277.529594
1277.522765
1277.49942
1277.4309
1277.499754
1277.499754
1277.516959
1277.529053
1277.527896
1277.530729
1277.532065
1277.531692
1277.5285
1277.523275
1277.513961
1277.522479
1277.529053
1277.529053
1277.530556
1277.532339
1277.531885
1277.532411
1277.532146
1277.532247
1277.530548
1277.528362
1277.530505
1277.530975
1277.532339
1277.532339
1277.532471
1277.532988
1277.532692
1277.533028
1277.53273
1277.532577
1277.531424
1277.531688
1277.531856
1277.532487
1277.532988
)
;
    }
}


// ************************************************************************* //
