/*--------------------------------*- C++ -*----------------------------------*\
| =========                 |                                                 |
| \\      /  F ield         | OpenFOAM: The Open Source CFD Toolbox           |
|  \\    /   O peration     | Version:  4.x                                   |
|   \\  /    A nd           | Web:      www.OpenFOAM.org                      |
|    \\/     M anipulation  |                                                 |
\*---------------------------------------------------------------------------*/
FoamFile
{
    version     2.0;
    format      ascii;
    class       volScalarField;
    location    "3000";
    object      H2O;
}
// * * * * * * * * * * * * * * * * * * * * * * * * * * * * * * * * * * * * * //

dimensions      [0 0 0 0 0 0 0];

internalField   nonuniform List<scalar> 
1175
(
1.00002425e-05
1.000024261e-05
1.000024291e-05
1.000024952e-05
1.000026794e-05
1.000033384e-05
1.000055506e-05
1.000126089e-05
1.000344581e-05
1.000990739e-05
1.002797265e-05
1.007514749e-05
1.018854614e-05
1.04353917e-05
1.09146513e-05
1.000024233e-05
1.000024247e-05
1.000024423e-05
1.000025058e-05
1.000027527e-05
1.000035984e-05
1.000065174e-05
1.000162365e-05
1.000474683e-05
1.001435508e-05
1.004232704e-05
1.011827526e-05
1.03070479e-05
1.072678188e-05
1.154154929e-05
1.000024332e-05
1.000024411e-05
1.000024643e-05
1.000025384e-05
1.000028686e-05
1.000040404e-05
1.00008237e-05
1.000227386e-05
1.000714002e-05
1.002280108e-05
1.007057739e-05
1.020642068e-05
1.055828732e-05
1.136328666e-05
1.292930248e-05
1.000024327e-05
1.000024408e-05
1.000024585e-05
1.000025678e-05
1.000029813e-05
1.000044879e-05
1.000099927e-05
1.000296827e-05
1.000980277e-05
1.003264864e-05
1.010527299e-05
1.032093491e-05
1.090377117e-05
1.228267418e-05
1.498358565e-05
1.000024331e-05
1.000024267e-05
1.000024703e-05
1.000025919e-05
1.000030265e-05
1.000046799e-05
1.000108002e-05
1.000329471e-05
1.001110728e-05
1.003773835e-05
1.012441726e-05
1.038912897e-05
1.112754656e-05
1.292852282e-05
1.64995101e-05
1.000024309e-05
1.000024408e-05
1.000024587e-05
1.000025738e-05
1.00002976e-05
1.000044801e-05
1.000099941e-05
1.000296848e-05
1.000980287e-05
1.003264968e-05
1.010527293e-05
1.03209328e-05
1.090376352e-05
1.228264292e-05
1.49834994e-05
1.000024259e-05
1.000024344e-05
1.000024521e-05
1.000025421e-05
1.000028591e-05
1.000040386e-05
1.000082286e-05
1.000227467e-05
1.000713967e-05
1.00228019e-05
1.007057703e-05
1.020641724e-05
1.055827035e-05
1.136323234e-05
1.292917263e-05
1.000024268e-05
1.000024279e-05
1.000024462e-05
1.000025163e-05
1.000027567e-05
1.000035977e-05
1.000065265e-05
1.000162441e-05
1.000474819e-05
1.001435562e-05
1.004232482e-05
1.011826911e-05
1.030702851e-05
1.072672545e-05
1.15414173e-05
1.000024203e-05
1.000024212e-05
1.000024323e-05
1.000024884e-05
1.000026869e-05
1.000033476e-05
1.000055491e-05
1.000125954e-05
1.000344531e-05
1.000990599e-05
1.002797076e-05
1.007514219e-05
1.018852895e-05
1.043533866e-05
1.091451998e-05
1.000024299e-05
1.000024361e-05
1.000024502e-05
1.000025093e-05
1.000027486e-05
1.000036023e-05
1.000065152e-05
1.000162395e-05
1.000474783e-05
1.001435616e-05
1.004232923e-05
1.01182824e-05
1.030707273e-05
1.072687747e-05
1.000024238e-05
1.000024309e-05
1.000024569e-05
1.000025275e-05
1.00002845e-05
1.000039827e-05
1.00008023e-05
1.000220746e-05
1.000694613e-05
1.002230718e-05
1.006953426e-05
1.02049755e-05
1.055871537e-05
1.137298444e-05
1.295833385e-05
1.000024371e-05
1.00002445e-05
1.000024709e-05
1.000025663e-05
1.000029996e-05
1.00004615e-05
1.000106997e-05
1.000328973e-05
1.001119395e-05
1.003835894e-05
1.012728391e-05
1.03992518e-05
1.115450561e-05
1.297778895e-05
1.656313777e-05
1.000024358e-05
1.000024309e-05
1.000024745e-05
1.000026132e-05
1.000031568e-05
1.000053163e-05
1.000136064e-05
1.000451362e-05
1.001626135e-05
1.005876892e-05
1.020625303e-05
1.068732414e-05
1.21167574e-05
1.578514431e-05
2.317440397e-05
1.000024289e-05
1.000024497e-05
1.000024776e-05
1.000026283e-05
1.000032143e-05
1.000056197e-05
1.000149777e-05
1.00051217e-05
1.001894634e-05
1.007048762e-05
1.025622078e-05
1.089184048e-05
1.289539736e-05
1.838748877e-05
2.995504332e-05
1.000024295e-05
1.000024397e-05
1.000024673e-05
1.000026021e-05
1.000031614e-05
1.000053114e-05
1.00013606e-05
1.000451346e-05
1.001626046e-05
1.005876819e-05
1.020625154e-05
1.068731699e-05
1.211671962e-05
1.578500114e-05
2.317400871e-05
1.000024168e-05
1.000024252e-05
1.000024625e-05
1.000025788e-05
1.000030063e-05
1.000046306e-05
1.000107019e-05
1.00032892e-05
1.001119335e-05
1.003835954e-05
1.01272823e-05
1.039923861e-05
1.115444611e-05
1.297758439e-05
1.656262023e-05
1.000024327e-05
1.000024301e-05
1.000024374e-05
1.000025319e-05
1.000028514e-05
1.000039773e-05
1.000080188e-05
1.000220766e-05
1.000694832e-05
1.002230705e-05
1.006953281e-05
1.020496322e-05
1.05586633e-05
1.137280961e-05
1.295785882e-05
1.000024186e-05
1.000024204e-05
1.000024396e-05
1.000025074e-05
1.000027435e-05
1.000036003e-05
1.00006514e-05
1.000162357e-05
1.000474702e-05
1.001435566e-05
1.00423253e-05
1.011827116e-05
1.030703062e-05
1.072673029e-05
1.154142224e-05
1.00002432e-05
1.000024374e-05
1.000024552e-05
1.00002543e-05
1.00002869e-05
1.000040377e-05
1.000082193e-05
1.000227295e-05
1.000713912e-05
1.002280153e-05
1.007058301e-05
1.020644178e-05
1.0558361e-05
1.136352899e-05
1.000024391e-05
1.000024504e-05
1.000024705e-05
1.000025772e-05
1.000030011e-05
1.000046282e-05
1.000107055e-05
1.000329005e-05
1.001119465e-05
1.003836033e-05
1.012729077e-05
1.039927743e-05
1.115460341e-05
1.297818332e-05
1.000024442e-05
1.000024443e-05
1.000024913e-05
1.000026298e-05
1.000032489e-05
1.00005695e-05
1.000153192e-05
1.000526401e-05
1.001946712e-05
1.007199646e-05
1.025825643e-05
1.087857905e-05
1.275627439e-05
1.764300852e-05
2.752809348e-05
1.000024478e-05
1.000024577e-05
1.000025036e-05
1.000026977e-05
1.000035112e-05
1.000068528e-05
1.000205337e-05
1.000763395e-05
1.003012497e-05
1.011906599e-05
1.046000248e-05
1.170213156e-05
1.585938094e-05
2.784786678e-05
5.371072267e-05
1.000024443e-05
1.00002453e-05
1.000025019e-05
1.000027187e-05
1.000036193e-05
1.000073788e-05
1.000231388e-05
1.000889998e-05
1.003633202e-05
1.01496095e-05
1.06094686e-05
1.241737106e-05
1.910464829e-05
4.097679078e-05
9.448639376e-05
1.000024458e-05
1.000024356e-05
1.000024934e-05
1.000026826e-05
1.000034932e-05
1.000068195e-05
1.000205288e-05
1.000763427e-05
1.003012552e-05
1.01190649e-05
1.0459996e-05
1.170209429e-05
1.585919178e-05
2.784706352e-05
5.370823467e-05
1.000024269e-05
1.000024274e-05
1.000024759e-05
1.000026321e-05
1.000032583e-05
1.000057025e-05
1.000153171e-05
1.000526331e-05
1.001946716e-05
1.007199455e-05
1.025824781e-05
1.087853214e-05
1.275606078e-05
1.764215734e-05
2.752545827e-05
1.000024384e-05
1.000024471e-05
1.000024712e-05
1.000025765e-05
1.000030057e-05
1.00004637e-05
1.000107034e-05
1.000329016e-05
1.001119449e-05
1.003835997e-05
1.01272829e-05
1.039924201e-05
1.115445745e-05
1.297760375e-05
1.656262683e-05
1.000024291e-05
1.000024307e-05
1.000024545e-05
1.000025504e-05
1.000028629e-05
1.000040365e-05
1.000082201e-05
1.000227302e-05
1.000713973e-05
1.002280209e-05
1.007057842e-05
1.020642049e-05
1.055827963e-05
1.136324841e-05
1.292918288e-05
1.000024436e-05
1.000024399e-05
1.000024562e-05
1.000025646e-05
1.000029744e-05
1.000044848e-05
1.000099992e-05
1.000296801e-05
1.000980308e-05
1.00326525e-05
1.010528638e-05
1.032097831e-05
1.090392487e-05
1.228314254e-05
1.000024289e-05
1.000024487e-05
1.000024845e-05
1.000026127e-05
1.000031627e-05
1.000053035e-05
1.000135997e-05
1.000451327e-05
1.001626224e-05
1.005877413e-05
1.020627324e-05
1.068740302e-05
1.211706109e-05
1.578623593e-05
1.000024376e-05
1.000024538e-05
1.000024941e-05
1.000026861e-05
1.000034967e-05
1.000068402e-05
1.00020529e-05
1.000763444e-05
1.003012623e-05
1.011907152e-05
1.046002704e-05
1.170224408e-05
1.585991089e-05
2.785038675e-05
1.000024492e-05
1.000024613e-05
1.000025231e-05
1.00002779e-05
1.000038685e-05
1.00008547e-05
1.000287311e-05
1.001159984e-05
1.004935662e-05
1.021190957e-05
1.09021713e-05
1.374586233e-05
2.476137977e-05
6.231582482e-05
0.0001567044255
1.000024496e-05
1.000024722e-05
1.000025301e-05
1.000028092e-05
1.000040256e-05
1.000093644e-05
1.000330164e-05
1.001387503e-05
1.006170819e-05
1.028065837e-05
1.129244559e-05
1.597924845e-05
3.734756594e-05
0.0001287340651
0.0004405695696
1.00002444e-05
1.000024528e-05
1.000025165e-05
1.00002768e-05
1.000038502e-05
1.000085371e-05
1.000287256e-05
1.001160138e-05
1.004935608e-05
1.02119056e-05
1.090214932e-05
1.374573214e-05
2.476062088e-05
6.23117831e-05
0.0001566872191
1.000024422e-05
1.000024441e-05
1.000024829e-05
1.000026785e-05
1.000034882e-05
1.000068301e-05
1.000205323e-05
1.000763375e-05
1.003012626e-05
1.011906786e-05
1.04600076e-05
1.170213424e-05
1.585930836e-05
2.78473063e-05
5.370840449e-05
1.000024263e-05
1.000024316e-05
1.000024672e-05
1.000026083e-05
1.00003153e-05
1.000053084e-05
1.000135883e-05
1.000451231e-05
1.001626021e-05
1.005877038e-05
1.020625885e-05
1.068733741e-05
1.211677197e-05
1.578508951e-05
2.317403893e-05
1.000024339e-05
1.000024253e-05
1.000024505e-05
1.000025643e-05
1.000029756e-05
1.000044752e-05
1.000099803e-05
1.000296684e-05
1.000980242e-05
1.003265002e-05
1.010527804e-05
1.0320945e-05
1.090379017e-05
1.228268741e-05
1.498352835e-05
1.000024243e-05
1.00002432e-05
1.000024671e-05
1.00002582e-05
1.00003026e-05
1.000046723e-05
1.0001079e-05
1.000329292e-05
1.001110713e-05
1.003774301e-05
1.012443389e-05
1.0389192e-05
1.112776335e-05
1.292917609e-05
1.000024276e-05
1.000024364e-05
1.000024798e-05
1.000026262e-05
1.000032265e-05
1.000056102e-05
1.000149736e-05
1.000512243e-05
1.001894833e-05
1.007049529e-05
1.025625238e-05
1.089197067e-05
1.289591438e-05
1.838932814e-05
1.000024416e-05
1.000024519e-05
1.000024963e-05
1.00002715e-05
1.000036063e-05
1.000073693e-05
1.000231308e-05
1.000889979e-05
1.003633531e-05
1.014962187e-05
1.06095297e-05
1.24176689e-05
1.910607309e-05
4.098324199e-05
1.000024389e-05
1.000024509e-05
1.000025225e-05
1.000028085e-05
1.000040259e-05
1.000093715e-05
1.000330218e-05
1.001387612e-05
1.006171105e-05
1.028067242e-05
1.129252827e-05
1.597973075e-05
3.735057926e-05
0.0001287540369
1.000024532e-05
1.000024513e-05
1.000025251e-05
1.000028463e-05
1.000042183e-05
1.000103657e-05
1.000383915e-05
1.001688203e-05
1.007934554e-05
1.038969871e-05
1.200594275e-05
2.092793565e-05
7.368132202e-05
0.0004101114025
0.002738464261
1.000024336e-05
1.000024459e-05
1.000025165e-05
1.00002806e-05
1.00004019e-05
1.00009373e-05
1.00033032e-05
1.001387658e-05
1.00617103e-05
1.028066729e-05
1.129249113e-05
1.597946499e-05
3.73485257e-05
0.0001287375673
0.0004405729741
1.00002432e-05
1.000024488e-05
1.000024877e-05
1.000027115e-05
1.00003611e-05
1.000073809e-05
1.000231412e-05
1.000890036e-05
1.003633465e-05
1.014961668e-05
1.060950291e-05
1.241749923e-05
1.910507416e-05
4.097786763e-05
9.448717233e-05
1.000024264e-05
1.000024214e-05
1.000024716e-05
1.000026265e-05
1.000032325e-05
1.000056089e-05
1.000149574e-05
1.000512162e-05
1.001894796e-05
1.007049109e-05
1.025623629e-05
1.089188963e-05
1.289553697e-05
1.838776844e-05
2.995522265e-05
1.000024242e-05
1.00002423e-05
1.00002463e-05
1.000025819e-05
1.000030077e-05
1.000046582e-05
1.000107737e-05
1.00032919e-05
1.001110588e-05
1.003774015e-05
1.012442456e-05
1.038915184e-05
1.112760252e-05
1.292861941e-05
1.64995782e-05
1.000024319e-05
1.000024408e-05
1.000024734e-05
1.000025729e-05
1.000029847e-05
1.000044807e-05
1.000099869e-05
1.000296813e-05
1.000980395e-05
1.003265392e-05
1.01052914e-05
1.03209908e-05
1.090394703e-05
1.22831609e-05
1.000024298e-05
1.000024359e-05
1.000024732e-05
1.000026139e-05
1.000031687e-05
1.000053141e-05
1.000136086e-05
1.00045127e-05
1.001626186e-05
1.005877522e-05
1.020628195e-05
1.068743017e-05
1.211712659e-05
1.578628569e-05
1.000024353e-05
1.000024536e-05
1.000024949e-05
1.000026705e-05
1.000034861e-05
1.000068335e-05
1.000205207e-05
1.000763447e-05
1.003012849e-05
1.011907845e-05
1.046005658e-05
1.170235389e-05
1.58602517e-05
2.78509577e-05
1.000024411e-05
1.000024549e-05
1.000025046e-05
1.000027551e-05
1.000038554e-05
1.000085336e-05
1.000287231e-05
1.001160019e-05
1.004935988e-05
1.021192538e-05
1.090224639e-05
1.374620707e-05
2.476292786e-05
6.232228412e-05
1.000024472e-05
1.000024611e-05
1.000025253e-05
1.00002817e-05
1.000040316e-05
1.000093758e-05
1.000330245e-05
1.001387618e-05
1.006171152e-05
1.028068046e-05
1.129256733e-05
1.597991454e-05
3.735135499e-05
0.0001287565255
1.000024481e-05
1.000024503e-05
1.000025129e-05
1.000027621e-05
1.000038514e-05
1.000085343e-05
1.000287259e-05
1.00116013e-05
1.004935961e-05
1.021192241e-05
1.090223085e-05
1.374611515e-05
2.476244664e-05
6.232045627e-05
1.000024372e-05
1.000024486e-05
1.000024835e-05
1.000026791e-05
1.000034902e-05
1.000068335e-05
1.000205428e-05
1.000763514e-05
1.00301279e-05
1.011907488e-05
1.046004032e-05
1.170227051e-05
1.585984128e-05
2.784918898e-05
5.371430625e-05
1.000024359e-05
1.000024414e-05
1.000024652e-05
1.000026111e-05
1.000031495e-05
1.00005305e-05
1.000136004e-05
1.00045138e-05
1.001626175e-05
1.005877336e-05
1.020627052e-05
1.068738111e-05
1.211691977e-05
1.578551746e-05
2.317500028e-05
1.000024313e-05
1.000024254e-05
1.000024546e-05
1.0000257e-05
1.000029747e-05
1.000044751e-05
1.000099792e-05
1.000296706e-05
1.000980303e-05
1.003265059e-05
1.010528258e-05
1.032096139e-05
1.090383474e-05
1.228279693e-05
1.498373178e-05
1.000024425e-05
1.000024394e-05
1.000024572e-05
1.000025538e-05
1.000028693e-05
1.000040396e-05
1.000082302e-05
1.000227361e-05
1.000714004e-05
1.002280425e-05
1.007058851e-05
1.020645615e-05
1.055838631e-05
1.136354247e-05
1.000024337e-05
1.000024456e-05
1.000024609e-05
1.000025644e-05
1.000030072e-05
1.000046438e-05
1.000107076e-05
1.000329055e-05
1.001119567e-05
1.003836449e-05
1.012730167e-05
1.039931093e-05
1.115468039e-05
1.2978256e-05
1.000024329e-05
1.000024477e-05
1.000024903e-05
1.000026318e-05
1.000032441e-05
1.00005696e-05
1.000153129e-05
1.000526447e-05
1.001946945e-05
1.007200336e-05
1.025828531e-05
1.087867995e-05
1.275659092e-05
1.764384448e-05
1.000024414e-05
1.000024524e-05
1.000024961e-05
1.000026821e-05
1.000034981e-05
1.000068357e-05
1.000205242e-05
1.000763538e-05
1.003012943e-05
1.011908175e-05
1.046006685e-05
1.170238794e-05
1.586033351e-05
2.785104013e-05
1.000024483e-05
1.000024512e-05
1.000025113e-05
1.00002724e-05
1.000036042e-05
1.000073767e-05
1.000231363e-05
1.000890066e-05
1.003633677e-05
1.014963014e-05
1.060956049e-05
1.241777802e-05
1.910637937e-05
4.098361362e-05
1.000024329e-05
1.00002446e-05
1.000025024e-05
1.000026932e-05
1.000034987e-05
1.000068469e-05
1.000205323e-05
1.000763514e-05
1.003012934e-05
1.011907968e-05
1.046005938e-05
1.170235308e-05
1.586019453e-05
2.785061443e-05
1.000024198e-05
1.000024342e-05
1.00002467e-05
1.000026262e-05
1.000032531e-05
1.000056989e-05
1.000153221e-05
1.000526552e-05
1.001946951e-05
1.007200216e-05
1.025827855e-05
1.087865109e-05
1.275649313e-05
1.764367013e-05
1.00002438e-05
1.000024364e-05
1.000024629e-05
1.000025776e-05
1.000030011e-05
1.000046306e-05
1.000107073e-05
1.000329106e-05
1.00111961e-05
1.003836344e-05
1.012729584e-05
1.03992888e-05
1.115460275e-05
1.297801862e-05
1.65636594e-05
1.000024154e-05
1.000024158e-05
1.000024477e-05
1.00002534e-05
1.000028514e-05
1.000040265e-05
1.00008216e-05
1.000227283e-05
1.000713925e-05
1.002280225e-05
1.007058413e-05
1.020643899e-05
1.055833317e-05
1.136338077e-05
1.292943902e-05
1.000024262e-05
1.000024303e-05
1.000024533e-05
1.000025173e-05
1.000027687e-05
1.000036101e-05
1.000065259e-05
1.000162429e-05
1.00047473e-05
1.001435794e-05
1.004233346e-05
1.01182922e-05
1.030709272e-05
1.072688977e-05
1.000024359e-05
1.000024361e-05
1.000024524e-05
1.000025468e-05
1.000028582e-05
1.000039786e-05
1.00008009e-05
1.000220681e-05
1.000694744e-05
1.002231016e-05
1.006954364e-05
1.02050012e-05
1.055877749e-05
1.137311873e-05
1.000024232e-05
1.000024323e-05
1.000024667e-05
1.00002572e-05
1.000029957e-05
1.000046361e-05
1.00010709e-05
1.000329011e-05
1.0011195e-05
1.003836488e-05
1.012730359e-05
1.039931648e-05
1.115469214e-05
1.297827097e-05
1.000024529e-05
1.000024374e-05
1.000024807e-05
1.000026095e-05
1.000031627e-05
1.000053027e-05
1.000135979e-05
1.000451387e-05
1.00162623e-05
1.005877873e-05
1.020628958e-05
1.068745284e-05
1.211717278e-05
1.578633092e-05
1.000024321e-05
1.000024384e-05
1.000024708e-05
1.000026289e-05
1.000032267e-05
1.000056128e-05
1.000149739e-05
1.000512205e-05
1.001894977e-05
1.007049972e-05
1.025626835e-05
1.089201285e-05
1.289600172e-05
1.838937738e-05
1.000024273e-05
1.000024434e-05
1.00002474e-05
1.000026165e-05
1.000031567e-05
1.000053122e-05
1.000136089e-05
1.00045137e-05
1.001626361e-05
1.005877748e-05
1.020628776e-05
1.06874417e-05
1.211713369e-05
1.578621676e-05
1.000024373e-05
1.000024383e-05
1.000024597e-05
1.000025686e-05
1.000030004e-05
1.000046358e-05
1.000107086e-05
1.000329028e-05
1.001119535e-05
1.003836489e-05
1.012730054e-05
1.039930497e-05
1.115465841e-05
1.297820558e-05
1.000024243e-05
1.000024245e-05
1.000024444e-05
1.000025284e-05
1.000028478e-05
1.000039777e-05
1.000080145e-05
1.000220647e-05
1.000694677e-05
1.002230748e-05
1.006954105e-05
1.020499284e-05
1.055875816e-05
1.137309748e-05
1.000023994e-05
1.000024158e-05
1.000024426e-05
1.00002514e-05
1.000027507e-05
1.000035989e-05
1.000065181e-05
1.000162397e-05
1.00047473e-05
1.001435644e-05
1.004233054e-05
1.011828566e-05
1.030707459e-05
1.072683991e-05
1.154166692e-05
1.000024282e-05
1.000024344e-05
1.000024482e-05
1.000025075e-05
1.000026992e-05
1.000033513e-05
1.000055447e-05
1.000126096e-05
1.000344619e-05
1.000990913e-05
1.002797641e-05
1.007515769e-05
1.01885687e-05
1.043543644e-05
1.000024321e-05
1.000024329e-05
1.000024565e-05
1.000025078e-05
1.000027641e-05
1.000036063e-05
1.000065307e-05
1.000162471e-05
1.000474859e-05
1.001435764e-05
1.004233369e-05
1.011829441e-05
1.030709624e-05
1.072689529e-05
1.000024376e-05
1.000024413e-05
1.000024479e-05
1.000025409e-05
1.000028762e-05
1.000040416e-05
1.000082428e-05
1.000227372e-05
1.000713997e-05
1.002280604e-05
1.007059187e-05
1.02064607e-05
1.055839761e-05
1.136355557e-05
1.000024359e-05
1.000024386e-05
1.000024648e-05
1.000025788e-05
1.00002985e-05
1.000044728e-05
1.000099873e-05
1.00029672e-05
1.000980445e-05
1.0032655e-05
1.010529573e-05
1.032100193e-05
1.090396601e-05
1.228317862e-05
1.000024237e-05
1.000024443e-05
1.000024756e-05
1.000025759e-05
1.00003019e-05
1.000046687e-05
1.000107791e-05
1.000329279e-05
1.001110792e-05
1.003774512e-05
1.012444007e-05
1.038920902e-05
1.112779203e-05
1.292918676e-05
1.000024319e-05
1.000024442e-05
1.000024694e-05
1.00002573e-05
1.000029757e-05
1.000044774e-05
1.000099841e-05
1.000296793e-05
1.000980363e-05
1.003265429e-05
1.010529294e-05
1.032099632e-05
1.090394977e-05
1.22831335e-05
1.000024357e-05
1.000024479e-05
1.000024542e-05
1.000025466e-05
1.000028612e-05
1.000040283e-05
1.000082213e-05
1.000227247e-05
1.000714006e-05
1.002280428e-05
1.007058929e-05
1.020645516e-05
1.055837975e-05
1.136351879e-05
1.000024228e-05
1.000024327e-05
1.000024406e-05
1.000025043e-05
1.000027448e-05
1.000035964e-05
1.000065177e-05
1.000162284e-05
1.000474578e-05
1.001435528e-05
1.004233211e-05
1.011829063e-05
1.030708683e-05
1.072688346e-05
1.000024174e-05
1.000024279e-05
1.00002445e-05
1.000024983e-05
1.000026854e-05
1.000033404e-05
1.000055306e-05
1.000125875e-05
1.000344543e-05
1.000990825e-05
1.002797461e-05
1.007515494e-05
1.018856343e-05
1.043543558e-05
)
;

boundaryField
{
    top
    {
        type            zeroGradient;
    }
    bottom
    {
        type            zeroGradient;
    }
    side-walls
    {
        type            zeroGradient;
    }
    inlet
    {
        type            zeroGradient;
    }
    outlet
    {
        type            zeroGradient;
    }
    procBoundary0to1
    {
        type            processor;
        value           nonuniform List<scalar> 
97
(
1.173841714e-05
1.15416693e-05
1.290257928e-05
1.544561478e-05
1.911907356e-05
2.169987053e-05
1.911897339e-05
1.544545375e-05
1.290243222e-05
1.173831281e-05
1.15416693e-05
1.15416693e-05
1.548408841e-05
1.656373154e-05
2.189638208e-05
3.311478734e-05
4.35159572e-05
3.311437605e-05
2.189587308e-05
1.548376057e-05
1.290244287e-05
1.292948594e-05
1.656373154e-05
1.656373154e-05
4.053737872e-05
5.371544829e-05
8.13248678e-05
0.0001338209699
8.132287017e-05
4.053580185e-05
2.189587612e-05
1.544546851e-05
1.498392436e-05
2.317548419e-05
5.371544829e-05
5.371544829e-05
0.0002191294775
0.0004406320485
0.0004849346147
0.0002191222882
8.13230319e-05
3.311439136e-05
1.911900487e-05
1.650001273e-05
2.995684869e-05
9.44958685e-05
0.0004406320485
0.0004406320485
0.001616465279
0.0004406297428
0.0004849347595
0.0001567042589
0.0001338213548
4.35160852e-05
2.169994727e-05
1.498388415e-05
2.317509605e-05
5.371232702e-05
0.0001567022236
0.0004406297428
0.0001567042589
0.0001567042589
8.132493342e-05
2.752805092e-05
3.311511048e-05
1.911922063e-05
1.292939065e-05
1.656314796e-05
2.752696361e-05
5.37124088e-05
9.449573214e-05
5.371214774e-05
2.752805092e-05
2.752805092e-05
2.1896379e-05
1.295832102e-05
1.544570907e-05
1.154152836e-05
1.29580907e-05
1.65631707e-05
2.31751503e-05
2.995680607e-05
2.317500495e-05
1.656323435e-05
1.295832102e-05
1.295832102e-05
1.290258413e-05
1.09146513e-05
1.09145822e-05
1.154154122e-05
1.292941475e-05
1.498390639e-05
1.649999819e-05
1.498383031e-05
1.292937904e-05
1.154156403e-05
1.09146513e-05
)
;
    }
}


// ************************************************************************* //
