/*--------------------------------*- C++ -*----------------------------------*\
| =========                 |                                                 |
| \\      /  F ield         | OpenFOAM: The Open Source CFD Toolbox           |
|  \\    /   O peration     | Version:  4.x                                   |
|   \\  /    A nd           | Web:      www.OpenFOAM.org                      |
|    \\/     M anipulation  |                                                 |
\*---------------------------------------------------------------------------*/
FoamFile
{
    version     2.0;
    format      ascii;
    class       volScalarField;
    location    "3000";
    object      molarConc;
}
// * * * * * * * * * * * * * * * * * * * * * * * * * * * * * * * * * * * * * //

dimensions      [0 -3 0 0 1 0 0];

internalField   nonuniform List<scalar> 
1175
(
9.96326824
9.963268673
9.963267048
9.963268135
9.963268002
9.963267758
9.963268901
9.963269263
9.963269047
9.963269627
9.96326953
9.963269908
9.963269163
9.963268257
9.963266012
9.963292795
9.963293687
9.963292901
9.96329458
9.963294257
9.963293077
9.963293278
9.96329273
9.963292939
9.963292399
9.963291786
9.963291348
9.963291028
9.963289035
9.963285103
9.963285135
9.963285101
9.963284989
9.963285171
9.963286071
9.963286033
9.963286694
9.96328695
9.963286257
9.963285172
9.963286336
9.963286533
9.963285321
9.963282801
9.963277524
9.963271383
9.963272233
9.963270145
9.963269857
9.963269627
9.963270502
9.963270608
9.963270238
9.963269131
9.96326815
9.963269129
9.963268406
9.963265866
9.963260087
9.963251733
9.963272214
9.963271145
9.963272136
9.963273129
9.963272669
9.963273228
9.963272528
9.963273582
9.963273441
9.963273022
9.96327267
9.963270582
9.963268231
9.963262475
9.963249303
9.963265773
9.963265654
9.963265724
9.963265974
9.963266624
9.963265859
9.963267193
9.963266282
9.963266839
9.96326744
9.963265817
9.963265243
9.963263244
9.963257948
9.963248587
9.963289897
9.963291339
9.963291381
9.963290987
9.963290945
9.963291395
9.963292378
9.963293778
9.963292491
9.963293514
9.963292643
9.963292881
9.963291599
9.96328806
9.963281586
9.963287928
9.963286694
9.963285822
9.963286991
9.963286243
9.963284097
9.963285074
9.963284667
9.963284923
9.963284323
9.963283883
9.96328377
9.963282596
9.963280263
9.963277054
9.963255972
9.963256097
9.963255948
9.963257073
9.963257269
9.963257646
9.963259403
9.963258818
9.963258518
9.963257567
9.963257947
9.963258691
9.963258235
9.963257759
9.963255862
9.963274779
9.963275923
9.963275765
9.96327514
9.963273255
9.963271989
9.963271191
9.963273166
9.963272176
9.963272381
9.963272165
9.96327108
9.963270218
9.963268508
9.963270709
9.963271324
9.963271927
9.963271186
9.963270583
9.963272365
9.963274557
9.963273416
9.963272394
9.96327362
9.963272486
9.963271353
9.963269827
9.963265655
9.963260084
9.963273056
9.963273571
9.963272341
9.963271697
9.963271839
9.963271678
9.963271577
9.963271537
9.963271091
9.963271914
9.963270992
9.963269901
9.963267528
9.963259949
9.963246026
9.963289062
9.963288879
9.963289556
9.963289903
9.963290142
9.963291484
9.963291516
9.963292712
9.963295112
9.963294221
9.963293672
9.963292653
9.96328714
9.963273194
9.963245873
9.963253076
9.963253365
9.963252877
9.963253137
9.963251519
9.963252245
9.963252438
9.963251318
9.963251388
9.963251904
9.963251106
9.963249795
9.963242538
9.963222801
9.963179519
9.963260989
9.963261718
9.963263026
9.963261079
9.963261356
9.963262828
9.963262979
9.963262089
9.963262436
9.963262621
9.963261949
9.963261076
9.963256431
9.963243256
9.963215764
9.963282501
9.963282986
9.96328397
9.963284664
9.963285978
9.963285368
9.963286027
9.963286577
9.9632857
9.963285995
9.963284975
9.96328326
9.96327963
9.963272651
9.963258366
9.96326882
9.963268573
9.963267699
9.963267945
9.963268002
9.963268357
9.963268927
9.963271957
9.963272653
9.963271902
9.96327149
9.963271761
9.963271115
9.96326752
9.963261445
9.963273824
9.96327352
9.963273315
9.963273206
9.963273611
9.963274004
9.963273349
9.963272308
9.96327261
9.963272287
9.963272088
9.963271487
9.963271007
9.963270231
9.963268644
9.963281242
9.963280797
9.963281287
9.963281808
9.963281785
9.963282228
9.963282239
9.963281475
9.963281135
9.963281135
9.963280778
9.963279536
9.963278205
9.963275891
9.963266642
9.963265692
9.963265335
9.963265841
9.963266648
9.963265287
9.963265293
9.963265099
9.963265336
9.963263911
9.963264169
9.963263346
9.963260268
9.963252703
9.963263478
9.963264393
9.963264405
9.96326441
9.963263591
9.963263487
9.963264846
9.963265552
9.963265577
9.963265475
9.963264261
9.963262088
9.963256077
9.963237099
9.963200468
9.963277905
9.963278094
9.963277961
9.963279681
9.963279714
9.963279327
9.963278563
9.963276731
9.963276642
9.963275767
9.963273975
9.96327054
9.96325371
9.963209976
9.963113067
9.963264157
9.963264752
9.963264006
9.963266302
9.963266302
9.963265778
9.963265495
9.963265286
9.963264797
9.963264633
9.963263648
9.963256564
9.963231902
9.96314939
9.962949969
9.963281233
9.963279375
9.963280645
9.963280473
9.963280242
9.963280947
9.963281946
9.963280993
9.963279944
9.963278937
9.96327728
9.963272542
9.963257427
9.963212284
9.963117113
9.963317444
9.963319035
9.963319431
9.96331908
9.963320464
9.963320379
9.963319219
9.963317654
9.963318989
9.963319382
9.963318864
9.963316095
9.963308331
9.963290049
9.963252394
9.963283931
9.963284525
9.963284067
9.963284952
9.963284683
9.963285259
9.96328416
9.963284087
9.963284
9.963281128
9.963280593
9.963279039
9.963277248
9.963270166
9.963257454
9.963299247
9.963299405
9.963300585
9.963299365
9.963299668
9.96329846
9.96329916
9.963298979
9.963298907
9.963299178
9.963298554
9.963297819
9.963295725
9.963293466
9.96328778
9.963296696
9.96329659
9.963295406
9.963294704
9.963296572
9.963296028
9.96329684
9.963298064
9.963298047
9.963297491
9.963297521
9.963296501
9.963294717
9.963288452
9.963248501
9.963248773
9.96324903
9.963249961
9.963249458
9.963248082
9.963249416
9.963248223
9.963249431
9.963249441
9.963248141
9.963246606
9.963240932
9.963228336
9.963268407
9.963269143
9.96326953
9.963268224
9.963267536
9.963268246
9.963268615
9.963268321
9.963267259
9.96326666
9.96326501
9.963260866
9.963247556
9.963202245
9.963252293
9.963253908
9.963253993
9.963252847
9.963252955
9.963253353
9.963252667
9.963252056
9.963252211
9.963252288
9.963248839
9.963237368
9.96319718
9.963058422
9.962709109
9.963294219
9.963296726
9.963296102
9.963295773
9.963295653
9.963294691
9.96329513
9.963295429
9.963296336
9.963294146
9.96328968
9.963271328
9.963192943
9.962852698
9.961796091
9.963303298
9.963302454
9.963301402
9.963301222
9.963301509
9.963300571
9.963300513
9.963301231
9.963301406
9.963300018
9.963298217
9.963287837
9.963247044
9.963108664
9.962756885
9.963254486
9.963253705
9.963252746
9.963253159
9.963253636
9.963254707
9.963254386
9.96325462
9.963253491
9.963253452
9.963253743
9.963249344
9.963233355
9.963187672
9.963092209
9.963317917
9.963318228
9.963318683
9.963319089
9.963317928
9.963317709
9.963317763
9.963318237
9.963317252
9.963316507
9.963317127
9.96331557
9.963310167
9.963297333
9.963270438
9.963262604
9.963261947
9.963260248
9.96326113
9.963261074
9.963260926
9.963260557
9.963261685
9.963263458
9.963263297
9.963263391
9.963262939
9.96326
9.963255896
9.96324578
9.963269624
9.963270663
9.963270879
9.963271754
9.96327245
9.963273354
9.963274633
9.963273521
9.963272573
9.963273201
9.963272677
9.96327115
9.963269827
9.963262224
9.9632782
9.963277647
9.963278975
9.963278607
9.963278902
9.963278326
9.96327826
9.963277294
9.963277801
9.963275984
9.963275356
9.963271533
9.963265305
9.963244616
9.96328625
9.96328554
9.963285767
9.963285116
9.963284057
9.963283557
9.96328429
9.96328531
9.963284824
9.963284379
9.963282363
9.963275413
9.96324966
9.963167825
9.963256332
9.963256705
9.963257673
9.963257526
9.963258281
9.96325856
9.963257944
9.963258213
9.96325797
9.963258219
9.963254346
9.963237699
9.963159462
9.962820418
9.963267623
9.963266393
9.963267879
9.963268214
9.963266331
9.96326556
9.963266344
9.963265525
9.963265875
9.963264436
9.963258392
9.963226133
9.963031145
9.961782409
10.03439722
9.963285222
9.963285482
9.963285817
9.963286575
9.96328664
9.963287798
9.963288119
9.963287244
9.963285879
9.963284907
9.963278416
9.963261826
9.963182057
9.962842841
9.961788631
9.963288568
9.963287038
9.963287806
9.963287487
9.963288626
9.963287884
9.963287104
9.963287234
9.963287395
9.963286764
9.963285654
9.96327896
9.963255709
9.963175264
9.962976033
9.96328767
9.963287473
9.963289223
9.963290795
9.963290919
9.963290454
9.963289264
9.963290285
9.963290027
9.963290667
9.963290171
9.96328716
9.963280919
9.963260474
9.963217356
9.963288125
9.963287425
9.96328943
9.963289564
9.963289248
9.96328931
9.963288746
9.963288121
9.963288508
9.963288843
9.963289054
9.963288284
9.963287215
9.963280278
9.96326651
9.963254443
9.963255446
9.963255613
9.963255332
9.963254192
9.963254273
9.963253505
9.963253824
9.963253316
9.963252708
9.96325433
9.963253073
9.963251591
9.963245893
9.963304822
9.96330476
9.963305741
9.963305521
9.963304545
9.963304801
9.963305204
9.963305429
9.963305729
9.963305713
9.963304973
9.96330295
9.963296417
9.96328316
9.963290996
9.963291523
9.963291935
9.963290927
9.963291285
9.96329206
9.963291236
9.963291235
9.963291914
9.963291817
9.96329115
9.963286402
9.963269157
9.963225046
9.963259905
9.963259169
9.963258489
9.963258144
9.963258511
9.963258526
9.963259529
9.963259138
9.963258909
9.963256724
9.963255045
9.963244019
9.963203603
9.96306201
9.96327564
9.963276185
9.963277198
9.963277529
9.963278908
9.963278285
9.963278594
9.96327908
9.963278234
9.963277339
9.963272706
9.963255108
9.963175783
9.962836555
9.963238397
9.963238059
9.963238569
9.963238195
9.963237845
9.963238874
9.963237528
9.963237576
9.963238861
9.963240297
9.963238076
9.963226399
9.963185636
9.963046983
9.963259536
9.963260601
9.963260589
9.963260528
9.963259859
9.963259624
9.963261074
9.963259481
9.96325845
9.963258104
9.963255551
9.963252255
9.963236217
9.963192023
9.963095425
9.963265055
9.963265212
9.963264866
9.963265035
9.963265716
9.963266727
9.96326744
9.96326818
9.963268284
9.963269358
9.963269831
9.963268416
9.963263411
9.96325172
9.963223043
9.963296644
9.963295924
9.963296033
9.963295589
9.963296297
9.963294991
9.963294598
9.963293384
9.963293263
9.96329264
9.963293617
9.963294317
9.963289625
9.963284957
9.963275006
9.963300777
9.963301136
9.963300258
9.963301116
9.96329987
9.963299794
9.963299792
9.963300309
9.963300624
9.963300976
9.963300585
9.963300562
9.963298797
9.963296629
9.963280017
9.963280615
9.9632794
9.96328005
9.963280948
9.963281705
9.96328103
9.963279754
9.963279046
9.963277644
9.963276952
9.963276004
9.963272185
9.963265841
9.963312511
9.963313503
9.963312939
9.96331199
9.963311983
9.963312563
9.963311153
9.963311886
9.963312822
9.963311641
9.963311038
9.96330684
9.963299296
9.963279825
9.96326632
9.963267176
9.963268493
9.963267849
9.963267555
9.963267407
9.963267642
9.963266702
9.963267188
9.963265916
9.96326442
9.96325945
9.963242933
9.963198564
9.963260062
9.963259506
9.963259832
9.963260342
9.963259595
9.963258791
9.96325891
9.963257716
9.963258189
9.963257094
9.963254305
9.963248402
9.963222311
9.963140433
9.963301314
9.963301156
9.963301463
9.963301471
9.963300708
9.963300547
9.963302468
9.963304503
9.96330516
9.963304985
9.96330336
9.963299068
9.963283462
9.963238435
9.963283304
9.963283537
9.963282999
9.963284222
9.963285635
9.96328452
9.963283048
9.963283237
9.963281534
9.963278767
9.963277164
9.963275487
9.963269456
9.963252669
9.963270618
9.963271339
9.963271748
9.963272391
9.963272555
9.963271716
9.963272162
9.963272493
9.963272413
9.963271936
9.963270617
9.963269603
9.963265816
9.963259753
9.963246173
9.963274372
9.963276199
9.963275221
9.963275343
9.963275425
9.963274519
9.963274668
9.963274831
9.963275762
9.963275392
9.963277048
9.963275715
9.963275581
9.963273362
9.963268392
9.963300831
9.963300771
9.963301151
9.963301937
9.963302653
9.963302632
9.963301674
9.963301923
9.963302116
9.963302829
9.963301817
9.963300278
9.963298852
9.963296646
9.963290754
9.963291539
9.963291039
9.963290924
9.963291666
9.963292363
9.963292645
9.963291232
9.96329139
9.963292748
9.963292789
9.963294072
9.96329355
9.963290681
9.963244149
9.963243838
9.963243413
9.963243922
9.963243967
9.963244368
9.963243976
9.963245411
9.963245038
9.963246102
9.963246769
9.9632467
9.963243811
9.963236823
9.963260292
9.96325956
9.963259714
9.963258335
9.963258794
9.963256548
9.963256762
9.96325753
9.963256666
9.963256134
9.963255141
9.963254075
9.963248673
9.963235765
9.96328442
9.963285484
9.963286178
9.963286124
9.963287445
9.963286682
9.963286627
9.96328662
9.96328543
9.963286902
9.9632862
9.963283318
9.963275984
9.963256242
9.963255437
9.963255738
9.963257718
9.963258142
9.963257949
9.963258796
9.963258257
9.963258656
9.96325851
9.963258348
9.963258839
9.96325639
9.963250872
9.963238139
9.963308698
9.963309911
9.963309321
9.963309188
9.963308846
9.963309916
9.963310957
9.963311869
9.963311326
9.963312044
9.963311765
9.963310615
9.963308409
9.963301346
9.963288171
9.963287623
9.963287242
9.963287252
9.963288232
9.963287712
9.963287454
9.963286173
9.963284606
9.963283125
9.963283744
9.963284053
9.963283365
9.963280224
9.963277448
9.963277252
9.963278373
9.96327832
9.963278484
9.963278353
9.96327918
9.963279872
9.963279688
9.963279949
9.9632802
9.963279192
9.963279046
9.963277338
9.963274352
9.963294986
9.963295347
9.963296368
9.963295574
9.963295656
9.963295509
9.963295162
9.96329479
9.96329469
9.963293814
9.963294759
9.963295585
9.963294021
9.963292055
9.963266274
9.963266655
9.963266024
9.963265546
9.963266843
9.963266443
9.963268041
9.963267829
9.963267282
9.963266786
9.963266102
9.963265919
9.963265951
9.963265275
9.963267427
9.963268483
9.963267442
9.963267876
9.963267578
9.963266787
9.963267613
9.963265891
9.963265825
9.963265546
9.963265874
9.963264508
9.963263431
9.96326007
9.963249451
9.963249018
9.963248675
9.963249838
9.963250638
9.963249165
9.963250325
9.963251669
9.96325271
9.963252572
9.963252432
9.963251235
9.963247796
9.963241295
9.963293049
9.963293872
9.963293897
9.963293053
9.96329229
9.963292511
9.963291289
9.963291998
9.963290761
9.963290374
9.963288884
9.963287995
9.963285484
9.963278979
9.96329655
9.963297065
9.9632975
9.963297284
9.963297933
9.963297436
9.963297152
9.963296547
9.963296303
9.963296176
9.963296879
9.963295246
9.963292019
9.963287078
9.963316116
9.963315056
9.963314328
9.963314639
9.963313892
9.963313128
9.963312225
9.963312687
9.963312705
9.963311682
9.963311739
9.963310589
9.96330955
9.963306196
9.963291718
9.96329223
9.963291833
9.963292241
9.963293365
9.963292951
9.963293334
9.963294058
9.96329366
9.963292508
9.963294778
9.963294924
9.963293672
9.963292579
9.963279506
9.963279694
9.963279939
9.9632799
9.963280028
9.963278897
9.963278373
9.963278068
9.963278449
9.963277862
9.963276706
9.963277142
9.963276226
9.963275763
)
;

boundaryField
{
    top
    {
        type            calculated;
        value           nonuniform List<scalar> 
134
(
9.963255972
9.963273824
9.963299247
9.963262604
9.963288125
9.963296644
9.963274372
9.963277448
9.963279506
9.963256097
9.96327352
9.963299405
9.963261947
9.963287425
9.963295924
9.963276199
9.963277252
9.963279694
9.963255948
9.963273315
9.963300585
9.963260248
9.96328943
9.963296033
9.963275221
9.963278373
9.963279939
9.963257073
9.963273206
9.963299365
9.96326113
9.963289564
9.963295589
9.963275343
9.96327832
9.9632799
9.963257269
9.963273611
9.963299668
9.963261074
9.963289248
9.963296297
9.963275425
9.963278484
9.963280028
9.963257646
9.963274004
9.96329846
9.963260926
9.96328931
9.963294991
9.963274519
9.963278353
9.963278897
9.963259403
9.963273349
9.96329916
9.963260557
9.963288746
9.963294598
9.963274668
9.96327918
9.963278373
9.963258818
9.963272308
9.963298979
9.963261685
9.963288121
9.963293384
9.963274831
9.963279872
9.963278068
9.963258518
9.96327261
9.963298907
9.963263458
9.963288508
9.963293263
9.963275762
9.963279688
9.963278449
9.963257567
9.963272287
9.963299178
9.963263297
9.963288843
9.96329264
9.963275392
9.963279949
9.963277862
9.963257947
9.963272088
9.963298554
9.963263391
9.963289054
9.963293617
9.963277048
9.9632802
9.963276706
9.963258691
9.963271487
9.963297819
9.963262939
9.963288284
9.963294317
9.963275715
9.963279192
9.963277142
9.963258235
9.963271007
9.963295725
9.96326
9.963287215
9.963289625
9.963275581
9.963279046
9.963276226
9.963257759
9.963270231
9.963293466
9.963255896
9.963280278
9.963284957
9.963273362
9.963277338
9.963275763
9.963255862
9.963268644
9.96328778
9.96324578
9.96326651
9.963275006
9.963268392
9.963274352
)
;
    }
    bottom
    {
        type            calculated;
        value           nonuniform List<scalar> 
127
(
9.96326824
9.963274779
9.963281242
9.963296696
9.963269624
9.963254443
9.963300777
9.963300831
9.963294986
9.963268673
9.963275923
9.963280797
9.96329659
9.963270663
9.963255446
9.963301136
9.963300771
9.963295347
9.963267048
9.963275765
9.963281287
9.963295406
9.963270879
9.963255613
9.963300258
9.963301151
9.963296368
9.963268135
9.96327514
9.963281808
9.963294704
9.963271754
9.963255332
9.963301116
9.963301937
9.963295574
9.963268002
9.963273255
9.963281785
9.963296572
9.96327245
9.963254192
9.96329987
9.963302653
9.963295656
9.963267758
9.963271989
9.963282228
9.963296028
9.963273354
9.963254273
9.963299794
9.963302632
9.963295509
9.963268901
9.963271191
9.963282239
9.96329684
9.963274633
9.963253505
9.963299792
9.963301674
9.963295162
9.963269263
9.963273166
9.963281475
9.963298064
9.963273521
9.963253824
9.963300309
9.963301923
9.96329479
9.963269047
9.963272176
9.963281135
9.963298047
9.963272573
9.963253316
9.963300624
9.963302116
9.96329469
9.963269627
9.963272381
9.963281135
9.963297491
9.963273201
9.963252708
9.963300976
9.963302829
9.963293814
9.96326953
9.963272165
9.963280778
9.963297521
9.963272677
9.96325433
9.963300585
9.963301817
9.963294759
9.963269908
9.96327108
9.963279536
9.963296501
9.96327115
9.963253073
9.963300562
9.963300278
9.963295585
9.963269163
9.963270218
9.963278205
9.963294717
9.963269827
9.963251591
9.963298797
9.963298852
9.963294021
9.963268257
9.963268508
9.963275891
9.963288452
9.963262224
9.963245893
9.963296629
9.963296646
9.963292055
9.963266012
)
;
    }
    side-walls
    {
        type            calculated;
        value           nonuniform List<scalar> 
261
(
9.96326824
9.963292795
9.963285135
9.963271383
9.963272214
9.963265773
9.963289897
9.963287928
9.963255972
9.963268673
9.963293687
9.963285101
9.963272233
9.963271145
9.963265654
9.963291339
9.963286694
9.963256097
9.963267048
9.963292901
9.963284989
9.963270145
9.963272136
9.963265724
9.963291381
9.963285822
9.963255948
9.963268135
9.96329458
9.963285171
9.963269857
9.963273129
9.963265974
9.963290987
9.963286991
9.963257073
9.963268002
9.963294257
9.963286071
9.963269627
9.963272669
9.963266624
9.963290945
9.963286243
9.963257269
9.963267758
9.963293077
9.963286033
9.963270502
9.963273228
9.963265859
9.963291395
9.963284097
9.963257646
9.963268901
9.963293278
9.963286694
9.963270608
9.963272528
9.963267193
9.963292378
9.963285074
9.963259403
9.963269263
9.96329273
9.96328695
9.963270238
9.963273582
9.963266282
9.963293778
9.963284667
9.963258818
9.963269047
9.963292939
9.963286257
9.963269131
9.963273441
9.963266839
9.963292491
9.963284923
9.963258518
9.963269627
9.963292399
9.963285172
9.96326815
9.963273022
9.96326744
9.963293514
9.963284323
9.963257567
9.96326953
9.963291786
9.963286336
9.963269129
9.96327267
9.963265817
9.963292643
9.963283883
9.963257947
9.963269908
9.963291348
9.963286533
9.963268406
9.963270582
9.963265243
9.963292881
9.96328377
9.963258691
9.963269163
9.963291028
9.963285321
9.963265866
9.963268231
9.963263244
9.963291599
9.963282596
9.963258235
9.963268257
9.963289035
9.963282801
9.963260087
9.963262475
9.963257948
9.96328806
9.963280263
9.963257759
9.963266012
9.963285103
9.963277524
9.963251733
9.963249303
9.963248587
9.963281586
9.963277054
9.963255862
9.963294986
9.963266274
9.963267427
9.963249451
9.963293049
9.96329655
9.963316116
9.963291718
9.963279506
9.963295347
9.963266655
9.963268483
9.963249018
9.963293872
9.963297065
9.963315056
9.96329223
9.963279694
9.963296368
9.963266024
9.963267442
9.963248675
9.963293897
9.9632975
9.963314328
9.963291833
9.963279939
9.963295574
9.963265546
9.963267876
9.963249838
9.963293053
9.963297284
9.963314639
9.963292241
9.9632799
9.963295656
9.963266843
9.963267578
9.963250638
9.96329229
9.963297933
9.963313892
9.963293365
9.963280028
9.963295509
9.963266443
9.963266787
9.963249165
9.963292511
9.963297436
9.963313128
9.963292951
9.963278897
9.963295162
9.963268041
9.963267613
9.963250325
9.963291289
9.963297152
9.963312225
9.963293334
9.963278373
9.96329479
9.963267829
9.963265891
9.963251669
9.963291998
9.963296547
9.963312687
9.963294058
9.963278068
9.96329469
9.963267282
9.963265825
9.96325271
9.963290761
9.963296303
9.963312705
9.96329366
9.963278449
9.963293814
9.963266786
9.963265546
9.963252572
9.963290374
9.963296176
9.963311682
9.963292508
9.963277862
9.963294759
9.963266102
9.963265874
9.963252432
9.963288884
9.963296879
9.963311739
9.963294778
9.963276706
9.963295585
9.963265919
9.963264508
9.963251235
9.963287995
9.963295246
9.963310589
9.963294924
9.963277142
9.963294021
9.963265951
9.963263431
9.963247796
9.963285484
9.963292019
9.96330955
9.963293672
9.963276226
9.963292055
9.963265275
9.96326007
9.963241295
9.963278979
9.963287078
9.963306196
9.963292579
9.963275763
)
;
    }
    inlet
    {
        type            calculated;
        value           nonuniform List<scalar> 
81
(
9.96326824
9.963292795
9.963285135
9.963271383
9.963272214
9.963265773
9.963289897
9.963287928
9.963255972
9.963274779
9.963270709
9.963273056
9.963289062
9.963253076
9.963260989
9.963282501
9.96326882
9.963273824
9.963281242
9.963266642
9.963263478
9.963277905
9.963264157
9.963281233
9.963317444
9.963283931
9.963299247
9.963296696
9.963248501
9.963268407
9.963252293
9.963294219
9.963303298
9.963254486
9.963317917
9.963262604
9.963269624
9.9632782
9.96328625
9.963256332
9.963267623
9.963285222
9.963288568
9.96328767
9.963288125
9.963254443
9.963304822
9.963290996
9.963259905
9.96327564
9.963238397
9.963259536
9.963265055
9.963296644
9.963300777
9.963280017
9.963312511
9.96326632
9.963260062
9.963301314
9.963283304
9.963270618
9.963274372
9.963300831
9.963290754
9.963244149
9.963260292
9.96328442
9.963255437
9.963308698
9.963288171
9.963277448
9.963294986
9.963266274
9.963267427
9.963249451
9.963293049
9.96329655
9.963316116
9.963291718
9.963279506
)
;
    }
    outlet
    {
        type            calculated;
        value           nonuniform 0();
    }
    procBoundary0to1
    {
        type            processor;
        value           nonuniform List<scalar> 
97
(
9.96326385
9.963265333
9.963280558
9.963267914
9.963235671
9.963230301
9.963233244
9.963270274
9.963271268
9.963252729
9.963265333
9.963265333
9.96324976
9.963239603
9.963227793
9.963208567
9.963130264
9.96317803
9.963238168
9.96325349
9.963260625
9.963270335
9.963239603
9.963239603
9.963151766
9.963107463
9.963012053
9.962804493
9.963015329
9.96320298
9.963238742
9.963276952
9.963278637
9.963200053
9.963107463
9.963107463
9.962475747
9.96176337
9.9616323
9.962524371
9.962992179
9.963233212
9.963231405
9.96325099
9.963200802
9.962969354
9.96176337
9.96176337
10.03860272
9.961780892
9.961624386
9.962696724
9.962830342
9.9631673
9.963245955
9.963236944
9.96325592
9.963128381
9.962713561
9.961780892
9.962696724
9.962696724
9.962994598
9.963215816
9.963187876
9.963261275
9.963289466
9.963251953
9.963243902
9.963102446
9.962941649
9.963142951
9.963215816
9.963215816
9.963226911
9.963275081
9.963259557
9.963293414
9.963284894
9.963223724
9.963207349
9.963213103
9.963209555
9.963288468
9.963275081
9.963275081
9.963269206
9.963273779
9.963288835
9.963261972
9.963255628
9.96323149
9.963266565
9.963276726
9.96330006
9.963289541
9.963273779
)
;
    }
}


// ************************************************************************* //
