/*--------------------------------*- C++ -*----------------------------------*\
| =========                 |                                                 |
| \\      /  F ield         | OpenFOAM: The Open Source CFD Toolbox           |
|  \\    /   O peration     | Version:  4.x                                   |
|   \\  /    A nd           | Web:      www.OpenFOAM.org                      |
|    \\/     M anipulation  |                                                 |
\*---------------------------------------------------------------------------*/
FoamFile
{
    version     2.0;
    format      ascii;
    class       volScalarField;
    location    "3000";
    object      N2;
}
// * * * * * * * * * * * * * * * * * * * * * * * * * * * * * * * * * * * * * //

dimensions      [0 0 0 0 0 0 0];

internalField   nonuniform List<scalar> 
1175
(
0.6203632253
0.6203632253
0.6203632253
0.6203632253
0.6203632252
0.6203632252
0.6203632249
0.6203632241
0.6203632215
0.6203632138
0.6203631925
0.6203631367
0.6203630027
0.6203627109
0.6203621445
0.6203632253
0.6203632253
0.6203632253
0.6203632253
0.6203632252
0.6203632251
0.6203632248
0.6203632236
0.62036322
0.6203632086
0.6203631755
0.6203630858
0.6203628626
0.6203623666
0.6203614038
0.6203632253
0.6203632253
0.6203632253
0.6203632253
0.6203632252
0.6203632251
0.6203632246
0.6203632229
0.6203632171
0.6203631986
0.6203631421
0.6203629816
0.6203625658
0.6203616145
0.6203597641
0.6203632253
0.6203632253
0.6203632253
0.6203632253
0.6203632252
0.620363225
0.6203632244
0.6203632221
0.620363214
0.620363187
0.6203631011
0.6203628463
0.6203621576
0.6203605283
0.6203573372
0.6203632253
0.6203632253
0.6203632253
0.6203632253
0.6203632252
0.620363225
0.6203632243
0.6203632217
0.6203632124
0.620363181
0.6203630785
0.6203627657
0.6203618932
0.6203597653
0.6203555464
0.6203632253
0.6203632253
0.6203632253
0.6203632253
0.6203632252
0.620363225
0.6203632244
0.6203632221
0.620363214
0.620363187
0.6203631011
0.6203628463
0.6203621576
0.6203605283
0.6203573373
0.6203632253
0.6203632253
0.6203632253
0.6203632253
0.6203632252
0.6203632251
0.6203632246
0.6203632229
0.6203632171
0.6203631986
0.6203631421
0.6203629816
0.6203625658
0.6203616146
0.6203597642
0.6203632253
0.6203632253
0.6203632253
0.6203632253
0.6203632252
0.6203632251
0.6203632248
0.6203632236
0.6203632199
0.6203632086
0.6203631755
0.6203630858
0.6203628627
0.6203623666
0.6203614039
0.6203632253
0.6203632253
0.6203632253
0.6203632253
0.6203632252
0.6203632252
0.6203632249
0.6203632241
0.6203632215
0.6203632138
0.6203631925
0.6203631367
0.6203630027
0.620362711
0.6203621446
0.6203632253
0.6203632253
0.6203632253
0.6203632253
0.6203632252
0.6203632251
0.6203632248
0.6203632236
0.6203632199
0.6203632086
0.6203631755
0.6203630858
0.6203628626
0.6203623665
0.6203632253
0.6203632253
0.6203632253
0.6203632253
0.6203632252
0.6203632251
0.6203632246
0.620363223
0.6203632174
0.6203631992
0.6203631434
0.6203629833
0.6203625653
0.6203616031
0.62035973
0.6203632253
0.6203632253
0.6203632253
0.6203632253
0.6203632252
0.620363225
0.6203632243
0.6203632217
0.6203632123
0.6203631802
0.6203630751
0.6203627538
0.6203618614
0.6203597072
0.6203554715
0.6203632253
0.6203632253
0.6203632253
0.6203632253
0.6203632252
0.6203632249
0.620363224
0.6203632202
0.6203632063
0.6203631561
0.6203629818
0.6203624134
0.6203607245
0.6203563908
0.6203476619
0.6203632253
0.6203632253
0.6203632253
0.6203632253
0.6203632252
0.6203632249
0.6203632238
0.6203632195
0.6203632032
0.6203631423
0.6203629228
0.6203621718
0.6203598047
0.6203533169
0.6203396531
0.6203632253
0.6203632253
0.6203632253
0.6203632253
0.6203632252
0.6203632249
0.620363224
0.6203632202
0.6203632063
0.6203631561
0.6203629818
0.6203624134
0.6203607246
0.6203563909
0.6203476623
0.6203632253
0.6203632253
0.6203632253
0.6203632253
0.6203632252
0.620363225
0.6203632243
0.6203632217
0.6203632123
0.6203631802
0.6203630751
0.6203627538
0.6203618614
0.6203597074
0.6203554719
0.6203632253
0.6203632253
0.6203632253
0.6203632253
0.6203632252
0.6203632251
0.6203632246
0.620363223
0.6203632173
0.6203631992
0.6203631434
0.6203629833
0.6203625653
0.6203616033
0.6203597304
0.6203632253
0.6203632253
0.6203632253
0.6203632253
0.6203632252
0.6203632251
0.6203632248
0.6203632236
0.62036322
0.6203632086
0.6203631755
0.6203630858
0.6203628627
0.6203623666
0.6203614039
0.6203632253
0.6203632253
0.6203632253
0.6203632253
0.6203632252
0.6203632251
0.6203632246
0.6203632229
0.6203632171
0.6203631986
0.6203631421
0.6203629816
0.6203625657
0.6203616143
0.6203632253
0.6203632253
0.6203632253
0.6203632253
0.6203632252
0.620363225
0.6203632243
0.6203632217
0.6203632123
0.6203631802
0.6203630751
0.6203627537
0.6203618613
0.6203597069
0.6203632253
0.6203632253
0.6203632253
0.6203632253
0.6203632252
0.6203632249
0.6203632238
0.6203632193
0.6203632026
0.6203631405
0.6203629204
0.6203621875
0.6203599691
0.6203541964
0.6203425201
0.6203632253
0.6203632253
0.6203632253
0.6203632252
0.6203632251
0.6203632248
0.6203632231
0.6203632165
0.62036319
0.6203630849
0.620362682
0.6203612145
0.6203563035
0.6203421425
0.6203115954
0.6203632253
0.6203632253
0.6203632253
0.6203632252
0.6203632251
0.6203632247
0.6203632228
0.620363215
0.6203631826
0.6203630488
0.6203625054
0.6203603696
0.6203524702
0.6203266359
0.6202634385
0.6203632253
0.6203632253
0.6203632253
0.6203632252
0.6203632251
0.6203632248
0.6203632231
0.6203632165
0.62036319
0.6203630849
0.620362682
0.6203612146
0.6203563036
0.6203421432
0.6203115975
0.6203632253
0.6203632253
0.6203632253
0.6203632253
0.6203632252
0.6203632249
0.6203632238
0.6203632193
0.6203632026
0.6203631405
0.6203629204
0.6203621875
0.6203599693
0.6203541971
0.6203425222
0.6203632253
0.6203632253
0.6203632253
0.6203632253
0.6203632252
0.620363225
0.6203632243
0.6203632217
0.6203632123
0.6203631802
0.6203630751
0.6203627538
0.6203618614
0.6203597073
0.6203554719
0.6203632253
0.6203632253
0.6203632253
0.6203632253
0.6203632252
0.6203632251
0.6203632246
0.6203632229
0.6203632171
0.6203631986
0.6203631421
0.6203629816
0.6203625658
0.6203616146
0.6203597642
0.6203632253
0.6203632253
0.6203632253
0.6203632253
0.6203632252
0.620363225
0.6203632244
0.6203632221
0.620363214
0.620363187
0.6203631011
0.6203628462
0.6203621574
0.6203605279
0.6203632253
0.6203632253
0.6203632253
0.6203632253
0.6203632252
0.6203632249
0.620363224
0.6203632202
0.6203632063
0.6203631561
0.6203629818
0.6203624133
0.6203607243
0.62035639
0.6203632253
0.6203632253
0.6203632253
0.6203632252
0.6203632251
0.6203632248
0.6203632231
0.6203632165
0.62036319
0.6203630849
0.620362682
0.6203612144
0.6203563031
0.6203421405
0.6203632253
0.6203632253
0.6203632253
0.6203632252
0.6203632251
0.6203632246
0.6203632222
0.6203632119
0.6203631672
0.6203629752
0.6203621597
0.6203588004
0.6203457889
0.6203014342
0.620189965
0.6203632253
0.6203632253
0.6203632253
0.6203632252
0.6203632251
0.6203632245
0.6203632217
0.6203632092
0.6203631526
0.620362894
0.6203616986
0.6203561624
0.6203309235
0.6202229938
0.6198547397
0.6203632253
0.6203632253
0.6203632253
0.6203632252
0.6203632251
0.6203632246
0.6203632222
0.6203632119
0.6203631672
0.6203629752
0.6203621597
0.6203588005
0.6203457896
0.6203014376
0.6201899788
0.6203632253
0.6203632253
0.6203632253
0.6203632252
0.6203632251
0.6203632248
0.6203632231
0.6203632165
0.62036319
0.6203630849
0.620362682
0.6203612145
0.6203563036
0.620342143
0.6203115973
0.6203632253
0.6203632253
0.6203632253
0.6203632253
0.6203632252
0.6203632249
0.620363224
0.6203632202
0.6203632063
0.6203631561
0.6203629818
0.6203624134
0.6203607245
0.6203563909
0.6203476623
0.6203632253
0.6203632253
0.6203632253
0.6203632253
0.6203632252
0.620363225
0.6203632244
0.6203632221
0.620363214
0.620363187
0.6203631011
0.6203628463
0.6203621575
0.6203605283
0.6203573372
0.6203632253
0.6203632253
0.6203632253
0.6203632253
0.6203632252
0.620363225
0.6203632243
0.6203632217
0.6203632124
0.620363181
0.6203630785
0.6203627657
0.620361893
0.6203597648
0.6203632253
0.6203632253
0.6203632253
0.6203632253
0.6203632252
0.6203632249
0.6203632238
0.6203632195
0.6203632032
0.6203631423
0.6203629228
0.6203621717
0.6203598044
0.6203533155
0.6203632253
0.6203632253
0.6203632253
0.6203632252
0.6203632251
0.6203632247
0.6203632228
0.620363215
0.6203631826
0.6203630488
0.6203625054
0.6203603694
0.6203524691
0.6203266311
0.6203632253
0.6203632253
0.6203632253
0.6203632252
0.6203632251
0.6203632245
0.6203632217
0.6203632092
0.6203631526
0.6203628939
0.6203616986
0.620356162
0.6203309212
0.6202229783
0.6203632253
0.6203632253
0.6203632253
0.6203632252
0.6203632251
0.6203632243
0.620363221
0.6203632056
0.6203631318
0.6203627651
0.6203608559
0.6203503177
0.6202880142
0.6198907147
0.617141307
0.6203632253
0.6203632253
0.6203632253
0.6203632252
0.6203632251
0.6203632245
0.6203632217
0.6203632092
0.6203631526
0.6203628939
0.6203616986
0.6203561622
0.6203309229
0.6202229913
0.6198547371
0.6203632253
0.6203632253
0.6203632253
0.6203632252
0.6203632251
0.6203632247
0.6203632228
0.620363215
0.6203631826
0.6203630488
0.6203625054
0.6203603695
0.6203524699
0.6203266352
0.6202634379
0.6203632253
0.6203632253
0.6203632253
0.6203632253
0.6203632252
0.6203632249
0.6203632238
0.6203632195
0.6203632032
0.6203631423
0.6203629228
0.6203621717
0.6203598046
0.6203533167
0.620339653
0.6203632253
0.6203632253
0.6203632253
0.6203632253
0.6203632252
0.620363225
0.6203632243
0.6203632217
0.6203632124
0.620363181
0.6203630785
0.6203627657
0.6203618931
0.6203597652
0.6203555464
0.6203632253
0.6203632253
0.6203632253
0.6203632253
0.6203632252
0.620363225
0.6203632244
0.6203632221
0.620363214
0.620363187
0.6203631011
0.6203628462
0.6203621574
0.6203605279
0.6203632253
0.6203632253
0.6203632253
0.6203632253
0.6203632252
0.6203632249
0.620363224
0.6203632202
0.6203632063
0.6203631561
0.6203629818
0.6203624133
0.6203607243
0.62035639
0.6203632253
0.6203632253
0.6203632253
0.6203632252
0.6203632251
0.6203632248
0.6203632231
0.6203632165
0.62036319
0.6203630849
0.620362682
0.6203612144
0.6203563028
0.6203421403
0.6203632253
0.6203632253
0.6203632253
0.6203632252
0.6203632251
0.6203632246
0.6203632222
0.6203632119
0.6203631672
0.6203629752
0.6203621596
0.6203588001
0.6203457878
0.6203014297
0.6203632253
0.6203632253
0.6203632253
0.6203632252
0.6203632251
0.6203632245
0.6203632217
0.6203632092
0.6203631526
0.6203628939
0.6203616986
0.6203561619
0.6203309207
0.6202229768
0.6203632253
0.6203632253
0.6203632253
0.6203632252
0.6203632251
0.6203632246
0.6203632222
0.6203632119
0.6203631672
0.6203629752
0.6203621596
0.6203588002
0.6203457882
0.6203014309
0.6203632253
0.6203632253
0.6203632253
0.6203632252
0.6203632251
0.6203632248
0.6203632231
0.6203632165
0.62036319
0.6203630849
0.620362682
0.6203612144
0.6203563031
0.6203421415
0.6203115928
0.6203632253
0.6203632253
0.6203632253
0.6203632253
0.6203632252
0.6203632249
0.620363224
0.6203632202
0.6203632063
0.6203631561
0.6203629818
0.6203624134
0.6203607244
0.6203563905
0.6203476615
0.6203632253
0.6203632253
0.6203632253
0.6203632253
0.6203632252
0.620363225
0.6203632244
0.6203632221
0.620363214
0.620363187
0.6203631011
0.6203628463
0.6203621575
0.6203605282
0.6203573371
0.6203632253
0.6203632253
0.6203632253
0.6203632253
0.6203632252
0.6203632251
0.6203632246
0.6203632229
0.6203632171
0.6203631986
0.6203631421
0.6203629816
0.6203625657
0.6203616143
0.6203632253
0.6203632253
0.6203632253
0.6203632253
0.6203632252
0.620363225
0.6203632243
0.6203632217
0.6203632123
0.6203631802
0.6203630751
0.6203627537
0.6203618612
0.6203597069
0.6203632253
0.6203632253
0.6203632253
0.6203632253
0.6203632252
0.6203632249
0.6203632238
0.6203632193
0.6203632026
0.6203631405
0.6203629204
0.6203621874
0.6203599689
0.6203541958
0.6203632253
0.6203632253
0.6203632253
0.6203632252
0.6203632251
0.6203632248
0.6203632231
0.6203632165
0.62036319
0.6203630848
0.620362682
0.6203612143
0.6203563028
0.6203421402
0.6203632253
0.6203632253
0.6203632253
0.6203632252
0.6203632251
0.6203632247
0.6203632228
0.620363215
0.6203631826
0.6203630488
0.6203625054
0.6203603693
0.6203524689
0.6203266309
0.6203632253
0.6203632253
0.6203632253
0.6203632252
0.6203632251
0.6203632248
0.6203632231
0.6203632165
0.62036319
0.6203630848
0.620362682
0.6203612144
0.6203563029
0.6203421405
0.6203632253
0.6203632253
0.6203632253
0.6203632253
0.6203632252
0.6203632249
0.6203632238
0.6203632193
0.6203632026
0.6203631405
0.6203629204
0.6203621874
0.620359969
0.6203541959
0.6203632253
0.6203632253
0.6203632253
0.6203632253
0.6203632252
0.620363225
0.6203632243
0.6203632217
0.6203632123
0.6203631802
0.6203630751
0.6203627537
0.6203618613
0.620359707
0.6203554711
0.6203632253
0.6203632253
0.6203632253
0.6203632253
0.6203632252
0.6203632251
0.6203632246
0.6203632229
0.6203632171
0.6203631986
0.6203631421
0.6203629816
0.6203625657
0.6203616144
0.620359764
0.6203632253
0.6203632253
0.6203632253
0.6203632253
0.6203632252
0.6203632251
0.6203632248
0.6203632236
0.6203632199
0.6203632086
0.6203631755
0.6203630857
0.6203628626
0.6203623665
0.6203632253
0.6203632253
0.6203632253
0.6203632253
0.6203632252
0.6203632251
0.6203632246
0.620363223
0.6203632173
0.6203631992
0.6203631434
0.6203629833
0.6203625652
0.6203616031
0.6203632253
0.6203632253
0.6203632253
0.6203632253
0.6203632252
0.620363225
0.6203632243
0.6203632217
0.6203632123
0.6203631802
0.6203630751
0.6203627537
0.6203618612
0.6203597068
0.6203632253
0.6203632253
0.6203632253
0.6203632253
0.6203632252
0.6203632249
0.620363224
0.6203632202
0.6203632063
0.6203631561
0.6203629818
0.6203624133
0.6203607242
0.6203563899
0.6203632253
0.6203632253
0.6203632253
0.6203632253
0.6203632252
0.6203632249
0.6203632238
0.6203632195
0.6203632032
0.6203631422
0.6203629228
0.6203621717
0.6203598043
0.6203533155
0.6203632253
0.6203632253
0.6203632253
0.6203632253
0.6203632252
0.6203632249
0.620363224
0.6203632202
0.6203632063
0.6203631561
0.6203629818
0.6203624133
0.6203607243
0.62035639
0.6203632253
0.6203632253
0.6203632253
0.6203632253
0.6203632252
0.620363225
0.6203632243
0.6203632217
0.6203632123
0.6203631802
0.6203630751
0.6203627537
0.6203618613
0.6203597069
0.6203632253
0.6203632253
0.6203632253
0.6203632253
0.6203632252
0.6203632251
0.6203632246
0.620363223
0.6203632173
0.6203631992
0.6203631434
0.6203629833
0.6203625653
0.6203616031
0.6203632253
0.6203632253
0.6203632253
0.6203632253
0.6203632252
0.6203632251
0.6203632248
0.6203632236
0.6203632199
0.6203632086
0.6203631755
0.6203630857
0.6203628626
0.6203623666
0.6203614037
0.6203632253
0.6203632253
0.6203632253
0.6203632253
0.6203632252
0.6203632252
0.6203632249
0.6203632241
0.6203632215
0.6203632138
0.6203631925
0.6203631367
0.6203630027
0.6203627109
0.6203632253
0.6203632253
0.6203632253
0.6203632253
0.6203632252
0.6203632251
0.6203632248
0.6203632236
0.6203632199
0.6203632086
0.6203631755
0.6203630857
0.6203628626
0.6203623665
0.6203632253
0.6203632253
0.6203632253
0.6203632253
0.6203632252
0.6203632251
0.6203632246
0.6203632229
0.6203632171
0.6203631986
0.6203631421
0.6203629816
0.6203625657
0.6203616143
0.6203632253
0.6203632253
0.6203632253
0.6203632253
0.6203632252
0.620363225
0.6203632244
0.6203632221
0.620363214
0.620363187
0.6203631011
0.6203628462
0.6203621574
0.6203605279
0.6203632253
0.6203632253
0.6203632253
0.6203632253
0.6203632252
0.620363225
0.6203632243
0.6203632217
0.6203632124
0.620363181
0.6203630785
0.6203627656
0.620361893
0.6203597648
0.6203632253
0.6203632253
0.6203632253
0.6203632253
0.6203632252
0.620363225
0.6203632244
0.6203632221
0.620363214
0.620363187
0.6203631011
0.6203628462
0.6203621574
0.6203605279
0.6203632253
0.6203632253
0.6203632253
0.6203632253
0.6203632252
0.6203632251
0.6203632246
0.6203632229
0.6203632171
0.6203631986
0.6203631421
0.6203629816
0.6203625657
0.6203616144
0.6203632253
0.6203632253
0.6203632253
0.6203632253
0.6203632252
0.6203632251
0.6203632248
0.6203632236
0.62036322
0.6203632086
0.6203631755
0.6203630857
0.6203628626
0.6203623665
0.6203632253
0.6203632253
0.6203632253
0.6203632253
0.6203632252
0.6203632252
0.6203632249
0.6203632241
0.6203632215
0.6203632138
0.6203631925
0.6203631367
0.6203630027
0.6203627109
)
;

boundaryField
{
    top
    {
        type            zeroGradient;
    }
    bottom
    {
        type            zeroGradient;
    }
    side-walls
    {
        type            zeroGradient;
    }
    inlet
    {
        type            zeroGradient;
    }
    outlet
    {
        type            zeroGradient;
    }
    procBoundary0to1
    {
        type            processor;
        value           nonuniform List<scalar> 
97
(
0.6203611708
0.6203614037
0.6203597953
0.6203567906
0.6203524508
0.6203494021
0.6203524509
0.6203567908
0.6203597954
0.6203611709
0.6203614037
0.6203614037
0.6203567454
0.620355471
0.6203491702
0.6203359185
0.6203236334
0.6203359189
0.6203491707
0.6203567457
0.6203597954
0.620359764
0.620355471
0.620355471
0.620327151
0.6203115918
0.6202789765
0.6202169783
0.6202789783
0.6203271525
0.6203491707
0.6203567908
0.6203573369
0.6203476611
0.6203115918
0.6203115918
0.6201162294
0.6198546979
0.6198023394
0.6201162359
0.6202789782
0.6203359189
0.6203524509
0.6203555461
0.6203396518
0.6202634318
0.6198546979
0.6198546979
0.6184662132
0.6198546999
0.6198023394
0.6201899667
0.6202169782
0.6203236334
0.6203494021
0.620357337
0.6203476615
0.6203115944
0.6201899682
0.6198546999
0.6201899667
0.6201899667
0.6202789764
0.6203425202
0.6203359183
0.6203524507
0.6203597641
0.6203554715
0.6203425211
0.6203115944
0.6202634321
0.6203115946
0.6203425202
0.6203425202
0.6203491702
0.6203597301
0.6203567906
0.6203614038
0.6203597302
0.6203554715
0.6203476614
0.6203396519
0.6203476615
0.6203554714
0.6203597301
0.6203597301
0.6203597953
0.6203621445
0.6203621446
0.6203614038
0.620359764
0.6203573369
0.6203555461
0.620357337
0.6203597641
0.6203614038
0.6203621445
)
;
    }
}


// ************************************************************************* //
