/*--------------------------------*- C++ -*----------------------------------*\
| =========                 |                                                 |
| \\      /  F ield         | OpenFOAM: The Open Source CFD Toolbox           |
|  \\    /   O peration     | Version:  4.x                                   |
|   \\  /    A nd           | Web:      www.OpenFOAM.org                      |
|    \\/     M anipulation  |                                                 |
\*---------------------------------------------------------------------------*/
FoamFile
{
    version     2.0;
    format      ascii;
    class       surfaceScalarField;
    location    "3000";
    object      phi;
}
// * * * * * * * * * * * * * * * * * * * * * * * * * * * * * * * * * * * * * //

dimensions      [1 0 -1 0 0 0 0];

internalField   nonuniform List<scalar> 
3175
(
9.165405001e-06
8.376788176e-13
-4.972221601e-13
9.165404929e-06
8.113887729e-13
4.137047685e-13
9.165404739e-06
1.909554619e-12
1.207733449e-12
9.165406437e-06
-5.469338874e-13
5.997950327e-13
9.165406651e-06
-3.793265408e-13
-1.172268635e-12
9.165411107e-06
4.921640543e-13
8.219988673e-13
9.165412266e-06
-3.193594009e-13
-4.30366e-13
9.16541474e-06
-3.302008316e-12
-2.232937849e-12
9.165423084e-06
-5.604839307e-12
-4.411589509e-12
9.165434908e-06
-6.644655882e-12
-6.573054199e-12
9.165457465e-06
-1.127849708e-11
-1.11471975e-11
9.165489027e-06
-1.573334688e-11
-1.491063866e-11
9.165550667e-06
-3.07284022e-11
-3.078298209e-11
9.165611106e-06
-3.144031485e-11
-2.981781956e-11
-7.427143388e-11
9.165427247e-06
1.557545718e-13
-1.050337733e-12
9.165429699e-06
9.494906721e-13
-1.169057684e-12
9.165428309e-06
-2.340242208e-13
-9.472729777e-13
9.165430554e-06
1.173439899e-12
5.903734838e-13
9.165429935e-06
5.113213303e-13
-4.930962215e-13
9.165432787e-06
-9.353592884e-13
-3.793297404e-13
9.165431197e-06
-2.364827634e-12
-1.300430521e-12
9.165435182e-06
-5.848120951e-12
-2.273496987e-12
9.165441283e-06
-7.249575964e-12
-3.401623343e-12
9.165453416e-06
-8.307112213e-12
-4.835190897e-12
9.165469569e-06
-1.830439873e-11
-1.2415564e-11
9.16549718e-06
-2.561752988e-11
-1.751264605e-11
9.165556211e-06
-5.423479118e-11
-3.923986652e-11
9.165616899e-06
-5.588126363e-11
-3.509938528e-11
-1.442763543e-10
-1.140366505e-10
9.165420042e-06
-6.664454613e-14
2.07432927e-13
9.165418895e-06
-1.825673019e-12
-3.897942056e-14
9.165421345e-06
-6.056597709e-13
5.234152622e-13
9.165421454e-06
-1.927984316e-12
-5.750069029e-15
9.165421904e-06
-6.683977846e-13
-9.635189914e-13
9.165423805e-06
-4.141609137e-13
-1.940450618e-12
9.165422167e-06
-6.213095947e-13
-2.834833456e-12
9.165426315e-06
-2.077453914e-12
-2.663261776e-12
9.16542851e-06
-5.490213309e-12
-5.971598691e-12
9.16543418e-06
-8.520787078e-12
-7.796454287e-12
9.165445675e-06
-1.692617594e-11
-1.445141814e-11
9.165468022e-06
-2.249435502e-11
-2.226438631e-11
9.16551971e-06
-5.261819443e-11
-5.582249816e-11
9.16557342e-06
-5.222413359e-11
-5.540686616e-11
-1.718008192e-10
-2.32990497e-10
9.165406852e-06
5.2516299e-13
8.318211384e-13
9.165408088e-06
1.450251281e-12
4.543945825e-13
9.165407997e-06
1.575254938e-12
1.114933159e-12
9.16540608e-06
2.030645291e-12
1.397600875e-14
9.165405354e-06
3.086232509e-14
1.886499689e-13
9.16540816e-06
-1.173481064e-12
-8.748794228e-13
9.165405313e-06
-2.308682456e-12
-1.502722614e-12
9.165406972e-06
-8.695131627e-14
-2.47324153e-12
9.165409693e-06
-1.414397145e-12
-4.466969816e-12
9.165414127e-06
-5.633898718e-12
-6.737814984e-12
9.165422104e-06
-1.015457511e-11
-1.173911809e-11
9.165438148e-06
-1.653582371e-11
-2.563394488e-11
9.165485146e-06
-3.949332978e-11
-5.623483564e-11
9.165541876e-06
-4.914712962e-11
-6.457768164e-11
-1.486658845e-10
-3.573380471e-10
9.165407653e-06
-2.424987726e-13
1.650885148e-12
9.16540971e-06
1.424792176e-12
1.491852158e-12
9.165409179e-06
8.574813959e-13
4.165204859e-14
9.165407436e-06
-1.241130118e-13
7.269312745e-14
9.165408364e-06
1.84541564e-12
-3.894151208e-13
9.165408909e-06
1.429784145e-12
-7.941141927e-13
9.165408356e-06
1.40510551e-12
-8.176642322e-13
9.165407155e-06
1.253204719e-12
-3.585265275e-12
9.16540549e-06
2.554023814e-12
-4.720751465e-12
9.165405539e-06
5.439374687e-12
-8.846852003e-12
9.165401838e-06
9.069466225e-12
-1.673257988e-11
9.165400243e-06
1.500226629e-11
-3.633510241e-11
9.165413443e-06
3.953011418e-11
-9.696295191e-11
9.165442258e-06
4.806287046e-11
-1.250668568e-10
1.481318794e-10
-8.310047969e-10
9.165404144e-06
-1.063529597e-12
1.97614693e-12
9.165402138e-06
-1.454475877e-12
-3.680921864e-13
9.165401501e-06
-1.039583504e-12
-1.009253152e-12
9.165402927e-06
3.959376855e-13
-1.840137326e-13
9.165401719e-06
5.429633365e-13
-4.179597995e-13
9.165402387e-06
2.633033691e-12
-1.17708133e-12
9.165403129e-06
2.095058088e-12
-4.966162649e-13
9.16540576e-06
3.037081476e-12
-2.104190147e-12
9.16540626e-06
5.409934306e-12
-3.616163976e-12
9.165408881e-06
6.650614528e-12
-6.627579827e-12
9.165419999e-06
1.548786678e-11
-1.164028209e-11
9.165437194e-06
2.205508624e-11
-2.428853108e-11
9.165480986e-06
5.042342615e-11
-5.648785711e-11
9.165540107e-06
5.224399915e-11
-6.416635595e-11
1.726506204e-10
-3.579524217e-10
9.165426786e-06
5.887735537e-13
1.485319435e-12
9.165426e-06
4.41098293e-13
1.750129973e-13
9.165426291e-06
1.248533775e-12
1.581300525e-12
9.165425315e-06
2.309231037e-12
6.922119868e-13
9.165428152e-06
1.989873335e-12
2.250808765e-13
9.165426148e-06
2.225709363e-12
-5.979740594e-13
9.165429859e-06
3.646145143e-12
-1.222038348e-12
9.165431853e-06
3.686147638e-12
-3.321899321e-12
9.165433349e-06
5.887681172e-12
-5.711998338e-12
9.165439817e-06
1.012854921e-11
-6.804307767e-12
9.165453281e-06
1.870598656e-11
-1.247416117e-11
9.165471676e-06
2.497755106e-11
-2.192100841e-11
9.165524239e-06
5.39411571e-11
-5.324355108e-11
9.165577339e-06
5.642130836e-11
-5.577279395e-11
1.428960299e-10
-2.332603353e-10
9.165421962e-06
1.569763893e-12
1.051538455e-12
9.165422608e-06
1.469292234e-12
5.254257891e-13
9.165423602e-06
1.401352904e-12
1.758925656e-13
9.165421421e-06
7.029279328e-13
-6.540365396e-13
9.165422816e-06
6.105702714e-13
4.892162953e-13
9.165420777e-06
1.823942092e-12
5.411464489e-14
9.16542247e-06
1.458893243e-12
-3.103819971e-13
9.165426487e-06
2.743834704e-12
-1.683596935e-12
9.165431109e-06
4.528205396e-12
-3.964525416e-12
9.165443667e-06
7.038693511e-12
-5.668223452e-12
9.165460986e-06
1.151595036e-11
-1.267823864e-11
9.165489857e-06
1.593311813e-11
-1.592906918e-11
9.165549609e-06
3.2272657e-11
-3.813740779e-11
9.165608937e-06
2.954674065e-11
-3.637461412e-11
7.40830502e-11
-1.14204985e-10
9.165393919e-06
-1.462602865e-12
9.165393958e-06
-5.32639233e-13
9.165396185e-06
-6.708579659e-13
9.165396349e-06
4.530282957e-13
9.165397788e-06
1.377726986e-13
9.165397366e-06
-2.130439385e-12
9.165400911e-06
-8.07682063e-14
9.165406389e-06
-4.556114991e-13
9.16541159e-06
-4.162303838e-12
9.165426e-06
-4.884378809e-12
9.165446449e-06
-1.138228513e-11
9.165478464e-06
-1.4183563e-11
9.165539825e-06
-3.326477217e-11
9.16560227e-06
-3.046858726e-11
-7.397838104e-11
9.165411867e-06
1.189718803e-13
7.725406242e-13
9.165411167e-06
-8.559731058e-15
-4.313231739e-13
9.165410632e-06
-1.503007963e-13
-4.529840718e-13
9.165411661e-06
9.116062129e-13
9.095754103e-13
9.165412605e-06
6.81958593e-13
8.862248476e-13
9.165411599e-06
-1.614311209e-12
-2.481870568e-12
9.16541459e-06
-1.955114226e-12
-2.409707617e-12
9.165418229e-06
-3.935476233e-12
-2.629130214e-12
9.165421702e-06
-5.539083654e-12
-4.435866114e-12
9.165431964e-06
-6.550077411e-12
-9.438501197e-12
9.165450215e-06
-1.312801083e-11
-1.828541048e-11
9.165478026e-06
-1.872267241e-11
-2.541031599e-11
9.165537257e-06
-4.01109123e-11
-5.504401868e-11
-3.767032456e-11
-5.525925935e-11
9.16540799e-06
1.189597098e-12
8.21820807e-13
9.165408385e-06
1.523206785e-12
6.471779357e-13
9.165407876e-06
3.342484615e-13
4.580017167e-13
9.165408757e-06
2.636434588e-13
-1.048376166e-12
9.16540858e-06
-6.696235651e-13
-1.586850586e-12
9.16541166e-06
-1.957878773e-12
-1.239853435e-12
9.165412717e-06
-2.371113354e-12
-1.689162081e-12
9.165414762e-06
-5.376167874e-12
-2.77793186e-12
9.165419919e-06
-8.195428161e-12
-4.599027628e-12
9.165426968e-06
-1.1198988e-11
-9.818820307e-12
9.165442032e-06
-1.985582651e-11
-1.973703485e-11
9.165465192e-06
-2.973367745e-11
-3.025941101e-11
9.165521098e-06
-6.614061722e-11
-6.565527794e-11
9.165581595e-06
-6.873684441e-11
-6.748408056e-11
-2.337068492e-10
9.165409816e-06
2.856271596e-13
3.14097348e-13
9.165408056e-06
-1.407974419e-12
-3.467387317e-13
9.165408254e-06
-2.024844135e-13
-8.189229118e-13
9.165409532e-06
-2.601507164e-13
-6.501250002e-13
9.165409001e-06
5.803898804e-13
-7.708412689e-13
9.165409578e-06
9.766360702e-13
-6.405215553e-13
9.165409888e-06
2.936533557e-13
-9.043311779e-13
9.165409599e-06
-2.247222759e-12
-2.930217187e-12
9.165412307e-06
-5.151618083e-12
-6.111841084e-12
9.165413499e-06
-8.542031921e-12
-1.09448601e-11
9.165419767e-06
-1.587620497e-11
-2.219494371e-11
9.165432571e-06
-2.721202857e-11
-4.060381094e-11
9.165472268e-06
-6.434064004e-11
-9.37569943e-11
9.165527865e-06
-6.744022693e-11
-1.105308433e-10
-3.196937035e-10
-5.16049202e-10
9.165422864e-06
1.324421797e-12
1.008595332e-12
9.165424318e-06
2.078045487e-12
2.085599908e-12
9.165425068e-06
9.395000507e-13
1.378872255e-12
9.165425319e-06
2.206421064e-12
1.546523249e-12
9.165425701e-06
4.28813182e-13
-8.534148222e-13
9.165425453e-06
-7.622883349e-13
-7.932810648e-13
9.165424845e-06
-1.486749318e-12
-2.388833215e-12
9.165426362e-06
-7.008419805e-13
-3.063868937e-12
9.165429225e-06
-1.482549389e-12
-4.701926514e-12
9.16543015e-06
-5.580818533e-12
-1.198556173e-11
9.165429359e-06
-1.346736828e-11
-1.713284017e-11
9.165446252e-06
-2.223238339e-11
-4.529761482e-11
9.165469493e-06
-5.878453558e-11
-8.442018807e-11
9.165560069e-06
-7.599017785e-11
-1.480256393e-10
-3.034832056e-10
-8.496558627e-10
9.165391009e-06
-4.818029108e-13
4.57042623e-13
9.165390099e-06
1.806724449e-13
7.980915793e-13
9.165391658e-06
2.434986556e-13
1.106606252e-12
9.16538976e-06
-6.759260231e-13
-3.368490234e-13
9.165389975e-06
1.531047271e-12
-6.551158359e-13
9.16538885e-06
1.340730501e-12
-6.672331386e-13
9.165385917e-06
8.720497784e-13
-8.963773992e-13
9.165385456e-06
2.139268646e-12
-3.608487519e-12
9.165381083e-06
3.311906421e-12
-5.733352049e-12
9.16537618e-06
4.814602734e-12
-1.407045157e-11
9.165357649e-06
1.169181921e-11
-2.357716589e-11
9.165342144e-06
2.122735398e-11
-6.285369062e-11
9.165282819e-06
5.697514982e-11
-1.571985613e-10
9.165311868e-06
7.402232918e-11
-3.080805363e-10
3.016711894e-10
-2.350279729e-09
9.165398326e-06
-4.82454325e-13
7.142238335e-13
9.165399049e-06
-5.356150464e-13
9.13947666e-13
9.165399589e-06
1.982121078e-12
3.587029154e-13
9.165399037e-06
1.617578351e-12
-2.817468319e-14
9.165397341e-06
1.233244751e-12
-5.884240562e-13
9.165398645e-06
2.790365154e-12
-4.940217948e-13
9.165398325e-06
2.552734976e-12
-1.029003277e-12
9.16540002e-06
1.568005989e-12
-2.570486975e-12
9.165397568e-06
4.067846237e-12
-6.505699393e-12
9.165399181e-06
7.505488957e-12
-1.188237604e-11
9.165400288e-06
1.611838206e-11
-1.777521824e-11
9.165416453e-06
2.543677571e-11
-4.376629633e-11
9.165440364e-06
6.391592355e-11
-8.343482171e-11
9.165532227e-06
6.777906429e-11
-1.475692938e-10
3.20348218e-10
-8.484437347e-10
9.165418086e-06
5.559555223e-13
1.73179815e-12
9.16542072e-06
1.37740945e-13
3.490412189e-13
9.165419274e-06
-9.523904305e-13
-1.060270887e-12
9.165419506e-06
-1.370414919e-14
-1.128029125e-12
9.165421033e-06
1.589229358e-12
-1.243709429e-12
9.165420322e-06
2.800968578e-12
-7.909052602e-13
9.16542087e-06
3.189466499e-12
-9.772068856e-13
9.165423839e-06
5.382819427e-12
-1.358583236e-12
9.165423647e-06
7.260950635e-12
-5.881064888e-12
9.165426084e-06
1.100498281e-11
-1.143424138e-11
9.165429609e-06
1.836199186e-11
-2.247704263e-11
9.165445551e-06
2.927933477e-11
-3.834624711e-11
9.165482995e-06
6.572724531e-11
-9.278549998e-11
9.16554087e-06
6.914200899e-11
-1.10286704e-10
2.320218001e-10
-5.159379406e-10
9.165403698e-06
-5.621956001e-13
1.782513265e-13
9.165406785e-06
1.664797885e-12
2.205845102e-13
9.16540643e-06
1.012605855e-12
2.854890033e-14
9.165405519e-06
1.133380928e-12
-4.833670689e-14
9.165405374e-06
-1.086929693e-12
-1.049719239e-12
9.165405597e-06
-2.175423231e-13
-2.395775331e-12
9.165407965e-06
1.994147206e-12
-2.155988592e-12
9.165410641e-06
3.885792766e-12
-3.335035208e-12
9.165416651e-06
4.745774836e-12
-6.881622027e-12
9.16542466e-06
6.811428147e-12
-1.017291383e-11
9.165439115e-06
1.225383582e-11
-1.851702757e-11
9.165465833e-06
1.805897795e-11
-2.823909527e-11
9.16552198e-06
3.7342108e-11
-6.531283802e-11
9.165582103e-06
3.596008052e-11
-6.649782852e-11
1.13990498e-10
-2.313421823e-10
9.165411536e-06
1.198810533e-12
9.165410977e-06
-8.676640518e-14
9.16541046e-06
-6.010800703e-13
9.165409957e-06
-1.601064363e-12
9.165411902e-06
-2.299918117e-12
9.165413935e-06
-1.347875048e-12
9.165413793e-06
-9.457625558e-13
9.165415933e-06
-3.638488506e-12
9.16542118e-06
-6.183823267e-12
9.165431313e-06
-8.694527728e-12
9.165452108e-06
-1.569679377e-11
9.165477564e-06
-2.488888394e-11
9.165541719e-06
-5.193463602e-11
9.165600463e-06
-5.337749786e-11
-1.407834265e-10
9.165416132e-06
5.470532509e-13
1.910088682e-14
9.16541617e-06
7.221555409e-13
-2.681327553e-13
9.165417272e-06
1.642745597e-12
1.071465829e-13
9.165418324e-06
-1.733796663e-12
-5.708216105e-13
9.165417503e-06
-2.2703235e-12
-1.631907758e-12
9.165419653e-06
-6.272465886e-13
-9.524422895e-13
9.16542183e-06
-2.538222184e-12
-1.23163641e-12
9.165422595e-06
-3.985678601e-12
-3.627837188e-12
9.165423782e-06
-4.13340347e-12
-6.562550011e-12
9.165431717e-06
-6.70006834e-12
-7.500516353e-12
9.165442295e-06
-1.455379199e-11
-1.46582105e-11
9.165460687e-06
-2.245611256e-11
-2.314954057e-11
9.165514474e-06
-5.491218415e-11
-5.23714525e-11
-5.555143744e-11
-5.334868205e-11
9.165401984e-06
1.017941004e-12
8.749856926e-13
9.165402571e-06
6.987850847e-13
7.679854321e-14
9.165399959e-06
-7.654967666e-13
-8.205167212e-13
9.165403581e-06
5.861171344e-13
-2.082204852e-13
9.165403559e-06
-3.698652352e-13
-6.850784684e-13
9.16540269e-06
-4.926556212e-13
-1.213090646e-12
9.165403518e-06
-1.560458913e-12
-1.429952012e-12
9.165404719e-06
-4.534882872e-12
-3.506283888e-12
9.165403842e-06
-8.5519036e-12
-6.616514269e-12
9.165406351e-06
-1.14653132e-11
-8.3679809e-12
9.165412911e-06
-2.177359814e-11
-1.45992798e-11
9.165427872e-06
-3.888965912e-11
-2.424829596e-11
9.1654648e-06
-9.421485413e-11
-6.490062976e-11
-1.113108106e-10
-6.750108233e-11
9.165400237e-06
1.06962886e-12
-1.15343845e-13
9.165400483e-06
1.32994052e-12
-2.116293441e-14
9.165399625e-06
1.852425683e-12
-1.621880997e-13
9.165401558e-06
2.176755001e-12
1.444349316e-12
9.16540093e-06
2.118589257e-12
9.080525451e-13
9.165400875e-06
8.112944606e-13
1.913774331e-13
9.165399853e-06
-1.459557922e-12
-1.662192228e-12
9.165398669e-06
-2.617915318e-12
-3.041648141e-12
9.165398652e-06
-4.702856995e-12
-5.655420777e-12
9.165390548e-06
-9.975142472e-12
-1.105155657e-11
9.165383432e-06
-1.649809227e-11
-1.667545366e-11
9.16537715e-06
-3.81968411e-11
-3.60025719e-11
9.16537402e-06
-9.224555292e-11
-9.222840186e-11
9.16541161e-06
-1.27460883e-10
-1.259985745e-10
-8.471640397e-10
9.165412854e-06
1.689351302e-13
-4.198903635e-13
9.165412669e-06
9.163106472e-13
5.186735086e-13
9.165414439e-06
1.121454118e-12
-1.436719919e-13
9.165412933e-06
6.790689458e-14
7.357666864e-13
9.165411864e-06
-3.870796866e-13
3.387609688e-13
9.165410264e-06
-1.38387202e-12
-8.122727174e-13
9.165411368e-06
1.481394604e-13
-9.525231411e-13
9.16540811e-06
-9.679223403e-13
-2.348291588e-12
9.165405192e-06
-1.887544304e-12
-3.039825502e-12
9.165397433e-06
-8.317226371e-12
-1.035731371e-11
9.165383518e-06
-1.707198159e-11
-9.308367562e-12
9.165379247e-06
-3.273128128e-11
-3.986280962e-11
9.165353676e-06
-1.014281272e-10
-5.147475249e-11
9.165444077e-06
-1.633707391e-10
-1.995826321e-10
-8.72965284e-10
-1.648306736e-09
9.165400739e-06
8.152115703e-14
-1.944622455e-13
9.165401448e-06
3.030438221e-13
5.87844509e-13
9.165400618e-06
-6.026782279e-13
-8.661663058e-13
9.165400242e-06
-1.05693414e-14
6.590593999e-13
9.165400808e-06
9.947137671e-13
6.879944993e-13
9.165400093e-06
8.129712884e-13
-9.098735091e-13
9.165396506e-06
6.093533714e-13
-1.949512246e-12
9.165392066e-06
2.416326173e-12
-3.829388955e-12
9.165382285e-06
2.282704271e-12
-4.255041146e-12
9.165366541e-06
5.961631154e-12
-8.952666649e-12
9.165323265e-06
1.535886462e-11
-9.434863013e-12
9.165246705e-06
3.239182072e-11
-5.107131704e-11
9.165006865e-06
1.013570691e-10
-1.238190114e-10
9.164773583e-06
1.616853795e-10
-3.996861871e-10
8.727121818e-10
-6.120463609e-09
9.165415629e-06
-5.477675664e-13
-2.397096703e-15
9.165414677e-06
-1.739526695e-12
9.852086604e-13
9.165414411e-06
2.074004859e-13
5.863905254e-13
9.165415705e-06
9.429791353e-13
1.702119201e-12
9.165415332e-06
1.110306833e-12
1.53514739e-13
9.165416357e-06
3.67615761e-12
-7.754250275e-13
9.165414808e-06
2.354297379e-12
1.03097485e-13
9.165409717e-06
3.055203747e-12
-2.356856151e-12
9.165405315e-06
4.296237405e-12
-2.29029074e-12
9.165400035e-06
9.528807981e-12
-8.151658913e-12
9.165386374e-06
1.579534334e-11
-8.794436791e-12
9.165379759e-06
3.617184695e-11
-4.036238208e-11
9.165355283e-06
9.184270794e-11
-5.061813668e-11
9.165447281e-06
1.262444284e-10
-1.99203385e-10
8.480853624e-10
-1.648050923e-09
9.165450594e-06
-6.619337653e-13
1.706220589e-13
9.165451961e-06
-5.790836518e-13
2.370609038e-12
9.165451298e-06
-7.590931062e-14
7.658916004e-13
9.165450532e-06
1.076295974e-12
-9.693562302e-14
9.165451183e-06
1.543406236e-12
-4.73911075e-13
9.165448924e-06
1.466652657e-12
-3.257909355e-12
9.165449396e-06
1.867917461e-12
-1.3293449e-12
9.165446401e-06
3.795008941e-12
-2.027613326e-12
9.165443743e-06
5.957497525e-12
-2.981038783e-12
9.165441059e-06
1.135088459e-11
-9.209929119e-12
9.165432557e-06
2.255907715e-11
-1.678470187e-11
9.16542719e-06
3.853908201e-11
-3.580583756e-11
9.165422394e-06
9.315589149e-11
-9.148401149e-11
9.165459916e-06
1.120414224e-10
-1.244189269e-10
5.165382789e-10
-8.468039174e-10
9.165418112e-06
4.187203161e-13
1.75612633e-12
9.165419254e-06
5.787283889e-13
1.838982031e-12
9.165419214e-06
7.292799434e-13
-1.576510166e-13
9.165420057e-06
-5.008680611e-13
-2.321553951e-12
9.165419035e-06
-1.204568196e-12
-2.272516139e-12
9.165418404e-06
1.690641373e-13
-1.893012793e-12
9.165418275e-06
2.464070407e-12
-2.304131544e-12
9.165417815e-06
2.425058548e-12
-2.481396425e-12
9.165419836e-06
5.221291274e-12
-3.604720813e-12
9.165421556e-06
8.337748374e-12
-8.854605647e-12
9.165425986e-06
1.417766206e-11
-1.735491708e-11
9.165444162e-06
2.186658252e-11
-2.457625698e-11
9.165482536e-06
5.456493575e-11
-6.258822657e-11
9.165536853e-06
5.609082196e-11
-6.832108274e-11
2.342159471e-10
-3.184463486e-10
9.165432505e-06
5.989967441e-13
9.165435281e-06
3.211815814e-13
9.165432577e-06
-1.521460544e-13
9.165432945e-06
-7.135805147e-13
9.165434832e-06
-1.299500324e-13
9.165435381e-06
-8.935034493e-13
9.165433348e-06
-1.893444392e-12
9.1654348e-06
-3.430632992e-12
9.165438291e-06
-3.879587252e-12
9.165446256e-06
-7.67437325e-12
9.16545727e-06
-1.454715041e-11
9.165478032e-06
-2.196946291e-11
9.165532064e-06
-5.043428347e-11
9.165582423e-06
-5.35934564e-11
-1.701527613e-10
9.16542995e-06
1.814780568e-12
-2.970403295e-13
9.165430231e-06
1.228330035e-12
-3.73838925e-13
9.165430191e-06
1.333563852e-12
-1.827528382e-13
9.165429987e-06
-6.731960766e-13
-1.299762827e-12
9.165430855e-06
-7.759891762e-13
-3.065415111e-13
9.165432259e-06
-6.057864452e-13
-9.687932928e-13
9.165432801e-06
-2.185561009e-12
-1.209215584e-12
9.165435276e-06
-3.509293051e-12
-2.282607872e-12
9.165436894e-06
-5.428376713e-12
-3.254382867e-12
9.165441268e-06
-7.904669524e-12
-6.324876676e-12
9.165446092e-06
-1.346461564e-11
-1.153101838e-11
9.165464611e-06
-2.219477834e-11
-1.54985356e-11
9.165509344e-06
-5.547802867e-11
-4.033249662e-11
-6.343159557e-11
-4.78942995e-11
9.165385913e-06
4.736184231e-13
-5.251106164e-13
9.165385531e-06
5.925551223e-14
-1.358226908e-12
9.165384597e-06
-5.276375076e-14
-7.784622128e-13
9.165387878e-06
2.146751555e-12
5.903748392e-14
9.165388117e-06
1.134448482e-12
4.416402286e-13
9.165387914e-06
6.766906002e-13
-1.543962939e-12
9.165386157e-06
-1.350706557e-12
-1.298203612e-12
9.165386819e-06
-4.169014338e-12
-9.652912489e-13
9.165387047e-06
-7.253274407e-12
-3.584307406e-12
9.165387993e-06
-1.474238776e-11
-5.943743115e-12
9.165389912e-06
-1.888641035e-11
-1.302947572e-11
9.165400187e-06
-4.573709781e-11
-2.346528311e-11
9.16542732e-06
-8.424907744e-11
-5.844503457e-11
-1.485039044e-10
-7.549494876e-11
9.165404321e-06
2.01874161e-13
-2.554917516e-14
9.165403881e-06
6.017833764e-13
6.278055864e-13
9.165405456e-06
1.730450603e-12
2.996739337e-13
9.165405107e-06
2.529089833e-12
-8.852331141e-14
9.165403525e-06
1.712552609e-12
2.919409421e-15
9.165401409e-06
-1.219738924e-12
-2.392536262e-12
9.165401023e-06
-4.59758121e-13
-2.005205355e-12
9.165399166e-06
-1.997985187e-12
-1.330486681e-12
9.165396771e-06
-2.565982494e-12
-2.143313277e-12
9.165389071e-06
-9.22705201e-12
-6.712495744e-12
9.165378189e-06
-1.005689746e-11
-1.536215767e-11
9.165369292e-06
-4.221096677e-11
-3.291453893e-11
9.165347588e-06
-5.122477782e-11
-1.001656349e-10
-2.014215619e-10
-1.62530286e-10
9.165390676e-06
3.329236607e-13
-4.476057662e-13
9.165390332e-06
1.376610826e-12
4.374302706e-13
9.165390953e-06
8.122012497e-13
-5.609994082e-13
9.16538873e-06
-6.835621659e-13
-9.745334693e-13
9.165386751e-06
-5.683701068e-13
-9.481535053e-13
9.165387445e-06
-2.565922371e-13
-1.915201072e-12
9.165386809e-06
2.572410388e-13
-2.255956459e-12
9.165383472e-06
-1.532747659e-12
-2.220690099e-12
9.165380515e-06
-2.403414331e-12
-2.238235111e-12
9.16537366e-06
-6.704061299e-12
-6.779325651e-12
9.165382219e-06
-1.359552879e-11
-1.313753682e-11
9.165384632e-06
-4.185516284e-11
-4.028532216e-11
9.165490251e-06
-1.036928056e-10
-1.036749298e-10
9.165794406e-06
-3.523666925e-10
-3.515824141e-10
-1.751371208e-09
9.165429943e-06
6.597246977e-13
4.419816425e-13
9.165428539e-06
1.633721791e-13
3.975309297e-13
9.165430178e-06
1.806432738e-13
6.159912432e-13
9.165427337e-06
1.947071072e-13
-1.867246504e-13
9.16542627e-06
1.657714201e-12
4.602965205e-13
9.165426556e-06
3.804059089e-13
-1.647906044e-13
9.165424012e-06
1.744519107e-12
-1.389021911e-12
9.165419069e-06
3.534945671e-12
-1.804154439e-12
9.165410048e-06
3.555674117e-12
-2.534698329e-12
9.165390197e-06
6.825590678e-12
-8.508986496e-12
9.165367966e-06
1.200883635e-11
-1.30702258e-11
9.165266906e-06
4.135398512e-11
-3.152888071e-11
9.165077396e-06
1.034338384e-10
-1.402508511e-10
9.164357116e-06
3.511157356e-10
-3.803293246e-10
1.751045564e-09
-1.163931616e-08
9.165437131e-06
-6.82622253e-13
-1.713537445e-13
9.165434891e-06
5.46730157e-13
6.6533626e-13
9.165434165e-06
3.342238712e-15
-7.053503171e-14
9.165433786e-06
3.494735821e-15
-1.192332098e-12
9.165431067e-06
-6.845770405e-14
5.954391314e-13
9.165433252e-06
8.624484067e-13
1.502034349e-12
9.165430409e-06
9.181783003e-13
-1.821204535e-12
9.16542699e-06
2.859571541e-12
-1.418848021e-12
9.165423791e-06
4.18354901e-12
-4.811537769e-13
9.16541767e-06
9.324550896e-12
-8.048744104e-12
9.165427159e-06
8.280654028e-12
-1.202316088e-11
9.165429664e-06
4.009996542e-11
-4.010249464e-11
9.165536816e-06
5.099308681e-11
-1.030943025e-10
9.165838964e-06
2.003436782e-10
-3.511546121e-10
1.649339979e-09
-1.748891567e-09
9.165391592e-06
1.10497574e-12
1.006994303e-12
9.165388963e-06
-2.219548123e-13
-3.863442295e-13
9.165389942e-06
-6.221101666e-13
-1.222496244e-12
9.165390807e-06
-4.36725462e-13
-6.826306298e-13
9.165389579e-06
8.802465096e-13
5.624752746e-13
9.165392866e-06
2.90647492e-12
1.330221701e-12
9.165389562e-06
1.44619327e-12
-2.298708201e-13
9.165385613e-06
2.597223084e-12
-1.305527042e-12
9.165380781e-06
4.651704665e-12
-1.719898363e-12
9.165376526e-06
1.15050078e-11
-6.000506933e-12
9.165365952e-06
1.689936779e-11
-1.318070783e-11
9.165359206e-06
4.576487722e-11
-3.06924987e-11
9.1653352e-06
8.474321054e-11
-1.01590586e-10
9.165424662e-06
1.470770129e-10
-1.627962882e-10
8.490768944e-10
-8.721454699e-10
9.165450735e-06
-9.301134159e-13
1.000891918e-12
9.165450566e-06
-1.967579641e-13
-4.121172885e-13
9.165450044e-06
6.762020657e-13
-4.699644877e-13
9.165452019e-06
7.637781171e-13
6.140611692e-14
9.165449277e-06
7.230881895e-13
-1.66397528e-12
9.165450074e-06
1.72505489e-12
-3.441947616e-13
9.165450346e-06
2.767680637e-12
-5.35422118e-13
9.165448787e-06
2.079297717e-12
-1.549310916e-12
9.16544759e-06
5.349264225e-12
-7.777787098e-13
9.165448605e-06
9.305098578e-12
-4.416327609e-12
9.165452935e-06
1.5726984e-11
-1.053067384e-11
9.165467623e-06
2.404189046e-11
-2.257207243e-11
9.165490836e-06
5.64474789e-11
-5.943600455e-11
9.165585365e-06
6.423700117e-11
-7.557265254e-11
3.601881974e-10
-3.021966936e-10
9.165399237e-06
1.33544685e-12
9.165400573e-06
2.34231136e-13
9.16539684e-06
-4.578110294e-13
9.165398615e-06
1.086639753e-13
9.165398927e-06
-2.131055147e-12
9.165399152e-06
-1.138127499e-12
9.165397103e-06
-3.170208876e-13
9.165401502e-06
-1.491902309e-12
9.165403067e-06
-1.771158154e-12
9.165408144e-06
-4.160457168e-12
9.16541417e-06
-1.085848798e-11
9.165435359e-06
-1.716372425e-11
9.165478973e-06
-4.110674739e-11
9.165542581e-06
-4.797935486e-11
-1.502107325e-10
9.165406349e-06
1.102246872e-12
5.816239766e-13
9.165407172e-06
1.232371921e-12
2.125200458e-13
9.165406209e-06
4.825554303e-13
9.353894663e-13
9.165408666e-06
1.095043428e-13
1.401779921e-12
9.165408409e-06
-1.193269837e-13
7.55481756e-13
9.16541092e-06
-1.439850972e-12
-5.14456933e-13
9.165409681e-06
-2.260613842e-12
-2.365438547e-14
9.165410311e-06
-1.635527927e-12
1.897017656e-12
9.165406658e-06
-4.261792601e-12
2.88171026e-12
9.165409693e-06
-7.839999648e-12
5.366592611e-12
9.165404646e-06
-1.634125468e-11
1.014804734e-11
9.165402157e-06
-3.471289853e-11
1.610418476e-11
9.165416017e-06
-9.636584603e-11
4.251585402e-11
-1.24888709e-10
4.82963612e-11
9.165412434e-06
3.511327003e-13
-3.143234319e-13
9.165413547e-06
2.10902277e-12
7.98515279e-13
9.16541286e-06
1.297611098e-12
1.630184465e-13
9.165414747e-06
1.524457955e-12
8.123371106e-13
9.16541393e-06
5.101481951e-13
3.919502247e-13
9.165415093e-06
3.205466151e-13
1.198227078e-13
9.165411996e-06
-1.508266115e-12
2.289450588e-12
9.165409517e-06
-4.203934708e-12
2.012219013e-12
9.165406221e-06
-6.415631984e-12
3.762416634e-12
9.165399381e-06
-1.50095922e-11
5.426116453e-12
9.165381405e-06
-2.373214872e-11
1.201429951e-11
9.165363016e-06
-6.234085092e-11
2.168294212e-11
9.165305343e-06
-1.566541064e-10
6.041228343e-11
-3.080814481e-10
7.481583904e-11
9.16542018e-06
1.673410723e-13
8.609406717e-14
9.16542092e-06
4.485642284e-13
1.165501556e-12
9.165419974e-06
2.403006223e-13
2.337464064e-12
9.16541948e-06
9.330252049e-13
4.671385179e-13
9.165417424e-06
1.0971078e-13
-6.70934265e-13
9.165416782e-06
-3.057738228e-13
-6.767536293e-14
9.165415521e-06
-4.024130135e-13
7.045620918e-13
9.165411461e-06
-2.325364721e-12
2.234728669e-12
9.165401764e-06
-2.529280855e-12
2.670304161e-12
9.16538504e-06
-1.056447532e-11
6.359443037e-12
9.165343e-06
-1.108575428e-11
1.536060332e-11
9.165262456e-06
-5.130500237e-11
3.33766612e-11
9.165023762e-06
-1.258034229e-10
1.016557994e-10
-4.019488948e-10
1.637409423e-10
9.165395331e-06
1.32081062e-12
-2.37042722e-13
9.165394415e-06
8.480470081e-13
7.798980624e-13
9.165394778e-06
5.861565793e-13
2.055966537e-12
9.165393726e-06
2.524365346e-13
1.196357148e-12
9.165391876e-06
5.2704897e-13
9.688901328e-13
9.165392801e-06
7.739736615e-13
1.923933156e-12
9.165389191e-06
7.984639756e-14
1.701155415e-12
9.165383468e-06
-1.213202504e-12
1.318812117e-12
9.165376123e-06
-3.543564728e-12
1.034072625e-12
9.165357516e-06
-7.81607747e-12
6.489026704e-12
9.165338409e-06
-1.340614703e-11
1.179580146e-11
9.165235323e-06
-3.331464383e-11
4.13176191e-11
9.165046488e-06
-1.395686517e-10
1.044008293e-10
-3.811055214e-10
3.528631832e-10
9.165404346e-06
1.811447186e-13
2.203545465e-13
9.165403923e-06
4.715440326e-13
7.321252568e-13
9.165403349e-06
-1.851561477e-13
1.162779036e-12
9.165402011e-06
2.787204174e-13
1.75202389e-12
9.165398816e-06
1.213321767e-12
1.638466405e-12
9.165398655e-06
1.270671563e-12
1.592658962e-12
9.165394595e-06
2.017481671e-12
2.745810275e-12
9.165386658e-06
3.498422921e-12
2.356270865e-12
9.165374245e-06
5.530810753e-12
3.109990766e-12
9.16534807e-06
7.66318074e-12
7.044823651e-12
9.165296674e-06
1.280713961e-11
1.125514855e-11
9.165166088e-06
3.292806052e-11
3.293484813e-11
9.164605703e-06
1.397932589e-10
1.422782479e-10
9.163084937e-06
3.809268882e-10
3.832350495e-10
1.164118881e-08
9.165421953e-06
8.904381946e-13
6.089029629e-13
9.165420138e-06
-9.198560982e-13
1.495124688e-12
9.165419671e-06
-1.54309786e-13
1.179922524e-12
9.165420491e-06
2.631554561e-13
1.697115951e-12
9.165418229e-06
-1.751404634e-13
-5.969301593e-14
9.165418315e-06
8.489184434e-13
1.056440158e-12
9.165416989e-06
2.801012749e-12
1.556658475e-12
9.16540992e-06
3.294339925e-12
2.495968927e-12
9.165398072e-06
3.643205242e-12
2.118591565e-12
9.165382295e-06
1.091763922e-11
5.98991667e-12
9.16536051e-06
1.046026483e-11
1.246222814e-11
9.165258214e-06
5.121672065e-11
4.174088343e-11
9.165068985e-06
1.231976568e-10
1.045128135e-10
9.164351176e-06
3.995468953e-10
3.523167654e-10
6.120199919e-09
9.165420646e-06
8.909577211e-13
-8.854504687e-14
9.165420453e-06
4.716318487e-14
9.172812218e-13
9.165423295e-06
4.729741728e-13
1.907011362e-12
9.165421161e-06
-5.912408883e-13
1.622437869e-12
9.165420756e-06
3.729865975e-14
1.041204228e-12
9.165420009e-06
1.713070886e-12
2.220773933e-12
9.165416651e-06
8.932835736e-13
2.733581135e-12
9.165411261e-06
3.47323561e-12
1.816680733e-12
9.165401933e-06
6.368979915e-12
3.000730215e-12
9.165385775e-06
1.370047491e-11
6.254726417e-12
9.165343896e-06
2.192786123e-11
1.51712341e-11
9.165265801e-06
6.091886884e-11
3.245027832e-11
9.165030944e-06
1.568897653e-10
1.037782969e-10