/*--------------------------------*- C++ -*----------------------------------*\
| =========                 |                                                 |
| \\      /  F ield         | OpenFOAM: The Open Source CFD Toolbox           |
|  \\    /   O peration     | Version:  4.x                                   |
|   \\  /    A nd           | Web:      www.OpenFOAM.org                      |
|    \\/     M anipulation  |                                                 |
\*---------------------------------------------------------------------------*/
FoamFile
{
    version     2.0;
    format      ascii;
    class       volScalarField;
    location    "3000";
    object      rhoeps;
}
// * * * * * * * * * * * * * * * * * * * * * * * * * * * * * * * * * * * * * //

dimensions      [1 -3 0 0 0 0 0];

internalField   nonuniform List<scalar> 
1175
(
0.2699628434
0.2699628457
0.2699628059
0.2699628406
0.2699628253
0.2699628239
0.2699628776
0.2699628847
0.2699628793
0.269962885
0.269962894
0.2699629219
0.269962953
0.2699630475
0.2699632564
0.2699635051
0.2699635037
0.2699635089
0.2699635205
0.2699635319
0.2699635033
0.2699634954
0.2699634966
0.2699634892
0.2699634872
0.2699635176
0.2699635394
0.2699636334
0.2699637642
0.2699641098
0.2699633082
0.2699633125
0.2699633309
0.2699633023
0.2699633271
0.2699633177
0.2699633574
0.2699633575
0.2699633633
0.2699633486
0.2699633747
0.2699634376
0.2699635847
0.2699639097
0.2699645734
0.2699629245
0.2699629424
0.2699628957
0.2699628919
0.2699629159
0.2699629176
0.2699628993
0.2699628929
0.2699628773
0.2699628646
0.2699628968
0.2699630194
0.2699632376
0.2699637961
0.269964958
0.269962945
0.2699628965
0.2699629479
0.269962987
0.2699629804
0.2699629724
0.269962982
0.269962992
0.2699629848
0.2699629692
0.2699630267
0.2699631239
0.2699634406
0.2699642002
0.2699656763
0.2699627857
0.2699628
0.2699627698
0.2699627845
0.2699627899
0.269962775
0.2699627936
0.2699628019
0.2699627976
0.2699628229
0.2699628229
0.2699629203
0.2699631837
0.2699637435
0.2699648393
0.2699634303
0.2699634534
0.2699634483
0.2699634543
0.2699634378
0.2699634617
0.2699634822
0.2699635216
0.2699634959
0.2699635277
0.2699635364
0.2699636201
0.2699637633
0.2699640777
0.2699647253
0.2699633524
0.2699633428
0.2699633347
0.2699633413
0.2699633294
0.2699632774
0.2699633021
0.2699632955
0.2699633039
0.2699632906
0.2699632679
0.2699632908
0.2699633846
0.2699635496
0.2699638641
0.2699625151
0.2699625062
0.2699625078
0.2699625236
0.2699625483
0.2699625651
0.2699626007
0.2699625763
0.2699625787
0.2699625526
0.2699625726
0.2699626008
0.2699626597
0.269962782
0.2699629846
0.2699630283
0.2699630439
0.2699630429
0.2699630124
0.2699629776
0.269962958
0.2699629221
0.2699629536
0.2699629729
0.2699629685
0.2699629923
0.2699630054
0.2699630775
0.2699632529
0.269962911
0.269962928
0.2699629444
0.2699629145
0.269962926
0.2699629649
0.2699629944
0.2699629928
0.2699629521
0.2699629896
0.2699629773
0.2699630297
0.2699631713
0.2699634902
0.2699641504
0.2699629822
0.2699629852
0.2699629683
0.2699629161
0.2699629265
0.2699628771
0.2699629088
0.2699629189
0.2699629233
0.2699629376
0.2699629814
0.2699630828
0.2699634156
0.2699641575
0.2699656374
0.269963408
0.2699633694
0.2699634114
0.2699634264
0.2699634298
0.2699634684
0.2699634826
0.2699635096
0.2699635643
0.2699635727
0.269963627
0.2699638536
0.2699644338
0.2699659441
0.2699690088
0.269962404
0.2699624467
0.2699624171
0.2699624024
0.2699623435
0.2699624003
0.2699624224
0.2699624085
0.2699623789
0.2699624273
0.2699625099
0.2699628193
0.269963654
0.269965908
0.2699706862
0.2699626422
0.2699626678
0.2699626617
0.2699626399
0.2699626705
0.2699626826
0.269962702
0.2699626972
0.2699626881
0.2699627111
0.2699627824
0.2699630295
0.2699635935
0.2699651451
0.2699681909
0.269963228
0.2699632349
0.2699632703
0.2699633031
0.26996331
0.2699632932
0.269963302
0.2699632904
0.269963296
0.2699633316
0.2699633663
0.2699634541
0.2699637346
0.2699644593
0.2699659584
0.2699628822
0.2699628579
0.2699627993
0.2699628164
0.2699628468
0.269962846
0.269962871
0.2699629188
0.2699629652
0.2699629538
0.2699629879
0.2699630457
0.2699631901
0.2699635465
0.269964161
0.2699629853
0.2699629883
0.269962989
0.2699629862
0.2699629717
0.2699629937
0.2699629738
0.2699629686
0.2699629671
0.2699629809
0.2699629617
0.2699630075
0.2699630727
0.2699632807
0.2699636223
0.269963187
0.269963199
0.2699632052
0.2699632214
0.2699632357
0.2699632243
0.2699632138
0.2699632125
0.2699631996
0.2699631885
0.2699632124
0.2699632476
0.2699633656
0.269963723
0.2699628125
0.2699628137
0.2699627725
0.2699627647
0.2699627631
0.2699627558
0.2699627636
0.2699627517
0.269962762
0.2699627277
0.2699627955
0.2699629034
0.2699632167
0.2699639609
0.2699627301
0.2699627208
0.2699627538
0.2699627224
0.2699627241
0.2699627333
0.2699627609
0.2699627626
0.2699627653
0.2699628197
0.2699628905
0.2699631502
0.2699639392
0.2699659154
0.2699700213
0.2699631125
0.2699631185
0.2699631199
0.2699631431
0.2699631629
0.2699631566
0.2699631053
0.2699630796
0.2699630536
0.2699631091
0.2699632341
0.2699637559
0.2699654675
0.2699704191
0.269981104
0.2699627597
0.2699627514
0.2699627452
0.2699627772
0.2699627946
0.2699627815
0.2699628007
0.2699627829
0.2699627717
0.2699628307
0.2699630163
0.2699637387
0.2699665186
0.2699755439
0.269997648
0.2699632021
0.2699631384
0.2699631853
0.2699631691
0.2699631751
0.2699631491
0.2699631955
0.269963188
0.2699631753
0.2699631955
0.2699633216
0.2699638441
0.2699655647
0.269970504
0.2699811977
0.269964166
0.2699641763
0.2699642157
0.2699642207
0.2699642563
0.2699642543
0.2699642265
0.2699641931
0.2699642214
0.2699642585
0.269964356
0.2699645891
0.269965372
0.2699673515
0.269971424
0.2699632977
0.269963318
0.2699633076
0.2699632899
0.2699632866
0.2699633001
0.2699632711
0.2699632707
0.2699632638
0.2699632442
0.2699632367
0.2699633084
0.2699636472
0.2699644209
0.2699659404
0.2699636856
0.2699636829
0.2699636977
0.2699637181
0.2699636839
0.2699636625
0.2699636551
0.2699636667
0.2699636773
0.2699636944
0.2699637063
0.269963749
0.2699638827
0.2699642294
0.2699648828
0.2699636353
0.2699636137
0.2699635765
0.2699635723
0.2699635959
0.2699636074
0.2699636431
0.2699636493
0.2699636603
0.2699636732
0.2699636986
0.2699637338
0.2699640219
0.2699645514
0.2699623024
0.2699623296
0.2699623436
0.2699623276
0.2699623248
0.2699623066
0.2699623122
0.269962306
0.2699623292
0.2699623654
0.2699624151
0.2699626136
0.2699632011
0.2699647291
0.2699628479
0.269962866
0.2699628546
0.2699628327
0.2699628298
0.2699628459
0.2699628281
0.26996284
0.2699628193
0.2699628709
0.269963008
0.2699635059
0.269965281
0.2699702262
0.2699624329
0.269962442
0.2699624491
0.2699624423
0.2699624382
0.2699624429
0.269962446
0.2699623893
0.2699624212
0.2699625089
0.2699627666
0.2699639413
0.2699685088
0.2699840442
0.2700230864
0.2699635447
0.2699636045
0.269963598
0.2699636009
0.2699635949
0.2699635568
0.269963556
0.2699635719
0.2699636345
0.2699637073
0.2699640674
0.2699660036
0.2699748407
0.2700126074
0.2701443534
0.2699637795
0.2699637672
0.2699637727
0.2699637517
0.2699637245
0.2699637402
0.2699637438
0.2699637638
0.2699637635
0.2699638334
0.2699641028
0.2699653005
0.2699698681
0.2699854165
0.2700244143
0.269962487
0.2699624596
0.2699624291
0.2699624182
0.2699624269
0.2699624506
0.2699624773
0.2699624585
0.2699624621
0.2699625073
0.2699626605
0.2699631934
0.2699649105
0.269969825
0.2699805325
0.2699641906
0.2699641875
0.2699642015
0.269964216
0.2699641817
0.2699642008
0.2699641724
0.269964174
0.2699641645
0.2699641951
0.2699642607
0.2699644699
0.2699650603
0.2699665945
0.2699696418
0.2699627006
0.2699626541
0.2699626226
0.2699626406
0.2699626665
0.2699626503
0.2699626511
0.2699626665
0.2699627033
0.269962724
0.2699627734
0.2699628591
0.2699630781
0.2699636593
0.2699647982
0.2699628675
0.2699628873
0.2699629208
0.2699629478
0.2699629761
0.2699629737
0.2699629959
0.2699629652
0.2699629659
0.2699629949
0.2699630207
0.2699631247
0.2699634741
0.2699641913
0.2699631174
0.2699631041
0.2699631327
0.2699631214
0.2699631082
0.2699630975
0.2699631114
0.2699631071
0.2699630786
0.2699630995
0.2699631541
0.2699633886
0.2699642551
0.2699665295
0.2699633207
0.269963319
0.2699632956
0.2699633058
0.2699632661
0.2699632512
0.2699632808
0.2699633011
0.2699633246
0.2699633499
0.269963524
0.2699642671
0.2699670308
0.2699760358
0.2699624912
0.2699624953
0.2699625383
0.2699625581
0.2699625626
0.2699625741
0.2699625656
0.269962582
0.2699626216
0.2699627022
0.2699631378
0.2699650796
0.2699739342
0.2700117454
0.2699628315
0.2699627807
0.2699627904
0.2699628267
0.2699628049
0.2699627724
0.2699627854
0.2699627719
0.269962803
0.2699629298
0.269963621
0.2699673048
0.269989176
0.2701283447
0.2720319759
0.2699632882
0.2699632987
0.2699633267
0.2699633593
0.2699633402
0.2699633647
0.269963388
0.2699633762
0.2699633729
0.2699634319
0.2699637757
0.2699657265
0.2699745609
0.270012324
0.2701441457
0.2699633884
0.2699633915
0.2699633439
0.2699633724
0.2699633751
0.2699633866
0.2699633957
0.2699633779
0.2699634033
0.2699634046
0.2699636402
0.2699643941
0.2699671726
0.2699762333
0.2699983469
0.2699633811
0.2699633462
0.2699634097
0.269963437
0.2699634569
0.2699634229
0.2699633914
0.2699634327
0.2699634432
0.2699634518
0.2699635589
0.269963819
0.2699646764
0.2699669329
0.2699717264
0.2699633726
0.2699633544
0.2699634001
0.2699634204
0.2699633959
0.2699633928
0.269963394
0.2699633862
0.2699633959
0.2699634179
0.2699634634
0.2699635818
0.2699639384
0.2699646743
0.2699661228
0.2699624629
0.2699624798
0.2699624992
0.2699624753
0.2699624843
0.2699624501
0.2699624306
0.2699624482
0.2699624545
0.2699624564
0.2699625284
0.2699625881
0.2699628554
0.2699633928
0.269963814
0.2699638166
0.26996384
0.2699638553
0.2699638561
0.2699638462
0.2699638692
0.2699638363
0.2699638553
0.2699638837
0.269963955
0.2699641375
0.2699647019
0.2699662059
0.2699634622
0.2699634958
0.2699634874
0.2699634378
0.2699634508
0.269963489
0.2699634583
0.2699634774
0.2699634971
0.2699635454
0.2699637044
0.2699642167
0.2699658951
0.2699708709
0.2699626278
0.2699626252
0.2699625795
0.2699625539
0.2699625763
0.2699625626
0.2699625813
0.2699625493
0.2699625866
0.2699626607
0.2699629577
0.2699641457
0.2699686554
0.2699841399
0.269963042
0.2699630523
0.2699630697
0.2699631211
0.2699631294
0.2699631211
0.2699631148
0.2699631306
0.2699631322
0.2699632145
0.269963616
0.2699655795
0.2699743998
0.2700121804
0.2699620476
0.2699620225
0.2699620371
0.2699620217
0.2699620101
0.2699620239
0.2699620243
0.2699620293
0.2699620688
0.2699621711
0.2699624812
0.2699636409
0.2699681918
0.2699837133
0.2699626073
0.2699626324
0.2699626179
0.2699626014
0.2699625896
0.2699625899
0.2699626389
0.2699626175
0.2699625888
0.2699626074
0.2699627516
0.2699632953
0.2699649963
0.2699699339
0.2699806288
0.2699627855
0.2699627763
0.2699627374
0.2699627658
0.2699627471
0.2699627942
0.2699628268
0.2699628516
0.2699628553
0.2699628905
0.269962957
0.2699631673
0.2699637914
0.2699653424
0.2699684191
0.2699636133
0.2699635711
0.269963575
0.2699635925
0.2699635984
0.2699635724
0.2699635402
0.2699635245
0.2699635433
0.2699635181
0.2699635795
0.2699636988
0.2699638926
0.2699644648
0.2699655843
0.2699637401
0.2699637283
0.2699637133
0.2699637382
0.2699637074
0.2699636856
0.2699637061
0.2699637067
0.2699637153
0.2699637255
0.2699637461
0.2699638355
0.2699639584
0.2699642962
0.2699631798
0.2699631822
0.2699631444
0.2699631295
0.2699631726
0.2699632184
0.2699631915
0.2699631661
0.2699631422
0.2699631196
0.2699631342
0.269963256
0.2699635596
0.2699643021
0.2699640323
0.2699640656
0.2699640867
0.2699640556
0.2699640419
0.2699640447
0.2699640146
0.2699640189
0.2699640374
0.2699640421
0.2699641226
0.2699643371
0.2699650987
0.269967098
0.269962781
0.2699628115
0.2699628356
0.2699628115
0.2699628309
0.2699628245
0.2699628063
0.2699628234
0.2699628123
0.269962845
0.2699629622
0.269963485
0.2699651705
0.2699701275
0.2699626432
0.2699626106
0.269962627
0.2699626284
0.2699625743
0.2699625865
0.2699625867
0.2699625636
0.2699625721
0.2699626178
0.2699627748
0.2699635379
0.2699662922
0.269975309
0.2699637288
0.2699637336
0.2699637582
0.2699637405
0.2699637273
0.2699637589
0.2699637522
0.2699637934
0.2699638294
0.2699638711
0.2699640303
0.2699645776
0.2699662808
0.2699712369
0.269963221
0.2699632396
0.2699632257
0.2699632432
0.2699632941
0.2699632712
0.2699632611
0.2699632604
0.2699632113
0.2699631798
0.2699632361
0.2699634715
0.2699643053
0.2699663631
0.2699629491
0.2699629354
0.2699629414
0.2699629651
0.2699629474
0.2699629428
0.2699629584
0.2699629756
0.269962995
0.26996297
0.2699629625
0.2699630792
0.2699633644
0.2699641544
0.2699656061
0.2699630187
0.2699630228
0.2699630372
0.2699630307
0.2699630135
0.2699630083
0.2699630176
0.2699630385
0.2699630516
0.269963054
0.2699631023
0.2699631427
0.2699633089
0.2699636783
0.2699643746
0.2699637059
0.2699637115
0.2699637284
0.2699637334
0.2699637749
0.2699637525
0.2699637439
0.2699637539
0.2699637451
0.2699637844
0.269963776
0.2699637628
0.269963836
0.269963995
0.2699634686
0.2699634526
0.2699634343
0.269963472
0.2699634809
0.2699634673
0.2699634571
0.2699634716
0.2699634741
0.2699635249
0.2699635588
0.2699636358
0.2699637657
0.2699641598
0.2699621546
0.2699621667
0.2699621792
0.2699621576
0.2699621501
0.269962192
0.2699622011
0.2699622113
0.2699622194
0.2699622462
0.26996229
0.2699624485
0.2699627628
0.2699635311
0.2699626662
0.2699625924
0.2699626149
0.2699625778
0.2699625899
0.2699625446
0.2699625415
0.2699625466
0.2699625098
0.2699625459
0.2699625795
0.2699628107
0.2699634048
0.2699649243
0.2699632922
0.2699633039
0.2699632972
0.2699633409
0.2699633288
0.2699633308
0.2699633485
0.2699633343
0.2699633301
0.2699633796
0.2699634997
0.2699637343
0.2699645576
0.2699668364
0.2699624817
0.2699625145
0.269962531
0.2699625624
0.2699625495
0.269962582
0.2699625912
0.2699625808
0.2699626095
0.2699626078
0.2699627014
0.2699628989
0.2699634905
0.2699649913
0.2699639638
0.2699639632
0.2699639445
0.2699639339
0.269963937
0.2699639677
0.2699640051
0.2699640105
0.2699640204
0.269964053
0.2699640784
0.2699642092
0.2699645208
0.269965246
0.2699633956
0.2699633738
0.2699633653
0.2699633574
0.2699633937
0.2699633731
0.2699633494
0.2699633087
0.2699632867
0.2699632598
0.2699633133
0.2699633645
0.2699635308
0.2699638773
0.2699630474
0.2699630816
0.2699631163
0.2699631346
0.2699631169
0.2699631159
0.2699631341
0.2699631584
0.2699631494
0.2699631547
0.2699631623
0.2699631871
0.2699632985
0.2699634582
0.2699637979
0.2699635654
0.2699635804
0.2699635829
0.2699635938
0.26996359
0.2699635768
0.2699635728
0.2699635815
0.2699635583
0.2699635576
0.2699635601
0.2699635982
0.2699636227
0.2699637111
0.2699627965
0.269962786
0.2699628097
0.2699627644
0.269962804
0.2699627879
0.2699628192
0.2699628281
0.2699628305
0.2699628086
0.2699628124
0.269962842
0.2699629276
0.2699631209
0.269962834
0.2699628403
0.2699627959
0.2699628093
0.2699628246
0.2699627889
0.2699628324
0.2699627908
0.269962769
0.2699627977
0.2699628149
0.2699628358
0.2699630235
0.2699633158
0.2699623348
0.26996233
0.2699623253
0.2699623541
0.2699623744
0.2699623186
0.269962357
0.2699623573
0.2699624189
0.2699624202
0.2699624868
0.2699625464
0.2699627285
0.2699632832
0.2699634985
0.2699635395
0.2699635489
0.2699635011
0.2699634967
0.2699634915
0.2699634698
0.2699634673
0.269963467
0.2699634612
0.2699634507
0.269963561
0.2699638765
0.2699646523
0.2699636202
0.2699636304
0.2699636303
0.2699636239
0.2699636415
0.2699636227
0.2699636114
0.2699636154
0.2699636109
0.2699636063
0.2699636528
0.2699637388
0.2699639672
0.269964523
0.2699641249
0.2699641347
0.2699640914
0.2699641028
0.2699640685
0.2699640322
0.2699640389
0.2699640298
0.2699640517
0.269964043
0.2699640698
0.269964117
0.2699642411
0.2699645422
0.2699634705
0.2699635006
0.2699634817
0.2699634806
0.2699634935
0.2699635093
0.2699635351
0.2699635304
0.2699635032
0.2699635091
0.2699635858
0.2699636391
0.2699636993
0.2699638909
0.2699631499
0.2699631619
0.269963172
0.2699631674
0.2699631608
0.2699631324
0.2699631114
0.2699631043
0.2699631288
0.269963121
0.2699630934
0.2699631339
0.2699631666
0.2699632768
)
;

boundaryField
{
    top
    {
        type            calculated;
        value           nonuniform List<scalar> 
134
(
0.2699625151
0.2699629853
0.2699636856
0.2699627006
0.2699633726
0.2699636133
0.2699630187
0.2699630474
0.2699631499
0.2699625062
0.2699629883
0.2699636829
0.2699626541
0.2699633544
0.2699635711
0.2699630228
0.2699630816
0.2699631619
0.2699625078
0.269962989
0.2699636977
0.2699626226
0.2699634001
0.269963575
0.2699630372
0.2699631163
0.269963172
0.2699625236
0.2699629862
0.2699637181
0.2699626406
0.2699634204
0.2699635925
0.2699630307
0.2699631346
0.2699631674
0.2699625483
0.2699629717
0.2699636839
0.2699626665
0.2699633959
0.2699635984
0.2699630135
0.2699631169
0.2699631608
0.2699625651
0.2699629937
0.2699636625
0.2699626503
0.2699633928
0.2699635724
0.2699630083
0.2699631159
0.2699631324
0.2699626007
0.2699629738
0.2699636551
0.2699626511
0.269963394
0.2699635402
0.2699630176
0.2699631341
0.2699631114
0.2699625763
0.2699629686
0.2699636667
0.2699626665
0.2699633862
0.2699635245
0.2699630385
0.2699631584
0.2699631043
0.2699625787
0.2699629671
0.2699636773
0.2699627033
0.2699633959
0.2699635433
0.2699630516
0.2699631494
0.2699631288
0.2699625526
0.2699629809
0.2699636944
0.269962724
0.2699634179
0.2699635181
0.269963054
0.2699631547
0.269963121
0.2699625726
0.2699629617
0.2699637063
0.2699627734
0.2699634634
0.2699635795
0.2699631023
0.2699631623
0.2699630934
0.2699626008
0.2699630075
0.269963749
0.2699628591
0.2699635818
0.2699636988
0.2699631427
0.2699631871
0.2699631339
0.2699626597
0.2699630727
0.2699638827
0.2699630781
0.2699639384
0.2699638926
0.2699633089
0.2699632985
0.2699631666
0.269962782
0.2699632807
0.2699642294
0.2699636593
0.2699646743
0.2699644648
0.2699636783
0.2699634582
0.2699632768
0.2699629846
0.2699636223
0.2699648828
0.2699647982
0.2699661228
0.2699655843
0.2699643746
0.2699637979
)
;
    }
    bottom
    {
        type            calculated;
        value           nonuniform List<scalar> 
127
(
0.2699628434
0.2699630283
0.269963187
0.2699636353
0.2699628675
0.2699624629
0.2699637401
0.2699637059
0.2699635654
0.2699628457
0.2699630439
0.269963199
0.2699636137
0.2699628873
0.2699624798
0.2699637283
0.2699637115
0.2699635804
0.2699628059
0.2699630429
0.2699632052
0.2699635765
0.2699629208
0.2699624992
0.2699637133
0.2699637284
0.2699635829
0.2699628406
0.2699630124
0.2699632214
0.2699635723
0.2699629478
0.2699624753
0.2699637382
0.2699637334
0.2699635938
0.2699628253
0.2699629776
0.2699632357
0.2699635959
0.2699629761
0.2699624843
0.2699637074
0.2699637749
0.26996359
0.2699628239
0.269962958
0.2699632243
0.2699636074
0.2699629737
0.2699624501
0.2699636856
0.2699637525
0.2699635768
0.2699628776
0.2699629221
0.2699632138
0.2699636431
0.2699629959
0.2699624306
0.2699637061
0.2699637439
0.2699635728
0.2699628847
0.2699629536
0.2699632125
0.2699636493
0.2699629652
0.2699624482
0.2699637067
0.2699637539
0.2699635815
0.2699628793
0.2699629729
0.2699631996
0.2699636603
0.2699629659
0.2699624545
0.2699637153
0.2699637451
0.2699635583
0.269962885
0.2699629685
0.2699631885
0.2699636732
0.2699629949
0.2699624564
0.2699637255
0.2699637844
0.2699635576
0.269962894
0.2699629923
0.2699632124
0.2699636986
0.2699630207
0.2699625284
0.2699637461
0.269963776
0.2699635601
0.2699629219
0.2699630054
0.2699632476
0.2699637338
0.2699631247
0.2699625881
0.2699638355
0.2699637628
0.2699635982
0.269962953
0.2699630775
0.2699633656
0.2699640219
0.2699634741
0.2699628554
0.2699639584
0.269963836
0.2699636227
0.2699630475
0.2699632529
0.269963723
0.2699645514
0.2699641913
0.2699633928
0.2699642962
0.269963995
0.2699637111
0.2699632564
)
;
    }
    side-walls
    {
        type            calculated;
        value           nonuniform List<scalar> 
261
(
0.2699628434
0.2699635051
0.2699633082
0.2699629245
0.269962945
0.2699627857
0.2699634303
0.2699633524
0.2699625151
0.2699628457
0.2699635037
0.2699633125
0.2699629424
0.2699628965
0.2699628
0.2699634534
0.2699633428
0.2699625062
0.2699628059
0.2699635089
0.2699633309
0.2699628957
0.2699629479
0.2699627698
0.2699634483
0.2699633347
0.2699625078
0.2699628406
0.2699635205
0.2699633023
0.2699628919
0.269962987
0.2699627845
0.2699634543
0.2699633413
0.2699625236
0.2699628253
0.2699635319
0.2699633271
0.2699629159
0.2699629804
0.2699627899
0.2699634378
0.2699633294
0.2699625483
0.2699628239
0.2699635033
0.2699633177
0.2699629176
0.2699629724
0.269962775
0.2699634617
0.2699632774
0.2699625651
0.2699628776
0.2699634954
0.2699633574
0.2699628993
0.269962982
0.2699627936
0.2699634822
0.2699633021
0.2699626007
0.2699628847
0.2699634966
0.2699633575
0.2699628929
0.269962992
0.2699628019
0.2699635216
0.2699632955
0.2699625763
0.2699628793
0.2699634892
0.2699633633
0.2699628773
0.2699629848
0.2699627976
0.2699634959
0.2699633039
0.2699625787
0.269962885
0.2699634872
0.2699633486
0.2699628646
0.2699629692
0.2699628229
0.2699635277
0.2699632906
0.2699625526
0.269962894
0.2699635176
0.2699633747
0.2699628968
0.2699630267
0.2699628229
0.2699635364
0.2699632679
0.2699625726
0.2699629219
0.2699635394
0.2699634376
0.2699630194
0.2699631239
0.2699629203
0.2699636201
0.2699632908
0.2699626008
0.269962953
0.2699636334
0.2699635847
0.2699632376
0.2699634406
0.2699631837
0.2699637633
0.2699633846
0.2699626597
0.2699630475
0.2699637642
0.2699639097
0.2699637961
0.2699642002
0.2699637435
0.2699640777
0.2699635496
0.269962782
0.2699632564
0.2699641098
0.2699645734
0.269964958
0.2699656763
0.2699648393
0.2699647253
0.2699638641
0.2699629846
0.2699635654
0.2699627965
0.269962834
0.2699623348
0.2699634985
0.2699636202
0.2699641249
0.2699634705
0.2699631499
0.2699635804
0.269962786
0.2699628403
0.26996233
0.2699635395
0.2699636304
0.2699641347
0.2699635006
0.2699631619
0.2699635829
0.2699628097
0.2699627959
0.2699623253
0.2699635489
0.2699636303
0.2699640914
0.2699634817
0.269963172
0.2699635938
0.2699627644
0.2699628093
0.2699623541
0.2699635011
0.2699636239
0.2699641028
0.2699634806
0.2699631674
0.26996359
0.269962804
0.2699628246
0.2699623744
0.2699634967
0.2699636415
0.2699640685
0.2699634935
0.2699631608
0.2699635768
0.2699627879
0.2699627889
0.2699623186
0.2699634915
0.2699636227
0.2699640322
0.2699635093
0.2699631324
0.2699635728
0.2699628192
0.2699628324
0.269962357
0.2699634698
0.2699636114
0.2699640389
0.2699635351
0.2699631114
0.2699635815
0.2699628281
0.2699627908
0.2699623573
0.2699634673
0.2699636154
0.2699640298
0.2699635304
0.2699631043
0.2699635583
0.2699628305
0.269962769
0.2699624189
0.269963467
0.2699636109
0.2699640517
0.2699635032
0.2699631288
0.2699635576
0.2699628086
0.2699627977
0.2699624202
0.2699634612
0.2699636063
0.269964043
0.2699635091
0.269963121
0.2699635601
0.2699628124
0.2699628149
0.2699624868
0.2699634507
0.2699636528
0.2699640698
0.2699635858
0.2699630934
0.2699635982
0.269962842
0.2699628358
0.2699625464
0.269963561
0.2699637388
0.269964117
0.2699636391
0.2699631339
0.2699636227
0.2699629276
0.2699630235
0.2699627285
0.2699638765
0.2699639672
0.2699642411
0.2699636993
0.2699631666
0.2699637111
0.2699631209
0.2699633158
0.2699632832
0.2699646523
0.269964523
0.2699645422
0.2699638909
0.2699632768
)
;
    }
    inlet
    {
        type            calculated;
        value           nonuniform List<scalar> 
81
(
0.2699628434
0.2699635051
0.2699633082
0.2699629245
0.269962945
0.2699627857
0.2699634303
0.2699633524
0.2699625151
0.2699630283
0.269962911
0.2699629822
0.269963408
0.269962404
0.2699626422
0.269963228
0.2699628822
0.2699629853
0.269963187
0.2699628125
0.2699627301
0.2699631125
0.2699627597
0.2699632021
0.269964166
0.2699632977
0.2699636856
0.2699636353
0.2699623024
0.2699628479
0.2699624329
0.2699635447
0.2699637795
0.269962487
0.2699641906
0.2699627006
0.2699628675
0.2699631174
0.2699633207
0.2699624912
0.2699628315
0.2699632882
0.2699633884
0.2699633811
0.2699633726
0.2699624629
0.269963814
0.2699634622
0.2699626278
0.269963042
0.2699620476
0.2699626073
0.2699627855
0.2699636133
0.2699637401
0.2699631798
0.2699640323
0.269962781
0.2699626432
0.2699637288
0.269963221
0.2699629491
0.2699630187
0.2699637059
0.2699634686
0.2699621546
0.2699626662
0.2699632922
0.2699624817
0.2699639638
0.2699633956
0.2699630474
0.2699635654
0.2699627965
0.269962834
0.2699623348
0.2699634985
0.2699636202
0.2699641249
0.2699634705
0.2699631499
)
;
    }
    outlet
    {
        type            calculated;
        value           nonuniform 0();
    }
    procBoundary0to1
    {
        type            processor;
        value           nonuniform List<scalar> 
97
(
0.2699635955
0.2699635415
0.2699646619
0.269965627
0.2699666436
0.2699678249
0.2699665815
0.2699656939
0.2699644187
0.2699633095
0.2699635415
0.2699635415
0.2699651679
0.269965431
0.2699678307
0.2699731087
0.2699763193
0.2699722949
0.2699681272
0.2699652207
0.2699641624
0.269964415
0.269965431
0.269965431
0.2699754046
0.2699809315
0.2699925471
0.2700139288
0.2699926571
0.2699767574
0.269968143
0.2699658806
0.2699656743
0.2699677695
0.2699809315
0.2699809315
0.2700488692
0.2701435136
0.270162756
0.2700501553
0.2699919994
0.2699737672
0.2699664789
0.269965714
0.2699712784
0.2699981524
0.2701435136
0.2701435136
0.2728380106
0.2701439325
0.2701625229
0.2700227446
0.2700146417
0.2699773394
0.2699682402
0.2699645635
0.2699692751
0.2699815292
0.2700231871
0.2701439325
0.2700227446
0.2700227446
0.2699920648
0.2699704283
0.2699725209
0.2699673327
0.2699649095
0.2699657677
0.2699711967
0.2699808389
0.2699974275
0.2699819155
0.2699704283
0.2699704283
0.2699678054
0.2699645314
0.2699653796
0.2699643009
0.2699648326
0.2699650104
0.2699679504
0.2699716181
0.2699680471
0.2699667759
0.2699645314
0.2699645314
0.2699643603
0.2699634627
0.2699638576
0.2699634781
0.2699639824
0.2699644072
0.2699661321
0.2699656166
0.2699652205
0.2699641965
0.2699634627
)
;
    }
}


// ************************************************************************* //
