/*--------------------------------*- C++ -*----------------------------------*\
| =========                 |                                                 |
| \\      /  F ield         | OpenFOAM: The Open Source CFD Toolbox           |
|  \\    /   O peration     | Version:  4.x                                   |
|   \\  /    A nd           | Web:      www.OpenFOAM.org                      |
|    \\/     M anipulation  |                                                 |
\*---------------------------------------------------------------------------*/
FoamFile
{
    version     2.0;
    format      ascii;
    class       volVectorField;
    location    "3000";
    object      U;
}
// * * * * * * * * * * * * * * * * * * * * * * * * * * * * * * * * * * * * * //

dimensions      [0 1 -1 0 0 0 0];

internalField   nonuniform List<vector> 
1175
(
(0.01100000019 8.202522775e-10 9.044132298e-10)
(0.01100000033 -1.831217948e-10 6.360188049e-10)
(0.01100000036 7.607473435e-10 -3.075670539e-10)
(0.01100000024 -2.394525184e-09 2.883629629e-09)
(0.01100000217 -1.292251074e-09 2.4979277e-10)
(0.01100000456 -1.661790736e-09 9.837487572e-10)
(0.01100000924 -8.799762345e-10 8.045874696e-10)
(0.01100000566 -4.079091059e-09 -2.207183814e-09)
(0.01100001759 -1.790502593e-09 -4.560095473e-09)
(0.01100002292 -2.685380383e-09 -8.143054309e-09)
(0.01100004884 -7.560668706e-09 -8.698842073e-09)
(0.01100006741 -1.024933518e-08 -1.032004319e-08)
(0.01100013406 -2.038503727e-08 -1.881691368e-08)
(0.01100018714 -2.00872654e-08 -1.782244306e-08)
(0.01100030361 -4.451046017e-08 -4.272299226e-08)
(0.01099999933 -4.478061537e-10 -3.174196377e-10)
(0.01100000122 1.665032062e-09 -1.996003976e-09)
(0.01100000062 1.41579741e-09 -1.567236191e-09)
(0.01100000004 9.697643336e-10 5.237577847e-11)
(0.01100000207 3.142961038e-10 -3.257738099e-10)
(0.0110000024 3.776413965e-10 5.606835479e-10)
(0.01100000466 -2.273476591e-09 -1.489315964e-09)
(0.01100000549 -4.802833186e-09 -2.799515798e-09)
(0.01100001355 -8.725868412e-09 -2.466236569e-09)
(0.01100001901 -1.052646159e-08 -4.109905293e-09)
(0.01100004265 -2.071326252e-08 -9.720037251e-09)
(0.01100005311 -2.928685888e-08 -1.234344627e-08)
(0.01100011873 -6.070284548e-08 -2.483441102e-08)
(0.01100015765 -6.305887665e-08 -1.996960412e-08)
(0.01100029133 -1.548298567e-07 -6.622494679e-08)
(0.0110000001 5.304694316e-10 2.581325773e-10)
(0.0109999978 -8.059501405e-10 -4.178518071e-12)
(0.0109999997 -8.467456427e-10 -9.104203979e-12)
(0.01099999995 4.666876244e-10 1.740505976e-09)
(0.01100000094 -1.68441403e-10 -5.044880031e-10)
(0.01100000225 -8.607525444e-10 -4.746351681e-09)
(0.0110000007 -2.442738863e-09 -1.599139371e-09)
(0.01099999971 -6.132533786e-09 -3.627909219e-09)
(0.01100000953 -1.009578473e-08 -7.064244148e-09)
(0.01100000625 -1.261048094e-08 -7.035647052e-09)
(0.01100002706 -2.447254829e-08 -1.226616525e-08)
(0.0110000188 -3.316429561e-08 -1.620843625e-08)
(0.01100009048 -7.076069701e-08 -3.512743009e-08)
(0.01100008513 -6.900084087e-08 -3.301163017e-08)
(0.01100025536 -1.963456406e-07 -1.299714078e-07)
(0.01100000027 1.51217248e-10 1.57250916e-09)
(0.01099999758 -3.83678558e-10 1.905186676e-09)
(0.01100000146 2.494588963e-10 1.599118402e-09)
(0.0110000007 8.276867832e-12 -1.99587276e-09)
(0.01100000032 -3.82377389e-10 -6.863814494e-10)
(0.01099999824 -1.379405713e-09 -1.401243578e-09)
(0.01100000088 -1.503872711e-09 -2.776846396e-10)
(0.01099999845 -1.568204551e-09 -2.62918547e-09)
(0.01100000413 -4.814663997e-09 -4.769083991e-09)
(0.01100000204 -1.011318462e-08 -5.161127185e-09)
(0.01100002003 -2.143322945e-08 -9.083813123e-09)
(0.01100000177 -3.178654219e-08 -1.646876919e-08)
(0.01100007496 -7.722185145e-08 -3.794888254e-08)
(0.01100002855 -8.776111316e-08 -3.630590866e-08)
(0.01100024758 -2.886607153e-07 -1.847477457e-07)
(0.0109999996 3.492167877e-10 -7.922167265e-10)
(0.01100000113 2.533788255e-09 1.407528754e-09)
(0.01100000025 1.598280285e-09 2.510880558e-10)
(0.01099999889 1.085152135e-09 1.175044393e-10)
(0.01099999792 1.21791214e-09 3.411682467e-10)
(0.01099999882 6.988138816e-10 -1.890148899e-09)
(0.01099999911 -7.228037404e-10 -3.906064658e-10)
(0.01099999486 1.135816805e-09 -2.912576171e-09)
(0.01099999745 1.71591292e-09 -4.515100854e-09)
(0.01099999005 2.778429399e-10 -6.763928359e-09)
(0.01100000356 9.840667092e-10 -1.411477119e-08)
(0.01099995929 -4.247149119e-10 -2.582546763e-08)
(0.01100001951 7.248393182e-10 -6.220011338e-08)
(0.01099987088 -3.116626222e-10 -7.311685779e-08)
(0.01100018884 -1.197008445e-09 -4.205447455e-07)
(0.01100000108 -6.555177113e-10 9.776261702e-10)
(0.01099999971 -4.49315778e-10 -3.218980331e-11)
(0.01099999983 -1.222661215e-11 -1.884769858e-09)
(0.01099999808 5.232346779e-10 -1.808046647e-10)
(0.01099999912 1.742768352e-09 -2.261518187e-10)
(0.0109999987 1.398529221e-09 -1.697362686e-09)
(0.01100000008 2.000554546e-09 6.901028861e-10)
(0.01099999971 2.09511092e-09 -1.041678247e-09)
(0.01100000345 5.624667056e-09 -2.761982505e-09)
(0.01099999927 9.055990391e-09 -3.996858843e-09)
(0.01100001953 1.888102287e-08 -8.356089415e-09)
(0.01100000122 2.855094731e-08 -1.644438977e-08)
(0.01100007498 7.511105775e-08 -3.729929335e-08)
(0.01100002694 8.621374421e-08 -3.575193576e-08)
(0.01100024956 2.910587038e-07 -1.851019339e-07)
(0.01100000084 -6.049738164e-11 7.075080765e-10)
(0.01099999926 -7.475016964e-10 3.744219552e-10)
(0.0110000018 -3.23158822e-10 1.240979138e-10)
(0.01099999938 1.253512088e-09 -1.467966856e-10)
(0.01100000115 1.585427506e-09 1.007826572e-10)
(0.01099999945 3.592728868e-09 -7.452438593e-10)
(0.01100000155 5.120923995e-09 -1.708152614e-09)
(0.0110000001 6.490841433e-09 -3.820942228e-09)
(0.01100000826 8.322841237e-09 -3.25372524e-09)
(0.01100000284 1.181555689e-08 -5.533624439e-09)
(0.01100002737 2.394124257e-08 -8.875512518e-09)
(0.01100001841 3.354723471e-08 -1.449292754e-08)
(0.01100008763 6.804593359e-08 -3.512314325e-08)
(0.0110000856 6.942701234e-08 -3.340542346e-08)
(0.01100025253 1.947579423e-07 -1.284906258e-07)
(0.01100000023 6.217544046e-10 1.772865804e-09)
(0.01100000037 1.884709612e-09 2.30832444e-09)
(0.01100000167 1.197245146e-09 -2.615964722e-10)
(0.01100000121 2.694725823e-09 -2.946664877e-09)
(0.01100000181 1.955894187e-09 -2.653559084e-10)
(0.01100000145 2.693187093e-09 2.661421384e-10)
(0.0110000016 2.482261965e-09 7.801258564e-11)
(0.01100000294 3.768482925e-09 -1.121989348e-09)
(0.01100001132 6.856349594e-09 -3.503914061e-09)
(0.01100001607 1.19523376e-08 -4.106773191e-09)
(0.01100004132 2.089930313e-08 -8.022152636e-09)
(0.01100005338 2.863458407e-08 -1.014826856e-08)
(0.0110001205 6.211283821e-08 -2.781444357e-08)
(0.01100015731 6.28526298e-08 -2.269724361e-08)
(0.01100028967 1.530671705e-07 -6.691520851e-08)
(0.01100000025 1.307718981e-09 -1.407800927e-09)
(0.01099999988 3.291789207e-10 -2.725172216e-09)
(0.01100000037 1.049703901e-09 -1.604799904e-09)
(0.01100000197 1.045879951e-09 1.480692061e-09)
(0.01100000367 5.824181357e-10 2.129564819e-09)
(0.0110000026 2.779835446e-09 -5.425309861e-10)
(0.01100000074 1.070740086e-09 2.790453071e-09)
(0.01100000882 2.133083592e-09 -1.020902521e-10)
(0.01100001677 3.452032489e-09 -2.672655717e-09)
(0.01100002348 5.792594461e-09 2.164062059e-10)
(0.01100004982 9.14454798e-09 -6.992055598e-09)
(0.01100006732 1.045249643e-08 -8.289988329e-09)
(0.01100013322 2.179869871e-08 -2.364071547e-08)
(0.01100018657 1.854528708e-08 -1.906657907e-08)
(0.01100030289 4.580233113e-08 -4.512662791e-08)
(0.01100000065 1.695752027e-10 1.584799453e-10)
(0.01099999956 7.249584036e-10 2.370424743e-10)
(0.01099999824 -5.565139523e-10 -2.894570027e-10)
(0.0109999994 -8.745798452e-13 -3.584035685e-10)
(0.01100000419 -3.552653165e-10 -7.337341594e-10)
(0.01100000174 -1.019721503e-09 -1.402848343e-09)
(0.01100000623 -2.423652457e-09 -3.071835099e-09)
(0.01100000759 -3.711464913e-09 -3.356099866e-09)
(0.01100001309 -4.362644233e-09 -6.620039891e-09)
(0.01100001653 -5.078196745e-09 -9.588495967e-09)
(0.01100004176 -1.032137561e-08 -1.963836064e-08)
(0.01100005254 -1.228975536e-08 -2.887751052e-08)
(0.01100012183 -2.519188498e-08 -6.184936008e-08)
(0.01100015373 -2.278153829e-08 -6.387266332e-08)
(0.01100000046 6.60571564e-10 -2.502213673e-10)
(0.01100000134 2.32522471e-09 5.708512156e-10)
(0.01099999911 1.690189271e-10 7.497147109e-11)
(0.01100000151 6.318334192e-12 2.972861498e-10)
(0.01100000148 -2.31352709e-10 -7.372780678e-10)
(0.01099999978 -1.761571334e-09 -3.662481935e-10)
(0.01100000324 -2.186201662e-09 -4.827487844e-10)
(0.0110000033 -5.573334931e-09 -2.85363792e-09)
(0.01100001164 -9.056467095e-09 -6.303590607e-09)
(0.01100001066 -1.137807498e-08 -9.73645581e-09)
(0.01100003341 -2.33904389e-08 -2.258566473e-08)
(0.0110000343 -3.467342678e-08 -3.310319074e-08)
(0.01100010553 -7.698722865e-08 -7.765199366e-08)
(0.01100011084 -7.843381384e-08 -7.760118976e-08)
(0.0110002739 -2.423783836e-07 -2.399160439e-07)
(0.01100000136 2.437165214e-10 5.955491522e-10)
(0.01099999867 -1.410410054e-09 -9.631553797e-11)
(0.01099999927 4.702454966e-10 -1.19447423e-09)
(0.01100000121 2.284451228e-10 -5.68676961e-10)
(0.01099999881 4.048279058e-10 -3.765046848e-10)
(0.01100000309 -2.113699329e-09 1.600507837e-10)
(0.01100000236 -1.359571115e-09 -1.984021769e-09)
(0.01099999985 -5.27491967e-09 -4.202508674e-09)
(0.01100000513 -8.837740219e-09 -6.742485373e-09)
(0.0109999996 -1.448217379e-08 -1.285641304e-08)
(0.01100001658 -2.434333063e-08 -2.604420656e-08)
(0.01099999212 -3.903170026e-08 -4.551097341e-08)
(0.01100006057 -8.243285574e-08 -1.111352561e-07)
(0.01099999019 -8.248479816e-08 -1.199409801e-07)
(0.01100021699 -3.235952403e-07 -4.98576694e-07)
(0.01099999881 1.517128399e-09 1.095455553e-09)
(0.01099999974 8.527175856e-10 9.721957234e-10)
(0.01100000041 9.075749184e-10 6.221669654e-10)
(0.01100000013 7.782322076e-10 1.58695856e-09)
(0.01100000037 4.240772676e-10 7.420575109e-10)
(0.01099999929 8.919268644e-10 -8.543092732e-10)
(0.01099999757 -4.506195162e-10 -2.201657846e-09)
(0.01099999763 -2.641036096e-09 -3.538934455e-09)
(0.01099999978 -6.343647835e-09 -6.539122682e-09)
(0.01099999391 -1.039006388e-08 -1.315974486e-08)
(0.01100000615 -2.273205923e-08 -2.403089959e-08)
(0.01099997308 -3.945120904e-08 -5.137041998e-08)
(0.01100003744 -1.075781312e-07 -1.158916199e-07)
(0.01099989603 -1.289176661e-07 -1.470726137e-07)
(0.01100018506 -5.934359184e-07 -7.870518261e-07)
(0.01100000023 -2.65247169e-10 8.822443471e-10)
(0.01099999952 1.492544365e-09 6.273616914e-10)
(0.01099999911 8.471628223e-10 8.062236716e-10)
(0.01099999915 9.480722927e-10 -1.310708386e-09)
(0.01099999975 1.631389241e-09 -1.553350267e-09)
(0.01099999941 -7.348840842e-10 -1.329582944e-09)
(0.01099999696 -1.260091863e-09 -9.757311752e-10)
(0.01099999453 1.784108038e-09 -4.950105509e-09)
(0.01099999447 2.076513813e-09 -7.44741685e-09)
(0.01099998135 -2.583301853e-10 -1.677190382e-08)
(0.01099998392 -5.470582178e-10 -3.123494203e-08)
(0.01099990471 -1.068189184e-09 -7.000247597e-08)
(0.01099993922 -9.994006616e-10 -1.998641428e-07)
(0.01099954616 3.203857443e-10 -2.843613292e-07)
(0.01100003143 -1.474772952e-10 -1.848430086e-06)
(0.01100000001 -1.345907339e-10 1.316704726e-09)
(0.01099999709 -2.992917234e-10 -1.75090122e-10)
(0.01099999978 1.457990738e-09 -5.090037168e-10)
(0.011000001 1.553953766e-09 -2.936073907e-10)
(0.01100000002 1.870912405e-09 -8.514045897e-10)
(0.01099999746 2.57412126e-09 -1.337310198e-09)
(0.01099999725 1.1635525e-09 -1.970446434e-09)
(0.01099999932 3.286269617e-09 -3.433278893e-09)
(0.01100000037 4.84468136e-09 -7.510898624e-09)
(0.01099999323 9.153821285e-09 -1.381738105e-08)
(0.01100000612 2.226085819e-08 -2.377643284e-08)
(0.01099997104 3.871409709e-08 -4.816303462e-08)
(0.01100003767 1.065297647e-07 -1.157990167e-07)
(0.01099989502 1.269435635e-07 -1.475164899e-07)
(0.0110001843 5.918507607e-07 -7.869033573e-07)
(0.01100000057 3.932413184e-10 9.703808097e-10)
(0.01100000174 -6.366507404e-10 -1.314305563e-10)
(0.01099999967 -8.748826557e-11 1.177218121e-09)
(0.01099999888 7.765626204e-10 5.365397709e-10)
(0.01099999829 1.591065088e-09 -9.011065305e-10)
(0.01099999863 3.729916821e-09 -1.968806407e-09)
(0.01099999898 4.750314203e-09 -2.614814444e-09)
(0.01100000073 2.878579768e-09 -3.362725152e-09)
(0.01100000407 8.210023221e-09 -8.697056399e-09)
(0.01099999894 1.393597125e-08 -1.180053251e-08)
(0.01100001238 2.236668235e-08 -2.613423803e-08)
(0.01099999195 3.703186252e-08 -4.209650022e-08)
(0.01100006009 8.048662021e-08 -1.082159468e-07)
(0.01099999094 8.203802494e-08 -1.185763296e-07)
(0.01100021545 3.243019163e-07 -4.995658509e-07)
(0.0109999986 1.977696914e-10 6.192434806e-10)
(0.01099999843 1.214237185e-09 1.047275393e-11)
(0.01100000249 -2.310247422e-11 7.150713304e-10)
(0.0110000014 -8.44394181e-11 5.045082285e-10)
(0.0110000012 -2.835650177e-10 -7.64652984e-11)
(0.01100000088 1.874002986e-09 -2.457168404e-09)
(0.01100000004 2.805129988e-09 -2.258832408e-09)
(0.0110000016 7.986819825e-09 -4.599157114e-09)
(0.01100000658 7.942381455e-09 -7.458860753e-09)
(0.01100000912 1.09191059e-08 -1.124835904e-08)
(0.01100003053 2.123324567e-08 -2.283844583e-08)
(0.0110000318 3.360200831e-08 -3.164639714e-08)
(0.01100010524 7.641272558e-08 -7.346128701e-08)
(0.01100010949 7.780271564e-08 -7.583071973e-08)
(0.01100027483 2.389443504e-07 -2.392291087e-07)
(0.01100000084 -1.328290497e-09 5.966166717e-10)
(0.01100000142 1.474745096e-09 5.666045698e-10)
(0.01100000102 1.461334926e-09 -1.247628031e-10)
(0.01099999956 2.798228961e-09 -1.262215678e-09)
(0.01100000096 -1.13806896e-09 -1.759674656e-09)
(0.01100000335 -9.00579728e-11 -2.397010158e-09)
(0.01100000587 2.12782931e-09 -2.213330959e-09)
(0.01100000414 2.536247714e-09 -2.646674626e-09)
(0.01100001224 3.847905731e-09 -6.885916015e-09)
(0.01100001624 6.210964341e-09 -1.044948901e-08)
(0.01100003996 9.928066039e-09 -1.920470461e-08)
(0.01100005125 1.208076815e-08 -2.863133689e-08)
(0.01100012285 2.417900446e-08 -6.049859093e-08)
(0.01100015768 2.081468825e-08 -6.25714601e-08)
(0.01100029025 6.664704844e-08 -1.515300947e-07)
(0.01100000029 1.356661483e-09 3.419397158e-10)
(0.01099999824 4.62093721e-10 -1.140834474e-09)
(0.01100000033 7.39369546e-10 5.022175836e-10)
(0.01100000048 -4.403304485e-09 1.53100878e-09)
(0.01100000012 -3.098492846e-09 -4.986565303e-10)
(0.01100000144 1.906785933e-10 -2.442726179e-09)
(0.01100000452 -3.178757579e-09 -5.876955606e-10)
(0.01100000406 -1.792505469e-09 -4.386322855e-09)
(0.01100000795 -1.607852399e-09 -8.125179685e-09)
(0.01100000929 -3.979816933e-09 -1.219217817e-08)
(0.01100002774 -7.882907201e-09 -2.357018274e-08)
(0.01100002046 -1.295696807e-08 -3.44201113e-08)
(0.01100009116 -3.571652799e-08 -7.190886135e-08)
(0.01100008615 -3.055960698e-08 -6.892841453e-08)
(0.01099999838 5.771344736e-10 1.708816165e-09)
(0.01099999885 -2.033681912e-10 6.527142485e-10)
(0.01099999704 5.121450803e-10 -2.890535926e-10)
(0.01099999925 3.497829503e-10 -1.605267988e-09)
(0.01100000153 -1.151611732e-09 -1.958961948e-09)
(0.01100000076 -6.354049569e-10 -2.607786522e-09)
(0.01099999998 -1.984497935e-09 -3.649663332e-09)
(0.01100000166 -5.693358954e-09 -4.308238611e-09)
(0.01100000383 -8.38119256e-09 -7.898109794e-09)
(0.01100000165 -1.381308639e-08 -1.396042042e-08)
(0.01100001402 -2.714571559e-08 -2.294200731e-08)
(0.01099999299 -4.413649858e-08 -3.815766614e-08)
(0.0110000612 -1.101134602e-07 -8.213422292e-08)
(0.0109999905 -1.215649201e-07 -8.170503734e-08)
(0.01099999945 1.057000318e-09 7.264659643e-10)
(0.01099999867 2.287438711e-09 1.523037379e-10)
(0.01099999712 5.865550216e-10 3.310932467e-11)
(0.01099999972 7.163602044e-10 1.237366796e-09)
(0.01100000019 1.147976761e-09 -2.159551607e-10)
(0.01099999799 1.265126693e-09 -8.614743328e-10)
(0.01099999864 -2.038573329e-09 -1.742335309e-09)
(0.01099999658 -5.330756179e-09 -4.746851004e-09)
(0.01099999803 -1.020959329e-08 -9.96457811e-09)
(0.01099998364 -1.507860106e-08 -1.586586571e-08)
(0.0109999906 -2.530987707e-08 -2.632525485e-08)
(0.01099993147 -5.088919607e-08 -4.991182538e-08)
(0.01099997371 -1.122038091e-07 -1.106689332e-07)
(0.01099972388 -1.416518715e-07 -1.4003245e-07)
(0.01100004595 -7.552554799e-07 -7.586585414e-07)
(0.01099999965 1.552706668e-09 8.446667689e-10)
(0.01099999774 2.514355691e-10 2.564938355e-09)
(0.01099999914 2.349426428e-09 8.704602716e-10)
(0.010999999 1.438442861e-09 1.510291348e-09)
(0.01099999605 1.079339682e-09 -1.042420031e-09)
(0.01099999558 -1.013316298e-09 -1.190871183e-09)
(0.01099999563 -7.744333663e-10 -2.562192673e-09)
(0.01099999564 -3.540900461e-09 -3.632659149e-09)
(0.01099999466 -6.159643456e-09 -5.805516232e-09)
(0.0109999811 -1.34884082e-08 -1.612322863e-08)
(0.01099997491 -2.666358208e-08 -1.478273224e-08)
(0.01099991366 -5.90462339e-08 -5.475847785e-08)
(0.01099989643 -1.706468844e-07 -6.591410802e-08)
(0.01099951995 -2.546781124e-07 -1.955537052e-07)
(0.01099973267 -1.666967585e-06 -1.177331251e-06)
(0.0110000001 -9.350241425e-10 8.083039724e-10)
(0.01099999902 4.935912775e-10 7.628075795e-10)
(0.01099999884 -1.075514755e-09 -7.429884155e-10)
(0.01099999655 4.14010734e-10 4.422650383e-10)
(0.01099999663 -1.77429665e-10 8.142988896e-10)
(0.01099999819 -1.604561529e-09 -6.131072609e-10)
(0.01099999453 -2.385136124e-10 -1.780196072e-09)
(0.01099999119 1.772925953e-09 -5.747935186e-09)
(0.0109999845 1.070837381e-09 -7.333939295e-09)
(0.0109999632 -1.425079795e-09 -1.554146975e-08)
(0.01099993928 -1.946590462e-09 -2.023098585e-08)
(0.0109997966 5.56018999e-10 -7.98911562e-08)
(0.01099966346 -7.09711896e-10 -1.478374056e-07)
(0.01099855275 2.03602929e-10 -4.957116315e-07)
(0.01099875187 4.775041584e-10 -3.799783685e-06)
(0.0109999983 -3.572866215e-10 3.767219142e-10)
(0.01099999886 6.522352319e-11 9.140238711e-10)
(0.01099999874 6.941280161e-10 2.161239773e-09)
(0.01099999891 7.31138254e-10 1.17089486e-09)
(0.01099999793 1.347061215e-09 2.842955766e-10)
(0.01100000061 3.255561343e-09 6.365569663e-11)
(0.01099999629 2.759430774e-09 4.499395404e-11)
(0.0109999948 3.789262228e-09 -4.811116597e-09)
(0.01099999157 5.764196627e-09 -5.744456458e-09)
(0.01099998009 1.210534429e-08 -1.402720506e-08)
(0.01099997501 2.585760625e-08 -1.596594667e-08)
(0.01099991426 5.750395553e-08 -5.468548295e-08)
(0.01099989292 1.713780761e-07 -6.346664743e-08)
(0.01099951972 2.524930832e-07 -1.939337257e-07)
(0.01099973141 1.66558185e-06 -1.17575149e-06)
(0.01099999933 -3.947638549e-10 2.174080809e-09)
(0.01099999986 -1.760206504e-09 1.75875464e-09)
(0.01099999907 -1.594221083e-10 5.563824096e-10)
(0.01099999917 1.255038913e-09 -1.322416313e-09)
(0.01099999828 2.020431264e-09 -1.132934775e-09)
(0.01099999616 3.20982778e-09 -1.970095783e-09)
(0.01099999667 3.815223197e-09 -1.076943266e-09)
(0.01099999516 5.037355407e-09 -2.929600615e-09)
(0.01099999401 6.7069009e-09 -5.515135212e-09)
(0.01099998329 1.458341975e-08 -1.533355729e-08)
(0.0109999902 2.430393544e-08 -2.71848043e-08)
(0.01099993205 4.810040388e-08 -5.007295735e-08)
(0.01099997374 1.097059608e-07 -1.110829145e-07)
(0.01099972163 1.409224894e-07 -1.395944348e-07)
(0.01100004714 7.590119848e-07 -7.581055261e-07)
(0.01099999942 -3.215387628e-10 6.826265147e-10)
(0.01099999873 7.122005311e-10 1.285676982e-09)
(0.01099999859 -3.628128326e-11 3.08458412e-10)
(0.01099999912 1.074845837e-09 -1.579051432e-09)
(0.01100000022 3.413238389e-10 -2.407375324e-09)
(0.01099999783 1.521306473e-09 -3.052037485e-09)
(0.01099999927 1.72795162e-09 -4.027041296e-09)
(0.01099999781 3.574251149e-09 -3.99899777e-09)
(0.01100000183 8.652268188e-09 -7.715587483e-09)
(0.01099999741 1.328570017e-08 -1.35838675e-08)
(0.01100001327 2.688182978e-08 -2.423344429e-08)
(0.01099999406 4.434376104e-08 -3.580063384e-08)
(0.01100006509 1.103253816e-07 -8.141975523e-08)
(0.01099998776 1.2183221e-07 -8.115514281e-08)
(0.01100021684 5.007121492e-07 -3.217600804e-07)
(0.01099999989 2.398471034e-10 1.856285003e-09)
(0.01099999943 -3.925609129e-10 1.738838974e-10)
(0.01099999974 5.358467195e-10 -1.424896632e-09)
(0.01099999857 -7.773216811e-10 -1.068492436e-09)
(0.01100000042 -6.856321765e-10 -1.408586231e-09)
(0.01100000166 8.695939498e-11 -1.833952727e-09)
(0.01100000133 1.863513434e-09 -2.361545438e-09)
(0.01100000104 2.46964363e-09 -6.525596609e-09)
(0.01100000521 3.205804318e-09 -7.884373882e-09)
(0.01100000537 6.398782968e-09 -1.196611312e-08)
(0.01100002629 1.09166854e-08 -2.201960047e-08)
(0.01100002047 1.51776077e-08 -3.118532799e-08)
(0.01100009273 3.503980551e-08 -6.724837722e-08)
(0.01100008413 3.264684281e-08 -6.813929044e-08)
(0.01100025557 1.293772868e-07 -1.92853726e-07)
(0.01099999832 1.624036828e-09 -6.115867821e-10)
(0.01099999903 -1.20242908e-09 -5.146283088e-10)
(0.01100000031 -4.595411225e-10 -1.776504136e-11)
(0.0109999998 7.816563045e-11 -4.496509595e-10)
(0.01100000046 -1.247980272e-09 -1.914199274e-10)
(0.01100000041 -8.422375471e-10 -9.769741512e-10)
(0.01100000134 -3.394532625e-09 -2.58761816e-09)
(0.0110000016 -1.505087546e-09 -4.342059674e-09)
(0.01100000698 -4.438716288e-09 -5.824474387e-09)
(0.01100000112 -6.161819589e-09 -1.003765412e-08)
(0.01100001895 -8.706913921e-09 -1.945788469e-08)
(0.01100000243 -1.34318005e-08 -2.987502532e-08)
(0.01100007206 -3.545398048e-08 -7.660978707e-08)
(0.01100003073 -3.33895253e-08 -8.721538919e-08)
(0.01100000045 7.212067331e-11 -4.432401381e-10)
(0.01099999713 2.543675523e-09 -8.996640694e-10)
(0.01099999704 8.99689923e-10 5.184515397e-10)
(0.01099999794 1.003559905e-10 1.185212648e-10)
(0.01100000074 4.055220323e-10 -7.571895149e-10)
(0.01100000125 4.385834378e-10 -2.419580083e-09)
(0.01099999933 -2.03191302e-09 -1.936799749e-09)
(0.01099999926 -4.975069711e-09 -3.336562161e-09)
(0.01100000059 -8.903201371e-09 -7.542812466e-09)
(0.01099999296 -1.568664041e-08 -1.046314654e-08)
(0.01100000847 -2.585848488e-08 -2.2458759e-08)
(0.01099997225 -4.853890728e-08 -3.848650195e-08)
(0.0110000342 -1.152491382e-07 -1.074211733e-07)
(0.01099989668 -1.484011297e-07 -1.267826936e-07)
(0.01100000028 4.887623587e-10 -5.11606889e-10)
(0.01099999794 2.364039996e-10 -4.293369431e-10)
(0.01099999921 4.191869919e-10 2.762023724e-10)
(0.01100000056 4.32189193e-09 -1.253311621e-09)
(0.01099999934 1.629347173e-09 -1.182634479e-09)
(0.01099999767 -1.483727878e-09 -1.212400166e-09)
(0.0109999955 -5.004647662e-10 -2.543017309e-09)
(0.01099999462 -4.600812269e-09 -2.14499588e-09)
(0.01099999319 -7.006974676e-09 -4.393376593e-09)
(0.01099998277 -1.674172949e-08 -1.290902307e-08)
(0.01099997568 -1.680878494e-08 -2.588301565e-08)
(0.01099991574 -5.732843519e-08 -5.760123109e-08)
(0.01099989353 -6.567106528e-08 -1.695103433e-07)
(0.01099952043 -1.971363402e-07 -2.534176145e-07)
(0.01099999979 2.138424432e-10 -1.084887135e-09)
(0.01099999815 6.476566736e-10 -5.002775691e-10)
(0.01099999927 1.029930146e-09 -5.13412362e-10)
(0.01099999863 -8.632447981e-11 8.915945762e-10)
(0.01099999536 7.235525986e-10 -6.514789546e-10)
(0.01099999549 -7.109953061e-10 -1.853203109e-09)
(0.01099999387 -9.073263618e-10 -2.238337059e-09)
(0.01099999612 -3.117533699e-09 -2.866493449e-09)
(0.01099998786 -4.520544355e-09 -3.648901119e-09)
(0.01099998362 -1.151397026e-08 -1.247915173e-08)
(0.01099995726 -1.99533252e-08 -1.792723028e-08)
(0.01099995734 -7.049515037e-08 -6.834604154e-08)
(0.01099968587 -1.457878781e-07 -1.464117154e-07)
(0.01099957134 -4.842091782e-07 -4.838404647e-07)
(0.01099792877 -3.636051298e-06 -3.634771933e-06)
(0.01100000212 8.266251428e-10 -4.673371368e-10)
(0.01099999731 1.061612084e-09 3.077879873e-10)
(0.01100000019 1.791483663e-09 -5.401755014e-10)
(0.01099999698 2.23863515e-10 8.447836836e-11)
(0.01099999633 8.833652519e-10 -4.35427865e-10)
(0.01099999655 4.946530178e-11 -7.82738811e-10)
(0.01099999412 1.348051518e-09 -2.295972772e-09)
(0.01099999059 1.288225099e-09 -3.17480366e-09)
(0.01099997903 1.39646531e-09 -3.63611232e-09)
(0.01099996628 9.199204059e-11 -1.390662966e-08)
(0.01099990905 -3.615482619e-10 -1.727215104e-08)
(0.01099982528 -2.985493416e-10 -6.279070642e-08)
(0.0109991184 1.463791452e-10 -2.538595414e-07)
(0.01099780978 8.08707546e-10 -5.827350293e-07)
(0.01099090559 3.97899146e-10 -1.671606135e-05)
(0.0110000001 2.140634429e-10 4.594113619e-10)
(0.01099999972 1.259431074e-09 2.311021019e-10)
(0.01099999805 -3.758374261e-10 7.800514022e-11)
(0.01099999782 5.564510539e-11 4.276505005e-10)
(0.0109999973 6.006970803e-10 -3.334562658e-10)
(0.0109999976 9.31268419e-10 5.952232686e-11)
(0.01099999648 2.704595244e-09 -4.466081447e-10)
(0.010999992 4.813102582e-09 -1.71010203e-09)
(0.01099998593 6.153167621e-09 -3.899865036e-09)
(0.01099998175 1.164324883e-08 -1.262831277e-08)
(0.01099995784 1.703058357e-08 -1.681381892e-08)
(0.01099995658 6.834492165e-08 -6.853426434e-08)
(0.01099968519 1.452716996e-07 -1.447501898e-07)
(0.01099957205 4.817091723e-07 -4.82803195e-07)
(0.01099792683 3.635570702e-06 -3.633774872e-06)
(0.01099999973 1.543244162e-09 7.927437816e-10)
(0.01099999912 -7.998199729e-10 1.340771468e-09)
(0.01099999876 -7.879447852e-10 -9.266145447e-10)
(0.01099999893 -9.965631649e-10 -9.98889498e-11)
(0.010999997 3.952091027e-10 -8.886500633e-11)
(0.01099999958 3.414564851e-09 -1.072208471e-09)
(0.01099999786 8.349831287e-10 -1.177881305e-09)
(0.01099999502 3.509170181e-09 -1.792857806e-09)
(0.01099998963 4.855036725e-09 -4.010167902e-09)
(0.01099997858 1.47414545e-08 -1.075559186e-08)
(0.01099997545 1.486956116e-08 -2.318267948e-08)
(0.01099991422 5.514833378e-08 -5.458790156e-08)
(0.01099989459 6.463940905e-08 -1.692992184e-07)
(0.01099952208 1.95905844e-07 -2.52127562e-07)
(0.01099972942 1.176169426e-06 -1.664300981e-06)
(0.01100000001 -7.091801832e-10 2.524556126e-09)
(0.01099999862 4.50060334e-10 1.393170371e-09)
(0.01099999905 1.306381967e-09 -9.373710092e-10)
(0.0109999986 1.265490728e-09 -1.616471711e-09)
(0.01100000215 9.242527989e-10 -1.611648093e-09)
(0.0109999979 2.461363215e-09 -2.110522044e-10)
(0.01099999891 2.893483955e-09 -1.245889156e-09)
(0.01099999694 4.581668662e-09 -2.398352818e-09)
(0.01100000007 7.360120175e-09 -3.195172413e-09)
(0.0109999917 1.447498702e-08 -1.041680879e-08)
(0.01100000465 2.47369919e-08 -2.101467259e-08)
(0.01099997507 5.006291032e-08 -3.912147846e-08)
(0.01100003671 1.175540517e-07 -1.068627123e-07)
(0.01099989688 1.466196758e-07 -1.290007182e-07)
(0.01100018747 7.895714389e-07 -5.924984375e-07)
(0.01099999951 -1.039796703e-09 2.226166186e-10)
(0.01099999962 -7.491155449e-10 2.377344144e-10)
(0.01100000217 6.263865515e-12 -3.479664226e-10)
(0.01099999837 7.036245798e-10 -7.712112359e-10)
(0.01099999897 9.399604997e-10 -1.063022109e-09)
(0.01100000126 5.911757929e-10 -1.225581823e-09)
(0.01100000103 2.638866227e-09 -9.311695917e-10)
(0.01099999789 9.872298793e-10 -2.866766376e-09)
(0.01100000506 3.65547356e-09 -4.462492086e-09)
(0.01100000143 6.516767544e-09 -9.200018404e-09)
(0.01100001628 1.217227489e-08 -1.879379897e-08)
(0.01100000223 1.623892465e-08 -3.16562861e-08)
(0.01100007472 3.542530282e-08 -7.82813996e-08)
(0.01100003232 3.513849715e-08 -8.746333184e-08)
(0.01100024841 1.863681758e-07 -2.897007448e-07)
(0.01099999901 2.593167228e-09 -4.731141684e-10)
(0.0109999992 8.822929119e-10 3.067915023e-10)
(0.01099999949 4.775725327e-10 3.025719973e-10)
(0.01099999883 5.45318929e-10 -1.520694686e-09)
(0.01099999903 4.651469545e-11 -3.90668605e-10)
(0.01100000056 4.187645872e-10 -1.31248468e-09)
(0.01099999948 -2.476537538e-09 -1.494075247e-09)
(0.01099999978 3.455147602e-10 -1.126363591e-09)
(0.01100000113 -2.747487592e-09 -1.941093479e-09)
(0.01099999186 -5.646379583e-09 -9.544458144e-10)
(0.01100000663 -9.524984336e-09 -1.23089551e-09)
(0.01099996109 -2.165795336e-08 -7.831683227e-11)
(0.01100002112 -6.152998492e-08 1.050270436e-09)
(0.01099987396 -6.792287406e-08 7.839782369e-10)
(0.0109999992 4.530990177e-10 -9.105646286e-10)
(0.01099999867 1.864235952e-09 -2.572285722e-10)
(0.01099999872 1.133598137e-10 -1.353028923e-09)
(0.01099999815 2.562370657e-10 9.836114605e-10)
(0.01099999991 3.87555763e-10 1.673321496e-09)
(0.01099999962 -6.136940007e-10 -1.116019895e-09)
(0.01099999997 -1.762791791e-09 1.157124825e-09)
(0.01099999636 -4.547861945e-09 8.47906951e-10)
(0.01099999568 -8.017497713e-09 -8.067621735e-11)
(0.01099998131 -1.55160887e-08 5.143893457e-11)
(0.01099998572 -3.244245918e-08 -1.086382639e-09)
(0.01099990764 -6.923162807e-08 -1.916920273e-09)
(0.01099994067 -1.980445009e-07 2.568210107e-09)
(0.01099954547 -2.850447748e-07 -7.60843067e-10)
(0.01099999967 -2.079995218e-10 1.156541301e-10)
(0.01099999782 1.510814039e-09 1.825428177e-09)
(0.0109999998 2.119691106e-09 1.001378389e-09)
(0.01099999915 2.339182807e-09 1.752539363e-09)
(0.0109999986 2.602578127e-10 -2.047100391e-10)
(0.01099999811 4.523553262e-11 -2.166130833e-09)
(0.01099999553 -2.125713038e-09 -1.009323208e-09)
(0.01099999203 -4.895555568e-09 8.371496711e-10)
(0.01099998476 -6.178035432e-09 -1.824418346e-10)
(0.01099996522 -1.804604224e-08 -6.570095677e-10)
(0.01099994083 -2.08778336e-08 7.91081558e-10)
(0.01099979725 -7.911708435e-08 1.488273582e-09)
(0.01099966333 -1.503749914e-07 1.690996316e-09)
(0.0109985513 -4.971514137e-07 6.647423987e-10)
(0.01099999846 1.151659838e-09 -6.910170176e-11)
(0.01100000098 8.780797875e-10 2.355486269e-09)
(0.01099999809 -4.52577059e-11 9.669342211e-10)
(0.01099999781 1.263153875e-10 -1.281746078e-09)
(0.01099999708 5.275740503e-10 -6.205891554e-10)
(0.01099999563 -1.061066567e-10 4.327555124e-10)
(0.01099999496 -3.066296805e-10 -2.830974617e-10)
(0.01099999021 -2.49440874e-09 -5.139472488e-10)
(0.0109999793 -4.08244762e-09 -9.491733234e-10)
(0.01099996565 -1.416265368e-08 -8.142491107e-10)
(0.01099990991 -1.809179613e-08 -9.844070065e-10)
(0.01099982591 -6.562220335e-08 7.096965675e-10)
(0.01099911917 -2.53648836e-07 1.543731765e-09)
(0.01099780959 -5.850668669e-07 1.067062645e-09)
(0.01099999943 1.263313902e-09 1.276741641e-09)
(0.01100000053 8.633535096e-10 1.667025529e-09)
(0.01099999841 1.615753273e-10 1.683339671e-09)
(0.01099999809 3.020268121e-10 1.333973842e-09)
(0.01099999378 1.336210313e-09 4.790784047e-12)
(0.01099999675 1.211623681e-09 1.085343327e-09)