/*--------------------------------*- C++ -*----------------------------------*\
| =========                 |                                                 |
| \\      /  F ield         | OpenFOAM: The Open Source CFD Toolbox           |
|  \\    /   O peration     | Version:  4.x                                   |
|   \\  /    A nd           | Web:      www.OpenFOAM.org                      |
|    \\/     M anipulation  |                                                 |
\*---------------------------------------------------------------------------*/
FoamFile
{
    version     2.0;
    format      ascii;
    class       volScalarField;
    location    "6000";
    object      CO2;
}
// * * * * * * * * * * * * * * * * * * * * * * * * * * * * * * * * * * * * * //

dimensions      [0 0 0 0 0 0 0];

internalField   nonuniform List<scalar> 
1175
(
1.094582382e-09
1.09516997e-09
1.098014478e-09
1.109029965e-09
1.14894371e-09
1.288514856e-09
1.761874146e-09
3.314883946e-09
8.215637331e-09
2.297480692e-08
6.497633728e-08
1.765446916e-07
4.491176886e-07
1.051552424e-06
2.237729668e-06
1.095005035e-09
1.095711406e-09
1.099162593e-09
1.112790599e-09
1.163412783e-09
1.345612421e-09
1.98384592e-09
4.153420103e-09
1.126704732e-08
3.357386003e-08
9.972592655e-08
2.825583003e-07
7.447042971e-07
1.788543594e-06
3.843930821e-06
1.09567183e-09
1.096569994e-09
1.101016049e-09
1.118986489e-09
1.187708226e-09
1.443422715e-09
2.372812537e-09
5.661633346e-09
1.692133735e-08
5.388249483e-08
1.687940079e-07
5.015271635e-07
1.378405095e-06
3.417126857e-06
7.44152269e-06
1.096270933e-09
1.097350247e-09
1.102747138e-09
1.1249391e-09
1.211642646e-09
1.542353637e-09
2.778326721e-09
7.290638823e-09
2.328494608e-08
7.784215111e-08
2.546986644e-07
7.898623638e-07
2.262297951e-06
5.804515425e-06
1.284757564e-05
1.09650984e-09
1.097664716e-09
1.103461281e-09
1.127453224e-09
1.22197475e-09
1.586110635e-09
2.963076131e-09
8.060610851e-09
2.643297737e-08
9.03742838e-08
3.027387015e-07
9.641326988e-07
2.844024968e-06
7.510072277e-06
1.690588807e-05
1.096267169e-09
1.097346681e-09
1.10274368e-09
1.124935802e-09
1.21164024e-09
1.542353915e-09
2.778334974e-09
7.290665913e-09
2.32850018e-08
7.784215944e-08
2.546979771e-07
7.898575931e-07
2.262275672e-06
5.804437643e-06
1.284737588e-05
1.095664166e-09
1.096562278e-09
1.101008753e-09
1.118979789e-09
1.187703106e-09
1.443421735e-09
2.372822306e-09
5.661664942e-09
1.692138892e-08
5.388240095e-08
1.68792619e-07
5.015192014e-07
1.378371289e-06
3.41701639e-06
7.441251284e-06
1.094992969e-09
1.095699869e-09
1.099152028e-09
1.112781245e-09
1.163405206e-09
1.345607609e-09
1.983844605e-09
4.153414175e-09
1.126696819e-08
3.357333679e-08
9.972329652e-08
2.825472316e-07
7.446643442e-07
1.788422307e-06
3.843649687e-06
1.094563387e-09
1.095155017e-09
1.098002193e-09
1.109020342e-09
1.148936992e-09
1.28851203e-09
1.761875677e-09
3.3148807e-09
8.215558603e-09
2.297428639e-08
6.497380295e-08
1.765343234e-07
4.490806859e-07
1.051438045e-06
2.237448345e-06
1.095005336e-09
1.095711668e-09
1.099162963e-09
1.11279107e-09
1.1634139e-09
1.345616281e-09
1.983861398e-09
4.153483223e-09
1.126729422e-08
3.357480764e-08
9.972949113e-08
2.825715923e-07
7.447541569e-07
1.788738441e-06
1.095483047e-09
1.09634511e-09
1.100611605e-09
1.117862012e-09
1.183895164e-09
1.430082779e-09
2.327632983e-09
5.517837822e-09
1.650332913e-08
5.282195897e-08
1.666688185e-07
4.992457573e-07
1.383164287e-06
3.451175422e-06
7.536943351e-06
1.096237489e-09
1.097354597e-09
1.102976002e-09
1.12634886e-09
1.218991318e-09
1.578564109e-09
2.950008846e-09
8.074310892e-09
2.671316711e-08
9.209998572e-08
3.104045872e-07
9.907795559e-07
2.914207726e-06
7.635654054e-06
1.706141428e-05
1.09691811e-09
1.098279574e-09
1.105218577e-09
1.134675478e-09
1.254515847e-09
1.734062311e-09
3.628336129e-09
1.099555472e-08
3.904761883e-08
1.427214084e-07
5.098272116e-07
1.73083198e-06
5.426527377e-06
1.507607353e-05
3.482001599e-05
1.097190779e-09
1.098655177e-09
1.106156011e-09
1.138259695e-09
1.270249025e-09
1.80526091e-09
3.952115485e-09
1.246504295e-08
4.567379915e-08
1.722161015e-07
6.380394641e-07
2.265254371e-06
7.495930766e-06
2.209977044e-05
5.33658035e-05
1.096914513e-09
1.098276211e-09
1.105215079e-09
1.134672287e-09
1.254513139e-09
1.734060973e-09
3.628336662e-09
1.099554171e-08
3.904748609e-08
1.427205166e-07
5.098221244e-07
1.730807245e-06
5.426418893e-06
1.507568415e-05
3.481898626e-05
1.096230054e-09
1.097347211e-09
1.102969122e-09
1.126342742e-09
1.218986858e-09
1.578563936e-09
2.950017986e-09
8.074330567e-09
2.671311105e-08
9.209917085e-08
3.103991504e-07
9.90751455e-07
2.914085866e-06
7.635220269e-06
1.706028096e-05
1.0954716e-09
1.096334233e-09
1.100601952e-09
1.117853612e-09
1.183889019e-09
1.430081201e-09
2.327638945e-09
5.517843292e-09
1.650322155e-08
5.282103974e-08
1.666635574e-07
4.992207819e-07
1.383061599e-06
3.450814239e-06
7.535940536e-06
1.094988621e-09
1.095698605e-09
1.099152508e-09
1.112783124e-09
1.163409105e-09
1.345615419e-09
1.983863695e-09
4.153468634e-09
1.12671283e-08
3.357378915e-08
9.972450089e-08
2.825501322e-07
7.44670139e-07
1.788431125e-06
3.843657305e-06
1.095672043e-09
1.09657014e-09
1.101016446e-09
1.118987465e-09
1.187711935e-09
1.443437037e-09
2.372870642e-09
5.661864058e-09
1.692224164e-08
5.388595497e-08
1.68806844e-07
5.015733383e-07
1.3785646e-06
3.417649479e-06
1.096237539e-09
1.097354771e-09
1.102976424e-09
1.126349727e-09
1.218994673e-09
1.578577645e-09
2.950064399e-09
8.074536696e-09
2.671406971e-08
9.210359834e-08
3.104188458e-07
9.908350662e-07
2.914424541e-06
7.636533282e-06
1.097133409e-09
1.098614179e-09
1.106219178e-09
1.138899921e-09
1.273858923e-09
1.823162436e-09
4.033863305e-09
1.280562076e-08
4.69152696e-08
1.757207834e-07
6.416851059e-07
2.223440465e-06
7.098685117e-06
2.000369547e-05
4.651994994e-05
1.097946488e-09
1.099780988e-09
1.109353182e-09
1.151519658e-09
1.331148679e-09
2.089621152e-09
5.275560382e-09
1.85619265e-08
7.331090307e-08
2.945104342e-07
1.160106898e-06
4.376285312e-06
1.534232044e-05
4.752206994e-05
0.0001180766597
1.098273847e-09
1.1002596e-09
1.110685657e-09
1.15707748e-09
1.357308098e-09
2.216730688e-09
5.901663997e-09
2.167626206e-08
8.891413994e-08
3.728734476e-07
1.550983941e-06
6.280320319e-06
2.412378046e-05
8.35779524e-05
0.0002314872512
1.097943116e-09
1.099777767e-09
1.109349677e-09
1.151516276e-09
1.331144104e-09
2.089611627e-09
5.275524052e-09
1.856175017e-08
7.33100038e-08
2.945059057e-07
1.160084253e-06
4.376174401e-06
1.534181023e-05
4.752001043e-05
0.000118070432
1.097126591e-09
1.098607265e-09
1.106212694e-09
1.138893977e-09
1.27385402e-09
1.82315936e-09
4.033856778e-09
1.2805555e-08
4.691474163e-08
1.757174138e-07
6.416658173e-07
2.223340412e-06
7.098215632e-06
2.000178284e-05
4.651392501e-05
1.096227135e-09
1.09734492e-09
1.102967506e-09
1.126341878e-09
1.218988086e-09
1.578570973e-09
2.950046612e-09
8.074435773e-09
2.671348008e-08
9.210040432e-08
3.104029435e-07
9.907616774e-07
2.914108377e-06
7.635253059e-06
1.706028443e-05
1.095656766e-09
1.096558565e-09
1.101007307e-09
1.11898082e-09
1.187707981e-09
1.443435634e-09
2.372864461e-09
5.661801217e-09
1.692182076e-08
5.388370185e-08
1.687962577e-07
5.015281949e-07
1.378389495e-06
3.417041102e-06
7.441255779e-06
1.096271142e-09
1.097350523e-09
1.102747693e-09
1.124940666e-09
1.211648497e-09
1.542377566e-09
2.778425889e-09
7.291046346e-09
2.328659562e-08
7.784868786e-08
2.547237667e-07
7.899544852e-07
2.262615228e-06
5.805510505e-06
1.09691831e-09
1.098279812e-09
1.105219076e-09
1.134676828e-09
1.254520992e-09
1.734085059e-09
3.628435998e-09
1.09959947e-08
3.904956113e-08
1.427299098e-07
5.098637608e-07
1.730985714e-06
5.427146709e-06
1.507840018e-05
1.097946655e-09
1.09978131e-09
1.109353513e-09
1.15152053e-09
1.331151669e-09
2.089635295e-09
5.275630116e-09
1.856227588e-08
7.331264892e-08
2.945192896e-07
1.16015155e-06
4.376508899e-06
1.534343397e-05
4.752764726e-05
1.098884313e-09
1.101185409e-09
1.113410621e-09
1.168800788e-09
1.413283522e-09
2.490414572e-09
7.248781232e-09
2.831808651e-08
1.215782893e-07
5.321159924e-07
2.312870201e-06
9.798437695e-06
3.934949759e-05
0.0001418928203
0.00040390848
1.099263739e-09
1.101766183e-09
1.115160359e-09
1.17656395e-09
1.451837228e-09
2.689114158e-09
8.298482189e-09
3.400040996e-08
1.53116823e-07
7.113363691e-07
3.350010088e-06
1.583895667e-05
7.393832633e-05
0.0003270637732
0.00120515481
1.098881134e-09
1.101182264e-09
1.113407348e-09
1.168797322e-09
1.413278442e-09
2.490400943e-09
7.248723159e-09
2.8317791e-08
1.215766445e-07
5.321066508e-07
2.312816107e-06
9.798122358e-06
3.934769417e-05
0.0001418832015
0.0004038673041
1.097940155e-09
1.09977492e-09
1.109347446e-09
1.15151494e-09
1.331147188e-09
2.089631098e-09
5.275613243e-09
1.8562127e-08
7.331155826e-08
2.945120921e-07
1.160107414e-06
4.376254664e-06
1.534204528e-05
4.752049336e-05
0.0001180706864
1.096908695e-09
1.098270835e-09
1.105210975e-09
1.134670137e-09
1.254516738e-09
1.734084639e-09
3.628436332e-09
1.099593187e-08
3.904894063e-08
1.427257029e-07
5.098393847e-07
1.730859037e-06
5.426550676e-06
1.507592315e-05
3.481913163e-05
1.096256731e-09
1.097339986e-09
1.102739723e-09
1.124935216e-09
1.211646098e-09
1.542378623e-09
2.778423994e-09
7.29097923e-09
2.328606522e-08
7.784559279e-08
2.547081907e-07
7.898848833e-07
2.2623364e-06
5.804534032e-06
1.284742681e-05
1.096510189e-09
1.097665113e-09
1.103461971e-09
1.127455591e-09
1.221983581e-09
1.586147357e-09
2.963227191e-09
8.061228123e-09
2.643546443e-08
9.03840855e-08
3.027761534e-07
9.642695106e-07
2.844491341e-06
7.51149938e-06
1.097191111e-09
1.098655557e-09
1.10615685e-09
1.138261878e-09
1.270257546e-09
1.805297388e-09
3.95227933e-09
1.246577703e-08
4.567709537e-08
1.722307704e-07
6.381037932e-07
2.265528972e-06
7.497041889e-06
2.21038331e-05
1.098274005e-09
1.100259853e-09
1.11068631e-09
1.157079859e-09
1.357317665e-09
2.216775115e-09
5.901878903e-09
2.167730741e-08
8.891930875e-08
3.728992018e-07
1.551113217e-06
6.280968231e-06
2.412697097e-05
8.359278631e-05
1.099263711e-09
1.101766286e-09
1.115160784e-09
1.176565617e-09
1.451844498e-09
2.68915014e-09
8.298662792e-09
3.400135767e-08
1.531219547e-07
7.113651982e-07
3.350179362e-06
1.584000031e-05
7.394509429e-05
0.0003271102227
1.099664781e-09
1.102391857e-09
1.117103968e-09
1.185410504e-09
1.496909793e-09
2.928938686e-09
9.620411644e-09
4.158077535e-08
1.98618987e-07
9.988540794e-07
5.269653646e-06
2.939824649e-05
0.0001751274613
0.001122177426
0.007778383848
1.099260983e-09
1.101763428e-09
1.115158211e-09
1.176563244e-09
1.451842529e-09
2.689148499e-09
8.298652457e-09
3.400124184e-08
1.531208534e-07
7.113562256e-07
3.350107788e-06
1.583942661e-05
7.394046409e-05
0.0003270717577
0.0012051619
1.098268211e-09
1.10025412e-09
1.11068098e-09
1.157074906e-09
1.357314364e-09
2.216773967e-09
5.901869994e-09
2.167717918e-08
8.891815756e-08
3.728906517e-07
1.551055247e-06
6.280598303e-06
2.412473568e-05
8.358041114e-05
0.0002314890019
1.097181979e-09
1.098647099e-09
1.10614917e-09
1.138255417e-09
1.270252686e-09
1.805293837e-09
3.952263519e-09
1.246564187e-08
4.567613158e-08
1.722248548e-07
6.380705516e-07
2.265355894e-06
7.496213172e-06
2.210033181e-05
5.336606376e-05
1.096496525e-09
1.097655175e-09
1.103454668e-09
1.127450808e-09
1.221981355e-09
1.586146422e-09
2.963214268e-09
8.061111541e-09
2.64347241e-08
9.038008343e-08
3.027565868e-07
9.641826264e-07
2.844143177e-06
7.510274536e-06
1.690601569e-05
1.096267714e-09
1.097347239e-09
1.102744689e-09
1.124938821e-09
1.211651199e-09
1.542396967e-09
2.778507228e-09
7.291350743e-09
2.328766802e-08
7.785225016e-08
2.547347084e-07
7.899841605e-07
2.262679392e-06
5.805589382e-06
1.096915117e-09
1.098276768e-09
1.105216235e-09
1.134675468e-09
1.254525064e-09
1.7341107e-09
3.628548655e-09
1.099645053e-08
3.905133756e-08
1.427365607e-07
5.098870923e-07
1.731058646e-06
5.427326135e-06
1.507859192e-05
1.097943471e-09
1.099778223e-09
1.109351008e-09
1.151519915e-09
1.331159064e-09
2.089677899e-09
5.275826825e-09
1.856313851e-08
7.3316398e-08
2.945351935e-07
1.160216374e-06
4.376754605e-06
1.534421868e-05
4.752897553e-05
1.098881502e-09
1.101182654e-09
1.113408406e-09
1.168800643e-09
1.413293068e-09
2.490469128e-09
7.249051137e-09
2.831939127e-08
1.215846338e-07
5.321470237e-07
2.313021936e-06
9.799171468e-06
3.935293343e-05
0.0001419075863
1.099260994e-09
1.10176366e-09
1.115158636e-09
1.176565589e-09
1.451853947e-09
2.689203316e-09
8.298919488e-09
3.400256328e-08
1.531276527e-07
7.113921807e-07
3.35030638e-06
1.584058274e-05
7.394758062e-05
0.0003271184515
1.098878756e-09
1.101179782e-09
1.11340557e-09
1.168798142e-09
1.413291053e-09
2.490467637e-09
7.24904353e-09
2.831931308e-08
1.215839391e-07
5.32141899e-07
2.312987467e-06
9.798962224e-06
3.935180643e-05
0.0001419032687
1.097937812e-09
1.099772688e-09
1.10934581e-09
1.151515236e-09
1.33115524e-09
2.089674618e-09
5.275812875e-09
1.856301636e-08
7.331547029e-08
2.94529144e-07
1.160180828e-06
4.376560982e-06
1.534326571e-05
4.752486673e-05
0.0001180845456
1.096906379e-09
1.098268621e-09
1.10520907e-09
1.134669392e-09
1.254520389e-09
1.734106395e-09
3.628532754e-09
1.099633223e-08
3.905056609e-08
1.427321489e-07
5.098641624e-07
1.730949889e-06
5.426859744e-06
1.507684552e-05
3.482124004e-05
1.09625474e-09
1.097337855e-09
1.102737882e-09
1.124934273e-09
1.211648369e-09
1.542392995e-09
2.778484283e-09
7.291209351e-09
2.328691599e-08
7.78486174e-08
2.547185255e-07
7.899177752e-07
2.262432452e-06
5.804774965e-06
1.284788376e-05
1.095664921e-09
1.096563311e-09
1.101010053e-09
1.118982795e-09
1.187712998e-09
1.443458354e-09
2.372963871e-09
5.66220884e-09
1.692342396e-08
5.388975767e-08
1.688180567e-07
5.016020229e-07
1.37862055e-06
3.417689782e-06
1.096230811e-09
1.097348261e-09
1.102970492e-09
1.126345922e-09
1.218998433e-09
1.578609439e-09
2.950203575e-09
8.075085009e-09
2.671612462e-08
9.211090071e-08
3.104431246e-07
9.909074003e-07
2.914596516e-06
7.63670559e-06
1.097127097e-09
1.098608019e-09
1.106213999e-09
1.138897856e-09
1.273868778e-09
1.8232216e-09
4.034125651e-09
1.280671361e-08
4.691969968e-08
1.7573824e-07
6.417509703e-07
2.223672459e-06
7.099418059e-06
2.000564341e-05
1.097940455e-09
1.099775462e-09
1.109348585e-09
1.15151882e-09
1.331162666e-09
2.089700343e-09
5.275925964e-09
1.856355153e-08
7.331806191e-08
2.945415848e-07
1.160239513e-06
4.3768283e-06
1.534440269e-05
4.752917854e-05
1.098268297e-09
1.100254346e-09
1.11068157e-09
1.157077787e-09
1.357326203e-09
2.216828679e-09
5.902125502e-09
2.167838541e-08
8.892389908e-08
3.729182147e-07
1.551188962e-06
6.281244892e-06
2.41278016e-05
8.359407037e-05
1.097938119e-09
1.099772916e-09
1.10934604e-09
1.151516337e-09
1.331160117e-09
2.089695808e-09
5.275910015e-09
1.856346691e-08
7.331756064e-08
2.945388286e-07
1.160224929e-06
4.37675776e-06
1.534410989e-05
4.75282644e-05
1.09712194e-09
1.098602933e-09
1.106209081e-09
1.138893076e-09
1.273863814e-09
1.823212532e-09
4.03409356e-09
1.280655466e-08
4.691889662e-08
1.757342928e-07
6.417328871e-07
2.223597423e-06
7.099161207e-06
2.000515727e-05
1.096222765e-09
1.097340707e-09
1.102963867e-09
1.126340291e-09
1.218993419e-09
1.578603131e-09
2.950182917e-09
8.074975161e-09
2.671555186e-08
9.210815206e-08
3.104309298e-07
9.908581117e-07
2.91441935e-06
7.636155712e-06
1.706257443e-05
1.095652659e-09
1.096554603e-09
1.101003994e-09
1.118978936e-09
1.187710575e-09
1.44345504e-09
2.372945334e-09
5.662104404e-09
1.692291184e-08
5.388747894e-08
1.688087179e-07
5.015668687e-07
1.378500265e-06
3.417318415e-06
7.441798031e-06
1.094993984e-09
1.095700956e-09
1.099153387e-09
1.112783878e-09
1.163413542e-09
1.345636983e-09
1.983952584e-09
4.153808292e-09
1.126836876e-08
3.357813155e-08
9.973894185e-08
2.82595299e-07
7.448010199e-07
1.788774703e-06
1.095472508e-09
1.096335371e-09
1.10060324e-09
1.117856576e-09
1.183898607e-09
1.430116403e-09
2.327774726e-09
5.518364344e-09
1.650517834e-08
5.282814503e-08
1.666882824e-07
4.993018097e-07
1.383306975e-06
3.45147933e-06
1.096227772e-09
1.097345705e-09
1.10296869e-09
1.126345263e-09
1.219000019e-09
1.578618122e-09
2.950237362e-09
8.075206229e-09
2.671653865e-08
9.211224228e-08
3.10447053e-07
9.909171553e-07
2.914614698e-06
7.636720042e-06
1.096909249e-09
1.098271389e-09
1.105211911e-09
1.134673241e-09
1.254528745e-09
1.734135045e-09
3.628650692e-09
1.099684445e-08
3.905277516e-08
1.427415471e-07
5.099028972e-07
1.731102312e-06
5.427417683e-06
1.507867475e-05
1.097182252e-09
1.098647512e-09
1.106149983e-09
1.138257983e-09
1.270262891e-09
1.805337266e-09
3.952452677e-09
1.246646601e-08
4.567972454e-08
1.722403118e-07
6.381359836e-07
2.265624536e-06
7.49725811e-06
2.210401016e-05
1.096906726e-09
1.098268919e-09
1.105209464e-09
1.134670799e-09
1.25452609e-09
1.73413014e-09
3.628635252e-09
1.099677377e-08
3.905245594e-08
1.427400941e-07
5.098966672e-07
1.731077471e-06
5.427330692e-06
1.50784242e-05
1.09622273e-09
1.097340805e-09
1.10296399e-09
1.126340581e-09
1.218994668e-09
1.578608247e-09
2.950205456e-09
8.075076423e-09
2.671599134e-08
9.210999982e-08
3.104384527e-07
9.908874881e-07
2.914529302e-06
7.636553466e-06
1.095464944e-09
1.096328418e-09
1.100597145e-09
1.117851338e-09
1.183893414e-09
1.430108077e-09
2.3277485e-09
5.51825628e-09
1.650472982e-08
5.282637382e-08
1.666818285e-07
4.992808744e-07
1.383251734e-06
3.451409932e-06
1.094982725e-09
1.09569341e-09
1.099148392e-09
1.112781152e-09
1.163412223e-09
1.345634554e-09
1.983938302e-09
4.153734897e-09
1.126804476e-08
3.357683893e-08
9.973422681e-08
2.825796624e-07
7.44754617e-07
1.788651185e-06
3.844155919e-06
1.09456453e-09
1.095156138e-09
1.098003637e-09
1.109022848e-09
1.148943998e-09
1.288535901e-09
1.761960361e-09
3.315178177e-09
8.216571621e-09
2.297760646e-08
6.498414097e-08
1.765646373e-07
4.49163216e-07
1.051644191e-06
1.094989549e-09
1.095699675e-09
1.099153817e-09
1.112786089e-09
1.163417644e-09
1.345645242e-09
1.98397298e-09
4.153866301e-09
1.126853572e-08
3.357859849e-08
9.974014681e-08
2.825979791e-07
7.448058769e-07
1.788780278e-06
1.095657495e-09
1.096559361e-09
1.101008637e-09
1.118983957e-09
1.187718208e-09
1.443473471e-09
2.373009389e-09
5.662352732e-09
1.692387054e-08
5.389106353e-08
1.688215063e-07
5.016098449e-07
1.378633626e-06
3.417697505e-06
1.096257353e-09
1.097340586e-09
1.102740809e-09
1.124938204e-09
1.211656577e-09
1.542419307e-09
2.778585964e-09
7.291620688e-09
2.328855866e-08
7.785499523e-08
2.547422771e-07
7.900017734e-07
2.262707725e-06
5.805591206e-06
1.096497065e-09
1.097655695e-09
1.103455486e-09
1.127453166e-09
1.221989977e-09
1.586181292e-09
2.963357844e-09
8.061695992e-09
2.643706205e-08
9.038919056e-08
3.027910119e-07
9.643063998e-07
2.844557728e-06
7.511526559e-06
1.096255018e-09
1.09733824e-09
1.102738386e-09
1.124935677e-09
1.211653775e-09
1.542414568e-09
2.778571893e-09
7.291566529e-09
2.328833962e-08
7.785413738e-08
2.547391139e-07
7.899908131e-07
2.262674009e-06
5.805499774e-06
1.095652883e-09
1.096554909e-09
1.101004193e-09
1.118979703e-09
1.18771343e-09
1.443465597e-09
2.372987605e-09
5.662271022e-09
1.69235554e-08
5.388989358e-08
1.688174483e-07
5.015970402e-07
1.378598723e-06
3.417621736e-06
1.094982726e-09
1.095693432e-09
1.099148497e-09
1.11278137e-09
1.163413372e-09
1.345639019e-09
1.98395513e-09
4.153797738e-09
1.126827118e-08
3.357763722e-08
9.973696122e-08
2.825887736e-07
7.447842192e-07
1.788748988e-06
1.094555185e-09
1.09515049e-09
1.098000577e-09
1.109021883e-09
1.148944744e-09
1.288536708e-09
1.761954768e-09
3.315138636e-09
8.216394621e-09
2.297693404e-08
6.498191936e-08
1.765583472e-07
4.491496933e-07
1.051635103e-06
)
;

boundaryField
{
    top
    {
        type            zeroGradient;
    }
    bottom
    {
        type            zeroGradient;
    }
    side-walls
    {
        type            zeroGradient;
    }
    inlet
    {
        type            zeroGradient;
    }
    outlet
    {
        type            zeroGradient;
    }
    procBoundary0to1
    {
        type            processor;
        value           nonuniform List<scalar> 
97
(
4.302903204e-06
3.844179588e-06
7.321391775e-06
1.399165033e-05
2.377005595e-05
3.075580645e-05
2.376980597e-05
1.39913239e-05
7.321078173e-06
4.302675011e-06
3.844179588e-06
3.844179588e-06
1.413045515e-05
1.706276269e-05
3.126983268e-05
6.174699763e-05
9.051813352e-05
6.174584659e-05
3.12687196e-05
1.412979334e-05
7.321092504e-06
7.441920622e-06
1.706276269e-05
1.706276269e-05
8.192756356e-05
0.0001180873087
0.0001946616671
0.0003423946591
0.0001946563848
8.192391638e-05
3.126870538e-05
1.399132533e-05
1.284826966e-05
3.48222467e-05
0.0001180873087
0.0001180873087
0.0005813334239
0.001205302904
0.001340525477
0.0005813159038
0.0001946566004
6.174599035e-05
2.376986644e-05
1.690697369e-05
5.336974972e-05
0.0002315092934
0.001205302904
0.001205302904
0.00461104552
0.001205302857
0.001340525765
0.0004039074718
0.0003423955786
9.051825248e-05
3.075594165e-05
1.284825326e-05
3.482150353e-05
0.000118080052
0.000403902643
0.001205302857
0.0004039074718
0.0004039074718
0.0001946612211
4.651981186e-05
6.174752456e-05
2.3770351e-05
7.441741383e-06
1.706148057e-05
4.651749522e-05
0.0001180802419
0.000231510001
0.0001180798071
4.651981186e-05
4.651981186e-05
3.126980068e-05
7.536899062e-06
1.399182758e-05
3.843897017e-06
7.536437454e-06
1.706149326e-05
3.482161184e-05
5.33698102e-05
3.482128219e-05
1.706158862e-05
7.536899062e-06
7.536899062e-06
7.32135748e-06
2.237717629e-06
2.237586419e-06
3.843908148e-06
7.441750283e-06
1.284823554e-05
1.690695855e-05
1.284808653e-05
7.441674597e-06
3.843949804e-06
2.237717629e-06
)
;
    }
}


// ************************************************************************* //
