/*--------------------------------*- C++ -*----------------------------------*\
| =========                 |                                                 |
| \\      /  F ield         | OpenFOAM: The Open Source CFD Toolbox           |
|  \\    /   O peration     | Version:  4.x                                   |
|   \\  /    A nd           | Web:      www.OpenFOAM.org                      |
|    \\/     M anipulation  |                                                 |
\*---------------------------------------------------------------------------*/
FoamFile
{
    version     2.0;
    format      ascii;
    class       volScalarField;
    location    "6000";
    object      Cpv;
}
// * * * * * * * * * * * * * * * * * * * * * * * * * * * * * * * * * * * * * //

dimensions      [0 2 -2 -1 0 0 0];

internalField   nonuniform List<scalar> 
1175
(
1210.459966
1210.459979
1210.459977
1210.459962
1210.459971
1210.459989
1210.459979
1210.45996
1210.459934
1210.459943
1210.459955
1210.459956
1210.459962
1210.459999
1210.460077
1210.460536
1210.460532
1210.460511
1210.460527
1210.460539
1210.460541
1210.460525
1210.460529
1210.460529
1210.460538
1210.460524
1210.460541
1210.460566
1210.460614
1210.460752
1210.459678
1210.459691
1210.459702
1210.459685
1210.45969
1210.459669
1210.459668
1210.459695
1210.459707
1210.45972
1210.459725
1210.459729
1210.459774
1210.459915
1210.460174
1210.459616
1210.459612
1210.459621
1210.459616
1210.459606
1210.459618
1210.45962
1210.459617
1210.459621
1210.459614
1210.459628
1210.459679
1210.459766
1210.459979
1210.460421
1210.459355
1210.459368
1210.459369
1210.45938
1210.459372
1210.459387
1210.459371
1210.459398
1210.459411
1210.45941
1210.459396
1210.459461
1210.459591
1210.459892
1210.460486
1210.459902
1210.459886
1210.45988
1210.459882
1210.459902
1210.459918
1210.459894
1210.459895
1210.4599
1210.459915
1210.459899
1210.459936
1210.460062
1210.460287
1210.460722
1210.4601
1210.460101
1210.460091
1210.460113
1210.460106
1210.460089
1210.460062
1210.460054
1210.460077
1210.460068
1210.46008
1210.460092
1210.460166
1210.460284
1210.460552
1210.459595
1210.459611
1210.459624
1210.459631
1210.459642
1210.459648
1210.459657
1210.459657
1210.459633
1210.459638
1210.45965
1210.459665
1210.459684
1210.459741
1210.45988
1210.459769
1210.459771
1210.459773
1210.459731
1210.459726
1210.459737
1210.459745
1210.459744
1210.459732
1210.459734
1210.459739
1210.45977
1210.459773
1210.459817
1210.459882
1210.460048
1210.460038
1210.460052
1210.460045
1210.460078
1210.460075
1210.460064
1210.460048
1210.460057
1210.460024
1210.460028
1210.460034
1210.460077
1210.460148
1210.458574
1210.458571
1210.458562
1210.458557
1210.458576
1210.45859
1210.458591
1210.458618
1210.458654
1210.458646
1210.458652
1210.45866
1210.458695
1210.458843
1210.459117
1210.459213
1210.459217
1210.45924
1210.45923
1210.459224
1210.459218
1210.459203
1210.459172
1210.45916
1210.459147
1210.459182
1210.459234
1210.459348
1210.459654
1210.46024
1210.459762
1210.459767
1210.459763
1210.459768
1210.459758
1210.459751
1210.459781
1210.459738
1210.459727
1210.459731
1210.459757
1210.459827
1210.460078
1210.460718
1210.461995
1210.46102
1210.461028
1210.461038
1210.461026
1210.461019
1210.461019
1210.461044
1210.461023
1210.461054
1210.461065
1210.461089
1210.461194
1210.461561
1210.462483
1210.464459
1210.45987
1210.459874
1210.459892
1210.459908
1210.459922
1210.459906
1210.459936
1210.459952
1210.459958
1210.459982
1210.460015
1210.460078
1210.4603
1210.460889
1210.462142
1210.459743
1210.459759
1210.459755
1210.459747
1210.459748
1210.45976
1210.459756
1210.459767
1210.459758
1210.459776
1210.459798
1210.459867
1210.460014
1210.460309
1210.460929
1210.46015
1210.46015
1210.460133
1210.460125
1210.460156
1210.460152
1210.460156
1210.460162
1210.460166
1210.460153
1210.460153
1210.460173
1210.460222
1210.460345
1210.460607
1210.459934
1210.459958
1210.459951
1210.459969
1210.459968
1210.45995
1210.459943
1210.459962
1210.459954
1210.459959
1210.459947
1210.459948
1210.459994
1210.460062
1210.460193
1210.460048
1210.460053
1210.460041
1210.460034
1210.460045
1210.460041
1210.46004
1210.460028
1210.460014
1210.46003
1210.460023
1210.460035
1210.460095
1210.460217
1210.460759
1210.460767
1210.460757
1210.460761
1210.46074
1210.460722
1210.460708
1210.460708
1210.46073
1210.460742
1210.460768
1210.460848
1210.460957
1210.461239
1210.459687
1210.459688
1210.459674
1210.459678
1210.459684
1210.459686
1210.459671
1210.459675
1210.459688
1210.459678
1210.459707
1210.459802
1210.460102
1210.460909
1210.462586
1210.460491
1210.460492
1210.460478
1210.460458
1210.460435
1210.460448
1210.460457
1210.460439
1210.460431
1210.460467
1210.460509
1210.4607
1210.46136
1210.463392
1210.467883
1210.460415
1210.46042
1210.460413
1210.460407
1210.460415
1210.460379
1210.460384
1210.460402
1210.460408
1210.460415
1210.460462
1210.460765
1210.461914
1210.465679
1210.475012
1210.459364
1210.459354
1210.459391
1210.459385
1210.459397
1210.459398
1210.45938
1210.459381
1210.459403
1210.459407
1210.459461
1210.459667
1210.460371
1210.462411
1210.466865
1210.459955
1210.459962
1210.459951
1210.459944
1210.459933
1210.459947
1210.459934
1210.459932
1210.459945
1210.459962
1210.459994
1210.460089
1210.460411
1210.461232
1210.462887
1210.459166
1210.45915
1210.459167
1210.459194
1210.459197
1210.459197
1210.459193
1210.459193
1210.459207
1210.459231
1210.459219
1210.459264
1210.459399
1210.459696
1210.460293
1210.459538
1210.459544
1210.45955
1210.459536
1210.459528
1210.459532
1210.459536
1210.459529
1210.459543
1210.459534
1210.459565
1210.459581
1210.459649
1210.459787
1210.460029
1210.459304
1210.459302
1210.459308
1210.459299
1210.459318
1210.459302
1210.4593
1210.459347
1210.459357
1210.459386
1210.459391
1210.459449
1210.459521
1210.459735
1210.45959
1210.459564
1210.459543
1210.459541
1210.459555
1210.459529
1210.45955
1210.459545
1210.459528
1210.459534
1210.459551
1210.459617
1210.459858
1210.460455
1210.459481
1210.459502
1210.459498
1210.45951
1210.459501
1210.459516
1210.459506
1210.459505
1210.459486
1210.459504
1210.459561
1210.459765
1210.460428
1210.462471
1210.460699
1210.4607
1210.460705
1210.460707
1210.460694
1210.46068
1210.460681
1210.460665
1210.460678
1210.460705
1210.460829
1210.461304
1210.463166
1210.469666
1210.486222
1210.459267
1210.459285
1210.459267
1210.459283
1210.459297
1210.459295
1210.459294
1210.459294
1210.459306
1210.459335
1210.459501
1210.460311
1210.463949
1210.479976
1210.535048
1210.459351
1210.459363
1210.459346
1210.459363
1210.459369
1210.459371
1210.459389
1210.459376
1210.459395
1210.459417
1210.459534
1210.460015
1210.461864
1210.468335
1210.484946
1210.459436
1210.459439
1210.459442
1210.459458
1210.459428
1210.459399
1210.459409
1210.459409
1210.459393
1210.459429
1210.459489
1210.459654
1210.460334
1210.462369
1210.466822
1210.460521
1210.460524
1210.460501
1210.460486
1210.460527
1210.460523
1210.460503
1210.460495
1210.460512
1210.460521
1210.460547
1210.460623
1210.46084
1210.461464
1210.462684
1210.459334
1210.459337
1210.459325
1210.459326
1210.459331
1210.459335
1210.459343
1210.459353
1210.459363
1210.459371
1210.459388
1210.45941
1210.459488
1210.459712
1210.460158
1210.459933
1210.459947
1210.459964
1210.459951
1210.459941
1210.459944
1210.459918
1210.459915
1210.459912
1210.459916
1210.459931
1210.459957
1210.460076
1210.460365
1210.459773
1210.459783
1210.459784
1210.459799
1210.459784
1210.4598
1210.45981
1210.4598
1210.459795
1210.459822
1210.459849
1210.459924
1210.460246
1210.461167
1210.460193
1210.460181
1210.460187
1210.460195
1210.460183
1210.460205
1210.460186
1210.460213
1210.460214
1210.460254
1210.460331
1210.460614
1210.461748
1210.46549
1210.459295
1210.459277
1210.459293
1210.459259
1210.459233
1210.459233
1210.459207
1210.459212
1210.459231
1210.459288
1210.459454
1210.460223
1210.463904
1210.479939
1210.459377
1210.459374
1210.459378
1210.459374
1210.459372
1210.459348
1210.459374
1210.45936
1210.459397
1210.459438
1210.459726
1210.46126
1210.470499
1210.530438
1210.158758
1210.459166
1210.459182
1210.459185
1210.459179
1210.459198
1210.459211
1210.459212
1210.459225
1210.459209
1210.459266
1210.459444
1210.460231
1210.46391
1210.47997
1210.534983
1210.460233
1210.46023
1210.460218
1210.460204
1210.460206
1210.460222
1210.460237
1210.460247
1210.460264
1210.460259
1210.460331
1210.460628
1210.461778
1210.465531
1210.474868
1210.459512
1210.45952
1210.459524
1210.459547
1210.459534
1210.459555
1210.459539
1210.459547
1210.459549
1210.459534
1210.459573
1210.459656
1210.460012
1210.460924
1210.462903
1210.459638
1210.459648
1210.459659
1210.459644
1210.459657
1210.459653
1210.459647
1210.459652
1210.459646
1210.459636
1210.45966
1210.459703
1210.45982
1210.460127
1210.460741
1210.460767
1210.460771
1210.46075
1210.460752
1210.460746
1210.460729
1210.460728
1210.460719
1210.460726
1210.460743
1210.460756
1210.460794
1210.460892
1210.461119
1210.459815
1210.459812
1210.459823
1210.459793
1210.459803
1210.459806
1210.459794
1210.459813
1210.459787
1210.459785
1210.459776
1210.459868
1210.460099
1210.460732
1210.459911
1210.459899
1210.459871
1210.459878
1210.459896
1210.459868
1210.459849
1210.459871
1210.459851
1210.459865
1210.459936
1210.460145
1210.460834
1210.462896
1210.459376
1210.459375
1210.459381
1210.45936
1210.459351
1210.45936
1210.459352
1210.459356
1210.459384
1210.459418
1210.459505
1210.459975
1210.461844
1210.468339
1210.460601
1210.460609
1210.460606
1210.460611
1210.460582
1210.460596
1210.460618
1210.460624
1210.460615
1210.460665
1210.460855
1210.461636
1210.465287
1210.481306
1210.459274
1210.459283
1210.459292
1210.459285
1210.459309
1210.459302
1210.459323
1210.459307
1210.459324
1210.459353
1210.459488
1210.459941
1210.461798
1210.468261
1210.459867
1210.459883
1210.459846
1210.459848
1210.459856
1210.459857
1210.459853
1210.459864
1210.459877
1210.459896
1210.459957
1210.460173
1210.460868
1210.462907
1210.467347
1210.460144
1210.460116
1210.46012
1210.46013
1210.460128
1210.460119
1210.460121
1210.46009
1210.460094
1210.4601
1210.460115
1210.460217
1210.460448
1210.461034
1210.462286
1210.45974
1210.459753
1210.459764
1210.459748
1210.459747
1210.459757
1210.459749
1210.45974
1210.459734
1210.459745
1210.459749
1210.459788
1210.459862
1210.46008
1210.460503
1210.459793
1210.459794
1210.459794
1210.459789
1210.459802
1210.459828
1210.459823
1210.459803
1210.4598
1210.459824
1210.459831
1210.459851
1210.459886
1210.460013
1210.459476
1210.459468
1210.459472
1210.459465
1210.459475
1210.459499
1210.459541
1210.459552
1210.459531
1210.459526
1210.459528
1210.459568
1210.459686
1210.45999
1210.460361
1210.460363
1210.460337
1210.460338
1210.460321
1210.460328
1210.460339
1210.460348
1210.460348
1210.460361
1210.460365
1210.460472
1210.460782
1210.461588
1210.459965
1210.459947
1210.459933
1210.459917
1210.459915
1210.459922
1210.459912
1210.459898
1210.459906
1210.459908
1210.459949
1210.460146
1210.460831
1210.462834
1210.460281
1210.460273
1210.460275
1210.460278
1210.46026
1210.460262
1210.460263
1210.460264
1210.460278
1210.4603
1210.46038
1210.460663
1210.461796
1210.465572
1210.459722
1210.459737
1210.459727
1210.45971
1210.459708
1210.459724
1210.459747
1210.45972
1210.459729
1210.459731
1210.459741
1210.459978
1210.460696
1210.462749
1210.45953
1210.459523
1210.459538
1210.459539
1210.459527
1210.459551
1210.459548
1210.45954
1210.459544
1210.459539
1210.459544
1210.459603
1210.459912
1210.46072
1210.459803
1210.459802
1210.459801
1210.459802
1210.459809
1210.459801
1210.459778
1210.459791
1210.459797
1210.459826
1210.459843
1210.459912
1210.460054
1210.460372
1210.460983
1210.459378
1210.459391
1210.459397
1210.459409
1210.459429
1210.459429
1210.45942
1210.459411
1210.4594
1210.459398
1210.459392
1210.459417
1210.459479
1210.459603
1210.459853
1210.459789
1210.459803
1210.459822
1210.459838
1210.459842
1210.459841
1210.459814
1210.459804
1210.459796
1210.459795
1210.459808
1210.459825
1210.459855
1210.459925
1210.459392
1210.459403
1210.45944
1210.459455
1210.459433
1210.459433
1210.459445
1210.459431
1210.459426
1210.459462
1210.459475
1210.459507
1210.459584
1210.459733
1210.459449
1210.45943
1210.459418
1210.459417
1210.459409
1210.459415
1210.459429
1210.459428
1210.45945
1210.459409
1210.459429
1210.459483
1210.459601
1210.459914
1210.460051
1210.460067
1210.460077
1210.460056
1210.460077
1210.460075
1210.460055
1210.46003
1210.460051
1210.460067
1210.460113
1210.46019
1210.460436
1210.46102
1210.459503
1210.459494
1210.459504
1210.459454
1210.459439
1210.459443
1210.459443
1210.459451
1210.459439
1210.459477
1210.459501
1210.459582
1210.459909
1210.460814
1210.459886
1210.459878
1210.4599
1210.459898
1210.459889
1210.459882
1210.459867
1210.45986
1210.459883
1210.459885
1210.459936
1210.459993
1210.460227
1210.46084
1210.458444
1210.458426
1210.458417
1210.458425
1210.458405
1210.458407
1210.458394
1210.458405
1210.458428
1210.458426
1210.458447
1210.458505
1210.458602
1210.458911
1210.45856
1210.458545
1210.45854
1210.458535
1210.458534
1210.458513
1210.45853
1210.458517
1210.458526
1210.458543
1210.458537
1210.458566
1210.458604
1210.458711
1210.459436
1210.459442
1210.459452
1210.45944
1210.459433
1210.459423
1210.459432
1210.459438
1210.459427
1210.459424
1210.459424
1210.45944
1210.459492
1210.459582
1210.459725
1210.45927
1210.459252
1210.459258
1210.459247
1210.459256
1210.459259
1210.45927
1210.459254
1210.459273
1210.45927
1210.459271
1210.459273
1210.459303
1210.459342
1210.46019
1210.460191
1210.460196
1210.46019
1210.460179
1210.460195
1210.460203
1210.460208
1210.4602
1210.460186
1210.460176
1210.460195
1210.460252
1210.460324
1210.459924
1210.459927
1210.459915
1210.459908
1210.459892
1210.459896
1210.459919
1210.45991
1210.459894
1210.459916
1210.459937
1210.45995
1210.459994
1210.460138
1210.459423
1210.459438
1210.459455
1210.459442
1210.459432
1210.459431
1210.459423
1210.459415
1210.459403
1210.45941
1210.459433
1210.459469
1210.459559
1210.459774
1210.459592
1210.459584
1210.45958
1210.459573
1210.459565
1210.459569
1210.459575
1210.459578
1210.459573
1210.459583
1210.459594
1210.459622
1210.459745
1210.460027
1210.45918
1210.459182
1210.459206
1210.459215
1210.4592
1210.459185
1210.459168
1210.459176
1210.459162
1210.459167
1210.45918
1210.459216
1210.459318
1210.459557
1210.459649
1210.459642
1210.459633
1210.459619
1210.459634
1210.459638
1210.459627
1210.45964
1210.45964
1210.459637
1210.459657
1210.459662
1210.459714
1210.459856
1210.460152
1210.460145
1210.46015
1210.460143
1210.460133
1210.460143
1210.460132
1210.460124
1210.460117
1210.460107
1210.460112
1210.460112
1210.460135
1210.460207
1210.459629
1210.459642
1210.459636
1210.459633
1210.459631
1210.459638
1210.459633
1210.459622
1210.459638
1210.459644
1210.459648
1210.45965
1210.459652
1210.459691
)
;

boundaryField
{
    top
    {
        type            calculated;
        value           nonuniform List<scalar> 
134
(
1210.459769
1210.459934
1210.459538
1210.459334
1210.459638
1210.45974
1210.459378
1210.459436
1210.459629
1210.459771
1210.459958
1210.459544
1210.459337
1210.459648
1210.459753
1210.459391
1210.459442
1210.459642
1210.459773
1210.459951
1210.45955
1210.459325
1210.459659
1210.459764
1210.459397
1210.459452
1210.459636
1210.459731
1210.459969
1210.459536
1210.459326
1210.459644
1210.459748
1210.459409
1210.45944
1210.459633
1210.459726
1210.459968
1210.459528
1210.459331
1210.459657
1210.459747
1210.459429
1210.459433
1210.459631
1210.459737
1210.45995
1210.459532
1210.459335
1210.459653
1210.459757
1210.459429
1210.459423
1210.459638
1210.459745
1210.459943
1210.459536
1210.459343
1210.459647
1210.459749
1210.45942
1210.459432
1210.459633
1210.459744
1210.459962
1210.459529
1210.459353
1210.459652
1210.45974
1210.459411
1210.459438
1210.459622
1210.459732
1210.459954
1210.459543
1210.459363
1210.459646
1210.459734
1210.4594
1210.459427
1210.459638
1210.459734
1210.459959
1210.459534
1210.459371
1210.459636
1210.459745
1210.459398
1210.459424
1210.459644
1210.459739
1210.459947
1210.459565
1210.459388
1210.45966
1210.459749
1210.459392
1210.459424
1210.459648
1210.45977
1210.459948
1210.459581
1210.45941
1210.459703
1210.459788
1210.459417
1210.45944
1210.45965
1210.459773
1210.459994
1210.459649
1210.459488
1210.45982
1210.459862
1210.459479
1210.459492
1210.459652
1210.459817
1210.460062
1210.459787
1210.459712
1210.460127
1210.46008
1210.459603
1210.459582
1210.459691
1210.459882
1210.460193
1210.460029
1210.460158
1210.460741
1210.460503
1210.459853
1210.459725
)
;
    }
    bottom
    {
        type            calculated;
        value           nonuniform List<scalar> 
127
(
1210.459966
1210.460048
1210.460048
1210.459304
1210.459933
1210.460767
1210.459793
1210.459789
1210.45927
1210.459979
1210.460038
1210.460053
1210.459302
1210.459947
1210.460771
1210.459794
1210.459803
1210.459252
1210.459977
1210.460052
1210.460041
1210.459308
1210.459964
1210.46075
1210.459794
1210.459822
1210.459258
1210.459962
1210.460045
1210.460034
1210.459299
1210.459951
1210.460752
1210.459789
1210.459838
1210.459247
1210.459971
1210.460078
1210.460045
1210.459318
1210.459941
1210.460746
1210.459802
1210.459842
1210.459256
1210.459989
1210.460075
1210.460041
1210.459302
1210.459944
1210.460729
1210.459828
1210.459841
1210.459259
1210.459979
1210.460064
1210.46004
1210.4593
1210.459918
1210.460728
1210.459823
1210.459814
1210.45927
1210.45996
1210.460048
1210.460028
1210.459347
1210.459915
1210.460719
1210.459803
1210.459804
1210.459254
1210.459934
1210.460057
1210.460014
1210.459357
1210.459912
1210.460726
1210.4598
1210.459796
1210.459273
1210.459943
1210.460024
1210.46003
1210.459386
1210.459916
1210.460743
1210.459824
1210.459795
1210.45927
1210.459955
1210.460028
1210.460023
1210.459391
1210.459931
1210.460756
1210.459831
1210.459808
1210.459271
1210.459956
1210.460034
1210.460035
1210.459449
1210.459957
1210.460794
1210.459851
1210.459825
1210.459273
1210.459962
1210.460077
1210.460095
1210.459521
1210.460076
1210.460892
1210.459886
1210.459855
1210.459303
1210.459999
1210.460148
1210.460217
1210.459735
1210.460365
1210.461119
1210.460013
1210.459925
1210.459342
1210.460077
)
;
    }
    side-walls
    {
        type            calculated;
        value           nonuniform List<scalar> 
261
(
1210.459966
1210.460536
1210.459678
1210.459616
1210.459355
1210.459902
1210.4601
1210.459595
1210.459769
1210.459979
1210.460532
1210.459691
1210.459612
1210.459368
1210.459886
1210.460101
1210.459611
1210.459771
1210.459977
1210.460511
1210.459702
1210.459621
1210.459369
1210.45988
1210.460091
1210.459624
1210.459773
1210.459962
1210.460527
1210.459685
1210.459616
1210.45938
1210.459882
1210.460113
1210.459631
1210.459731
1210.459971
1210.460539
1210.45969
1210.459606
1210.459372
1210.459902
1210.460106
1210.459642
1210.459726
1210.459989
1210.460541
1210.459669
1210.459618
1210.459387
1210.459918
1210.460089
1210.459648
1210.459737
1210.459979
1210.460525
1210.459668
1210.45962
1210.459371
1210.459894
1210.460062
1210.459657
1210.459745
1210.45996
1210.460529
1210.459695
1210.459617
1210.459398
1210.459895
1210.460054
1210.459657
1210.459744
1210.459934
1210.460529
1210.459707
1210.459621
1210.459411
1210.4599
1210.460077
1210.459633
1210.459732
1210.459943
1210.460538
1210.45972
1210.459614
1210.45941
1210.459915
1210.460068
1210.459638
1210.459734
1210.459955
1210.460524
1210.459725
1210.459628
1210.459396
1210.459899
1210.46008
1210.45965
1210.459739
1210.459956
1210.460541
1210.459729
1210.459679
1210.459461
1210.459936
1210.460092
1210.459665
1210.45977
1210.459962
1210.460566
1210.459774
1210.459766
1210.459591
1210.460062
1210.460166
1210.459684
1210.459773
1210.459999
1210.460614
1210.459915
1210.459979
1210.459892
1210.460287
1210.460284
1210.459741
1210.459817
1210.460077
1210.460752
1210.460174
1210.460421
1210.460486
1210.460722
1210.460552
1210.45988
1210.459882
1210.45927
1210.46019
1210.459924
1210.459423
1210.459592
1210.45918
1210.459649
1210.460152
1210.459629
1210.459252
1210.460191
1210.459927
1210.459438
1210.459584
1210.459182
1210.459642
1210.460145
1210.459642
1210.459258
1210.460196
1210.459915
1210.459455
1210.45958
1210.459206
1210.459633
1210.46015
1210.459636
1210.459247
1210.46019
1210.459908
1210.459442
1210.459573
1210.459215
1210.459619
1210.460143
1210.459633
1210.459256
1210.460179
1210.459892
1210.459432
1210.459565
1210.4592
1210.459634
1210.460133
1210.459631
1210.459259
1210.460195
1210.459896
1210.459431
1210.459569
1210.459185
1210.459638
1210.460143
1210.459638
1210.45927
1210.460203
1210.459919
1210.459423
1210.459575
1210.459168
1210.459627
1210.460132
1210.459633
1210.459254
1210.460208
1210.45991
1210.459415
1210.459578
1210.459176
1210.45964
1210.460124
1210.459622
1210.459273
1210.4602
1210.459894
1210.459403
1210.459573
1210.459162
1210.45964
1210.460117
1210.459638
1210.45927
1210.460186
1210.459916
1210.45941
1210.459583
1210.459167
1210.459637
1210.460107
1210.459644
1210.459271
1210.460176
1210.459937
1210.459433
1210.459594
1210.45918
1210.459657
1210.460112
1210.459648
1210.459273
1210.460195
1210.45995
1210.459469
1210.459622
1210.459216
1210.459662
1210.460112
1210.45965
1210.459303
1210.460252
1210.459994
1210.459559
1210.459745
1210.459318
1210.459714
1210.460135
1210.459652
1210.459342
1210.460324
1210.460138
1210.459774
1210.460027
1210.459557
1210.459856
1210.460207
1210.459691
)
;
    }
    inlet
    {
        type            calculated;
        value           nonuniform List<scalar> 
81
(
1210.459966
1210.460536
1210.459678
1210.459616
1210.459355
1210.459902
1210.4601
1210.459595
1210.459769
1210.460048
1210.458574
1210.459213
1210.459762
1210.46102
1210.45987
1210.459743
1210.46015
1210.459934
1210.460048
1210.460759
1210.459687
1210.460491
1210.460415
1210.459364
1210.459955
1210.459166
1210.459538
1210.459304
1210.45959
1210.459481
1210.460699
1210.459267
1210.459351
1210.459436
1210.460521
1210.459334
1210.459933
1210.459773
1210.460193
1210.459295
1210.459377
1210.459166
1210.460233
1210.459512
1210.459638
1210.460767
1210.459815
1210.459911
1210.459376
1210.460601
1210.459274
1210.459867
1210.460144
1210.45974
1210.459793
1210.459476
1210.460361
1210.459965
1210.460281
1210.459722
1210.45953
1210.459803
1210.459378
1210.459789
1210.459392
1210.459449
1210.460051
1210.459503
1210.459886
1210.458444
1210.45856
1210.459436
1210.45927
1210.46019
1210.459924
1210.459423
1210.459592
1210.45918
1210.459649
1210.460152
1210.459629
)
;
    }
    outlet
    {
        type            calculated;
        value           nonuniform 0();
    }
    procBoundary0to1
    {
        type            processor;
        value           nonuniform List<scalar> 
97
(
1210.460229
1210.460271
1210.460939
1210.460575
1210.461127
1210.461352
1210.461453
1210.460959
1210.460096
1210.46001
1210.460271
1210.460271
1210.45956
1210.46185
1210.461149
1210.463687
1210.466798
1210.463832
1210.461799
1210.461037
1210.46041
1210.46049
1210.46185
1210.46185
1210.464837
1210.466944
1210.47269
1210.482061
1210.471695
1210.465122
1210.461187
1210.460472
1210.460165
1210.461705
1210.466944
1210.466944
1210.497466
1210.534979
1210.543586
1210.496155
1210.471669
1210.464407
1210.460862
1210.460983
1210.463156
1210.474858
1210.534979
1210.534979
1209.959203
1210.536333
1210.543546
1210.484861
1210.481909
1210.46529
1210.461605
1210.461546
1210.46197
1210.467359
1210.484928
1210.536333
1210.484861
1210.484861
1210.472209
1210.462398
1210.463962
1210.461179
1210.460263
1210.460567
1210.46328
1210.467295
1210.474949
1210.467232
1210.462398
1210.462398
1210.461896
1210.458951
1210.46028
1210.460045
1210.459976
1210.460524
1210.462294
1210.4628
1210.462088
1210.459519
1210.458951
1210.458951
1210.459939
1210.459799
1210.459413
1210.460449
1210.460385
1210.460225
1210.460623
1210.459997
1210.460119
1210.460328
1210.459799
)
;
    }
}


// ************************************************************************* //
