/*--------------------------------*- C++ -*----------------------------------*\
| =========                 |                                                 |
| \\      /  F ield         | OpenFOAM: The Open Source CFD Toolbox           |
|  \\    /   O peration     | Version:  4.x                                   |
|   \\  /    A nd           | Web:      www.OpenFOAM.org                      |
|    \\/     M anipulation  |                                                 |
\*---------------------------------------------------------------------------*/
FoamFile
{
    version     2.0;
    format      ascii;
    class       volScalarField;
    location    "6000";
    object      molarConc;
}
// * * * * * * * * * * * * * * * * * * * * * * * * * * * * * * * * * * * * * //

dimensions      [0 -3 0 0 1 0 0];

internalField   nonuniform List<scalar> 
1175
(
9.963266725
9.963266055
9.963266127
9.963266943
9.963266489
9.963265505
9.963266023
9.963267082
9.963268517
9.963268092
9.963267593
9.963267874
9.963268519
9.963268556
9.963268385
9.963235458
9.963235635
9.96323679
9.963235947
9.963235276
9.963235187
9.96323604
9.963235847
9.96323583
9.963235445
9.96323641
9.963236128
9.963236383
9.963237379
9.963236905
9.963282537
9.963281833
9.963281217
9.963282151
9.963281927
9.963283078
9.963283123
9.963281646
9.963281007
9.963280448
9.963280588
9.963281524
9.963282077
9.963281386
9.963281146
9.963285971
9.96328619
9.963285716
9.963285939
9.963286535
9.963285857
9.963285734
9.96328596
9.963285742
9.963286344
9.963286179
9.963285263
9.963285554
9.963286172
9.963286349
9.9633003
9.963299563
9.963299548
9.963298915
9.963299395
9.96329855
9.963299436
9.963297973
9.963297306
9.963297601
9.963299084
9.963297802
9.963297206
9.963296878
9.963296845
9.963270275
9.963271147
9.963271457
9.96327137
9.96327028
9.963269379
9.96327069
9.96327067
9.963270419
9.963269822
9.963271278
9.963271146
9.963269332
9.96326927
9.96326981
9.963259386
9.963259328
9.963259891
9.963258643
9.963259053
9.963259992
9.963261451
9.963261924
9.963260688
9.96326134
9.96326105
9.963261587
9.963260536
9.963261147
9.963260383
9.963287095
9.963286252
9.96328554
9.963285156
9.963284512
9.963284218
9.963283722
9.963283722
9.963285051
9.963284867
9.96328444
9.963284258
9.963284792
9.96328531
9.963284789
9.963277568
9.963277465
9.963277347
9.963279646
9.963279951
9.963279337
9.963278873
9.963278971
9.963279597
9.963279564
9.963279444
9.963278125
9.963278875
9.963278558
9.963279137
9.963262247
9.963262794
9.963262014
9.963262425
9.963260605
9.963260758
9.96326134
9.963262248
9.963261805
9.963263658
9.963263693
9.963263964
9.963263235
9.96326293
9.963343215
9.963343355
9.963343879
9.963344135
9.9633431
9.963342347
9.963342256
9.963340806
9.963338855
9.963339418
9.963339489
9.963340185
9.963341356
9.963340429
9.963339527
9.963308087
9.963307899
9.963306614
9.963307143
9.963307491
9.96330782
9.963308631
9.963310367
9.963311098
9.963312034
9.963310861
9.963310406
9.963310807
9.963310373
9.963310897
9.963277924
9.963277686
9.963277882
9.963277609
9.963278186
9.963278537
9.963276929
9.963279314
9.963279974
9.963280137
9.963279969
9.963280372
9.963279436
9.963277795
9.963276199
9.963208826
9.963208394
9.963207847
9.963208501
9.963208909
9.963208926
9.963207526
9.963208732
9.963207157
9.963206965
9.963207266
9.963207145
9.96320515
9.963205205
9.963205221
9.963272042
9.963271794
9.963270806
9.96326995
9.963269167
9.963270029
9.963268398
9.96326753
9.963267328
9.963266333
9.963265819
9.96326657
9.963267247
9.963268396
9.963268085
9.963278973
9.963278107
9.963278335
9.963278778
9.963278721
9.963278073
9.963278273
9.963277706
9.963278262
9.963277473
9.963277064
9.96327559
9.963274199
9.963274406
9.963273094
9.963256629
9.963256625
9.963257582
9.963258037
9.963256315
9.96325654
9.963256318
9.963255993
9.963255809
9.963256632
9.963257031
9.963257094
9.963257489
9.963257876
9.963257707
9.963268513
9.963267191
9.963267589
9.963266578
9.963266651
9.963267602
9.963268
9.963266976
9.963267422
9.963267255
9.963268127
9.963268707
9.963267762
9.963267677
9.963267595
9.963262232
9.963261982
9.963262638
9.963262984
9.963262381
9.963262623
9.963262692
9.96326333
9.963264144
9.963263404
9.963264207
9.963264684
9.96326446
9.963264816
9.963223185
9.963222746
9.96322329
9.963223092
9.963224244
9.963225201
9.963226008
9.96322601
9.963224877
9.963224415
9.963223775
9.963221751
9.963222426
9.963223355
9.963282081
9.963282035
9.963282794
9.963282553
9.963282216
9.96328211
9.963282966
9.963282792
9.963282154
9.963283192
9.963283165
9.96328349
9.963283907
9.963284408
9.963284366
9.963237914
9.963237838
9.963238621
9.963239724
9.963241003
9.963240279
9.963239779
9.963240832
9.963241435
9.963240219
9.963240931
9.963241642
9.963243464
9.963243527
9.963241839
9.963242099
9.963241824
9.963242193
9.963242516
9.9632421
9.963244048
9.963243814
9.963242873
9.963242793
9.963243395
9.963244874
9.963244683
9.963243497
9.963243087
9.963243978
9.963299834
9.963300334
9.963298318
9.963298634
9.963298015
9.963297923
9.963298939
9.963298911
9.963297936
9.963298452
9.96329852
9.96329836
9.963297752
9.963297399
9.963297711
9.963267362
9.963266978
9.96326754
9.963267949
9.963268531
9.96326781
9.963268515
9.963268658
9.963268073
9.963267592
9.963267406
9.963267701
9.963266932
9.963266654
9.9632678
9.963310706
9.963311541
9.963310612
9.963309154
9.963309005
9.963309004
9.963309215
9.963309227
9.963308494
9.96330745
9.963308822
9.963308711
9.963308002
9.963308053
9.963308003
9.963290235
9.963289923
9.963289618
9.96329035
9.963290809
9.963290562
9.963290386
9.963290776
9.963290014
9.96329067
9.963289347
9.963289605
9.963288941
9.963288439
9.963289127
9.963303113
9.963303207
9.963302885
9.963303405
9.963302311
9.963303215
9.963303319
9.963300748
9.963300276
9.963298876
9.963299191
9.963297866
9.963299047
9.963299599
9.963287394
9.963288808
9.963289996
9.963290078
9.963289338
9.963290736
9.963289613
9.963289906
9.963290911
9.963290952
9.963291312
9.9632919
9.963291492
9.963292209
9.963293363
9.963292226
9.963292442
9.963291781
9.96329229
9.963291479
9.963292024
9.963292125
9.96329338
9.963293141
9.963293029
9.963292971
9.963294621
9.963294149
9.963226461
9.963226403
9.963226143
9.963226022
9.96322675
9.963227554
9.963227511
9.963228436
9.963228052
9.963227977
9.963227348
9.963227282
9.963227606
9.963226579
9.96322686
9.963305111
9.963304164
9.963305112
9.963304231
9.963303471
9.963303602
9.963303694
9.963303742
9.963303511
9.963303847
9.963303929
9.963302774
9.96330467
9.963303148
9.963326729
9.963300549
9.963299879
9.963300789
9.96329989
9.963299561
9.96329941
9.963298447
9.963299238
9.963298528
9.963298764
9.96329849
9.96329806
9.963299071
9.963299658
9.963296795
9.963295835
9.963295689
9.963295503
9.963294668
9.963296292
9.963297916
9.963297339
9.963297415
9.963298488
9.963297233
9.963296943
9.963299049
9.96329981
9.963299725
9.963300102
9.963236285
9.963236071
9.963237332
9.963238165
9.963235916
9.963236164
9.963237262
9.963237743
9.963236887
9.963236746
9.963236582
9.963236659
9.963237554
9.963236826
9.963238316
9.963301429
9.963301308
9.963301955
9.963301896
9.963301604
9.963301414
9.963300988
9.963300435
9.963299921
9.963299703
9.963299393
9.963300037
9.963300826
9.963300836
9.96330081
9.963268541
9.963267783
9.963266835
9.963267562
9.963268097
9.963267944
9.963269407
9.963269586
9.963269774
9.963269801
9.963269731
9.963270596
9.963270591
9.963270893
9.963277317
9.963276781
9.96327674
9.963275938
9.963276747
9.963275882
9.963275318
9.963275911
9.963276282
9.963275259
9.9632754
9.963276928
9.963277368
9.963277525
9.963254259
9.963254932
9.963254628
9.963254169
9.963254844
9.963253606
9.963254651
9.963253237
9.963253443
9.963252199
9.963252087
9.963252961
9.963252598
9.963253568
9.963303607
9.963304565
9.963303698
9.963305573
9.963307016
9.96330701
9.963308439
9.963308292
9.963307632
9.963306424
9.963306484
9.963307642
9.963307135
9.963305318
9.963299105
9.963299273
9.963299015
9.963299234
9.963299368
9.963300718
9.963299311
9.963300194
9.963298678
9.963299186
9.96329823
9.963297705
9.963296209
9.963291872
10.00681026
9.963310659
9.963309789
9.963309664
9.963309992
9.963308912
9.963308206
9.96330816
9.963307538
9.96330885
9.963307639
9.963307068
9.963307191
9.963306829
9.963303484
9.963330325
9.963252065
9.963252221
9.963252915
9.963253681
9.963253537
9.9632527
9.963251881
9.963251387
9.963250659
9.963251952
9.963252101
9.963252173
9.963250945
9.963251252
9.963251924
9.963291698
9.96329126
9.963290996
9.963289738
9.96329048
9.963289323
9.963290226
9.963289783
9.963289799
9.963291045
9.963290561
9.96329163
9.963290243
9.963290838
9.963290717
9.96328475
9.963284182
9.963283627
9.963284432
9.963283709
9.963283953
9.96328428
9.96328404
9.963284434
9.963285155
9.963284571
9.963284524
9.963284654
9.963283981
9.963282877
9.963222737
9.963222551
9.963223703
9.963223587
9.963223927
9.963224844
9.963224906
9.963225413
9.9632251
9.963224312
9.963224243
9.963224018
9.963223724
9.963223589
9.963275035
9.963275187
9.963274583
9.963276261
9.963275719
9.963275509
9.963276224
9.963275205
9.963276733
9.963277181
9.963278971
9.963278138
9.963278288
9.963276997
9.963269772
9.963270423
9.963271972
9.963271584
9.963270571
9.963272137
9.963273205
9.963272026
9.963273284
9.963273326
9.963272394
9.96327212
9.963272347
9.963270802
9.963299149
9.963299193
9.963298873
9.963300025
9.963300538
9.963300038
9.963300469
9.963300351
9.963299148
9.963298668
9.963300074
9.963300239
9.96330019
9.963299495
9.963231847
9.963231412
9.963231599
9.963231313
9.963232931
9.963232118
9.963230932
9.963230716
9.963231603
9.963230843
9.96322952
9.963230007
9.963231201
9.963230304
9.96330473
9.963304273
9.963303756
9.963304132
9.96330284
9.963303225
9.963302066
9.96330303
9.963302428
9.963302274
9.963301025
9.963302122
9.963302744
9.963303775
9.963272154
9.963271295
9.963273329
9.9632732
9.963272787
9.963272723
9.963272945
9.963272382
9.963271904
9.963271619
9.963271252
9.96327056
9.96327044
9.963270172
9.963271289
9.963256984
9.963258522
9.963258296
9.96325775
9.963257869
9.963258326
9.963258244
9.963259966
9.963259838
9.963259849
9.963260313
9.963258983
9.963259083
9.963260435
9.963260226
9.963279169
9.963278454
9.963277847
9.96327869
9.963278778
9.963278243
9.96327869
9.963279183
9.963279586
9.963279156
9.96327956
9.963279265
9.96328029
9.963280603
9.96328183
9.963276266
9.963276192
9.963276198
9.963276468
9.963275732
9.963274297
9.963274576
9.963275692
9.963275912
9.963274724
9.96327475
9.963274785
9.963275896
9.963276023
9.963293675
9.963294092
9.963293849
9.963294267
9.963293734
9.963292392
9.963290094
9.963289533
9.963290732
9.96329121
9.963291881
9.963292032
9.963292252
9.963291908
9.963245022
9.963244926
9.96324637
9.963246301
9.963247265
9.963246862
9.963246246
9.963245807
9.963245929
9.963245673
9.96324704
9.963246648
9.963246562
9.963247105
9.963266823
9.963267788
9.963268582
9.96326943
9.963269538
9.963269171
9.963269746
9.963270532
9.9632703
9.963270924
9.963271724
9.963272027
9.963272489
9.963274204
9.963249429
9.963249858
9.96324978
9.963249597
9.963250594
9.963250468
9.963250431
9.963250457
9.963249928
9.963249694
9.963249399
9.963250239
9.963249992
9.963249029
9.963280135
9.963279333
9.963279885
9.963280814
9.963280914
9.963280043
9.963278778
9.963280314
9.963280005
9.963280682
9.963283115
9.963281249
9.963279912
9.963278877
9.963290694
9.963291053
9.96329024
9.963290215
9.96329083
9.963289562
9.963289731
9.963290179
9.963290064
9.963290812
9.963292142
9.963294392
9.96329435
9.963294803
9.963275691
9.963275752
9.963275798
9.963275744
9.963275341
9.963275801
9.963277049
9.963276384
9.963276124
9.963274755
9.963274557
9.96327317
9.963272013
9.963270936
9.963270127
9.963299027
9.963298312
9.963297987
9.963297312
9.963296233
9.963296242
9.963296742
9.963297261
9.963297875
9.963298139
9.963298845
9.96329866
9.96329825
9.963298563
9.963298761
9.963276473
9.963275716
9.963274664
9.963273766
9.963273538
9.963273633
9.963275114
9.963275665
9.963276129
9.963276241
9.963275789
9.963275469
9.963275426
9.963275217
9.963298252
9.963297682
9.963295632
9.963294831
9.96329601
9.963296001
9.963295353
9.96329617
9.963296456
9.963294581
9.963294292
9.963293709
9.963292523
9.963291495
9.963295141
9.963296194
9.963296849
9.963296905
9.963297361
9.963297014
9.963296241
9.96329634
9.963295188
9.963297661
9.963297317
9.963296691
9.963296893
9.963296088
9.963262072
9.96326117
9.963260658
9.963261787
9.963260624
9.963260783
9.963261875
9.963263268
9.963262183
9.963261691
9.96326042
9.96326044
9.963259739
9.963261212
9.963292197
9.963292694
9.963292106
9.963294882
9.963295701
9.963295466
9.963295492
9.963295096
9.963295862
9.963294187
9.963294491
9.963295702
9.963295914
9.963296929
9.963271151
9.963271565
9.96327035
9.963270465
9.963270971
9.963271359
9.963272205
9.963272582
9.963271446
9.963271684
9.963270168
9.963271249
9.963271268
9.963271075
9.963350318
9.963351334
9.963351831
9.963351364
9.963352475
9.963352363
9.963353113
9.963352479
9.963351314
9.963351648
9.963351266
9.963350443
9.963351764
9.963351186
9.963343994
9.963344778
9.963345064
9.96334534
9.963345374
9.963346525
9.963345626
9.96334633
9.963345894
9.963345096
9.963345782
9.963345374
9.96334634
9.963347638
9.963295878
9.963295547
9.963294948
9.963295619
9.963296017
9.963296545
9.963296054
9.963295732
9.963296379
9.96329663
9.963296863
9.963296615
9.963295366
9.963294015
9.963293346
9.963304969
9.963305942
9.963305606
9.963306237
9.963305745
9.963305561
9.963304997
9.963305865
9.96330485
9.963305034
9.963305158
9.963305391
9.963304703
9.963304668
9.96325446
9.963254411
9.963254107
9.963254448
9.963255027
9.963254191
9.963253702
9.963253454
9.963253922
9.963254759
9.963255557
9.963255164
9.963253615
9.96325328
9.963269074
9.963268889
9.963269532
9.963269934
9.963270828
9.963270601
9.963269328
9.963269837
9.963270776
9.963269653
9.963268911
9.963269365
9.963269994
9.963269154
9.96329659
9.96329577
9.963294791
9.963295548
9.963296074
9.963296119
9.963296568
9.963297053
9.96329776
9.963297525
9.963296877
9.96329677
9.963296956
9.963297432
9.963287306
9.963287728
9.96328793
9.963288333
9.963288776
9.963288554
9.963288235
9.963288054
9.96328842
9.96328809
9.963288227
9.963289003
9.963288767
9.963289477
9.963309907
9.963309799
9.963308511
9.963307976
9.963308841
9.963309619
9.963310587
9.963310161
9.963311007
9.96331088
9.963310809
9.96331065
9.96331017
9.96330934
9.96328413
9.963284522
9.963285042
9.963285793
9.963284974
9.963284764
9.963285345
9.963284683
9.963284726
9.963284993
9.963284314
9.963285202
9.963285356
9.963284654
9.963256517
9.963256917
9.963256612
9.963257032
9.963257597
9.96325703
9.963257647
9.963258077
9.963258473
9.963259126
9.963259086
9.963259699
9.963260039
9.963259718
9.963285265
9.963284559
9.963284883
9.963285053
9.963285142
9.963284772
9.963285051
9.963285655
9.96328479
9.963284502
9.963284457
9.963284727
9.963285542
9.963285496
)
;

boundaryField
{
    top
    {
        type            calculated;
        value           nonuniform List<scalar> 
134
(
9.963277568
9.963268513
9.963290235
9.963301429
9.96328475
9.963279169
9.963299027
9.963295878
9.963285265
9.963277465
9.963267191
9.963289923
9.963301308
9.963284182
9.963278454
9.963298312
9.963295547
9.963284559
9.963277347
9.963267589
9.963289618
9.963301955
9.963283627
9.963277847
9.963297987
9.963294948
9.963284883
9.963279646
9.963266578
9.96329035
9.963301896
9.963284432
9.96327869
9.963297312
9.963295619
9.963285053
9.963279951
9.963266651
9.963290809
9.963301604
9.963283709
9.963278778
9.963296233
9.963296017
9.963285142
9.963279337
9.963267602
9.963290562
9.963301414
9.963283953
9.963278243
9.963296242
9.963296545
9.963284772
9.963278873
9.963268
9.963290386
9.963300988
9.96328428
9.96327869
9.963296742
9.963296054
9.963285051
9.963278971
9.963266976
9.963290776
9.963300435
9.96328404
9.963279183
9.963297261
9.963295732
9.963285655
9.963279597
9.963267422
9.963290014
9.963299921
9.963284434
9.963279586
9.963297875
9.963296379
9.96328479
9.963279564
9.963267255
9.96329067
9.963299703
9.963285155
9.963279156
9.963298139
9.96329663
9.963284502
9.963279444
9.963268127
9.963289347
9.963299393
9.963284571
9.96327956
9.963298845
9.963296863
9.963284457
9.963278125
9.963268707
9.963289605
9.963300037
9.963284524
9.963279265
9.96329866
9.963296615
9.963284727
9.963278875
9.963267762
9.963288941
9.963300826
9.963284654
9.96328029
9.96329825
9.963295366
9.963285542
9.963278558
9.963267677
9.963288439
9.963300836
9.963283981
9.963280603
9.963298563
9.963294015
9.963285496
9.963279137
9.963267595
9.963289127
9.96330081
9.963282877
9.96328183
9.963298761
9.963293346
)
;
    }
    bottom
    {
        type            calculated;
        value           nonuniform List<scalar> 
127
(
9.963266725
9.963262247
9.963262232
9.963303113
9.963268541
9.963222737
9.963276266
9.963276473
9.963304969
9.963266055
9.963262794
9.963261982
9.963303207
9.963267783
9.963222551
9.963276192
9.963275716
9.963305942
9.963266127
9.963262014
9.963262638
9.963302885
9.963266835
9.963223703
9.963276198
9.963274664
9.963305606
9.963266943
9.963262425
9.963262984
9.963303405
9.963267562
9.963223587
9.963276468
9.963273766
9.963306237
9.963266489
9.963260605
9.963262381
9.963302311
9.963268097
9.963223927
9.963275732
9.963273538
9.963305745
9.963265505
9.963260758
9.963262623
9.963303215
9.963267944
9.963224844
9.963274297
9.963273633
9.963305561
9.963266023
9.96326134
9.963262692
9.963303319
9.963269407
9.963224906
9.963274576
9.963275114
9.963304997
9.963267082
9.963262248
9.96326333
9.963300748
9.963269586
9.963225413
9.963275692
9.963275665
9.963305865
9.963268517
9.963261805
9.963264144
9.963300276
9.963269774
9.9632251
9.963275912
9.963276129
9.96330485
9.963268092
9.963263658
9.963263404
9.963298876
9.963269801
9.963224312
9.963274724
9.963276241
9.963305034
9.963267593
9.963263693
9.963264207
9.963299191
9.963269731
9.963224243
9.96327475
9.963275789
9.963305158
9.963267874
9.963263964
9.963264684
9.963297866
9.963270596
9.963224018
9.963274785
9.963275469
9.963305391
9.963268519
9.963263235
9.96326446
9.963299047
9.963270591
9.963223724
9.963275896
9.963275426
9.963304703
9.963268556
9.96326293
9.963264816
9.963299599
9.963270893
9.963223589
9.963276023
9.963275217
9.963304668
9.963268385
)
;
    }
    side-walls
    {
        type            calculated;
        value           nonuniform List<scalar> 
261
(
9.963266725
9.963235458
9.963282537
9.963285971
9.9633003
9.963270275
9.963259386
9.963287095
9.963277568
9.963266055
9.963235635
9.963281833
9.96328619
9.963299563
9.963271147
9.963259328
9.963286252
9.963277465
9.963266127
9.96323679
9.963281217
9.963285716
9.963299548
9.963271457
9.963259891
9.96328554
9.963277347
9.963266943
9.963235947
9.963282151
9.963285939
9.963298915
9.96327137
9.963258643
9.963285156
9.963279646
9.963266489
9.963235276
9.963281927
9.963286535
9.963299395
9.96327028
9.963259053
9.963284512
9.963279951
9.963265505
9.963235187
9.963283078
9.963285857
9.96329855
9.963269379
9.963259992
9.963284218
9.963279337
9.963266023
9.96323604
9.963283123
9.963285734
9.963299436
9.96327069
9.963261451
9.963283722
9.963278873
9.963267082
9.963235847
9.963281646
9.96328596
9.963297973
9.96327067
9.963261924
9.963283722
9.963278971
9.963268517
9.96323583
9.963281007
9.963285742
9.963297306
9.963270419
9.963260688
9.963285051
9.963279597
9.963268092
9.963235445
9.963280448
9.963286344
9.963297601
9.963269822
9.96326134
9.963284867
9.963279564
9.963267593
9.96323641
9.963280588
9.963286179
9.963299084
9.963271278
9.96326105
9.96328444
9.963279444
9.963267874
9.963236128
9.963281524
9.963285263
9.963297802
9.963271146
9.963261587
9.963284258
9.963278125
9.963268519
9.963236383
9.963282077
9.963285554
9.963297206
9.963269332
9.963260536
9.963284792
9.963278875
9.963268556
9.963237379
9.963281386
9.963286172
9.963296878
9.96326927
9.963261147
9.96328531
9.963278558
9.963268385
9.963236905
9.963281146
9.963286349
9.963296845
9.96326981
9.963260383
9.963284789
9.963279137
9.963304969
9.96325446
9.963269074
9.96329659
9.963287306
9.963309907
9.96328413
9.963256517
9.963285265
9.963305942
9.963254411
9.963268889
9.96329577
9.963287728
9.963309799
9.963284522
9.963256917
9.963284559
9.963305606
9.963254107
9.963269532
9.963294791
9.96328793
9.963308511
9.963285042
9.963256612
9.963284883
9.963306237
9.963254448
9.963269934
9.963295548
9.963288333
9.963307976
9.963285793
9.963257032
9.963285053
9.963305745
9.963255027
9.963270828
9.963296074
9.963288776
9.963308841
9.963284974
9.963257597
9.963285142
9.963305561
9.963254191
9.963270601
9.963296119
9.963288554
9.963309619
9.963284764
9.96325703
9.963284772
9.963304997
9.963253702
9.963269328
9.963296568
9.963288235
9.963310587
9.963285345
9.963257647
9.963285051
9.963305865
9.963253454
9.963269837
9.963297053
9.963288054
9.963310161
9.963284683
9.963258077
9.963285655
9.96330485
9.963253922
9.963270776
9.96329776
9.96328842
9.963311007
9.963284726
9.963258473
9.96328479
9.963305034
9.963254759
9.963269653
9.963297525
9.96328809
9.96331088
9.963284993
9.963259126
9.963284502
9.963305158
9.963255557
9.963268911
9.963296877
9.963288227
9.963310809
9.963284314
9.963259086
9.963284457
9.963305391
9.963255164
9.963269365
9.96329677
9.963289003
9.96331065
9.963285202
9.963259699
9.963284727
9.963304703
9.963253615
9.963269994
9.963296956
9.963288767
9.96331017
9.963285356
9.963260039
9.963285542
9.963304668
9.96325328
9.963269154
9.963297432
9.963289477
9.96330934
9.963284654
9.963259718
9.963285496
)
;
    }
    inlet
    {
        type            calculated;
        value           nonuniform List<scalar> 
81
(
9.963266725
9.963235458
9.963282537
9.963285971
9.9633003
9.963270275
9.963259386
9.963287095
9.963277568
9.963262247
9.963343215
9.963308087
9.963277924
9.963208826
9.963272042
9.963278973
9.963256629
9.963268513
9.963262232
9.963223185
9.963282081
9.963237914
9.963242099
9.963299834
9.963267362
9.963310706
9.963290235
9.963303113
9.963287394
9.963293363
9.963226461
9.963305111
9.963300549
9.963295835
9.963236285
9.963301429
9.963268541
9.963277317
9.963254259
9.963303607
9.963299105
9.963310659
9.963252065
9.963291698
9.96328475
9.963222737
9.963275035
9.963269772
9.963299149
9.963231847
9.96330473
9.963272154
9.963256984
9.963279169
9.963276266
9.963293675
9.963245022
9.963266823
9.963249429
9.963280135
9.963290694
9.963275691
9.963299027
9.963276473
9.963298252
9.963295141
9.963262072
9.963292197
9.963271151
9.963350318
9.963343994
9.963295878
9.963304969
9.96325446
9.963269074
9.96329659
9.963287306
9.963309907
9.96328413
9.963256517
9.963285265
)
;
    }
    outlet
    {
        type            calculated;
        value           nonuniform 0();
    }
    procBoundary0to1
    {
        type            processor;
        value           nonuniform List<scalar> 
97
(
9.963267257
9.963263327
9.963238731
9.963281843
9.9632855
9.963297414
9.96326757
9.963260763
9.963285038
9.963279272
9.963263327
9.963263327
9.963338106
9.963222484
9.963310298
9.963276751
9.963205769
9.963268766
9.963274613
9.963256945
9.963267787
9.963263792
9.963222484
9.963222484
9.963283651
9.963293465
9.963243697
9.963241874
9.963298338
9.963267942
9.963308253
9.963287539
9.963300405
9.963292134
9.963293465
9.963293465
9.963225304
9.963331085
9.963327803
9.963297203
9.963299773
9.963237187
9.963300066
9.963269591
9.96327681
9.963252527
9.963331085
9.963331085
10.00680855
9.963256732
9.963329993
9.96330163
9.963250197
9.96328855
9.963283494
9.963224551
9.963277547
9.96327063
9.963297922
9.963256732
9.96330163
9.96330163
9.963270079
9.963294679
9.963261629
9.963282645
9.963276278
9.963292963
9.963246217
9.963274124
9.963247547
9.963277585
9.963294679
9.963294679
9.963269275
9.963348652
9.963298059
9.96327575
9.963292329
9.963295323
9.963259767
9.963296388
9.963271064
9.963350509
9.963348652
9.963348652
9.963293666
9.963283681
9.963304894
9.963253556
9.963269562
9.963297128
9.963289336
9.963309625
9.963284172
9.96326022
9.963283681
)
;
    }
}


// ************************************************************************* //
