/*--------------------------------*- C++ -*----------------------------------*\
| =========                 |                                                 |
| \\      /  F ield         | OpenFOAM: The Open Source CFD Toolbox           |
|  \\    /   O peration     | Version:  4.x                                   |
|   \\  /    A nd           | Web:      www.OpenFOAM.org                      |
|    \\/     M anipulation  |                                                 |
\*---------------------------------------------------------------------------*/
FoamFile
{
    version     2.0;
    format      ascii;
    class       surfaceScalarField;
    location    "6000";
    object      phi;
}
// * * * * * * * * * * * * * * * * * * * * * * * * * * * * * * * * * * * * * //

dimensions      [1 0 -1 0 0 0 0];

internalField   nonuniform List<scalar> 
3175
(
9.47532689e-06
2.475071402e-13
9.561048455e-13
9.475325984e-06
-7.16082725e-14
1.254532985e-12
9.475324981e-06
3.770614006e-13
-2.186076881e-13
9.475324737e-06
-1.202120824e-12
7.037819755e-13
9.475325889e-06
-2.21270321e-12
5.483692492e-14
9.475325672e-06
-9.353527058e-13
-3.97791125e-13
9.475328446e-06
-1.009942456e-12
-9.620067602e-13
9.47533009e-06
-1.96833642e-12
-1.967939514e-12
9.475333818e-06
-9.156866841e-13
-2.301503148e-12
9.475337692e-06
-1.108154459e-12
-2.612512708e-12
9.475348119e-06
-3.133226448e-12
-4.070687632e-12
9.475357878e-06
-5.177217552e-12
-5.901090299e-12
9.475385155e-06
-1.256543569e-11
-1.106698674e-11
9.475406927e-06
-1.092317097e-11
-9.887204808e-12
-3.274772299e-11
9.475295845e-06
-1.750492801e-12
9.766020891e-13
9.475297065e-06
-5.522883494e-13
6.060069462e-13
9.47529667e-06
-8.095348999e-13
2.307427792e-13
9.475295798e-06
-4.604574529e-13
-7.632053339e-13
9.475297848e-06
5.383503694e-13
5.011333282e-13
9.475295865e-06
-2.261041528e-12
-1.007070295e-12
9.475298752e-06
-1.030574084e-12
-1.279130227e-12
9.475298049e-06
-2.175850112e-12
-2.104785539e-12
9.475301539e-06
-2.401417009e-12
-1.625326162e-12
9.475305805e-06
-5.19386052e-12
-3.713336112e-12
9.475315771e-06
-8.14009967e-12
-4.390461641e-12
9.475325855e-06
-1.27546545e-11
-6.679741539e-12
9.47535195e-06
-2.147417925e-11
-1.168879718e-11
9.475372776e-06
-2.188538907e-11
-8.680740464e-12
-6.681412083e-11
-4.846345263e-11
9.475342885e-06
-2.067090315e-13
1.978639027e-12
9.475339866e-06
-1.372470409e-12
1.01636377e-12
9.47534025e-06
1.568946015e-13
-4.594836311e-13
9.475339958e-06
-1.392282613e-12
-6.422269245e-13
9.475338319e-06
-1.332386193e-12
-1.426841941e-12
9.475341101e-06
-7.933674199e-14
-1.83043677e-12
9.475340497e-06
-1.01733e-12
3.600564183e-14
9.475340641e-06
-2.22612397e-12
-1.614497658e-12
9.475339308e-06
-3.664285581e-12
-2.60845786e-12
9.475344713e-06
-2.952337595e-12
-3.178232156e-12
9.475347273e-06
-4.383236473e-12
-4.375692559e-12
9.475360122e-06
-7.9287759e-12
-8.288313787e-12
9.475377343e-06
-2.002616121e-11
-2.042592993e-11
9.475398686e-06
-1.81791455e-11
-1.989068321e-11
-7.887070911e-11
-1.110409432e-10
9.475345416e-06
1.472395076e-12
5.529605567e-13
9.475344716e-06
1.529463246e-12
5.447203176e-13
9.475343085e-06
1.50976329e-12
-4.212688572e-14
9.475344193e-06
1.810853342e-12
-2.285002508e-12
9.4753445e-06
1.144531412e-13
-2.218192956e-12
9.475343338e-06
-3.591050432e-13
-2.294491447e-12
9.475342775e-06
-8.693196357e-13
-9.269559248e-13
9.47534364e-06
-2.066761448e-12
-2.083472774e-12
9.475345008e-06
-2.682308257e-12
-5.04148072e-13
9.47534859e-06
-2.909514733e-12
-2.765104202e-12
9.475351485e-06
-5.834343742e-12
-1.833659908e-12
9.475362292e-06
-9.605622965e-12
-1.004261283e-11
9.475378605e-06
-2.016234675e-11
-1.656302234e-11
9.47540459e-06
-2.818543606e-11
-1.830492281e-11
-7.68245159e-11
-1.664353739e-10
9.475358156e-06
-4.314797267e-13
-8.620407386e-13
9.47535767e-06
-3.225146375e-13
-5.907152573e-13
9.475355246e-06
-3.793503665e-13
-1.015753151e-12
9.475354631e-06
2.196933024e-13
-1.836083799e-12
9.475355105e-06
2.322219088e-13
-5.783009375e-13
9.475355987e-06
1.327534979e-13
-1.333651454e-12
9.475354004e-06
-6.238811277e-14
-1.211972596e-12
9.475353137e-06
1.011902064e-12
-2.429462066e-12
9.475354761e-06
4.127349492e-12
-1.536621943e-12
9.47535372e-06
4.932723674e-12
-4.396022916e-12
9.475348307e-06
7.962373939e-12
-7.012650083e-12
9.475349673e-06
1.290845089e-11
-2.352788184e-11
9.475345999e-06
2.236309217e-11
-4.204038715e-11
9.475371254e-06
2.93077219e-11
-7.952655593e-11
7.845330815e-11
-4.397830796e-10
9.47533066e-06
-2.414830335e-13
-9.029099903e-13
9.47533102e-06
-4.478391866e-13
-4.470564977e-13
9.475329044e-06
-1.868237646e-12
-2.893310354e-13
9.475328323e-06
2.783611757e-13
-6.846143438e-13
9.475329085e-06
7.058316842e-13
5.351351219e-14
9.475328822e-06
1.849765276e-13
-8.513502143e-13
9.475328437e-06
2.207016505e-12
-4.378860283e-13
9.475331209e-06
2.304889575e-12
-1.129764883e-12
9.475330626e-06
2.598580785e-12
-1.347418233e-12
9.475334484e-06
4.004842073e-12
-3.394607744e-12
9.475337282e-06
6.79824124e-12
-3.537296926e-12
9.47534575e-06
1.069269396e-11
-1.025175907e-11
9.475363766e-06
2.240373603e-11
-1.683351273e-11
9.475389109e-06
2.067118802e-11
-1.853372156e-11
8.030248874e-11
-1.686442235e-10
9.475319204e-06
6.750276094e-13
1.034760855e-13
9.475320174e-06
1.033381356e-12
3.978403778e-13
9.47531899e-06
9.959695468e-13
-7.611544233e-13
9.475318631e-06
8.476688438e-13
-2.599634433e-12
9.475318917e-06
1.659528013e-12
-1.899396297e-12
9.475321485e-06
7.004355051e-13
-5.429988677e-13
9.475321762e-06
1.902192837e-12
-2.274793351e-12
9.475323304e-06
2.840443559e-12
-1.497037968e-12
9.475322793e-06
9.883901986e-13
-1.042899738e-12
9.475326589e-06
4.905694982e-12
-2.24825621e-12
9.475330362e-06
8.281391568e-12
-4.274695918e-12
9.475337932e-06
1.100356089e-11
-1.068974635e-11
9.475357647e-06
2.245387942e-11
-2.222972698e-11
9.475378173e-06
2.06183152e-11
-2.127583216e-11
6.617822349e-11
-1.122592893e-10
9.4753448e-06
8.375517713e-13
6.464959346e-13
9.475344868e-06
1.376397716e-12
4.34659492e-13
9.475343448e-06
4.186049047e-13
3.075528431e-13
9.475343831e-06
4.037905359e-13
-1.553377335e-12
9.47534356e-06
1.955417075e-12
-4.218974102e-13
9.475345279e-06
2.823626097e-12
2.021306829e-13
9.475343957e-06
1.327137003e-12
-1.468676236e-12
9.475346211e-06
1.835895609e-12
-1.297743438e-12
9.475350612e-06
3.143725222e-12
-7.316852248e-13
9.475353893e-06
4.687133987e-12
-1.795194556e-12
9.475361273e-06
4.746707563e-12
-2.669838607e-12
9.475373054e-06
6.650477387e-12
-5.313860621e-12
9.475396743e-06
1.143394318e-11
-1.476113605e-11
9.475418183e-06
9.427566415e-12
-1.014957286e-11
3.233949452e-11
-4.900058193e-11
9.475336464e-06
2.633069348e-13
9.475336549e-06
-6.051488004e-13
9.475337674e-06
-9.282616027e-13
9.475338528e-06
-1.316824888e-12
9.475337583e-06
-2.040805994e-12
9.475339693e-06
-9.075587804e-13
9.475339799e-06
-1.293170579e-12
9.475342207e-06
-1.985983051e-12
9.47534634e-06
-1.687487115e-12
9.475349179e-06
-2.115995334e-12
9.475358957e-06
-2.37280088e-12
9.47536932e-06
-5.470502417e-12
9.4753945e-06
-1.193586599e-11
9.475417295e-06
-1.035038983e-11
-3.231748379e-11
9.475322895e-06
-3.415116876e-14
1.444010173e-13
9.475320018e-06
4.727684035e-13
-1.157640176e-12
9.475319419e-06
9.385070664e-13
-8.946319998e-14
9.475319919e-06
-2.118494608e-12
-3.997420881e-13
9.475321044e-06
-1.723966651e-12
-1.165530276e-13
9.475320699e-06
-1.416490676e-12
-1.284314146e-12
9.475323147e-06
-1.222817269e-12
-8.790667796e-14
9.475323985e-06
-2.078216963e-12
-2.948656764e-12
9.475328302e-06
-1.427105309e-12
-3.22182088e-12
9.475332601e-06
-3.902981765e-12
-3.855912227e-12
9.475341e-06
-4.53449216e-12
-7.28296104e-12
9.475352183e-06
-5.93538715e-12
-1.068161572e-11
9.475377678e-06
-1.333018464e-11
-2.194358121e-11
-9.368561996e-12
-2.00360585e-11
9.475398601e-06
-1.067998299e-12
9.514273391e-13
9.475399492e-06
-8.847660765e-13
2.878018707e-13
9.475396733e-06
-2.165400809e-12
7.356786905e-13
9.475398115e-06
-1.008218741e-13
2.137808309e-12
9.475398998e-06
-7.291739152e-13
1.502854892e-12
9.475396371e-06
-2.435962199e-12
-1.007879424e-12
9.475398436e-06
4.514723857e-13
-1.65378999e-12
9.475398435e-06
-1.077244162e-12
-2.807255619e-12
9.475396904e-06
-3.218953291e-12
-4.01219547e-12
9.475402909e-06
-4.535899848e-12
-4.789525503e-12
9.475410408e-06
-5.684714747e-12
-6.238614109e-12
9.475423541e-06
-1.264213732e-11
-1.31080664e-11
9.475444651e-06
-2.580120795e-11
-2.64695855e-11
9.475466347e-06
-2.478858839e-11
-2.431167659e-11
-1.060289368e-10
9.475365506e-06
-2.908012083e-13
1.133150251e-12
9.475365618e-06
-1.03481489e-12
9.112105185e-13
9.475364315e-06
2.905910776e-13
1.031209189e-12
9.475363809e-06
-8.442451684e-13
4.875386878e-13
9.475363519e-06
-1.91685622e-12
9.530836736e-13
9.475366653e-06
4.23367094e-13
-6.775551016e-13
9.475366492e-06
-7.500757921e-13
-2.557208403e-12
9.475367805e-06
-2.930080288e-12
-3.317642282e-12
9.475366878e-06
-1.326104611e-12
-2.309393329e-12
9.475371291e-06
-3.217411836e-12
-4.827847751e-12
9.475370115e-06
-3.82119116e-12
-6.791231064e-12
9.475381391e-06
-1.233400984e-11
-2.011824749e-11
9.475395426e-06
-2.331657027e-11
-3.832218772e-11
9.475424035e-06
-2.606537675e-11
-4.768495848e-11
-1.523943185e-10
-2.555917167e-10
9.475336689e-06
-9.550066715e-14
9.597044138e-13
9.475337319e-06
1.051743343e-12
4.887702746e-13
9.475334813e-06
3.475451976e-13
-3.17849102e-13
9.475335305e-06
1.221494538e-12
-3.908405565e-14
9.4753382e-06
6.468126137e-13
-1.703903071e-13
9.475337872e-06
-6.534610288e-13
-1.498546898e-12
9.475334069e-06
-1.69080261e-12
-1.043020173e-12
9.475339032e-06
-1.558908432e-12
-1.482732912e-12
9.47533732e-06
-3.721408459e-12
-2.825258377e-12
9.475342376e-06
-2.940682044e-12
-5.405864776e-12
9.475341823e-06
-8.384858417e-12
-3.601027308e-12
9.475357781e-06
-1.469952705e-11
-2.128121157e-11
9.475366362e-06
-3.004695805e-11
-1.728829451e-11
9.475419236e-06
-4.684152199e-11
-4.916648554e-11
-1.588455107e-10
-3.980904292e-10
9.475271951e-06
-9.351585958e-13
3.427380422e-13
9.475271162e-06
-9.178077508e-13
-4.669811088e-13
9.475268198e-06
3.44714929e-13
-1.413770313e-12
9.475269315e-06
8.485067613e-14
-1.831038178e-12
9.475270595e-06
6.875550866e-13
-2.431038888e-13
9.47527034e-06
6.962964996e-13
-5.623954554e-13
9.475269235e-06
6.035384678e-13
-5.471255315e-14
9.475268143e-06
7.505550677e-13
-7.391439687e-13
9.475267157e-06
3.280711934e-12
-1.455883112e-12
9.47525993e-06
3.558628127e-12
-9.479554456e-12
9.47525165e-06
8.101937294e-12
-5.636071453e-12
9.475250116e-06
1.745880227e-11
-4.884467942e-11
9.475208462e-06
3.151808915e-11
-6.340441081e-11
9.475273536e-06
4.695957535e-11
-2.372318256e-10
1.57007004e-10
-1.241538631e-09
9.475331454e-06
8.698577824e-13
4.506514052e-13
9.475332067e-06
-4.112875903e-14
-9.428803188e-13
9.47532661e-06
-1.644396405e-12
-3.153987782e-12
9.475327562e-06
-5.796885155e-13
-5.841704418e-13
9.475328442e-06
-6.524427614e-13
-9.946513459e-13
9.475326331e-06
-2.040291801e-13
-1.05494806e-12
9.475326661e-06
1.251018397e-12
-7.48116331e-13
9.475329891e-06
2.943353179e-12
-1.128546442e-12
9.475328018e-06
1.814516335e-12
-1.315080303e-12
9.475328708e-06
5.357788499e-12
-5.2378133e-12
9.475332223e-06
6.566780054e-12
-1.539002095e-12
9.475344263e-06
1.108013864e-11
-2.165234166e-11
9.475356627e-06
2.469282653e-11
-1.499769298e-11
9.475410539e-06
2.753980055e-11
-4.772403529e-11
1.53391545e-10
-3.97031104e-10
9.475337479e-06
5.765372249e-13
-1.888844251e-14
9.475337796e-06
5.520321149e-13
4.353916205e-13
9.475336461e-06
2.25774852e-12
1.444449264e-12
9.47533775e-06
2.248608855e-12
1.135539403e-12
9.475337885e-06
2.677236309e-12
5.799544892e-14
9.475337324e-06
1.571497769e-12
-1.483283157e-12
9.4753376e-06
1.51937373e-12
-6.603280742e-13
9.475337504e-06
2.576528255e-12
-1.827140424e-12
9.475337721e-06
2.593763015e-12
-2.058836921e-12
9.475339491e-06
4.658483719e-12
-4.737175085e-12
9.475338885e-06
7.368566575e-12
-6.814189258e-12
9.475347794e-06
1.302375319e-11
-1.848922979e-11
9.475359948e-06
2.509415729e-11
-3.689981894e-11
9.475387823e-06
2.445465336e-11
-4.828084797e-11
1.091089032e-10
-2.550670528e-10
9.475315927e-06
8.625862555e-13
-4.406494403e-13
9.475317226e-06
1.514077763e-12
-8.616268748e-14
9.475315982e-06
1.584164177e-13
-1.227496659e-12
9.475316751e-06
1.776105482e-13
-4.813792855e-13
9.475316663e-06
4.015722813e-13
1.415075542e-13
9.475316211e-06
1.515584069e-13
-1.268607718e-12
9.475318021e-06
2.466434875e-13
-1.017397312e-12
9.475318606e-06
2.307696355e-13
-1.628590327e-12
9.475321606e-06
2.586239396e-12
-2.459527677e-12
9.475327088e-06
3.407125616e-12
-3.214401828e-12
9.475330936e-06
3.727943203e-12
-7.21593655e-12
9.475341732e-06
6.756819886e-12
-1.132796128e-11
9.475367108e-06
1.430927811e-11
-2.423896296e-11
9.475389977e-06
9.033898777e-12
-2.420217941e-11
4.889890357e-11
-1.073473757e-10
9.47532805e-06
-8.744363494e-13
9.475326944e-06
-2.274643355e-12
9.475326582e-06
-1.578217856e-12
9.47532496e-06
-8.102677659e-13
9.475327689e-06
-5.353423842e-13
9.475327972e-06
-1.513818125e-12
9.475329418e-06
-8.44385936e-13
9.475330933e-06
-1.124030012e-12
9.475332919e-06
-1.532955984e-12
9.475337519e-06
-3.502472254e-12
9.475344771e-06
-6.345191563e-12
9.475356124e-06
-1.104551565e-11
9.475381658e-06
-2.180646247e-11
9.475403319e-06
-1.816518865e-11
-6.444782983e-11
9.475323048e-06
7.710558373e-13
-2.126616494e-13
9.475322418e-06
9.030864687e-13
1.330215579e-13
9.475320438e-06
1.679368343e-12
3.434614041e-15
9.475320775e-06
-8.277108811e-14
-4.642187122e-13
9.475321584e-06
-5.430014792e-13
1.015979795e-12
9.475321388e-06
-2.487184038e-13
-6.241989571e-13
9.47532074e-06
-2.857667823e-12
-7.179377357e-13
9.475323999e-06
-1.116491387e-12
1.89692748e-13
9.475326452e-06
-1.066595794e-12
-9.346412359e-13
9.475328631e-06
-3.895054735e-12
-3.534351812e-12
9.475332406e-06
-4.206938641e-12
-5.210292825e-12
9.475342567e-06
-1.002794004e-11
-8.003601332e-12
9.475363768e-06
-2.160150374e-11
-1.962286161e-11
-2.089886705e-11
-1.859868092e-11
9.475283791e-06
-6.074753942e-13
-6.46350077e-13
9.475284895e-06
-1.417452121e-12
-1.085717196e-12
9.475282125e-06
-2.581620908e-12
-7.964255188e-13
9.475283708e-06
-3.024664097e-12
-1.409620966e-13
9.475284552e-06
-1.838897553e-12
-4.346789723e-13
9.475284411e-06
-1.690429101e-12
-1.90493552e-13
9.475285318e-06
-1.09111271e-13
-6.793761692e-14
9.475287775e-06
-1.827349776e-12
-7.967825309e-13
9.475288062e-06
-1.079195261e-12
-9.737258818e-13
9.475289959e-06
-4.633727917e-12
-1.394763022e-12
9.475287674e-06
-7.517799924e-12
-3.708918769e-12
9.475298949e-06
-1.999991496e-11
-1.009887832e-11
9.475311486e-06
-3.763247195e-11
-2.180149751e-11
-4.817175431e-11
-2.45465848e-11
9.475340189e-06
-5.413010049e-13
-1.011382784e-12
9.475339755e-06
-4.850030282e-13
2.678558058e-13
9.475339838e-06
-1.279992816e-12
2.312172105e-13
9.47534003e-06
-2.094328314e-12
5.725480382e-13
9.475336635e-06
-2.77446045e-12
-2.478476412e-13
9.475340645e-06
-3.495783845e-13
-5.143914575e-13
9.475339169e-06
1.403940288e-13
-2.998349109e-14
9.475339768e-06
-1.461929728e-12
6.100617287e-13
9.475336932e-06
-1.952907854e-12
-2.154819882e-12
9.475337191e-06
-5.602439422e-12
-5.385236198e-12
9.475328802e-06
-5.476754169e-12
-4.647608727e-12
9.475334798e-06
-2.04865089e-11
-1.982618873e-11
9.475325401e-06
-3.14147785e-11
-3.245481678e-11
9.475370245e-06
-6.968882405e-11
-6.914966603e-11
-4.364077731e-10
9.475297671e-06
-1.111001943e-12
-3.428472885e-13
9.475297849e-06
-7.217242702e-13
2.660071483e-13
9.475299348e-06
-1.180721077e-13
-3.953997832e-13
9.475300348e-06
-3.007510727e-13
9.189666702e-13
9.475301523e-06
2.21937887e-13
1.004640266e-12
9.475300516e-06
1.530078418e-13
-7.134374613e-13
9.475298875e-06
-1.283358741e-12
-1.37858807e-12
9.475299411e-06
-8.259983823e-13
-1.432931995e-12
9.475298068e-06
-1.832114487e-12
-4.626538394e-14
9.475298765e-06
-5.406640478e-12
-5.887349226e-12
9.475296456e-06
-8.02426972e-12
4.500573197e-12
9.475308731e-06
-2.7840575e-11
-2.09575629e-11
9.475298313e-06
-5.580852151e-11
1.769956266e-11
9.475407315e-06
-1.254368205e-10
-1.008716274e-10
-4.731125928e-10
-8.201339055e-10
9.475303068e-06
-1.24673314e-12
-3.870185275e-13
9.475302861e-06
-9.027030966e-13
-8.960308671e-13
9.475302661e-06
-6.313302118e-13
-1.007519758e-12
9.475302905e-06
1.19252289e-12
8.532319581e-14
9.475303373e-06
-2.107638381e-13
7.290779082e-13
9.475300814e-06
7.75576552e-14
-3.453168769e-14
9.475302076e-06
5.922392085e-13
2.520484724e-13
9.475298048e-06
6.916751045e-13
-2.174806585e-12
9.47529406e-06
3.368737755e-12
4.11234234e-13
9.475282865e-06
6.430438361e-12
-9.727320927e-12
9.475257388e-06
1.000128914e-11
1.198311e-12
9.475223495e-06
3.031345414e-11
-6.925551565e-11
9.475079252e-06
5.930979145e-11
-3.135746492e-11
9.475188953e-06
1.269788505e-10
-6.008465617e-10
4.735683307e-10
-3.389317929e-09
9.475357004e-06
5.199494544e-13
-1.210985632e-12
9.475357569e-06
8.54544443e-13
-1.134055448e-12
9.475356749e-06
2.079803218e-12
-8.650950541e-13
9.475355212e-06
1.022334084e-12
-5.65224273e-13
9.475356418e-06
7.124848289e-13
6.859454141e-13
9.475354221e-06
4.772244018e-13
1.1637571e-12
9.475354419e-06
5.169773819e-13
6.321350517e-13
9.475355094e-06
1.987717236e-12
-1.207336633e-12
9.475353466e-06
1.660037609e-12
-1.92769214e-12
9.475353163e-06
6.733148305e-12
-4.417191465e-12
9.47534887e-06
6.192289587e-12
4.944368592e-12
9.475361137e-06
2.172758762e-11
-2.261483623e-11
9.475348511e-06
3.211870609e-11
1.791875748e-11
9.475457554e-06
6.944381277e-11
-1.009611686e-10
4.379888088e-10
-8.199783074e-10
9.475326876e-06
4.27929576e-13
-8.278959234e-13
9.475327673e-06
2.71012023e-13
-5.969688133e-13
9.475326247e-06
-8.071700696e-13
-5.772766057e-13
9.475326318e-06
7.462624797e-13
-1.332325183e-12
9.475326924e-06
2.308560575e-12
-3.869113869e-13
9.475327682e-06
1.670860421e-12
6.572269123e-14
9.475327228e-06
1.240216253e-12
1.707944346e-12
9.475326176e-06
2.30491932e-12
-2.8641233e-13
9.475325355e-06
2.442767536e-12
-2.01208335e-12
9.475323755e-06
5.958121529e-12
-4.193313894e-12
9.475317243e-06
7.349561363e-12
-3.532881991e-12
9.475320079e-06
1.947443084e-11
-1.921969264e-11
9.475308241e-06
3.730755248e-11
-3.200232781e-11
9.475354276e-06
4.859856727e-11
-7.005082183e-11
2.567430711e-10
-4.377635428e-10
9.475367422e-06
2.476398189e-13
-9.799456732e-13
9.475367902e-06
7.151478614e-14
-1.033937808e-12
9.475365554e-06
9.283737317e-13
-5.841236514e-13
9.475365944e-06
3.294400508e-13
-2.970021743e-13
9.475365832e-06
3.302774567e-13
-5.505555063e-13
9.475367454e-06
7.444739695e-13
9.930469254e-13
9.475366557e-06
-3.169892365e-14
-9.618613584e-14
9.475366008e-06
1.421587503e-12
-6.216308183e-13
9.475367276e-06
3.168693964e-12
3.490291296e-13
9.475367177e-06
3.24093515e-12
-2.123266686e-12
9.475370863e-06
5.162550701e-12
-3.268602097e-12
9.475380387e-06
9.298215268e-12
-1.082156843e-11
9.475392911e-06
2.070912786e-11
-2.264667369e-11
9.475422294e-06
2.20213863e-11
-2.422993495e-11
1.123607989e-10
-1.502796863e-10
9.475348005e-06
-1.771129988e-12
9.475348745e-06
-1.24183577e-12
9.475347729e-06
-5.249923175e-13
9.475347927e-06
-6.127126796e-13
9.47534752e-06
-7.23858853e-13
9.475349201e-06
-4.377159957e-13
9.475349372e-06
-8.148490392e-13
9.47535201e-06
-1.077859084e-12
9.475352488e-06
-2.368128375e-12
9.475353939e-06
-3.201223063e-12
9.475355727e-06
-5.329067833e-12
9.475364879e-06
-7.192947064e-12
9.475386523e-06
-1.965189079e-11
9.475406002e-06
-1.984849897e-11
-7.951340485e-11
9.475362318e-06
4.280764605e-13
-1.242893713e-12
9.475360656e-06
-3.724146543e-13
4.671232608e-14
9.475359482e-06
-2.418251169e-13
-9.441713794e-14
9.475360754e-06
1.447273252e-13
-1.022468481e-12
9.47535849e-06
-1.217392597e-12
-1.723937021e-12
9.475359904e-06
-3.044094076e-13
-1.626019954e-13
9.475359695e-06
-1.522898305e-12
-7.861734034e-13
9.475359806e-06
-2.272956007e-12
-2.224883981e-13
9.475359524e-06
-7.599306753e-13
6.711035959e-13
9.475363979e-06
-1.313609679e-12
-1.475327208e-12
9.475365375e-06
-1.859825164e-12
-5.07212674e-12
9.47537503e-06
-1.046972188e-11
-8.760433409e-12
9.475392846e-06
-1.536199975e-11
-1.964255316e-11
-1.880243065e-11
-2.672670115e-11
9.475346185e-06
-1.405753096e-12
-1.460369511e-12
9.475347951e-06
1.274919847e-13
-1.817339599e-12
9.475345486e-06
-6.071502195e-13
-2.170369636e-12
9.475348035e-06
-4.995250697e-13
-4.113513472e-13
9.475346131e-06
-1.21139233e-12
8.458751484e-13
9.475346846e-06
-1.182567102e-12
6.35401267e-13
9.475347494e-06
-5.313563791e-13
4.863901688e-13
9.475348946e-06
-1.468273072e-12
8.33974442e-13
9.475351177e-06
-2.149102835e-12
-1.057774951e-12
9.475352813e-06
-7.880564836e-12
-3.051538515e-12
9.475354963e-06
-4.247264726e-12
-6.252829842e-12
9.475369737e-06
-2.210339301e-11
-1.388886457e-11
9.475377136e-06
-1.854318742e-11
-2.903310534e-11
-5.038701744e-11
-4.553075324e-11
9.475351983e-06
-1.001574619e-14
-7.313098283e-14
9.475349741e-06
-8.892646652e-13
-2.260489754e-12
9.475348107e-06
-2.176202737e-12
-1.606806738e-12
9.475348409e-06
-1.270895609e-12
-5.000351946e-13
9.475347603e-06
-1.149675948e-12
-4.791679773e-13
9.475349716e-06
-1.20742537e-12
1.45695848e-13
9.475349677e-06
-1.362554534e-12
1.386998694e-12
9.47534761e-06
-2.636918132e-12
-6.591214764e-13
9.475348724e-06
-3.24211481e-13
-1.031003874e-12
9.47534829e-06
-5.676152961e-12
-4.02478982e-12
9.475346352e-06
4.726453515e-12
-6.493110698e-12
9.475356393e-06
-2.187305079e-11
-2.611369564e-11
9.475347732e-06
1.781737467e-11
-5.373278046e-11
-1.007691888e-10
-1.23747901e-10
9.475287793e-06
-8.104503526e-13
-1.781891101e-12
9.475285146e-06
-2.328144799e-12
-2.247031392e-12
9.475286405e-06
-1.963479682e-12
-1.554118837e-15
9.475286501e-06
-1.178535224e-12
8.822909723e-13
9.475285129e-06
9.716950231e-14
9.879572082e-13
9.475286177e-06
1.523251551e-12
2.657722284e-12
9.475289069e-06
1.453920676e-13
-6.451225361e-14
9.475288288e-06
-1.819552802e-12
-1.370866629e-12
9.47529023e-06
-1.434882616e-12
-1.292483984e-13
9.47529307e-06
-6.872670015e-12
-6.349453796e-12
9.47531651e-06
-6.59941736e-12
-6.309471824e-12
9.475356151e-06
-4.232070589e-11
-4.086787127e-11
9.475485067e-06
-4.628273174e-11
-4.307739394e-11
9.475762538e-06
-2.375324388e-10
-2.364860305e-10
-8.633081303e-10
9.475360694e-06
-1.730186217e-12
-2.125418105e-12
9.47536251e-06
-1.163043433e-12
-1.395949813e-13
9.475362305e-06
-1.42455782e-12
-9.269794659e-13
9.475361516e-06
1.626766499e-13
2.740761407e-13
9.475359092e-06
2.093348908e-14
1.595556186e-12
9.47535711e-06
5.2917243e-13
1.807120519e-12
9.475357883e-06
1.240456347e-12
7.198195416e-13
9.475356279e-06
1.645823505e-12
-1.595619115e-12
9.475351473e-06
4.091245214e-13
-3.258372934e-12
9.475338873e-06
8.583230278e-12
-1.180965313e-11
9.47534144e-06
8.073211777e-12
-1.329593336e-11
9.475289937e-06
4.285349138e-11
-1.034998436e-10
9.475335969e-06
4.89684075e-11
-1.639108787e-10
9.475642245e-06
2.391670233e-10
-1.383774414e-09
8.635985837e-10
-6.246817417e-09
9.475357602e-06
6.999000728e-13
-1.262763031e-12
9.475358819e-06
1.039127961e-12
-6.138563196e-13
9.475358907e-06
2.774164171e-12
7.486260353e-13
9.475357682e-06
5.731354649e-13
-6.624288891e-13
9.475357238e-06
-2.349596594e-13
5.837544412e-13
9.475354572e-06
1.581742266e-13
1.07895285e-12
9.475355469e-06
1.523426477e-12
-3.912688948e-13
9.475354979e-06
2.909016677e-12
-4.163925096e-13
9.475359546e-06
1.431030344e-12
-5.471003213e-13
9.475360146e-06
5.553473588e-12
-8.137573743e-12
9.47538428e-06
-3.360526155e-12
-7.03115324e-12
9.475424838e-06
2.4041043e-11
-4.16891809e-11
9.475549922e-06
-1.736961032e-11
-4.705512649e-11
9.475828535e-06
1.006022697e-10
-2.372873765e-10
8.196956927e-10
-8.622853817e-10
9.475354379e-06
5.776489716e-13
-1.240120817e-12
9.475354869e-06
5.792652414e-13
-5.670175278e-13
9.475352903e-06
-2.572097874e-14
-3.98345809e-13
9.475352261e-06
3.925358844e-13
-4.220199726e-13
9.475355124e-06
1.412038134e-12
1.246669516e-12
9.475355293e-06
1.502936154e-12
1.100916957e-12
9.475353567e-06
1.074708289e-12
7.518209861e-13
9.475354341e-06
2.62655847e-12
-5.514865263e-13
9.475356744e-06
3.989368863e-12
-8.013350627e-13
9.47535358e-06
7.976580234e-12
-5.843072429e-12
9.475351489e-06
4.01904321e-12
-9.34920121e-12
9.475361002e-06
2.071900206e-11
-2.919016433e-11
9.475351304e-06
1.742925587e-11
-5.561909953e-11
9.475461012e-06
5.079266515e-11
-1.259264919e-10
4.017979708e-10
-4.738021747e-10
9.475296893e-06
-6.358128327e-13
-1.085913058e-12
9.47529702e-06
2.872037628e-14
-1.860716589e-12
9.475297593e-06
8.352513707e-13
-9.256772646e-13
9.475295715e-06
-1.197959076e-13
9.729235479e-13
9.475297457e-06
3.977388731e-14
-7.838130708e-13
9.475296863e-06
-6.419699578e-13
-2.312824885e-13
9.475298284e-06
-4.945101437e-13
-4.012473444e-13
9.475299105e-06
1.270213326e-12
-1.494014844e-12
9.475298674e-06
3.071869651e-13
-1.656773291e-12
9.475300416e-06
1.415332869e-12
-4.012047052e-12
9.475302603e-06
1.252995557e-12
-6.587143059e-12
9.475318075e-06
1.018788692e-11
-1.546258064e-11
9.475326665e-06
1.512783494e-11
-2.995233191e-11
9.47538157e-06
1.786497373e-11
-4.694554971e-11
1.661601325e-10
-1.579521611e-10
9.475359004e-06
-1.850600913e-13
9.475359532e-06
-7.374619481e-13
9.475358482e-06
-5.67114902e-13
9.475358462e-06
6.902036244e-13
9.475359148e-06
6.148162445e-13
9.475359974e-06
8.502538259e-14
9.475359812e-06
8.498471913e-13
9.475359889e-06
-5.496319133e-13
9.475360761e-06
-1.156351487e-12
9.475361266e-06
-1.199268804e-12
9.475365881e-06
-3.894712233e-12
9.475375046e-06
-9.940128852e-12
9.475392808e-06
-2.087460574e-11
9.475419891e-06
-2.790373212e-11
-7.68780058e-11
9.475328709e-06
2.431454814e-13
-3.666144814e-13
9.475327153e-06
-1.326258017e-12
-4.96237249e-13
9.475324919e-06
-1.160864453e-12
-1.249082932e-12
9.475327851e-06
5.264619091e-13
-2.274197356e-13
9.475327854e-06
6.318751864e-13
-8.621746517e-13
9.475326002e-06
-7.409068354e-14
6.864986078e-14
9.475327838e-06
-6.760454534e-13
3.899927257e-13
9.475328867e-06
-1.040102592e-12
1.374557897e-13
9.47532613e-06
-1.810334774e-12
5.54682901e-13
9.475326997e-06
-4.00790875e-12
3.662169708e-12
9.475323066e-06
-4.272386777e-12
7.37396058e-12
9.475325684e-06
-2.208503748e-11
1.066999693e-11
9.475322521e-06
-4.072412622e-11
2.163903072e-11
-7.996645095e-11
2.76946758e-11
9.475335842e-06
-3.611050175e-13
-3.760958851e-13
9.47533642e-06
-2.03145092e-13
6.960105819e-13
9.475333882e-06
-1.192916972e-12
-9.496327163e-14
9.475335146e-06
-2.837243788e-13
-5.488726577e-13
9.47533289e-06
-1.829755831e-12
-5.059079096e-14
9.475332586e-06
-1.02390655e-12
1.445729885e-12
9.475333327e-06
5.578978953e-13
1.550922529e-12
9.475333053e-06
-1.856906775e-12
5.835252906e-13
9.475330811e-06
-2.15974241e-12
2.89710333e-12
9.475326459e-06
-1.07046639e-11
4.571806251e-12
9.475317907e-06
-6.513510155e-12
6.985881529e-12
9.475317596e-06
-4.841126398e-11
1.622181441e-11
9.475274897e-06
-6.406780526e-11
3.105677675e-11
-2.369300717e-10
4.766582521e-11
9.475314111e-06
-9.29164254e-13
-1.04660844e-12
9.475314523e-06
-1.023495292e-12
-5.729086933e-14
9.475314178e-06
-5.758108255e-13
-5.911222283e-13
9.475313627e-06
1.299360503e-14
-1.202378941e-13
9.475312315e-06
4.293289016e-13
5.444934204e-13
9.475312685e-06
-4.796641949e-14
4.411866973e-13
9.475311181e-06
-2.414374079e-12
5.851362715e-13
9.475308106e-06
-3.037097868e-12
1.211925424e-12
9.475302945e-06
-5.701949553e-13
1.85282316e-12
9.475291303e-06
-1.044903302e-11
5.927502041e-12
9.475266114e-06
-1.707976244e-14
9.298072308e-12
9.475231885e-06
-6.963287671e-11
2.98674784e-11
9.47508952e-06
-3.040501628e-11
5.761065485e-11
-6.016226282e-10
1.263311067e-10
9.475360149e-06
-1.427490766e-12
-5.694367564e-13
9.475361598e-06
6.975866854e-13
-1.648742996e-14
9.475362776e-06
-1.621888828e-12
-2.012402198e-14
9.475362625e-06
-2.266464474e-12
3.771623807e-13
9.475362349e-06
3.372019511e-13
5.57704193e-13
9.475360532e-06
3.481197547e-13
4.002140011e-13
9.475363055e-06
5.840695412e-13
1.391288196e-12
9.475359565e-06
-2.846926831e-12
1.246727105e-12
9.475354786e-06
-4.436749215e-12
9.907646098e-13
9.475342784e-06
-1.31553595e-11
7.682409099e-12
9.475345657e-06
-1.44539175e-11
8.179790278e-12
9.475295335e-06
-1.053867354e-10
4.408934157e-11
9.475336704e-06
-1.677804147e-10
4.734292603e-11
-1.385442696e-09
2.400713262e-10
9.475358575e-06
-1.944560552e-13
1.953288737e-13
9.475355558e-06
-1.899779805e-12
-5.115107977e-13
9.475357291e-06
1.39876342e-12
2.275290698e-12
9.475356866e-06
3.833210447e-13
1.380213867e-12
9.475355734e-06
-5.264187099e-13
-5.207244539e-13
9.475351143e-06
3.543973414e-13
3.051159915e-13
9.475350514e-06
3.831628399e-13
6.794511512e-13
9.475343594e-06
2.746970529e-12
1.958014987e-12
9.475333341e-06
2.624833815e-12
2.970151241e-12
9.475284353e-06
1.210891801e-11
1.316198397e-11
9.475222956e-06
1.456188135e-11
1.6222624e-11
9.474804383e-06
1.044753592e-10
1.061135699e-10
9.474138137e-06
1.663084877e-10
1.682271955e-10
9.468597122e-06
1.385245629e-09
1.387155858e-09
6.247682188e-09
9.475367014e-06
1.635278319e-13
-6.805483905e-13
9.475367788e-06
1.515025737e-12
6.605512033e-14
9.475364216e-06
1.252230767e-12
-1.143372405e-12
9.475365225e-06
6.91492575e-13
1.860454422e-13
9.475365758e-06
7.169285354e-13
-2.735417879e-13
9.475361642e-06
5.264902851e-13
-2.171120837e-13
9.475363741e-06
2.716626565e-12
9.678650766e-13
9.475358925e-06
2.742802923e-12
1.702684124e-12
9.475357711e-06
2.28511637e-12
2.582468433e-12
9.475343433e-06
1.130833806e-11
8.46264861e-12
9.475345043e-06
-4.822602731e-13
8.222707533e-12
9.475294253e-06
7.062627116e-11
4.360359696e-11
9.475336689e-06
3.292178854e-11
4.752409321e-11
9.475643602e-06
5.989334368e-10
2.390839733e-10
3.387368413e-09
9.475311532e-06
6.443070567e-13
-1.260145728e-12
9.4753125e-06
-2.244707318e-13
-1.184198001e-12
9.47531165e-06
-7.586144792e-14
-1.397062252e-13
9.475314269e-06
1.972868805e-12
3.632559394e-13
9.475311595e-06
-9.138821594e-13
-3.277225219e-13
9.475310943e-06
7.752193687e-13
-6.138760096e-13
9.475308181e-06
-8.022096711e-13
-5.731572637e-13
9.475305967e-06
2.691665152e-12
1.406271306e-12
9.475300546e-06
2.968754942e-12
2.800761351e-12
9.475289379e-06
1.082825108e-11
5.364982505e-12
9.475264843e-06
8.199614869e-12
9.011378485e-12
9.475229823e-06