/*--------------------------------*- C++ -*----------------------------------*\
| =========                 |                                                 |
| \\      /  F ield         | OpenFOAM: The Open Source CFD Toolbox           |
|  \\    /   O peration     | Version:  4.x                                   |
|   \\  /    A nd           | Web:      www.OpenFOAM.org                      |
|    \\/     M anipulation  |                                                 |
\*---------------------------------------------------------------------------*/
FoamFile
{
    version     2.0;
    format      ascii;
    class       volScalarField;
    location    "6000";
    object      rho;
}
// * * * * * * * * * * * * * * * * * * * * * * * * * * * * * * * * * * * * * //

dimensions      [1 -3 0 0 0 0 0];

internalField   nonuniform List<scalar> 
1175
(
0.2790914033
0.279091419
0.2790914119
0.2790914283
0.2790914187
0.2790913992
0.2790914067
0.279091433
0.2790914495
0.2790914645
0.2790914837
0.2790914784
0.2790915064
0.2790915869
0.2790916745
0.2790905466
0.279090569
0.2790905605
0.2790905463
0.2790905221
0.2790905523
0.2790905951
0.2790905707
0.2790905569
0.2790905443
0.279090579
0.2790905909
0.279090624
0.279090791
0.2790909956
0.2790918632
0.2790918605
0.2790918677
0.2790918689
0.2790918593
0.2790918896
0.2790918877
0.2790918627
0.2790918348
0.2790918053
0.279091825
0.2790918617
0.2790920038
0.2790921775
0.2790925872
0.2790919731
0.2790919601
0.2790919546
0.2790919556
0.279091946
0.2790919619
0.279091964
0.2790919559
0.2790919758
0.2790919772
0.2790919809
0.2790920262
0.2790921815
0.2790925593
0.2790932686
0.2790923626
0.2790923438
0.2790923489
0.2790923123
0.2790923413
0.2790923263
0.2790923369
0.279092315
0.2790922885
0.2790922915
0.2790923448
0.279092408
0.2790925764
0.2790930375
0.2790939814
0.2790915281
0.2790915629
0.2790915671
0.2790915436
0.2790915181
0.2790915094
0.2790915436
0.2790915495
0.2790915457
0.2790915296
0.2790915602
0.279091619
0.2790917326
0.2790920805
0.2790928175
0.2790912315
0.2790911944
0.2790912317
0.2790912101
0.2790911984
0.2790912381
0.2790912939
0.2790912691
0.279091251
0.2790912651
0.2790912804
0.2790913256
0.2790914005
0.279091635
0.2790920133
0.2790919883
0.2790919853
0.2790919613
0.279091936
0.2790919027
0.2790919159
0.2790919061
0.2790918816
0.2790919168
0.2790919301
0.2790919344
0.2790919345
0.279091996
0.279092128
0.2790923189
0.279091723
0.2790917454
0.2790917312
0.2790917817
0.2790917991
0.2790918078
0.2790917938
0.279091772
0.2790917793
0.2790918007
0.279091795
0.2790917687
0.2790918062
0.2790918647
0.2790919974
0.2790913017
0.2790913141
0.2790913221
0.2790913061
0.2790912616
0.2790912509
0.2790912664
0.2790913166
0.2790913051
0.2790913056
0.2790913243
0.2790913567
0.2790914073
0.2790914942
0.2790935766
0.2790935832
0.2790935622
0.2790935755
0.2790935741
0.2790935503
0.2790935224
0.2790934855
0.2790934884
0.2790934757
0.2790934701
0.2790935236
0.2790936518
0.2790938659
0.2790942369
0.2790925993
0.2790925799
0.2790925356
0.2790925652
0.2790925538
0.2790925962
0.279092629
0.2790926257
0.2790926775
0.2790927041
0.279092713
0.2790927667
0.2790929527
0.2790934373
0.2790943768
0.2790917392
0.2790917172
0.2790917361
0.2790917434
0.2790917525
0.2790917301
0.2790917115
0.2790917956
0.2790918126
0.2790917937
0.2790918691
0.2790919376
0.2790923193
0.2790932593
0.2790952178
0.2790898095
0.2790897843
0.279089777
0.2790898049
0.279089799
0.2790898018
0.2790897602
0.2790897809
0.2790897607
0.2790897596
0.2790898239
0.2790899748
0.2790904877
0.2790919362
0.2790951063
0.2790915763
0.2790916071
0.2790915529
0.2790915468
0.2790915321
0.2790915092
0.279091505
0.2790914489
0.279091438
0.2790914319
0.2790914523
0.2790916044
0.2790919671
0.2790929556
0.2790949819
0.279091765
0.2790917238
0.2790917244
0.2790917748
0.2790917541
0.2790917598
0.2790917261
0.279091721
0.2790917475
0.2790917388
0.2790917268
0.2790917761
0.2790919331
0.2790924152
0.2790933436
0.2790911451
0.2790911253
0.2790911763
0.2790911731
0.279091146
0.2790911546
0.2790911383
0.2790911243
0.2790910943
0.2790911431
0.2790911634
0.2790911984
0.2790913232
0.2790915588
0.2790919632
0.2790914681
0.2790914544
0.2790914606
0.2790914135
0.2790914302
0.2790914392
0.2790914345
0.2790914443
0.2790914557
0.2790914183
0.2790914684
0.2790915206
0.2790915295
0.2790916176
0.2790918342
0.2790913014
0.2790912924
0.2790913254
0.2790913156
0.2790913194
0.279091295
0.2790913185
0.2790913208
0.2790913724
0.2790913718
0.27909137
0.2790914085
0.2790915035
0.279091726
0.2790902248
0.279090223
0.2790902143
0.2790902139
0.2790902138
0.2790902287
0.2790902989
0.2790902896
0.2790902225
0.2790902403
0.279090253
0.2790902861
0.2790904915
0.2790909916
0.27909185
0.2790918794
0.2790918696
0.2790918718
0.2790918906
0.2790918869
0.2790918722
0.2790918844
0.2790918987
0.2790919198
0.2790919645
0.2790921105
0.279092635
0.2790939485
0.2790966415
0.2790906477
0.279090611
0.279090639
0.2790906329
0.2790906957
0.2790906808
0.2790906784
0.2790906891
0.2790907182
0.2790907109
0.2790907906
0.2790911608
0.2790923208
0.279095592
0.2791027292
0.2790907163
0.2790907256
0.2790907107
0.2790907116
0.2790907291
0.279090796
0.279090798
0.2790907622
0.279090737
0.2790908249
0.2790909729
0.2790914397
0.2790932361
0.2790992513
0.2791142557
0.2790923523
0.279092363
0.2790922853
0.2790923208
0.2790922777
0.2790922988
0.279092328
0.2790923431
0.2790923222
0.2790923316
0.2790924499
0.2790927743
0.279093855
0.2790971203
0.2791042776
0.2790914506
0.2790914226
0.2790914467
0.2790914511
0.2790914589
0.2790914816
0.2790914663
0.2790914834
0.2790914514
0.27909149
0.2790915179
0.2790916681
0.2790921556
0.2790934652
0.2790961707
0.2790926613
0.2790926801
0.279092677
0.2790926321
0.279092611
0.279092576
0.2790926024
0.2790926056
0.2790926071
0.2790925972
0.2790926129
0.2790926771
0.2790928602
0.2790933455
0.2790943175
0.2790920924
0.2790920743
0.2790920643
0.2790920697
0.2790920922
0.2790921056
0.2790920854
0.279092106
0.2790920971
0.2790920946
0.2790921063
0.2790921411
0.279092204
0.2790923957
0.2790927796
0.279092449
0.279092432
0.2790924416
0.2790924556
0.279092433
0.2790924288
0.279092432
0.2790923994
0.279092359
0.2790923346
0.2790923567
0.2790923977
0.2790925407
0.2790929443
0.279092035
0.2790920298
0.2790920834
0.2790920727
0.2790920579
0.2790921073
0.2790920654
0.2790920739
0.2790921106
0.2790921251
0.2790921788
0.2790922999
0.2790926996
0.2790936556
0.2790921716
0.2790921603
0.2790921425
0.2790921406
0.2790921413
0.2790921339
0.2790921242
0.2790921507
0.2790921547
0.2790921847
0.2790922722
0.2790926182
0.2790937442
0.2790970085
0.2790902915
0.2790902928
0.2790902971
0.2790902945
0.2790902924
0.2790903351
0.2790903252
0.279090325
0.2790903468
0.2790903973
0.2790905615
0.27909131
0.2790943001
0.2791046924
0.2791312944
0.2790925086
0.2790924794
0.279092463
0.2790924478
0.2790925013
0.2790924516
0.2790924829
0.2790924642
0.2790924795
0.2790925469
0.2790927926
0.2790940614
0.2790999744
0.2791256268
0.2792154595
0.2790923514
0.2790923557
0.2790923395
0.2790923582
0.2790923413
0.279092338
0.2790923087
0.2790923348
0.2790923252
0.2790923518
0.2790925288
0.2790933139
0.2790963555
0.2791067526
0.2791332791
0.2790922432
0.2790922414
0.2790922329
0.2790922031
0.2790922731
0.2790922863
0.2790923184
0.2790922737
0.2790922898
0.2790923191
0.2790923919
0.279092786
0.2790939009
0.2790971645
0.2791043276
0.2790906054
0.2790905857
0.279090616
0.2790906111
0.2790905935
0.2790905797
0.2790905989
0.2790906293
0.279090616
0.2790906097
0.2790906326
0.2790907578
0.2790911481
0.2790921218
0.2790941717
0.279092388
0.2790924121
0.2790924129
0.2790924136
0.2790924005
0.2790923745
0.2790923664
0.2790923732
0.2790923546
0.2790923559
0.2790923563
0.2790924637
0.2790926036
0.2790929736
0.27909369
0.2790914844
0.2790914684
0.2790914383
0.2790914328
0.2790914248
0.2790914699
0.2790915128
0.2790915156
0.2790915149
0.2790915036
0.2790915433
0.2790916328
0.2790918221
0.2790922817
0.2790917232
0.2790916959
0.2790917161
0.2790917043
0.2790917281
0.2790916833
0.2790916909
0.2790916889
0.2790916979
0.2790916926
0.2790917397
0.2790919361
0.2790925033
0.2790939923
0.2790910793
0.279091085
0.2790910718
0.2790910983
0.2790910757
0.2790910668
0.2790910928
0.2790910423
0.2790910391
0.2790910808
0.2790911894
0.2790916457
0.2790934736
0.2790995664
0.2790924679
0.2790924752
0.2790924769
0.2790925209
0.2790925646
0.2790925901
0.2790925806
0.2790925948
0.2790926026
0.2790926239
0.2790928657
0.2790941833
0.2791000474
0.2791256892
0.2790923007
0.2790923358
0.2790923228
0.2790923612
0.2790923447
0.2790923678
0.2790923715
0.2790923579
0.2790923727
0.2790924402
0.2790928316
0.2790952699
0.2791100006
0.2792060446
0.2811059032
0.2790926753
0.2790926299
0.2790926534
0.2790926623
0.2790926403
0.2790925957
0.2790925615
0.2790925895
0.2790925723
0.2790926415
0.2790929005
0.279094136
0.2791000267
0.2791256737
0.279215509
0.2790910277
0.2790910251
0.2790910617
0.2790910305
0.2790910608
0.2790910428
0.2790910284
0.2790909967
0.2790909968
0.279091059
0.279091192
0.2790916663
0.2790934541
0.2790994715
0.2791144591
0.2790921161
0.2790921096
0.2790920983
0.2790920819
0.2790920766
0.2790920633
0.2790920755
0.2790921068
0.2790920915
0.2790921112
0.2790921582
0.2790923403
0.2790928599
0.2790943414
0.2790974738
0.2790919202
0.2790919168
0.2790919059
0.2790919159
0.279091902
0.2790919206
0.2790919259
0.2790919072
0.2790919327
0.2790919607
0.2790919575
0.2790920116
0.2790922299
0.2790926669
0.2790935989
0.2790901933
0.2790902036
0.2790902092
0.2790902036
0.2790902226
0.2790902241
0.279090245
0.2790902721
0.2790902613
0.2790902412
0.2790902587
0.2790903212
0.2790904484
0.2790908238
0.2790916689
0.2790916684
0.2790916586
0.2790917094
0.2790916917
0.279091687
0.2790916597
0.2790916898
0.2790917146
0.2790917381
0.279091803
0.2790919042
0.2790922841
0.2790932557
0.2790915265
0.2790915417
0.2790915807
0.2790915705
0.2790915476
0.2790915661
0.279091613
0.2790915729
0.2790916008
0.2790916308
0.2790916856
0.2790920233
0.279093122
0.2790963637
0.279092339
0.2790923155
0.2790923437
0.2790923399
0.2790923554
0.2790923666
0.2790923904
0.2790923578
0.2790923437
0.2790923881
0.2790925719
0.2790933445
0.2790963699
0.2791067215
0.2790904488
0.2790904384
0.2790904251
0.2790904358
0.2790904573
0.2790904628
0.2790904578
0.2790904088
0.2790904473
0.2790905047
0.2790907343
0.2790920087
0.2790979494
0.2791236165
0.279092509
0.2790924547
0.2790924539
0.279092451
0.2790924315
0.2790924234
0.2790924171
0.2790924441
0.2790924557
0.2790924929
0.2790926391
0.2790934232
0.2790964283
0.2791068317
0.2790915573
0.2790915656
0.2790916085
0.2790916103
0.279091581
0.2790915857
0.2790916116
0.2790915927
0.2790915749
0.2790915759
0.2790916718
0.279091969
0.2790930722
0.279096339
0.279103522
0.2790911483
0.27909116
0.2790911797
0.279091185
0.2790911803
0.2790911555
0.2790911763
0.2790912209
0.279091231
0.2790912521
0.2790912964
0.2790913955
0.2790917737
0.2790928079
0.279094793
0.2790917931
0.2790917561
0.279091762
0.2790917656
0.279091769
0.2790917567
0.2790917798
0.2790917742
0.2790917921
0.2790917852
0.2790918301
0.2790918594
0.2790920261
0.2790924036
0.2790931421
0.2790916853
0.2790916989
0.2790917039
0.279091682
0.2790916722
0.2790916458
0.2790916545
0.279091675
0.2790916887
0.2790916774
0.2790916796
0.2790916951
0.2790918046
0.2790920279
0.2790922003
0.2790922212
0.2790921896
0.279092182
0.2790921839
0.2790921358
0.2790920738
0.279092056
0.2790920918
0.2790921173
0.2790921579
0.2790922514
0.2790924497
0.279092905
0.2790907984
0.2790908038
0.2790908313
0.2790908498
0.2790908555
0.2790908724
0.2790908609
0.2790908559
0.2790908326
0.2790908419
0.2790909301
0.2790910742
0.2790915678
0.2790928812
0.2790914142
0.2790914541
0.2790914757
0.2790914919
0.2790914842
0.2790915182
0.2790915212
0.2790914995
0.2790915426
0.2790915738
0.2790916826
0.2790920311
0.2790931718
0.2790964574
0.2790909178
0.2790909298
0.2790909414
0.2790909741
0.2790909395
0.2790909521
0.2790909515
0.2790909676
0.2790909691
0.2790909673
0.2790911114
0.2790916091
0.2790933991
0.2790993958
0.2790918253
0.2790918076
0.2790918014
0.2790918193
0.2790918289
0.2790917706
0.2790917662
0.2790917813
0.2790917989
0.2790918702
0.2790919633
0.2790922465
0.2790933224
0.2790965877
0.2790921039
0.2790920914
0.2790920827
0.2790920857
0.2790921184
0.2790920669
0.2790920769
0.2790920543
0.2790920924
0.2790921048
0.2790922208
0.2790924112
0.2790929054
0.2790942312
0.2790916877
0.2790916827
0.2790916709
0.2790916746
0.2790916664
0.279091676
0.2790917154
0.2790917032
0.2790916816
0.2790916805
0.2790916665
0.2790917197
0.2790918773
0.2790923376
0.2790932371
0.2790923126
0.2790922925
0.2790923182
0.2790923069
0.2790922488
0.2790922534
0.2790922534
0.2790922561
0.2790922974
0.2790923322
0.2790923524
0.2790923546
0.2790924606
0.2790926529
0.2790930554
0.2790916869
0.2790916835
0.2790916496
0.2790915908
0.2790916095
0.2790916304
0.2790916623
0.2790916728
0.2790916861
0.2790917049
0.2790916956
0.2790916982
0.2790917452
0.2790918705
0.2790923045
0.2790923106
0.2790922686
0.2790922418
0.2790922665
0.2790922623
0.2790922332
0.279092245
0.2790922535
0.2790922248
0.2790922219
0.2790922015
0.2790922928
0.2790924558
0.2790922299
0.2790922651
0.2790922578
0.2790922809
0.2790922891
0.2790922546
0.279092235
0.2790922331
0.2790922449
0.2790922841
0.2790923117
0.2790923606
0.2790925412
0.2790930146
0.2790912948
0.279091238
0.2790912268
0.2790912509
0.2790912538
0.2790912564
0.2790912668
0.27909133
0.2790912953
0.2790913081
0.2790913264
0.2790914418
0.2790918044
0.2790927968
0.2790921272
0.2790921516
0.2790921516
0.2790921902
0.2790922189
0.2790922332
0.2790922406
0.2790922151
0.2790922658
0.2790922456
0.2790922833
0.2790924676
0.2790930046
0.2790944865
0.2790915577
0.2790915388
0.2790915188
0.2790915306
0.2790915559
0.2790915344
0.2790915836
0.2790915841
0.2790915902
0.2790915914
0.2790915995
0.2790917121
0.2790920992
0.2790930976
0.2790937606
0.2790937947
0.2790938014
0.2790938036
0.2790938172
0.2790938131
0.2790938105
0.2790938282
0.2790938036
0.2790937987
0.2790938117
0.2790938724
0.2790940867
0.279094556
0.2790935585
0.2790935998
0.2790936105
0.27909363
0.2790936422
0.2790936596
0.2790936638
0.279093662
0.2790936521
0.2790936233
0.2790936539
0.2790936826
0.279093781
0.279094024
0.2790922482
0.2790922409
0.2790922314
0.2790922303
0.2790922492
0.2790922364
0.2790922312
0.2790922233
0.2790922457
0.2790922702
0.2790922754
0.279092271
0.2790922869
0.2790923983
0.2790925613
0.2790925098
0.2790925159
0.2790925129
0.2790925229
0.2790925169
0.27909253
0.2790925201
0.279092523
0.2790924768
0.2790925159
0.2790924993
0.2790925183
0.2790925293
0.2790925956
0.2790910777
0.2790910953
0.2790910647
0.2790910938
0.2790911032
0.2790910881
0.27909106
0.2790910682
0.279091058
0.2790910909
0.2790911299
0.2790911078
0.2790911311
0.27909123
0.279091501
0.2790914719
0.2790915022
0.2790915089
0.2790915466
0.2790915379
0.2790914891
0.2790914893
0.2790915036
0.2790915009
0.2790914899
0.2790915307
0.2790916381
0.2790918313
0.2790922368
0.2790922397
0.279092237
0.2790922521
0.2790922622
0.2790922645
0.2790922456
0.2790922552
0.2790923014
0.2790923063
0.279092288
0.2790923611
0.2790924996
0.279092859
0.2790920247
0.2790920073
0.2790920035
0.2790920215
0.2790920069
0.2790920085
0.2790920433
0.2790920429
0.2790920781
0.2790920454
0.2790920773
0.2790921499
0.279092336
0.2790928149
0.2790926231
0.2790926112
0.2790925965
0.2790925881
0.2790926234
0.2790926513
0.27909264
0.2790926473
0.2790926592
0.2790926606
0.2790926761
0.2790927091
0.279092881
0.2790932068
0.2790919372
0.2790919328
0.2790919189
0.2790919492
0.2790919483
0.2790919277
0.2790919487
0.2790919303
0.2790919316
0.2790919526
0.2790919647
0.2790919857
0.2790920788
0.2790922982
0.2790911305
0.2790911422
0.2790911576
0.2790911264
0.2790911562
0.2790911517
0.279091167
0.2790911969
0.2790911885
0.2790912162
0.2790912243
0.2790912664
0.279091296
0.2790913933
0.2790919516
0.2790919329
0.2790919482
0.2790919403
0.279091937
0.2790919298
0.2790919407
0.2790919466
0.2790919294
0.2790919153
0.2790919211
0.2790919506
0.2790920087
0.2790920515
)
;

boundaryField
{
    top
    {
        type            calculated;
        value           nonuniform List<scalar> 
134
(
0.279091723
0.2790914681
0.2790920924
0.279092388
0.2790919202
0.2790917931
0.2790923126
0.2790922482
0.2790919516
0.2790917454
0.2790914544
0.2790920743
0.2790924121
0.2790919168
0.2790917561
0.2790922925
0.2790922409
0.2790919329
0.2790917312
0.2790914606
0.2790920643
0.2790924129
0.2790919059
0.279091762
0.2790923182
0.2790922314
0.2790919482
0.2790917817
0.2790914135
0.2790920697
0.2790924136
0.2790919159
0.2790917656
0.2790923069
0.2790922303
0.2790919403
0.2790917991
0.2790914302
0.2790920922
0.2790924005
0.279091902
0.279091769
0.2790922488
0.2790922492
0.279091937
0.2790918078
0.2790914392
0.2790921056
0.2790923745
0.2790919206
0.2790917567
0.2790922534
0.2790922364
0.2790919298
0.2790917938
0.2790914345
0.2790920854
0.2790923664
0.2790919259
0.2790917798
0.2790922534
0.2790922312
0.2790919407
0.279091772
0.2790914443
0.279092106
0.2790923732
0.2790919072
0.2790917742
0.2790922561
0.2790922233
0.2790919466
0.2790917793
0.2790914557
0.2790920971
0.2790923546
0.2790919327
0.2790917921
0.2790922974
0.2790922457
0.2790919294
0.2790918007
0.2790914183
0.2790920946
0.2790923559
0.2790919607
0.2790917852
0.2790923322
0.2790922702
0.2790919153
0.279091795
0.2790914684
0.2790921063
0.2790923563
0.2790919575
0.2790918301
0.2790923524
0.2790922754
0.2790919211
0.2790917687
0.2790915206
0.2790921411
0.2790924637
0.2790920116
0.2790918594
0.2790923546
0.279092271
0.2790919506
0.2790918062
0.2790915295
0.279092204
0.2790926036
0.2790922299
0.2790920261
0.2790924606
0.2790922869
0.2790920087
0.2790918647
0.2790916176
0.2790923957
0.2790929736
0.2790926669
0.2790924036
0.2790926529
0.2790923983
0.2790920515
0.2790919974
0.2790918342
0.2790927796
0.27909369
0.2790935989
0.2790931421
0.2790930554
0.2790925613
)
;
    }
    bottom
    {
        type            calculated;
        value           nonuniform List<scalar> 
127
(
0.2790914033
0.2790913017
0.2790913014
0.279092449
0.2790914844
0.2790901933
0.2790916853
0.2790916869
0.2790925098
0.279091419
0.2790913141
0.2790912924
0.279092432
0.2790914684
0.2790902036
0.2790916989
0.2790916835
0.2790925159
0.2790914119
0.2790913221
0.2790913254
0.2790924416
0.2790914383
0.2790902092
0.2790917039
0.2790916496
0.2790925129
0.2790914283
0.2790913061
0.2790913156
0.2790924556
0.2790914328
0.2790902036
0.279091682
0.2790915908
0.2790925229
0.2790914187
0.2790912616
0.2790913194
0.279092433
0.2790914248
0.2790902226
0.2790916722
0.2790916095
0.2790925169
0.2790913992
0.2790912509
0.279091295
0.2790924288
0.2790914699
0.2790902241
0.2790916458
0.2790916304
0.27909253
0.2790914067
0.2790912664
0.2790913185
0.279092432
0.2790915128
0.279090245
0.2790916545
0.2790916623
0.2790925201
0.279091433
0.2790913166
0.2790913208
0.2790923994
0.2790915156
0.2790902721
0.279091675
0.2790916728
0.279092523
0.2790914495
0.2790913051
0.2790913724
0.279092359
0.2790915149
0.2790902613
0.2790916887
0.2790916861
0.2790924768
0.2790914645
0.2790913056
0.2790913718
0.2790923346
0.2790915036
0.2790902412
0.2790916774
0.2790917049
0.2790925159
0.2790914837
0.2790913243
0.27909137
0.2790923567
0.2790915433
0.2790902587
0.2790916796
0.2790916956
0.2790924993
0.2790914784
0.2790913567
0.2790914085
0.2790923977
0.2790916328
0.2790903212
0.2790916951
0.2790916982
0.2790925183
0.2790915064
0.2790914073
0.2790915035
0.2790925407
0.2790918221
0.2790904484
0.2790918046
0.2790917452
0.2790925293
0.2790915869
0.2790914942
0.279091726
0.2790929443
0.2790922817
0.2790908238
0.2790920279
0.2790918705
0.2790925956
0.2790916745
)
;
    }
    side-walls
    {
        type            calculated;
        value           nonuniform List<scalar> 
261
(
0.2790914033
0.2790905466
0.2790918632
0.2790919731
0.2790923626
0.2790915281
0.2790912315
0.2790919883
0.279091723
0.279091419
0.279090569
0.2790918605
0.2790919601
0.2790923438
0.2790915629
0.2790911944
0.2790919853
0.2790917454
0.2790914119
0.2790905605
0.2790918677
0.2790919546
0.2790923489
0.2790915671
0.2790912317
0.2790919613
0.2790917312
0.2790914283
0.2790905463
0.2790918689
0.2790919556
0.2790923123
0.2790915436
0.2790912101
0.279091936
0.2790917817
0.2790914187
0.2790905221
0.2790918593
0.279091946
0.2790923413
0.2790915181
0.2790911984
0.2790919027
0.2790917991
0.2790913992
0.2790905523
0.2790918896
0.2790919619
0.2790923263
0.2790915094
0.2790912381
0.2790919159
0.2790918078
0.2790914067
0.2790905951
0.2790918877
0.279091964
0.2790923369
0.2790915436
0.2790912939
0.2790919061
0.2790917938
0.279091433
0.2790905707
0.2790918627
0.2790919559
0.279092315
0.2790915495
0.2790912691
0.2790918816
0.279091772
0.2790914495
0.2790905569
0.2790918348
0.2790919758
0.2790922885
0.2790915457
0.279091251
0.2790919168
0.2790917793
0.2790914645
0.2790905443
0.2790918053
0.2790919772
0.2790922915
0.2790915296
0.2790912651
0.2790919301
0.2790918007
0.2790914837
0.279090579
0.279091825
0.2790919809
0.2790923448
0.2790915602
0.2790912804
0.2790919344
0.279091795
0.2790914784
0.2790905909
0.2790918617
0.2790920262
0.279092408
0.279091619
0.2790913256
0.2790919345
0.2790917687
0.2790915064
0.279090624
0.2790920038
0.2790921815
0.2790925764
0.2790917326
0.2790914005
0.279091996
0.2790918062
0.2790915869
0.279090791
0.2790921775
0.2790925593
0.2790930375
0.2790920805
0.279091635
0.279092128
0.2790918647
0.2790916745
0.2790909956
0.2790925872
0.2790932686
0.2790939814
0.2790928175
0.2790920133
0.2790923189
0.2790919974
0.2790925098
0.2790910777
0.279091501
0.2790922368
0.2790920247
0.2790926231
0.2790919372
0.2790911305
0.2790919516
0.2790925159
0.2790910953
0.2790914719
0.2790922397
0.2790920073
0.2790926112
0.2790919328
0.2790911422
0.2790919329
0.2790925129
0.2790910647
0.2790915022
0.279092237
0.2790920035
0.2790925965
0.2790919189
0.2790911576
0.2790919482
0.2790925229
0.2790910938
0.2790915089
0.2790922521
0.2790920215
0.2790925881
0.2790919492
0.2790911264
0.2790919403
0.2790925169
0.2790911032
0.2790915466
0.2790922622
0.2790920069
0.2790926234
0.2790919483
0.2790911562
0.279091937
0.27909253
0.2790910881
0.2790915379
0.2790922645
0.2790920085
0.2790926513
0.2790919277
0.2790911517
0.2790919298
0.2790925201
0.27909106
0.2790914891
0.2790922456
0.2790920433
0.27909264
0.2790919487
0.279091167
0.2790919407
0.279092523
0.2790910682
0.2790914893
0.2790922552
0.2790920429
0.2790926473
0.2790919303
0.2790911969
0.2790919466
0.2790924768
0.279091058
0.2790915036
0.2790923014
0.2790920781
0.2790926592
0.2790919316
0.2790911885
0.2790919294
0.2790925159
0.2790910909
0.2790915009
0.2790923063
0.2790920454
0.2790926606
0.2790919526
0.2790912162
0.2790919153
0.2790924993
0.2790911299
0.2790914899
0.279092288
0.2790920773
0.2790926761
0.2790919647
0.2790912243
0.2790919211
0.2790925183
0.2790911078
0.2790915307
0.2790923611
0.2790921499
0.2790927091
0.2790919857
0.2790912664
0.2790919506
0.2790925293
0.2790911311
0.2790916381
0.2790924996
0.279092336
0.279092881
0.2790920788
0.279091296
0.2790920087
0.2790925956
0.27909123
0.2790918313
0.279092859
0.2790928149
0.2790932068
0.2790922982
0.2790913933
0.2790920515
)
;
    }
    inlet
    {
        type            calculated;
        value           nonuniform List<scalar> 
81
(
0.2790914033
0.2790905466
0.2790918632
0.2790919731
0.2790923626
0.2790915281
0.2790912315
0.2790919883
0.279091723
0.2790913017
0.2790935766
0.2790925993
0.2790917392
0.2790898095
0.2790915763
0.279091765
0.2790911451
0.2790914681
0.2790913014
0.2790902248
0.27909185
0.2790906477
0.2790907163
0.2790923523
0.2790914506
0.2790926613
0.2790920924
0.279092449
0.279092035
0.2790921716
0.2790902915
0.2790925086
0.2790923514
0.2790922432
0.2790906054
0.279092388
0.2790914844
0.2790917232
0.2790910793
0.2790924679
0.2790923007
0.2790926753
0.2790910277
0.2790921161
0.2790919202
0.2790901933
0.2790916689
0.2790915265
0.279092339
0.2790904488
0.279092509
0.2790915573
0.2790911483
0.2790917931
0.2790916853
0.2790922003
0.2790907984
0.2790914142
0.2790909178
0.2790918253
0.2790921039
0.2790916877
0.2790923126
0.2790916869
0.2790923045
0.2790922299
0.2790912948
0.2790921272
0.2790915577
0.2790937606
0.2790935585
0.2790922482
0.2790925098
0.2790910777
0.279091501
0.2790922368
0.2790920247
0.2790926231
0.2790919372
0.2790911305
0.2790919516
)
;
    }
    outlet
    {
        type            calculated;
        value           nonuniform 0();
    }
    procBoundary0to1
    {
        type            processor;
        value           nonuniform List<scalar> 
97
(
0.2790918811
0.2790917038
0.2790913563
0.2790932463
0.2790943633
0.2790953886
0.2790938624
0.2790926823
0.2790926943
0.2790922206
0.2790917038
0.2790917038
0.279094853
0.279091922
0.2790958342
0.2790980052
0.2790989015
0.2790977452
0.2790948155
0.2790925877
0.2790921943
0.2790920891
0.279091922
0.279091922
0.2791002386
0.2791041511
0.2791105174
0.2791254785
0.2791120475
0.2790997712
0.2790957468
0.2790934414
0.2790936772
0.2790956807
0.2791041511
0.2791041511
0.279149259
0.2792155964
0.2792292171
0.2791512697
0.2791121014
0.2790968638
0.2790947627
0.2790932173
0.2790971021
0.2791145275
0.2792155964
0.2792155964
0.2807816507
0.2792134627
0.2792292639
0.2791333994
0.2791257179
0.2791012366
0.2790950258
0.279091545
0.2790952504
0.2791035342
0.2791333038
0.2792134627
0.2791333994
0.2791333994
0.2791112747
0.2790969284
0.2790975196
0.2790942655
0.2790924364
0.2790939179
0.2790955958
0.2791035874
0.279114385
0.2791037129
0.2790969284
0.2790969284
0.279094631
0.2790944996
0.2790937493
0.2790920836
0.2790929096
0.2790939489
0.2790948136
0.279097688
0.2790950768
0.2790954945
0.2790944996
0.2790944996
0.2790929135
0.2790921368
0.2790927214
0.2790914497
0.2790922711
0.2790935762
0.2790937667
0.279093932
0.2790926843
0.2790916304
0.2790921368
)
;
    }
}


// ************************************************************************* //
