/*--------------------------------*- C++ -*----------------------------------*\
| =========                 |                                                 |
| \\      /  F ield         | OpenFOAM: The Open Source CFD Toolbox           |
|  \\    /   O peration     | Version:  4.x                                   |
|   \\  /    A nd           | Web:      www.OpenFOAM.org                      |
|    \\/     M anipulation  |                                                 |
\*---------------------------------------------------------------------------*/
FoamFile
{
    version     2.0;
    format      ascii;
    class       volVectorField;
    location    "6000";
    object      U;
}
// * * * * * * * * * * * * * * * * * * * * * * * * * * * * * * * * * * * * * //

dimensions      [0 1 -1 0 0 0 0];

internalField   nonuniform List<vector> 
1175
(
(0.01100000121 -1.567358881e-11 -6.100955757e-11)
(0.01100000006 -3.67869666e-10 1.377084556e-09)
(0.01100000072 -2.169984225e-10 8.428767827e-10)
(0.01099999811 -3.539225503e-09 3.204469264e-09)
(0.010999999 -2.37354165e-09 5.797803695e-10)
(0.01100000027 -9.477875918e-10 8.073259108e-10)
(0.01100000302 4.446539402e-10 -2.926353778e-10)
(0.01100000169 -4.140377271e-10 -6.313915768e-10)
(0.01100000542 1.533859362e-09 -2.508228202e-09)
(0.01100000724 1.11729631e-09 -4.544328164e-09)
(0.01100001903 -2.599523235e-09 -3.574293073e-09)
(0.01100002434 -4.506529943e-09 -4.335716448e-09)
(0.01100005255 -7.672949895e-09 -5.096315873e-09)
(0.01100006612 -4.294590293e-09 -4.435841735e-09)
(0.0110001147 -1.793769219e-08 -1.672570673e-08)
(0.01100000071 -2.004230735e-10 -3.685278271e-10)
(0.01099999868 1.892930592e-10 -6.19587323e-10)
(0.01099999997 2.163935086e-10 4.960450255e-10)
(0.01099999882 -2.34400877e-10 -1.021145968e-09)
(0.01100000195 -6.972689733e-10 1.159201726e-09)
(0.01100000114 -1.205663492e-09 -8.792873769e-10)
(0.01099999861 -1.636079801e-09 -1.281731157e-09)
(0.01100000171 -3.167442019e-09 -1.327678632e-09)
(0.01100000445 -2.86250332e-09 -5.094275432e-10)
(0.01100000615 -4.986912943e-09 -3.138315623e-09)
(0.01100001641 -8.602331563e-09 -2.999103184e-09)
(0.01100001886 -1.236130745e-08 -4.971557092e-09)
(0.01100005066 -2.329060746e-08 -4.989234662e-09)
(0.01100005563 -2.463445779e-08 -2.585381376e-09)
(0.01100010952 -6.788209164e-08 -2.470223781e-08)
(0.01100000068 -1.295421674e-09 1.73085919e-09)
(0.01100000164 -1.373463963e-09 1.12203858e-09)
(0.01099999936 -5.21781953e-10 -7.924501894e-10)
(0.01099999819 -1.854813959e-09 9.900796749e-10)
(0.01099999929 -1.362345164e-09 -1.420042968e-09)
(0.01099999782 -2.164832985e-09 -2.660020695e-09)
(0.01099999786 -2.068024361e-09 7.669313809e-10)
(0.01099999986 -3.0065093e-09 -1.892195856e-09)
(0.01100000071 -5.008017982e-09 -3.378115808e-09)
(0.0110000014 -5.11809152e-09 -3.03425698e-09)
(0.01100000866 -7.909105438e-09 -3.167862748e-09)
(0.01100000625 -1.18695268e-08 -6.761631536e-09)
(0.01100003671 -2.53393903e-08 -1.067300237e-08)
(0.01100001994 -2.142571801e-08 -1.008477583e-08)
(0.01100010085 -8.339238874e-08 -5.742125991e-08)
(0.0109999992 -3.54119653e-10 2.708335293e-10)
(0.01100000255 -7.220295575e-10 2.099003411e-09)
(0.01099999997 -2.787735341e-11 -1.536990747e-10)
(0.01099999833 -2.900874344e-10 -2.704648485e-09)
(0.01099999976 -8.263125291e-10 -1.659445963e-09)
(0.01099999913 -3.011171318e-10 -2.102225373e-09)
(0.01099999888 -6.621217241e-10 -1.797343031e-09)
(0.01099999792 -2.158751228e-09 -2.747794393e-09)
(0.01099999986 -3.357481055e-09 -1.199760336e-09)
(0.01100000015 -4.31942839e-09 -1.231841842e-09)
(0.01100000865 -7.364892321e-09 4.7461816e-11)
(0.01100000194 -1.545536296e-08 -6.54654893e-09)
(0.01100003627 -3.497672055e-08 -9.577019994e-09)
(0.01099999647 -4.222257516e-08 -3.73812489e-09)
(0.01100010364 -1.417649281e-07 -7.531523214e-08)
(0.01099999979 1.156442955e-09 -1.322271527e-09)
(0.01100000092 9.409314511e-10 -1.403119279e-09)
(0.01099999855 1.138574768e-09 -3.539690233e-10)
(0.01099999858 1.403845581e-09 -4.324194626e-10)
(0.01099999752 1.304859998e-09 -8.072651329e-10)
(0.01099999891 -4.012933461e-10 -2.813490485e-09)
(0.0109999974 -1.31266152e-09 -1.638230174e-09)
(0.01099999726 -3.409902065e-10 -4.517812571e-09)
(0.01099999859 1.397659889e-09 -2.637000851e-09)
(0.01099999666 1.40674736e-09 -2.783264629e-09)
(0.01099999733 5.604184744e-10 -4.986070086e-09)
(0.01099997544 2.648215414e-09 -1.606585974e-08)
(0.01100000485 2.092847712e-09 -2.546649867e-08)
(0.01099991405 1.057519275e-09 -3.851481103e-08)
(0.01100009383 1.455242459e-09 -2.065971209e-07)
(0.01099999986 -2.650887557e-10 -2.553669419e-10)
(0.01100000157 3.297538828e-10 -1.775877593e-10)
(0.01099999845 -9.505516438e-10 3.287598751e-10)
(0.01099999837 1.412125571e-09 4.460582291e-10)
(0.0109999983 -3.394944836e-10 1.560344782e-10)
(0.01100000093 9.254820518e-10 -1.05051368e-09)
(0.01099999817 2.29113194e-09 7.271805806e-10)
(0.01099999976 1.537298697e-09 -1.034485071e-09)
(0.01100000248 4.720481742e-09 -1.18539475e-09)
(0.01100000212 5.778916594e-09 -2.303346917e-09)
(0.0110000084 1.058532316e-08 -2.195347697e-09)
(0.01100000008 1.798458651e-08 -5.150689487e-09)
(0.01100003556 3.738863924e-08 -8.618297097e-09)
(0.01099999742 4.42088249e-08 -3.960121937e-09)
(0.0110001025 1.42144032e-07 -7.694390821e-08)
(0.01099999891 -3.371233481e-10 -7.419423479e-10)
(0.01100000119 -3.12526637e-10 6.823168591e-10)
(0.01099999966 -3.063159964e-10 -4.93156069e-10)
(0.01100000036 -7.179479136e-10 -2.521610433e-09)
(0.01100000092 9.656506877e-10 -6.348916962e-10)
(0.01100000048 -4.64186953e-10 -1.079404322e-09)
(0.01099999978 2.633358597e-09 -3.41476884e-09)
(0.01100000226 2.304089602e-09 -2.066331352e-09)
(0.01100000226 2.314546003e-09 8.434962832e-10)
(0.01100000269 6.09023525e-09 -1.692494608e-09)
(0.01100001172 1.032500076e-08 -2.090584684e-09)
(0.01100000494 1.338553866e-08 -6.361941671e-09)
(0.01100003558 2.600930414e-08 -1.313277888e-08)
(0.01100001842 2.242050887e-08 -9.415550316e-09)
(0.01100010096 8.354365218e-08 -5.661118923e-08)
(0.01100000009 1.419069906e-09 1.119051743e-09)
(0.0110000001 2.503321479e-09 1.972596239e-09)
(0.01099999891 1.269762767e-09 2.944950474e-10)
(0.01100000035 1.311561933e-09 -1.627130273e-09)
(0.01100000022 2.59350655e-09 -4.908103007e-11)
(0.0110000017 3.151856961e-09 2.519110883e-10)
(0.01100000134 1.724085767e-09 -6.684747135e-10)
(0.01100000362 3.259115884e-09 -1.495844166e-09)
(0.01100000553 3.552458344e-09 -1.658198212e-10)
(0.011000008 6.891407894e-09 -1.29828287e-09)
(0.01100001818 8.999997526e-09 -2.073937346e-09)
(0.01100002036 1.159396513e-08 -2.683138385e-09)
(0.01100005078 2.467756207e-08 -9.030581449e-09)
(0.01100005317 2.274786622e-08 -4.046623896e-09)
(0.01100011165 6.802672783e-08 -2.502854453e-08)
(0.01100000013 9.124636588e-10 1.058551382e-09)
(0.01099999899 5.428894254e-10 -2.267599412e-09)
(0.01100000057 7.150790013e-10 -2.873727386e-09)
(0.01100000015 2.64068603e-10 -2.000602855e-10)
(0.01099999892 1.538383626e-09 3.385519928e-10)
(0.0110000006 1.249341617e-09 -1.774453355e-09)
(0.01100000154 1.585532195e-09 1.329862721e-10)
(0.01100000336 1.319245267e-09 -3.328288618e-10)
(0.01100000842 1.840130358e-09 -4.11298293e-10)
(0.01100000991 1.963884141e-09 2.388359061e-09)
(0.01100001918 3.599135876e-09 -1.524297129e-10)
(0.01100002514 4.618743692e-09 -3.557762762e-09)
(0.01100005249 5.897411382e-09 -9.674538107e-09)
(0.01100006655 4.150766172e-09 -4.851253632e-09)
(0.01100011521 1.808787004e-08 -1.855307852e-08)
(0.01100000031 2.581150947e-10 1.010578527e-09)
(0.01100000011 1.732096395e-09 -8.749090456e-10)
(0.01099999728 4.771636794e-10 -1.388042654e-09)
(0.01099999819 -2.483549144e-09 -4.944630398e-10)
(0.01099999928 -1.13452754e-09 -4.430279501e-10)
(0.01100000053 -3.733929129e-10 -1.978482549e-09)
(0.01099999978 -1.392364322e-09 -9.723719623e-10)
(0.01100000339 -1.729700154e-09 -2.576821818e-09)
(0.01100000423 -7.025334307e-10 -2.679866083e-09)
(0.01100000657 -2.786887076e-09 -4.045750011e-09)
(0.01100001787 -3.024578582e-09 -7.890409091e-09)
(0.01100001934 -3.357471561e-09 -1.132138654e-08)
(0.01100005163 -7.753482148e-09 -2.456359806e-08)
(0.01100005419 -2.756550581e-09 -2.247504291e-08)
(0.01099999908 -1.165935805e-09 1.358532449e-09)
(0.01099999982 -3.463935218e-10 7.900848439e-10)
(0.01099999856 -3.91230013e-10 -1.247786096e-09)
(0.01099999847 -1.452079668e-10 4.450330607e-10)
(0.0109999984 -1.630813953e-09 1.017868909e-09)
(0.01100000012 -2.538921689e-09 -1.632141431e-09)
(0.01099999864 -3.299243179e-10 -1.715034728e-09)
(0.01100000331 -3.053114784e-09 -2.180643569e-09)
(0.01100000326 -2.856370659e-09 -4.071303418e-09)
(0.01100000228 -5.219343674e-09 -4.394988516e-09)
(0.01100001446 -7.883676119e-09 -7.549976932e-09)
(0.01100001351 -1.329882581e-08 -1.334790166e-08)
(0.01100004781 -3.07324404e-08 -2.980324146e-08)
(0.0110000333 -2.717704021e-08 -2.716681069e-08)
(0.0110001065 -1.062817423e-07 -1.066417397e-07)
(0.01100000102 -5.199569649e-11 1.156595842e-09)
(0.01100000002 -1.446618871e-09 8.539534349e-11)
(0.01100000115 -9.865759071e-10 -3.53410492e-10)
(0.01099999901 -1.754194559e-09 7.626701005e-11)
(0.01099999926 -1.835566384e-09 5.161324547e-10)
(0.01100000063 -6.476509239e-10 -3.844232601e-10)
(0.01099999961 1.150514775e-10 -6.771386924e-10)
(0.01099999979 -2.62203088e-09 -3.795591295e-09)
(0.01099999917 -4.036985262e-09 -2.533896101e-09)
(0.01099999757 -4.751494116e-09 -4.69848649e-09)
(0.01100000499 -4.952063135e-09 -8.67156794e-09)
(0.01099999397 -1.32784336e-08 -2.009190099e-08)
(0.01100002875 -2.505191291e-08 -4.488818783e-08)
(0.01099997772 -2.041177864e-08 -5.033926615e-08)
(0.01100009412 -1.35137472e-07 -2.399057609e-07)
(0.01099999963 -6.732052635e-10 1.318692236e-09)
(0.01100000038 2.067561418e-10 7.218545177e-12)
(0.01099999928 -1.434304065e-10 4.864301311e-11)
(0.0109999982 2.689405611e-10 -1.073558891e-09)
(0.01099999983 -1.190516916e-09 1.228226046e-10)
(0.01100000034 -5.646539068e-10 -2.085898457e-09)
(0.0110000007 -1.985592521e-09 -1.248517339e-09)
(0.01099999813 -1.076146204e-09 -9.27672204e-10)
(0.01099999909 -3.59953875e-09 -2.325585725e-09)
(0.01100000117 -4.612840817e-09 -5.663782526e-09)
(0.01100000354 -1.096810253e-08 -6.874765746e-09)
(0.01099999513 -2.459161629e-08 -2.24138066e-08)
(0.01100002894 -4.86586248e-08 -3.791198921e-08)
(0.0109999429 -7.066712844e-08 -5.423806973e-08)
(0.01100009166 -2.966406446e-07 -3.680146049e-07)
(0.01099999962 -3.876152204e-10 -5.267710107e-10)
(0.01100000163 1.47985078e-10 1.231211944e-10)
(0.01099999913 8.034343399e-10 -1.572581896e-09)
(0.01099999819 1.436475185e-09 -2.199117335e-09)
(0.01099999751 1.462786535e-09 -4.1939441e-11)
(0.01100000043 6.910152288e-11 -1.261175986e-10)
(0.01099999843 -6.834716784e-10 1.361153691e-10)
(0.01099999922 -1.677426234e-09 -4.203172496e-10)
(0.010999998 1.96040619e-10 -2.329094525e-09)
(0.01099999217 -6.59253592e-10 -9.300078782e-09)
(0.0109999865 4.7108101e-10 -1.096827882e-08)
(0.01099995737 2.162646978e-09 -4.697284226e-08)
(0.0109999663 1.050929515e-09 -8.775539731e-08)
(0.01099975664 1.490007853e-10 -1.903803495e-07)
(0.01100007151 -6.047323845e-10 -9.600200787e-07)
(0.01100000118 -4.990463577e-10 2.717878838e-10)
(0.01099999931 -1.687152609e-10 -7.441570935e-10)
(0.0110000001 -1.077830942e-09 -1.977637502e-09)
(0.01099999764 -1.224867392e-09 -8.125926829e-10)
(0.0109999999 4.513777e-11 -9.499245304e-10)
(0.01099999933 5.332755296e-10 -1.072588355e-09)
(0.01099999702 1.271833919e-10 -6.851318792e-10)
(0.01100000164 2.208394182e-09 -1.78292934e-09)
(0.01100000319 3.035794786e-09 -2.174804936e-09)
(0.01100000138 7.986308823e-09 -5.969019878e-09)
(0.01100000551 1.189572414e-08 -4.164753883e-09)
(0.01099999422 2.405253032e-08 -2.319722349e-08)
(0.01100002835 4.960541343e-08 -3.654300742e-08)
(0.01099994287 7.2104853e-08 -5.460028796e-08)
(0.01100008898 2.958408199e-07 -3.703608732e-07)
(0.01099999933 9.114692128e-10 -1.340605854e-10)
(0.01100000084 -1.405605597e-10 1.166930009e-10)
(0.0110000001 -5.481613883e-10 -2.709638912e-10)
(0.01099999937 2.047338445e-09 -1.10030772e-09)
(0.0110000003 1.729950212e-09 -1.433893707e-09)
(0.0110000002 1.01930864e-09 -8.160293982e-11)
(0.01100000041 2.579193562e-09 -1.665161619e-09)
(0.01100000123 3.377576027e-09 -1.473863633e-09)
(0.01100000036 3.137230078e-09 -1.369307924e-09)
(0.01100000165 5.888896353e-09 -5.04826841e-09)
(0.01100000651 7.77649673e-09 -9.690139893e-09)
(0.01099999569 1.440005567e-08 -2.061699087e-08)
(0.01100002906 2.598991662e-08 -4.540660467e-08)
(0.01099997542 2.11036407e-08 -5.198815818e-08)
(0.01100009406 1.387321436e-07 -2.399531587e-07)
(0.01099999953 1.548843148e-09 1.92462651e-10)
(0.01100000115 1.103804613e-09 5.228191986e-11)
(0.01099999752 2.362977175e-09 -4.548610229e-10)
(0.01099999907 6.720231477e-10 -1.846854653e-09)
(0.01100000071 1.130983908e-09 1.310026488e-10)
(0.01099999933 1.352232376e-09 -1.075016327e-09)
(0.0110000015 7.964105097e-10 -5.328885857e-10)
(0.01100000201 1.500314917e-09 -1.340639472e-09)
(0.01100000666 4.2584568e-09 -1.851989785e-09)
(0.01100000571 5.31504062e-09 -4.312638717e-09)
(0.01100001507 7.71104914e-09 -7.238483243e-09)
(0.01100001353 1.405637414e-08 -1.282312743e-08)
(0.01100004574 3.009292413e-08 -2.944238707e-08)
(0.01100003579 2.79208001e-08 -2.783486236e-08)
(0.01100010583 1.086150718e-07 -1.072558288e-07)
(0.01099999977 -2.050113931e-11 -1.525015674e-09)
(0.01100000023 1.331251892e-09 -1.137357632e-09)
(0.01100000034 -1.132305683e-10 -1.33700982e-09)
(0.01099999912 2.984093743e-10 -1.75666683e-09)
(0.01099999995 7.978030768e-10 -1.474362987e-09)
(0.01100000082 -4.693141807e-11 -1.250604015e-09)
(0.01100000122 -1.813285319e-10 -2.030724308e-09)
(0.01100000391 1.343285238e-09 -1.979456161e-09)
(0.01100000605 1.057076395e-09 -2.662915364e-09)
(0.01100000904 1.647787803e-09 -4.44222997e-09)
(0.01100001677 3.647120297e-09 -8.018992341e-09)
(0.01100001788 3.721179194e-09 -1.196645305e-08)
(0.01100005105 8.373682954e-09 -2.29279403e-08)
(0.01100005704 1.37154811e-09 -2.321470812e-08)
(0.01100011145 2.340219688e-08 -6.768588293e-08)
(0.01099999981 1.590214538e-09 -6.504700873e-10)
(0.01100000291 1.097341336e-09 -8.779703869e-10)
(0.01099999696 1.068877357e-09 3.088622104e-11)
(0.0109999986 1.089175051e-10 -1.443341614e-09)
(0.01099999708 -8.671593318e-10 -4.076047352e-11)
(0.01100000088 3.020220983e-10 -1.417477514e-09)
(0.01099999862 -2.639159721e-09 -1.514955185e-09)
(0.01099999786 4.7602534e-10 -1.929073439e-09)
(0.01100000407 1.636011755e-10 -3.834427304e-09)
(0.01100000188 -2.074991201e-09 -4.049844784e-09)
(0.01100001056 -1.701388135e-09 -8.00378612e-09)
(0.01100000533 -3.069960396e-09 -1.172121514e-08)
(0.01100003797 -1.40516771e-08 -2.523697974e-08)
(0.01100001929 -8.167769457e-09 -1.974574631e-08)
(0.01099999825 3.193021497e-11 7.027473298e-10)
(0.01099999798 -1.099743138e-09 -2.790766127e-10)
(0.0109999994 -2.694307696e-10 1.948392646e-09)
(0.01099999802 -2.170024223e-09 1.277382813e-09)
(0.01099999806 -4.869837183e-10 9.757767434e-10)
(0.01099999883 -3.157301423e-10 -8.813060775e-10)
(0.01099999789 -2.553594104e-09 -1.410812471e-10)
(0.01099999765 -2.126295415e-09 -2.138584053e-09)
(0.01100000264 -1.882568024e-09 -3.252802293e-09)
(0.01100000159 -6.29778606e-09 -4.146994791e-09)
(0.01100000687 -8.58322827e-09 -5.739788028e-09)
(0.01099999589 -2.111102603e-08 -1.325736052e-08)
(0.01100002876 -4.478952337e-08 -2.46594059e-08)
(0.0109999762 -5.116205668e-08 -1.985298652e-08)
(0.01100000024 -1.235463668e-09 -5.988450729e-10)
(0.01099999751 -8.876400426e-10 1.980275099e-09)
(0.0109999987 -3.07368754e-09 1.584284857e-09)
(0.01100000017 -4.339357346e-09 1.139556969e-09)
(0.01099999582 -3.272032521e-09 7.266186437e-10)
(0.01099999818 -1.938980335e-09 -1.30526443e-09)
(0.0109999977 1.354139887e-09 -2.091173508e-09)
(0.01099999818 -1.503424406e-09 -1.796428017e-09)
(0.01099999559 -1.942792818e-09 -3.018560257e-09)
(0.0109999938 -5.25785011e-09 -6.413855771e-09)
(0.01099999177 -6.555867081e-09 -5.789586333e-09)
(0.01099996657 -2.185440494e-08 -2.017972279e-08)
(0.01099998538 -3.24555259e-08 -3.314915633e-08)
(0.01099984292 -4.751645751e-08 -4.661093783e-08)
(0.01100004394 -3.459586303e-07 -3.500409795e-07)
(0.0109999991 -9.37098396e-10 4.518431811e-10)
(0.01099999964 -1.15153772e-10 7.762825896e-11)
(0.01099999899 -4.25578266e-10 -6.345885838e-10)
(0.01099999918 -1.190703708e-09 9.760933081e-10)
(0.0109999996 -1.479336054e-09 -3.410351095e-10)
(0.01099999986 -7.874857166e-10 -2.165113069e-09)
(0.01099999767 -1.210738567e-09 -9.391550171e-10)
(0.01099999867 -2.349057828e-09 -2.769982729e-09)
(0.01099999563 -2.927385714e-09 -1.317906412e-09)
(0.01099999631 -9.847615988e-09 -6.683355283e-09)
(0.01099999042 -1.122489705e-08 4.285409946e-09)
(0.01099997635 -4.417865188e-08 -1.725547858e-08)
(0.01099995915 -7.979611702e-08 2.273056305e-08)
(0.01099976192 -1.841853185e-07 -2.44577569e-08)
(0.01099991598 -8.756647871e-07 -4.982487192e-07)
(0.0110000005 -2.344801933e-09 -6.39536881e-11)
(0.01099999959 -1.477980643e-09 -1.08097342e-09)
(0.01100000018 -5.895046259e-10 -2.260311099e-09)
(0.01099999955 6.473974053e-10 -1.540309579e-09)
(0.01099999966 -2.859113775e-11 -3.576043367e-10)
(0.01099999775 -1.717069194e-10 -1.27639146e-09)
(0.01099999603 -8.556631124e-10 -2.725577056e-10)
(0.01099999768 1.009805495e-09 -2.763737078e-09)
(0.01099998984 1.347177916e-09 3.463640002e-10)
(0.01099998577 9.006854761e-10 -1.073130717e-08)
(0.01099995251 1.627076939e-09 1.242445413e-09)
(0.010999906 3.000400522e-09 -5.967476264e-08)
(0.01099977388 2.278623673e-09 -2.478855907e-08)
(0.01099923956 9.846827054e-10 -3.34059136e-07)
(0.01099959426 9.591510659e-10 -1.870037886e-06)
(0.01100000005 -1.415306691e-10 -1.416049704e-09)
(0.01099999908 -5.664776932e-10 -2.327831363e-09)
(0.01100000211 1.283189608e-09 -2.792850642e-09)
(0.01099999813 1.913102957e-09 -2.292185845e-09)
(0.01100000099 -4.970115922e-10 -1.897814022e-10)
(0.01099999935 1.292457926e-09 5.031464098e-10)
(0.01099999696 1.198535351e-09 -2.531808172e-10)
(0.01099999772 1.435727562e-09 -1.238151107e-09)
(0.01099999725 3.031511482e-09 -2.23879547e-09)
(0.01099999757 9.979218398e-09 -5.23836799e-09)
(0.01099998852 1.320819998e-08 4.242848797e-09)
(0.01099997467 4.495892452e-08 -1.925218921e-08)
(0.01099995876 8.138890738e-08 2.531956189e-08)
(0.01099976064 1.84820279e-07 -2.204574225e-08)
(0.01099991422 8.744648281e-07 -4.955262484e-07)
(0.01099999948 1.949454265e-09 8.695662482e-11)
(0.01100000115 1.356786982e-09 4.174657938e-11)
(0.01100000021 8.786008742e-11 1.605037221e-09)
(0.01099999821 1.150320482e-09 5.299686442e-10)
(0.01100000046 2.787736448e-09 4.444726847e-10)
(0.01099999951 1.031695094e-09 -1.349314179e-09)
(0.01099999986 1.018044902e-09 1.152484601e-09)
(0.01099999841 2.180488427e-09 -1.948617069e-09)
(0.010999998 3.169686529e-09 -3.558321642e-09)
(0.01099999491 8.253185376e-09 -5.631271091e-09)
(0.01099999382 6.664130844e-09 -3.900961554e-09)
(0.01099996803 2.220805188e-08 -2.012848247e-08)
(0.01099998685 3.292505247e-08 -3.269270294e-08)
(0.0109998414 4.719699562e-08 -4.830299939e-08)
(0.01100004471 3.51611154e-07 -3.503346078e-07)
(0.01099999971 -3.710092688e-10 -9.799629494e-10)
(0.01099999924 2.464061307e-10 -6.044691282e-11)
(0.01099999881 -3.939126935e-11 -8.520976268e-10)
(0.01099999761 -6.300447727e-10 -2.809548694e-10)
(0.01099999964 1.21518193e-09 -7.054511139e-10)
(0.01100000056 1.794340053e-09 1.794561048e-10)
(0.01099999987 5.273431744e-10 -8.702483701e-10)
(0.01100000124 2.22676331e-09 -1.379983648e-09)
(0.01100000233 2.922090169e-09 -1.086145893e-09)
(0.01099999947 5.985064395e-09 -2.055473102e-09)
(0.01100000694 9.910029883e-09 -6.22043808e-09)
(0.01099999578 2.058083653e-08 -1.295175314e-08)
(0.01100003078 4.577749752e-08 -2.420046698e-08)
(0.01099997579 5.254557299e-08 -1.891191894e-08)
(0.0110000929 2.411012632e-07 -1.344634715e-07)
(0.01099999915 6.878559858e-10 -8.875508326e-10)
(0.01100000124 -6.806304527e-11 -2.821724371e-09)
(0.01100000027 1.027395313e-09 -1.271577949e-09)
(0.01099999864 1.244287442e-10 -1.011780225e-09)
(0.0109999987 -3.915380873e-10 -1.742523385e-09)
(0.0109999984 9.895680843e-10 -6.333421036e-11)
(0.01100000072 3.209469052e-10 -1.763730433e-09)
(0.0110000016 1.318388101e-09 -1.764577504e-09)
(0.01100000486 3.459694398e-09 -2.294026478e-09)
(0.01100000286 2.831386827e-09 -4.292247287e-09)
(0.01100001164 3.891664464e-09 -6.477491832e-09)
(0.01100000218 5.788870776e-09 -1.065643337e-08)
(0.01100003743 1.162398163e-08 -2.539656523e-08)
(0.01100002048 1.031737272e-08 -1.868351894e-08)
(0.01100010046 5.644946456e-08 -8.128254911e-08)
(0.01100000017 1.042882012e-09 4.208513948e-10)
(0.0110000009 -2.44568888e-09 2.687729893e-10)
(0.01099999901 -6.516415692e-10 1.111726902e-09)
(0.01099999818 9.116773172e-10 -4.621274578e-10)
(0.01099999932 -1.35267212e-09 1.131858246e-10)
(0.01099999758 4.504156888e-10 8.017671054e-10)
(0.01100000077 -1.453784791e-09 -2.754421839e-10)
(0.01100000074 -2.587777937e-09 1.074949626e-09)
(0.01100000102 -5.110138533e-10 -9.576130707e-10)
(0.01100000281 -1.973215756e-09 -5.705051775e-09)
(0.01100001118 4.634199017e-10 -7.257756796e-09)
(0.01100000198 -5.899512143e-09 -1.390842978e-08)
(0.01100003793 -6.065497374e-09 -3.371183657e-08)
(0.01099999697 -3.139777992e-09 -4.193286966e-08)
(0.01099999953 -7.980058124e-10 -8.691721811e-10)
(0.01100000164 7.69165913e-10 -2.015071764e-09)
(0.01099999772 -8.787624524e-10 -1.252991594e-09)
(0.01099999806 -5.371749066e-10 -4.948586975e-10)
(0.01099999922 -1.283427254e-09 -2.05095012e-10)
(0.01099999647 -6.16593782e-10 4.062473726e-10)
(0.01100000057 -1.751059294e-09 -2.350505087e-10)
(0.01099999952 -1.960051639e-09 -1.189203685e-09)
(0.01100000092 -2.518150186e-09 -1.650303419e-09)
(0.01100000091 -6.031984718e-09 -4.487615704e-09)
(0.01100000569 -7.14925951e-09 -8.252458052e-09)
(0.01099999706 -2.39192269e-08 -2.192703204e-08)
(0.01100002662 -3.840118418e-08 -4.723389132e-08)
(0.01099994311 -5.681122731e-08 -6.805857708e-08)
(0.01100000066 -1.262223042e-09 6.561456515e-10)
(0.01099999926 -1.378567177e-09 -2.239635672e-09)
(0.01099999894 -1.149274236e-09 -1.007674174e-09)
(0.0109999974 -1.2224661e-09 8.155623731e-11)
(0.01099999677 -1.11741962e-09 -1.34470037e-09)
(0.01099999796 -1.712368537e-09 -1.842343171e-10)
(0.01099999959 -5.013788143e-10 -2.516989119e-10)
(0.01099999802 -3.042285251e-09 -4.977644983e-10)
(0.01099999446 -1.707233711e-09 -3.489181211e-09)
(0.01099999746 -7.743614715e-09 -8.356607639e-09)
(0.01099999042 3.361723467e-09 -1.013010768e-08)
(0.01099997589 -1.852092409e-08 -4.27651496e-08)
(0.01099995922 2.2978483e-08 -7.870702393e-08)
(0.01099976302 -2.338068027e-08 -1.823041886e-07)
(0.01099999993 -2.081960471e-10 -1.818111079e-09)
(0.01099999814 -6.323773635e-10 -3.416002371e-10)
(0.01099999861 -2.316870502e-09 6.195766522e-11)
(0.01099999912 -1.326776274e-09 1.108928571e-09)
(0.01099999724 -1.129523793e-09 1.298944604e-09)
(0.01099999754 4.204592187e-11 1.519989518e-09)
(0.01099999736 -6.284659245e-10 -2.085366555e-09)
(0.01099999988 -2.399627781e-09 -2.144250218e-09)
(0.01099999568 -1.576102803e-09 -1.272293085e-09)
(0.01100000592 -1.074112976e-08 -1.140076915e-08)
(0.01099998837 -3.328819183e-09 -2.961107358e-09)
(0.01100004126 -6.447797359e-08 -6.201920377e-08)
(0.01099990132 -4.061647139e-08 -3.808696199e-08)
(0.010999882 -3.565459563e-07 -3.552105851e-07)
(0.01099896454 -1.817969287e-06 -1.815223574e-06)
(0.01100000043 -2.635565681e-09 -2.546512308e-09)
(0.0109999984 -2.492038659e-09 -7.401358289e-10)
(0.01100000068 -3.093587871e-09 -7.661743739e-10)
(0.01100000181 -2.715042754e-10 8.257405672e-10)
(0.01099999618 4.444983441e-10 1.762359967e-09)
(0.01099999806 8.684151838e-10 7.768543799e-10)
(0.01099999367 -3.497154994e-10 -2.32933829e-10)
(0.01099999746 -1.003938335e-09 -2.659806322e-09)
(0.01099998628 -1.074877501e-09 -1.075002955e-09)
(0.01099999311 1.126923948e-09 -1.857683387e-08)
(0.01099992791 1.200392375e-09 -1.258328926e-08)
(0.01099997261 1.211126067e-09 -1.564177971e-07)
(0.01099943205 2.826107108e-09 -1.776090277e-07)
(0.01099904595 1.3480939e-09 -1.756898052e-06)
(0.01099566399 2.641470578e-10 -9.019776617e-06)
(0.01099999993 -7.450018697e-10 -9.811265315e-10)
(0.0109999986 5.05872847e-12 -8.074926227e-10)
(0.0110000012 1.809125886e-09 3.282590566e-10)
(0.01100000065 -4.568609847e-10 1.61997193e-10)
(0.01100000064 -3.922946195e-10 5.596354174e-10)
(0.01099999921 2.445264507e-10 -2.824820269e-10)
(0.01099999802 1.895700892e-09 -6.452057686e-10)
(0.01099999927 3.560827835e-09 -1.979410499e-09)
(0.01099999608 2.095152122e-09 -1.434432051e-09)
(0.01100000694 1.151275255e-08 -1.165416345e-08)
(0.01099998757 4.497157819e-09 -3.873193305e-09)
(0.01100004272 6.482519934e-08 -6.332802973e-08)
(0.01099989781 4.114177489e-08 -4.105646461e-08)
(0.01099987891 3.57096523e-07 -3.555751962e-07)
(0.01099896275 1.816811813e-06 -1.816201639e-06)
(0.01100000052 2.179022907e-09 -1.528784154e-09)
(0.01100000088 1.245561464e-09 -9.103428353e-10)
(0.01099999991 2.220861814e-09 3.575011338e-10)
(0.01099999982 1.472730664e-09 -6.570815158e-10)
(0.01099999873 9.404010882e-10 4.453301133e-10)
(0.01100000051 1.490683857e-09 1.099794127e-09)
(0.01099999677 2.624051382e-09 4.252753548e-10)
(0.01100000028 3.280258991e-09 -1.24044761e-09)
(0.01099999821 3.32823057e-09 -2.386759374e-09)
(0.01099999862 9.447997492e-09 -8.228170925e-09)
(0.01099999244 -2.877908301e-09 -1.130021816e-08)
(0.01099997452 1.935081027e-08 -4.295189193e-08)
(0.01099995794 -2.280085047e-08 -7.896242008e-08)
(0.01099976125 2.405932293e-08 -1.845073531e-07)
(0.01099991339 4.995683938e-07 -8.755927825e-07)
(0.01099999913 -2.272135595e-10 -1.663710832e-09)
(0.01099999948 -7.698018229e-12 -1.897871096e-09)
(0.01099999827 -4.303254832e-10 -1.911748997e-10)
(0.0109999985 2.00988364e-11 4.676331492e-10)
(0.01100000088 1.240187571e-09 -4.608183626e-10)
(0.01099999934 -1.076042414e-11 9.562507394e-10)
(0.01099999708 5.605714505e-11 -5.036708997e-10)
(0.01100000086 3.269868884e-09 -1.304293091e-09)
(0.01100000085 2.804908981e-09 -1.859017769e-09)
(0.01100000043 5.494412191e-09 -6.127780216e-09)
(0.01100000572 6.303048929e-09 -8.528421297e-09)
(0.01099999596 2.3966549e-08 -2.248742338e-08)
(0.0110000274 3.699329879e-08 -4.845980973e-08)
(0.01099994469 5.60104136e-08 -6.934421946e-08)
(0.01100008527 3.703693424e-07 -2.949305466e-07)
(0.01100000062 -1.057658867e-09 -2.326418749e-09)
(0.01100000008 7.932077932e-11 -8.298375451e-10)
(0.01099999915 5.204957278e-11 -3.764823174e-11)
(0.01099999839 6.084929512e-10 -3.230768137e-10)
(0.01099999972 -2.136530559e-10 1.304895239e-10)
(0.01100000052 -2.630097153e-10 -1.028241036e-09)
(0.01100000208 -8.894303102e-10 -1.016137017e-09)
(0.01100000097 1.031855213e-09 -9.233870581e-10)
(0.0110000043 1.363315312e-09 -2.477561827e-09)
(0.01100000047 1.630446551e-09 -3.690960759e-09)
(0.01100001146 4.169776364e-10 -8.887104683e-09)
(0.01099999929 4.415261786e-09 -1.502654068e-08)
(0.0110000344 7.303031804e-09 -3.437237329e-08)
(0.01099999825 3.1369401e-09 -4.345748748e-08)
(0.0110001017 7.526408245e-08 -1.411341948e-07)
(0.01099999998 1.252434161e-09 -1.784897287e-09)
(0.0110000004 -8.357801344e-10 -7.069539832e-10)
(0.01099999942 -1.039634233e-09 -2.094986391e-09)
(0.01099999896 6.265495376e-10 -1.701456138e-09)
(0.01100000062 1.631996818e-10 -1.757993252e-09)
(0.01099999972 1.537838363e-09 -8.21013409e-10)
(0.01099999815 -5.664856454e-10 5.829824903e-10)
(0.0109999998 -6.162596402e-10 -1.075123227e-09)
(0.01099999792 -8.911759319e-10 7.2466049e-10)
(0.01099999639 -1.599450752e-09 1.446508037e-09)
(0.01099999888 -2.443784798e-09 1.026935302e-09)
(0.0109999775 -1.130166712e-08 7.478122567e-10)
(0.01100000722 -2.269486508e-08 6.039720781e-10)
(0.01099991312 -3.362738125e-08 8.103901527e-10)
(0.01099999967 1.872551613e-10 -1.838531156e-09)
(0.01099999999 -9.377616239e-10 -7.628384833e-10)
(0.01100000047 -1.455499353e-09 -2.405307061e-09)
(0.01099999925 6.863438865e-10 -1.175532209e-10)
(0.01099999732 -8.419463233e-10 4.644057773e-11)
(0.01099999855 -5.885539532e-10 9.716095758e-10)
(0.01099999632 -1.119439756e-09 1.961937639e-09)
(0.01099999994 -1.977552915e-09 2.648848425e-09)
(0.01099999538 -3.2236091e-09 6.603981846e-10)
(0.01099999296 -1.044330071e-08 1.721103341e-09)
(0.01099998836 -9.138052825e-09 1.840775653e-10)
(0.010999958 -4.627033175e-08 1.826922903e-09)
(0.01099996438 -8.817135033e-08 1.327759704e-09)
(0.01099975533 -1.904730865e-07 1.529954728e-09)
(0.01100000043 -1.599052369e-09 -1.349792594e-09)
(0.01099999834 -1.42352884e-09 -1.43669613e-09)
(0.01100000098 -8.992760238e-10 -2.379263401e-09)
(0.01099999838 -1.187189966e-09 -1.121839116e-09)
(0.01099999853 9.446466261e-11 1.077095143e-09)
(0.01099999925 3.032338862e-10 1.061497375e-09)
(0.01099999536 -6.847166769e-10 1.029085224e-09)
(0.01099999727 -2.653214942e-09 5.02022193e-10)
(0.01099998855 -1.955660908e-09 2.566044593e-09)
(0.01099998621 -1.222978247e-08 1.308321672e-09)
(0.01099995253 -3.010605104e-10 1.4625211e-09)
(0.01099990676 -6.022340792e-08 3.005378895e-09)
(0.01099977551 -2.447889961e-08 3.271457987e-09)
(0.01099923916 -3.359942638e-07 1.768728119e-09)
(0.0109999983 -1.229369882e-09 -1.380018246e-09)
(0.01099999847 2.118887182e-10 -1.239775603e-09)
(0.01100000121 -1.050606483e-09 1.408771283e-10)
(0.01099999984 -1.562431932e-09 6.779203659e-10)
(0.01099999652 4.885620656e-11 5.44703233e-10)
(0.01099999786 -1.556898039e-09 2.012912362e-09)
(0.010999994 -1.520686335e-09 1.71776517e-09)
(0.01099999677 -4.507288423e-09 5.802488702e-10)
(0.01099998595 -2.661734203e-09 5.365469909e-10)
(0.01099999373 -1.959878681e-08 1.957305407e-09)
(0.01099992952 -1.365730861e-08 2.149924323e-10)
(0.01099997327 -1.582513534e-07 2.47594248e-09)
(0.01099943343 -1.773981059e-07 3.133725187e-09)
(0.01099904728 -1.758545393e-06 2.929305629e-09)
(0.0110000013 -8.850666441e-10 -6.285811526e-11)
(0.01100000002 -1.667685461e-09 -3.286190119e-10)
(0.01100000109 -5.192530119e-10 9.292785838e-10)
(0.01099999842 -2.741133113e-10 7.850903933e-10)
(0.01099999827 -3.419907612e-10 4.624642236e-10)