/*--------------------------------*- C++ -*----------------------------------*\
| =========                 |                                                 |
| \\      /  F ield         | OpenFOAM: The Open Source CFD Toolbox           |
|  \\    /   O peration     | Version:  4.x                                   |
|   \\  /    A nd           | Web:      www.OpenFOAM.org                      |
|    \\/     M anipulation  |                                                 |
\*---------------------------------------------------------------------------*/
FoamFile
{
    version     2.0;
    format      ascii;
    class       volScalarField;
    location    "6000";
    object      CO2;
}
// * * * * * * * * * * * * * * * * * * * * * * * * * * * * * * * * * * * * * //

dimensions      [0 0 0 0 0 0 0];

internalField   nonuniform List<scalar> 
1174
(
0.006510807159
0.006513863193
0.006518182792
0.00652382078
0.006530719415
0.006538726477
0.006547628706
0.006557184156
0.006567147563
0.006577285613
0.006587384141
0.006597214372
0.006606375024
0.006613577134
0.006513685026
0.006518594073
0.006525135695
0.006533159848
0.006542391205
0.006552494952
0.006563128305
0.006573982438
0.006584795636
0.006595357583
0.006605503934
0.006615076486
0.00662376836
0.006630480291
0.006520050088
0.006528744291
0.00653950955
0.006551738104
0.006564774099
0.006578025654
0.006591025376
0.006603439398
0.00661505451
0.006625754519
0.006635490871
0.006644234135
0.006651843212
0.006657543041
0.006529392285
0.006542919087
0.006558457124
0.006574868991
0.006591206847
0.006606787904
0.006621184939
0.006634177549
0.006645695607
0.006655768335
0.006664482789
0.006671935456
0.006678140209
0.006682631969
0.006536075186
0.006552260195
0.006569922905
0.006587820242
0.00660504878
0.00662103032
0.006635453135
0.006648194398
0.006659262102
0.006668748925
0.006676788705
0.006683522019
0.006689012494
0.006692920026
0.006529391894
0.006542918406
0.006558456118
0.006574868168
0.006591206088
0.006606786193
0.006621184084
0.006634176514
0.006645694486
0.00665576662
0.006664480135
0.006671933929
0.006678137677
0.006682629231
0.00652004987
0.006528744015
0.006539508287
0.006551736951
0.006564772784
0.006578024032
0.006591024091
0.006603436645
0.006615051449
0.006625750908
0.006635487316
0.006644229896
0.006651839415
0.006657539013
0.006513685039
0.006518593568
0.006525134835
0.006533158656
0.006542390016
0.006552492735
0.006563125675
0.006573979835
0.006584792356
0.006595354181
0.006605500767
0.006615072262
0.006623764206
0.006630476493
0.006510806955
0.006513863069
0.00651818258
0.00652382031
0.006530718618
0.006538725107
0.006547627409
0.006557183122
0.006567145671
0.006577283356
0.006587381611
0.006597212467
0.006606371564
0.006613571978
0.006510373255
0.006513684352
0.006518594597
0.006525135243
0.006533160276
0.006542391477
0.006552494705
0.006563128063
0.006573981953
0.006584794792
0.006595357083
0.006605504071
0.006615076137
0.006623767646
0.006630479737
0.00652018587
0.006528824763
0.006539365119
0.00655117381
0.006563615372
0.006576151332
0.00658838163
0.006600037978
0.006610963282
0.006621078951
0.006630355828
0.00663876967
0.006646171574
0.006651766193
0.006536564618
0.006553384766
0.006571678827
0.006589894994
0.006606969641
0.006622322511
0.006635741459
0.00664725097
0.006657011171
0.006665234631
0.006672142375
0.006677928656
0.006682683714
0.006686103306
0.006565724264
0.006593741347
0.006620395654
0.006643687611
0.006662916849
0.006678170716
0.006689921339
0.006698767508
0.006705299171
0.006710033577
0.006713398844
0.006715737336
0.006717304794
0.006718240104
0.006593290125
0.006627033099
0.006655631918
0.006678326786
0.006695563154
0.006708214577
0.006717210382
0.006723385904
0.006727436253
0.006729912763
0.006731246656
0.006731772447
0.006731764367
0.006731519683
0.006565723629
0.00659374055
0.006620393643
0.00664368607
0.006662914713
0.006678167989
0.006689918659
0.006698764808
0.006705296416
0.006710030571
0.006713396022
0.006715733181
0.006717300417
0.006718236446
0.006536562691
0.006553384231
0.00657167713
0.006589892577
0.006606967404
0.006622319604
0.006635737866
0.006647247225
0.006657007019
0.006665229435
0.006672137809
0.006677924628
0.006682678746
0.00668609801
0.006520184165
0.006528822734
0.006539363823
0.006551172473
0.006563613364
0.00657614906
0.006588378089
0.006600034906
0.006610959253
0.00662107417
0.006630350386
0.006638763634
0.006646166191
0.006651760177
0.006513684671
0.006518593188
0.006525134371
0.00653315784
0.006542389231
0.006552491925
0.006563124966
0.006573978957
0.006584791572
0.006595353321
0.006605499528
0.00661507101
0.006623762101
0.006630474145
0.006513804154
0.00652004981
0.006528743891
0.006539508069
0.006551737562
0.006564773158
0.006578025566
0.006591025235
0.006603438653
0.006615054127
0.006625754579
0.006635491125
0.006644233612
0.00665184307
0.006657543349
0.006522991682
0.006536563942
0.006553385111
0.006571678632
0.006589894889
0.006606970226
0.006622322331
0.006635740547
0.006647251527
0.006657010795
0.006665233709
0.006672143353
0.006677929471
0.006682683515
0.006686104664
0.006585033954
0.006620598892
0.006652825227
0.006679262007
0.006699400171
0.006713813143
0.006723519515
0.006729604277
0.006733036672
0.006734605711
0.006734919097
0.006734433562
0.006733516571
0.006732590251
0.006693036833
0.006753222917
0.006794776003
0.006819341537
0.006830916549
0.006833539189
0.006830474013
0.0068240882
0.006815989281
0.006807217977
0.006798423822
0.006790027545
0.006782424777
0.006776595534
0.006834763219
0.006894755585
0.006920571438
0.006925178229
0.006917855533
0.006904455811
0.006888449117
0.006871813892
0.006855629847
0.006840450483
0.006826534986
0.006814010475
0.006803110955
0.006794953501
0.00669303197
0.006753219183
0.006794771338
0.006819336887
0.006830911315
0.006833534317
0.006830468521
0.006824082666
0.006815984322
0.006807213633
0.006798420382
0.006790024139
0.006782420119
0.006776592426
0.00658503074
0.006620596265
0.0066528209
0.006679257401
0.006699395685
0.006713807889
0.006723513373
0.006729597995
0.006733029853
0.006734599379
0.006734912647
0.006734427016
0.006733509981
0.006732582662
0.00653656288
0.006553384357
0.006571676822
0.006589892242
0.006606967054
0.006622318626
0.006635736072
0.006647245949
0.006657004594
0.006665227983
0.006672137418
0.006677922601
0.006682676481
0.006686095736
0.006520049758
0.006528743521
0.006539507465
0.006551735807
0.006564771014
0.006578022461
0.006591021374
0.006603434545
0.006615048692
0.006625748002
0.006635483971
0.006644226671
0.006651834908
0.006657534709
0.006518964707
0.006529391185
0.006542918211
0.006558456153
0.006574868703
0.006591206229
0.006606787291
0.006621184331
0.006634177577
0.006645695401
0.006655768362
0.006664482184
0.006671934826
0.006678139034
0.006682631069
0.006539970301
0.006565722969
0.006593740128
0.006620394019
0.00664368621
0.006662915484
0.006678169842
0.006689920518
0.006698766413
0.0067052988
0.006710032626
0.006713398933
0.006715736489
0.006717303878
0.006718240434
0.006619664225
0.006693034118
0.006753220995
0.006794773576
0.006819339238
0.006830915451
0.006833538566
0.006830473446
0.006824087468
0.006815988546
0.006807217293
0.006798423669
0.006790027052
0.006782424395
0.006776595621
0.007063900585
0.007140012009
0.007152849042
0.007131323834
0.007094406892
0.00705282775
0.007012038423
0.006974477517
0.006940994309
0.006911651272
0.006886178422
0.006864243341
0.006845806602
0.006832331868
0.007793016461
0.007698647789
0.007552882647
0.007412878138
0.007293791593
0.007196577632
0.007118120721
0.007054723386
0.007003150474
0.006960837265
0.006925833924
0.006896743334
0.006872910955
0.006855772368
0.007063883975
0.007140000046
0.007152837626
0.007131313071
0.007094397455
0.00705281793
0.007012029214
0.006974470271
0.006940986576
0.00691164425
0.006886171528
0.006864237807
0.006845801645
0.006832327054
0.006693033372
0.006753217572
0.006794768307
0.006819332987
0.006830906798
0.006833528787
0.006830462853
0.006824076633
0.006815978786
0.006807206466
0.006798414101
0.006790016883
0.006782414551
0.006776587102
0.006565723579
0.006593739575
0.006620392521
0.006643683559
0.006662910887
0.006678163602
0.006689912801
0.006698758491
0.006705289841
0.00671002439
0.006713389348
0.006715726863
0.00671729359
0.006718229366
0.006529390845
0.00654291746
0.006558455341
0.006574866447
0.006591203497
0.006606783312
0.006621179803
0.0066341711
0.006645688535
0.006655760149
0.006664472879
0.006671925375
0.006678129139
0.006682621216
0.006522844342
0.006536072947
0.006552258131
0.00656992224
0.006587818922
0.006605047559
0.006621029013
0.006635452073
0.00664819327
0.006659260927
0.006668748847
0.006676787805
0.006683520384
0.006689010569
0.006692918887
0.006557727717
0.006593289111
0.006627030891
0.006655628926
0.006678324814
0.006695561542
0.006708212717
0.006717208493
0.006723384222
0.006727435031
0.00672991274
0.006731246349
0.006731770904
0.006731764008
0.006731519735
0.006728388434
0.006834758608
0.006894751357
0.006920567425
0.006925174368
0.006917852249
0.006904452748
0.006888447098
0.006871812474
0.006855629081
0.006840450316
0.006826534207
0.00681400961
0.006803109748
0.006794952214
0.007662625236
0.007793000861
0.00769863799
0.007552875635
0.007412872925
0.007293788168
0.007196575481
0.00711811895
0.007054721628
0.007003149763
0.00696083718
0.006925833347
0.006896743391
0.006872909626
0.006855771935
0.01093673126
0.00934059198
0.008455596695
0.007937003159
0.007615584631
0.007405238562
0.007260493438
0.007156374888
0.007078604758
0.007018686115
0.006971371756
0.006933382428
0.006903023176
0.006881530432
0.007793014572
0.007698631733
0.00755286275
0.00741285996
0.007293774689
0.007196562601
0.007118108185
0.007054711535
0.007003139186
0.006960828265
0.006925825023
0.006896735339
0.006872902694
0.006855765153
0.006834763468
0.006894749995
0.006920559927
0.006925164245
0.006917840876
0.006904440715
0.006888434507
0.006871799885
0.006855616379
0.006840437418
0.006826521814
0.006813997996
0.00680309816
0.00679494174
0.006593290345
0.006627031273
0.006655627269
0.006678321158
0.006695555971
0.006708205323
0.006717199803
0.006723375039
0.006727424761
0.006729901459
0.006731234854
0.006731759331
0.006731751827
0.006731507491
0.006536073717
0.006552258598
0.006569921373
0.006587817082
0.006605043697
0.006621024683
0.006635446072
0.006648185703
0.0066592527
0.006668739115
0.006676778562
0.006683510258
0.006688999841
0.006692906749
0.006518965017
0.006529391297
0.00654291703
0.00655845424
0.006574866793
0.006591204814
0.006606785842
0.006621182495
0.006634174653
0.00664569268
0.006655764923
0.006664479129
0.006671931856
0.00667813639
0.006682628285
0.006539969557
0.006565722223
0.006593738627
0.00662039184
0.006643684008
0.006662913092
0.006678166678
0.006689916511
0.006698762603
0.006705294523
0.006710028781
0.00671339552
0.006715732434
0.006717299151
0.00671823581
0.006619658614
0.006693027959
0.006753213715
0.006794766406
0.00681933223
0.006830908227
0.006833530754
0.006830465798
0.006824080315
0.006815982259
0.006807210616
0.006798417782
0.006790022087
0.006782418361
0.00677658955
0.006893589132
0.007063871989
0.00713998994
0.007152829594
0.007131307228
0.007094392582
0.007052814775
0.007012026207
0.006974467588
0.006940984402
0.006911642323
0.006886169907
0.006864236298
0.006845800594
0.006832324575
0.007662621934
0.007792995942
0.007698619105
0.007552854133
0.007412853282
0.007293769147
0.007196559299
0.007118104609
0.007054708673
0.00700313792
0.006960826385
0.006925824096
0.006896735474
0.006872902494
0.006855764168
0.006893594301
0.00706387188
0.007139985293
0.007152821506
0.007131297014
0.00709438143
0.007052804119
0.007012016021
0.006974457922
0.006940975398
0.00691163436
0.006886162754
0.006864228886
0.006845792918
0.006832318233
0.006693036573
0.00675321548
0.006794762827
0.006819326045
0.006830899934
0.006833521694
0.006830455231
0.006824069704
0.006815971075
0.006807200775
0.006798407276
0.006790010857
0.006782408492
0.00677657966
0.006565724565
0.006593739437
0.006620390901
0.00664368086
0.0066629076
0.006678159713
0.00668990879
0.006698754878
0.006705285893
0.006710019784
0.006713384828
0.006715721223
0.006717288153
0.006718224173
0.006529391335
0.006542918363
0.006558454815
0.006574865993
0.006591202563
0.006606782029
0.006621177874
0.006634169579
0.006645686267
0.006655757411
0.006664469072
0.006671921533
0.006678124748
0.006682616439
0.006513803826
0.00652004917
0.0065287428
0.006539507208
0.006551735648
0.006564771547
0.006578023207
0.006591022225
0.006603435566
0.006615050671
0.006625749536
0.006635486531
0.006644227993
0.006651837825
0.006657537105
0.006522990442
0.006536561863
0.006553381726
0.006571675589
0.006589891783
0.006606965544
0.006622317673
0.006635735882
0.006647245925
0.006657005464
0.006665228089
0.006672136162
0.006677923224
0.006682677031
0.006686095798
0.006551151457
0.006585027974
0.006620592879
0.006652818227
0.006679255443
0.006699392654
0.00671380465
0.006723510859
0.006729595576
0.006733027552
0.006734597023
0.006734909869
0.006734424424
0.006733508141
0.006732580952
0.006619658086
0.006693027128
0.00675321159
0.006794763226
0.006819327768
0.006830902236
0.006833525003
0.006830459385
0.006824074376
0.006815975616
0.006807204277
0.006798411594
0.006790015281
0.006782412471
0.006776584017
0.006728387605
0.006834753418
0.006894740763
0.006920552875
0.006925158116
0.006917836033
0.006904436496
0.006888431707
0.006871797252
0.006855614603
0.006840435808
0.00682652081
0.006813996679
0.006803097733
0.006794939961
0.006619657888
0.00669302571
0.006753208836
0.006794758561
0.006819322268
0.00683089647
0.006833518439
0.006830453525
0.006824068183
0.006815969497
0.006807198779
0.006798406665
0.006790009868
0.006782407328
0.006776578646
0.006551153989
0.006585029835
0.006620592384
0.00665281603
0.006679250835
0.006699387266
0.00671379843
0.006723504308
0.006729587494
0.006733019386
0.006734588053
0.006734901857
0.006734416352
0.006733499636
0.006732572414
0.006536564373
0.006553383404
0.006571675118
0.006589889775
0.00660696286
0.006622313887
0.00663573037
0.006647239304
0.006656998321
0.006665219711
0.00667212814
0.00667791474
0.006682668131
0.006686087621
0.006520049736
0.006528743609
0.006539507201
0.006551734369
0.006564769742
0.006578020365
0.006591018636
0.006603431231
0.006615044731
0.006625743374
0.006635479171
0.006644220364
0.006651828777
0.006657526978
0.006510373743
0.006513684486
0.006518592722
0.006525133867
0.006533158126
0.006542388943
0.006552491923
0.00656312532
0.006573978128
0.006584790776
0.006595352917
0.006605499898
0.006615070734
0.006623762402
0.006630474127
0.006513895558
0.006520184419
0.006528823352
0.00653936379
0.00655117125
0.006563611943
0.006576147647
0.006588377247
0.006600033252
0.006610957764
0.006621072382
0.006630348804
0.00663876273
0.006646164274
0.006651758818
0.006522989662
0.006536561436
0.006553381596
0.00657167477
0.00658988996
0.006606963789
0.006622316415
0.006635733514
0.006647243353
0.006657002496
0.006665224964
0.006672133842
0.006677920318
0.00668267382
0.006686093317
0.006539969915
0.006565721174
0.006593736593
0.006620389579
0.006643680039
0.006662907657
0.006678159808
0.00668991049
0.006698756522
0.006705287916
0.006710021643
0.006713386852
0.006715724532
0.006717291716
0.006718227919
0.006557726573
0.006593286296
0.006627026439
0.006655623886
0.006678316291
0.00669555164
0.006708201854
0.00671719694
0.006723372456
0.006727422456
0.006729899562
0.006731233781
0.006731758105
0.006731750449
0.006731506313
0.006539970379
0.006565721161
0.00659373516
0.006620387658
0.006643678396
0.006662904466
0.006678157569
0.006689907097
0.006698753048
0.006705284596
0.006710018739
0.006713382869
0.006715720563
0.006717287336
0.00671822321
0.006522990349
0.006536561389
0.006553381495
0.006571673359
0.006589887658
0.006606961869
0.006622312634
0.006635729031
0.006647238908
0.00665699792
0.006665219709
0.006672127611
0.00667791339
0.006682667021
0.006686086835
0.006513896088
0.006520184595
0.00652882344
0.006539362817
0.006551171161
0.006563610597
0.006576144476
0.006588373184
0.006600029441
0.00661095318
0.006621066681
0.006630342788
0.006638756044
0.006646157273
0.006651749647
0.006513684894
0.006518593321
0.006525134513
0.00653315777
0.006542388458
0.006552490212
0.00656312246
0.0065739753
0.006584786467
0.006595347513
0.006605492904
0.006615064215
0.006623754881
0.006630465577
0.00650884361
0.006510807038
0.006513863723
0.006518182381
0.006523820353
0.006530717949
0.0065387244
0.006547626653
0.006557181747
0.00656714369
0.006577280918
0.006587379693
0.00659721057
0.006606369244
0.006613570947
0.006510373982
0.006513684264
0.006518593387
0.006525135005
0.006533158473
0.006542388977
0.006552491211
0.006563124103
0.006573978073
0.006584789674
0.00659535159
0.006605497299
0.006615069513
0.006623760671
0.00663047225
0.006513803748
0.006520050198
0.006528743663
0.00653950654
0.006551734849
0.006564769996
0.006578021143
0.00659102006
0.006603432778
0.006615046622
0.006625746389
0.006635482455
0.006644223806
0.006651833171
0.006657531935
0.006518964522
0.006529390898
0.006542916153
0.006558453393
0.006574864889
0.006591201794
0.006606781092
0.006621178015
0.00663416929
0.006645686779
0.006655758311
0.00666447082
0.006671922921
0.006678127398
0.006682618297
0.006522844063
0.00653607188
0.006552256493
0.006569918895
0.006587814443
0.006605040682
0.006621021869
0.006635443008
0.006648183468
0.006659250571
0.006668736244
0.006676775518
0.006683507204
0.006688997729
0.006692905334
0.006518964455
0.006529390403
0.006542916071
0.00655845272
0.006574862935
0.006591199398
0.006606778792
0.006621174453
0.006634166484
0.006645682793
0.006655754958
0.00666446742
0.006671919426
0.006678123625
0.006682615294
0.006513803286
0.006520048526
0.006528741967
0.006539505434
0.006551733128
0.006564767466
0.006578019009
0.006591016795
0.00660342977
0.006615043938
0.006625742536
0.006635477818
0.006644218961
0.006651827052
0.006657525897
0.006510372842
0.006513684062
0.006518592434
0.00652513332
0.006533157158
0.006542387168
0.006552488683
0.006563122043
0.006573975
0.006584786593
0.006595347285
0.006605492403
0.006615063095
0.006623753441
0.006630464374
0.006508842955
0.006510806292
0.006513862617
0.006518182145
0.006523819515
0.006530717284
0.006538722983
0.006547624114
0.006557178853
0.006567140664
0.006577277627
0.006587374553
0.00659720372
0.006606362411
0.006613562736
)
;

boundaryField
{
    top
    {
        type            zeroGradient;
    }
    bottom
    {
        type            zeroGradient;
    }
    side-walls
    {
        type            zeroGradient;
    }
    inlet
    {
        type            zeroGradient;
    }
    outlet
    {
        type            zeroGradient;
    }
    procBoundary1to0
    {
        type            processor;
        value           nonuniform List<scalar> 
97
(
0.006508843279
0.006508843279
0.006510373379
0.006513803713
0.006518963663
0.006522843043
0.006518963256
0.006513803103
0.006510373071
0.006508842691
0.006508418225
0.006513896233
0.006513896233
0.006513896233
0.006522990816
0.006539968059
0.006557723685
0.006539967505
0.006522989645
0.006513894937
0.006510372437
0.006509969483
0.006513995098
0.006551154253
0.006551154253
0.006551154253
0.00661965475
0.006728369508
0.006619650026
0.006551149013
0.006522989235
0.006513802931
0.006512246674
0.006521102429
0.006552128953
0.006893594941
0.006893594941
0.006893594941
0.007662495724
0.006893559135
0.006619650289
0.006539967505
0.006518963594
0.006513875919
0.006527821833
0.006586667602
0.006820049516
0.0139761712
0.0139761712
0.0139761712
0.007662500126
0.007662500126
0.00672837121
0.006557723875
0.00652284262
0.006512246814
0.006521103317
0.006552130635
0.006642491177
0.00682005461
0.006642487891
0.006619662021
0.006619662021
0.006619662021
0.006539968804
0.006518963367
0.006509969875
0.006513995172
0.006525808476
0.006552130543
0.00658666738
0.0065521301
0.006525808436
0.006522990705
0.006522990705
0.006522990705
0.006513803318
0.006508418587
0.006510002762
0.006513994864
0.006521103028
0.006527821783
0.006521101986
0.006513994284
0.006510002048
0.006510372963
0.006510372963
0.006510372963
0.006507717106
0.006508418377
0.00650997068
0.006512247631
0.006513875744
0.006512245933
0.006509969087
0.006508417533
0.006507715948
)
;
    }
}


// ************************************************************************* //
