/*--------------------------------*- C++ -*----------------------------------*\
| =========                 |                                                 |
| \\      /  F ield         | OpenFOAM: The Open Source CFD Toolbox           |
|  \\    /   O peration     | Version:  4.x                                   |
|   \\  /    A nd           | Web:      www.OpenFOAM.org                      |
|    \\/     M anipulation  |                                                 |
\*---------------------------------------------------------------------------*/
FoamFile
{
    version     2.0;
    format      ascii;
    class       volScalarField;
    location    "6000";
    object      molarConc;
}
// * * * * * * * * * * * * * * * * * * * * * * * * * * * * * * * * * * * * * //

dimensions      [0 -3 0 0 1 0 0];

internalField   nonuniform List<scalar> 
1174
(
9.9632802
9.963279038
9.963279524
9.963278657
9.963278741
9.963278841
9.963278872
9.96327826
9.963278746
9.963279354
9.963279626
9.963279519
9.963279322
9.963280066
9.963273801
9.963274042
9.963273458
9.963274333
9.963273697
9.963274158
9.963274109
9.963274163
9.963274327
9.963274534
9.963272466
9.963272711
9.96327286
9.963273842
9.963299079
9.963299511
9.963300402
9.963299596
9.963299966
9.963298689
9.963298698
9.963298036
9.963297325
9.96329667
9.96329767
9.963297742
9.963296554
9.963296291
9.96329321
9.963293042
9.963293957
9.963293253
9.963293412
9.963292609
9.963292471
9.963292979
9.963293161
9.963294004
9.963294729
9.963294423
9.963294915
9.96329567
9.963246869
9.96324675
9.963244895
9.963245146
9.963244929
9.963244749
9.963246044
9.963245151
9.963245793
9.963247283
9.963247425
9.963247346
9.963247051
9.963246577
9.963251156
9.963250627
9.963251895
9.963251309
9.963251519
9.963250734
9.963251493
9.963251005
9.963250976
9.963250509
9.96324956
9.963251041
9.963251031
9.963250751
9.963294294
9.963294011
9.963292545
9.963292981
9.963292291
9.963292128
9.963292387
9.963290904
9.963291333
9.963291127
9.963291766
9.963292988
9.963293062
9.96329432
9.963277364
9.963277709
9.963276838
9.963277392
9.963277789
9.963277734
9.963277657
9.963277395
9.963277231
9.963276521
9.963275574
9.963275194
9.963275418
9.963276273
9.963252665
9.963253651
9.96325327
9.963253626
9.963253071
9.963253721
9.963254813
9.963255259
9.963255455
9.963255356
9.963255793
9.963257041
9.963256422
9.963257205
9.96328538
9.963285054
9.963286456
9.963285632
9.963286303
9.963286356
9.963286321
9.963286085
9.963285327
9.963286049
9.963284513
9.963283975
9.963283025
9.96328228
9.96328222
9.963256838
9.963257022
9.963257359
9.963256222
9.963255868
9.963255895
9.96325648
9.963255441
9.963255582
9.963256396
9.963256324
9.963255635
9.963255547
9.963255389
9.9632519
9.963251413
9.963252863
9.963252637
9.963252226
9.963251912
9.963251148
9.96325122
9.963251364
9.963251537
9.963249341
9.963249001
9.963249098
9.963248903
9.963303228
9.963303805
9.963302586
9.96330228
9.963301867
9.963301158
9.963300956
9.963300422
9.963300912
9.96330082
9.963301058
9.963301063
9.963301711
9.963300428
9.963290573
9.963292035
9.963291362
9.963292179
9.963291043
9.963291688
9.963293269
9.963292329
9.963292802
9.963290563
9.963291869
9.963293022
9.963291582
9.963291757
9.963310061
9.963308884
9.96330927
9.963308502
9.963307347
9.963306485
9.963307573
9.963307738
9.963308105
9.96330554
9.963305303
9.963304881
9.963305
9.963304844
9.963235708
9.963235514
9.963235651
9.963234421
9.96323502
9.963234644
9.963235711
9.963235216
9.963235089
9.963235574
9.963236045
9.963235604
9.963236198
9.963237501
9.963304848
9.963305187
9.963306335
9.963304024
9.963304242
9.963304237
9.963304048
9.963304199
9.963303532
9.963304342
9.963304173
9.963304602
9.963305553
9.963304323
9.963224931
9.963223535
9.963222862
9.963222536
9.963221727
9.96322294
9.963222118
9.963222451
9.963222373
9.963222805
9.96322162
9.963221114
9.9632201
9.963220398
9.96328422
9.963283976
9.963284648
9.963284736
9.963285471
9.963285803
9.963285148
9.963283679
9.963283387
9.963283034
9.96328339
9.963283054
9.963283748
9.96328433
9.963284087
9.963280953
9.9632815
9.963280653
9.963280185
9.96328081
9.963280595
9.963281805
9.963282979
9.963284791
9.963284074
9.963283748
9.963285081
9.963285095
9.963284397
9.963283787
9.963276654
9.963276037
9.96327633
9.963276437
9.963276853
9.963276962
9.963277169
9.963277077
9.963276558
9.963275647
9.963275566
9.963274629
9.963275772
9.963277437
9.963266247
9.963265388
9.963265209
9.963264405
9.963264356
9.963265303
9.963265759
9.963265992
9.963265659
9.963266424
9.96326465
9.963265543
9.963265831
9.963264728
9.963323962
9.963324364
9.963325095
9.963323641
9.963324489
9.963324682
9.963324134
9.963324443
9.963324464
9.963324343
9.963324297
9.963324824
9.963324972
9.963325799
9.963273775
9.963272331
9.9632733
9.9632729
9.963273058
9.963274226
9.963273609
9.963274086
9.963274241
9.963276285
9.963278355
9.963278941
9.963278275
9.963278522
9.963298499
9.963296597
9.963296449
9.963296389
9.963296234
9.963295072
9.963296942
9.963296473
9.963295568
9.963296892
9.963296877
9.963297524
9.963296742
9.963297127
9.963220547
9.963220406
9.963219629
9.963218822
9.963219663
9.963220626
9.963221589
9.96322216
9.963222076
9.963222234
9.963223865
9.963224597
9.963223499
9.963224111
9.963315504
9.963314168
9.963315573
9.963315742
9.963314481
9.963314904
9.963315063
9.963314049
9.963313707
9.963314295
9.963313408
9.963313218
9.963313825
9.963314115
9.963280572
9.963280778
9.963279626
9.963279223
9.963280167
9.963279962
9.963278983
9.96327877
9.96327915
9.963279174
9.96327941
9.963279275
9.963279019
9.9632798
9.96327875
9.96324515
9.963244687
9.963245078
9.963245065
9.96324383
9.963245516
9.963245497
9.963246432
9.963244318
9.963244406
9.963244788
9.963245728
9.963245101
9.963245065
9.963245317
9.963289345
9.963289545
9.963290092
9.963290221
9.963289255
9.963289427
9.963288982
9.963289244
9.963289558
9.963289148
9.963289176
9.963289153
9.963289956
9.963289528
9.963290511
9.963250817
9.963249568
9.963248508
9.963250226
9.963249084
9.963249378
9.963248987
9.96324814
9.9632488
9.963248163
9.963247203
9.963247024
9.963247107
9.963247343
9.963284591
9.963285311
9.96328672
9.96328683
9.963287209
9.963288546
9.963288264
9.963291182
9.963290128
9.963289558
9.963289951
9.963289331
9.96328932
9.963289747
9.963313057
9.96331291
9.963310221
9.963310313
9.963311116
9.963310426
9.963308976
9.963309892
9.963310724
9.963312178
9.963311322
9.963311813
9.963312023
9.963312889
9.963257624
9.963257138
9.963256551
9.963257335
9.963258216
9.963257527
9.96325625
9.963257123
9.963257442
9.963256944
9.963256441
9.963256593
9.963258052
9.963258883
9.963288259
9.96328903
9.963287774
9.963288272
9.963286597
9.963286636
9.963284777
9.963285206
9.963286168
9.963286617
9.963286863
9.963285231
9.963284009
9.96328457
9.963296643
9.963297089
9.963296413
9.963297086
9.96329705
9.963295734
9.963296013
9.963296204
9.963295682
9.963294864
9.9632939
9.963295
9.963293766
9.963294802
9.963277794
9.963277172
9.963276841
9.963278299
9.963277469
9.963277365
9.96327669
9.96327672
9.963277651
9.963277012
9.963275791
9.963275827
9.963275563
9.963276454
9.963276938
9.963302156
9.963302456
9.963302639
9.963301408
9.963301962
9.96330243
9.96330176
9.963301997
9.963302284
9.963303374
9.963303225
9.963302405
9.963302103
9.963301588
9.963302491
9.963296533
9.963296336
9.963294152
9.96329435
9.963295115
9.963294537
9.963294914
9.963294709
9.963295108
9.963295485
9.963295068
9.963295878
9.963295076
9.9632957
9.963294697
9.963277075
9.963278248
9.963279084
9.963279441
9.963279433
9.963280379
9.963281038
9.96328301
9.963284968
9.963284851
9.963283925
9.963282814
9.963282529
9.963282512
9.963281785
10.00508177
10.0051161
10.00514801
10.0051787
10.00520834
10.00523706
10.00526519
10.00529381
10.0053209
10.00534893
10.00537872
10.00540535
10.00543464
10.00546301
9.963316381
9.963317394
9.963317779
9.963319793
9.963320333
9.963320453
9.963321055
9.963321103
9.963322041
9.96332252
9.963322402
9.963322054
9.963322649
9.963322262
9.963259416
9.963257308
9.96325726
9.96325604
9.963256069
9.963255668
9.963256256
9.963258377
9.963259353
9.96325891
9.963258637
9.963258184
9.963258693
9.963260191
9.963278624
9.963279369
9.963278796
9.963279178
9.963279812
9.963280311
9.963279921
9.963279768
9.96327938
9.963279523
9.963278455
9.963278583
9.963279573
9.963281701
9.963224963
9.963225592
9.963224737
9.963225686
9.963224878
9.963225192
9.963224762
9.963225262
9.963224992
9.963225262
9.963225521
9.963226479
9.963226564
9.963226273
9.963258198
9.963258974
9.963259142
9.963258478
9.963259013
9.963259242
9.963258459
9.963258783
9.963257152
9.963257451
9.963256689
9.963257318
9.963257888
9.963258629
9.963259486
9.963297142
9.963297519
9.963297771
9.963296567
9.963295015
9.963295967
9.963296926
9.96329562
9.963295234
9.963296159
9.963296231
9.963295668
9.963295754
9.963293986
9.963294644
9.963256239
9.963255904
9.963254271
9.963254627
9.963254351
9.963254421
9.963253736
9.963255163
9.96325659
9.963255572
9.963256433
9.963255839
9.963256798
9.963255395
9.963255075
9.963312599
9.963311257
9.96331075
9.963309469
9.963309018
9.963309106
9.963308233
9.963306977
9.963307667
9.963308094
9.963309252
9.9633103
9.963310046
9.963310834
9.963311345
9.963280682
9.963279794
9.963279009
9.963280117
9.963279619
9.963280145
9.963281746
9.963281058
9.963281539
9.963283097
9.963282129
9.963284268
9.963283671
9.963283655
9.963284717
9.963249257
9.96324867
9.963250283
9.963249748
9.963250295
9.963251869
9.963251929
9.963249865
9.963249902
9.963249501
9.963249915
9.963250477
9.963250932
9.963251352
9.963253294
9.96332777
9.963326679
9.963325982
9.9633267
9.963326742
9.963327831
9.963328446
9.963328605
9.963327074
9.963327108
9.96332655
9.963326202
9.963325344
9.963325907
9.963257997
9.963256652
9.963256523
9.963256641
9.963255716
9.963256878
9.963256901
9.96325655
9.963256631
9.963257037
9.963256684
9.963257102
9.963257013
9.963257232
9.963253751
9.963253622
9.963254325
9.963253965
9.963254385
9.963254824
9.963254645
9.963255099
9.963256173
9.963256098
9.96325432
9.963255349
9.963253769
9.963255085
9.963263021
9.96326217
9.963261728
9.963262294
9.963262241
9.963262285
9.963260672
9.963260739
9.963260185
9.963259987
9.96325956
9.963259824
9.963259634
9.963259905
9.963259118
9.963251729
9.96325006
9.963249473
9.96324941
9.963249801
9.963247998
9.963248557
9.963247645
9.963248666
9.963248143
9.963248562
9.963249532
9.963250675
9.96324956
9.96324855
9.963279707
9.963280794
9.963280579
9.963280958
9.963280274
9.96327999
9.963279861
9.963279262
9.963278354
9.963276638
9.963275522
9.963274842
9.963273963
9.963274095
9.963273045
9.963247449
9.963246871
9.963247534
9.963247829
9.963245742
9.963245502
9.963244911
9.963246723
9.963246962
9.96324668
9.963246302
9.963244974
9.963244207
9.963244172
9.963243422
9.963316192
9.963317169
9.963317083
9.963315998
9.963315559
9.963315164
9.963315159
9.963314437
9.963315429
9.963313583
9.963314063
9.963312908
9.963312602
9.963311837
9.963310421
9.963282
9.963281522
9.963282068
9.963282182
9.963282198
9.963282504
9.963282542
9.963283066
9.963282593
9.963281444
9.963282831
9.963282398
9.963283896
9.96328437
9.96328442
9.963249293
9.963248596
9.963248359
9.963246834
9.963246492
9.963245976
9.963244932
9.963245739
9.963246037
9.963245448
9.963246166
9.963246488
9.963248488
9.96324894
9.963248977
9.963302451
9.963302115
9.963304844
9.963304184
9.963305049
9.963304622
9.96330457
9.963305192
9.963306092
9.963305814
9.963306423
9.96330732
9.963307581
9.96330702
9.963283281
9.96328396
9.963284323
9.96328439
9.963284379
9.963284394
9.963283153
9.963285194
9.963283846
9.96328324
9.963282398
9.963281716
9.963281217
9.963281381
9.9632978
9.963297588
9.963297666
9.963296814
9.963296777
9.963296312
9.963296762
9.963295568
9.963296315
9.963296984
9.963297271
9.96329818
9.963296721
9.963297013
9.963296361
9.963311456
9.96331113
9.963311794
9.963312408
9.963311938
9.963311483
9.963310335
9.963310826
9.963312352
9.963311063
9.963311402
9.963311413
9.963311761
9.963311885
9.963312475
9.963279942
9.963280478
9.96328041
9.963279444
9.963279889
9.96328104
9.963280853
9.963280596
9.963281346
9.9632812
9.963280796
9.963281801
9.963281509
9.9632807
9.963279836
9.963285641
9.963286391
9.963285396
9.963284287
9.963284257
9.963285668
9.96328467
9.963286378
9.963286314
9.963285557
9.963285052
9.963286121
9.963285859
9.963286384
9.963288302
9.963271096
9.963270949
9.96327111
9.963272589
9.963272647
9.963272123
9.963273436
9.963272899
9.96327419
9.963273555
9.963275074
9.963276411
9.963275278
9.963274352
9.963274483
9.963300754
9.963300483
9.963298802
9.963299171
9.963298428
9.963297528
9.963297445
9.963298291
9.963299548
9.963300663
9.963300456
9.96329755
9.963297644
9.963297719
9.963296525
9.963285248
9.963284569
9.963283729
9.963284004
9.963284779
9.96328417
9.963283514
9.963283417
9.963283544
9.963282663
9.963281393
9.963281667
9.963281848
9.963282269
9.963283551
9.963298515
9.963297685
9.963297383
9.963297304
9.963296509
9.963296135
9.963295704
9.963295561
9.963296936
9.963298568
9.963297993
9.963296625
9.963296904
9.963295176
9.96329401
9.963261952
9.963261632
9.963261251
9.963259731
9.963259117
9.963258934
9.96326003
9.96325945
9.963260074
9.963259918
9.96326063
9.963260931
9.963261746
9.963263219
9.96326195
9.963261889
9.963261703
9.963261469
9.963261158
9.963260591
9.963261564
9.963261962
9.963261712
9.963260986
9.963261021
9.963261681
9.963262119
9.963261088
9.963261714
9.963276192
9.963276795
9.963276269
9.963275957
9.963275812
9.963275431
9.963275943
9.963274786
9.963273927
9.963273039
9.963273117
9.963272305
9.963272817
9.963273622
9.963274051
9.963259532
9.963260185
9.963260418
9.963258534
9.963257465
9.963257402
9.963257518
9.963258921
9.963259407
9.96325857
9.96325779
9.963257982
9.963257378
9.963256193
9.963256427
9.963339337
9.963339361
9.963338368
9.963337583
9.963339368
9.963340404
9.963339295
9.963338841
9.963338741
9.963338324
9.96333843
9.963337799
9.963337912
9.963338607
9.963338539
9.963330058
9.963329513
9.963328749
9.963328778
9.963328045
9.963327803
9.963327924
9.963329047
9.963328912
9.96332858
9.963328197
9.963327976
9.963327816
9.963328893
9.963328523
9.963301899
9.963303107
9.963303764
9.963304294
9.963303949
9.963302349
9.963302227
9.963301093
9.963301005
9.963300848
9.963300735
9.963301033
9.963301118
9.963301441
9.963301873
9.963270092
9.96326947
9.963270109
9.963270719
9.96327012
9.963270282
9.9632702
9.96327138
9.963271539
9.963271903
9.96327059
9.963270884
9.963270249
9.963269241
9.963269073
9.963293018
9.963293203
9.963292738
9.963292092
9.963293016
9.963292306
9.963293514
9.963294137
9.963294112
9.963294067
9.963294453
9.963294598
9.963294331
9.963293963
9.96329366
9.963279939
9.963279415
9.963280022
9.963279885
9.963280253
9.963280085
9.963279078
9.963279382
9.963279573
9.963279487
9.963279258
9.963278208
9.963278531
9.963277695
9.963277765
)
;

boundaryField
{
    top
    {
        type            calculated;
        value           nonuniform List<scalar> 
127
(
9.963279939
9.963252665
9.963224931
9.963315504
9.963296643
9.963224963
9.963253751
9.963283281
9.963261952
9.963279415
9.963253651
9.963223535
9.963314168
9.963297089
9.963225592
9.963253622
9.96328396
9.963261632
9.963280022
9.96325327
9.963222862
9.963315573
9.963296413
9.963224737
9.963254325
9.963284323
9.963261251
9.963279885
9.963253626
9.963222536
9.963315742
9.963297086
9.963225686
9.963253965
9.96328439
9.963259731
9.963280253
9.963253071
9.963221727
9.963314481
9.96329705
9.963224878
9.963254385
9.963284379
9.963259117
9.963280085
9.963253721
9.96322294
9.963314904
9.963295734
9.963225192
9.963254824
9.963284394
9.963258934
9.963279078
9.963254813
9.963222118
9.963315063
9.963296013
9.963224762
9.963254645
9.963283153
9.96326003
9.963279382
9.963255259
9.963222451
9.963314049
9.963296204
9.963225262
9.963255099
9.963285194
9.96325945
9.963279573
9.963255455
9.963222373
9.963313707
9.963295682
9.963224992
9.963256173
9.963283846
9.963260074
9.963279487
9.963255356
9.963222805
9.963314295
9.963294864
9.963225262
9.963256098
9.96328324
9.963259918
9.963279258
9.963255793
9.96322162
9.963313408
9.9632939
9.963225521
9.96325432
9.963282398
9.96326063
9.963278208
9.963257041
9.963221114
9.963313218
9.963295
9.963226479
9.963255349
9.963281716
9.963260931
9.963278531
9.963256422
9.9632201
9.963313825
9.963293766
9.963226564
9.963253769
9.963281217
9.963261746
9.963277695
9.963257205
9.963220398
9.963314115
9.963294802
9.963226273
9.963255085
9.963281381
9.963263219
9.963277765
)
;
    }
    bottom
    {
        type            calculated;
        value           nonuniform List<scalar> 
134
(
9.96328538
9.96328422
9.963280572
9.963277794
9.963258198
9.963263021
9.9632978
9.96326195
9.9632802
9.963285054
9.963283976
9.963280778
9.963277172
9.963258974
9.96326217
9.963297588
9.963261889
9.963279038
9.963286456
9.963284648
9.963279626
9.963276841
9.963259142
9.963261728
9.963297666
9.963261703
9.963279524
9.963285632
9.963284736
9.963279223
9.963278299
9.963258478
9.963262294
9.963296814
9.963261469
9.963278657
9.963286303
9.963285471
9.963280167
9.963277469
9.963259013
9.963262241
9.963296777
9.963261158
9.963278741
9.963286356
9.963285803
9.963279962
9.963277365
9.963259242
9.963262285
9.963296312
9.963260591
9.963278841
9.963286321
9.963285148
9.963278983
9.96327669
9.963258459
9.963260672
9.963296762
9.963261564
9.963278872
9.963286085
9.963283679
9.96327877
9.96327672
9.963258783
9.963260739
9.963295568
9.963261962
9.96327826
9.963285327
9.963283387
9.96327915
9.963277651
9.963257152
9.963260185
9.963296315
9.963261712
9.963278746
9.963286049
9.963283034
9.963279174
9.963277012
9.963257451
9.963259987
9.963296984
9.963260986
9.963279354
9.963284513
9.96328339
9.96327941
9.963275791
9.963256689
9.96325956
9.963297271
9.963261021
9.963279626
9.963283975
9.963283054
9.963279275
9.963275827
9.963257318
9.963259824
9.96329818
9.963261681
9.963279519
9.963283025
9.963283748
9.963279019
9.963275563
9.963257888
9.963259634
9.963296721
9.963262119
9.963279322
9.96328228
9.96328433
9.9632798
9.963276454
9.963258629
9.963259905
9.963297013
9.963261088
9.963280066
9.96328222
9.963284087
9.96327875
9.963276938
9.963259486
9.963259118
9.963296361
9.963261714
)
;
    }
    side-walls
    {
        type            calculated;
        value           nonuniform List<scalar> 
261
(
9.9632802
9.963273801
9.963299079
9.96329321
9.963246869
9.963251156
9.963294294
9.963277364
9.963252665
9.963279038
9.963274042
9.963299511
9.963293042
9.96324675
9.963250627
9.963294011
9.963277709
9.963253651
9.963279524
9.963273458
9.963300402
9.963293957
9.963244895
9.963251895
9.963292545
9.963276838
9.96325327
9.963278657
9.963274333
9.963299596
9.963293253
9.963245146
9.963251309
9.963292981
9.963277392
9.963253626
9.963278741
9.963273697
9.963299966
9.963293412
9.963244929
9.963251519
9.963292291
9.963277789
9.963253071
9.963278841
9.963274158
9.963298689
9.963292609
9.963244749
9.963250734
9.963292128
9.963277734
9.963253721
9.963278872
9.963274109
9.963298698
9.963292471
9.963246044
9.963251493
9.963292387
9.963277657
9.963254813
9.96327826
9.963274163
9.963298036
9.963292979
9.963245151
9.963251005
9.963290904
9.963277395
9.963255259
9.963278746
9.963274327
9.963297325
9.963293161
9.963245793
9.963250976
9.963291333
9.963277231
9.963255455
9.963279354
9.963274534
9.96329667
9.963294004
9.963247283
9.963250509
9.963291127
9.963276521
9.963255356
9.963279626
9.963272466
9.96329767
9.963294729
9.963247425
9.96324956
9.963291766
9.963275574
9.963255793
9.963279519
9.963272711
9.963297742
9.963294423
9.963247346
9.963251041
9.963292988
9.963275194
9.963257041
9.963279322
9.96327286
9.963296554
9.963294915
9.963247051
9.963251031
9.963293062
9.963275418
9.963256422
9.963280066
9.963273842
9.963296291
9.96329567
9.963246577
9.963250751
9.96329432
9.963276273
9.963257205
9.96326195
9.963276192
9.963259532
9.963339337
9.963330058
9.963301899
9.963270092
9.963293018
9.963279939
9.963261889
9.963276795
9.963260185
9.963339361
9.963329513
9.963303107
9.96326947
9.963293203
9.963279415
9.963261703
9.963276269
9.963260418
9.963338368
9.963328749
9.963303764
9.963270109
9.963292738
9.963280022
9.963261469
9.963275957
9.963258534
9.963337583
9.963328778
9.963304294
9.963270719
9.963292092
9.963279885
9.963261158
9.963275812
9.963257465
9.963339368
9.963328045
9.963303949
9.96327012
9.963293016
9.963280253
9.963260591
9.963275431
9.963257402
9.963340404
9.963327803
9.963302349
9.963270282
9.963292306
9.963280085
9.963261564
9.963275943
9.963257518
9.963339295
9.963327924
9.963302227
9.9632702
9.963293514
9.963279078
9.963261962
9.963274786
9.963258921
9.963338841
9.963329047
9.963301093
9.96327138
9.963294137
9.963279382
9.963261712
9.963273927
9.963259407
9.963338741
9.963328912
9.963301005
9.963271539
9.963294112
9.963279573
9.963260986
9.963273039
9.96325857
9.963338324
9.96332858
9.963300848
9.963271903
9.963294067
9.963279487
9.963261021
9.963273117
9.96325779
9.96333843
9.963328197
9.963300735
9.96327059
9.963294453
9.963279258
9.963261681
9.963272305
9.963257982
9.963337799
9.963327976
9.963301033
9.963270884
9.963294598
9.963278208
9.963262119
9.963272817
9.963257378
9.963337912
9.963327816
9.963301118
9.963270249
9.963294331
9.963278531
9.963261088
9.963273622
9.963256193
9.963338607
9.963328893
9.963301441
9.963269241
9.963293963
9.963277695
9.963261714
9.963274051
9.963256427
9.963338539
9.963328523
9.963301873
9.963269073
9.96329366
9.963277765
)
;
    }
    inlet
    {
        type            calculated;
        value           nonuniform 0();
    }
    outlet
    {
        type            calculated;
        value           nonuniform List<scalar> 
81
(
9.963280066
9.963273842
9.963296291
9.96329567
9.963246577
9.963250751
9.96329432
9.963276273
9.963257205
9.96328222
9.963255389
9.963248903
9.963300428
9.963291757
9.963304844
9.963237501
9.963304323
9.963220398
9.963284087
9.963283787
9.963277437
9.963264728
9.963325799
9.963278522
9.963297127
9.963224111
9.963314115
9.96327875
9.963245317
9.963290511
9.963247343
9.963289747
9.963312889
9.963258883
9.96328457
9.963294802
9.963276938
9.963302491
9.963294697
9.963281785
10.00546301
9.963322262
9.963260191
9.963281701
9.963226273
9.963259486
9.963294644
9.963255075
9.963311345
9.963284717
9.963253294
9.963325907
9.963257232
9.963255085
9.963259118
9.96324855
9.963273045
9.963243422
9.963310421
9.96328442
9.963248977
9.96330702
9.963281381
9.963296361
9.963312475
9.963279836
9.963288302
9.963274483
9.963296525
9.963283551
9.96329401
9.963263219
9.963261714
9.963274051
9.963256427
9.963338539
9.963328523
9.963301873
9.963269073
9.96329366
9.963277765
)
;
    }
    procBoundary1to0
    {
        type            processor;
        value           nonuniform List<scalar> 
97
(
9.963280704
9.963280704
9.963274841
9.963299151
9.963292906
9.963247298
9.963249688
9.963295023
9.963276906
9.96325299
9.963285241
9.963257526
9.963257526
9.963257526
9.963252413
9.963301564
9.9632907
9.96330917
9.963235285
9.963304894
9.963225801
9.963285358
9.963281129
9.963276127
9.963276127
9.963276127
9.963266887
9.963324101
9.963274101
9.96329632
9.963219468
9.963313722
9.963279938
9.963244524
9.963287973
9.963250136
9.963250136
9.963250136
9.963285914
9.963315391
9.963259133
9.963288561
9.963296423
9.963278384
9.963302711
9.963297222
9.96325259
10.00508889
10.00508889
10.00508889
9.963317503
9.963317503
9.963260155
9.963278384
9.963225224
9.963257589
9.963298728
9.963256293
9.963312911
9.963257307
9.963250126
9.963328509
9.963328509
9.963328509
9.963257369
9.963253536
9.963265205
9.963252663
9.96328004
9.963248073
9.963316496
9.963282588
9.963248209
9.963303486
9.963303486
9.963303486
9.963285227
9.963297398
9.963312561
9.963281917
9.963285291
9.963270839
9.963299862
9.963284899
9.963297921
9.963260247
9.963260247
9.963260247
9.963262906
9.963276319
9.963260823
9.963340041
9.963330984
9.963301854
9.963270507
9.963292866
9.963280004
)
;
    }
}


// ************************************************************************* //
