/*--------------------------------*- C++ -*----------------------------------*\
| =========                 |                                                 |
| \\      /  F ield         | OpenFOAM: The Open Source CFD Toolbox           |
|  \\    /   O peration     | Version:  4.x                                   |
|   \\  /    A nd           | Web:      www.OpenFOAM.org                      |
|    \\/     M anipulation  |                                                 |
\*---------------------------------------------------------------------------*/
FoamFile
{
    version     2.0;
    format      ascii;
    class       volScalarField;
    location    "6000";
    object      N2;
}
// * * * * * * * * * * * * * * * * * * * * * * * * * * * * * * * * * * * * * //

dimensions      [0 0 0 0 0 0 0];

internalField   nonuniform List<scalar> 
1174
(
0.6215284692
0.6215277764
0.621526797
0.6215255188
0.6215239544
0.6215221387
0.6215201202
0.6215179534
0.6215156936
0.6215133943
0.6215111037
0.6215088741
0.6215067958
0.6215051616
0.6215278167
0.6215267037
0.6215252207
0.6215234015
0.6215213084
0.6215190171
0.6215166061
0.6215141447
0.6215116921
0.6215092966
0.6215069952
0.6215048234
0.6215028514
0.6215013286
0.6215263738
0.6215244029
0.6215219622
0.6215191899
0.6215162343
0.6215132299
0.6215102821
0.6215074668
0.6215048323
0.6215024053
0.6215001965
0.6214982124
0.6214964859
0.6214951923
0.621524256
0.6215211899
0.6215176676
0.6215139472
0.6215102431
0.6215067103
0.6215034456
0.621500499
0.6214978865
0.6214956014
0.6214936236
0.6214919322
0.6214905236
0.6214895038
0.6215227412
0.6215190727
0.6215150693
0.6215110118
0.6215071056
0.6215034823
0.6215002116
0.6214973216
0.6214948112
0.6214926588
0.6214908343
0.6214893057
0.6214880589
0.6214871718
0.6215242562
0.6215211903
0.6215176682
0.6215139476
0.6215102435
0.6215067113
0.621503446
0.6215004996
0.6214978871
0.6214956023
0.6214936252
0.6214919331
0.621490525
0.6214895054
0.6215263739
0.621524403
0.6215219629
0.6215191906
0.621516235
0.6215132308
0.6215102828
0.6215074683
0.6215048341
0.6215024074
0.6215001986
0.6214982149
0.6214964881
0.6214951946
0.6215278167
0.621526704
0.6215252211
0.6215234022
0.6215213091
0.6215190184
0.6215166076
0.6215141461
0.621511694
0.6215092986
0.621506997
0.6215048258
0.6215028537
0.6215013307
0.6215284693
0.6215277765
0.6215267971
0.621525519
0.6215239548
0.6215221395
0.6215201209
0.6215179539
0.6215156947
0.6215133955
0.6215111052
0.6215088751
0.6215067978
0.6215051646
0.6215285677
0.6215278171
0.6215267034
0.621525221
0.6215234012
0.6215213082
0.6215190172
0.6215166062
0.621514145
0.6215116926
0.6215092969
0.6215069951
0.6215048236
0.6215028518
0.6215013289
0.6215263428
0.6215243845
0.6215219951
0.6215193182
0.6215164972
0.6215136546
0.6215108812
0.6215082378
0.6215057598
0.6215034651
0.6215013604
0.6214994512
0.6214977718
0.6214965021
0.6215226301
0.6215188179
0.6215146708
0.6215105412
0.6215066702
0.6215031889
0.6215001456
0.6214975353
0.6214953209
0.6214934549
0.6214918874
0.6214905736
0.6214894934
0.6214887168
0.6215160216
0.6215096713
0.6215036295
0.6214983495
0.6214939895
0.6214905303
0.6214878648
0.6214858577
0.6214843749
0.6214832995
0.6214825345
0.6214820016
0.6214816439
0.6214814306
0.621509775
0.6215021271
0.6214956442
0.6214904992
0.6214865909
0.6214837212
0.6214816799
0.621480278
0.6214793574
0.6214787938
0.6214784889
0.6214783668
0.6214783665
0.6214784203
0.6215160218
0.6215096716
0.6215036306
0.6214983502
0.6214939906
0.6214905318
0.6214878663
0.6214858592
0.6214843765
0.6214833012
0.6214825361
0.621482004
0.6214816465
0.6214814327
0.6215226312
0.6215188181
0.6215146716
0.6215105425
0.6215066713
0.6215031905
0.6215001476
0.6214975374
0.6214953232
0.6214934578
0.62149189
0.6214905759
0.6214894962
0.6214887198
0.6215263437
0.6215243856
0.6215219958
0.6215193189
0.6215164983
0.6215136559
0.6215108832
0.6215082395
0.6215057621
0.6215034678
0.6215013635
0.6214994547
0.6214977748
0.6214965055
0.6215278169
0.6215267042
0.6215252214
0.6215234027
0.6215213096
0.6215190189
0.621516608
0.6215141467
0.6215116945
0.6215092991
0.6215069978
0.6215048266
0.621502855
0.6215013321
0.6215277898
0.621526374
0.6215244032
0.6215219631
0.6215191903
0.6215162349
0.6215132299
0.6215102822
0.6215074672
0.6215048325
0.6215024053
0.6215001963
0.6214982128
0.621496486
0.6214951921
0.6215257069
0.6215226305
0.6215188177
0.6215146709
0.6215105412
0.6215066698
0.621503189
0.6215001461
0.6214975349
0.6214953211
0.6214934554
0.6214918867
0.6214905731
0.6214894935
0.6214887159
0.6215116445
0.6215035842
0.6214962791
0.6214902865
0.6214857206
0.6214824518
0.6214802494
0.6214788678
0.6214780874
0.6214777293
0.6214776557
0.6214777634
0.6214779688
0.6214781769
0.6214871688
0.6214735288
0.6214641098
0.6214585403
0.6214559141
0.6214553167
0.621456008
0.6214574521
0.6214592846
0.6214612697
0.6214632605
0.6214651606
0.6214668811
0.6214682008
0.6214550559
0.6214414589
0.6214356048
0.6214345568
0.6214362126
0.6214392454
0.6214428695
0.6214466361
0.6214503007
0.621453738
0.6214568888
0.6214597246
0.6214621922
0.6214640394
0.6214871712
0.6214735304
0.6214641121
0.6214585426
0.6214559168
0.6214553193
0.6214560111
0.6214574552
0.6214592874
0.6214612721
0.6214632624
0.6214651625
0.6214668838
0.6214682025
0.621511646
0.6215035853
0.6214962814
0.6214902889
0.6214857229
0.6214824546
0.6214802527
0.6214788713
0.6214780912
0.6214777329
0.6214776594
0.6214777671
0.6214779726
0.6214781813
0.6215226311
0.621518818
0.6215146718
0.6215105427
0.6215066715
0.6215031911
0.6215001486
0.6214975381
0.6214953247
0.6214934587
0.6214918901
0.621490577
0.6214894975
0.6214887211
0.621526374
0.6215244033
0.6215219634
0.6215191912
0.6215162361
0.6215132317
0.6215102844
0.6215074695
0.6215048357
0.6215024091
0.6215002005
0.6214982168
0.6214964907
0.6214951971
0.6215266201
0.6215242567
0.6215211904
0.6215176682
0.6215139474
0.6215102435
0.6215067106
0.621503446
0.621500499
0.6214978866
0.6214956013
0.621493624
0.6214919326
0.6214905243
0.6214895044
0.6215218591
0.6215160224
0.6215096721
0.6215036306
0.6214983503
0.6214939903
0.6214905308
0.6214878653
0.6214858584
0.6214843751
0.6214833001
0.6214825344
0.6214820021
0.6214816444
0.6214814303
0.621503797
0.6214871705
0.6214735298
0.6214641112
0.6214585416
0.6214559147
0.621455317
0.6214560083
0.6214574525
0.621459285
0.62146127
0.6214632605
0.6214651608
0.6214668813
0.6214682007
0.6214031291
0.621385881
0.6213829679
0.6213878408
0.6213962019
0.6214056198
0.6214148592
0.6214233677
0.6214309519
0.6214375986
0.6214433687
0.6214483376
0.6214525136
0.6214555655
0.6212379343
0.6212593076
0.6212923273
0.6213240438
0.6213510221
0.6213730457
0.6213908201
0.6214051823
0.621416866
0.6214264519
0.6214343815
0.6214409716
0.6214463699
0.6214502527
0.6214031368
0.6213858865
0.6213829736
0.6213878465
0.621396207
0.6214056254
0.6214148645
0.6214233719
0.6214309565
0.6214376028
0.6214433728
0.6214483408
0.6214525165
0.6214555684
0.6214871704
0.6214735313
0.6214641138
0.6214585448
0.6214559194
0.6214553225
0.6214560144
0.6214574587
0.6214592906
0.6214612763
0.6214632661
0.6214651668
0.621466887
0.6214682056
0.6215160219
0.6215096722
0.6215036312
0.6214983517
0.6214939928
0.6214905343
0.6214878698
0.6214858629
0.6214843803
0.6214833048
0.6214825399
0.6214820077
0.6214816504
0.6214814368
0.6215242569
0.6215211908
0.6215176686
0.6215139486
0.621510245
0.6215067129
0.6215034485
0.6215005027
0.6214978905
0.6214956061
0.6214936294
0.6214919381
0.62149053
0.6214895101
0.6215257407
0.6215227425
0.6215190739
0.6215150697
0.6215110126
0.6215071063
0.621503483
0.6215002121
0.6214973222
0.6214948119
0.6214926588
0.6214908348
0.6214893066
0.62148806
0.6214871724
0.621517835
0.6215097756
0.6215021284
0.621495646
0.6214905004
0.6214865918
0.6214837222
0.621481681
0.6214802789
0.6214793581
0.6214787937
0.621478489
0.6214783677
0.6214783666
0.6214784202
0.6214791633
0.621455059
0.6214414614
0.6214356071
0.621434559
0.6214362145
0.6214392472
0.6214428706
0.6214466369
0.6214503011
0.621453738
0.6214568892
0.621459725
0.6214621929
0.6214640401
0.6212674867
0.6212379433
0.6212593131
0.6212923311
0.6213240467
0.621351024
0.6213730468
0.621390821
0.6214051832
0.6214168663
0.6214264518
0.6214343817
0.6214409715
0.6214463707
0.6214502529
0.6205256838
0.6208872996
0.6210878003
0.6212052911
0.6212781106
0.6213257662
0.6213585592
0.6213821481
0.6213997676
0.6214133425
0.6214240616
0.6214326679
0.6214395455
0.621444415
0.6212379347
0.6212593153
0.6212923378
0.6213240538
0.6213510317
0.6213730543
0.6213908273
0.6214051892
0.6214168726
0.6214264571
0.6214343867
0.6214409763
0.6214463748
0.6214502569
0.6214550558
0.6214414618
0.6214356112
0.6214345647
0.6214362209
0.621439254
0.6214428779
0.6214466442
0.6214503084
0.6214537455
0.6214568964
0.6214597318
0.6214621997
0.6214640462
0.6215097749
0.6215021281
0.6214956469
0.6214905025
0.621486595
0.6214837265
0.6214816861
0.6214802843
0.6214793641
0.6214788004
0.6214784957
0.6214783745
0.6214783738
0.6214784274
0.6215227421
0.6215190737
0.6215150702
0.6215110137
0.6215071086
0.6215034856
0.6215002157
0.6214973267
0.6214948167
0.6214926645
0.6214908402
0.6214893126
0.6214880663
0.6214871796
0.6215266199
0.6215242566
0.6215211911
0.6215176693
0.6215139484
0.6215102442
0.6215067114
0.621503447
0.6215005007
0.6214978881
0.6214956033
0.6214936257
0.6214919343
0.6214905257
0.6214895059
0.6215218594
0.6215160227
0.6215096727
0.6215036316
0.6214983514
0.6214939915
0.6214905325
0.6214878675
0.6214858605
0.6214843775
0.6214833022
0.6214825363
0.6214820044
0.6214816472
0.621481433
0.6215037998
0.6214871736
0.6214735336
0.6214641149
0.6214585453
0.6214559186
0.6214553213
0.6214560126
0.6214574565
0.6214592885
0.6214612738
0.6214632638
0.6214651636
0.6214668847
0.6214682042
0.6214417293
0.6214031438
0.6213858922
0.6213829781
0.6213878497
0.6213962096
0.621405627
0.6214148661
0.6214233733
0.6214309576
0.6214376038
0.6214433737
0.6214483416
0.621452517
0.6214555698
0.6212674882
0.6212379456
0.6212593226
0.6212923427
0.6213240575
0.6213510347
0.621373056
0.6213908292
0.6214051907
0.6214168731
0.6214264581
0.6214343871
0.6214409761
0.6214463748
0.6214502574
0.6214417266
0.6214031438
0.6213858948
0.6213829827
0.6213878556
0.6213962162
0.6214056332
0.621414872
0.621423379
0.6214309629
0.6214376084
0.6214433778
0.6214483459
0.6214525215
0.6214555735
0.6214871688
0.6214735326
0.621464117
0.6214585488
0.6214559234
0.6214553265
0.6214560188
0.6214574627
0.6214592951
0.6214612796
0.62146327
0.6214651703
0.6214668905
0.62146821
0.6215160214
0.6215096724
0.6215036322
0.6214983533
0.6214939948
0.6214905366
0.6214878721
0.621485865
0.6214843826
0.6214833075
0.6214825426
0.621482011
0.6214816536
0.6214814398
0.6215242567
0.6215211903
0.621517669
0.6215139489
0.6215102456
0.6215067137
0.6215034497
0.6215005036
0.6214978919
0.6214956077
0.6214936317
0.6214919404
0.6214905327
0.6214895129
0.6215277899
0.6215263744
0.6215244038
0.6215219635
0.6215191913
0.6215162357
0.6215132312
0.6215102839
0.6215074689
0.6215048345
0.6215024082
0.621500199
0.621498216
0.621496489
0.6214951957
0.6215257076
0.6215226316
0.6215188195
0.6215146725
0.6215105429
0.6215066724
0.6215031916
0.6215001487
0.6214975381
0.6214953241
0.6214934586
0.6214918909
0.6214905766
0.6214894972
0.6214887211
0.6215193251
0.6215116476
0.6215035873
0.6214962829
0.6214902899
0.6214857247
0.6214824564
0.6214802542
0.6214788726
0.6214780925
0.6214777342
0.621477661
0.6214777686
0.6214779736
0.6214781822
0.6215038
0.6214871739
0.6214735346
0.6214641166
0.6214585477
0.6214559219
0.6214553245
0.6214560162
0.6214574599
0.6214592923
0.6214612775
0.6214632674
0.6214651676
0.6214668881
0.6214682074
0.6214791635
0.6214550613
0.6214414668
0.621435615
0.621434568
0.6214362236
0.6214392564
0.6214428794
0.6214466456
0.6214503094
0.6214537464
0.6214568969
0.6214597325
0.6214621998
0.6214640472
0.6215038001
0.6214871747
0.6214735362
0.6214641193
0.6214585509
0.6214559253
0.6214553284
0.6214560197
0.6214574635
0.621459296
0.6214612807
0.6214632703
0.6214651708
0.6214668912
0.6214682105
0.6215193237
0.6215116466
0.6215035877
0.6214962842
0.6214902927
0.6214857278
0.6214824601
0.621480258
0.6214788774
0.6214780973
0.6214777395
0.6214776657
0.6214777733
0.6214779786
0.6214781872
0.6215226302
0.6215188186
0.6215146728
0.6215105441
0.621506674
0.6215031938
0.6215001519
0.621497542
0.6214953283
0.6214934635
0.6214918956
0.6214905816
0.6214895024
0.6214887258
0.6215263741
0.6215244033
0.6215219636
0.6215191921
0.6215162368
0.6215132329
0.621510286
0.6215074715
0.621504838
0.6215024118
0.6215002033
0.6214982205
0.6214964943
0.6214952017
0.6215285674
0.621527817
0.6215267045
0.6215252217
0.6215234025
0.6215213097
0.6215190188
0.6215166077
0.6215141471
0.6215116948
0.6215092992
0.6215069974
0.6215048266
0.6215028547
0.621501332
0.6215277692
0.6215263435
0.6215243852
0.6215219957
0.6215193195
0.621516499
0.6215136566
0.6215108835
0.6215082404
0.6215057629
0.6215034687
0.6215013643
0.6214994551
0.6214977759
0.6214965062
0.6215257081
0.6215226319
0.6215188196
0.6215146729
0.6215105439
0.6215066734
0.6215031923
0.62150015
0.6214975395
0.6214953258
0.6214934603
0.6214918921
0.6214905782
0.621489499
0.6214887224
0.6215218592
0.6215160232
0.6215096739
0.6215036328
0.6214983536
0.6214939946
0.6214905364
0.6214878709
0.6214858639
0.6214843813
0.6214833063
0.6214825413
0.6214820089
0.6214816514
0.6214814375
0.6215178356
0.6215097771
0.6215021308
0.6214956487
0.6214905051
0.6214865974
0.6214837284
0.6214816876
0.6214802856
0.6214793653
0.6214788013
0.6214784962
0.621478375
0.6214783745
0.621478428
0.6215218588
0.6215160232
0.6215096747
0.6215036339
0.6214983545
0.6214939965
0.6214905377
0.6214878729
0.6214858659
0.6214843832
0.6214833079
0.6214825436
0.6214820113
0.621481654
0.6214814403
0.6215257076
0.6215226319
0.6215188196
0.6215146738
0.6215105453
0.6215066745
0.6215031945
0.6215001527
0.6214975421
0.6214953284
0.6214934634
0.6214918958
0.6214905823
0.621489503
0.6214887262
0.6215277689
0.6215263435
0.6215243852
0.6215219964
0.6215193196
0.6215164998
0.6215136585
0.621510886
0.6215082427
0.6215057656
0.6215034721
0.6215013679
0.6214994591
0.62149778
0.6214965117
0.6215278168
0.6215267041
0.6215252213
0.6215234027
0.62152131
0.6215190198
0.6215166094
0.6215141488
0.6215116974
0.6215093024
0.6215070016
0.6215048305
0.6215028592
0.6215013371
0.6215289143
0.6215284692
0.621527776
0.6215267972
0.6215255189
0.6215239552
0.6215221399
0.6215201213
0.6215179547
0.6215156958
0.6215133969
0.6215111062
0.6215088761
0.621506799
0.6215051651
0.6215285673
0.6215278171
0.621526704
0.621525221
0.6215234022
0.6215213096
0.6215190192
0.6215166084
0.6215141471
0.6215116955
0.6215093
0.621506999
0.6215048273
0.6215028557
0.6215013331
0.62152779
0.6215263737
0.6215244032
0.6215219638
0.6215191917
0.6215162366
0.6215132324
0.6215102851
0.6215074705
0.6215048368
0.6215024099
0.6215002012
0.6214982183
0.6214964916
0.6214951986
0.6215266201
0.6215242567
0.6215211915
0.6215176696
0.6215139493
0.6215102458
0.621506714
0.6215034493
0.6215005036
0.6214978913
0.6214956069
0.6214936304
0.6214919393
0.6214905309
0.6214895117
0.6215257408
0.6215227431
0.6215190747
0.6215150714
0.621511015
0.6215071101
0.621503487
0.6215002172
0.6214973278
0.6214948177
0.621492666
0.6214908418
0.6214893142
0.6214880673
0.6214871802
0.6215266202
0.6215242571
0.6215211915
0.62151767
0.6215139506
0.6215102473
0.6215067154
0.6215034515
0.6215005053
0.6214978938
0.621495609
0.6214936325
0.6214919414
0.6214905331
0.6214895134
0.6215277903
0.6215263747
0.6215244042
0.6215219645
0.6215191928
0.6215162381
0.6215132336
0.621510287
0.6215074722
0.6215048383
0.6215024122
0.621500204
0.6214982212
0.6214964952
0.6214952022
0.621528568
0.6215278173
0.6215267047
0.621525222
0.621523403
0.6215213107
0.6215190207
0.6215166096
0.6215141489
0.6215116973
0.6215093025
0.6215070018
0.6215048311
0.62150286
0.6215013378
0.6215289147
0.6215284697
0.6215277767
0.6215267973
0.6215255195
0.6215239556
0.6215221407
0.6215201228
0.6215179564
0.6215156976
0.6215133988
0.6215111092
0.6215088802
0.6215068031
0.62150517
)
;

boundaryField
{
    top
    {
        type            zeroGradient;
    }
    bottom
    {
        type            zeroGradient;
    }
    side-walls
    {
        type            zeroGradient;
    }
    inlet
    {
        type            zeroGradient;
    }
    outlet
    {
        type            zeroGradient;
    }
    procBoundary1to0
    {
        type            processor;
        value           nonuniform List<scalar> 
97
(
0.6215289145
0.6215289145
0.6215285676
0.62152779
0.6215266207
0.6215257414
0.6215266209
0.6215277904
0.6215285678
0.6215289149
0.6215290109
0.6215277688
0.6215277688
0.6215277688
0.6215257074
0.6215218603
0.6215178372
0.6215218605
0.621525708
0.6215277695
0.6215285682
0.6215286593
0.6215277466
0.6215193236
0.6215193236
0.6215193236
0.6215038023
0.6214791741
0.6215038046
0.6215193264
0.6215257083
0.6215277905
0.6215281431
0.6215261359
0.6215191046
0.6214417282
0.6214417282
0.6214417282
0.6212675647
0.6214417468
0.6215038045
0.6215218606
0.6215266207
0.6215277737
0.6215246129
0.6215112776
0.6214584006
0.6198374761
0.6198374761
0.6198374761
0.6212675615
0.6212675615
0.6214791733
0.6215178372
0.6215257417
0.621528143
0.6215261353
0.6215191035
0.6214986274
0.6214583973
0.6214986295
0.621503798
0.621503798
0.621503798
0.6215218599
0.6215266209
0.6215286591
0.6215277466
0.6215250691
0.6215191036
0.6215112777
0.6215191038
0.6215250691
0.6215257075
0.6215257075
0.6215257075
0.6215277903
0.6215290106
0.6215286516
0.6215277467
0.6215261355
0.621524613
0.6215261361
0.6215277471
0.6215286521
0.6215285679
0.6215285679
0.6215285679
0.6215291697
0.6215290108
0.6215286586
0.6215281425
0.6215277738
0.6215281435
0.6215286596
0.6215290113
0.6215291704
)
;
    }
}


// ************************************************************************* //
