/*--------------------------------*- C++ -*----------------------------------*\
| =========                 |                                                 |
| \\      /  F ield         | OpenFOAM: The Open Source CFD Toolbox           |
|  \\    /   O peration     | Version:  4.x                                   |
|   \\  /    A nd           | Web:      www.OpenFOAM.org                      |
|    \\/     M anipulation  |                                                 |
\*---------------------------------------------------------------------------*/
FoamFile
{
    version     2.0;
    format      ascii;
    class       surfaceScalarField;
    location    "6000";
    object      phi;
}
// * * * * * * * * * * * * * * * * * * * * * * * * * * * * * * * * * * * * * //

dimensions      [1 0 -1 0 0 0 0];

internalField   nonuniform List<scalar> 
3172
(
9.498005088e-06
-1.483608377e-11
-1.496995132e-11
9.49803501e-06
-1.49700875e-11
-1.465473825e-11
9.49805568e-06
-1.002153048e-11
-1.028553239e-11
9.498072363e-06
-6.707315338e-12
-6.898862366e-12
9.498081571e-06
-5.985296329e-12
-5.794511007e-12
9.498082604e-06
-3.320328309e-12
-3.501559006e-12
9.498088241e-06
2.02136521e-13
2.55189671e-13
9.498089259e-06
7.351886871e-13
4.046927792e-13
9.498082295e-06
1.185205477e-12
-5.181818419e-14
9.498083063e-06
2.548219611e-12
3.6229361e-12
9.498076792e-06
2.158590577e-12
4.024008584e-12
9.498072623e-06
4.167472838e-12
5.21102625e-12
9.498065498e-06
3.179240718e-12
3.708085165e-12
3.043191284e-12
3.26493147e-12
9.498011182e-06
-2.591906208e-11
-1.718168262e-11
9.498042577e-06
-2.58988083e-11
-2.012192821e-11
9.49806187e-06
-1.906531341e-11
-1.258100904e-11
9.498074198e-06
-1.092467963e-11
-7.86374767e-12
9.498080318e-06
-7.127636223e-12
-4.892920027e-12
9.498079673e-06
-3.806158416e-12
-2.367375355e-12
9.498079328e-06
-1.463658494e-12
2.8958786e-14
9.498077563e-06
-2.86813337e-13
8.481734153e-13
9.498072022e-06
-2.168164952e-13
2.14075434e-12
9.498067953e-06
8.547550469e-13
2.58768925e-12
9.49806188e-06
9.135588422e-13
2.82976181e-12
9.498055539e-06
1.165047181e-12
3.478597395e-12
9.498050952e-06
5.028263488e-12
5.063338659e-12
5.354122972e-12
4.113773201e-12
9.498065892e-06
-2.275651279e-11
-3.399347812e-11
9.498093538e-06
-2.167286216e-11
-3.23155745e-11
9.498107903e-06
-1.295199815e-11
-1.489335716e-11
9.498109959e-06
-7.393235321e-12
-6.314368725e-12
9.498108078e-06
-5.132326084e-12
-5.411815892e-13
9.498101872e-06
-1.665577256e-12
1.608080816e-12
9.498095506e-06
1.289605691e-12
3.354234965e-12
9.498089238e-06
2.161094706e-12
4.501037728e-12
9.498084371e-06
1.420554675e-12
4.754180167e-12
9.498078906e-06
7.753627251e-13
3.584916623e-12
9.498075967e-06
2.266660034e-12
4.542667499e-12
9.498072396e-06
4.412210129e-12
4.026161704e-12
9.498065543e-06
5.870222155e-12
5.018099071e-12
6.654461606e-12
3.365886764e-12
9.498075469e-06
-1.454231329e-11
-1.781459443e-11
9.498098658e-06
-9.416709586e-12
-3.651074794e-11
9.498108315e-06
-1.629941112e-12
-1.40603763e-11
9.498104927e-06
9.61507294e-13
-1.435843954e-12
9.498098974e-06
1.948606879e-12
4.797755428e-12
9.498090321e-06
1.451142992e-12
5.910368196e-12
9.498080514e-06
6.477320552e-13
7.727629673e-12
9.49807483e-06
-6.9032902e-14
7.599992845e-12
9.498072137e-06
3.56890337e-13
6.51826005e-12
9.498067206e-06
3.940741774e-14
6.604652091e-12
9.49806612e-06
-3.86915245e-13
6.351861456e-12
9.49806193e-06
-7.900693556e-13
4.122127139e-12
9.498060457e-06
1.770526437e-12
5.193579434e-12
2.014210054e-12
4.902500859e-12
9.498079653e-06
1.553649923e-11
-2.075236304e-11
9.498081964e-06
1.104591375e-11
-2.45460418e-11
9.498073582e-06
5.35118865e-12
-5.771256677e-13
9.498060027e-06
1.956064588e-12
8.530596984e-12
9.498049168e-06
2.421179929e-12
1.031008103e-11
9.498041302e-06
-8.477925316e-14
1.022529704e-11
9.498029973e-06
-1.052385176e-12
9.403606266e-12
9.498023658e-06
-1.263739536e-12
6.923715078e-12
9.498019111e-06
-9.560027008e-13
6.225147594e-12
9.498019223e-06
-6.458254967e-13
6.735730643e-12
9.498017981e-06
-6.467422012e-13
6.813234889e-12
9.498017605e-06
-5.743954082e-13
5.125067252e-12
9.498013578e-06
-2.386582135e-12
4.113314817e-12
-2.251469993e-12
3.708248269e-12
9.498035125e-06
2.347722164e-11
-1.786564133e-11
9.4980611e-06
2.288814259e-11
-3.603680187e-11
9.498066816e-06
1.510476139e-11
-1.522647185e-11
9.498066922e-06
9.485329633e-12
-1.606432999e-12
9.498057181e-06
5.19534581e-12
3.329869133e-12
9.498050008e-06
3.203631437e-12
7.572351511e-12
9.498039459e-06
5.322316379e-15
7.930346776e-12
9.4980337e-06
-1.683804562e-12
9.013141832e-12
9.498028124e-06
-2.711653507e-12
6.980380176e-12
9.498025945e-06
-3.35347279e-12
7.55964607e-12
9.498023844e-06
-3.305860115e-12
6.53161259e-12
9.498022372e-06
-3.030573158e-12
5.705275305e-12
9.498019335e-06
-3.735169765e-12
5.385691638e-12
-4.074516703e-12
5.090199808e-12
9.498059899e-06
2.846376953e-11
-3.311046679e-11
9.498088011e-06
2.716321032e-11
-3.052503366e-11
9.498099354e-06
1.810925911e-11
-1.670510793e-11
9.498103481e-06
1.000961099e-11
-7.671576903e-12
9.498099075e-06
5.384992356e-12
-2.321281354e-12
9.498095453e-06
2.845867506e-12
2.874175588e-12
9.498087279e-06
2.684803307e-13
4.484715867e-12
9.49808315e-06
-3.103515691e-13
5.694812786e-12
9.498078479e-06
-2.074681489e-12
6.196614747e-12
9.498076255e-06
-3.88002451e-12
6.135400142e-12
9.498073587e-06
-4.621394557e-12
4.455798191e-12
9.498070333e-06
-4.219343302e-12
4.046542688e-12
9.498064744e-06
-5.725171932e-12
5.271314485e-12
-4.305501628e-12
3.833267492e-12
9.498013782e-06
1.600526138e-11
-1.824504118e-11
9.498042599e-06
1.404770701e-11
-1.94268944e-11
9.498062478e-06
1.178028493e-11
-1.292286572e-11
9.498076442e-06
8.261274966e-12
-8.583939831e-12
9.498082135e-06
4.788856263e-12
-4.622519812e-12
9.49808376e-06
3.093389668e-12
-1.182746705e-12
9.498080944e-06
-1.779343615e-13
-5.958167865e-13
9.498078153e-06
-1.356629797e-12
1.909884115e-12
9.49807369e-06
-1.596224525e-12
2.951717409e-12
9.498070462e-06
2.650123556e-13
3.583261294e-12
9.498067695e-06
-1.591275777e-12
4.140824724e-12
9.498062016e-06
-2.043912514e-12
2.56693619e-12
9.498055289e-06
-3.229972517e-12
3.784015311e-12
-3.440739041e-12
2.168986005e-12
9.497976789e-06
-1.606680925e-11
9.498010132e-06
-1.532528522e-11
9.498029456e-06
-1.096708193e-11
9.498043981e-06
-8.2619829e-12
9.498056192e-06
-5.771670788e-12
9.498059011e-06
-4.274022003e-12
9.498062413e-06
-3.146657103e-12
9.498063001e-06
6.366639326e-13
9.498060676e-06
1.67617476e-12
9.498058188e-06
7.856599991e-13
9.498056019e-06
2.850241966e-12
9.49805014e-06
3.46079423e-12
9.498044137e-06
2.646825242e-12
3.407773241e-12
9.497993295e-06
-6.210389641e-11
9.498023168e-06
-1.657148116e-11
-2.552121906e-11
9.498052798e-06
-1.911581175e-11
-2.49800411e-11
9.498072614e-06
-1.153648312e-11
-1.659484708e-11
9.498084503e-06
-6.436037282e-12
-9.634922745e-12
9.498091152e-06
-4.655739449e-12
-7.417648069e-12
9.498091912e-06
-2.161691412e-12
-2.64173298e-12
9.49809083e-06
7.042973656e-13
4.944958454e-13
9.498088293e-06
2.039793883e-12
2.006691499e-12
9.498085045e-06
3.906959968e-12
4.380680846e-12
9.498078344e-06
2.326751676e-12
3.86515189e-12
9.498070577e-06
2.102309598e-12
3.162860595e-12
9.498065212e-06
3.535070727e-12
4.271388353e-12
9.49806002e-06
4.790832324e-12
6.14060626e-12
4.571325656e-12
5.871690165e-12
9.498012365e-06
-2.596670831e-11
-2.638108577e-11
9.49804295e-06
-3.219241347e-11
-3.301592427e-11
9.498054699e-06
-2.063720067e-11
-2.065990558e-11
9.498059675e-06
-9.538788058e-12
-8.97451828e-12
9.498060978e-06
-3.473977513e-12
-3.743840166e-12
9.498058465e-06
-3.178784499e-13
9.35464166e-13
9.498053238e-06
2.14643212e-12
2.621174024e-12
9.498051022e-06
4.155685328e-12
5.289825091e-12
9.498044868e-06
3.696093899e-12
5.210813071e-12
9.498040196e-06
4.076334794e-12
4.494907158e-12
9.498036892e-06
4.015938515e-12
5.726653743e-12
9.498031984e-06
3.697265364e-12
4.107393491e-12
9.498027641e-06
6.503602267e-12
6.371578657e-12
5.376474266e-12
6.636600014e-12
9.498055006e-06
-1.770569803e-11
-5.133065333e-11
9.498072221e-06
-2.561792585e-11
-5.224415296e-11
9.49806849e-06
-1.247960052e-11
-2.149028309e-11
9.498059763e-06
-3.19466028e-12
-4.320854964e-12
9.498049703e-06
1.084974006e-12
4.365710123e-12
9.498040011e-06
3.339088477e-12
9.407485788e-12
9.498032274e-06
5.851651556e-12
1.061235826e-11
9.498029032e-06
4.056089245e-12
9.066441391e-12
9.49802582e-06
3.57710478e-12
8.906723768e-12
9.498021941e-06
3.313440476e-12
6.633047784e-12
9.498021238e-06
4.733078096e-12
7.668249638e-12
9.498020559e-06
4.890354718e-12
8.290698527e-12
9.498016015e-06
5.956649846e-12
8.045152103e-12
6.889102668e-12
7.331147497e-12
9.498117097e-06
3.228215117e-12
1.420463152e-11
9.498116699e-06
-7.043149462e-12
-5.795153104e-11
9.498106694e-06
-4.310492568e-13
-1.247439289e-11
9.498091867e-06
2.369098274e-12
1.017263363e-11
9.498076907e-06
3.448390044e-12
1.629056203e-11
9.498069127e-06
3.937753439e-12
1.806114809e-11
9.498061716e-06
3.580031479e-12
1.502825134e-11
9.498058868e-06
1.385094709e-12
1.265112575e-11
9.498061104e-06
1.807124873e-12
1.236353014e-11
9.498060684e-06
1.331797908e-13
9.447628964e-12
9.498062695e-06
1.110599038e-12
8.233077336e-12
9.498064075e-06
9.793102931e-13
7.052016471e-12
9.498064731e-06
2.365773616e-12
8.561420105e-12
2.248913407e-12
8.061219847e-12
9.498183425e-06
-2.439609514e-12
1.379820338e-10
9.498128798e-06
8.623660708e-12
1.580045598e-11
9.498091802e-06
2.137655552e-12
2.891397194e-11
9.498071989e-06
-4.936382343e-13
3.931333217e-11
9.498056731e-06
-1.012020726e-12
3.079617088e-11
9.498049628e-06
-1.471204427e-12
2.289231334e-11
9.498046945e-06
-2.728020666e-12
1.628196705e-11
9.498046383e-06
-1.726247483e-12
1.181887771e-11
9.498048483e-06
-1.888342615e-12
1.108044377e-11
9.498049671e-06
-2.010687237e-12
8.982182925e-12
9.498051823e-06
-2.295872094e-12
8.415068572e-12
9.498055412e-06
-1.94020104e-12
5.987092572e-12
9.498055805e-06
-3.719826635e-12
8.191595971e-12
-2.755121959e-12
8.563635044e-12
9.498120381e-06
1.856174667e-11
1.569803091e-11
9.498123097e-06
2.918681676e-11
-5.735775263e-11
9.498111089e-06
1.39833776e-11
-1.391644151e-11
9.498096015e-06
4.678362619e-12
9.223512642e-12
9.498084082e-06
4.82431622e-13
1.507496649e-11
9.498071993e-06
-1.744188012e-12
1.669099365e-11
9.498068385e-06
-2.694080481e-12
1.531031723e-11
9.498065037e-06
-4.725493915e-12
1.220459208e-11
9.498066284e-06
-4.329367685e-12
1.130137297e-11
9.498064306e-06
-4.856737367e-12
1.003675479e-11
9.498067553e-06
-5.374289168e-12
8.646458598e-12
9.498069139e-06
-5.582436389e-12
8.585874896e-12
9.498070744e-06
-5.304895094e-12
1.008523755e-11
-5.594732414e-12
9.448503199e-12
9.498040528e-06
2.803678371e-11
-5.03068793e-11
9.498054684e-06
3.259926074e-11
-5.244357608e-11
9.498051029e-06
2.102953267e-11
-2.038272627e-11
9.498044883e-06
1.057175218e-11
-3.824860045e-12
9.498033836e-06
4.040696521e-12
3.379986764e-12
9.498022783e-06
-6.921085658e-13
8.130219542e-12
9.498014909e-06
-3.964380665e-12
8.961784045e-12
9.498011462e-06
-3.699679251e-12
9.769070394e-12
9.498008764e-06
-4.851622375e-12
8.930325939e-12
9.498007244e-06
-6.966388654e-12
8.118756394e-12
9.498009786e-06
-5.150743997e-12
1.031823568e-11
9.498008865e-06
-5.515475946e-12
7.241467313e-12
9.498005731e-06
-7.740263492e-12
7.45566138e-12
-6.046981685e-12
7.689549854e-12
9.498060025e-06
1.76994502e-11
-2.739442776e-11
9.498087613e-06
1.899502081e-11
-3.378927424e-11
9.498099701e-06
1.392330577e-11
-1.960110953e-11
9.498108039e-06
9.370361488e-12
-9.509448011e-12
9.498105763e-06
4.091388607e-12
-5.247525091e-12
9.498102026e-06
2.47210767e-13
-8.94041564e-13
9.498098612e-06
-2.656107994e-12
2.364735408e-12
9.498092546e-06
-2.984413284e-12
3.290092341e-12
9.498088256e-06
-2.462397446e-12
4.253915658e-12
9.498087896e-06
-2.750373174e-12
5.225028325e-12
9.49808475e-06
-2.912243037e-12
7.019305135e-12
9.498082643e-06
-2.329949236e-12
6.987405712e-12
9.498077884e-06
-3.431024254e-12
7.82153692e-12
-2.52280182e-12
6.022705225e-12
9.497963312e-06
-2.703313597e-11
9.497994518e-06
-2.610887035e-11
9.49801221e-06
-1.744440569e-11
9.498024395e-06
-1.215140592e-11
9.498029783e-06
-8.021761364e-12
9.498028603e-06
-2.473227215e-12
9.498031091e-06
6.202176909e-13
9.498026732e-06
8.252570953e-13
9.498019926e-06
1.538681336e-12
9.498020774e-06
4.572539342e-12
9.498015441e-06
4.953792399e-12
9.498008935e-06
5.913116676e-12
9.49800461e-06
5.279931955e-12
4.681394252e-12
9.498021839e-06
-1.07598705e-10
-7.68614971e-11
9.498051918e-06
-3.111766612e-11
-2.420830535e-11
9.498080883e-06
-3.237827171e-11
-2.264890462e-11
9.498093962e-06
-1.516843308e-11
-1.321504998e-11
9.498094869e-06
-4.036635784e-12
-6.425815756e-12
9.498096741e-06
1.128091305e-12
-1.417604058e-12
9.49808981e-06
2.528033135e-12
-1.537532111e-12
9.498082166e-06
3.730484376e-12
2.224649552e-13
9.498076793e-06
6.498201516e-12
2.308899167e-12
9.49807155e-06
6.465284146e-12
3.347997286e-12
9.498063881e-06
4.048751205e-12
3.565160685e-12
9.498061171e-06
6.117040199e-12
6.165924848e-12
9.498056993e-06
4.394725369e-12
6.436525116e-12
9.498052446e-06
5.198995962e-12
5.282037991e-12
6.676988222e-12
6.257318559e-12
9.498073852e-06
-1.467524704e-10
9.498080786e-06
-5.007764479e-11
-1.824012639e-11
9.498098019e-06
-5.099982338e-11
-2.826861476e-11
9.49809525e-06
-2.063984009e-11
-1.391453377e-11
9.498084082e-06
-4.910655466e-12
-4.335506644e-12
9.498076048e-06
4.613117583e-12
7.036859416e-13
9.498069042e-06
8.262149202e-12
3.372684193e-12
9.498063847e-06
1.022600167e-11
5.253039e-12
9.49805957e-06
8.742312628e-12
4.92768696e-12
9.498055224e-06
7.951436963e-12
4.834641264e-12
9.498056005e-06
6.903927278e-12
5.115114851e-12
9.498051761e-06
5.989328166e-12
3.563977269e-12
9.49805148e-06
7.942304566e-12
5.917212786e-12
9.498049759e-06
8.475683142e-12
6.331074823e-12
6.253257868e-12
5.299994083e-12
9.498165695e-06
-2.512216153e-11
-2.565796908e-11
9.498132367e-06
-3.450598021e-11
-3.639888998e-11
9.498089348e-06
7.463516479e-13
-1.206676154e-12
9.498059582e-06
1.38046067e-11
1.105342531e-11
9.498041388e-06
1.405783075e-11
1.368654521e-11
9.498030472e-06
1.2759087e-11
1.427347421e-11
9.498025994e-06
1.124947461e-11
1.316300476e-11
9.498026829e-06
9.118076251e-12
9.946625325e-12
9.498027682e-06
7.07847537e-12
8.191315654e-12
9.498032383e-06
6.444964366e-12
6.328431959e-12
9.498035718e-06
5.278132724e-12
5.680534839e-12
9.498036487e-06
4.012377057e-12
5.597309419e-12
9.498041662e-06
7.482687198e-12
8.157876465e-12
6.951546093e-12
6.420718306e-12
9.49814422e-06
5.079179102e-11
1.674416549e-10
9.49807107e-06
6.803327098e-12
-2.466673256e-11
9.498017295e-06
1.257854991e-11
2.282641051e-11
9.497989245e-06
1.446293724e-11
3.385917776e-11
9.497981705e-06
1.125135432e-11
2.800730739e-11
9.497985113e-06
7.496987385e-12
2.218555441e-11
9.49799136e-06
6.014180193e-12
1.676531523e-11
9.498000916e-06
3.409281936e-12
1.090138426e-11
9.498008076e-06
1.998741412e-12
7.826473443e-12
9.498014797e-06
1.29711841e-12
6.283621862e-12
9.498023429e-06
1.829703334e-12
6.398184545e-12
9.498029924e-06
5.885988982e-13
5.881002871e-12
9.498037916e-06
2.579830655e-12
7.378706518e-12
3.97005117e-12
7.061052311e-12
9.498343015e-06
-4.871015003e-11
8.338818215e-10
9.498108352e-06
-3.77476661e-12
2.57356864e-10
9.498033424e-06
-1.30814548e-11
1.355701369e-10
9.49801343e-06
-1.458945617e-11
8.564039123e-11
9.498015876e-06
-9.697754376e-12
4.457511844e-11
9.498029916e-06
-5.734774808e-12
2.489168206e-11
9.498041933e-06
-4.861146804e-12
1.499587281e-11
9.49805689e-06
-3.176366135e-12
9.029930504e-12
9.498066537e-06
-3.084660159e-12
5.683422843e-12
9.498076223e-06
-1.484753659e-12
3.789809241e-12
9.498081716e-06
-2.00613743e-12
3.33392409e-12
9.498091857e-06
4.453693748e-13
4.887661492e-12
9.498099746e-06
-1.919610509e-12
7.253980062e-12
-2.599615724e-12
4.913269834e-12
9.498150243e-06
2.576020082e-11
1.674659182e-10
9.49807645e-06
3.705425515e-11
-2.644423256e-11
9.498025698e-06
3.304743976e-12
2.330679015e-11
9.4979995e-06
-1.113215727e-11
3.456214089e-11
9.497990929e-06
-1.2875884e-11
2.76222154e-11
9.497992695e-06
-1.173547409e-11
2.124699395e-11
9.497999246e-06
-1.091249336e-11
1.614095116e-11
9.498007543e-06
-8.68198681e-12
1.237810328e-11
9.498017468e-06
-7.202427257e-12
8.946633908e-12
9.498025512e-06
-7.33910219e-12
6.414163071e-12
9.498036234e-06
-5.886487033e-12
6.503793685e-12
9.498040537e-06
-7.66697135e-12
5.593231159e-12
9.498048056e-06
-7.637803743e-12
7.242458156e-12
-7.674798881e-12
7.491529758e-12
9.498188173e-06
5.16852039e-11
-2.435484724e-11
9.498151666e-06
5.157758379e-11
-3.627622928e-11
9.498108336e-06
2.215769685e-11
-1.978993896e-12
9.498080037e-06
5.252801317e-12
1.268918064e-11
9.498058734e-06
-4.910544449e-12
1.3328996e-11
9.498046225e-06
-9.599146146e-12
1.267184458e-11
9.498044244e-06
-1.060644593e-11
1.250803542e-11
9.498045249e-06
-9.699445495e-12
1.005391497e-11
9.498047043e-06
-9.781028572e-12
8.337679817e-12
9.498050676e-06
-9.387135276e-12
6.930527373e-12
9.498053623e-06
-6.97635859e-12
6.242468457e-12
9.498059438e-06
-5.651447582e-12
6.185062787e-12
9.498061598e-06
-7.350240705e-12
7.23366276e-12
-8.035750146e-12
7.057048969e-12
9.498024883e-06
3.342787718e-11
-1.753525298e-11
9.498040993e-06
3.322075906e-11
-2.825106084e-11
9.498035552e-06
1.725035977e-11
-1.384454618e-11
9.498026468e-06
6.495447842e-12
-4.686845282e-12
9.498017472e-06
8.646619764e-13
8.914736391e-14
9.49800978e-06
-2.191696638e-12
2.911691454e-12
9.498003755e-06
-4.855084209e-12
5.884499759e-12
9.497998414e-06
-5.015287786e-12
4.679355246e-12
9.497994588e-06
-5.226295908e-12
4.856582897e-12
9.497997166e-06
-4.504048514e-12
6.743905508e-12
9.497993562e-06
-4.981092708e-12
4.317157937e-12
9.497994983e-06
-3.419455026e-12
4.978105132e-12
9.497991643e-06
-5.908706265e-12
6.151994942e-12
-3.853337735e-12
6.038600356e-12
9.498079556e-06
-2.454348788e-11
9.498109763e-06
-2.514191552e-11
9.498119892e-06
-1.58751057e-11
9.498123858e-06
-8.859120879e-12
9.498123888e-06
-4.709420204e-12
9.498115463e-06
-2.656078932e-12
9.49811214e-06
8.3262938e-13
9.4981036e-06
1.944204244e-12
9.498099478e-06
3.577735438e-12
9.498098198e-06
5.090132059e-12
9.498091314e-06
4.313097214e-12
9.498086007e-06
4.126521928e-12
9.498083778e-06
6.629274482e-12
4.207366621e-12
9.498055841e-06
-1.59637028e-10
-7.424307357e-11
9.49806548e-06
-1.399663216e-11
-1.529132413e-11
9.498088554e-06
-3.709054489e-11
-1.110774758e-11
9.498095598e-06
-1.507604953e-11
-6.119199413e-12
9.498092642e-06
-2.099746768e-12
-3.151996466e-12
9.498084432e-06
4.572129101e-12
3.227043248e-13
9.498076992e-06
8.120514872e-12
1.598897467e-12
9.498067638e-06
9.009411782e-12
6.232253377e-13
9.498061797e-06
7.576994643e-12
1.57492064e-12
9.498057007e-06
7.329872242e-12
1.086506534e-12
9.498052937e-06
4.948956731e-12
2.287134714e-12
9.49804877e-06
3.060207091e-12
9.708418109e-13
9.498044047e-06
3.222041375e-12
1.45054582e-13
9.49804323e-06
5.953955552e-12
3.000480942e-12
5.25211189e-12
1.189780197e-12
9.498112858e-06
-3.837601369e-10
-1.512290237e-10
9.498058088e-06
1.523227801e-11
1.702996396e-12
9.498061858e-06
-5.769459007e-11
-8.004669099e-12
9.498052331e-06
-1.271754738e-11
-3.148830426e-12
9.498036645e-06
8.345732289e-12
1.012057875e-12
9.498023263e-06
1.531774719e-11
3.333622115e-12
9.498016173e-06
1.770353247e-11
3.313845803e-12
9.498009384e-06
1.618248962e-11
2.409407953e-12
9.498006201e-06
1.269720098e-11
2.263423533e-12
9.498005491e-06
9.708320965e-12
1.243064559e-12
9.498006329e-06
8.091210246e-12
2.07466414e-12
9.498008391e-06
7.781918912e-12
2.382341112e-12
9.498007616e-06
7.554658752e-12
1.089965215e-12
9.498009803e-06
9.990465803e-12
3.95497706e-12
8.784274692e-12
2.211997594e-12
9.49838892e-06
-4.594419089e-10
9.498163127e-06
1.670298391e-10
4.766408413e-11
9.49809304e-06
-2.299530172e-11
4.581685369e-12
9.498042618e-06
2.466649148e-11
1.340182586e-11
9.498015191e-06
3.549547971e-11
1.445567714e-11
9.498005608e-06
2.842601209e-11
9.916963078e-12
9.498006129e-06
2.046883382e-11
6.888789831e-12
9.498011165e-06
1.518486189e-11
3.834546531e-12
9.498021821e-06
9.842254521e-12
3.173910424e-12
9.49802913e-06
7.360112211e-12
2.144661104e-12
9.498038785e-06
6.724128583e-12
1.525125078e-12
9.498047197e-06
5.426924715e-12
6.958163096e-13
9.498051258e-06
4.795469656e-12
4.175739846e-13
9.498058398e-06
6.659649826e-12
1.804099428e-12
8.127550767e-12
2.444190672e-12
9.49784877e-06
4.219294305e-10
4.184759057e-10
9.497849595e-06
-2.638963011e-11
-2.87868433e-11
9.497862816e-06
1.689721052e-11
1.54745156e-11
9.49788594e-06
2.474121936e-11
2.304019852e-11
9.497913855e-06
1.367747462e-11
1.201070242e-11
9.497941752e-06
7.739312648e-12
7.909653332e-12
9.497962739e-06
4.620755808e-12
5.491868324e-12
9.49798354e-06
2.725741433e-12
3.885942312e-12
9.497996496e-06
2.00442202e-12
2.443593053e-12
9.498005575e-06
9.75962681e-13
1.500547703e-12
9.498014883e-06
3.977658034e-13
1.599966709e-12
9.498023139e-06
-1.139061974e-13
1.918485895e-12
9.498035036e-06
2.906810341e-12
3.31628224e-12
2.283714358e-12
2.650683114e-12
9.497728116e-06
-4.198430662e-10
3.158507783e-09
9.497732235e-06
2.74073011e-11
2.015569617e-10
9.497831238e-06
-1.676893254e-11
6.697380941e-11
9.497910948e-06
-2.405672489e-11
5.519387154e-11
9.497963583e-06
-1.358822453e-11
1.83122421e-11
9.498001407e-06
-7.7242563e-12
6.702462597e-12
9.498024003e-06
-4.052211882e-12
1.777866245e-12
9.49804287e-06
-1.298308564e-12
1.633289139e-12
9.498051388e-06
-1.749566971e-12
-9.286790684e-13
9.498058705e-06
-1.362709996e-12
-2.266374012e-14
9.498066058e-06
-8.295895059e-14
2.884554718e-13
9.498075074e-06
7.848515313e-13
2.478663415e-12
9.498084032e-06
-2.652769286e-12
2.94721249e-12
-2.178763846e-12
1.341060424e-12
9.497907963e-06
-1.661813484e-10
4.207788455e-10
9.497910714e-06
2.634630406e-11
-2.810352244e-11
9.497920954e-06
-2.307372507e-11
1.640222631e-11
9.497945312e-06
-3.385568823e-11
2.50193774e-11
9.497972068e-06
-2.692100339e-11
1.280199871e-11
9.498002134e-06
-1.948631257e-11
8.382409845e-12
9.498022654e-06
-1.498180388e-11
5.485539229e-12
9.498039857e-06
-1.109713503e-11
3.864931968e-12
9.498055498e-06
-8.105025689e-12
1.037835016e-12
9.498067813e-06
-8.256528929e-12
1.166531433e-12
9.498076923e-06
-7.555742487e-12
5.709116762e-13
9.498084253e-06
-5.951082349e-12
1.322266038e-12
9.49809536e-06
-7.557978925e-12
2.207331489e-12
-7.511093773e-12
2.251059327e-12
9.498132666e-06
-1.531974998e-11
4.850625292e-11
9.498060848e-06
5.746974212e-11
3.698803408e-12
9.498008963e-06
1.499581857e-11
1.347749057e-11
9.49798268e-06
-8.879994964e-12
1.467018851e-11
9.497975039e-06
-1.497170353e-11
1.007738329e-11
9.497975741e-06
-1.733802725e-11
6.100527309e-12
9.497983626e-06
-1.619790689e-11
4.43395643e-12
9.49799148e-06
-1.439002179e-11
4.902708477e-12
9.497997814e-06
-1.21350939e-11
3.260343626e-12
9.498008921e-06
-8.652210064e-12
3.109548765e-12
9.498015583e-06
-7.639624419e-12
1.974323451e-12
9.498023546e-06
-6.954500454e-12
1.952218914e-12
9.498029191e-06
-8.672710055e-12
2.11193025e-12
-8.626623642e-12
2.196825922e-12
9.498100166e-06
1.632846116e-11
1.00435845e-12
9.498103132e-06
3.694173522e-11
-7.865804597e-12
9.498090248e-06
1.636155193e-11
-1.594142763e-12
9.498075381e-06
1.817782525e-12
1.983282116e-12
9.498062975e-06
-4.424539754e-12
2.196570152e-12
9.498052747e-06
-7.46761145e-12
2.149275959e-12
9.49804614e-06
-9.500416895e-12
2.292790435e-12
9.498045257e-06
-7.411251211e-12
1.753045567e-12
9.498046201e-06
-6.23645246e-12
2.460829572e-12
9.498046555e-06
-5.678491544e-12
1.787320878e-12
9.498047171e-06
-4.56554501e-12
3.568732072e-12
9.498047427e-06
-4.945662987e-12
3.909088373e-12
9.498047798e-06
-5.410167387e-12
4.047885132e-12
-5.842981668e-12
2.563853011e-12
9.498080428e-06
-1.555572443e-11
9.498104872e-06
-9.764646449e-12
9.498107808e-06
-5.259472539e-12
9.498107207e-06
-1.810726545e-12
9.498100682e-06
-1.067581091e-12
9.498091497e-06
1.503034025e-12
9.498084155e-06
2.214126348e-12
9.498078078e-06
1.29693147e-12
9.498071003e-06
1.208891924e-12
9.498068615e-06
1.676538028e-12
9.49806422e-06
1.675477113e-12
9.498062504e-06
2.176142789e-12
9.498057512e-06
3.113973808e-12
2.433335675e-12
9.498123386e-06
-4.221556916e-10
7.655900094e-11
9.498111451e-06
-1.627856251e-11
1.718923447e-11
9.498114084e-06
-2.385453623e-11
1.111628134e-11
9.498105403e-06
7.109409962e-13
6.425047273e-12
9.498093048e-06
1.126598537e-11
2.039332419e-12
9.49808046e-06
1.199956215e-11
1.98637518e-13
9.498070209e-06
1.2148051e-11
-1.064321298e-12
9.498061733e-06
1.104656145e-11
-1.941868787e-12
9.498055649e-06
8.045211948e-12
-1.171416293e-12
9.498048919e-06
6.539494416e-12
-1.495644254e-12
9.498044274e-06
3.494279054e-12
-2.959824657e-12
9.498042745e-06
4.044027019e-12
-2.519994626e-12
9.49804165e-06
3.853353084e-12
-2.74794171e-12
9.498038713e-06
6.491070749e-12
-3.162311936e-12
6.60662586e-12
-1.619405149e-12
9.498344601e-06
-1.203683257e-09
1.513371259e-10
9.498192868e-06
1.371692601e-10
-1.702783938e-12
9.498139267e-06
1.632135607e-11
9.426474343e-12
9.498105792e-06
3.22075004e-11
4.158666265e-12
9.498082163e-06
3.827671406e-11
-2.401413258e-13
9.49806563e-06
2.874075978e-11
-1.939795235e-12
9.498059298e-06
2.378846834e-11
-2.735575263e-12
9.498055802e-06
1.691889597e-11
-3.053325003e-12
9.498056756e-06
1.218081414e-11
-3.015803664e-12
9.49805732e-06
8.820490281e-12
-1.636357591e-12
9.498058522e-06
5.92557271e-12
-2.701046126e-12
9.498059824e-06
5.187185168e-12
-1.948317364e-12
9.498062469e-06
6.781884703e-12
-2.339838813e-12
9.498062322e-06
8.338272955e-12
-2.142228085e-12
8.735485801e-12
-1.844051296e-12
9.49891751e-06
-3.279196054e-09
4.597516305e-10
9.498314144e-06
8.332947872e-10
-4.777921948e-11
9.498080598e-06
2.592199896e-10
-4.656919413e-12
9.49800394e-06
1.352251907e-10
-1.302479323e-11
9.497985212e-06
8.449845853e-11
-1.31324896e-11
9.497990129e-06
4.496931926e-11
-8.831578126e-12
9.498000566e-06
2.409969315e-11
-7.018638647e-12
9.498013994e-06
1.468601888e-11
-5.22424268e-12
9.498027295e-06
8.552933053e-12
-3.651003765e-12
9.498036122e-06
5.36938785e-12
-2.560079472e-12
9.498045044e-06
5.165500134e-12
-1.743685204e-12
9.498055177e-06
5.599568506e-12
-1.356099898e-12
9.498061819e-06
5.192927847e-12
-2.715166052e-12
9.498067267e-06
6.857084083e-12
-3.700446584e-12
7.878335172e-12
-1.327173998e-12
9.499200003e-06
8.28331399e-10
9.497721525e-06
3.161851726e-09
-4.188122185e-10
9.497725791e-06
2.035159011e-10
2.747463413e-11
9.497823018e-06
6.726685853e-11
-1.676927591e-11
9.4979055e-06
5.670702389e-11
-2.183426157e-11
9.497957661e-06
2.022679003e-11
-1.143006202e-11
9.497994603e-06
6.845508158e-12
-7.635796213e-12
9.498017998e-06
1.649372854e-12
-5.157774334e-12
9.498036202e-06
4.68229437e-13
-2.282712232e-12
9.498045966e-06
-8.299845558e-13
-1.180973429e-12
9.498052523e-06
-5.616917983e-13
-1.450214597e-12
9.498059516e-06
-8.092322593e-13
-2.697550325e-12
9.498066917e-06
-9.933202776e-14
-3.053480541e-12
9.498075605e-06
1.793485493e-12
-3.585187992e-12
6.522923927e-13
-2.518728528e-12
9.536514744e-06
-3.15770086e-09
-3.159631123e-09
9.53735788e-06
-2.02093182e-10
-2.032272122e-10
9.537658901e-06
-6.647676035e-11
-6.90696008e-11
9.537910344e-06
-5.432973914e-11
-5.545655151e-11
9.538018527e-06
-1.848840668e-11
-1.996152974e-11
9.53807195e-06
-6.027153222e-12
-6.507349601e-12
9.538107451e-06
-1.936799786e-13
-1.330065559e-12
9.538134448e-06
9.598288023e-13
-9.266199502e-14
9.538163385e-06
-1.649165383e-13
-1.399334357e-13
9.538190749e-06
-3.3094099e-13
1.5040404e-13
9.538221002e-06
1.691856405e-13
-1.692521873e-12
9.538250612e-06
-1.211930274e-12
-2.257193787e-12
9.538286725e-06
-2.990666589e-12
-2.647802254e-12
-9.146957929e-13
-2.656237123e-13
9.497756286e-06
-8.337649417e-10
-4.206068217e-10
9.497762009e-06
-2.570548358e-10
2.709443228e-11
9.497860752e-06
-1.343924196e-10
-1.734342944e-11
9.497941261e-06
-8.509759551e-11
-2.45884558e-11
9.497994264e-06
-4.504353723e-11
-1.426178934e-11
9.498031698e-06
-2.511335989e-11
-9.230505957e-12
9.498053607e-06
-1.437076539e-11
-5.192815003e-12
9.498068958e-06
-8.011183358e-12
-1.82454758e-12
9.498082847e-06
-5.074264154e-12
3.201493671e-13
9.498089637e-06
-4.117892939e-12
-3.471988226e-13
9.498097898e-06
-4.3400049e-12
-1.542854298e-13
9.498106606e-06
-4.044261708e-12
-5.475432648e-13
9.498114849e-06
-7.335530635e-12
-2.084302035e-12
-7.209088111e-12
-2.783386515e-12
9.498276845e-06
-1.394267915e-10
-4.987945367e-11
9.498042813e-06
-1.528512556e-11
-4.404410592e-12
9.49796866e-06
-2.851584749e-11
-1.38002341e-11
9.497945561e-06
-3.729716452e-11
-1.451759337e-11
9.497951285e-06
-2.91268835e-11
-9.911105608e-12
9.49796477e-06
-2.331459149e-11
-7.498886347e-12
9.497979973e-06
-1.721876162e-11
-5.373934187e-12
9.497990947e-06
-1.561674587e-11
-4.014470475e-12
9.498002697e-06
-1.092971998e-11
-2.145101252e-12
9.498012105e-06
-8.631012913e-12
-2.58627351e-13
9.498021282e-06
-5.4299325e-12
3.062747569e-14
9.498026289e-06
-4.691142852e-12
-1.063020095e-12
9.498036725e-06
-6.597934864e-12
-8.422323589e-13
-8.964715001e-12
-1.491218396e-12
9.498170578e-06
1.952965793e-11
-2.880144361e-12
9.498115409e-06
2.495161279e-11
8.130274233e-12
9.498079284e-06
1.769013004e-13
1.16014799e-12
9.498056835e-06
-1.07867271e-11
-2.031897495e-12
9.498043672e-06
-1.286746367e-11
-2.249890345e-12
9.498038368e-06
-1.054523037e-11
-2.232025843e-12
9.498033768e-06
-9.954819195e-12
-1.990711293e-12
9.498034197e-06
-8.226332976e-12
-4.880220455e-13
9.498035256e-06
-5.901818299e-12
9.954789847e-14
9.498038039e-06
-5.251587293e-12
2.813683591e-13
9.498040094e-06
-4.951855414e-12
-5.862794976e-13
9.49804087e-06
-5.567090554e-12
-2.599023809e-12
9.498044908e-06
-5.197838031e-12
-2.248032566e-12
-5.331106367e-12
-8.26902284e-13
9.498062568e-06
1.401617214e-11
9.498062753e-06
9.026896932e-12
9.498052902e-06
4.429766146e-12
9.498041469e-06
3.108869179e-12
9.498032844e-06
2.92249461e-12
9.498020357e-06
2.344992181e-13
9.498010147e-06
-5.230180149e-13
9.498005637e-06
-4.302939702e-13
9.498001053e-06
7.033523798e-13
9.497998665e-06
-8.064944071e-13
9.497995825e-06
-5.509847119e-13
9.497995042e-06
-9.462969267e-13
9.497992683e-06
-2.501877907e-12
-2.00482013e-12