/*--------------------------------*- C++ -*----------------------------------*\
| =========                 |                                                 |
| \\      /  F ield         | OpenFOAM: The Open Source CFD Toolbox           |
|  \\    /   O peration     | Version:  4.x                                   |
|   \\  /    A nd           | Web:      www.OpenFOAM.org                      |
|    \\/     M anipulation  |                                                 |
\*---------------------------------------------------------------------------*/
FoamFile
{
    version     2.0;
    format      ascii;
    class       volScalarField;
    location    "6000";
    object      rho;
}
// * * * * * * * * * * * * * * * * * * * * * * * * * * * * * * * * * * * * * //

dimensions      [1 -3 0 0 0 0 0];

internalField   nonuniform List<scalar> 
1174
(
0.2797547758
0.2797550561
0.2797555045
0.2797560588
0.2797567697
0.2797575842
0.2797584772
0.2797594343
0.2797604715
0.279761518
0.2797625594
0.2797635394
0.2797644892
0.2797652444
0.279754896
0.2797554045
0.2797560507
0.2797568584
0.2797577993
0.2797588706
0.2797599423
0.2797610434
0.2797621666
0.279763222
0.279764221
0.2797652084
0.2797660967
0.2797667776
0.2797562443
0.2797571259
0.2797582603
0.2797594919
0.2797608259
0.2797621408
0.2797634517
0.279764717
0.279765894
0.2797669578
0.2797679556
0.2797688717
0.279769615
0.279770187
0.2797570428
0.2797584146
0.2797600019
0.2797616599
0.2797633306
0.2797649174
0.2797663753
0.2797676983
0.2797688767
0.2797699062
0.2797708465
0.2797716
0.2797722486
0.2797727147
0.2797564392
0.2797580749
0.2797598041
0.2797616373
0.279763416
0.279765001
0.2797665024
0.2797678291
0.2797689342
0.2797699221
0.2797707444
0.2797714451
0.2797720238
0.2797723943
0.279755851
0.2797572209
0.2797588134
0.2797604813
0.2797621544
0.2797637064
0.279765201
0.2797665138
0.2797676858
0.2797686923
0.2797695734
0.2797703818
0.2797709893
0.2797714369
0.2797561125
0.2797569872
0.2797580644
0.2797593121
0.2797606321
0.2797619443
0.2797632893
0.2797645123
0.2797657082
0.2797667839
0.2797677988
0.2797687118
0.2797695022
0.2797700998
0.2797549968
0.2797555031
0.2797561563
0.2797569648
0.2797579274
0.2797589598
0.2797600142
0.2797611246
0.2797622302
0.2797632875
0.279764316
0.2797652621
0.2797661626
0.2797668642
0.2797540041
0.2797543284
0.2797547772
0.2797553451
0.2797560579
0.2797568747
0.2797577989
0.2797587986
0.2797598224
0.2797608608
0.2797619064
0.2797629421
0.2797638516
0.279764563
0.2797548563
0.2797551856
0.2797557607
0.2797563749
0.2797572143
0.2797581537
0.2797591997
0.2797602688
0.2797613528
0.2797624537
0.2797635042
0.2797645279
0.2797654837
0.2797663429
0.2797670222
0.2797550733
0.2797559488
0.279757019
0.2797581899
0.2797594683
0.2797607531
0.2797619983
0.2797631666
0.2797642773
0.2797653358
0.2797662871
0.2797671426
0.279767867
0.2797684278
0.2797566154
0.2797582967
0.2797602051
0.2797620705
0.2797637832
0.2797653354
0.2797667149
0.2797678478
0.2797688529
0.2797696912
0.279770327
0.2797709028
0.2797714143
0.2797717518
0.2797610014
0.2797638702
0.2797665711
0.27976892
0.2797708819
0.2797724261
0.2797736194
0.2797745019
0.2797751692
0.2797756412
0.2797759751
0.2797762599
0.2797764349
0.2797764857
0.2797634823
0.2797669324
0.2797698607
0.279772174
0.2797739228
0.2797752401
0.279776165
0.279776772
0.2797772087
0.2797774247
0.279777561
0.2797776566
0.2797776286
0.279777593
0.2797612009
0.2797640613
0.2797667227
0.2797690997
0.2797710407
0.2797725731
0.2797738085
0.2797746998
0.2797753601
0.2797758137
0.2797761386
0.2797763408
0.279776506
0.2797765957
0.2797561021
0.2797578501
0.2797597046
0.2797615419
0.2797632992
0.2797648717
0.2797662597
0.2797674171
0.2797684302
0.2797692287
0.2797699357
0.2797705692
0.2797710555
0.2797713956
0.2797564147
0.2797572705
0.2797583805
0.2797595574
0.2797608263
0.2797621185
0.2797633304
0.2797645373
0.2797656305
0.2797666723
0.2797676126
0.2797684598
0.2797692357
0.2797697881
0.2797535185
0.2797539937
0.2797546259
0.2797553933
0.2797563447
0.279757391
0.279758457
0.2797595669
0.2797606841
0.2797617625
0.2797627794
0.2797637406
0.2797646009
0.279765303
0.2797552144
0.2797558385
0.2797567087
0.2797577928
0.2797590724
0.2797603899
0.2797617454
0.2797630538
0.2797642958
0.2797654935
0.2797665801
0.2797675794
0.2797684746
0.2797692458
0.2797698456
0.2797560158
0.2797574182
0.2797591259
0.2797609922
0.2797628547
0.2797646187
0.2797661737
0.2797675555
0.2797688072
0.2797697867
0.2797706098
0.2797713538
0.2797719391
0.2797724085
0.27977279
0.2797622356
0.2797658507
0.2797691843
0.2797718506
0.2797738917
0.2797753614
0.2797763742
0.2797769825
0.2797773157
0.2797774591
0.279777502
0.2797774327
0.2797773578
0.2797773022
0.2797729621
0.2797790731
0.2797833135
0.2797857816
0.2797869604
0.2797872351
0.2797869466
0.2797863096
0.2797854875
0.2797846046
0.2797836441
0.2797828158
0.2797820619
0.2797814187
0.2797890312
0.2797951357
0.2797978045
0.2797982812
0.2797975099
0.2797961519
0.2797945091
0.2797928129
0.2797911544
0.2797895844
0.279788177
0.2797869186
0.2797858308
0.2797850254
0.2797731201
0.2797792888
0.279783523
0.2797860238
0.2797871972
0.2797874933
0.2797871716
0.2797865286
0.2797857368
0.2797848873
0.2797840213
0.2797832132
0.2797824065
0.2797818495
0.2797628194
0.2797664371
0.2797697136
0.279772385
0.2797744488
0.2797759008
0.279776896
0.2797775316
0.2797778684
0.2797780703
0.2797781062
0.2797780435
0.2797779486
0.2797778279
0.2797557091
0.2797574418
0.2797592671
0.2797611182
0.2797628926
0.279764467
0.2797658433
0.2797670522
0.2797680271
0.2797688832
0.2797696395
0.2797702259
0.2797707024
0.2797710442
0.2797566951
0.2797575711
0.2797586679
0.2797599293
0.2797612461
0.2797625909
0.2797639073
0.2797651695
0.2797663399
0.2797674213
0.2797684174
0.2797693304
0.2797700816
0.27977069
0.2797555952
0.2797566662
0.279758045
0.279759617
0.2797612974
0.2797629479
0.2797645223
0.2797659731
0.2797673174
0.2797684845
0.2797695217
0.2797704219
0.2797711783
0.2797718089
0.2797722621
0.2797567321
0.2797593608
0.2797622396
0.2797649424
0.2797673012
0.2797692795
0.2797708728
0.2797720922
0.2797729286
0.2797736249
0.2797740732
0.2797744589
0.2797746937
0.2797748558
0.2797749536
0.279766103
0.2797736057
0.2797797684
0.2797839898
0.2797864588
0.2797876839
0.2797879378
0.2797876259
0.2797869855
0.2797861449
0.2797852487
0.2797843209
0.2797834879
0.2797827466
0.2797821594
0.2798103213
0.2798180729
0.2798193889
0.2798172014
0.2798134177
0.2798091564
0.2798049935
0.2798011126
0.2797977391
0.2797947489
0.2797921413
0.2797898711
0.2797879827
0.2797866374
0.2798856697
0.279876054
0.2798612065
0.2798469343
0.2798348131
0.2798249292
0.2798169269
0.2798105123
0.2798052456
0.279800919
0.2797973448
0.2797943498
0.2797919616
0.2797901825
0.27981207
0.2798198273
0.2798210944
0.2798188905
0.2798151561
0.2798108656
0.2798066883
0.2798028869
0.2797994851
0.2797965288
0.2797939067
0.2797916992
0.2797898403
0.2797884962
0.2797727263
0.2797788377
0.2797830657
0.2797855818
0.2797867584
0.279787016
0.2797866927
0.2797860394
0.2797852618
0.2797842978
0.2797834208
0.2797825468
0.2797818099
0.2797812633
0.2797605934
0.2797634545
0.2797661529
0.2797685188
0.2797704523
0.2797720074
0.2797731699
0.2797740491
0.2797747353
0.2797752465
0.2797755884
0.2797758247
0.2797759544
0.2797760268
0.2797571064
0.2797584893
0.279760098
0.2797617579
0.279763421
0.2797649986
0.2797664758
0.2797677826
0.2797689566
0.2797699579
0.2797708182
0.2797715951
0.2797722122
0.2797727026
0.2797559379
0.2797572586
0.2797589069
0.2797607328
0.2797625424
0.2797643173
0.2797658936
0.2797673788
0.2797687094
0.2797698079
0.279770808
0.2797715866
0.279772257
0.2797728194
0.2797732265
0.2797601777
0.2797638106
0.2797672152
0.2797701116
0.2797724568
0.2797742217
0.2797755175
0.279776433
0.2797770527
0.2797774925
0.2797777644
0.2797778775
0.2797779145
0.2797779301
0.2797779144
0.2797773993
0.2797882416
0.2797943356
0.2797969824
0.279797439
0.2797966665
0.2797952962
0.2797936805
0.2797919859
0.2797903431
0.2797887911
0.2797873653
0.2797860874
0.2797849876
0.2797841349
0.279872132
0.2798854471
0.2798758611
0.2798610039
0.279846732
0.2798346231
0.279824756
0.2798167524
0.2798103308
0.2798050981
0.2798007813
0.2797971774
0.2797942019
0.2797917368
0.2797899872
0.2813822113
0.2812192893
0.2811294663
0.2810771554
0.2810450723
0.2810243182
0.2810103051
0.2810004325
0.2809932264
0.2809878604
0.2809838311
0.2809807453
0.2809784464
0.280977026
0.2798865606
0.2798769475
0.2798620825
0.2798478681
0.2798357244
0.2798258319
0.2798178527
0.2798113898
0.2798061063
0.2798018349
0.2797982358
0.279795259
0.2797928562
0.279791125
0.2797871967
0.2797933177
0.2797959069
0.2797963598
0.279795592
0.2797942153
0.2797926001
0.2797909436
0.279789322
0.279787762
0.2797863327
0.2797850816
0.279783966
0.2797831712
0.2797631404
0.2797665915
0.2797694924
0.2797718458
0.2797736064
0.2797748839
0.2797757888
0.279776421
0.2797768258
0.2797770712
0.2797771881
0.2797772377
0.2797772547
0.2797772687
0.2797558095
0.279757455
0.2797592553
0.2797610785
0.2797628318
0.2797644482
0.2797659107
0.2797672137
0.2797683386
0.279769333
0.2797701818
0.2797708612
0.2797714342
0.2797717976
0.2797549901
0.2797560724
0.2797574333
0.2797589891
0.2797606928
0.2797623764
0.2797639609
0.2797654143
0.2797667021
0.2797678766
0.2797688883
0.2797697954
0.2797705764
0.2797712245
0.2797716958
0.2797582197
0.2797608698
0.2797637245
0.2797663879
0.2797687314
0.2797707179
0.2797722904
0.279773461
0.2797743495
0.2797750345
0.2797755124
0.279775896
0.2797760906
0.2797762167
0.279776339
0.2797652312
0.2797726584
0.2797787503
0.2797829821
0.2797854713
0.2797866838
0.2797869238
0.2797866311
0.2797860205
0.2797852281
0.2797843107
0.2797834044
0.2797825953
0.2797817785
0.2797811535
0.2797946824
0.2798120335
0.2798197806
0.2798210511
0.2798188654
0.2798151059
0.2798108311
0.2798066328
0.2798028173
0.2797994162
0.2797964562
0.2797938649
0.279791648
0.2797898039
0.2797884056
0.2798722572
0.279885522
0.279875866
0.2798610093
0.2798467447
0.2798345736
0.2798247314
0.2798167131
0.2798102532
0.2798050307
0.2798007101
0.2797971535
0.2797942355
0.2797917984
0.2797900326
0.2797929268
0.2798102883
0.2798180879
0.2798193791
0.2798172123
0.2798134531
0.2798092175
0.2798050235
0.2798011935
0.2797977716
0.2797948287
0.2797922415
0.2797899953
0.2797881261
0.2797867809
0.2797746842
0.2797807838
0.2797849973
0.2797875301
0.2797887502
0.2797890248
0.279788702
0.2797880654
0.2797872203
0.279786332
0.2797853826
0.2797845056
0.2797837411
0.2797831216
0.2797597168
0.27976257
0.2797652728
0.2797676369
0.2797695867
0.2797711599
0.2797723563
0.2797732829
0.2797739619
0.2797744545
0.2797747991
0.2797750129
0.2797751647
0.2797752696
0.2797559141
0.2797573232
0.2797588857
0.2797605682
0.2797622471
0.2797638471
0.2797653285
0.279766665
0.2797678466
0.2797688636
0.2797696982
0.2797704942
0.2797711014
0.2797715842
0.2797546015
0.2797552021
0.279756072
0.2797571746
0.2797584203
0.2797597686
0.2797610983
0.2797623971
0.2797636494
0.2797648516
0.279765889
0.2797669178
0.2797677652
0.2797685697
0.279769143
0.2797552217
0.2797565734
0.2797582316
0.279760122
0.2797619989
0.2797636793
0.2797652333
0.279766612
0.2797677969
0.2797687983
0.2797696219
0.2797703179
0.2797709723
0.2797714415
0.2797717423
0.2797588674
0.2797623444
0.2797659631
0.2797692805
0.279771979
0.2797740016
0.2797754439
0.2797764294
0.2797770229
0.2797773206
0.2797774696
0.2797774619
0.2797773744
0.2797773156
0.2797771985
0.2797649445
0.2797724244
0.2797785594
0.2797828021
0.2797852705
0.2797864301
0.2797866959
0.2797863932
0.2797857769
0.2797849418
0.2797840118
0.2797830912
0.2797822089
0.2797814205
0.279780823
0.2797779613
0.2797888519
0.2797949557
0.279797555
0.279798019
0.27979725
0.2797958694
0.2797942557
0.2797925532
0.2797909087
0.2797893181
0.2797878783
0.279786571
0.2797854555
0.2797845792
0.2797659112
0.2797733884
0.2797795408
0.279783781
0.2797862745
0.2797874739
0.2797877229
0.2797874356
0.279786802
0.2797859475
0.2797850597
0.2797841788
0.2797833135
0.279782576
0.2797819807
0.2797580004
0.2797614546
0.2797650362
0.2797683436
0.2797709879
0.2797730184
0.2797744801
0.2797754999
0.2797761027
0.2797764474
0.2797766136
0.2797766913
0.2797766537
0.2797765912
0.279776492
0.2797580553
0.2797597355
0.2797616168
0.2797635145
0.2797652672
0.2797668244
0.2797681712
0.2797693665
0.2797704014
0.279771196
0.279771922
0.2797725845
0.2797730638
0.2797734136
0.2797558086
0.2797567108
0.2797578077
0.2797590263
0.279760384
0.2797617331
0.2797630416
0.2797643302
0.2797655004
0.2797665604
0.2797675742
0.2797684208
0.2797691887
0.2797697426
0.2797552156
0.2797555442
0.279756031
0.2797566816
0.2797575
0.2797584295
0.2797594818
0.2797605575
0.2797616323
0.2797627577
0.2797638582
0.2797649235
0.279765857
0.2797667544
0.2797674236
0.2797559672
0.2797566023
0.279757497
0.2797585898
0.2797597289
0.279761009
0.279762297
0.2797635559
0.2797647522
0.2797658503
0.2797668683
0.279767818
0.2797687056
0.2797694475
0.2797700491
0.2797560066
0.2797573915
0.279759094
0.2797609655
0.2797628203
0.279764552
0.2797661582
0.2797675129
0.279768701
0.2797696901
0.2797705093
0.2797712331
0.2797718546
0.2797723104
0.279772632
0.2797578988
0.2797605144
0.2797633635
0.2797660771
0.2797684365
0.2797704127
0.2797719267
0.2797731763
0.2797740885
0.2797747708
0.2797752273
0.2797755575
0.2797758278
0.2797760026
0.2797761286
0.2797592763
0.2797629174
0.2797663444
0.2797693298
0.2797716053
0.2797733778
0.2797746936
0.2797756168
0.2797762563
0.2797766759
0.2797769495
0.2797771212
0.2797771565
0.2797771242
0.2797771052
0.2797583466
0.2797609478
0.2797637526
0.2797664616
0.2797688418
0.2797707399
0.2797723387
0.279773551
0.2797744798
0.2797751736
0.2797756614
0.2797759213
0.2797761659
0.2797763028
0.2797763773
0.2797561384
0.2797575118
0.2797592178
0.2797610779
0.2797629365
0.2797647142
0.2797662465
0.2797675796
0.279768772
0.2797697581
0.2797705506
0.2797712377
0.2797718356
0.2797723264
0.2797727139
0.2797555926
0.2797562126
0.2797571073
0.2797581637
0.2797593707
0.2797606123
0.2797618662
0.2797631163
0.279764348
0.2797654785
0.2797664875
0.27976743
0.2797682948
0.2797690137
0.2797694877
0.2797545402
0.2797550334
0.279755691
0.2797564714
0.2797574087
0.2797584362
0.2797595161
0.2797606189
0.2797617172
0.2797628099
0.2797638533
0.2797648671
0.2797657737
0.2797664726
0.2797540679
0.2797542514
0.2797545821
0.2797550019
0.2797555787
0.2797562674
0.2797570941
0.2797580143
0.2797589832
0.2797599731
0.2797609868
0.2797620554
0.2797630896
0.2797639703
0.2797647396
0.2797546229
0.2797549359
0.2797554586
0.2797561316
0.2797569285
0.279757854
0.2797588755
0.2797599295
0.2797610339
0.2797621151
0.279763205
0.2797641982
0.2797652117
0.2797661024
0.2797667975
0.2797544928
0.2797551739
0.2797560458
0.2797570871
0.2797583346
0.2797596593
0.2797610158
0.2797623516
0.2797636164
0.2797647784
0.2797658673
0.2797668778
0.279767719
0.2797684886
0.2797690513
0.2797572397
0.2797583264
0.2797596601
0.2797612549
0.2797629599
0.2797646513
0.2797662016
0.2797676859
0.2797689832
0.2797701696
0.2797711799
0.2797720475
0.2797728127
0.2797734726
0.2797739065
0.2797574035
0.2797587111
0.2797603686
0.2797621498
0.2797639679
0.2797657079
0.2797673457
0.2797688169
0.279770154
0.279771273
0.2797722215
0.2797730327
0.2797736963
0.2797743037
0.2797746915
0.2797562232
0.2797573071
0.2797586934
0.2797602818
0.2797619265
0.2797635915
0.27976515
0.2797665989
0.2797679403
0.2797690833
0.2797701367
0.2797710217
0.2797717917
0.2797724406
0.2797729248
0.279754796
0.2797554158
0.2797562965
0.2797573952
0.2797586559
0.2797599725
0.279761373
0.2797626807
0.279763973
0.2797651802
0.2797662382
0.2797672355
0.2797681005
0.2797688433
0.2797694197
0.2797550657
0.2797554146
0.2797559033
0.2797565531
0.27975739
0.2797583231
0.2797593565
0.2797604907
0.2797615963
0.2797627023
0.2797637793
0.2797648059
0.2797657834
0.2797666627
0.2797673441
0.2797545612
0.2797547359
0.2797550609
0.2797555244
0.2797560875
0.2797568019
0.2797576013
0.2797584906
0.279759464
0.2797604776
0.2797615193
0.2797625333
0.2797635186
0.2797644319
0.2797651761
)
;

boundaryField
{
    top
    {
        type            calculated;
        value           nonuniform List<scalar> 
127
(
0.2797545612
0.2797540041
0.2797535185
0.2797566951
0.2797571064
0.2797558095
0.2797559141
0.2797558086
0.2797545402
0.2797547359
0.2797543284
0.2797539937
0.2797575711
0.2797584893
0.279757455
0.2797573232
0.2797567108
0.2797550334
0.2797550609
0.2797547772
0.2797546259
0.2797586679
0.279760098
0.2797592553
0.2797588857
0.2797578077
0.279755691
0.2797555244
0.2797553451
0.2797553933
0.2797599293
0.2797617579
0.2797610785
0.2797605682
0.2797590263
0.2797564714
0.2797560875
0.2797560579
0.2797563447
0.2797612461
0.279763421
0.2797628318
0.2797622471
0.279760384
0.2797574087
0.2797568019
0.2797568747
0.279757391
0.2797625909
0.2797649986
0.2797644482
0.2797638471
0.2797617331
0.2797584362
0.2797576013
0.2797577989
0.279758457
0.2797639073
0.2797664758
0.2797659107
0.2797653285
0.2797630416
0.2797595161
0.2797584906
0.2797587986
0.2797595669
0.2797651695
0.2797677826
0.2797672137
0.279766665
0.2797643302
0.2797606189
0.279759464
0.2797598224
0.2797606841
0.2797663399
0.2797689566
0.2797683386
0.2797678466
0.2797655004
0.2797617172
0.2797604776
0.2797608608
0.2797617625
0.2797674213
0.2797699579
0.279769333
0.2797688636
0.2797665604
0.2797628099
0.2797615193
0.2797619064
0.2797627794
0.2797684174
0.2797708182
0.2797701818
0.2797696982
0.2797675742
0.2797638533
0.2797625333
0.2797629421
0.2797637406
0.2797693304
0.2797715951
0.2797708612
0.2797704942
0.2797684208
0.2797648671
0.2797635186
0.2797638516
0.2797646009
0.2797700816
0.2797722122
0.2797714342
0.2797711014
0.2797691887
0.2797657737
0.2797644319
0.279764563
0.279765303
0.27977069
0.2797727026
0.2797717976
0.2797715842
0.2797697426
0.2797664726
0.2797651761
)
;
    }
    bottom
    {
        type            calculated;
        value           nonuniform List<scalar> 
134
(
0.2797548563
0.2797552144
0.2797555952
0.2797559379
0.2797549901
0.2797546015
0.2797552156
0.2797540679
0.2797547758
0.2797551856
0.2797558385
0.2797566662
0.2797572586
0.2797560724
0.2797552021
0.2797555442
0.2797542514
0.2797550561
0.2797557607
0.2797567087
0.279758045
0.2797589069
0.2797574333
0.279756072
0.279756031
0.2797545821
0.2797555045
0.2797563749
0.2797577928
0.279759617
0.2797607328
0.2797589891
0.2797571746
0.2797566816
0.2797550019
0.2797560588
0.2797572143
0.2797590724
0.2797612974
0.2797625424
0.2797606928
0.2797584203
0.2797575
0.2797555787
0.2797567697
0.2797581537
0.2797603899
0.2797629479
0.2797643173
0.2797623764
0.2797597686
0.2797584295
0.2797562674
0.2797575842
0.2797591997
0.2797617454
0.2797645223
0.2797658936
0.2797639609
0.2797610983
0.2797594818
0.2797570941
0.2797584772
0.2797602688
0.2797630538
0.2797659731
0.2797673788
0.2797654143
0.2797623971
0.2797605575
0.2797580143
0.2797594343
0.2797613528
0.2797642958
0.2797673174
0.2797687094
0.2797667021
0.2797636494
0.2797616323
0.2797589832
0.2797604715
0.2797624537
0.2797654935
0.2797684845
0.2797698079
0.2797678766
0.2797648516
0.2797627577
0.2797599731
0.279761518
0.2797635042
0.2797665801
0.2797695217
0.279770808
0.2797688883
0.279765889
0.2797638582
0.2797609868
0.2797625594
0.2797645279
0.2797675794
0.2797704219
0.2797715866
0.2797697954
0.2797669178
0.2797649235
0.2797620554
0.2797635394
0.2797654837
0.2797684746
0.2797711783
0.279772257
0.2797705764
0.2797677652
0.279765857
0.2797630896
0.2797644892
0.2797663429
0.2797692458
0.2797718089
0.2797728194
0.2797712245
0.2797685697
0.2797667544
0.2797639703
0.2797652444
0.2797670222
0.2797698456
0.2797722621
0.2797732265
0.2797716958
0.279769143
0.2797674236
0.2797647396
)
;
    }
    side-walls
    {
        type            calculated;
        value           nonuniform List<scalar> 
261
(
0.2797547758
0.279754896
0.2797562443
0.2797570428
0.2797564392
0.279755851
0.2797561125
0.2797549968
0.2797540041
0.2797550561
0.2797554045
0.2797571259
0.2797584146
0.2797580749
0.2797572209
0.2797569872
0.2797555031
0.2797543284
0.2797555045
0.2797560507
0.2797582603
0.2797600019
0.2797598041
0.2797588134
0.2797580644
0.2797561563
0.2797547772
0.2797560588
0.2797568584
0.2797594919
0.2797616599
0.2797616373
0.2797604813
0.2797593121
0.2797569648
0.2797553451
0.2797567697
0.2797577993
0.2797608259
0.2797633306
0.279763416
0.2797621544
0.2797606321
0.2797579274
0.2797560579
0.2797575842
0.2797588706
0.2797621408
0.2797649174
0.279765001
0.2797637064
0.2797619443
0.2797589598
0.2797568747
0.2797584772
0.2797599423
0.2797634517
0.2797663753
0.2797665024
0.279765201
0.2797632893
0.2797600142
0.2797577989
0.2797594343
0.2797610434
0.279764717
0.2797676983
0.2797678291
0.2797665138
0.2797645123
0.2797611246
0.2797587986
0.2797604715
0.2797621666
0.279765894
0.2797688767
0.2797689342
0.2797676858
0.2797657082
0.2797622302
0.2797598224
0.279761518
0.279763222
0.2797669578
0.2797699062
0.2797699221
0.2797686923
0.2797667839
0.2797632875
0.2797608608
0.2797625594
0.279764221
0.2797679556
0.2797708465
0.2797707444
0.2797695734
0.2797677988
0.279764316
0.2797619064
0.2797635394
0.2797652084
0.2797688717
0.2797716
0.2797714451
0.2797703818
0.2797687118
0.2797652621
0.2797629421
0.2797644892
0.2797660967
0.279769615
0.2797722486
0.2797720238
0.2797709893
0.2797695022
0.2797661626
0.2797638516
0.2797652444
0.2797667776
0.279770187
0.2797727147
0.2797723943
0.2797714369
0.2797700998
0.2797668642
0.279764563
0.2797540679
0.2797546229
0.2797544928
0.2797572397
0.2797574035
0.2797562232
0.279754796
0.2797550657
0.2797545612
0.2797542514
0.2797549359
0.2797551739
0.2797583264
0.2797587111
0.2797573071
0.2797554158
0.2797554146
0.2797547359
0.2797545821
0.2797554586
0.2797560458
0.2797596601
0.2797603686
0.2797586934
0.2797562965
0.2797559033
0.2797550609
0.2797550019
0.2797561316
0.2797570871
0.2797612549
0.2797621498
0.2797602818
0.2797573952
0.2797565531
0.2797555244
0.2797555787
0.2797569285
0.2797583346
0.2797629599
0.2797639679
0.2797619265
0.2797586559
0.27975739
0.2797560875
0.2797562674
0.279757854
0.2797596593
0.2797646513
0.2797657079
0.2797635915
0.2797599725
0.2797583231
0.2797568019
0.2797570941
0.2797588755
0.2797610158
0.2797662016
0.2797673457
0.27976515
0.279761373
0.2797593565
0.2797576013
0.2797580143
0.2797599295
0.2797623516
0.2797676859
0.2797688169
0.2797665989
0.2797626807
0.2797604907
0.2797584906
0.2797589832
0.2797610339
0.2797636164
0.2797689832
0.279770154
0.2797679403
0.279763973
0.2797615963
0.279759464
0.2797599731
0.2797621151
0.2797647784
0.2797701696
0.279771273
0.2797690833
0.2797651802
0.2797627023
0.2797604776
0.2797609868
0.279763205
0.2797658673
0.2797711799
0.2797722215
0.2797701367
0.2797662382
0.2797637793
0.2797615193
0.2797620554
0.2797641982
0.2797668778
0.2797720475
0.2797730327
0.2797710217
0.2797672355
0.2797648059
0.2797625333
0.2797630896
0.2797652117
0.279767719
0.2797728127
0.2797736963
0.2797717917
0.2797681005
0.2797657834
0.2797635186
0.2797639703
0.2797661024
0.2797684886
0.2797734726
0.2797743037
0.2797724406
0.2797688433
0.2797666627
0.2797644319
0.2797647396
0.2797667975
0.2797690513
0.2797739065
0.2797746915
0.2797729248
0.2797694197
0.2797673441
0.2797651761
)
;
    }
    inlet
    {
        type            calculated;
        value           nonuniform 0();
    }
    outlet
    {
        type            calculated;
        value           nonuniform List<scalar> 
81
(
0.2797652444
0.2797667776
0.279770187
0.2797727147
0.2797723943
0.2797714369
0.2797700998
0.2797668642
0.279764563
0.2797670222
0.2797684278
0.2797717518
0.2797764857
0.279777593
0.2797765957
0.2797713956
0.2797697881
0.279765303
0.2797698456
0.27977279
0.2797773022
0.2797814187
0.2797850254
0.2797818495
0.2797778279
0.2797710442
0.27977069
0.2797722621
0.2797749536
0.2797821594
0.2797866374
0.2797901825
0.2797884962
0.2797812633
0.2797760268
0.2797727026
0.2797732265
0.2797779144
0.2797841349
0.2797899872
0.280977026
0.279791125
0.2797831712
0.2797772687
0.2797717976
0.2797716958
0.279776339
0.2797811535
0.2797884056
0.2797900326
0.2797867809
0.2797831216
0.2797752696
0.2797715842
0.279769143
0.2797717423
0.2797771985
0.279780823
0.2797845792
0.2797819807
0.279776492
0.2797734136
0.2797697426
0.2797674236
0.2797700491
0.279772632
0.2797761286
0.2797771052
0.2797763773
0.2797727139
0.2797694877
0.2797664726
0.2797647396
0.2797667975
0.2797690513
0.2797739065
0.2797746915
0.2797729248
0.2797694197
0.2797673441
0.2797651761
)
;
    }
    procBoundary1to0
    {
        type            processor;
        value           nonuniform List<scalar> 
97
(
0.2797545711
0.2797545711
0.2797545748
0.2797556228
0.2797559379
0.2797550623
0.2797547385
0.2797554761
0.2797546464
0.2797538032
0.2797546794
0.279754443
0.279754443
0.279754443
0.2797552375
0.2797583582
0.2797598618
0.279758562
0.2797547642
0.2797557826
0.279753169
0.2797548128
0.279755115
0.2797587861
0.2797587861
0.2797587861
0.279765503
0.2797781903
0.2797657027
0.2797593554
0.279754324
0.279756017
0.2797549077
0.2797547971
0.2797592173
0.2797929725
0.2797929725
0.2797929725
0.2798723733
0.2797947941
0.2797652642
0.2797579792
0.2797560603
0.2797550313
0.2797571236
0.2797629876
0.2797855148
0.2816948529
0.2816948529
0.2816948529
0.2798732642
0.2798732642
0.2797764095
0.2797595028
0.2797544744
0.27975427
0.2797563668
0.2797583247
0.2797691219
0.2797856259
0.2797673384
0.2797672347
0.2797672347
0.2797672347
0.279757097
0.2797548431
0.279754239
0.2797543124
0.2797562921
0.2797580599
0.279763523
0.2797590654
0.2797554071
0.2797566308
0.2797566308
0.2797566308
0.2797551987
0.2797550113
0.2797555918
0.2797551469
0.2797559561
0.2797562504
0.279756369
0.2797552205
0.2797551997
0.2797541622
0.2797541622
0.2797541622
0.2797539675
0.2797544027
0.279754162
0.2797566126
0.2797565032
0.2797554992
0.2797544017
0.2797548895
0.2797544297
)
;
    }
}


// ************************************************************************* //
