/*--------------------------------*- C++ -*----------------------------------*\
| =========                 |                                                 |
| \\      /  F ield         | OpenFOAM: The Open Source CFD Toolbox           |
|  \\    /   O peration     | Version:  4.x                                   |
|   \\  /    A nd           | Web:      www.OpenFOAM.org                      |
|    \\/     M anipulation  |                                                 |
\*---------------------------------------------------------------------------*/
FoamFile
{
    version     2.0;
    format      ascii;
    class       volScalarField;
    location    "6000";
    object      T;
}
// * * * * * * * * * * * * * * * * * * * * * * * * * * * * * * * * * * * * * //

dimensions      [0 0 0 1 0 0 0];

internalField   nonuniform List<scalar> 
1174
(
1223.149899
1223.150036
1223.15
1223.15009
1223.150057
1223.150065
1223.150129
1223.150203
1223.15011
1223.150053
1223.150002
1223.150099
1223.150029
1223.149938
1223.150656
1223.150621
1223.150712
1223.150757
1223.150758
1223.150578
1223.150632
1223.150656
1223.150565
1223.150659
1223.150814
1223.150764
1223.150755
1223.150769
1223.147598
1223.147619
1223.147458
1223.147524
1223.147502
1223.14766
1223.147723
1223.147725
1223.147756
1223.147875
1223.147853
1223.147745
1223.147887
1223.147927
1223.148271
1223.148303
1223.148289
1223.148355
1223.148334
1223.148341
1223.148385
1223.148392
1223.148374
1223.148363
1223.148137
1223.148165
1223.148095
1223.14806
1223.153889
1223.153952
1223.154265
1223.154227
1223.15413
1223.154324
1223.154189
1223.154068
1223.15417
1223.15408
1223.154069
1223.154007
1223.153924
1223.154046
1223.153482
1223.153522
1223.153485
1223.153508
1223.153476
1223.153635
1223.153518
1223.15357
1223.15358
1223.15367
1223.153702
1223.15349
1223.1536
1223.153645
1223.148175
1223.148226
1223.148314
1223.14831
1223.148349
1223.148518
1223.148433
1223.148619
1223.148568
1223.148634
1223.148536
1223.148442
1223.148378
1223.148306
1223.150216
1223.15019
1223.150249
1223.150291
1223.150197
1223.150187
1223.150316
1223.1503
1223.150286
1223.150371
1223.150397
1223.150527
1223.150464
1223.150389
1223.153273
1223.153217
1223.15318
1223.153211
1223.153169
1223.153166
1223.153094
1223.152982
1223.152947
1223.152926
1223.152855
1223.152709
1223.152815
1223.152915
1223.149354
1223.14939
1223.149064
1223.149294
1223.149201
1223.149209
1223.149139
1223.149204
1223.149303
1223.149309
1223.149424
1223.149472
1223.14956
1223.149678
1223.1497
1223.152779
1223.152802
1223.152821
1223.152965
1223.152921
1223.152892
1223.152899
1223.152987
1223.153001
1223.152882
1223.152859
1223.152869
1223.153001
1223.153043
1223.153337
1223.153483
1223.153294
1223.153258
1223.153381
1223.153439
1223.153389
1223.153566
1223.153523
1223.153523
1223.153823
1223.153885
1223.153768
1223.153817
1223.147158
1223.147104
1223.147177
1223.14729
1223.147284
1223.147332
1223.147353
1223.147439
1223.147433
1223.14748
1223.14752
1223.147318
1223.147251
1223.147446
1223.148599
1223.148556
1223.148502
1223.148504
1223.148542
1223.148422
1223.148389
1223.148488
1223.148385
1223.148544
1223.148543
1223.148359
1223.148478
1223.148525
1223.146286
1223.146268
1223.146513
1223.146504
1223.146589
1223.146689
1223.146526
1223.146572
1223.146597
1223.146724
1223.146804
1223.146962
1223.146938
1223.146964
1223.155581
1223.155436
1223.155482
1223.155568
1223.155496
1223.155464
1223.155377
1223.155448
1223.155369
1223.155543
1223.155531
1223.155341
1223.155335
1223.155372
1223.146913
1223.147022
1223.146867
1223.146986
1223.146983
1223.146921
1223.147073
1223.146993
1223.147083
1223.147037
1223.147061
1223.147107
1223.147015
1223.147093
1223.156679
1223.156789
1223.15694
1223.157162
1223.157117
1223.157045
1223.157124
1223.15711
1223.157045
1223.157038
1223.157114
1223.157179
1223.157291
1223.157214
1223.149317
1223.149373
1223.149443
1223.149501
1223.149358
1223.149408
1223.149389
1223.149463
1223.149566
1223.149507
1223.149526
1223.149498
1223.149481
1223.149501
1223.14942
1223.149909
1223.149827
1223.149858
1223.149853
1223.14983
1223.149729
1223.149773
1223.149713
1223.149372
1223.14944
1223.149507
1223.149334
1223.149354
1223.149421
1223.149278
1223.15037
1223.150417
1223.150208
1223.150335
1223.150389
1223.150388
1223.150287
1223.15034
1223.150413
1223.150486
1223.150438
1223.150524
1223.150443
1223.150273
1223.151616
1223.151729
1223.151714
1223.151875
1223.151881
1223.15185
1223.151745
1223.151682
1223.151666
1223.151616
1223.151895
1223.151773
1223.15168
1223.151893
1223.144544
1223.144601
1223.144443
1223.144412
1223.14452
1223.144483
1223.144529
1223.144528
1223.144563
1223.14466
1223.14461
1223.144528
1223.144424
1223.144309
1223.150923
1223.150784
1223.150796
1223.150814
1223.150844
1223.150719
1223.150758
1223.150723
1223.150574
1223.150378
1223.150244
1223.150034
1223.150171
1223.150008
1223.147816
1223.147852
1223.147892
1223.147997
1223.147951
1223.148028
1223.148003
1223.147936
1223.147994
1223.147811
1223.147793
1223.147851
1223.147857
1223.147971
1223.157299
1223.157221
1223.157394
1223.15742
1223.157274
1223.157234
1223.157197
1223.157042
1223.15713
1223.157053
1223.156826
1223.156841
1223.156877
1223.156907
1223.145627
1223.145673
1223.145675
1223.14561
1223.145664
1223.145691
1223.145729
1223.145745
1223.145805
1223.145846
1223.145831
1223.145736
1223.145843
1223.145724
1223.149953
1223.149917
1223.149919
1223.149972
1223.14994
1223.150006
1223.150068
1223.150143
1223.150058
1223.150089
1223.150044
1223.149993
1223.150008
1223.150017
1223.150038
1223.154345
1223.154331
1223.154233
1223.154297
1223.154367
1223.154289
1223.154123
1223.15403
1223.154316
1223.154184
1223.154335
1223.154149
1223.154164
1223.154154
1223.154144
1223.148897
1223.148801
1223.148688
1223.148756
1223.148913
1223.148718
1223.148777
1223.148775
1223.148727
1223.148792
1223.1488
1223.148936
1223.148834
1223.148686
1223.148655
1223.153624
1223.153673
1223.153643
1223.153609
1223.15369
1223.15378
1223.153793
1223.154013
1223.153833
1223.153824
1223.153868
1223.154014
1223.15405
1223.153925
1223.149396
1223.149337
1223.149227
1223.149179
1223.149062
1223.148922
1223.148922
1223.148698
1223.148728
1223.148778
1223.148799
1223.148922
1223.148739
1223.148876
1223.145973
1223.145999
1223.146183
1223.14622
1223.146086
1223.146304
1223.14638
1223.146253
1223.146197
1223.14604
1223.146147
1223.146019
1223.145927
1223.145796
1223.152646
1223.152755
1223.152794
1223.152745
1223.15276
1223.152803
1223.152849
1223.152859
1223.152648
1223.152952
1223.152866
1223.152944
1223.152777
1223.152569
1223.148942
1223.148921
1223.149004
1223.149042
1223.14916
1223.14916
1223.149315
1223.149414
1223.149326
1223.149201
1223.149207
1223.149215
1223.149347
1223.149447
1223.147993
1223.147976
1223.147868
1223.147926
1223.147937
1223.147984
1223.147943
1223.148021
1223.148022
1223.148134
1223.148256
1223.148182
1223.148249
1223.148108
1223.150184
1223.150306
1223.150313
1223.150204
1223.15027
1223.150189
1223.150421
1223.150357
1223.150219
1223.15035
1223.150207
1223.150387
1223.150457
1223.150445
1223.150407
1223.147195
1223.147163
1223.147319
1223.147403
1223.147267
1223.147235
1223.147209
1223.147216
1223.14726
1223.147143
1223.147059
1223.147159
1223.147231
1223.14716
1223.14712
1223.147975
1223.147993
1223.148097
1223.148035
1223.148092
1223.148205
1223.148222
1223.14815
1223.148143
1223.14811
1223.148128
1223.148158
1223.148161
1223.14811
1223.148201
1223.150414
1223.150362
1223.150175
1223.15011
1223.150061
1223.149891
1223.149678
1223.149684
1223.149491
1223.149373
1223.14938
1223.14953
1223.149569
1223.149721
1223.149729
1218.040095
1218.03613
1218.032073
1218.028408
1218.024712
1218.021262
1218.017733
1218.014299
1218.011008
1218.007667
1218.004129
1218.00064
1217.997128
1217.993744
1223.145502
1223.145424
1223.14539
1223.14509
1223.145072
1223.144969
1223.14487
1223.144857
1223.144961
1223.144771
1223.144899
1223.144944
1223.144824
1223.144752
1223.152563
1223.152546
1223.152733
1223.152806
1223.152897
1223.152942
1223.152868
1223.152694
1223.152568
1223.152621
1223.152667
1223.152553
1223.152571
1223.15241
1223.150094
1223.150046
1223.15011
1223.149937
1223.149922
1223.149976
1223.150029
1223.150018
1223.150053
1223.150085
1223.150168
1223.150185
1223.150107
1223.149937
1223.156642
1223.156662
1223.156663
1223.156669
1223.156682
1223.156739
1223.156773
1223.156755
1223.15677
1223.156651
1223.156524
1223.156555
1223.156496
1223.156649
1223.152599
1223.152514
1223.152592
1223.152716
1223.152583
1223.152505
1223.152522
1223.152585
1223.152746
1223.152745
1223.152812
1223.152731
1223.152638
1223.152571
1223.152512
1223.147841
1223.147733
1223.14774
1223.147976
1223.148113
1223.147999
1223.147924
1223.148044
1223.148103
1223.14802
1223.148041
1223.147864
1223.148055
1223.148202
1223.148086
1223.152706
1223.15294
1223.153136
1223.153159
1223.153227
1223.153087
1223.153207
1223.15312
1223.152943
1223.152797
1223.152897
1223.15294
1223.152734
1223.152916
1223.15305
1223.146063
1223.146127
1223.146198
1223.146369
1223.146328
1223.146303
1223.146453
1223.146621
1223.146556
1223.146497
1223.146356
1223.146329
1223.146242
1223.146086
1223.146191
1223.149865
1223.150032
1223.150145
1223.150076
1223.149997
1223.150099
1223.149778
1223.14985
1223.149824
1223.149662
1223.149687
1223.14963
1223.149419
1223.149448
1223.149528
1223.15374
1223.153756
1223.153595
1223.153674
1223.153549
1223.153523
1223.153502
1223.153652
1223.15365
1223.153683
1223.153467
1223.153423
1223.153464
1223.153417
1223.153291
1223.144087
1223.144246
1223.144347
1223.144224
1223.14405
1223.144018
1223.144062
1223.143998
1223.144083
1223.144056
1223.144287
1223.144378
1223.144331
1223.144441
1223.152775
1223.152788
1223.152851
1223.152897
1223.152943
1223.152864
1223.15287
1223.152762
1223.152705
1223.152662
1223.152655
1223.152762
1223.152797
1223.152756
1223.153206
1223.153075
1223.153168
1223.153127
1223.153069
1223.153018
1223.152958
1223.152906
1223.152874
1223.152917
1223.153151
1223.152993
1223.153104
1223.152995
1223.151997
1223.152155
1223.152226
1223.152204
1223.152208
1223.152124
1223.152217
1223.152333
1223.152391
1223.152312
1223.152546
1223.152388
1223.15258
1223.152454
1223.152489
1223.15338
1223.153519
1223.153767
1223.153656
1223.15357
1223.153834
1223.153883
1223.153836
1223.153786
1223.153758
1223.153823
1223.15386
1223.153578
1223.153646
1223.153855
1223.149993
1223.149891
1223.149923
1223.149784
1223.149771
1223.149905
1223.150023
1223.150042
1223.150159
1223.150388
1223.150436
1223.150609
1223.150775
1223.150624
1223.150723
1223.15396
1223.153963
1223.153969
1223.153944
1223.154103
1223.154193
1223.154201
1223.154157
1223.154005
1223.154046
1223.154201
1223.154307
1223.154421
1223.154478
1223.154492
1223.145518
1223.145323
1223.145381
1223.145525
1223.14555
1223.145647
1223.145709
1223.145629
1223.145656
1223.145631
1223.145818
1223.145909
1223.146041
1223.146059
1223.146254
1223.149733
1223.149747
1223.149677
1223.149662
1223.149711
1223.149628
1223.149708
1223.149598
1223.149521
1223.149646
1223.149618
1223.14955
1223.149589
1223.149424
1223.149429
1223.153785
1223.153782
1223.153975
1223.153879
1223.154102
1223.154201
1223.154234
1223.154102
1223.154179
1223.154202
1223.154174
1223.153975
1223.153922
1223.153787
1223.153807
1223.147041
1223.147192
1223.14712
1223.146943
1223.14689
1223.146925
1223.147017
1223.146921
1223.146747
1223.146937
1223.146843
1223.146526
1223.14655
1223.146544
1223.149503
1223.149434
1223.149436
1223.149558
1223.149432
1223.14944
1223.149513
1223.149412
1223.149473
1223.149607
1223.149515
1223.14971
1223.149744
1223.149863
1223.147783
1223.147822
1223.147881
1223.147953
1223.147951
1223.148001
1223.147904
1223.147941
1223.148079
1223.147979
1223.147875
1223.14774
1223.147925
1223.147876
1223.147942
1223.146067
1223.146093
1223.146032
1223.145952
1223.146235
1223.146184
1223.14614
1223.146088
1223.146053
1223.146121
1223.146179
1223.146162
1223.146032
1223.146088
1223.145951
1223.149948
1223.149942
1223.149996
1223.149968
1223.149978
1223.150017
1223.149839
1223.149896
1223.149832
1223.149858
1223.149942
1223.149857
1223.14972
1223.149846
1223.149964
1223.149243
1223.149286
1223.149317
1223.149334
1223.1494
1223.149331
1223.149511
1223.149286
1223.149241
1223.14917
1223.149284
1223.14934
1223.149201
1223.149135
1223.149002
1223.151136
1223.151067
1223.151124
1223.150819
1223.150986
1223.15092
1223.150806
1223.15078
1223.150737
1223.150708
1223.150616
1223.15046
1223.150539
1223.150677
1223.150651
1223.147286
1223.147391
1223.147616
1223.147652
1223.147628
1223.1479
1223.147709
1223.147646
1223.147529
1223.147407
1223.147385
1223.147748
1223.147721
1223.147821
1223.147912
1223.149372
1223.149416
1223.149455
1223.149476
1223.149469
1223.149307
1223.149451
1223.149602
1223.14952
1223.149559
1223.149759
1223.149835
1223.1498
1223.149773
1223.149603
1223.147705
1223.147797
1223.147736
1223.147815
1223.147801
1223.147918
1223.148022
1223.148007
1223.147818
1223.147745
1223.147842
1223.147856
1223.147825
1223.147981
1223.148402
1223.152212
1223.152243
1223.152284
1223.152448
1223.152465
1223.152475
1223.152492
1223.152509
1223.152526
1223.152456
1223.152417
1223.15225
1223.152161
1223.152096
1223.152119
1223.152192
1223.152108
1223.152198
1223.152189
1223.152252
1223.152207
1223.152152
1223.152174
1223.152287
1223.152374
1223.152203
1223.152063
1223.152296
1223.152142
1223.150374
1223.150482
1223.150384
1223.150357
1223.15045
1223.150518
1223.150554
1223.150686
1223.150695
1223.150787
1223.15073
1223.150911
1223.150746
1223.150726
1223.150679
1223.152472
1223.152278
1223.152341
1223.152586
1223.152582
1223.152601
1223.152577
1223.152531
1223.152534
1223.15263
1223.152639
1223.152561
1223.15278
1223.152807
1223.152887
1223.142762
1223.142659
1223.142856
1223.142809
1223.14267
1223.142557
1223.142724
1223.142652
1223.142771
1223.142718
1223.142791
1223.142881
1223.142857
1223.142738
1223.142843
1223.143776
1223.143955
1223.143922
1223.144007
1223.144035
1223.144106
1223.14407
1223.144066
1223.143899
1223.14394
1223.144022
1223.144059
1223.144158
1223.14395
1223.143997
1223.147207
1223.147115
1223.147083
1223.147063
1223.147187
1223.14719
1223.14732
1223.147403
1223.147329
1223.147466
1223.14735
1223.147364
1223.14732
1223.147248
1223.147133
1223.151146
1223.15122
1223.151244
1223.151238
1223.151177
1223.15123
1223.151014
1223.15109
1223.150973
1223.150873
1223.151016
1223.150995
1223.15111
1223.151253
1223.151274
1223.148438
1223.148388
1223.14844
1223.148514
1223.148431
1223.148466
1223.14845
1223.148231
1223.148235
1223.148219
1223.148217
1223.148251
1223.148244
1223.148273
1223.148286
1223.149962
1223.150073
1223.150014
1223.149913
1223.149964
1223.149915
1223.149988
1223.150068
1223.150071
1223.15008
1223.150044
1223.150111
1223.150185
1223.150274
1223.15023
)
;

boundaryField
{
    top
    {
        type            zeroGradient;
    }
    bottom
    {
        type            zeroGradient;
    }
    side-walls
    {
        type            zeroGradient;
    }
    inlet
    {
        type            zeroGradient;
    }
    outlet
    {
        type            zeroGradient;
    }
    procBoundary1to0
    {
        type            processor;
        value           nonuniform List<scalar> 
97
(
1223.149919
1223.149919
1223.150585
1223.147532
1223.148454
1223.154011
1223.153697
1223.148173
1223.150271
1223.153276
1223.149256
1223.152731
1223.152731
1223.152731
1223.153311
1223.147234
1223.148575
1223.146343
1223.15538
1223.146874
1223.156731
1223.149364
1223.149837
1223.15035
1223.15035
1223.15035
1223.151517
1223.144509
1223.150641
1223.147858
1223.157305
1223.145808
1223.149964
1223.154395
1223.148899
1223.15354
1223.15354
1223.15354
1223.149301
1223.145561
1223.152559
1223.148891
1223.147919
1223.15015
1223.147218
1223.14781
1223.153357
1218.039549
1218.039549
1218.039549
1223.14541
1223.14541
1223.152295
1223.150144
1223.156581
1223.152752
1223.147532
1223.152802
1223.145874
1223.152874
1223.15367
1223.143949
1223.143949
1223.143949
1223.152749
1223.15324
1223.151873
1223.153346
1223.149956
1223.15396
1223.145469
1223.149564
1223.153825
1223.147219
1223.147219
1223.147219
1223.149386
1223.147805
1223.145973
1223.149697
1223.149328
1223.151036
1223.147522
1223.149375
1223.147687
1223.152388
1223.152388
1223.152388
1223.152056
1223.150466
1223.15221
1223.14251
1223.143714
1223.147378
1223.151161
1223.148337
1223.150034
)
;
    }
}


// ************************************************************************* //
