/*--------------------------------*- C++ -*----------------------------------*\
| =========                 |                                                 |
| \\      /  F ield         | OpenFOAM: The Open Source CFD Toolbox           |
|  \\    /   O peration     | Version:  4.x                                   |
|   \\  /    A nd           | Web:      www.OpenFOAM.org                      |
|    \\/     M anipulation  |                                                 |
\*---------------------------------------------------------------------------*/
FoamFile
{
    version     2.0;
    format      ascii;
    class       volVectorField;
    location    "6000";
    object      U;
}
// * * * * * * * * * * * * * * * * * * * * * * * * * * * * * * * * * * * * * //

dimensions      [0 1 -1 0 0 0 0];

internalField   nonuniform List<vector> 
1174
(
(0.01100017688 -6.039587222e-09 -6.888490597e-09)
(0.01100018683 -5.933575351e-09 -6.874058456e-09)
(0.01100020513 -5.420793555e-09 -5.731388301e-09)
(0.01100020248 -2.99631249e-09 -3.994293288e-09)
(0.01100018921 -3.419786825e-09 -3.806712606e-09)
(0.0110001631 -1.550582109e-09 -2.641653365e-09)
(0.0110001304 -8.741150907e-10 -8.762268411e-10)
(0.01100009629 -1.062635643e-09 -4.270413298e-10)
(0.01100005234 1.111253008e-09 -1.071867895e-10)
(0.01100000815 -2.663064333e-10 6.020528115e-09)
(0.01099996169 1.487079241e-09 3.438454088e-09)
(0.01099991872 3.187978469e-09 4.475558146e-09)
(0.0109998772 2.283577321e-09 3.264278705e-09)
(0.01099983263 2.253616987e-09 3.295396329e-09)
(0.01100018472 -3.312698878e-08 -6.368830667e-09)
(0.01100018009 -3.185870712e-08 -9.847653163e-09)
(0.01100019153 -2.233662873e-08 -5.708257369e-09)
(0.01100017449 -1.630965449e-08 -4.511929549e-09)
(0.01100014878 -1.14708425e-08 -2.938212859e-09)
(0.01100011019 -6.709926812e-09 -1.916233389e-09)
(0.01100006603 -1.447983209e-09 -1.142339634e-09)
(0.01100002231 -5.02352959e-10 7.307681266e-10)
(0.01099997274 8.980806572e-10 2.338887392e-10)
(0.01099992665 3.033688693e-09 1.811130188e-09)
(0.01099988142 2.94383643e-09 2.480808468e-09)
(0.01099983461 3.799853859e-09 2.818479432e-09)
(0.01099979519 5.625727388e-09 3.082129154e-09)
(0.01099975853 6.448519398e-09 2.60933614e-09)
(0.01100020571 -2.499499145e-08 -1.547814372e-08)
(0.01100017177 -2.975660021e-08 -1.752098848e-08)
(0.01100016287 -2.227761561e-08 -1.021606177e-08)
(0.01100011886 -1.012228575e-08 -5.208872983e-09)
(0.01100006706 -7.393033611e-09 1.315713355e-09)
(0.01100000919 -3.698478644e-09 -1.32476611e-09)
(0.01099995025 8.164868535e-10 -7.694589297e-10)
(0.01099989352 2.051456054e-09 9.863965695e-10)
(0.01099984069 1.401376859e-09 2.911270056e-10)
(0.01099979125 8.003078828e-10 -6.048753298e-10)
(0.01099975017 2.35981006e-09 4.388568819e-10)
(0.01099970685 5.139220478e-09 -4.547503161e-10)
(0.01099967525 8.014765662e-09 2.041791759e-09)
(0.01099964306 8.002611813e-09 -7.45812151e-10)
(0.01100021348 -4.056367731e-08 9.333810702e-10)
(0.0110001245 -2.625434486e-08 -1.820986961e-08)
(0.01100009811 -1.09054907e-08 -8.564677811e-09)
(0.01100003051 -5.645213e-09 -1.111131451e-09)
(0.01099995981 -1.981336382e-09 -1.540093349e-10)
(0.01099988902 6.861380767e-10 1.501186758e-09)
(0.01099981875 1.260473966e-09 3.410696285e-09)
(0.01099975867 2.193579631e-09 3.794027928e-09)
(0.01099970563 6.38291118e-10 3.767810499e-09)
(0.01099966264 1.149685765e-09 3.941299532e-09)
(0.01099962115 1.037567521e-09 3.302885189e-09)
(0.01099958925 1.888274469e-09 2.265746877e-09)
(0.01099956165 5.457591511e-09 3.245965747e-09)
(0.01099953841 5.158117772e-09 2.967025483e-09)
(0.01100028863 5.637607876e-10 -2.940467974e-09)
(0.01100012659 9.27218365e-10 -1.452291318e-08)
(0.01100007309 2.303965621e-09 -4.543561888e-09)
(0.01099998561 2.935720662e-09 7.069196028e-10)
(0.01099990013 2.858914006e-09 2.816232768e-09)
(0.01099982637 2.772386106e-10 4.583879877e-09)
(0.01099975598 1.588807307e-10 2.98782854e-09)
(0.0109996964 -8.498780123e-10 8.974417203e-10)
(0.01099964408 8.25756308e-10 2.82598466e-09)
(0.01099960229 1.007155253e-10 5.119959018e-09)
(0.01099956972 9.147903496e-11 3.259885596e-09)
(0.01099954154 -8.229418149e-10 2.19631408e-09)
(0.01099951793 -8.609287846e-10 -1.162069375e-10)
(0.01099949851 7.022436164e-11 -1.407095305e-10)
(0.0110002159 4.20807066e-08 8.611734085e-10)
(0.01100012378 2.881629962e-08 -1.736540996e-08)
(0.01100009784 1.534232785e-08 -8.399585875e-09)
(0.01100003162 6.45600749e-09 -2.028716016e-09)
(0.01099995879 4.466853743e-09 1.176751718e-09)
(0.01099988806 1.390357834e-09 4.058751397e-09)
(0.01099981734 -1.837752513e-09 5.43914566e-09)
(0.01099975703 -3.041219382e-09 5.924901448e-09)
(0.01099970421 -3.012019085e-09 4.475092988e-09)
(0.01099966116 -3.393807771e-09 4.853563504e-09)
(0.01099962286 -3.578904476e-09 4.097043812e-09)
(0.01099958834 -2.484490175e-09 3.521524004e-09)
(0.01099956402 -4.692166962e-09 3.986351024e-09)
(0.01099954253 -5.23625658e-09 2.047099951e-09)
(0.01100020551 2.638142573e-08 -1.239301745e-08)
(0.01100017248 3.152054307e-08 -1.38577204e-08)
(0.01100016293 2.148903173e-08 -1.04607992e-08)
(0.01100011826 1.280876892e-08 -4.674555173e-09)
(0.0110000654 7.13490473e-09 -2.072950446e-09)
(0.01100000806 4.124981994e-09 1.305290867e-09)
(0.01099994698 7.196776979e-10 1.796766886e-09)
(0.01099989117 -1.147738804e-09 3.373877236e-09)
(0.01099984015 -3.349865313e-09 4.960402824e-09)
(0.01099979441 -5.696075508e-09 3.346928826e-09)
(0.01099975004 -4.645316664e-09 1.972230165e-09)
(0.01099971164 -5.054861405e-09 3.494356528e-09)
(0.01099967646 -6.670567955e-09 2.593522318e-09)
(0.0109996458 -5.11765405e-09 2.212685506e-09)
(0.01100018495 3.691900446e-08 -5.858989498e-09)
(0.01100017721 3.134075956e-08 -1.004428724e-08)
(0.01100018927 2.375658581e-08 -6.872401159e-09)
(0.01100017248 1.45485611e-08 -4.617927016e-09)
(0.01100014624 9.101098461e-09 -3.655775538e-09)
(0.01100010989 5.409852329e-09 -5.088699282e-10)
(0.01100006632 5.244806349e-10 -8.360767974e-10)
(0.01100002111 -5.636138724e-10 1.291655377e-09)
(0.01099997159 -2.558734568e-09 2.228603463e-09)
(0.01099992699 -2.441181378e-09 2.887260325e-09)
(0.01099988224 -5.528375841e-09 2.606300776e-09)
(0.01099983927 -5.441957951e-09 1.649368512e-09)
(0.0109997991 -6.441072214e-09 1.831472533e-09)
(0.01099975755 -6.028513058e-09 8.983273992e-11)
(0.01100017456 5.889622479e-09 -6.750371908e-09)
(0.01100018527 7.18060313e-09 -8.10374541e-09)
(0.01100020395 5.551389477e-09 -6.659881228e-09)
(0.01100019782 4.887056426e-09 -5.013410426e-09)
(0.01100018586 2.243899923e-09 -4.746824964e-09)
(0.01100016299 2.478152342e-09 -2.526428063e-09)
(0.0110001273 9.185661338e-10 -1.640247935e-09)
(0.01100009327 -1.785712565e-10 7.018249325e-10)
(0.01100004951 -1.234267114e-09 6.267966279e-10)
(0.01100000816 6.596949287e-10 -5.574221478e-10)
(0.010999963 4.521994053e-10 1.572318228e-09)
(0.01099991677 -9.5235059e-10 2.233664116e-09)
(0.01099987658 -1.772575582e-09 1.917331607e-09)
(0.01099983599 -2.531328846e-09 2.811348415e-09)
(0.01100011191 -2.362417606e-08 -6.505314406e-08)
(0.01100018719 -4.375245347e-09 -3.261109528e-08)
(0.01100017831 -8.809116015e-09 -3.126499263e-08)
(0.01100019101 -3.816443023e-09 -2.155145519e-08)
(0.01100017231 -2.639800305e-09 -1.373151276e-08)
(0.01100014857 -1.851543078e-09 -1.043111221e-08)
(0.01100011018 -1.600111928e-09 -4.760241422e-09)
(0.0110000668 5.172541954e-10 -1.825402505e-10)
(0.01100002264 1.089278768e-09 3.02510913e-10)
(0.01099997411 3.486033445e-09 2.611145439e-09)
(0.01099992822 9.791109514e-10 2.63643803e-09)
(0.01099987996 1.216330332e-09 4.323811976e-09)
(0.01099983516 1.91681919e-09 5.869546975e-09)
(0.01099979643 3.004904504e-09 6.899930928e-09)
(0.01099975771 3.199716609e-09 5.958383016e-09)
(0.01100019323 -4.039743597e-08 -4.105333471e-08)
(0.01100015649 -4.120358712e-08 -4.153680511e-08)
(0.01100015039 -2.700370162e-08 -2.731284999e-08)
(0.01100010974 -1.509330874e-08 -1.452397549e-08)
(0.0110000645 -8.997600109e-09 -8.308930912e-09)
(0.01100001063 -3.777839486e-09 -2.842092198e-09)
(0.01099995687 1.171199862e-10 1.214375646e-09)
(0.01099990656 3.985365313e-09 3.641996738e-09)
(0.01099985892 4.910362161e-09 6.415296072e-09)
(0.01099981019 5.207058466e-09 4.098489499e-09)
(0.01099976861 4.809121771e-09 5.690381706e-09)
(0.01099973128 6.144035567e-09 4.909823488e-09)
(0.01099969799 7.782323006e-09 7.251726744e-09)
(0.01099966809 7.271752357e-09 7.624807561e-09)
(0.01100021786 -1.731151505e-08 -7.559292081e-08)
(0.01100009895 -3.77556866e-08 -6.513846567e-08)
(0.01100005398 -2.289852558e-08 -3.124491516e-08)
(0.01099996408 -1.018031939e-08 -1.223486517e-08)
(0.01099988627 -2.319011947e-09 -2.120482305e-09)
(0.01099981369 1.855639584e-09 5.311801255e-09)
(0.01099974875 6.559667645e-09 9.292609799e-09)
(0.01099969661 5.63300573e-09 1.021119164e-08)
(0.01099965363 4.901531973e-09 1.059693193e-08)
(0.01099961765 5.550756923e-09 9.907409755e-09)
(0.01099958859 6.004002302e-09 9.922951339e-09)
(0.01099956768 6.13888988e-09 1.045729635e-08)
(0.01099954174 8.602673261e-09 9.310677689e-09)
(0.01099952946 8.596546989e-09 8.423025734e-09)
(0.01100017773 -3.064139136e-08 -4.999642013e-08)
(0.01099992113 -2.546314163e-08 -7.479625152e-08)
(0.01099984999 -6.913981287e-09 -2.576987522e-08)
(0.01099973412 2.952604548e-09 -2.330562742e-09)
(0.01099963925 5.94379499e-09 9.223773879e-09)
(0.01099956644 7.582470344e-09 1.320229093e-08)
(0.01099951095 5.735225366e-09 1.60056764e-08)
(0.01099947081 4.86872005e-09 1.458465192e-08)
(0.01099944487 3.894051784e-09 1.377116459e-08)
(0.01099942499 3.514583803e-09 1.248922344e-08)
(0.01099941337 4.124828852e-09 1.024970408e-08)
(0.01099940533 4.586773534e-09 1.044352255e-08)
(0.01099940086 6.421431312e-09 1.099748319e-08)
(0.0109993983 7.180012915e-09 9.446487197e-09)
(0.01100029729 1.13583642e-09 -4.236040773e-08)
(0.01099981921 1.462048292e-09 -4.582270607e-08)
(0.01099971206 4.939587899e-10 3.533425649e-09)
(0.01099958568 4.729478836e-10 2.440987417e-08)
(0.01099949617 2.429320562e-09 2.281897529e-08)
(0.01099943174 1.80242784e-09 2.125152305e-08)
(0.01099938982 9.083293131e-10 1.873280458e-08)
(0.01099936544 -2.917098688e-10 1.578512196e-08)
(0.01099934897 8.702878123e-11 1.305799888e-08)
(0.01099934465 -1.229648176e-09 1.144454459e-08)
(0.01099933932 -7.452319705e-10 1.216050537e-08)
(0.01099933921 -1.533783501e-09 8.496352868e-09)
(0.01099934259 -1.256199136e-09 9.807276706e-09)
(0.0109993475 -1.355055844e-09 9.800720452e-09)
(0.01100017482 3.156622883e-08 -4.893337994e-08)
(0.01099991968 2.770564989e-08 -7.26101981e-08)
(0.01099985118 9.349326815e-09 -2.821918119e-08)
(0.01099973309 -5.697044845e-10 -2.571036978e-09)
(0.01099964002 -3.095587186e-09 8.43052697e-09)
(0.01099956616 -4.947886456e-09 1.458731563e-08)
(0.01099950917 -5.637915996e-09 1.470071205e-08)
(0.0109994699 -5.133983609e-09 1.445395647e-08)
(0.01099944339 -5.710373653e-09 1.402147056e-08)
(0.01099942466 -5.623732815e-09 1.26294024e-08)
(0.01099941432 -5.480738889e-09 1.082843267e-08)
(0.01099940651 -4.012959956e-09 1.067157196e-08)
(0.01099940268 -5.323892799e-09 1.094062589e-08)
(0.0109994016 -5.038192491e-09 1.083334463e-08)
(0.01100021728 1.861970188e-08 -7.53364649e-08)
(0.01100009814 4.089572629e-08 -6.493698634e-08)
(0.01100005007 2.358750342e-08 -3.211357784e-08)
(0.01099996627 1.128297801e-08 -1.348535764e-08)
(0.01099988756 2.958947857e-09 -2.3785916e-09)
(0.0109998123 -1.653810775e-09 5.845106794e-09)
(0.0109997457 -4.663784516e-09 9.360288519e-09)
(0.01099969612 -6.416276363e-09 1.079360351e-08)
(0.01099965078 -6.191271218e-09 1.026334385e-08)
(0.01099961713 -7.38426225e-09 1.038756624e-08)
(0.01099959162 -6.552181248e-09 1.136180313e-08)
(0.01099956527 -7.612080904e-09 9.027123798e-09)
(0.0109995447 -1.013584156e-08 9.786552757e-09)
(0.01099953113 -8.879981915e-09 7.771384462e-09)
(0.01100019462 4.135961131e-08 -4.060878182e-08)
(0.01100015538 4.072144529e-08 -4.074216617e-08)
(0.01100014942 2.893654933e-08 -2.720468295e-08)
(0.01100011074 1.63548364e-08 -1.581194446e-08)
(0.01100006423 8.430577607e-09 -8.783609829e-09)
(0.01100000814 2.605859216e-09 -2.433606181e-09)
(0.01099995702 -2.319348132e-09 1.808514155e-09)
(0.01099990267 -3.713465273e-09 3.459782198e-09)
(0.0109998542 -4.74719821e-09 4.922625704e-09)
(0.01099981127 -6.141420837e-09 4.70378298e-09)
(0.0109997702 -7.39298672e-09 8.223233317e-09)
(0.01099973439 -7.240412382e-09 6.999215039e-09)
(0.01099970225 -7.988740282e-09 8.713589923e-09)
(0.01099967322 -6.393745855e-09 5.971490067e-09)
(0.01100018609 6.952828856e-09 -3.510808152e-08)
(0.01100018082 1.01219725e-08 -3.134747877e-08)
(0.01100019017 7.02622381e-09 -2.325801964e-08)
(0.01100017434 4.502522094e-09 -1.667283415e-08)
(0.01100014672 2.145863455e-09 -1.074375641e-08)
(0.01100010887 -4.618306854e-10 -5.844082479e-09)
(0.01100006581 -2.156303803e-09 -2.616012312e-09)
(0.01100002249 -1.448555991e-09 5.118822312e-10)
(0.01099997279 -1.570846097e-09 2.041705868e-09)
(0.01099992415 -1.626665767e-09 3.629408577e-09)
(0.01099988463 -9.833578801e-10 5.148371673e-09)
(0.01099983721 -7.141235886e-11 6.005946044e-09)
(0.01099980131 -1.678171254e-09 5.798783952e-09)
(0.01099976068 -5.477965369e-10 5.666515682e-09)
(0.01100010312 -5.235242566e-08 -7.867491703e-08)
(0.01100020634 -9.049615001e-09 -2.526829353e-08)
(0.01100017162 -1.503968866e-08 -2.994308625e-08)
(0.01100016508 -4.598487369e-09 -1.956346335e-08)
(0.01100011632 1.128075882e-09 -1.11992599e-08)
(0.01100006728 -3.905467337e-10 -6.144386518e-09)
(0.01100001213 2.219814632e-09 -2.943322254e-09)
(0.0109999495 2.728473509e-09 1.028606963e-09)
(0.01099989496 6.12363351e-09 4.497686816e-09)
(0.01099983934 6.06255249e-09 6.024495157e-09)
(0.01099979218 5.47760536e-09 5.847955146e-09)
(0.01099974711 5.637101996e-09 8.262046264e-09)
(0.01099970606 4.559101338e-09 7.019368434e-09)
(0.01099967259 5.430755667e-09 7.992396203e-09)
(0.01099963865 7.2358267e-09 8.431499669e-09)
(0.01100009375 -2.306669641e-07 -1.292586455e-07)
(0.01100021604 -7.319362877e-08 -1.768646833e-08)
(0.01100009578 -6.55128702e-08 -4.019125704e-08)
(0.01100005236 -3.2994283e-08 -2.244019001e-08)
(0.01099996406 -1.289157632e-08 -1.068275194e-08)
(0.0109998823 3.175562212e-10 -2.75330739e-09)
(0.01099981318 4.803085776e-09 2.701042766e-09)
(0.01099974929 8.814814772e-09 6.232263626e-09)
(0.010999697 1.005601554e-08 7.255324135e-09)
(0.01099965383 1.003514444e-08 6.959270693e-09)
(0.01099961718 7.474142238e-09 7.49500072e-09)
(0.01099958755 8.462849896e-09 6.704773077e-09)
(0.01099956221 8.842069733e-09 8.907866496e-09)
(0.01099954237 9.971210379e-09 9.730490193e-09)
(0.01099952439 9.387627289e-09 8.655062641e-09)
(0.01100021932 -3.452058929e-08 -3.637017477e-08)
(0.01099988226 -6.414294643e-08 -6.627625022e-08)
(0.01099974487 -2.02041407e-08 -2.180665449e-08)
(0.0109995888 2.11493396e-09 -4.684109896e-10)
(0.01099947887 1.03362351e-08 1.123302396e-08)
(0.01099940758 1.441402958e-08 1.634343939e-08)
(0.01099935707 1.477331599e-08 1.762260191e-08)
(0.01099933378 1.251483166e-08 1.254927131e-08)
(0.01099932127 1.036261212e-08 1.176616251e-08)
(0.01099931939 9.597541039e-09 8.341859502e-09)
(0.01099932335 8.390540749e-09 9.153539006e-09)
(0.01099932774 9.064736987e-09 9.756478222e-09)
(0.01099933381 1.039375658e-08 1.183465524e-08)
(0.01099934452 8.661588947e-09 1.048539521e-08)
(0.0109999361 -1.305390728e-08 9.212772197e-08)
(0.01099925577 -8.741352723e-09 -9.18989716e-08)
(0.01099911201 2.257540371e-08 -1.091859168e-08)
(0.01099895612 3.212353882e-08 2.115753637e-08)
(0.01099888898 2.556025899e-08 2.770197842e-08)
(0.01099887932 1.97941723e-08 2.833370543e-08)
(0.0109988971 1.495946806e-08 2.292183788e-08)
(0.01099893184 1.099012511e-08 1.565245557e-08)
(0.01099897504 6.93730133e-09 1.379696266e-08)
(0.01099901767 4.78961822e-09 9.367589544e-09)
(0.01099906332 4.430779e-09 1.064262977e-08)
(0.01099910519 2.870352149e-09 8.43645079e-09)
(0.01099914186 7.500631003e-09 1.05061348e-08)
(0.01099917711 7.500340129e-09 1.060722286e-08)
(0.01099999999 2.703995777e-10 4.759283434e-07)
(0.01099864686 1.395853524e-09 3.751387814e-10)
(0.01099855829 -6.422154073e-10 4.741248843e-08)
(0.0109984884 -1.556955806e-10 6.16615152e-08)
(0.01099850586 1.29740667e-09 4.55614837e-08)
(0.0109985764 1.32335348e-09 3.240381922e-08)
(0.01099865732 1.338212638e-09 2.207815818e-08)
(0.0109987393 -9.667646084e-10 1.484924492e-08)
(0.01099881751 -1.142902685e-09 1.172907143e-08)
(0.01099889051 9.051687681e-10 9.048563929e-09)
(0.0109989528 -5.992388858e-10 7.847573979e-09)
(0.01099901383 1.473070453e-09 8.145403986e-09)
(0.01099906446 4.594784067e-10 1.190737808e-08)
(0.0109991091 2.375751535e-09 1.037140517e-08)
(0.0109999376 1.625252106e-08 9.210613186e-08)
(0.01099925161 1.204455826e-08 -9.507582099e-08)
(0.01099911284 -2.069058864e-08 -1.051426112e-08)
(0.01099895767 -3.099560185e-08 2.150498875e-08)
(0.01099888895 -2.336473763e-08 2.588239034e-08)
(0.01099887919 -1.826282503e-08 2.528825111e-08)
(0.01099889656 -1.476765955e-08 2.19458401e-08)
(0.0109989324 -1.032848544e-08 1.67292199e-08)
(0.01099897474 -6.324973243e-09 1.337244661e-08)
(0.0109990173 -6.655607207e-09 1.120745375e-08)
(0.01099906438 -4.185718436e-09 1.047551741e-08)
(0.01099910271 -4.890162794e-09 9.55601065e-09)
(0.0109991416 -6.160478644e-09 1.301687423e-08)
(0.01099917583 -7.481143905e-09 1.24411292e-08)
(0.01100021914 3.58918422e-08 -3.294834595e-08)
(0.01099988324 6.635665586e-08 -6.697382387e-08)
(0.01099974607 2.376990518e-08 -2.229671523e-08)
(0.01099958906 7.31688236e-10 2.015926567e-09)
(0.01099947982 -1.092832323e-08 8.524385038e-09)
(0.01099940453 -1.360452312e-08 1.345502271e-08)
(0.01099935601 -1.484688876e-08 1.447670473e-08)
(0.01099933324 -1.281170798e-08 1.350921345e-08)
(0.01099932145 -1.292908446e-08 1.195286682e-08)
(0.01099931781 -1.211614424e-08 1.094093877e-08)
(0.01099932061 -1.045792322e-08 1.16333481e-08)
(0.01099932951 -9.657691065e-09 8.987616284e-09)
(0.01099933539 -1.17086204e-08 1.122916785e-08)
(0.01099934583 -1.138092909e-08 1.135799995e-08)
(0.01100021729 7.654225858e-08 -1.890382326e-08)
(0.01100009559 6.566249287e-08 -4.157296e-08)
(0.01100005201 3.351368319e-08 -2.330826622e-08)
(0.01099996434 1.295321326e-08 -1.165133065e-08)
(0.01099988365 1.591688521e-09 -4.271358351e-09)
(0.01099981034 -6.470565466e-09 4.149869402e-10)
(0.01099974864 -9.0709456e-09 6.337114278e-09)
(0.01099969477 -9.260901093e-09 5.856601241e-09)
(0.01099965165 -1.027215311e-08 5.660202568e-09)
(0.0109996177 -9.693988629e-09 9.015022682e-09)
(0.01099958698 -8.234172406e-09 7.491087279e-09)
(0.01099956217 -8.000955227e-09 9.046891534e-09)
(0.01099954421 -9.044840293e-09 9.613196633e-09)
(0.01099952692 -8.840059833e-09 9.011512838e-09)
(0.0110002046 1.177137942e-08 -2.634082997e-08)
(0.01100017231 1.698641538e-08 -3.172981911e-08)
(0.01100016275 1.000600308e-08 -2.146495917e-08)
(0.01100011707 3.617635817e-09 -1.355827661e-08)
(0.01100006789 3.139260924e-11 -9.021181667e-09)
(0.01100000825 -8.333973495e-10 -3.510900552e-09)
(0.01099994928 -2.801924465e-09 1.70422463e-09)
(0.01099989331 -3.216073452e-09 2.480450296e-09)
(0.01099983889 -2.729712887e-09 3.856812091e-09)
(0.01099979287 -2.642357196e-09 7.169940184e-09)
(0.01099975154 -3.231903036e-09 7.538687722e-09)
(0.01099970615 -2.22683752e-09 7.189179254e-09)
(0.01099967652 -4.728858778e-09 8.275758135e-09)
(0.01099964205 -3.23901422e-09 5.283496285e-09)
(0.01100010539 -7.106684843e-08 -1.366271195e-07)
(0.01100021522 3.146771835e-09 -4.29419468e-08)
(0.01100012677 -1.693822718e-08 -2.678861304e-08)
(0.01100009979 -8.755955803e-09 -1.502130537e-08)
(0.01100003058 -6.653109454e-10 -4.424165458e-09)
(0.01099995942 3.881378631e-09 -4.133639116e-10)
(0.01099988608 4.672233852e-09 2.128042434e-09)
(0.01099981818 6.093426879e-09 1.787485794e-09)
(0.01099975959 5.033687367e-09 2.185643269e-09)
(0.01099970478 5.625782594e-09 2.112555326e-09)
(0.01099966072 2.856849878e-09 4.152680983e-09)
(0.01099962087 2.260503908e-09 3.491384046e-09)
(0.01099958669 2.863648321e-09 4.275902846e-09)
(0.01099955904 4.165084002e-09 5.895198588e-09)
(0.01099953488 4.074330272e-09 5.568797417e-09)
(0.01100009559 -3.567624222e-07 -2.837735647e-07)
(0.01100017849 -4.692810936e-08 -3.252192816e-08)
(0.01099991764 -7.432237335e-08 -2.67426056e-08)
(0.0109998506 -2.731021712e-08 -1.053091618e-08)
(0.01099973606 -2.706989481e-09 1.748209408e-09)
(0.01099963894 8.2402568e-09 5.018373391e-09)
(0.01099956617 1.511849721e-08 7.540802708e-09)
(0.01099951022 1.612771119e-08 6.630433074e-09)
(0.01099947247 1.402153407e-08 6.134835548e-09)
(0.01099944226 1.300668128e-08 4.347983654e-09)
(0.01099942514 1.026364544e-08 5.23007332e-09)
(0.01099941145 8.410317983e-09 3.909523334e-09)
(0.01099940435 9.135459616e-09 4.681284292e-09)
(0.01099939869 1.21620976e-08 6.019502688e-09)
(0.0109993948 1.034026441e-08 5.43081872e-09)
(0.01099993176 -4.747495248e-07 -8.485896499e-07)
(0.01099993436 9.192441607e-08 -1.685681425e-08)
(0.01099925094 -9.307072074e-08 -1.070031719e-08)
(0.01099911312 -9.983327938e-09 2.21985959e-08)
(0.01099895839 1.966286713e-08 3.033085125e-08)
(0.01099889027 2.688216455e-08 2.466549146e-08)
(0.01099887906 2.552798686e-08 1.895837775e-08)
(0.01099889489 2.227743638e-08 1.378559667e-08)
(0.01099893034 1.612462926e-08 1.034314739e-08)
(0.01099897327 1.104107646e-08 7.890950439e-09)
(0.01099901835 9.966847665e-09 6.886611311e-09)
(0.01099906368 8.582660053e-09 5.183326589e-09)
(0.01099910655 7.086640483e-09 4.167806457e-09)
(0.01099913891 1.06340483e-08 7.122646255e-09)
(0.01099917436 1.174252259e-08 6.157883882e-09)
(0.01099835492 4.787680049e-07 4.764013646e-07)
(0.01099726153 4.283903266e-08 3.9257497e-08)
(0.01099751265 6.526874415e-08 6.358021108e-08)
(0.01099758086 6.790847734e-08 6.481169909e-08)
(0.01099775002 4.413395855e-08 4.227279336e-08)
(0.01099795823 2.703260792e-08 2.788072692e-08)
(0.01099814795 1.69342756e-08 1.847349035e-08)
(0.01099832556 9.797451814e-09 1.22875742e-08)
(0.01099847454 7.575440163e-09 8.551119267e-09)
(0.01099860924 6.656610302e-09 5.95454008e-09)
(0.010998718 4.813986996e-09 5.479133412e-09)
(0.01099882092 3.813588707e-09 5.267580858e-09)
(0.01099890091 6.549382954e-09 6.923684227e-09)
(0.01099897379 6.674005471e-09 6.958118039e-09)
(0.01099653266 1.809710559e-09 2.978645822e-06)
(0.01099443257 -1.086337235e-10 7.08755876e-07)
(0.01099580527 -7.213781275e-10 2.767868028e-07)
(0.01099642948 8.289112138e-10 1.555556125e-07)
(0.01099695706 -3.636438623e-11 6.849455006e-08)
(0.01099740339 2.38260535e-10 3.146292678e-08)
(0.01099775046 1.243041887e-09 1.429613693e-08)
(0.01099802658 1.198439014e-09 8.125728962e-09)
(0.01099824851 2.896005717e-10 3.641752416e-09)
(0.01099842775 -4.241443173e-10 2.332153378e-09)
(0.01099857466 -1.976683545e-11 2.399167591e-09)
(0.01099870288 1.189135583e-10 3.498492244e-09)
(0.01099880156 1.092707438e-09 6.137612213e-09)
(0.0109988942 5.987864405e-10 4.34362665e-09)
(0.01099835602 -4.772979242e-07 4.796686926e-07)
(0.01099726136 -3.906067405e-08 4.048005145e-08)
(0.01099751365 -6.278622563e-08 6.323925732e-08)
(0.01099758158 -6.580680036e-08 6.693244216e-08)
(0.01099775089 -4.291334369e-08 4.405963606e-08)
(0.01099795849 -2.520925089e-08 2.807665954e-08)
(0.01099815189 -1.7595055e-08 1.902737575e-08)
(0.0109983237 -9.774804534e-09 1.241617607e-08)
(0.01099847366 -8.240738739e-09 7.237223337e-09)
(0.01099860899 -6.56475259e-09 6.085128686e-09)
(0.01099872192 -3.785765793e-09 5.497768577e-09)
(0.0109988196 -3.822668105e-09 4.563363661e-09)
(0.01099889877 -7.691695752e-09 5.925328526e-09)
(0.01099897346 -6.91963635e-09 7.095957462e-09)
(0.01099993544 -9.169281512e-08 -1.611104912e-08)
(0.01099925188 9.341278233e-08 -1.13433185e-08)
(0.01099911172 1.269786099e-08 2.251549137e-08)
(0.01099895573 -2.107895093e-08 3.07846135e-08)
(0.01099888856 -2.662127172e-08 2.483888198e-08)
(0.01099887855 -2.603850923e-08 1.868478464e-08)
(0.01099889743 -2.183157997e-08 1.499315948e-08)
(0.01099893212 -1.885778687e-08 1.150146783e-08)
(0.01099897236 -1.459468946e-08 8.788446549e-09)
(0.01099901976 -1.1917226e-08 6.505473683e-09)
(0.01099906303 -1.069062239e-08 5.952794827e-09)
(0.01099910818 -8.924458034e-09 5.26752511e-09)
(0.01099914147 -1.110971025e-08 5.634574691e-09)
(0.01099917632 -1.086428276e-08 5.967333467e-09)
(0.0110001767 4.832984811e-08 -3.119677851e-08)
(0.01099991817 7.434658518e-08 -2.603749084e-08)
(0.01099985027 2.851522959e-08 -9.07763217e-09)
(0.01099973182 2.999540114e-09 2.973944727e-09)
(0.01099963786 -8.154878259e-09 4.493019253e-09)
(0.01099956549 -1.482998169e-08 5.902860752e-09)
(0.01099950937 -1.64063677e-08 7.170807713e-09)
(0.01099947039 -1.488278054e-08 4.858781923e-09)
(0.01099944296 -1.261074247e-08 6.421729645e-09)
(0.01099942561 -1.094345173e-08 6.014020425e-09)
(0.0109994124 -1.07823756e-08 5.305866518e-09)
(0.01099940545 -8.787250115e-09 6.114423809e-09)
(0.01099939931 -1.067078484e-08 6.617024508e-09)
(0.01099939776 -1.082632883e-08 5.780561102e-09)
(0.011000217 -1.613507939e-09 -4.251105993e-08)
(0.01100012702 1.746918524e-08 -3.101193343e-08)
(0.01100009858 9.809646083e-09 -1.576728308e-08)
(0.01100002753 2.126000082e-09 -6.219138322e-09)
(0.01099995912 -2.24908986e-09 -2.502988322e-09)
(0.01099988573 -3.144326106e-09 4.891060609e-10)
(0.01099981789 -5.69929906e-09 2.245694184e-09)
(0.01099975936 -3.554428833e-09 2.356320418e-09)
(0.01099970593 -3.301490013e-09 3.720428789e-09)
(0.01099966001 -3.388644451e-09 3.785654464e-09)
(0.01099962168 -1.165084076e-09 3.74640102e-09)
(0.01099958887 -4.119393439e-09 4.015842883e-09)
(0.01099956101 -3.377854985e-09 5.56950297e-09)
(0.0109995366 -3.709324918e-09 4.487111111e-09)
(0.01100010041 -1.928164182e-07 1.548846288e-09)
(0.01100028946 2.563109053e-09 1.46268869e-09)
(0.01100012971 -1.279306962e-08 -1.422188616e-09)
(0.01100007405 2.608595883e-10 5.448424924e-10)
(0.01099998745 7.529788447e-09 -1.154805293e-09)
(0.01099990167 7.377691045e-09 -2.992774566e-10)
(0.01099982625 8.550321423e-09 -1.928394249e-09)
(0.01099975604 8.223712324e-09 -1.368340511e-09)
(0.01099969644 6.591080278e-09 4.090375222e-10)
(0.01099964713 6.513163418e-09 3.983605449e-10)
(0.01099960167 1.474732078e-09 4.058609116e-10)
(0.01099956648 3.931911581e-09 -1.076164878e-09)
(0.010999538 3.834001621e-09 -5.211529437e-10)
(0.01099951425 6.795345653e-09 -6.933634562e-10)
(0.01099949426 5.984507147e-09 -1.477639806e-09)
(0.01100007899 -9.274999727e-07 -8.275311815e-10)
(0.01100029652 -4.09095702e-08 5.585716887e-10)
(0.0109998173 -4.581856311e-08 3.492854349e-10)
(0.01099971545 7.000349445e-09 9.491093506e-10)
(0.01099958784 2.269818131e-08 3.583697412e-10)
(0.01099949489 2.135636402e-08 8.066732538e-10)
(0.01099943325 2.261000462e-08 -6.336630566e-10)
(0.01099939089 1.927061756e-08 -1.562135743e-09)
(0.01099936586 1.496558833e-08 -1.42972738e-09)
(0.0109993494 1.242896324e-08 -3.298733751e-10)
(0.01099933996 8.21883855e-09 -9.945741797e-10)
(0.01099933705 8.068521582e-09 8.857795265e-10)
(0.01099933862 8.617768724e-09 -2.689843888e-09)
(0.01099933964 1.0881437e-08 4.25502464e-10)
(0.01099934204 1.158208274e-08 7.199764257e-11)
(0.01099964089 -1.800697855e-06 4.469065193e-10)
(0.01100000138 4.747193673e-07 1.22879571e-09)
(0.01099864671 1.872482651e-09 -4.237886266e-10)
(0.01099855703 5.039089274e-08 4.457051468e-10)
(0.01099848566 6.233692073e-08 1.413234582e-09)
(0.01099850968 4.499584681e-08 1.135146095e-09)
(0.01099857721 3.214351224e-08 6.461708596e-10)
(0.01099865575 2.178806298e-08 -1.573154041e-09)
(0.01099873894 1.451225423e-08 2.032565557e-11)
(0.01099881397 9.820985991e-09 -8.781928108e-11)
(0.01099888725 7.960860217e-09 -8.301864067e-10)
(0.01099895361 7.200062917e-09 -7.787587715e-10)
(0.01099901316 7.944249689e-09 -1.381062068e-09)
(0.0109990619 1.140371703e-08 -1.503428153e-09)
(0.01099910786 1.241133813e-08 1.0536509e-09)
(0.01099588616 -8.703110987e-06 -3.199776747e-10)
(0.01099652918 2.982509896e-06 5.218931003e-10)
(0.01099443266 7.103511991e-07 -5.366040293e-10)
(0.01099580405 2.74802448e-07 -1.029365755e-09)
(0.01099643094 1.556390377e-07 1.031361969e-09)
(0.01099695846 7.024636326e-08 1.072283436e-09)
(0.01099740268 3.129550867e-08 -3.916470006e-10)
(0.01099775018 1.402096845e-08 1.229482428e-10)
(0.01099802471 7.687221501e-09 1.903332606e-09)
(0.01099824789 4.25412276e-09 2.008172801e-10)
(0.01099842575 2.728252804e-09 1.171765799e-09)
(0.01099857526 3.232111658e-09 -3.678998988e-10)
(0.01099870016 2.607630996e-09 -1.215382546e-09)
(0.01099880253 6.065067197e-09 1.946610034e-10)
(0.01099889151 4.253766047e-09 5.367140383e-10)
(0.01099163149 3.166822422e-09 -2.447450853e-10)
(0.01098554465 1.524690366e-09 -7.191927321e-10)
(0.01099189593 6.30037572e-10 -1.665215526e-09)
(0.01099439673 2.350753673e-09 -7.040897171e-10)
(0.01099575522 1.031148033e-09 -1.355259126e-09)
(0.01099665588 4.311395583e-10 -2.944409495e-10)
(0.01099724909 7.709197408e-10 4.059750024e-10)
(0.01099767046 1.083045624e-09 8.701777698e-10)
(0.01099798277 -7.648220782e-10 -6.026587276e-10)
(0.01099822645 -1.164183517e-10 -8.427944159e-10)
(0.01099841519 -3.080225053e-10 -1.26527006e-09)
(0.01099857289 2.408851687e-11 1.531055248e-09)
(0.0109986918 -9.858884716e-10 9.855439783e-10)
(0.01099881065 3.196332223e-10 3.523485935e-10)
(0.01099652999 -2.979976581e-06 -2.073350656e-10)
(0.0109944303 -7.0863289e-07 -9.855564195e-10)
(0.01099580601 -2.752331055e-07 6.928440329e-10)
(0.01099642657 -1.552637426e-07 2.342532657e-10)
(0.01099695736 -6.95325457e-08 -1.934359069e-09)
(0.01099740433 -3.10515043e-08 -5.429560694e-10)
(0.01099774903 -1.287416768e-08 -4.467736127e-10)
(0.01099802442 -5.587227774e-09 1.722389776e-09)
(0.01099824765 -3.653530347e-09 1.00033161e-09)
(0.0109984269 -4.101277609e-09 4.157685197e-10)
(0.01099857475 -3.794569634e-09 4.472113109e-10)
(0.01099870347 -4.170105999e-09 9.883291947e-10)
(0.01099880233 -7.172509819e-09 4.912980092e-10)
(0.01099889336 -4.859878826e-09 -5.952631214e-10)
(0.01099999811 -4.765639945e-07 -1.990831666e-10)
(0.01099864434 2.552964516e-10 -2.291735309e-10)
(0.01099855708 -4.716756417e-08 -1.97418109e-10)