/*--------------------------------*- C++ -*----------------------------------*\
| =========                 |                                                 |
| \\      /  F ield         | OpenFOAM: The Open Source CFD Toolbox           |
|  \\    /   O peration     | Version:  4.x                                   |
|   \\  /    A nd           | Web:      www.OpenFOAM.org                      |
|    \\/     M anipulation  |                                                 |
\*---------------------------------------------------------------------------*/
FoamFile
{
    version     2.0;
    format      ascii;
    class       volScalarField;
    location    "6000";
    object      X_CO2;
}
// * * * * * * * * * * * * * * * * * * * * * * * * * * * * * * * * * * * * * //

dimensions      [0 0 0 0 0 0 0];

internalField   nonuniform List<scalar> 
1174
(
0.004153925225
0.004155879818
0.004158642756
0.004162248733
0.004166661262
0.004171782667
0.004177477245
0.004183588994
0.004189961592
0.004196446416
0.004202905805
0.004209193938
0.004215053478
0.004219660277
0.004155765969
0.004158905577
0.004163089817
0.004168222334
0.004174126876
0.004180589304
0.004187390732
0.004194333399
0.004201249969
0.004208005965
0.00421449608
0.00422061898
0.004226179243
0.004230472741
0.004159837029
0.004165397862
0.004172283746
0.004180105169
0.004188443561
0.00419691969
0.004205235196
0.004213175657
0.004220605339
0.004227449539
0.004233677944
0.004239270717
0.004244137863
0.00424778398
0.00416581226
0.004174464282
0.004184403123
0.004194900865
0.004205351133
0.004215317443
0.00422452657
0.00423283756
0.004240205334
0.004246648905
0.004252223391
0.004256990279
0.0042609594
0.004263832879
0.004170086583
0.004180439278
0.004191737076
0.004203184612
0.004214204908
0.004224427617
0.004233653708
0.004241803629
0.004248883584
0.00425495263
0.004260095379
0.004264402581
0.004267914212
0.004270414052
0.004165811983
0.004174463801
0.004184402497
0.004194900235
0.004205350565
0.004215316821
0.004224526219
0.004232837081
0.004240204795
0.004246648003
0.004252221801
0.004256989285
0.004260958151
0.00426383147
0.004159836801
0.004165397631
0.004172282687
0.004180104473
0.004188442342
0.004196918762
0.004205234194
0.004213173734
0.00422060335
0.004227447499
0.004233675459
0.004239268241
0.004244135613
0.004247781844
0.004155765401
0.004158905319
0.004163089085
0.004168221439
0.004174125873
0.004180587873
0.004187389257
0.004194331982
0.004201248188
0.004208003996
0.004214494172
0.004220616638
0.004226176732
0.004230470211
0.004153924855
0.004155879782
0.004158642282
0.004162248493
0.004166660826
0.004171781996
0.004177476173
0.004183588205
0.004189960725
0.004196444836
0.004202904307
0.004209192485
0.004215051105
0.004219657421
0.004153647607
0.004155765508
0.004158905875
0.004163089802
0.004168222483
0.004174127306
0.004180589126
0.004187390664
0.004194333339
0.004201250007
0.004208005754
0.004214496057
0.004220618974
0.004226178888
0.004230472565
0.004159923756
0.00416544915
0.004172191463
0.004179744611
0.004187702418
0.004195720911
0.004203543664
0.004211000183
0.004217988214
0.00422445923
0.00423039296
0.004235774872
0.004240510073
0.004244088733
0.004170399676
0.004181158662
0.004192860152
0.004204511944
0.004215433829
0.004225254366
0.004233837761
0.004241200571
0.004247443922
0.004252703895
0.004257122867
0.004260824351
0.004263865833
0.004266053909
0.004189051491
0.004206972435
0.004224021966
0.004238920926
0.004251221351
0.004260978974
0.004268495836
0.004274155017
0.00427833331
0.004281361819
0.004283514875
0.004285010463
0.004286013092
0.004286611385
0.004206683819
0.004228267791
0.004246561195
0.004261079277
0.004272105019
0.004280197771
0.004285952563
0.004289903129
0.004292494622
0.004294078482
0.004294932109
0.004295268194
0.004295263047
0.004295106646
0.004189051099
0.004206972012
0.004224020796
0.004238920056
0.004251219999
0.004260977169
0.004268494419
0.004274153165
0.004278331126
0.00428135962
0.004283512889
0.004285007879
0.004286010512
0.004286609448
0.004170398941
0.004181158224
0.004192858902
0.004204510449
0.004215432413
0.004225252447
0.004233835396
0.004241198064
0.004247440868
0.004252700758
0.004257120287
0.004260821753
0.004263862871
0.004266050676
0.004159923045
0.004165448309
0.004172190199
0.004179743643
0.004187701287
0.004195719532
0.004203541754
0.00421099798
0.004217985903
0.004224456099
0.004230389757
0.00423577156
0.004240506659
0.004244085053
0.004155765452
0.004158905093
0.004163089067
0.004168221144
0.004174125595
0.004180587802
0.004187389214
0.004194331329
0.004201247469
0.004208003525
0.004214493512
0.004220615763
0.004226175199
0.004230468374
0.004155841784
0.004159836889
0.004165397536
0.004172283086
0.004180105088
0.004188443324
0.004196919701
0.004205234824
0.004213175171
0.004220604978
0.004227449555
0.00423367807
0.004239270543
0.00424413783
0.004247784155
0.004161718372
0.004170399461
0.004181158721
0.00419285996
0.004204511576
0.004215433835
0.004225254292
0.004233837483
0.004241200415
0.004247443414
0.004252703757
0.004257123233
0.004260824663
0.004263865936
0.004266054055
0.004201402525
0.004224151968
0.00424476575
0.004261676991
0.00427455954
0.00428377954
0.004289988999
0.00429388132
0.00429607706
0.004297080691
0.004297281463
0.00429697052
0.004296384049
0.004295791433
0.004270489088
0.004308990397
0.004335573234
0.004351289236
0.004358694101
0.004360372263
0.004358411442
0.004354326045
0.004349144499
0.004343533028
0.004337907268
0.004332535539
0.004327671664
0.004323942752
0.004361155239
0.004399536937
0.004416053668
0.004419000875
0.00441431629
0.00440574302
0.004395502387
0.004384859465
0.0043745049
0.004364793735
0.004355891292
0.00434787854
0.004340905675
0.004335686968
0.00427048626
0.00430898765
0.004335570257
0.004351285974
0.00435869111
0.004360369124
0.00435840782
0.004354322291
0.0043491414
0.004343530272
0.00433790542
0.004332533444
0.004327668993
0.004323940482
0.004201400787
0.004224149973
0.004244762906
0.004261674503
0.004274556547
0.004283775952
0.004289984905
0.004293876944
0.004296072579
0.00429707672
0.004297277074
0.004296966696
0.00429638015
0.004295786834
0.004170399267
0.004181158279
0.004192858485
0.004204510021
0.004215432082
0.004225252089
0.004233834602
0.00424119714
0.004247439574
0.00425270005
0.004257119336
0.004260820927
0.004263861484
0.004266048877
0.004159836943
0.004165397215
0.004172282338
0.004180103877
0.004188441298
0.004196917518
0.004205232708
0.004213172526
0.004220601582
0.004227446034
0.00423367332
0.004239265368
0.004244132648
0.004247778541
0.004159142997
0.004165811861
0.00417446374
0.004184402274
0.004194900398
0.004205350965
0.004215317248
0.004224526561
0.004232837689
0.004240205223
0.004246648845
0.00425222272
0.004256989884
0.004260959039
0.004263832058
0.004172578441
0.004189050811
0.004206971679
0.004224021034
0.004238919965
0.004251220472
0.004260978562
0.004268495501
0.00427415411
0.004278332856
0.00428136111
0.004283514813
0.004285009874
0.00428601271
0.004286611525
0.004223553782
0.004270487131
0.004308989325
0.004335571839
0.004351287487
0.004358693637
0.004360371581
0.004358410405
0.004354325439
0.004349143911
0.004343532673
0.00433790698
0.004332535427
0.004327671417
0.004323942404
0.004507761132
0.004556463419
0.00456467779
0.004550903904
0.004527281158
0.004500675771
0.004474576636
0.004450544062
0.004429120438
0.004410346697
0.004394049208
0.004380016016
0.004368220623
0.004359599733
0.004974422868
0.004914009404
0.004820700919
0.004731089094
0.004654873436
0.004592660977
0.004542455591
0.004501889162
0.004468889909
0.004441816848
0.00441942109
0.004400809216
0.004385561258
0.004374596368
0.00450775031
0.004556455646
0.00456467057
0.004550897326
0.004527274998
0.004500669659
0.004474570593
0.004450538841
0.004429115521
0.004410342298
0.004394044938
0.00438001229
0.004368217535
0.004359596927
0.004270486478
0.004308986894
0.004335568493
0.004351284137
0.0043586882
0.004360365662
0.004358404149
0.004354318768
0.004349138009
0.004343526206
0.004337901169
0.004332529147
0.004327665591
0.004323937367
0.004189050825
0.004206971306
0.004224020056
0.004238918538
0.004251217695
0.004260974463
0.004268490485
0.004274148921
0.00427832738
0.004281355601
0.00428350871
0.004285003761
0.004286005966
0.004286605066
0.004165811536
0.00417446332
0.004184401856
0.004194899139
0.004205349075
0.004215314875
0.00422452338
0.00423283378
0.004240200778
0.004246643665
0.00425221674
0.004256984098
0.004260952325
0.004263825987
0.004161624139
0.004170085712
0.004180437956
0.004191736505
0.004203184324
0.004214204133
0.004224426977
0.004233652975
0.004241803018
0.004248882825
0.004254951586
0.004260094033
0.004264401066
0.004267913323
0.004270413419
0.004183936491
0.004206682619
0.004228266444
0.004246559709
0.004261077659
0.004272103826
0.004280196509
0.004285951274
0.00428990237
0.004292493648
0.004294078557
0.004294931607
0.004295267158
0.004295262556
0.004295106365
0.004293103704
0.004361152338
0.004399534231
0.004416051108
0.004418998883
0.00441431437
0.004405741102
0.004395500856
0.004384858338
0.004374504817
0.004364793698
0.004355891229
0.004347878324
0.004340904993
0.004335686358
0.004890949306
0.004974413315
0.004914003438
0.004820696256
0.004731085874
0.004654870817
0.004592659319
0.004542454271
0.004501887865
0.004468888916
0.004441816213
0.004419420504
0.004400808797
0.004385560521
0.0043745962
0.006989367146
0.005965754809
0.005398715791
0.005066610103
0.004860837703
0.004726199648
0.004633563434
0.004566934433
0.004517169881
0.00447883019
0.004448556999
0.004424250424
0.004404826295
0.004391075696
0.004974421929
0.004913999232
0.00482068821
0.00473107741
0.004654862479
0.004592651346
0.004542447086
0.004501881137
0.00446888273
0.004441810651
0.004419415294
0.00440080371
0.004385556198
0.004374591951
0.004361155138
0.004399533123
0.004416046466
0.004418992205
0.004414306947
0.004405733284
0.004395492747
0.00438485019
0.004374496604
0.004364785596
0.004355882937
0.004347870482
0.004340897668
0.004335679747
0.004206684148
0.004228266469
0.00424655826
0.0042610754
0.00427210041
0.0042801921
0.004285945891
0.004289896762
0.004292487169
0.004294071665
0.004294924462
0.004295259801
0.004295255213
0.004295098925
0.004170085965
0.004180437859
0.004191735865
0.004203182753
0.004214202014
0.004224424284
0.004233648857
0.004241798425
0.004248877665
0.004254945824
0.004260088461
0.004264394746
0.004267906533
0.004270405905
0.004159143028
0.004165811692
0.004174463332
0.004184401202
0.004194899366
0.004205349562
0.004215315912
0.004224525309
0.004232835676
0.004240203437
0.004246646763
0.004252220712
0.004256988378
0.004260957205
0.004263830538
0.00417257771
0.004189050124
0.00420697047
0.004224019656
0.004238918559
0.004251219037
0.004260976661
0.004268492814
0.004274151743
0.004278330082
0.004281358779
0.004283512078
0.004285007267
0.004286009463
0.004286608742
0.004223550491
0.004270483305
0.004308984688
0.004335567328
0.004351283333
0.004358689226
0.004360367137
0.004358406016
0.004354321041
0.004349139804
0.004343528394
0.004337903218
0.004332532271
0.004327667639
0.004323938838
0.004398790765
0.004507742553
0.004556449339
0.004564665604
0.004550892916
0.004527271914
0.004500667398
0.004474569009
0.00445053764
0.004429114281
0.004410340934
0.00439404426
0.004380011637
0.004368216597
0.004359595106
0.004890947392
0.004974409512
0.004913991069
0.004820683073
0.004731072956
0.004654859068
0.004592649246
0.004542444993
0.004501879401
0.004468881921
0.004441809511
0.004419414847
0.00440080369
0.00438555553
0.004374591263
0.004398793748
0.004507742455
0.004556446479
0.004564660451
0.004550887049
0.004527264952
0.004500660605
0.004474562088
0.004450531161
0.004429108201
0.00441033586
0.004394039354
0.004380006541
0.004368211593
0.004359591124
0.004270488735
0.004308985393
0.004335565007
0.004351279338
0.00435868359
0.00436036089
0.004358399553
0.004354314062
0.004349132576
0.004343521872
0.004337896397
0.004332525019
0.004327661308
0.004323932744
0.00418905164
0.004206970911
0.004224019227
0.004238916868
0.004251215765
0.004260972415
0.004268487884
0.004274146597
0.004278324479
0.004281352693
0.004283505235
0.004285000425
0.004286002653
0.004286601378
0.004165811744
0.004174463906
0.004184401467
0.004194898742
0.00420534843
0.004215313764
0.004224522089
0.004232832434
0.004240199395
0.004246641508
0.004252214214
0.004256981623
0.004260949801
0.004263823193
0.004155841652
0.004159836096
0.004165396997
0.004172282218
0.004180103569
0.004188442122
0.004196918067
0.004205233091
0.004213173181
0.004220602896
0.004227446786
0.004233674801
0.004239266908
0.004244134673
0.004247779935
0.0041617175
0.004170397995
0.004181156759
0.004192858285
0.004204509842
0.004215431049
0.004225251248
0.0042338343
0.004241196985
0.004247439715
0.004252699895
0.004257119232
0.004260820981
0.004263861874
0.004266048985
0.004179729991
0.004201398927
0.004224148077
0.004244761518
0.00426167265
0.004274554724
0.004283774206
0.004289983389
0.00429387577
0.004296071306
0.00429707508
0.004297275577
0.004296964879
0.004296378453
0.004295785774
0.004223550184
0.00427048263
0.004308983289
0.004335565021
0.004351280452
0.004358685273
0.004360362802
0.004358402243
0.004354316917
0.004349136122
0.004343524375
0.004337899363
0.004332527967
0.004327664318
0.004323935574
0.004293102916
0.004361148826
0.004399527655
0.004416041952
0.00441898818
0.004414303286
0.004405730739
0.004395490914
0.00438484858
0.004374495025
0.00436478471
0.004355882541
0.004347870037
0.004340897046
0.004335678496
0.004223549766
0.004270481528
0.004308981606
0.00433556205
0.004351276979
0.004358681424
0.004360359251
0.004358398106
0.004354312888
0.004349131403
0.004343520942
0.004337895816
0.004332524352
0.004327660851
0.004323931786
0.004179731749
0.004201399926
0.004224147623
0.004244759837
0.004261669974
0.004274551197
0.00428377039
0.004289978604
0.004293870943
0.004296066021
0.004297069501
0.00429727018
0.004296959811
0.004296373127
0.004295780311
0.004170399638
0.004181157514
0.004192857945
0.004204508526
0.004215429574
0.004225248869
0.004233830756
0.00424119315
0.004247435845
0.004252695034
0.004257113892
0.004260815336
0.00426385612
0.004266043176
0.004159836648
0.004165397496
0.00417228225
0.004180103041
0.00418844077
0.004196916557
0.004205230707
0.004213170786
0.004220599042
0.004227442758
0.004233670073
0.004239261538
0.004244128731
0.00424777395
0.004153647832
0.004155765392
0.004158905122
0.004163088871
0.004168221005
0.004174125517
0.004180587562
0.004187388776
0.00419433094
0.004201247229
0.004208003045
0.004214493684
0.004220615698
0.004226175376
0.004230468608
0.004155900753
0.004159922973
0.004165448326
0.004172190375
0.004179742979
0.00418770029
0.004195718378
0.004203541288
0.004210997193
0.004217984712
0.004224454806
0.004230388571
0.004235770561
0.004240505356
0.004244083931
0.004161717238
0.004170397992
0.004181156743
0.004192857491
0.004204508433
0.004215429836
0.004225250223
0.004233833028
0.004241195572
0.004247437991
0.004252697995
0.004257117564
0.004260818946
0.004263860006
0.004266047232
0.004172578306
0.004189049377
0.004206969024
0.004224017548
0.004238915968
0.00425121583
0.004260972485
0.004268489379
0.00427414786
0.004278325844
0.004281353858
0.004283506799
0.004285002134
0.004286004721
0.004286604018
0.004183935867
0.004206681083
0.004228263386
0.004246556285
0.004261072607
0.004272097642
0.004280189884
0.004285944177
0.004289894646
0.004292485296
0.004294070181
0.004294923766
0.004295259039
0.004295253999
0.004295098033
0.004172578379
0.004189049183
0.004206968509
0.004224016943
0.004238914862
0.004251213428
0.004260970541
0.004268486534
0.004274145565
0.004278323462
0.004281352272
0.004283504215
0.004285000001
0.004286002272
0.004286600695
0.004161717629
0.004170397984
0.004181156122
0.004192856755
0.004204507411
0.004215428396
0.004225247726
0.004233830176
0.004241192603
0.004247434964
0.004252694547
0.004257113497
0.004260814599
0.004263855576
0.004266043374
0.004155900598
0.004159923065
0.004165448676
0.004172189821
0.004179742911
0.004187699236
0.004195716549
0.004203538849
0.004210994474
0.004217982244
0.004224451424
0.004230384404
0.004235766427
0.00424050082
0.004244078017
0.004155765704
0.004158905109
0.004163089225
0.004168220856
0.004174124802
0.0041805863
0.004187386925
0.004194329006
0.004201244436
0.004207999514
0.004214489225
0.004220611609
0.004226170611
0.004230463045
0.004152669291
0.004153924892
0.004155879835
0.004158642423
0.004162248411
0.004166660014
0.004171781451
0.004177475425
0.004183587168
0.004189959281
0.00419644342
0.004202903231
0.004209191476
0.00421504963
0.004219656335
0.004153647714
0.004155765457
0.004158905069
0.004163089179
0.00416822121
0.004174125287
0.004180587007
0.004187388254
0.004194330716
0.00420124651
0.004208002256
0.004214492049
0.004220614969
0.004226174496
0.004230467585
0.004155841768
0.004159837274
0.004165397241
0.004172281586
0.004180103114
0.004188440747
0.004196916798
0.004205231596
0.004213171421
0.004220600186
0.004227444355
0.004233672427
0.004239264108
0.004244131521
0.004247776931
0.004159142582
0.004165811548
0.004174462886
0.004184400467
0.004194897926
0.00420534792
0.004215313236
0.004224522135
0.004232832513
0.004240199758
0.004246642187
0.00425221534
0.004256982774
0.004260951488
0.004263824178
0.00416162398
0.0041700848
0.004180436426
0.004191734295
0.004203181067
0.004214199976
0.004224422476
0.004233647242
0.004241796545
0.004248876133
0.004254944045
0.004260086468
0.004264393031
0.004267905273
0.004270404574
0.004159142479
0.004165811177
0.004174462676
0.004184400313
0.004194897276
0.004205346524
0.00421531171
0.004224520174
0.004232830564
0.004240197271
0.004246640026
0.004252213376
0.004256980326
0.004260948626
0.004263821913
0.004155841423
0.00415983591
0.004165396203
0.0041722811
0.004180102398
0.004188439428
0.004196915365
0.004205229605
0.004213169391
0.004220598495
0.004227442041
0.004233669358
0.004239260782
0.004244127291
0.004247772788
0.004153647608
0.004155765272
0.00415890458
0.004163088486
0.004168220533
0.004174124215
0.00418058566
0.004187386949
0.004194328874
0.004201244457
0.004207999798
0.004214489043
0.004220611006
0.004226169843
0.004230462293
0.004152669112
0.004153924591
0.004155879494
0.004158642004
0.004162248013
0.004166659912
0.004171780461
0.004177474154
0.004183585632
0.004189957379
0.00419644138
0.004202899895
0.004209187252
0.004215045196
0.004219651187
)
;

boundaryField
{
    top
    {
        type            calculated;
        value           nonuniform List<scalar> 
127
(
0.004152669112
0.004153924855
0.004155765452
0.004159836943
0.004165811536
0.004170085965
0.004165811744
0.004159836648
0.004155765704
0.004153924591
0.004155879782
0.004158905093
0.004165397215
0.00417446332
0.004180437859
0.004174463906
0.004165397496
0.004158905109
0.004155879494
0.004158642282
0.004163089067
0.004172282338
0.004184401856
0.004191735865
0.004184401467
0.00417228225
0.004163089225
0.004158642004
0.004162248493
0.004168221144
0.004180103877
0.004194899139
0.004203182753
0.004194898742
0.004180103041
0.004168220856
0.004162248013
0.004166660826
0.004174125595
0.004188441298
0.004205349075
0.004214202014
0.00420534843
0.00418844077
0.004174124802
0.004166659912
0.004171781996
0.004180587802
0.004196917518
0.004215314875
0.004224424284
0.004215313764
0.004196916557
0.0041805863
0.004171780461
0.004177476173
0.004187389214
0.004205232708
0.00422452338
0.004233648857
0.004224522089
0.004205230707
0.004187386925
0.004177474154
0.004183588205
0.004194331329
0.004213172526
0.00423283378
0.004241798425
0.004232832434
0.004213170786
0.004194329006
0.004183585632
0.004189960725
0.004201247469
0.004220601582
0.004240200778
0.004248877665
0.004240199395
0.004220599042
0.004201244436
0.004189957379
0.004196444836
0.004208003525
0.004227446034
0.004246643665
0.004254945824
0.004246641508
0.004227442758
0.004207999514
0.00419644138
0.004202904307
0.004214493512
0.00423367332
0.00425221674
0.004260088461
0.004252214214
0.004233670073
0.004214489225
0.004202899895
0.004209192485
0.004220615763
0.004239265368
0.004256984098
0.004264394746
0.004256981623
0.004239261538
0.004220611609
0.004209187252
0.004215051105
0.004226175199
0.004244132648
0.004260952325
0.004267906533
0.004260949801
0.004244128731
0.004226170611
0.004215045196
0.004219657421
0.004230468374
0.004247778541
0.004263825987
0.004270405905
0.004263823193
0.00424777395
0.004230463045
0.004219651187
)
;
    }
    bottom
    {
        type            calculated;
        value           nonuniform List<scalar> 
134
(
0.004153647607
0.004155841784
0.004159142997
0.004161624139
0.004159143028
0.004155841652
0.004153647832
0.004152669291
0.004153925225
0.004155765508
0.004159836889
0.004165811861
0.004170085712
0.004165811692
0.004159836096
0.004155765392
0.004153924892
0.004155879818
0.004158905875
0.004165397536
0.00417446374
0.004180437956
0.004174463332
0.004165396997
0.004158905122
0.004155879835
0.004158642756
0.004163089802
0.004172283086
0.004184402274
0.004191736505
0.004184401202
0.004172282218
0.004163088871
0.004158642423
0.004162248733
0.004168222483
0.004180105088
0.004194900398
0.004203184324
0.004194899366
0.004180103569
0.004168221005
0.004162248411
0.004166661262
0.004174127306
0.004188443324
0.004205350965
0.004214204133
0.004205349562
0.004188442122
0.004174125517
0.004166660014
0.004171782667
0.004180589126
0.004196919701
0.004215317248
0.004224426977
0.004215315912
0.004196918067
0.004180587562
0.004171781451
0.004177477245
0.004187390664
0.004205234824
0.004224526561
0.004233652975
0.004224525309
0.004205233091
0.004187388776
0.004177475425
0.004183588994
0.004194333339
0.004213175171
0.004232837689
0.004241803018
0.004232835676
0.004213173181
0.00419433094
0.004183587168
0.004189961592
0.004201250007
0.004220604978
0.004240205223
0.004248882825
0.004240203437
0.004220602896
0.004201247229
0.004189959281
0.004196446416
0.004208005754
0.004227449555
0.004246648845
0.004254951586
0.004246646763
0.004227446786
0.004208003045
0.00419644342
0.004202905805
0.004214496057
0.00423367807
0.00425222272
0.004260094033
0.004252220712
0.004233674801
0.004214493684
0.004202903231
0.004209193938
0.004220618974
0.004239270543
0.004256989884
0.004264401066
0.004256988378
0.004239266908
0.004220615698
0.004209191476
0.004215053478
0.004226178888
0.00424413783
0.004260959039
0.004267913323
0.004260957205
0.004244134673
0.004226175376
0.00421504963
0.004219660277
0.004230472565
0.004247784155
0.004263832058
0.004270413419
0.004263830538
0.004247779935
0.004230468608
0.004219656335
)
;
    }
    side-walls
    {
        type            calculated;
        value           nonuniform List<scalar> 
261
(
0.004153925225
0.004155765969
0.004159837029
0.00416581226
0.004170086583
0.004165811983
0.004159836801
0.004155765401
0.004153924855
0.004155879818
0.004158905577
0.004165397862
0.004174464282
0.004180439278
0.004174463801
0.004165397631
0.004158905319
0.004155879782
0.004158642756
0.004163089817
0.004172283746
0.004184403123
0.004191737076
0.004184402497
0.004172282687
0.004163089085
0.004158642282
0.004162248733
0.004168222334
0.004180105169
0.004194900865
0.004203184612
0.004194900235
0.004180104473
0.004168221439
0.004162248493
0.004166661262
0.004174126876
0.004188443561
0.004205351133
0.004214204908
0.004205350565
0.004188442342
0.004174125873
0.004166660826
0.004171782667
0.004180589304
0.00419691969
0.004215317443
0.004224427617
0.004215316821
0.004196918762
0.004180587873
0.004171781996
0.004177477245
0.004187390732
0.004205235196
0.00422452657
0.004233653708
0.004224526219
0.004205234194
0.004187389257
0.004177476173
0.004183588994
0.004194333399
0.004213175657
0.00423283756
0.004241803629
0.004232837081
0.004213173734
0.004194331982
0.004183588205
0.004189961592
0.004201249969
0.004220605339
0.004240205334
0.004248883584
0.004240204795
0.00422060335
0.004201248188
0.004189960725
0.004196446416
0.004208005965
0.004227449539
0.004246648905
0.00425495263
0.004246648003
0.004227447499
0.004208003996
0.004196444836
0.004202905805
0.00421449608
0.004233677944
0.004252223391
0.004260095379
0.004252221801
0.004233675459
0.004214494172
0.004202904307
0.004209193938
0.00422061898
0.004239270717
0.004256990279
0.004264402581
0.004256989285
0.004239268241
0.004220616638
0.004209192485
0.004215053478
0.004226179243
0.004244137863
0.0042609594
0.004267914212
0.004260958151
0.004244135613
0.004226176732
0.004215051105
0.004219660277
0.004230472741
0.00424778398
0.004263832879
0.004270414052
0.00426383147
0.004247781844
0.004230470211
0.004219657421
0.004152669291
0.004153647714
0.004155841768
0.004159142582
0.00416162398
0.004159142479
0.004155841423
0.004153647608
0.004152669112
0.004153924892
0.004155765457
0.004159837274
0.004165811548
0.0041700848
0.004165811177
0.00415983591
0.004155765272
0.004153924591
0.004155879835
0.004158905069
0.004165397241
0.004174462886
0.004180436426
0.004174462676
0.004165396203
0.00415890458
0.004155879494
0.004158642423
0.004163089179
0.004172281586
0.004184400467
0.004191734295
0.004184400313
0.0041722811
0.004163088486
0.004158642004
0.004162248411
0.00416822121
0.004180103114
0.004194897926
0.004203181067
0.004194897276
0.004180102398
0.004168220533
0.004162248013
0.004166660014
0.004174125287
0.004188440747
0.00420534792
0.004214199976
0.004205346524
0.004188439428
0.004174124215
0.004166659912
0.004171781451
0.004180587007
0.004196916798
0.004215313236
0.004224422476
0.00421531171
0.004196915365
0.00418058566
0.004171780461
0.004177475425
0.004187388254
0.004205231596
0.004224522135
0.004233647242
0.004224520174
0.004205229605
0.004187386949
0.004177474154
0.004183587168
0.004194330716
0.004213171421
0.004232832513
0.004241796545
0.004232830564
0.004213169391
0.004194328874
0.004183585632
0.004189959281
0.00420124651
0.004220600186
0.004240199758
0.004248876133
0.004240197271
0.004220598495
0.004201244457
0.004189957379
0.00419644342
0.004208002256
0.004227444355
0.004246642187
0.004254944045
0.004246640026
0.004227442041
0.004207999798
0.00419644138
0.004202903231
0.004214492049
0.004233672427
0.00425221534
0.004260086468
0.004252213376
0.004233669358
0.004214489043
0.004202899895
0.004209191476
0.004220614969
0.004239264108
0.004256982774
0.004264393031
0.004256980326
0.004239260782
0.004220611006
0.004209187252
0.00421504963
0.004226174496
0.004244131521
0.004260951488
0.004267905273
0.004260948626
0.004244127291
0.004226169843
0.004215045196
0.004219656335
0.004230467585
0.004247776931
0.004263824178
0.004270404574
0.004263821913
0.004247772788
0.004230462293
0.004219651187
)
;
    }
    inlet
    {
        type            calculated;
        value           nonuniform 0();
    }
    outlet
    {
        type            calculated;
        value           nonuniform List<scalar> 
81
(
0.004219660277
0.004230472741
0.00424778398
0.004263832879
0.004270414052
0.00426383147
0.004247781844
0.004230470211
0.004219657421
0.004230472565
0.004244088733
0.004266053909
0.004286611385
0.004295106646
0.004286609448
0.004266050676
0.004244085053
0.004230468374
0.004247784155
0.004266054055
0.004295791433
0.004323942752
0.004335686968
0.004323940482
0.004295786834
0.004266048877
0.004247778541
0.004263832058
0.004286611525
0.004323942404
0.004359599733
0.004374596368
0.004359596927
0.004323937367
0.004286605066
0.004263825987
0.004270413419
0.004295106365
0.004335686358
0.0043745962
0.004391075696
0.004374591951
0.004335679747
0.004295098925
0.004270405905
0.004263830538
0.004286608742
0.004323938838
0.004359595106
0.004374591263
0.004359591124
0.004323932744
0.004286601378
0.004263823193
0.004247779935
0.004266048985
0.004295785774
0.004323935574
0.004335678496
0.004323931786
0.004295780311
0.004266043176
0.00424777395
0.004230468608
0.004244083931
0.004266047232
0.004286604018
0.004295098033
0.004286600695
0.004266043374
0.004244078017
0.004230463045
0.004219656335
0.004230467585
0.004247776931
0.004263824178
0.004270404574
0.004263821913
0.004247772788
0.004230462293
0.004219651187
)
;
    }
    procBoundary1to0
    {
        type            processor;
        value           nonuniform List<scalar> 
97
(
0.004152668723
0.004152668723
0.004153647839
0.004155841841
0.004159142087
0.004161623599
0.004159141689
0.004155841347
0.004153647433
0.004152668768
0.004152396998
0.004155901052
0.004155901052
0.004155901052
0.004161717944
0.004172576685
0.004183933544
0.004172576441
0.004161716981
0.004155899669
0.004153647062
0.004153389439
0.004155964281
0.004179731778
0.004179731778
0.004179731778
0.004223547659
0.004293091014
0.004223544434
0.004179728249
0.004161716637
0.00415584092
0.004154845794
0.004160510278
0.00418035537
0.004398794636
0.004398794636
0.004398794636
0.004890866676
0.004398771575
0.004223545391
0.004172576609
0.004159141932
0.004155887656
0.00416480805
0.004202447238
0.004351742097
0.008941877155
0.008941877155
0.008941877155
0.004890869435
0.004890869435
0.004293092146
0.004183933533
0.004161622841
0.004154845848
0.00416051019
0.00418035599
0.004238155644
0.004351745449
0.004238153819
0.004223552379
0.004223552379
0.004223552379
0.004172577624
0.004159142057
0.004153389543
0.004155964052
0.00416352032
0.004180356442
0.004202447374
0.004180355964
0.004163520127
0.004161717976
0.004161717976
0.004161717976
0.004155841681
0.004152397348
0.004153410556
0.004155963672
0.004160510549
0.004164807529
0.004160509738
0.00415596389
0.004153410191
0.00415364759
0.00415364759
0.00415364759
0.00415194857
0.004152397155
0.004153389873
0.004154846368
0.004155887929
0.004154845564
0.004153389097
0.004152396799
0.004151947944
)
;
    }
}


// ************************************************************************* //
