/*--------------------------------*- C++ -*----------------------------------*\
| =========                 |                                                 |
| \\      /  F ield         | OpenFOAM: The Open Source CFD Toolbox           |
|  \\    /   O peration     | Version:  4.x                                   |
|   \\  /    A nd           | Web:      www.OpenFOAM.org                      |
|    \\/     M anipulation  |                                                 |
\*---------------------------------------------------------------------------*/
FoamFile
{
    version     2.0;
    format      ascii;
    class       volScalarField;
    location    "8000";
    object      CO;
}
// * * * * * * * * * * * * * * * * * * * * * * * * * * * * * * * * * * * * * //

dimensions      [0 0 0 0 0 0 0];

internalField   nonuniform List<scalar> 
1174
(
0.3999975667
0.3999957503
0.3999931842
0.399989835
0.3999857368
0.399980978
0.3999756831
0.3999699938
0.3999640543
0.399958001
0.3999519606
0.39994607
0.3999405725
0.3999362466
0.3999958621
0.3999929505
0.3999890718
0.3999843144
0.3999788406
0.3999728467
0.3999665322
0.3999600783
0.399953638
0.3999473336
0.3999412629
0.3999355218
0.3999302968
0.3999262559
0.3999920954
0.3999869481
0.3999805777
0.3999733417
0.3999656269
0.3999577796
0.3999500733
0.3999427022
0.3999357895
0.3999294021
0.3999235696
0.3999183118
0.3999137181
0.3999102678
0.3999865738
0.3999785757
0.3999693922
0.3999596936
0.3999500372
0.3999408219
0.399932296
0.3999245858
0.39991773
0.3999117101
0.3999064757
0.3999019719
0.3998981991
0.3998954541
0.3999826293
0.3999730653
0.3999626312
0.3999520605
0.3999418821
0.3999324325
0.3999238928
0.3999163313
0.3999097399
0.3999040636
0.3998992238
0.3998951411
0.3998917859
0.3998893819
0.3999865739
0.3999785758
0.3999693925
0.3999596939
0.3999500375
0.3999408224
0.3999322965
0.3999245865
0.3999177308
0.3999117111
0.399906477
0.3999019734
0.3998982008
0.399895456
0.3999920956
0.3999869483
0.3999805779
0.3999733421
0.3999656273
0.3999577801
0.399950074
0.3999427032
0.3999357908
0.3999294037
0.3999235715
0.3999183142
0.3999137209
0.3999102709
0.3999958623
0.3999929507
0.399989072
0.3999843147
0.3999788409
0.3999728473
0.3999665329
0.3999600793
0.3999536393
0.3999473354
0.3999412652
0.3999355245
0.3999303001
0.3999262596
0.3999975669
0.3999957505
0.3999931843
0.3999898352
0.399985737
0.3999809784
0.3999756837
0.3999699947
0.3999640556
0.3999580027
0.3999519629
0.3999460728
0.399940576
0.3999362506
0.3999978274
0.3999958622
0.3999929506
0.3999890719
0.3999843146
0.3999788407
0.3999728469
0.3999665324
0.3999600785
0.3999536382
0.3999473339
0.3999412631
0.399935522
0.399930297
0.3999262561
0.3999920172
0.3999869039
0.3999806672
0.3999736806
0.3999663185
0.3999588952
0.3999516442
0.3999447206
0.3999382154
0.3999321739
0.3999266132
0.3999215504
0.3999170798
0.3999136926
0.3999823393
0.3999724015
0.3999615991
0.3999508447
0.399940762
0.3999316889
0.399923746
0.3999169139
0.3999110967
0.3999061673
0.3999019958
0.3998984725
0.3998955522
0.3998934369
0.3999651295
0.3999486008
0.3999328851
0.3999191558
0.3999078191
0.3998988161
0.399891863
0.3998866024
0.3998826848
0.3998798047
0.3998777115
0.3998762088
0.3998751541
0.3998744916
0.3999488834
0.3999289928
0.3999121441
0.3998987761
0.3998886189
0.3998811516
0.3998758208
0.3998721307
0.3998696707
0.3998681152
0.3998672131
0.3998667721
0.399866639
0.3998666668
0.39996513
0.3999486014
0.3999328858
0.3999191566
0.39990782
0.3998988171
0.3998918641
0.3998866036
0.3998826862
0.3998798063
0.3998777133
0.3998762108
0.3998751563
0.399874494
0.3999823398
0.399972402
0.3999615997
0.3999508454
0.3999407628
0.39993169
0.3999237473
0.3999169154
0.3999110986
0.3999061696
0.3999019986
0.3998984757
0.3998955558
0.3998934409
0.3999920175
0.3999869041
0.3999806675
0.399973681
0.399966319
0.399958896
0.3999516453
0.399944722
0.3999382173
0.3999321762
0.3999266161
0.3999215539
0.3999170839
0.3999136972
0.3999958623
0.3999929507
0.399989072
0.3999843148
0.3999788411
0.3999728475
0.3999665332
0.3999600797
0.3999536399
0.3999473362
0.3999412661
0.3999355257
0.3999303014
0.3999262611
0.3999957957
0.3999920957
0.3999869484
0.399980578
0.3999733421
0.3999656274
0.3999577801
0.3999500738
0.3999427028
0.3999357901
0.3999294027
0.3999235701
0.3999183123
0.3999137186
0.3999102682
0.3999903633
0.3999823395
0.3999724018
0.3999615994
0.399950845
0.3999407623
0.3999316893
0.3999237464
0.3999169143
0.3999110971
0.3999061677
0.3999019962
0.3998984729
0.3998955525
0.3998934372
0.3999537345
0.3999327631
0.3999137759
0.3998982071
0.3998863481
0.3998778518
0.399872111
0.3998684815
0.3998663902
0.3998653725
0.399865073
0.3998652274
0.3998656297
0.3998660589
0.3998900734
0.3998546456
0.3998302193
0.3998158002
0.3998090174
0.3998074819
0.3998092665
0.3998129749
0.3998176607
0.3998227138
0.3998277552
0.3998325457
0.3998368631
0.3998401604
0.3998066458
0.3997713941
0.3997562754
0.3997536249
0.3997579673
0.3997658546
0.3997752427
0.3997849684
0.3997943977
0.3998032075
0.3998112504
0.3998184578
0.3998247042
0.3998293633
0.3998900754
0.3998546475
0.3998302212
0.3998158021
0.3998090192
0.3998074838
0.3998092684
0.3998129768
0.3998176628
0.399822716
0.3998277577
0.3998325484
0.399836866
0.3998401635
0.399953736
0.3999327645
0.3999137773
0.3998982087
0.3998863499
0.3998778539
0.3998721133
0.3998684841
0.3998663932
0.3998653759
0.3998650769
0.3998652318
0.3998656345
0.3998660642
0.3999823398
0.3999724021
0.3999615999
0.3999508458
0.3999407633
0.3999316907
0.3999237482
0.3999169165
0.3999110999
0.3999061711
0.3999020004
0.3998984777
0.399895558
0.3998934433
0.3999920956
0.3999869484
0.3999805781
0.3999733424
0.3999656278
0.3999577809
0.3999500751
0.3999427046
0.3999357926
0.399929406
0.3999235742
0.3999183173
0.3999137244
0.3999102749
0.3999927429
0.3999865743
0.3999785763
0.399969393
0.3999596945
0.3999500381
0.399940823
0.3999322971
0.399924587
0.3999177312
0.3999117112
0.3999064768
0.399901973
0.3998982001
0.399895455
0.3999803349
0.3999651303
0.3999486017
0.3999328861
0.3999191568
0.3999078202
0.3998988173
0.3998918642
0.3998866036
0.399882686
0.3998798058
0.3998777125
0.3998762098
0.399875155
0.3998744924
0.3999333158
0.3998900745
0.3998546466
0.3998302202
0.399815801
0.3998090182
0.3998074827
0.3998092673
0.3998129756
0.3998176614
0.3998227145
0.3998277559
0.3998325463
0.3998368636
0.3998401608
0.3996717014
0.3996270669
0.3996196809
0.3996324727
0.3996542634
0.3996787413
0.3997027051
0.3997247262
0.3997443126
0.3997614318
0.3997762492
0.3997889686
0.399799627
0.399807397
0.3992429122
0.3992988362
0.3993848322
0.3994672946
0.3995373549
0.3995944866
0.3996405422
0.3996777079
0.3997078909
0.3997326042
0.3997529996
0.399769905
0.3997837189
0.3997936293
0.399671708
0.3996270716
0.3996196849
0.3996324763
0.3996542667
0.3996787443
0.399702708
0.3997247291
0.3997443155
0.3997614348
0.3997762525
0.3997889721
0.3997996306
0.3998074009
0.3998900752
0.399854648
0.3998302222
0.3998158036
0.3998090211
0.3998074859
0.3998092707
0.3998129794
0.3998176656
0.399822719
0.399827761
0.3998325519
0.3998368697
0.3998401674
0.3999651299
0.3999486016
0.3999328864
0.3999191576
0.3999078215
0.3998988191
0.3998918665
0.3998866065
0.3998826896
0.3998798102
0.3998777178
0.3998762158
0.3998751618
0.3998744998
0.3999865739
0.3999785759
0.3999693928
0.3999596946
0.3999500386
0.399940824
0.3999322987
0.3999245892
0.3999177343
0.3999117153
0.3999064819
0.3999019791
0.3998982072
0.3998954631
0.3999904512
0.3999826298
0.399973066
0.3999626321
0.3999520615
0.3999418834
0.3999324339
0.3999238943
0.3999163329
0.3999097416
0.3999040652
0.3998992253
0.3998951425
0.3998917872
0.3998893831
0.3999698624
0.3999488844
0.3999289939
0.3999121454
0.3998987775
0.3998886205
0.3998811532
0.3998758225
0.3998721324
0.3998696724
0.3998681169
0.3998672147
0.3998667735
0.3998666402
0.399866668
0.3998692689
0.3998066472
0.3997713958
0.3997562771
0.3997536266
0.399757969
0.3997658562
0.3997752443
0.39978497
0.3997943993
0.399803209
0.3998112518
0.399818459
0.3998247053
0.3998293642
0.3993192412
0.3992429175
0.3992988397
0.3993848348
0.3994672966
0.3995373566
0.3995944881
0.3996405436
0.3996777092
0.3997078921
0.3997326053
0.3997530006
0.3997699059
0.3997837196
0.3997936299
0.3973963365
0.3983355998
0.3988558302
0.3991604124
0.3993490574
0.3994724363
0.3995572815
0.3996182621
0.3996637592
0.3996987607
0.3997263479
0.3997484503
0.3997660733
0.3997785226
0.3992429114
0.3992988419
0.3993848392
0.3994673014
0.3995373612
0.3995944923
0.3996405475
0.3996777129
0.3997078957
0.399732609
0.3997530044
0.3997699099
0.3997837239
0.3997936344
0.3998066452
0.3997713961
0.3997562791
0.3997536296
0.3997579726
0.3997658602
0.3997752485
0.3997849745
0.3997944041
0.3998032143
0.3998112576
0.3998184654
0.3998247121
0.3998293716
0.3999488833
0.3999289934
0.3999121456
0.3998987785
0.399888622
0.3998811554
0.3998758252
0.3998721359
0.3998696766
0.399868122
0.3998672206
0.3998667803
0.3998666479
0.3998666763
0.3999826292
0.3999730654
0.3999626318
0.3999520616
0.3999418839
0.399932435
0.3999238961
0.3999163356
0.3999097452
0.3999040699
0.3998992311
0.3998951495
0.3998917952
0.3998893921
0.3999927429
0.3999865744
0.3999785765
0.3999693933
0.3999596949
0.3999500388
0.3999408238
0.3999322981
0.3999245882
0.3999177326
0.3999117129
0.3999064787
0.399901975
0.3998982023
0.3998954573
0.3999803352
0.3999651309
0.3999486025
0.3999328871
0.399919158
0.3999078216
0.3998988189
0.399891866
0.3998866056
0.3998826882
0.3998798082
0.3998777151
0.3998762125
0.3998751579
0.3998744954
0.3999333183
0.399890077
0.3998546494
0.3998302231
0.399815804
0.3998090213
0.3998074859
0.3998092705
0.399812979
0.399817665
0.3998227181
0.3998277597
0.3998325502
0.3998368676
0.399840165
0.3997718911
0.3996717119
0.3996270751
0.399619688
0.399632479
0.3996542692
0.3996787468
0.3997027103
0.3997247313
0.3997443176
0.3997614368
0.3997762543
0.3997889737
0.3997996321
0.3998074022
0.3993192394
0.3992429175
0.3992988462
0.3993848426
0.3994673042
0.3995373636
0.3995944945
0.3996405494
0.3996777146
0.3997078973
0.3997326104
0.3997530057
0.3997699111
0.3997837248
0.3997936352
0.3997718899
0.3996717127
0.3996270773
0.3996196909
0.3996324823
0.3996542726
0.39967875
0.3997027135
0.3997247345
0.3997443209
0.3997614401
0.3997762579
0.3997889775
0.3997996362
0.3998074066
0.3998900735
0.3998546484
0.3998302239
0.399815806
0.399809024
0.3998074891
0.3998092742
0.399812983
0.3998176695
0.3998227232
0.3998277653
0.3998325564
0.3998368743
0.3998401722
0.3999651293
0.3999486014
0.3999328868
0.3999191584
0.3999078226
0.3998988206
0.3998918684
0.3998866087
0.3998826922
0.3998798131
0.3998777209
0.3998762192
0.3998751654
0.3998745037
0.3999865736
0.3999785758
0.3999693928
0.3999596948
0.3999500391
0.3999408248
0.3999322998
0.3999245907
0.3999177361
0.3999117175
0.3999064844
0.3999019819
0.3998982103
0.3998954663
0.3999957958
0.399992096
0.3999869489
0.3999805787
0.399973343
0.3999656285
0.3999577815
0.3999500756
0.3999427049
0.3999357925
0.3999294055
0.3999235733
0.3999183158
0.3999137224
0.3999102723
0.3999903639
0.3999823403
0.3999724028
0.3999616007
0.3999508467
0.3999407643
0.3999316916
0.3999237492
0.3999169174
0.3999111006
0.3999061716
0.3999020005
0.3998984775
0.3998955574
0.3998934424
0.3999737305
0.399953737
0.3999327657
0.3999137788
0.3998982103
0.3998863517
0.3998778558
0.3998721154
0.3998684862
0.3998663954
0.3998653781
0.399865079
0.3998652337
0.3998656363
0.3998660657
0.3999333182
0.3998900773
0.3998546503
0.3998302245
0.3998158059
0.3998090234
0.3998074883
0.3998092731
0.3998129818
0.3998176679
0.3998227213
0.399827763
0.3998325538
0.3998368714
0.3998401689
0.3998692684
0.3998066486
0.3997713991
0.3997562818
0.3997536321
0.3997579748
0.3997658623
0.3997752506
0.3997849765
0.399794406
0.3998032161
0.3998112592
0.3998184669
0.3998247134
0.3998293727
0.3999333185
0.399890078
0.3998546514
0.399830226
0.3998158076
0.3998090253
0.3998074903
0.3998092753
0.3998129841
0.3998176704
0.399822724
0.3998277661
0.3998325571
0.399836875
0.3998401727
0.3999737297
0.3999537364
0.3999327656
0.3999137793
0.3998982114
0.3998863533
0.3998778579
0.3998721179
0.3998684893
0.3998663989
0.3998653822
0.3998650837
0.399865239
0.3998656421
0.3998660721
0.3999823393
0.3999724021
0.3999616004
0.3999508468
0.3999407649
0.3999316928
0.3999237509
0.3999169198
0.3999111038
0.3999061756
0.3999020054
0.3998984833
0.399895564
0.3998934497
0.3999920953
0.3999869483
0.3999805782
0.3999733428
0.3999656286
0.3999577821
0.3999500769
0.3999427069
0.3999357955
0.3999294095
0.3999235783
0.3999183219
0.3999137295
0.3999102804
0.3999978276
0.3999958625
0.3999929511
0.3999890726
0.3999843155
0.3999788419
0.3999728484
0.3999665342
0.3999600807
0.3999536409
0.399947337
0.3999412667
0.3999355261
0.3999303015
0.3999262609
0.3999957424
0.3999920179
0.3999869047
0.3999806682
0.399973682
0.3999663202
0.3999588974
0.3999516468
0.3999447237
0.3999382191
0.399932178
0.3999266179
0.3999215556
0.3999170855
0.3999136986
0.3999903639
0.3999823403
0.3999724029
0.3999616009
0.399950847
0.3999407648
0.3999316923
0.3999237501
0.3999169185
0.3999111019
0.3999061732
0.3999020023
0.3998984796
0.3998955597
0.3998934448
0.3999803351
0.399965131
0.3999486029
0.399932888
0.3999191594
0.3999078234
0.3998988211
0.3998918687
0.3998866088
0.3998826919
0.3998798125
0.3998777199
0.3998762177
0.3998751636
0.3998745014
0.3999698623
0.3999488849
0.3999289952
0.3999121475
0.3998987805
0.3998886241
0.3998811575
0.3998758274
0.399872138
0.3998696788
0.399868124
0.3998672225
0.3998667821
0.3998666494
0.3998666777
0.3999803352
0.3999651312
0.3999486033
0.3999328885
0.3999191601
0.3999078243
0.3998988222
0.39989187
0.3998866103
0.3998826937
0.3998798145
0.3998777222
0.3998762204
0.3998751665
0.3998745046
0.3999903638
0.3999823403
0.399972403
0.3999616013
0.3999508476
0.3999407657
0.3999316936
0.3999237517
0.3999169206
0.3999111046
0.3999061763
0.3999020061
0.3998984839
0.3998955646
0.3998934502
0.3999957422
0.3999920176
0.3999869045
0.3999806682
0.3999736821
0.3999663206
0.3999588982
0.3999516482
0.3999447256
0.3999382216
0.3999321814
0.399926622
0.3999215605
0.3999170911
0.3999137048
0.3999958621
0.3999929507
0.3999890723
0.3999843153
0.399978842
0.3999728489
0.3999665352
0.3999600824
0.3999536433
0.3999473403
0.399941271
0.3999355312
0.3999303076
0.3999262678
0.3999987347
0.399997567
0.3999957508
0.3999931848
0.3999898358
0.3999857378
0.3999809794
0.3999756848
0.399969996
0.399964057
0.3999580041
0.3999519644
0.3999460742
0.3999405773
0.3999362519
0.3999978275
0.3999958625
0.3999929511
0.3999890726
0.3999843155
0.399978842
0.3999728486
0.3999665345
0.3999600812
0.3999536415
0.3999473378
0.3999412677
0.3999355272
0.3999303028
0.3999262625
0.3999957958
0.399992096
0.3999869489
0.3999805789
0.3999733434
0.3999656291
0.3999577823
0.3999500767
0.3999427064
0.3999357944
0.3999294078
0.399923576
0.399918319
0.399913726
0.3999102763
0.3999927429
0.3999865745
0.3999785768
0.3999693939
0.3999596959
0.3999500402
0.3999408258
0.3999323007
0.3999245913
0.3999177365
0.3999117175
0.399906484
0.399901981
0.399898209
0.3998954647
0.3999904512
0.39998263
0.3999730666
0.3999626332
0.3999520632
0.3999418857
0.3999324369
0.3999238982
0.3999163377
0.3999097473
0.399904072
0.3998992331
0.3998951513
0.3998917969
0.3998893936
0.3999927429
0.3999865746
0.399978577
0.3999693942
0.3999596963
0.3999500407
0.3999408265
0.3999323016
0.3999245924
0.3999177379
0.3999117192
0.399906486
0.3999019833
0.3998982116
0.3998954675
0.3999957958
0.399992096
0.399986949
0.399980579
0.3999733437
0.3999656296
0.3999577832
0.3999500779
0.399942708
0.3999357965
0.3999294105
0.3999235793
0.3999183228
0.3999137303
0.3999102811
0.3999978275
0.3999958624
0.399992951
0.3999890726
0.3999843156
0.3999788423
0.3999728492
0.3999665356
0.3999600827
0.3999536436
0.3999473406
0.3999412712
0.3999355315
0.3999303078
0.399926268
0.3999987346
0.3999975669
0.3999957506
0.3999931846
0.3999898357
0.399985738
0.3999809798
0.3999756857
0.3999699974
0.3999640591
0.399958007
0.3999519681
0.3999460788
0.3999405828
0.3999362581
)
;

boundaryField
{
    top
    {
        type            zeroGradient;
    }
    bottom
    {
        type            zeroGradient;
    }
    side-walls
    {
        type            zeroGradient;
    }
    inlet
    {
        type            zeroGradient;
    }
    outlet
    {
        type            zeroGradient;
    }
    procBoundary1to0
    {
        type            processor;
        value           nonuniform List<scalar> 
97
(
0.3999987346
0.3999987346
0.3999978275
0.3999957959
0.3999927431
0.3999904515
0.3999927432
0.399995796
0.3999978276
0.3999987347
0.399998989
0.3999957422
0.3999957422
0.3999957422
0.3999903638
0.3999803356
0.3999698637
0.399980336
0.3999903643
0.3999957426
0.3999978276
0.399998069
0.3999956865
0.3999737295
0.3999737295
0.3999737295
0.3999333193
0.3998692759
0.3999333215
0.3999737317
0.3999903643
0.399995796
0.3999967206
0.3999914838
0.3999731563
0.3997718884
0.3997718884
0.3997718884
0.3993192844
0.3997719023
0.3999333214
0.3999803359
0.3999927431
0.3999957572
0.3999875159
0.3999527837
0.3998151962
0.3956051288
0.3956051288
0.3956051288
0.3993192808
0.3993192808
0.3998692749
0.3999698635
0.3999904515
0.3999967205
0.3999914837
0.3999731559
0.3999198428
0.399815193
0.3999198442
0.3999333168
0.3999333168
0.3999333168
0.3999803352
0.399992743
0.3999980691
0.3999956865
0.3999887012
0.3999731559
0.3999527832
0.3999731562
0.3999887013
0.3999903634
0.3999903634
0.3999903634
0.3999957958
0.399998989
0.39999805
0.3999956865
0.3999914837
0.3999875159
0.3999914838
0.3999956866
0.39999805
0.3999978274
0.3999978274
0.3999978274
0.3999994053
0.399998989
0.399998069
0.3999967205
0.3999957571
0.3999967206
0.3999980691
0.399998989
0.3999994053
)
;
    }
}


// ************************************************************************* //
