/*--------------------------------*- C++ -*----------------------------------*\
| =========                 |                                                 |
| \\      /  F ield         | OpenFOAM: The Open Source CFD Toolbox           |
|  \\    /   O peration     | Version:  4.x                                   |
|   \\  /    A nd           | Web:      www.OpenFOAM.org                      |
|    \\/     M anipulation  |                                                 |
\*---------------------------------------------------------------------------*/
FoamFile
{
    version     2.0;
    format      ascii;
    class       volScalarField;
    location    "8000";
    object      CO2;
}
// * * * * * * * * * * * * * * * * * * * * * * * * * * * * * * * * * * * * * //

dimensions      [0 0 0 0 0 0 0];

internalField   nonuniform List<scalar> 
1174
(
3.114408576e-06
5.438583681e-06
8.722154211e-06
1.300779294e-05
1.825203655e-05
2.434179551e-05
3.111796185e-05
3.839909293e-05
4.600084137e-05
5.374863122e-05
6.147991572e-05
6.901970113e-05
7.605602582e-05
8.159279753e-05
5.295370946e-06
9.020729612e-06
1.398362232e-05
2.00709016e-05
2.707527554e-05
3.474540709e-05
4.282642547e-05
5.108634213e-05
5.932936953e-05
6.739879655e-05
7.516959096e-05
8.251853085e-05
8.920673726e-05
9.437903007e-05
1.011432702e-05
1.669988836e-05
2.485055872e-05
3.410891523e-05
4.398052659e-05
5.402232645e-05
6.388440843e-05
7.331834421e-05
8.21665454e-05
9.034304026e-05
9.780990099e-05
0.0001045412031
0.0001104223226
0.0001148394151
1.717815344e-05
2.741069378e-05
3.916005858e-05
5.156909977e-05
6.39249274e-05
7.57171241e-05
8.662838939e-05
9.649687951e-05
0.0001052729112
0.0001129800195
0.0001196822504
0.000125449548
0.0001302809583
0.0001337960285
2.222407408e-05
3.445977821e-05
4.780908286e-05
6.13339062e-05
7.435752637e-05
8.644985109e-05
9.737888399e-05
0.0001070573046
0.0001154953625
0.0001227631168
0.0001289608897
0.0001341895874
0.0001384869113
0.000141565754
1.717795007e-05
2.741039971e-05
3.915966563e-05
5.156858712e-05
6.392426746e-05
7.571628735e-05
8.662731026e-05
9.649550373e-05
0.0001052711666
0.000112977845
0.0001196795984
0.0001254464137
0.0001302773526
0.0001337919962
1.011403729e-05
1.669951981e-05
2.485009433e-05
3.410831599e-05
4.397973113e-05
5.402125055e-05
6.388295013e-05
7.331638384e-05
8.216394994e-05
9.033969677e-05
9.780570974e-05
0.0001045361321
0.0001104163942
0.0001148327198
5.295073592e-06
9.020402826e-06
1.398324912e-05
2.007043595e-05
2.707463881e-05
3.474448759e-05
4.282508066e-05
5.108440621e-05
5.932666507e-05
6.739516288e-05
7.516490075e-05
8.251272382e-05
8.919983282e-05
9.437114605e-05
3.114185097e-06
5.438392451e-06
8.721968569e-06
1.300756309e-05
1.825168074e-05
2.43411937e-05
3.111694934e-05
3.839747624e-05
4.599839684e-05
5.374516334e-05
6.147524593e-05
6.901374096e-05
7.604874522e-05
8.158420392e-05
2.780653609e-06
5.295077661e-06
9.020423636e-06
1.398328713e-05
2.007052934e-05
2.707486077e-05
3.474495076e-05
4.282594138e-05
5.10858364e-05
5.932885949e-05
6.739830073e-05
7.516911924e-05
8.251809588e-05
8.920634984e-05
9.437869116e-05
1.0214373e-05
1.675643259e-05
2.473587683e-05
3.367516955e-05
4.309552599e-05
5.25946899e-05
6.187425881e-05
7.073579304e-05
7.906246368e-05
8.679650181e-05
9.391543901e-05
0.0001003972615
0.0001061207906
0.0001104571462
2.259548299e-05
3.530923733e-05
4.912960371e-05
6.288925188e-05
7.579054591e-05
8.740099895e-05
9.756651698e-05
0.0001063119495
0.0001137595686
0.0001200718278
0.0001254144833
0.000129927629
0.0001336686156
0.0001363780688
4.461084399e-05
6.575601502e-05
8.5861886e-05
0.0001034277145
0.0001179336995
0.0001294552573
0.0001383554831
0.0001450913344
0.0001501097302
0.0001538012734
0.0001564861136
0.0001584149994
0.0001597697725
0.0001606209926
6.539236573e-05
9.083820106e-05
0.0001123936917
0.0001294976282
0.0001424951843
0.0001520527484
0.0001588780112
0.0001636051183
0.0001667592392
0.0001687565106
0.0001699178975
0.000170488828
0.0001706648052
0.0001706328302
4.460995473e-05
6.575495349e-05
8.586066122e-05
0.0001034263238
0.0001179321224
0.0001294534538
0.0001383534153
0.000145088936
0.0001501069526
0.0001537980038
0.0001564823437
0.0001584107068
0.0001597649971
0.0001606157363
2.259459549e-05
3.530829371e-05
4.912853536e-05
6.288798039e-05
7.578893768e-05
8.739899045e-05
9.756397431e-05
0.0001063087758
0.0001137555901
0.0001200669585
0.0001254086453
0.0001299208036
0.0001336608285
0.0001363694134
1.02138177e-05
1.675597059e-05
2.473537924e-05
3.367451659e-05
4.309457757e-05
5.259329512e-05
6.187225513e-05
7.073298954e-05
7.9058669e-05
8.679154707e-05
9.390920236e-05
0.0001003897026
0.0001061119505
0.0001104471617
5.295097018e-06
9.020406678e-06
1.398320763e-05
2.007031078e-05
2.707438504e-05
3.474405777e-05
4.282441984e-05
5.108345046e-05
5.932537167e-05
6.739347531e-05
7.516279296e-05
8.251018501e-05
8.919686662e-05
9.436766354e-05
5.379853109e-06
1.011368579e-05
1.669914039e-05
2.484969065e-05
3.410792398e-05
4.39794161e-05
5.402110333e-05
6.3883089e-05
7.331697393e-05
8.216517439e-05
9.03417088e-05
9.780864769e-05
0.000104540064
0.0001104213142
0.0001148385029
1.232983843e-05
2.259477344e-05
3.530856442e-05
4.912891108e-05
6.288851956e-05
7.578973769e-05
8.740013536e-05
9.756559331e-05
0.0001063109942
0.0001137586083
0.0001200708959
0.0001254136147
0.0001299268251
0.0001336679166
0.0001363774373
5.918844342e-05
8.6016377e-05
0.0001103071846
0.000130226211
0.0001454005674
0.0001562742193
0.0001636239963
0.0001682736888
0.0001709562211
0.0001722655976
0.0001726562248
0.0001724656659
0.0001719568038
0.0001714115967
0.0001406236471
0.0001859442018
0.0002171934208
0.0002356427847
0.0002443248715
0.0002462953871
0.0002440197694
0.0002392838803
0.0002332980202
0.0002268426267
0.0002204017842
0.0002142812546
0.0002087646291
0.000204550646
0.0002473384966
0.0002924349527
0.0003117794155
0.0003151757751
0.0003096275906
0.0002995454596
0.000287544055
0.000275111346
0.0002630580628
0.0002517973381
0.0002415173124
0.0002323051958
0.0002243210934
0.0002183650329
0.0001406200661
0.0001859407749
0.0002171900056
0.0002356392877
0.0002443212566
0.0002462916905
0.0002440158967
0.0002392797765
0.0002332935775
0.0002268377039
0.0002203963277
0.0002142752759
0.0002087581145
0.0002045436404
5.918575629e-05
8.601405435e-05
0.0001103047154
0.0001302233252
0.0001453971602
0.0001562702492
0.0001636193877
0.0001682683187
0.0001709499311
0.0001722582925
0.0001726477986
0.0001724561244
0.0001719462172
0.0001714000053
2.259459815e-05
3.530815039e-05
4.912816637e-05
6.288729117e-05
7.578789509e-05
8.739754602e-05
9.756209781e-05
0.0001063064205
0.0001137527271
0.000120063548
0.0001254046852
0.0001299163181
0.0001336559108
0.0001363641061
1.011407008e-05
1.669944498e-05
2.484981563e-05
3.4107721e-05
4.397870575e-05
5.401968457e-05
6.388070945e-05
7.331336011e-05
8.216005251e-05
9.033481779e-05
9.779982963e-05
0.0001045292645
0.0001104085832
0.0001148239373
9.285380026e-06
1.717706808e-05
2.740933953e-05
3.915843417e-05
5.156720575e-05
6.392277334e-05
7.571475554e-05
8.662583672e-05
9.649422465e-05
0.0001052702494
0.0001129774535
0.0001196798414
0.0001254473523
0.0001302789871
0.0001337942634
2.515848296e-05
4.46090558e-05
6.575407161e-05
8.585978988e-05
0.0001034254868
0.0001179313468
0.0001294527891
0.00013835295
0.0001450887721
0.0001501072381
0.0001537988565
0.0001564838998
0.0001584130025
0.0001597680249
0.0001606194143
8.530696706e-05
0.0001406208582
0.0001859419092
0.0002171914079
0.0002356408971
0.0002443230328
0.0002462936263
0.0002440180237
0.0002392821945
0.0002332964074
0.0002268411022
0.0002204003636
0.0002142800045
0.0002087635519
0.0002045497156
0.0004199582995
0.0004770552773
0.0004865086582
0.0004701526242
0.0004422860664
0.0004109826431
0.0003803372194
0.0003521771594
0.0003271318721
0.0003052426709
0.0002862972908
0.0002700348172
0.0002564073167
0.0002464719112
0.0009684262883
0.000896902059
0.0007869113554
0.0006814393863
0.0005918306225
0.000518759023
0.0004598555098
0.0004123237968
0.000373724168
0.0003421209936
0.0003160406612
0.0002944236547
0.0002767597516
0.0002640863977
0.000419946453
0.000477046805
0.0004865011055
0.0004701454543
0.0004422792278
0.0004109760395
0.0003803308482
0.0003521708006
0.0003271253946
0.000305235848
0.0002862899827
0.0002700270017
0.0002563989743
0.0002464630541
0.0001406203732
0.0001859397929
0.0002171877751
0.0002356360121
0.0002443171593
0.00024628699
0.0002440106477
0.0002392740419
0.0002332873681
0.0002268309777
0.0002203890659
0.0002142675176
0.000208749949
0.0002045350633
4.461017266e-05
6.575452635e-05
8.585934835e-05
0.0001034240047
0.0001179287765
0.0001294490809
0.0001383479776
0.0001450824023
0.00015009926
0.0001537891545
0.000156472309
0.0001583995531
0.0001597528632
0.000160602769
1.717807525e-05
2.741023155e-05
3.915898115e-05
5.156717018e-05
6.392192889e-05
7.571285345e-05
8.662260688e-05
9.648935986e-05
0.0001052634605
0.000112968459
0.0001196685044
0.0001254336338
0.0001302630259
0.0001337761651
1.221697257e-05
2.222282014e-05
3.445815005e-05
4.780705384e-05
6.133147305e-05
7.435471304e-05
8.644668612e-05
9.737546027e-05
0.0001070537194
0.000115491732
0.000122759587
0.000128957556
0.0001341865501
0.0001384841718
0.0001415633051
3.855451662e-05
6.539019425e-05
9.08356597e-05
0.0001123908287
0.0001294944946
0.000142491804
0.0001520491383
0.0001588742581
0.0001636013079
0.0001667554741
0.0001687528883
0.0001699145309
0.000170485782
0.000170662128
0.0001706304509
0.000167230117
0.0002473345969
0.0002924308795
0.0003117754606
0.000315171879
0.0003096237726
0.0002995417087
0.0002875403695
0.0002751077557
0.0002630545784
0.0002517940387
0.0002415143095
0.0002323025639
0.0002243187536
0.0002183629642
0.0008707830255
0.0009684143034
0.000896894254
0.0007869057566
0.0006814350726
0.0005918269449
0.0005187558373
0.0004598526082
0.0004123210769
0.0003737216887
0.0003421187872
0.0003160387038
0.0002944218686
0.0002767582072
0.0002640850455
0.003330380947
0.00212898127
0.001463562566
0.001073977496
0.0008326869209
0.0006748784084
0.0005663588018
0.000488365295
0.0004301771593
0.0003854143113
0.0003501348578
0.0003218703095
0.0002993340352
0.0002834129179
0.0009684276296
0.0008968909354
0.0007868968534
0.0006814248569
0.000591816954
0.0005187465358
0.0004598439158
0.0004123127762
0.0003737134037
0.0003421103379
0.0003160299338
0.0002944126861
0.0002767485418
0.0002640749258
0.0002473397197
0.0002924308138
0.0003117715235
0.0003151655274
0.0003096160352
0.0002995330512
0.0002875310605
0.0002750976975
0.000263043653
0.0002517820779
0.0002415012054
0.0002322882224
0.0002243032993
0.0002183464472
6.539276032e-05
9.083689777e-05
0.0001123904774
0.0001294925584
0.0001424884343
0.0001520443867
0.0001588680822
0.0001635935771
0.0001667460133
0.0001687415088
0.0001699011324
0.0001704704043
0.0001706449126
0.0001706116539
2.222431638e-05
3.445944809e-05
4.780781593e-05
6.133142884e-05
7.435362035e-05
8.644429597e-05
9.737147594e-05
0.0001070478608
0.0001154836819
0.0001227490988
0.0001289444576
0.0001341708717
0.0001384660557
0.0001415429189
9.285329542e-06
1.717684856e-05
2.740890097e-05
3.91577232e-05
5.156617502e-05
6.392139546e-05
7.571297227e-05
8.662364737e-05
9.649160127e-05
0.0001052671736
0.0001129739276
0.0001196758647
0.0001254429579
0.0001302742358
0.0001337891646
2.51579301e-05
4.460800893e-05
6.575254209e-05
8.585781002e-05
0.0001034230488
0.0001179284427
0.0001294494287
0.0001383491356
0.00014508452
0.0001501025151
0.0001537937072
0.0001564783062
0.0001584070418
0.000159761725
0.0001606127899
8.530194838e-05
0.0001406159973
0.0001859364532
0.0002171855122
0.0002356346669
0.0002443165156
0.0002462868121
0.0002440109672
0.0002392748673
0.0002332887516
0.0002268331555
0.0002203921366
0.0002142714797
0.0002087548084
0.0002045406967
0.0002917913025
0.0004199366507
0.0004770385046
0.0004864939975
0.0004701391879
0.0004422734813
0.0004109706454
0.0003803257095
0.000352165968
0.0003271208505
0.0003052316508
0.0002862862159
0.0002700236568
0.0002563960648
0.000246460484
0.0008707841311
0.0009684129903
0.0008968810889
0.0007868895087
0.0006814190548
0.0005918121031
0.0005187423031
0.0004598401491
0.0004123093358
0.0003737103446
0.0003421076002
0.0003160274939
0.0002944105483
0.000276746723
0.0002640733099
0.0002917943925
0.0004199360088
0.0004770344154
0.0004864877946
0.0004701319853
0.0004422659796
0.0004109632582
0.000380318413
0.0003521586703
0.0003271133195
0.0003052237791
0.0002862778203
0.000270014756
0.0002563866095
0.0002464504821
0.0001406235479
0.0001859385995
0.0002171838522
0.0002356304246
0.0002443105162
0.0002462796243
0.0002440027445
0.0002392656519
0.0002332784773
0.0002268216565
0.0002203793337
0.0002142573883
0.0002087395131
0.0002045243013
4.46113552e-05
6.575469762e-05
8.585842837e-05
0.0001034220919
0.0001179259724
0.000129445446
0.0001383435702
0.000145077281
0.0001500934246
0.0001537826105
0.0001564651107
0.0001583918145
0.0001597446432
0.0001605941231
1.717848739e-05
2.741041611e-05
3.915876009e-05
5.156642572e-05
6.392058601e-05
7.571083264e-05
8.66198776e-05
9.6485886e-05
0.0001052592146
0.0001129634679
0.0001196627734
0.0001254272643
0.0001302560978
0.0001337687747
5.379631627e-06
1.011317384e-05
1.669827624e-05
2.48484101e-05
3.41061541e-05
4.397707781e-05
5.401814127e-05
6.387944698e-05
7.331259946e-05
8.216004056e-05
9.033579573e-05
9.780196294e-05
0.0001045326477
0.0001104132282
0.0001148298236
1.232873767e-05
2.259321858e-05
3.530644456e-05
4.912619429e-05
6.288513049e-05
7.578561696e-05
8.739522521e-05
9.755986826e-05
0.0001063044348
0.0001137511928
0.0001200626278
0.0001254045403
0.0001299170038
0.0001336574349
0.0001363663281
3.360696513e-05
5.918323137e-05
8.601101933e-05
0.000110301216
0.0001302194103
0.0001453928691
0.0001562656387
0.0001636145238
0.0001682633182
0.000170944965
0.0001722535088
0.0001726433067
0.0001724520373
0.000171942563
0.0001713967669
8.530209779e-05
0.0001406152255
0.00018593445
0.0002171823885
0.0002356306034
0.0002443117467
0.0002462815222
0.0002440052224
0.0002392686882
0.0002332821898
0.0002268261075
0.000220384605
0.0002142634854
0.0002087463828
0.0002045319031
0.000167230775
0.0002473315214
0.0002924236111
0.0003117651859
0.0003151598583
0.0003096108122
0.0002995281512
0.0002875263283
0.0002750932315
0.0002630394784
0.0002517782366
0.0002414976639
0.0002322851001
0.0002243005414
0.0002183440229
8.53016912e-05
0.0001406140796
0.0001859322885
0.0002171792943
0.0002356268485
0.0002443075002
0.0002462769227
0.0002440002988
0.0002392633685
0.0002332763718
0.0002268197252
0.000220377586
0.0002142558301
0.0002087381382
0.0002045231306
3.360875e-05
5.918469355e-05
8.601134367e-05
0.0001103001603
0.0001302170322
0.0001453892907
0.0001562609484
0.0001636087506
0.0001682564359
0.0001709368598
0.0001722440495
0.000172632479
0.0001724398477
0.0001719291663
0.0001713822937
2.259549851e-05
3.530800613e-05
4.912688354e-05
6.288482028e-05
7.5784192e-05
8.739256578e-05
9.755580326e-05
0.0001062987856
0.0001137437626
0.000120053269
0.0001253931597
0.0001299036709
0.0001336423069
0.0001363496986
1.011452495e-05
1.669957659e-05
2.484940806e-05
3.410658703e-05
4.397668506e-05
5.401662233e-05
6.387648658e-05
7.330788561e-05
8.215324972e-05
9.032670863e-05
9.779042078e-05
0.0001045186821
0.0001103969816
0.0001148114831
2.780301226e-06
5.294476959e-06
9.019504577e-06
1.398198097e-05
2.006874467e-05
2.707249971e-05
3.474191514e-05
4.282213307e-05
5.10811689e-05
5.932326592e-05
6.739172414e-05
7.516155079e-05
8.250956005e-05
8.919690405e-05
9.436845062e-05
5.447922048e-06
1.021294531e-05
1.675470687e-05
2.473366829e-05
3.367232158e-05
4.309189782e-05
5.259016573e-05
6.186874177e-05
7.072919036e-05
7.905473494e-05
8.678762716e-05
9.390543048e-05
0.000100386172
0.0001061087164
0.0001104442042
1.232877409e-05
2.25931745e-05
3.530622585e-05
4.912571581e-05
6.288433648e-05
7.578444989e-05
8.739362823e-05
9.755782898e-05
0.0001063019159
0.0001137481707
0.0001200590751
0.0001254004575
0.0001299124043
0.000133652371
0.0001363608855
2.515802342e-05
4.460766611e-05
6.575144296e-05
8.58557406e-05
0.000103419969
0.0001179243501
0.0001294443172
0.000138343005
0.0001450773201
0.0001500942403
0.0001537843052
0.0001564677759
0.0001583954504
0.0001597491834
0.0001605994723
3.855462477e-05
6.53890805e-05
9.08328096e-05
0.0001123861285
0.0001294880512
0.0001424837673
0.0001520396264
0.0001588632743
0.000163588809
0.0001667413759
0.0001687371357
0.0001698970927
0.000170466758
0.0001706416795
0.000170608785
2.51578139e-05
4.460722597e-05
6.575065262e-05
8.585456307e-05
0.0001034183634
0.0001179223264
0.0001294418653
0.0001383400757
0.0001450738667
0.0001500901586
0.0001537795462
0.0001564623086
0.0001583892843
0.0001597424045
0.0001605921401
1.23289255e-05
2.259330487e-05
3.530607532e-05
4.912507717e-05
6.288306403e-05
7.578246807e-05
8.739084049e-05
9.755410729e-05
0.0001062971487
0.0001137422028
0.0001200518055
0.0001253918205
0.0001299024762
0.0001336412446
0.0001363487553
5.44841578e-06
1.021356058e-05
1.675522238e-05
2.473387785e-05
3.367203384e-05
4.30909256e-05
5.258830709e-05
6.18657781e-05
7.072490369e-05
7.904888833e-05
8.678005137e-05
9.389605508e-05
0.000100375018
0.0001060959244
0.0001104300526
5.295355956e-06
9.020308374e-06
1.398259994e-05
2.006900722e-05
2.707218248e-05
3.474075103e-05
4.281981603e-05
5.107738709e-05
5.931770958e-05
6.738417076e-05
7.515185253e-05
8.249771097e-05
8.918302881e-05
9.435271748e-05
1.619676048e-06
3.113725656e-06
5.437684948e-06
8.72094501e-06
1.300616606e-05
1.824987775e-05
2.433898432e-05
3.111438134e-05
3.839461748e-05
4.599535356e-05
5.374204826e-05
6.147218312e-05
6.901081051e-05
7.604600447e-05
8.158165657e-05
2.780319264e-06
5.294487824e-06
9.019489267e-06
1.398191281e-05
2.00685864e-05
2.707220871e-05
3.474144318e-05
4.282141976e-05
5.108016603e-05
5.932191331e-05
6.738998016e-05
7.515938582e-05
8.250697138e-05
8.919388944e-05
9.436491017e-05
5.379658333e-06
1.011314063e-05
1.669810036e-05
2.484799368e-05
3.4105385e-05
4.397585504e-05
5.40163485e-05
6.38769755e-05
7.330935326e-05
8.215590785e-05
9.033069909e-05
9.779586706e-05
0.0001045255635
0.0001104052198
0.0001148208575
9.285336656e-06
1.717663346e-05
2.74082534e-05
3.915643606e-05
5.156406322e-05
6.391829473e-05
7.570875065e-05
8.661814559e-05
9.648469494e-05
0.0001052587186
0.0001129638305
0.0001196641158
0.0001254295991
0.0001302593805
0.0001337728817
1.221698282e-05
2.222239045e-05
3.445694104e-05
4.78047747e-05
6.132789948e-05
7.434967137e-05
8.644000673e-05
9.736695803e-05
0.0001070432185
0.0001154790769
0.000122744646
0.0001289402849
0.000134167063
0.0001384626646
0.0001415398692
9.285248074e-06
1.717645173e-05
2.740791888e-05
3.915589043e-05
5.156325033e-05
6.391715209e-05
7.570721463e-05
8.661613171e-05
9.648213729e-05
0.0001052555197
0.0001129599449
0.0001196595127
0.0001254242993
0.0001302534675
0.000133766403
5.379648787e-06
1.011310183e-05
1.669794267e-05
2.484760245e-05
3.410463407e-05
4.397460214e-05
5.401444951e-05
6.387426905e-05
7.330566324e-05
8.21510828e-05
9.03246288e-05
9.778849481e-05
0.0001045169376
0.0001103954213
0.000114810091
2.780420355e-06
5.294657707e-06
9.019647931e-06
1.398193946e-05
2.006832705e-05
2.707147778e-05
3.47400201e-05
4.281907389e-05
5.107665129e-05
5.931700189e-05
6.738349036e-05
7.515123043e-05
8.249715233e-05
8.918252773e-05
9.435226505e-05
1.619878884e-06
3.114042628e-06
5.438044924e-06
8.721239702e-06
1.300624252e-05
1.824952998e-05
2.433795346e-05
3.111237393e-05
3.83913264e-05
4.599048553e-05
5.373536258e-05
6.146352343e-05
6.90001636e-05
7.603344828e-05
8.156735196e-05
)
;

boundaryField
{
    top
    {
        type            zeroGradient;
    }
    bottom
    {
        type            zeroGradient;
    }
    side-walls
    {
        type            zeroGradient;
    }
    inlet
    {
        type            zeroGradient;
    }
    outlet
    {
        type            zeroGradient;
    }
    procBoundary1to0
    {
        type            processor;
        value           nonuniform List<scalar> 
97
(
1.619890067e-06
1.619890067e-06
2.780409441e-06
5.379539737e-06
9.284869031e-06
1.221618589e-05
9.284706627e-06
5.37930136e-06
2.78014087e-06
1.619591452e-06
1.294193819e-06
5.448449842e-06
5.448449842e-06
5.448449842e-06
1.232880251e-05
2.515690854e-05
3.855165032e-05
2.515612894e-05
1.232790891e-05
5.447582087e-06
2.780150811e-06
2.471130635e-06
5.51907629e-06
3.360886568e-05
3.360886568e-05
3.360886568e-05
8.52993954e-05
0.0001672145138
8.529513989e-05
3.36044363e-05
1.232791918e-05
5.379320202e-06
4.196296583e-06
1.089552378e-05
3.434005184e-05
0.0002917947545
0.0002917947545
0.0002917947545
0.0008706806182
0.0002917664828
8.529539525e-05
2.515630015e-05
9.284788787e-06
5.4287659e-06
1.597125083e-05
6.04001182e-05
0.0002363899456
0.005621112867
0.005621112867
0.005621112867
0.0008706875219
0.0008706875219
0.000167216268
3.855207267e-05
1.221636797e-05
4.196340556e-06
1.089565481e-05
3.434103954e-05
0.0001025376671
0.0002363960022
0.0001025345108
8.530509072e-05
8.530509072e-05
8.530509072e-05
2.515787303e-05
9.285167868e-06
2.471132712e-06
5.519164691e-06
1.445528876e-05
3.434117278e-05
6.040108848e-05
3.434047253e-05
1.445495972e-05
1.232973205e-05
1.232973205e-05
1.232973205e-05
5.379795558e-06
1.294197516e-06
2.495492211e-06
5.519190368e-06
1.089572739e-05
1.597141215e-05
1.089555332e-05
5.519094947e-06
2.495470558e-06
2.780649005e-06
2.780649005e-06
2.780649005e-06
7.615514492e-07
1.2942055e-06
2.47114798e-06
4.196352018e-06
5.42879514e-06
4.196291561e-06
2.471107692e-06
1.294203458e-06
7.615675827e-07
)
;
    }
}


// ************************************************************************* //
