/*--------------------------------*- C++ -*----------------------------------*\
| =========                 |                                                 |
| \\      /  F ield         | OpenFOAM: The Open Source CFD Toolbox           |
|  \\    /   O peration     | Version:  4.x                                   |
|   \\  /    A nd           | Web:      www.OpenFOAM.org                      |
|    \\/     M anipulation  |                                                 |
\*---------------------------------------------------------------------------*/
FoamFile
{
    version     2.0;
    format      ascii;
    class       volScalarField;
    location    "8000";
    object      molarConc;
}
// * * * * * * * * * * * * * * * * * * * * * * * * * * * * * * * * * * * * * //

dimensions      [0 -3 0 0 1 0 0];

internalField   nonuniform List<scalar> 
1174
(
9.963267732
9.9632676
9.963266792
9.963266415
9.963266822
9.963266507
9.963265239
9.963264222
9.963264324
9.963264669
9.96326523
9.963264887
9.963265189
9.963265501
9.963223646
9.963224354
9.963225536
9.963226432
9.963225759
9.963225149
9.963225919
9.963225397
9.963226186
9.963225541
9.963226187
9.963227374
9.963226009
9.963226999
9.963279928
9.963280207
9.963281524
9.963279997
9.963280232
9.963280796
9.963281274
9.963282029
9.963280635
9.963279954
9.963279219
9.963278607
9.963278876
9.963280728
9.963306291
9.963305873
9.963305316
9.963303827
9.963303097
9.963302684
9.963302322
9.963303143
9.963303427
9.963303533
9.96330436
9.963305519
9.963306305
9.963306928
9.963301989
9.963301834
9.963302093
9.963301388
9.963300795
9.96329986
9.963301057
9.963300652
9.963302207
9.963302149
9.963302466
9.963301741
9.963301973
9.963301871
9.963270697
9.963271034
9.963269961
9.963270341
9.963270435
9.963270578
9.963272006
9.963271969
9.963272471
9.963270831
9.963271475
9.963271706
9.963272299
9.963272244
9.963266689
9.963266239
9.963266514
9.96326641
9.963266226
9.963266785
9.963267587
9.963266314
9.963266069
9.963266453
9.963265989
9.963265425
9.963265116
9.963265068
9.963282619
9.963281727
9.963280919
9.963280017
9.963280295
9.963279751
9.963278754
9.963278098
9.963278059
9.963278579
9.963278691
9.963277882
9.963277605
9.963277796
9.963270892
9.963269714
9.963269407
9.963268928
9.963268631
9.963269431
9.963269105
9.963268542
9.963267944
9.963268975
9.963268071
9.963268211
9.963267771
9.963267628
9.963253334
9.963253876
9.963253198
9.963254173
9.963254862
9.9632551
9.963255195
9.96325566
9.963255793
9.963255331
9.963256195
9.963254839
9.963255207
9.963254691
9.963255962
9.963325454
9.963327128
9.96332784
9.963326596
9.963325379
9.963324781
9.963325255
9.963324729
9.963326279
9.963326428
9.963325224
9.963326412
9.963327001
9.96332656
9.963321212
9.963320989
9.963321366
9.963320381
9.963321805
9.963319958
9.963320376
9.963321316
9.963320825
9.963322839
9.963321584
9.9633217
9.963321603
9.963322438
9.963238844
9.963238671
9.963238721
9.963238917
9.963238848
9.963239179
9.963238583
9.963238451
9.963237309
9.96323702
9.96323666
9.96323566
9.963234708
9.963233495
9.963216358
9.963215797
9.963214803
9.963213908
9.963212654
9.963213355
9.96321338
9.963214491
9.963215109
9.963216869
9.963216833
9.963217084
9.963216081
9.963214986
9.963268834
9.963269698
9.963268804
9.963269302
9.96326956
9.963267992
9.963267506
9.963267799
9.963266922
9.963265351
9.963265933
9.963265677
9.963266091
9.963263986
9.963277438
9.963276016
9.963275788
9.963275447
9.963274057
9.963274339
9.96327405
9.963274099
9.963273568
9.963274548
9.963274315
9.963274233
9.963274453
9.963274444
9.963239875
9.963240374
9.963239825
9.963239678
9.963239149
9.963239936
9.963240101
9.963240123
9.963240675
9.963240702
9.963240997
9.963242614
9.963242954
9.963241884
9.963268917
9.963270252
9.963270977
9.963269755
9.963271228
9.96327054
9.963269735
9.963268187
9.963268868
9.963267972
9.963268484
9.963268921
9.963269424
9.963269553
9.963265646
9.963265849
9.963266137
9.963265706
9.963266579
9.96326692
9.963266916
9.963267097
9.963266797
9.963266716
9.963266874
9.963266433
9.963266641
9.963265587
9.963265794
9.963229934
9.963230766
9.963229478
9.963229054
9.96322908
9.96323002
9.963229939
9.963230332
9.963228617
9.96322778
9.963227998
9.963228317
9.963226671
9.963228618
9.963228254
9.963247852
9.963248298
9.963248138
9.963248303
9.963246721
9.96324607
9.963244431
9.963245155
9.96324495
9.963244096
9.963244449
9.963242849
9.963242504
9.963243233
9.963254872
9.963254373
9.963253832
9.963254169
9.963255141
9.963255736
9.96325516
9.963255248
9.963255656
9.96325582
9.963255709
9.963256404
9.963254682
9.963254318
9.963267865
9.963267341
9.963268125
9.963267708
9.963267598
9.963266833
9.963265292
9.963265144
9.963264715
9.963265833
9.963265342
9.963264406
9.96326623
9.963265374
9.963286522
9.963286073
9.963285509
9.963286042
9.963286931
9.963287633
9.963287702
9.963288145
9.963289058
9.963289581
9.963288175
9.963289862
9.963290432
9.963289869
9.963284197
9.963285553
9.963286721
9.963285743
9.963286274
9.963286722
9.963286537
9.963287379
9.963286729
9.963285972
9.963286615
9.963286733
9.963286392
9.963284956
9.96332197
9.963321799
9.963320821
9.963319887
9.963319951
9.963319395
9.963320163
9.963320138
9.963320143
9.963320045
9.963319892
9.963318689
9.963319432
9.963320406
9.963294456
9.963294473
9.963294131
9.963294663
9.963294363
9.963294059
9.963294209
9.963296305
9.963297277
9.963296187
9.9632964
9.96329719
9.963296496
9.963295483
9.963298877
9.963299158
9.963298674
9.963300207
9.96330004
9.963300463
9.963300328
9.963299523
9.963300232
9.963299133
9.963299104
9.963300353
9.963300432
9.963299629
9.963298942
9.963298168
9.963297809
9.963299436
9.963297664
9.963295822
9.963295266
9.963295121
9.9632952
9.963296103
9.963297323
9.963296605
9.963296395
9.963295776
9.963294229
9.963293962
9.963293228
9.963292722
9.96329223
9.963291705
9.96329132
9.963291539
9.963291483
9.963292826
9.963292756
9.963293722
9.96329355
9.963294311
9.963295074
9.963295661
9.963296408
9.963228778
9.963226951
9.963226098
9.963227997
9.963229297
9.963229985
9.963230676
9.963229483
9.963229158
9.963230449
9.963230917
9.963231343
9.963230731
9.963230302
9.96334454
9.963345117
9.963345891
9.963346237
9.963348158
9.963346918
9.963347649
9.963348527
9.963350302
9.963349694
9.96334949
9.963350409
9.963350829
9.963351667
9.963299465
9.963298362
9.963298813
9.963299447
9.963299891
9.963300493
9.96330034
9.963299961
9.963301538
9.963301391
9.963302779
9.963303421
9.963303601
9.963304045
9.963289118
9.963287836
9.963287538
9.963288255
9.963286767
9.96328688
9.963286443
9.963286023
9.963286326
9.963286271
9.963286318
9.963286858
9.963288942
9.963290163
9.963238761
9.963238091
9.963238462
9.963236762
9.963236852
9.963236909
9.963237477
9.963237064
9.963236354
9.963236103
9.9632349
9.963235248
9.963234849
9.96323529
9.963297318
9.963297823
9.963298363
9.963299209
9.963299524
9.963298564
9.963298359
9.963297832
9.963297394
9.963297174
9.963296769
9.963294674
9.963295431
9.963295335
9.963283373
9.963282343
9.963283552
9.96328217
9.963282383
9.963282163
9.963281611
9.963283118
9.963282501
9.963282388
9.963281975
9.963282782
9.9632824
9.963283433
9.963283148
9.963271907
9.963271656
9.963271119
9.963270925
9.96327049
9.96327115
9.963270186
9.963271637
9.963270561
9.963271613
9.963272373
9.963272378
9.96327367
9.963272669
9.963272655
9.96324725
9.963246008
9.963245492
9.963245294
9.963246156
9.963246475
9.963247731
9.963248902
9.963249973
9.963250959
9.963251037
9.963250237
9.963252507
9.963252463
9.963253331
9.96332984
9.96332945
9.963329576
9.963331087
9.963331317
9.96333179
9.96333197
9.96333148
9.963333845
9.963336991
9.96333685
9.963337691
9.963336738
9.963336086
9.963334923
9.994693567
9.994719
9.994741944
9.994764883
9.994788912
9.994813779
9.994842297
9.994877197
9.994916981
9.994964823
9.995020673
9.995083613
9.995150569
9.995219288
9.963311438
9.963312455
9.963314294
9.963313938
9.963314182
9.963314967
9.963316415
9.96331814
9.963318527
9.963319886
9.963321032
9.963320229
9.963318356
9.963318847
9.963260615
9.963260627
9.963261792
9.963262538
9.963263169
9.963262543
9.963263294
9.963263885
9.963263537
9.963263694
9.963264788
9.963265789
9.963265958
9.963265008
9.96324781
9.963247815
9.963250188
9.963249475
9.963248325
9.963249015
9.963248783
9.96324937
9.963249371
9.963249887
9.963251145
9.963251697
9.963251353
9.963250867
9.96329077
9.963291847
9.963291985
9.963292131
9.963292533
9.963293369
9.963292398
9.9632929
9.963292082
9.96329251
9.963292977
9.96329365
9.963292131
9.963291692
9.963228312
9.963228078
9.96322704
9.963226319
9.963226802
9.963226783
9.963226505
9.963225262
9.963224323
9.963223637
9.963222518
9.963223307
9.963222599
9.963222957
9.963222479
9.963281939
9.963282251
9.963281552
9.963280378
9.963280392
9.963279278
9.963280294
9.963281321
9.963281272
9.963281147
9.963280909
9.963281092
9.96328086
9.963281011
9.963280863
9.963261411
9.963261178
9.963260738
9.963259883
9.963260019
9.963259506
9.963258933
9.96325843
9.963256942
9.963257029
9.963256072
9.963256864
9.96325867
9.963259512
9.963259051
9.963277827
9.963278067
9.963278747
9.963278437
9.963277674
9.963277453
9.96327734
9.963278427
9.963277599
9.963276876
9.963276796
9.963276183
9.963277179
9.963277886
9.96327831
9.963235946
9.963235935
9.963235648
9.963234504
9.963235654
9.963236646
9.963236157
9.963234743
9.963235407
9.963234953
9.963234532
9.963233555
9.963231924
9.963231189
9.96323025
9.96332298
9.963322054
9.963320031
9.963319026
9.963319147
9.963319143
9.963319359
9.963319238
9.963319063
9.963319965
9.963320203
9.96331931
9.963321891
9.963321549
9.963322439
9.963279656
9.96327959
9.963278011
9.963278634
9.963278101
9.963277437
9.963279104
9.963279144
9.963278386
9.963277792
9.963278977
9.963279242
9.963278166
9.963278468
9.963226622
9.963226873
9.963226784
9.963227029
9.963226812
9.963226095
9.963225738
9.963226075
9.963228325
9.963227187
9.963226999
9.963229448
9.963228575
9.963228218
9.963275307
9.963275279
9.963274335
9.963274286
9.963273852
9.963273819
9.963274317
9.963273771
9.963274197
9.963274526
9.963275187
9.963274599
9.963274078
9.963273128
9.963290444
9.963290677
9.963290623
9.963291959
9.96329243
9.963291596
9.963292766
9.963292606
9.963293846
9.963292874
9.963293197
9.963292872
9.963292109
9.963292328
9.963292734
9.963324606
9.963324261
9.963325892
9.963325117
9.963324844
9.96332575
9.963325844
9.963324537
9.96332325
9.963323424
9.963324138
9.963325968
9.963326216
9.963326754
9.963326658
9.963255649
9.963253985
9.963254248
9.963253378
9.963253087
9.963252186
9.963252681
9.96325269
9.963252702
9.963253226
9.963253049
9.963251966
9.963252089
9.963251215
9.963251503
9.963268926
9.963268628
9.963269142
9.96326781
9.963267145
9.963267887
9.963268022
9.96326824
9.963266592
9.963267146
9.963267095
9.963266605
9.963266797
9.963267532
9.963267639
9.963250184
9.963249244
9.963250276
9.963251786
9.963250412
9.963251123
9.963250461
9.963250065
9.963250779
9.963249714
9.963250757
9.963250388
9.963249566
9.963249907
9.96324807
9.963291074
9.963289626
9.963291113
9.963290349
9.963289763
9.963289298
9.963288457
9.963287323
9.963287628
9.963286292
9.963285814
9.963285934
9.963286201
9.9632861
9.963286195
9.963280958
9.963281056
9.963280264
9.963280942
9.963279937
9.963278913
9.963279148
9.963280215
9.963281908
9.963282945
9.963284336
9.963283395
9.963282934
9.963284512
9.963283874
9.963279462
9.963278381
9.963277418
9.963278223
9.963279408
9.96327986
9.963279059
9.963279211
9.963278544
9.963277729
9.963277542
9.963277448
9.963276332
9.963275841
9.963297356
9.96329751
9.96329776
9.963297434
9.96329653
9.963296355
9.963295457
9.963295912
9.963295865
9.963296557
9.963295597
9.963295471
9.963296136
9.963295795
9.963274183
9.963272999
9.963272876
9.963272078
9.963272099
9.963272173
9.963273556
9.963273352
9.963272096
9.96327194
9.963270506
9.963270855
9.963270592
9.963270262
9.963270889
9.96327491
9.963275587
9.96327551
9.96327573
9.963275566
9.963276081
9.963276108
9.963276249
9.963275519
9.963276402
9.963277595
9.963277996
9.963277254
9.963277388
9.963278403
9.963297783
9.963297553
9.963297628
9.963298794
9.963299691
9.963299458
9.963298128
9.963298636
9.963298176
9.963298209
9.96329783
9.963297558
9.963297873
9.963297446
9.963296056
9.963253072
9.963252415
9.963251083
9.96324998
9.963250039
9.963250752
9.963250368
9.963250612
9.963249441
9.963249719
9.96324935
9.963249804
9.96324887
9.963248124
9.963246414
9.963263809
9.963263967
9.963263637
9.963263595
9.963262841
9.963264406
9.963266469
9.963265835
9.963266043
9.963265631
9.963266252
9.963265725
9.963265125
9.96326391
9.96326494
9.963249331
9.963248903
9.963248072
9.963248464
9.963248621
9.963248538
9.963248333
9.963249243
9.96325028
9.96325077
9.96325073
9.963250648
9.963250366
9.963250292
9.963250992
9.963347399
9.963346918
9.963346231
9.963346851
9.963347193
9.963347213
9.963345896
9.963345717
9.963345414
9.963344663
9.963345295
9.963346601
9.963346259
9.96334721
9.963346648
9.963342425
9.963343071
9.96334339
9.963343204
9.963341938
9.963342004
9.963341857
9.963342282
9.963342706
9.963341959
9.963342465
9.963342545
9.963341986
9.963341727
9.963339794
9.963299008
9.963298235
9.96329739
9.963297505
9.96329815
9.963297898
9.963297807
9.963296962
9.963297536
9.963297455
9.963298611
9.963299126
9.963298856
9.963298533
9.963313257
9.96331385
9.96331457
9.963313429
9.963313021
9.96331396
9.963313194
9.963313274
9.963313948
9.963314195
9.963314174
9.963314766
9.963315317
9.963315465
9.963316383
9.963247426
9.96324801
9.963248036
9.963247948
9.963247898
9.963247967
9.963248573
9.963248105
9.96324732
9.963247318
9.963247378
9.963247502
9.963247775
9.963248606
9.963247172
9.963272393
9.963273554
9.963273318
9.963274219
9.963273384
9.963274333
9.963273109
9.9632735
9.963273351
9.963273261
9.963273074
9.963272382
9.963271376
9.963271132
9.963271319
9.963296054
9.963296036
9.963295835
9.963296311
9.963297257
9.963295448
9.963296164
9.963295323
9.96329633
9.963296905
9.963295587
9.963294805
9.963294726
9.963293591
9.963294578
9.963307215
9.963307672
9.963308005
9.963308351
9.963308712
9.963308653
9.963307541
9.963307645
9.963306652
9.96330606
9.963305809
9.963305814
9.963306538
9.963305185
9.96330567
9.963313588
9.963312139
9.96331181
9.963312505
9.963312617
9.963312049
9.963311237
9.963310543
9.963310655
9.963309579
9.963309047
9.963308712
9.963308412
9.963309128
9.96330884
9.963285992
9.963285309
9.963285402
9.963285947
9.963286244
9.963285641
9.963285794
9.963285876
9.96328481
9.963284954
9.963284354
9.963283688
9.96328301
9.963283323
9.963283774
9.963250753
9.963251458
9.963252445
9.963252265
9.963251221
9.96325197
9.963250666
9.963249884
9.963250401
9.963250896
9.963250506
9.96325043
9.963251215
9.963250926
9.963251365
9.963298374
9.963298454
9.9632986
9.963298207
9.963298124
9.963297965
9.96329722
9.963298118
9.963297618
9.963297838
9.963296992
9.963296782
9.963297269
9.963297907
9.963297513
)
;

boundaryField
{
    top
    {
        type            calculated;
        value           nonuniform List<scalar> 
127
(
9.963298374
9.963270892
9.963268917
9.963294456
9.963297318
9.96329077
9.963275307
9.963297356
9.963299008
9.963298454
9.963269714
9.963270252
9.963294473
9.963297823
9.963291847
9.963275279
9.96329751
9.963298235
9.9632986
9.963269407
9.963270977
9.963294131
9.963298363
9.963291985
9.963274335
9.96329776
9.96329739
9.963298207
9.963268928
9.963269755
9.963294663
9.963299209
9.963292131
9.963274286
9.963297434
9.963297505
9.963298124
9.963268631
9.963271228
9.963294363
9.963299524
9.963292533
9.963273852
9.96329653
9.96329815
9.963297965
9.963269431
9.96327054
9.963294059
9.963298564
9.963293369
9.963273819
9.963296355
9.963297898
9.96329722
9.963269105
9.963269735
9.963294209
9.963298359
9.963292398
9.963274317
9.963295457
9.963297807
9.963298118
9.963268542
9.963268187
9.963296305
9.963297832
9.9632929
9.963273771
9.963295912
9.963296962
9.963297618
9.963267944
9.963268868
9.963297277
9.963297394
9.963292082
9.963274197
9.963295865
9.963297536
9.963297838
9.963268975
9.963267972
9.963296187
9.963297174
9.96329251
9.963274526
9.963296557
9.963297455
9.963296992
9.963268071
9.963268484
9.9632964
9.963296769
9.963292977
9.963275187
9.963295597
9.963298611
9.963296782
9.963268211
9.963268921
9.96329719
9.963294674
9.96329365
9.963274599
9.963295471
9.963299126
9.963297269
9.963267771
9.963269424
9.963296496
9.963295431
9.963292131
9.963274078
9.963296136
9.963298856
9.963297907
9.963267628
9.963269553
9.963295483
9.963295335
9.963291692
9.963273128
9.963295795
9.963298533
9.963297513
)
;
    }
    bottom
    {
        type            calculated;
        value           nonuniform List<scalar> 
134
(
9.963253334
9.963265646
9.963298877
9.963283373
9.963228312
9.963290444
9.963274183
9.963313257
9.963267732
9.963253876
9.963265849
9.963299158
9.963282343
9.963228078
9.963290677
9.963272999
9.96331385
9.9632676
9.963253198
9.963266137
9.963298674
9.963283552
9.96322704
9.963290623
9.963272876
9.96331457
9.963266792
9.963254173
9.963265706
9.963300207
9.96328217
9.963226319
9.963291959
9.963272078
9.963313429
9.963266415
9.963254862
9.963266579
9.96330004
9.963282383
9.963226802
9.96329243
9.963272099
9.963313021
9.963266822
9.9632551
9.96326692
9.963300463
9.963282163
9.963226783
9.963291596
9.963272173
9.96331396
9.963266507
9.963255195
9.963266916
9.963300328
9.963281611
9.963226505
9.963292766
9.963273556
9.963313194
9.963265239
9.96325566
9.963267097
9.963299523
9.963283118
9.963225262
9.963292606
9.963273352
9.963313274
9.963264222
9.963255793
9.963266797
9.963300232
9.963282501
9.963224323
9.963293846
9.963272096
9.963313948
9.963264324
9.963255331
9.963266716
9.963299133
9.963282388
9.963223637
9.963292874
9.96327194
9.963314195
9.963264669
9.963256195
9.963266874
9.963299104
9.963281975
9.963222518
9.963293197
9.963270506
9.963314174
9.96326523
9.963254839
9.963266433
9.963300353
9.963282782
9.963223307
9.963292872
9.963270855
9.963314766
9.963264887
9.963255207
9.963266641
9.963300432
9.9632824
9.963222599
9.963292109
9.963270592
9.963315317
9.963265189
9.963254691
9.963265587
9.963299629
9.963283433
9.963222957
9.963292328
9.963270262
9.963315465
9.963265501
9.963255962
9.963265794
9.963298942
9.963283148
9.963222479
9.963292734
9.963270889
9.963316383
)
;
    }
    side-walls
    {
        type            calculated;
        value           nonuniform List<scalar> 
261
(
9.963267732
9.963223646
9.963279928
9.963306291
9.963301989
9.963270697
9.963266689
9.963282619
9.963270892
9.9632676
9.963224354
9.963280207
9.963305873
9.963301834
9.963271034
9.963266239
9.963281727
9.963269714
9.963266792
9.963225536
9.963281524
9.963305316
9.963302093
9.963269961
9.963266514
9.963280919
9.963269407
9.963266415
9.963226432
9.963279997
9.963303827
9.963301388
9.963270341
9.96326641
9.963280017
9.963268928
9.963266822
9.963225759
9.963280232
9.963303097
9.963300795
9.963270435
9.963266226
9.963280295
9.963268631
9.963266507
9.963225149
9.963280796
9.963302684
9.96329986
9.963270578
9.963266785
9.963279751
9.963269431
9.963265239
9.963225919
9.963281274
9.963302322
9.963301057
9.963272006
9.963267587
9.963278754
9.963269105
9.963264222
9.963225397
9.963282029
9.963303143
9.963300652
9.963271969
9.963266314
9.963278098
9.963268542
9.963264324
9.963226186
9.963280635
9.963303427
9.963302207
9.963272471
9.963266069
9.963278059
9.963267944
9.963264669
9.963225541
9.963279954
9.963303533
9.963302149
9.963270831
9.963266453
9.963278579
9.963268975
9.96326523
9.963226187
9.963279219
9.96330436
9.963302466
9.963271475
9.963265989
9.963278691
9.963268071
9.963264887
9.963227374
9.963278607
9.963305519
9.963301741
9.963271706
9.963265425
9.963277882
9.963268211
9.963265189
9.963226009
9.963278876
9.963306305
9.963301973
9.963272299
9.963265116
9.963277605
9.963267771
9.963265501
9.963226999
9.963280728
9.963306928
9.963301871
9.963272244
9.963265068
9.963277796
9.963267628
9.963313257
9.963247426
9.963272393
9.963296054
9.963307215
9.963313588
9.963285992
9.963250753
9.963298374
9.96331385
9.96324801
9.963273554
9.963296036
9.963307672
9.963312139
9.963285309
9.963251458
9.963298454
9.96331457
9.963248036
9.963273318
9.963295835
9.963308005
9.96331181
9.963285402
9.963252445
9.9632986
9.963313429
9.963247948
9.963274219
9.963296311
9.963308351
9.963312505
9.963285947
9.963252265
9.963298207
9.963313021
9.963247898
9.963273384
9.963297257
9.963308712
9.963312617
9.963286244
9.963251221
9.963298124
9.96331396
9.963247967
9.963274333
9.963295448
9.963308653
9.963312049
9.963285641
9.96325197
9.963297965
9.963313194
9.963248573
9.963273109
9.963296164
9.963307541
9.963311237
9.963285794
9.963250666
9.96329722
9.963313274
9.963248105
9.9632735
9.963295323
9.963307645
9.963310543
9.963285876
9.963249884
9.963298118
9.963313948
9.96324732
9.963273351
9.96329633
9.963306652
9.963310655
9.96328481
9.963250401
9.963297618
9.963314195
9.963247318
9.963273261
9.963296905
9.96330606
9.963309579
9.963284954
9.963250896
9.963297838
9.963314174
9.963247378
9.963273074
9.963295587
9.963305809
9.963309047
9.963284354
9.963250506
9.963296992
9.963314766
9.963247502
9.963272382
9.963294805
9.963305814
9.963308712
9.963283688
9.96325043
9.963296782
9.963315317
9.963247775
9.963271376
9.963294726
9.963306538
9.963308412
9.96328301
9.963251215
9.963297269
9.963315465
9.963248606
9.963271132
9.963293591
9.963305185
9.963309128
9.963283323
9.963250926
9.963297907
9.963316383
9.963247172
9.963271319
9.963294578
9.96330567
9.96330884
9.963283774
9.963251365
9.963297513
)
;
    }
    inlet
    {
        type            calculated;
        value           nonuniform 0();
    }
    outlet
    {
        type            calculated;
        value           nonuniform List<scalar> 
81
(
9.963265501
9.963226999
9.963280728
9.963306928
9.963301871
9.963272244
9.963265068
9.963277796
9.963267628
9.963255962
9.96332656
9.963322438
9.963233495
9.963214986
9.963263986
9.963274444
9.963241884
9.963269553
9.963265794
9.963228254
9.963243233
9.963254318
9.963265374
9.963289869
9.963284956
9.963320406
9.963295483
9.963298942
9.963293962
9.963296408
9.963230302
9.963351667
9.963304045
9.963290163
9.96323529
9.963295335
9.963283148
9.963272655
9.963253331
9.963334923
9.995219288
9.963318847
9.963265008
9.963250867
9.963291692
9.963222479
9.963280863
9.963259051
9.96327831
9.96323025
9.963322439
9.963278468
9.963228218
9.963273128
9.963292734
9.963326658
9.963251503
9.963267639
9.96324807
9.963286195
9.963283874
9.963275841
9.963295795
9.963270889
9.963278403
9.963296056
9.963246414
9.96326494
9.963250992
9.963346648
9.963339794
9.963298533
9.963316383
9.963247172
9.963271319
9.963294578
9.96330567
9.96330884
9.963283774
9.963251365
9.963297513
)
;
    }
    procBoundary1to0
    {
        type            processor;
        value           nonuniform List<scalar> 
97
(
9.963269185
9.963269185
9.9632234
9.963280102
9.963305929
9.963301464
9.963270979
9.963266339
9.963282859
9.963271524
9.96325261
9.963326882
9.963326882
9.963326882
9.963322431
9.963239176
9.963216019
9.963268653
9.96327629
9.963237939
9.963269074
9.963264533
9.963231176
9.963248335
9.963248335
9.963248335
9.963253004
9.963268198
9.963286725
9.963284454
9.963322363
9.963294309
9.963298919
9.963297322
9.963293769
9.963227726
9.963227726
9.963227726
9.963344036
9.963299444
9.963288855
9.963239229
9.963296326
9.963283147
9.963271566
9.963248884
9.963318304
9.994697005
9.994697005
9.994697005
9.963311021
9.963311021
9.963261393
9.963247292
9.963290396
9.963228939
9.963281184
9.963262059
9.963278076
9.963224739
9.963323588
9.963279936
9.963279936
9.963279936
9.963226964
9.963276525
9.963290341
9.963324663
9.963254132
9.963268625
9.963250188
9.96329238
9.963280809
9.963278395
9.963278395
9.963278395
9.963297551
9.963275171
9.963275514
9.963298231
9.96325416
9.963263731
9.963249288
9.963347427
9.963341378
9.963299308
9.963299308
9.963299308
9.963313521
9.963246889
9.963273782
9.963297458
9.963307257
9.963312846
9.96328498
9.963252163
9.963298437
)
;
    }
}


// ************************************************************************* //
