/*--------------------------------*- C++ -*----------------------------------*\
| =========                 |                                                 |
| \\      /  F ield         | OpenFOAM: The Open Source CFD Toolbox           |
|  \\    /   O peration     | Version:  4.x                                   |
|   \\  /    A nd           | Web:      www.OpenFOAM.org                      |
|    \\/     M anipulation  |                                                 |
\*---------------------------------------------------------------------------*/
FoamFile
{
    version     2.0;
    format      ascii;
    class       volScalarField;
    location    "8000";
    object      N2;
}
// * * * * * * * * * * * * * * * * * * * * * * * * * * * * * * * * * * * * * //

dimensions      [0 0 0 0 0 0 0];

internalField   nonuniform List<scalar> 
1174
(
0.5999993189
0.5999988111
0.5999980937
0.5999971572
0.5999960112
0.5999946802
0.599993199
0.5999916071
0.5999899448
0.5999882504
0.5999865594
0.5999849103
0.5999833714
0.5999821606
0.5999988425
0.5999980288
0.5999969446
0.5999956147
0.5999940842
0.5999924079
0.5999906414
0.5999888354
0.5999870327
0.5999852676
0.5999835675
0.5999819597
0.5999804965
0.5999793651
0.5999977903
0.599996352
0.5999945718
0.5999925494
0.5999903926
0.5999881981
0.5999860423
0.5999839794
0.599982044
0.5999802548
0.5999786205
0.599977147
0.5999758596
0.5999748928
0.5999962481
0.5999940136
0.5999914477
0.5999887373
0.5999860379
0.5999834609
0.5999810756
0.5999789174
0.5999769971
0.5999753099
0.599973842
0.5999725785
0.5999715199
0.5999707499
0.5999951466
0.599992475
0.5999895597
0.5999866056
0.5999837603
0.5999811177
0.5999787283
0.5999766114
0.5999747647
0.5999731733
0.5999718154
0.5999706693
0.5999697272
0.5999690524
0.5999962481
0.5999940138
0.5999914479
0.5999887375
0.5999860382
0.5999834613
0.5999810761
0.599978918
0.599976998
0.599975311
0.5999738434
0.5999725802
0.5999715218
0.599970752
0.5999977904
0.5999963522
0.599994572
0.5999925496
0.5999903929
0.5999881986
0.599986043
0.5999839804
0.5999820453
0.5999802566
0.5999786227
0.5999771497
0.5999758627
0.5999748964
0.5999988427
0.5999980289
0.5999969447
0.5999956149
0.5999940844
0.5999924083
0.599990642
0.5999888363
0.599987034
0.5999852694
0.5999835699
0.5999819627
0.5999805001
0.5999793693
0.599999319
0.5999988111
0.5999980937
0.5999971573
0.5999960113
0.5999946804
0.5999931994
0.5999916078
0.599989946
0.5999882521
0.5999865618
0.5999849135
0.5999833753
0.5999821652
0.599999392
0.5999988427
0.5999980289
0.5999969448
0.5999956149
0.5999940844
0.5999924081
0.5999906417
0.5999888357
0.599987033
0.5999852678
0.5999835678
0.5999819599
0.5999804967
0.5999793652
0.5999977684
0.5999963397
0.5999945969
0.5999926442
0.599990586
0.5999885101
0.5999864815
0.5999845436
0.5999827221
0.5999810296
0.5999794714
0.5999780523
0.5999767994
0.5999758503
0.5999950653
0.5999922893
0.5999892713
0.599986266
0.5999834475
0.5999809101
0.5999786874
0.5999767742
0.5999751438
0.5999737609
0.5999725897
0.5999715998
0.5999707792
0.599970185
0.5999902596
0.5999856432
0.599981253
0.5999774165
0.5999742472
0.5999717286
0.5999697815
0.5999683063
0.5999672054
0.599966394
0.5999658024
0.5999653762
0.5999650761
0.5999648874
0.5999857242
0.599980169
0.5999754622
0.5999717263
0.5999688859
0.5999667957
0.5999653012
0.5999642642
0.5999635701
0.5999631282
0.599962869
0.5999627391
0.5999626962
0.5999627003
0.59999026
0.5999856436
0.5999812535
0.5999774171
0.5999742479
0.5999717295
0.5999697825
0.5999683075
0.5999672069
0.5999663957
0.5999658044
0.5999653785
0.5999650787
0.5999648903
0.5999950657
0.5999922897
0.5999892717
0.5999862666
0.5999834482
0.599980911
0.5999786887
0.5999767758
0.5999751458
0.5999737635
0.5999725928
0.5999716035
0.5999707834
0.5999701897
0.5999977686
0.5999963399
0.5999945971
0.5999926445
0.5999905864
0.5999885107
0.5999864825
0.599984545
0.599982724
0.5999810322
0.5999794747
0.5999780564
0.5999768041
0.5999758557
0.5999988427
0.5999980289
0.5999969448
0.5999956149
0.5999940845
0.5999924085
0.5999906424
0.5999888368
0.5999870347
0.5999852703
0.5999835711
0.5999819641
0.5999805017
0.5999793712
0.5999988244
0.5999977906
0.5999963524
0.5999945723
0.5999925499
0.5999903932
0.5999881988
0.5999860431
0.5999839802
0.5999820447
0.5999802556
0.5999786212
0.5999771476
0.5999758601
0.5999748933
0.5999973068
0.5999950657
0.5999922897
0.5999892717
0.5999862665
0.599983448
0.5999809106
0.599978688
0.5999767747
0.5999751443
0.5999737614
0.5999725902
0.5999716003
0.5999707796
0.5999701854
0.5999870771
0.5999812205
0.5999759169
0.5999715667
0.5999682514
0.599965874
0.599964265
0.5999632448
0.5999626536
0.5999623619
0.5999622707
0.5999623069
0.5999624135
0.5999625295
0.599969303
0.5999594102
0.5999525873
0.599948557
0.5999466578
0.5999462227
0.5999467137
0.5999477413
0.5999490412
0.5999504436
0.599951843
0.599953173
0.5999543723
0.599955289
0.5999460157
0.599936171
0.5999319452
0.5999311993
0.5999324051
0.5999345999
0.5999372132
0.5999399203
0.5999425442
0.5999449951
0.5999472323
0.599949237
0.5999509748
0.5999522717
0.5999693046
0.5999594117
0.5999525888
0.5999485587
0.5999466595
0.5999462245
0.5999467157
0.5999477434
0.5999490436
0.5999504463
0.5999518459
0.5999531763
0.5999543758
0.5999552928
0.5999870782
0.5999812215
0.599975918
0.599971568
0.599968253
0.5999658759
0.5999642674
0.5999632476
0.5999626569
0.5999623658
0.5999622753
0.5999623121
0.5999624192
0.5999625358
0.5999950656
0.5999922897
0.5999892719
0.5999862669
0.5999834488
0.5999809118
0.5999786897
0.5999767771
0.5999751474
0.5999737653
0.5999725949
0.5999716059
0.5999707861
0.5999701926
0.5999977904
0.5999963522
0.5999945721
0.5999925499
0.5999903935
0.5999881994
0.5999860442
0.599983982
0.5999820474
0.5999802592
0.599978626
0.5999771535
0.599975867
0.5999749012
0.5999979718
0.5999962487
0.5999940144
0.5999914486
0.5999887383
0.5999860391
0.5999834622
0.599981077
0.5999789188
0.5999769986
0.5999753113
0.5999738433
0.5999725797
0.5999715209
0.5999707508
0.5999945066
0.5999902606
0.5999856442
0.5999812541
0.5999774177
0.5999742485
0.5999717299
0.5999697829
0.5999683076
0.5999672068
0.5999663953
0.5999658036
0.5999653772
0.599965077
0.5999648882
0.5999813772
0.5999693046
0.5999594115
0.5999525884
0.5999485581
0.5999466588
0.5999462237
0.5999467147
0.5999477422
0.5999490421
0.5999504444
0.5999518438
0.5999531737
0.5999543728
0.5999552895
0.5999083403
0.5998958778
0.5998938104
0.5998973747
0.5999034505
0.5999102761
0.5999169577
0.5999230966
0.5999285555
0.5999333256
0.5999374535
0.5999409966
0.5999439657
0.5999461311
0.5997886615
0.5998042618
0.5998282565
0.5998512661
0.5998708145
0.5998867543
0.5998996022
0.5999099683
0.5999183849
0.5999252748
0.5999309597
0.5999356713
0.5999395214
0.5999422843
0.5999083456
0.5998958816
0.599893814
0.5998973783
0.5999034541
0.5999102796
0.5999169612
0.5999231001
0.5999285591
0.5999333294
0.5999374576
0.5999410009
0.5999439704
0.599946136
0.5999693044
0.5999594122
0.59995259
0.5999485604
0.5999466617
0.5999462271
0.5999467186
0.5999477466
0.5999490471
0.59995045
0.59995185
0.5999531806
0.5999543804
0.5999552976
0.5999902599
0.5999856439
0.5999812542
0.5999774184
0.5999742498
0.5999717319
0.5999697855
0.5999683111
0.5999672111
0.5999664006
0.5999658099
0.5999653846
0.5999650853
0.5999648974
0.5999962481
0.5999940138
0.5999914482
0.5999887383
0.5999860395
0.5999834632
0.5999810787
0.5999789214
0.5999770022
0.5999753162
0.5999738496
0.5999725872
0.5999715297
0.5999707608
0.5999973318
0.5999951473
0.5999924759
0.5999895608
0.599986607
0.5999837619
0.5999811194
0.5999787302
0.5999766133
0.5999747667
0.5999731752
0.5999718172
0.5999706709
0.5999697286
0.5999690536
0.5999915831
0.5999857254
0.5999801704
0.5999754638
0.599971728
0.5999688877
0.5999667977
0.5999653033
0.5999642663
0.5999635721
0.5999631302
0.5999628708
0.5999627407
0.5999626976
0.5999627016
0.599963501
0.5999460182
0.5999361733
0.5999319474
0.5999312015
0.5999324072
0.5999346021
0.5999372153
0.5999399223
0.5999425461
0.599944997
0.5999472339
0.5999492384
0.599950976
0.5999522728
0.5998099758
0.5997886682
0.599804266
0.5998282595
0.5998512684
0.5998708165
0.599886756
0.5998996038
0.5999099697
0.5999183863
0.599925276
0.5999309607
0.5999356722
0.5999395222
0.599942285
0.5992732825
0.5995354189
0.5996806072
0.5997656102
0.5998182557
0.5998526853
0.5998763597
0.5998933726
0.5999060636
0.599915825
0.5999235172
0.5999296794
0.5999345927
0.5999380645
0.599788661
0.5998042672
0.5998282639
0.5998512738
0.5998708219
0.5998867611
0.5998996086
0.5999099744
0.5999183909
0.5999252807
0.5999309656
0.5999356774
0.5999395276
0.5999422907
0.5999460151
0.5999361731
0.5999319494
0.5999312049
0.5999324114
0.5999346068
0.5999372204
0.5999399278
0.5999425522
0.5999450036
0.5999472412
0.5999492464
0.5999509846
0.599952282
0.5999857239
0.5999801697
0.5999754639
0.599971729
0.5999688896
0.5999668003
0.5999653067
0.5999642705
0.5999635773
0.5999631365
0.5999628782
0.5999627492
0.5999627072
0.599962712
0.5999951465
0.5999924751
0.5999895604
0.599986607
0.5999837625
0.5999811207
0.5999787324
0.5999766166
0.5999747711
0.599973181
0.5999718244
0.5999706796
0.5999697387
0.599969065
0.5999979718
0.5999962488
0.5999940146
0.599991449
0.5999887389
0.5999860398
0.5999834632
0.5999810782
0.5999789202
0.5999770002
0.5999753132
0.5999738455
0.599972582
0.5999715235
0.5999707535
0.5999945069
0.5999902611
0.599985645
0.5999812551
0.599977419
0.59997425
0.5999717317
0.5999697849
0.5999683099
0.5999672093
0.5999663981
0.5999658066
0.5999653804
0.5999650804
0.5999648918
0.5999813798
0.599969307
0.5999594142
0.5999525914
0.5999485613
0.5999466622
0.5999462273
0.5999467185
0.5999477461
0.5999490463
0.5999504487
0.5999518482
0.5999531783
0.5999543776
0.5999552943
0.5999363176
0.5999083514
0.5998958864
0.599893818
0.5998973818
0.5999034573
0.5999102826
0.599916964
0.5999231027
0.5999285615
0.5999333316
0.5999374595
0.5999410027
0.5999439719
0.5999461373
0.5998099765
0.5997886695
0.5998042727
0.5998282679
0.5998512768
0.5998708243
0.5998867632
0.5998996105
0.5999099761
0.5999183924
0.599925282
0.5999309668
0.5999356784
0.5999395284
0.5999422915
0.5999363157
0.5999083513
0.5998958883
0.5998938213
0.5998973857
0.5999034615
0.5999102867
0.5999169681
0.5999231069
0.5999285658
0.5999333361
0.5999374643
0.5999410077
0.5999439772
0.599946143
0.599969303
0.599959413
0.5999525923
0.5999485636
0.5999466655
0.5999462313
0.5999467231
0.5999477513
0.599949052
0.5999504552
0.5999518554
0.5999531862
0.5999543861
0.5999553035
0.5999902593
0.5999856439
0.5999812548
0.5999774195
0.5999742514
0.599971734
0.599969788
0.599968314
0.5999672144
0.5999664043
0.599965814
0.599965389
0.5999650899
0.5999649022
0.5999962479
0.5999940138
0.5999914484
0.5999887388
0.5999860403
0.5999834644
0.5999810803
0.5999789234
0.5999770047
0.5999753191
0.5999738528
0.5999725908
0.5999715336
0.5999707649
0.5999988245
0.5999977909
0.5999963529
0.5999945729
0.5999925508
0.5999903944
0.5999882003
0.599986045
0.5999839825
0.5999820474
0.5999802587
0.5999786248
0.5999771515
0.5999758644
0.5999748979
0.5999973074
0.5999950664
0.5999922907
0.5999892731
0.5999862682
0.5999834501
0.5999809131
0.599978691
0.5999767782
0.5999751482
0.5999737658
0.599972595
0.5999716055
0.5999707852
0.5999701913
0.5999926625
0.5999870797
0.5999812233
0.59997592
0.5999715703
0.5999682554
0.5999658785
0.5999642701
0.5999632504
0.5999626597
0.5999623684
0.5999622777
0.5999623143
0.5999624212
0.5999625375
0.5999813797
0.5999693074
0.5999594153
0.5999525931
0.5999485635
0.5999466648
0.5999462302
0.5999467217
0.5999477496
0.5999490499
0.5999504526
0.5999518523
0.5999531827
0.5999543822
0.5999552992
0.5999635008
0.5999460199
0.5999361773
0.599931953
0.5999312081
0.5999324144
0.5999346095
0.599937223
0.5999399303
0.5999425545
0.5999450057
0.5999472431
0.599949248
0.599950986
0.5999522832
0.5999813798
0.5999693079
0.5999594163
0.5999525947
0.5999485656
0.5999466672
0.5999462328
0.5999467244
0.5999477526
0.5999490532
0.5999504562
0.5999518563
0.599953187
0.5999543869
0.5999553041
0.5999926616
0.5999870789
0.5999812231
0.5999759206
0.5999715716
0.5999682574
0.5999658812
0.5999642733
0.5999632543
0.5999626642
0.5999623737
0.5999622838
0.5999623212
0.5999624287
0.5999625456
0.5999950652
0.5999922899
0.5999892727
0.5999862684
0.5999834509
0.5999809147
0.5999786933
0.5999767814
0.5999751524
0.5999737711
0.5999726014
0.599971613
0.5999707937
0.5999702006
0.5999977901
0.5999963522
0.5999945724
0.5999925506
0.5999903947
0.5999882012
0.5999860466
0.5999839852
0.5999820513
0.5999802638
0.5999786313
0.5999771594
0.5999758735
0.5999749082
0.5999993921
0.599998843
0.5999980294
0.5999969455
0.5999956158
0.5999940856
0.5999924097
0.5999906436
0.5999888381
0.5999870359
0.5999852713
0.5999835717
0.5999819644
0.5999805016
0.5999793706
0.5999988096
0.5999977691
0.5999963406
0.5999945981
0.5999926457
0.5999905879
0.5999885125
0.5999864844
0.5999845471
0.5999827262
0.5999810343
0.5999794767
0.5999780582
0.5999768058
0.5999758572
0.5999973074
0.5999950665
0.5999922909
0.5999892733
0.5999862686
0.5999834507
0.599980914
0.5999786921
0.5999767796
0.5999751499
0.5999737678
0.5999725972
0.599971608
0.5999707879
0.5999701943
0.5999945069
0.5999902613
0.5999856456
0.5999812563
0.5999774207
0.5999742523
0.5999717345
0.5999697883
0.5999683139
0.5999672139
0.5999664032
0.5999658124
0.5999653868
0.5999650873
0.5999648991
0.5999915831
0.599985726
0.599980172
0.5999754663
0.5999717315
0.5999688922
0.5999668029
0.5999653093
0.5999642731
0.5999635799
0.5999631389
0.5999628804
0.5999627512
0.5999627089
0.5999627135
0.599994507
0.5999902615
0.599985646
0.5999812569
0.5999774215
0.5999742534
0.5999717359
0.5999697899
0.5999683158
0.5999672162
0.5999664059
0.5999658154
0.5999653903
0.5999650911
0.5999649032
0.5999973073
0.5999950664
0.5999922909
0.5999892737
0.5999862693
0.5999834518
0.5999809156
0.5999786942
0.5999767822
0.5999751532
0.5999737719
0.5999726021
0.5999716136
0.5999707942
0.5999702011
0.5999988094
0.5999977688
0.5999963403
0.599994598
0.5999926459
0.5999905885
0.5999885135
0.5999864861
0.5999845495
0.5999827295
0.5999810386
0.5999794819
0.5999780645
0.5999768129
0.5999758651
0.5999988425
0.599998029
0.5999969451
0.5999956157
0.5999940858
0.5999924104
0.599990645
0.5999888402
0.599987039
0.5999852755
0.5999835772
0.599981971
0.5999805094
0.5999793795
0.5999996456
0.5999993192
0.5999988115
0.5999980943
0.599997158
0.5999960123
0.5999946816
0.5999932008
0.5999916094
0.5999899476
0.5999882538
0.5999865635
0.599984915
0.5999833767
0.5999821665
0.5999993921
0.599998843
0.5999980294
0.5999969455
0.5999956159
0.5999940858
0.59999241
0.599990644
0.5999888387
0.5999870366
0.5999852722
0.5999835729
0.5999819658
0.5999805033
0.5999793726
0.5999988245
0.5999977909
0.599996353
0.5999945731
0.5999925512
0.5999903951
0.5999882013
0.5999860463
0.5999839843
0.5999820497
0.5999802615
0.5999786281
0.5999771554
0.5999758688
0.5999749028
0.5999979718
0.5999962489
0.599994015
0.5999914497
0.59998874
0.5999860415
0.5999834655
0.5999810812
0.599978924
0.5999770048
0.5999753187
0.5999738519
0.5999725894
0.5999715316
0.5999707625
0.5999973318
0.5999951476
0.5999924765
0.5999895621
0.5999866089
0.5999837646
0.5999811231
0.5999787348
0.5999766191
0.5999747736
0.5999731834
0.5999718266
0.5999706816
0.5999697405
0.5999690665
0.5999979718
0.599996249
0.5999940151
0.59999145
0.5999887404
0.5999860421
0.5999834663
0.5999810823
0.5999789254
0.5999770066
0.5999753209
0.5999738545
0.5999725924
0.599971535
0.5999707661
0.5999988245
0.5999977909
0.599996353
0.5999945734
0.5999925517
0.5999903958
0.5999882024
0.5999860478
0.5999839863
0.5999820524
0.5999802649
0.5999786322
0.5999771603
0.5999758743
0.5999749088
0.5999993921
0.5999988429
0.5999980293
0.5999969455
0.599995616
0.5999940862
0.5999924108
0.5999906454
0.5999888406
0.5999870394
0.5999852759
0.5999835775
0.5999819713
0.5999805097
0.5999793797
0.5999996455
0.5999993191
0.5999988113
0.5999980941
0.599997158
0.5999960125
0.5999946822
0.599993202
0.5999916113
0.5999899504
0.5999882576
0.5999865684
0.599984921
0.5999833838
0.5999821745
)
;

boundaryField
{
    top
    {
        type            zeroGradient;
    }
    bottom
    {
        type            zeroGradient;
    }
    side-walls
    {
        type            zeroGradient;
    }
    inlet
    {
        type            zeroGradient;
    }
    outlet
    {
        type            zeroGradient;
    }
    procBoundary1to0
    {
        type            processor;
        value           nonuniform List<scalar> 
97
(
0.5999996455
0.5999996455
0.5999993921
0.5999988246
0.599997972
0.5999973323
0.5999979721
0.5999988247
0.5999993922
0.5999996457
0.5999997168
0.5999988094
0.5999988094
0.5999988094
0.5999973074
0.5999945075
0.5999915847
0.5999945079
0.5999973078
0.5999988098
0.5999993922
0.5999994598
0.5999987944
0.5999926616
0.5999926616
0.5999926616
0.5999813813
0.5999635096
0.5999813833
0.5999926638
0.5999973078
0.5999988247
0.5999990831
0.5999976207
0.5999925036
0.5999363169
0.5999363169
0.5999363169
0.5998100349
0.5999363312
0.5999813832
0.5999945078
0.5999979721
0.5999988141
0.5999965128
0.5999868162
0.5999484139
0.5987737584
0.5987737584
0.5987737584
0.5998100316
0.5998100316
0.5999635088
0.5999915844
0.5999973322
0.5999990831
0.5999976206
0.599992503
0.5999776195
0.599948411
0.5999776213
0.5999813781
0.5999813781
0.5999813781
0.599994507
0.5999979719
0.5999994598
0.5999987943
0.5999968435
0.599992503
0.5999868157
0.5999925033
0.5999968437
0.5999973069
0.5999973069
0.5999973069
0.5999988244
0.5999997168
0.5999994545
0.5999987943
0.5999976206
0.5999965127
0.5999976207
0.5999987944
0.5999994545
0.599999392
0.599999392
0.599999392
0.5999998332
0.5999997168
0.5999994598
0.5999990831
0.5999988141
0.5999990831
0.5999994598
0.5999997168
0.5999998332
)
;
    }
}


// ************************************************************************* //
