/*--------------------------------*- C++ -*----------------------------------*\
| =========                 |                                                 |
| \\      /  F ield         | OpenFOAM: The Open Source CFD Toolbox           |
|  \\    /   O peration     | Version:  4.x                                   |
|   \\  /    A nd           | Web:      www.OpenFOAM.org                      |
|    \\/     M anipulation  |                                                 |
\*---------------------------------------------------------------------------*/
FoamFile
{
    version     2.0;
    format      ascii;
    class       surfaceScalarField;
    location    "8000";
    object      phi;
}
// * * * * * * * * * * * * * * * * * * * * * * * * * * * * * * * * * * * * * //

dimensions      [1 0 -1 0 0 0 0];

internalField   nonuniform List<scalar> 
3172
(
9.475470932e-06
-8.47591527e-12
-9.993758713e-12
9.47548965e-06
-9.412732315e-12
-1.015333163e-11
9.475502569e-06
-5.196257399e-12
-5.689215534e-12
9.475510486e-06
-3.06232389e-12
-3.166604439e-12
9.475517359e-06
-1.562132611e-12
-2.332670701e-12
9.475520542e-06
-5.240934414e-13
-2.13004377e-12
9.475518542e-06
-6.494285623e-13
-8.912195766e-13
9.475517784e-06
1.497805665e-12
1.639205854e-13
9.475515956e-06
-5.074847781e-13
1.121827268e-12
9.47551696e-06
4.292231018e-13
2.419303262e-12
9.475515195e-06
9.243976855e-13
4.013686313e-12
9.475508482e-06
8.706042952e-13
1.227649764e-12
9.475504633e-06
3.849573019e-12
2.446590099e-12
3.35462449e-12
3.34001061e-12
9.475437466e-06
-1.707869742e-11
-1.184745204e-11
9.47545925e-06
-1.590724348e-11
-1.375398463e-11
9.475470469e-06
-8.715886595e-12
-8.301462013e-12
9.475476961e-06
-5.058098219e-12
-4.697248942e-12
9.475481498e-06
-2.364008142e-12
-2.976497119e-12
9.475481446e-06
-4.412534045e-13
-1.971187931e-12
9.47547908e-06
-8.751330447e-13
8.764859445e-15
9.475475878e-06
6.489233753e-13
-5.357038616e-13
9.475475176e-06
3.296101999e-12
2.70074351e-12
9.475472351e-06
2.155076954e-12
2.263994923e-12
9.475470795e-06
1.889944554e-12
3.923743723e-12
9.475466949e-06
1.911788507e-12
2.667594729e-12
9.475461337e-06
2.207201813e-12
2.37634979e-12
4.293301498e-12
3.331282242e-12
9.475519398e-06
-1.07887699e-11
-1.7853388e-11
9.475536518e-06
-1.188143479e-11
-1.982423472e-11
9.475537142e-06
-5.582809328e-12
-8.610437173e-12
9.47553626e-06
-3.03918168e-12
-3.369779042e-12
9.475535869e-06
-1.28142146e-12
9.385007802e-13
9.475528716e-06
-9.364283038e-13
2.548840318e-12
9.475526817e-06
2.188589515e-14
3.691815208e-12
9.475521509e-06
-2.829449636e-13
3.415225074e-12
9.475517633e-06
1.379832178e-12
3.895532999e-12
9.475515513e-06
2.244907885e-12
3.842044082e-12
9.475513221e-06
3.682341796e-12
3.496792485e-12
9.475509099e-06
2.705725542e-12
3.466960427e-12
9.475506226e-06
3.1833897e-12
3.709740891e-12
3.761823822e-12
3.251206574e-12
9.475553034e-06
-3.795651785e-12
2.087331961e-12
9.475565191e-06
-2.114255215e-12
-2.281721601e-11
9.475563696e-06
2.922824482e-13
-6.679870115e-12
9.475560797e-06
2.637522544e-12
1.777300802e-12
9.475553593e-06
1.562242265e-12
4.318816226e-12
9.475544107e-06
1.398844297e-12
6.600428732e-12
9.475541038e-06
3.295315034e-12
8.285157476e-12
9.475535857e-06
1.936551062e-12
7.232238773e-12
9.475532864e-06
2.100975475e-12
5.315027511e-12
9.475531524e-06
1.108340973e-12
5.171998462e-12
9.47552894e-06
1.911341637e-12
4.503748958e-12
9.475528464e-06
1.760421701e-12
4.049374408e-12
9.475530154e-06
2.52936184e-12
4.612812453e-12
2.284091705e-12
4.563970721e-12
9.475591626e-06
3.695103304e-12
2.549527628e-11
9.475580258e-06
3.067431734e-12
1.510983162e-12
9.475567345e-06
8.215201489e-14
1.250026084e-11
9.47555558e-06
-2.474540715e-12
1.589924585e-11
9.475545679e-06
-2.345821044e-12
1.304153202e-11
9.475539458e-06
-4.452970447e-13
1.274417202e-11
9.475533935e-06
-5.917800792e-13
8.603041341e-12
9.4755304e-06
1.822228576e-13
6.609071902e-12
9.475527105e-06
4.751743718e-13
5.092175108e-12
9.475529035e-06
2.231649524e-12
5.775686213e-12
9.47552467e-06
-9.945453127e-13
4.199335427e-12
9.475524105e-06
1.580384993e-13
5.487878244e-12
9.47552407e-06
-1.282868467e-12
5.415645749e-12
-7.041986485e-13
4.244607391e-12
9.475519276e-06
1.025217771e-11
2.49778661e-12
9.475531772e-06
1.351438406e-11
-2.372432223e-11
9.475532271e-06
5.218764352e-12
-6.927403833e-12
9.475529107e-06
2.623425914e-12
1.708543936e-12
9.475522706e-06
8.224740267e-13
4.694863904e-12
9.47551657e-06
-8.706951134e-13
6.977579008e-12
9.475510641e-06
-1.081754673e-12
6.675223716e-12
9.475506789e-06
9.333956032e-14
5.273239351e-12
9.475502914e-06
-1.060624214e-12
4.243220264e-12
9.475499113e-06
-1.156876447e-12
3.655695565e-12
9.475498922e-06
-3.175228808e-13
4.771770754e-12
9.475497408e-06
-1.725050631e-12
3.316373332e-12
9.475495451e-06
-3.193105325e-12
4.092570378e-12
-2.142864528e-12
3.664874628e-12
9.475507284e-06
1.650864672e-11
-1.580843026e-11
9.475519456e-06
1.49308494e-11
-1.961956959e-11
9.475525874e-06
1.037064136e-11
-7.486030936e-12
9.475523805e-06
5.798825055e-12
-1.165707003e-14
9.475522534e-06
4.921532284e-12
1.595156412e-12
9.47551904e-06
1.457243997e-12
3.436991226e-12
9.475513977e-06
-1.180343584e-12
3.975509511e-12
9.475505083e-06
-1.251418081e-12
3.454884478e-12
9.475505638e-06
5.087454113e-14
3.194664686e-12
9.475501006e-06
-2.39140342e-12
2.53709403e-12
9.475496652e-06
-2.502759471e-12
2.541607477e-12
9.475496549e-06
-1.03637333e-12
3.243064318e-12
9.475495447e-06
-8.428765348e-13
2.999474238e-12
-3.375723827e-12
1.036135429e-12
9.475495614e-06
1.065867306e-11
-7.171268366e-12
9.475511745e-06
1.084631127e-11
-1.153470719e-11
9.47552279e-06
7.486363062e-12
-6.704250386e-12
9.475529096e-06
5.312761205e-12
-3.655097783e-12
9.475530679e-06
2.215633563e-12
-3.106790965e-12
9.475530991e-06
2.185540242e-12
-1.314072161e-12
9.475531237e-06
2.578097478e-12
1.051136208e-12
9.475527809e-06
-2.369382413e-13
2.721251936e-12
9.475524364e-06
-1.380261095e-12
2.358347935e-12
9.475522968e-06
-1.205181757e-12
3.073603626e-12
9.47551842e-06
-1.099931081e-12
1.490087246e-12
9.475516326e-06
-1.620100188e-12
1.493663927e-12
9.475511757e-06
-2.842256282e-12
-5.398880572e-14
-2.839742512e-12
6.589925594e-13
9.475473916e-06
-8.524219746e-12
9.475492016e-06
-9.503614798e-12
9.475504681e-06
-7.548227062e-12
9.475512038e-06
-4.120631974e-12
9.475518854e-06
-2.678246584e-12
9.475522695e-06
-1.432057183e-12
9.475522871e-06
-4.490036754e-13
9.475522051e-06
1.00047329e-12
9.475521185e-06
1.789021595e-12
9.475518325e-06
1.855113042e-13
9.475515191e-06
3.900765856e-14
9.475511725e-06
6.691431259e-13
9.475507363e-06
8.959158578e-13
7.730262154e-13
9.475453082e-06
-4.942689826e-11
9.475468149e-06
-8.628584952e-12
-1.608596662e-11
9.475486296e-06
-1.319442408e-11
-1.580809221e-11
9.475496712e-06
-7.538267289e-12
-1.041890281e-11
9.475504221e-06
-3.346849216e-12
-6.478806846e-12
9.475508105e-06
-2.518176018e-12
-1.393158315e-12
9.475510264e-06
2.447739117e-13
6.508699877e-13
9.47550701e-06
1.180130518e-12
1.129389324e-12
9.475506561e-06
1.197525677e-12
2.546381446e-12
9.475503414e-06
2.694812049e-12
2.002620851e-12
9.475501426e-06
2.269473878e-12
2.30237288e-12
9.475495971e-06
2.016604452e-12
2.739431046e-12
9.475493548e-06
2.865894536e-12
4.497785307e-12
9.47548959e-06
3.81870771e-12
5.025528384e-12
3.78316642e-12
4.745414299e-12
9.475550783e-06
-1.038421599e-11
-1.358839939e-11
9.475567882e-06
-1.836579207e-11
-1.98407731e-11
9.475574097e-06
-9.731759073e-12
-1.07187518e-11
9.475574022e-06
-5.162493296e-12
-4.734385463e-12
9.475575329e-06
5.415213802e-13
8.288518203e-14
9.475571805e-06
3.339728453e-12
2.724134759e-12
9.475565028e-06
3.090079538e-12
2.817407689e-12
9.475564996e-06
5.639638138e-12
3.695505694e-12
9.475561774e-06
5.44986509e-12
4.07959372e-12
9.475560093e-06
4.970123553e-12
4.844500189e-12
9.475556295e-06
3.150635111e-12
2.874424433e-12
9.475556525e-06
3.832535048e-12
4.122313896e-12
9.475552226e-06
4.310208882e-12
5.055257093e-12
5.472325673e-12
5.720587337e-12
9.475584124e-06
2.420539106e-12
-1.980320172e-11
9.475589976e-06
-1.238645651e-11
-2.917760691e-11
9.475580959e-06
-3.016362633e-12
-7.932374281e-12
9.475572645e-06
2.097152296e-12
3.849462563e-12
9.475563968e-06
3.097137818e-12
7.365395068e-12
9.475554032e-06
3.349560607e-12
8.992239862e-12
9.475550683e-06
4.073870708e-12
9.830352459e-12
9.475547152e-06
4.417576109e-12
8.861246907e-12
9.475544979e-06
2.837255306e-12
6.772504799e-12
9.475544801e-06
4.378405447e-12
5.456002605e-12
9.475544915e-06
4.147091921e-12
3.728513838e-12
9.475542995e-06
3.026649482e-12
3.545551045e-12
9.475544938e-06
4.312757739e-12
5.655227729e-12
4.687962663e-12
5.977683528e-12
9.475505658e-06
1.73697778e-11
4.666284008e-11
9.475505717e-06
1.869774518e-12
-3.722357164e-11
9.475492945e-06
2.998792397e-12
-5.418776996e-12
9.475481214e-06
5.860728346e-12
9.599191757e-12
9.47547099e-06
4.886693221e-12
1.354758995e-11
9.475463301e-06
5.005540331e-12
1.525329144e-11
9.475458649e-06
3.074820524e-12
1.357428185e-11
9.475456552e-06
2.702497221e-12
1.248903295e-11
9.475456129e-06
2.549463342e-12
8.922007406e-12
9.475457405e-06
1.315793908e-12
6.885286964e-12
9.475455952e-06
2.19932046e-12
4.535356113e-12
9.475457871e-06
3.81401956e-12
4.248489729e-12
9.475460781e-06
4.279439426e-12
7.379669313e-12
2.709734142e-12
6.747783788e-12
9.475547212e-06
-1.912784291e-11
2.30574004e-10
9.475492359e-06
-1.9341945e-12
5.649811248e-11
9.475463937e-06
-3.449052708e-12
4.896552413e-11
9.475443495e-06
-5.430769263e-12
4.141875888e-11
9.475435105e-06
-4.352187865e-12
2.986623175e-11
9.475429733e-06
-3.880325751e-12
2.135904447e-11
9.475428633e-06
-1.830217447e-12
1.632958421e-11
9.475431539e-06
-1.864006979e-12
1.164734902e-11
9.475431666e-06
-1.323076022e-12
7.310411267e-12
9.475436308e-06
-6.796109606e-13
6.539779727e-12
9.475437508e-06
-2.297151197e-12
5.124513321e-12
9.47543751e-06
-3.33126667e-12
2.479659278e-12
9.475440738e-06
-3.319802769e-12
6.254128484e-12
-2.92791057e-12
6.276463756e-12
9.475534694e-06
-1.874618507e-12
4.679243905e-11
9.475533818e-06
1.549877571e-11
-3.630769757e-11
9.475522391e-06
4.680967228e-12
-3.937143075e-12
9.4755096e-06
6.995063298e-13
1.046552582e-11
9.475499372e-06
-2.474551377e-12
1.410496944e-11
9.475490962e-06
-4.317053457e-12
1.424022563e-11
9.4754867e-06
-4.246316153e-12
1.318500782e-11
9.475485194e-06
-3.36750663e-12
1.206229099e-11
9.475483967e-06
-4.023235817e-12
7.263665758e-12
9.475482664e-06
-3.522654532e-12
4.489302444e-12
9.475484532e-06
-2.978629649e-12
5.023527792e-12
9.47548754e-06
-2.115896163e-12
5.915464042e-12
9.475487517e-06
-4.884085142e-12
8.040087831e-12
-4.660224674e-12
6.953292802e-12
9.475540344e-06
1.301662489e-11
-1.69296324e-11
9.475544081e-06
2.013145623e-11
-2.951085359e-11
9.47553859e-06
1.13921198e-11
-7.265331431e-12
9.475526022e-06
5.155648031e-12
2.274937507e-12
9.475517814e-06
2.664111895e-12
6.350112027e-12
9.475510683e-06
-2.29833825e-12
7.511333936e-12
9.475505284e-06
-2.877914827e-12
8.622191916e-12
9.475500341e-06
-2.285342559e-12
7.631998685e-12
9.475500527e-06
-1.673766017e-12
7.776601203e-12
9.475499706e-06
-2.075996819e-12
5.596037162e-12
9.475498354e-06
-3.881629266e-12
4.088858936e-12
9.475498056e-06
-3.718330185e-12
4.478189799e-12
9.475498889e-06
-4.207359115e-12
7.11152028e-12
-4.289006048e-12
5.751415082e-12
9.475466921e-06
9.633039264e-12
-1.286824947e-11
9.475482281e-06
1.34110358e-11
-2.052616537e-11
9.47549027e-06
7.269071669e-12
-1.079072468e-11
9.475492102e-06
4.546089694e-12
-5.06291954e-12
9.475491052e-06
2.789183279e-12
-2.597917786e-12
9.475491368e-06
2.277839384e-12
1.787680285e-12
9.475487921e-06
1.043691424e-12
2.808061572e-12
9.47548339e-06
-1.376683076e-12
2.68039678e-12
9.475480749e-06
-2.523573101e-12
2.853003959e-12
9.475476396e-06
-3.494079612e-12
2.043767107e-12
9.475476453e-06
-2.24437092e-12
3.04183046e-12
9.475474299e-06
-2.481876774e-12
3.418492006e-12
9.475473075e-06
-2.437572265e-12
5.473785565e-12
-2.697563677e-12
4.574412821e-12
9.47548284e-06
-1.664279639e-11
9.475498449e-06
-1.706601829e-11
9.475514168e-06
-8.903128823e-12
9.475519564e-06
-5.658150931e-12
9.4755224e-06
-3.56365619e-12
9.47552308e-06
-1.2660572e-12
9.475521063e-06
-3.350037417e-13
9.475516448e-06
5.034458865e-13
9.475513164e-06
1.788716021e-12
9.475513541e-06
3.257217725e-12
9.475509812e-06
2.880076817e-12
9.475505681e-06
2.741049009e-12
9.475503787e-06
2.762780729e-12
2.871846681e-12
9.475494006e-06
-8.247622833e-11
-5.9875802e-11
9.475504416e-06
-1.623255709e-11
-1.14211396e-11
9.475521095e-06
-1.870946646e-11
-1.513160491e-11
9.475523768e-06
-5.949153135e-12
-8.535935378e-12
9.475525231e-06
1.097931946e-12
-2.584329728e-12
9.475520601e-06
1.790955886e-12
-1.692380481e-12
9.47551784e-06
4.888883347e-12
8.305617681e-13
9.47551191e-06
4.742686743e-12
1.349623154e-12
9.475508213e-06
4.416252529e-12
1.819620888e-12
9.475504083e-06
5.085432544e-12
2.66125428e-12
9.475503546e-06
6.990794013e-12
3.425281709e-12
9.475499365e-06
4.153149352e-12
1.684653429e-12
9.475495121e-06
3.311255686e-12
1.62855342e-12
9.475491702e-06
4.226581965e-12
3.602154786e-12
5.694366923e-12
4.269460563e-12
9.475506326e-06
-1.111179593e-10
9.475495501e-06
-1.663755382e-11
-1.268419566e-12
9.47550019e-06
-2.752865661e-11
-1.642227848e-11
9.47549316e-06
-5.716225631e-12
-6.039898685e-12
9.475484062e-06
4.490799454e-12
2.079933219e-13
9.475477178e-06
8.612166483e-12
2.700675835e-12
9.475467815e-06
9.718458487e-12
3.599403449e-12
9.475460888e-06
9.76736257e-12
4.432843873e-12
9.475458725e-06
1.026660827e-11
5.321296789e-12
9.47545599e-06
8.177562333e-12
3.761331457e-12
9.475454632e-06
4.909188934e-12
2.900780013e-12
9.475453971e-06
4.864314874e-12
3.108530906e-12
9.47545515e-06
4.18179885e-12
3.355573737e-12
9.475455318e-06
5.468103874e-12
4.908314455e-12
5.974755328e-12
3.152756037e-12
9.475583483e-06
2.231222769e-11
1.704673043e-11
9.475546372e-06
-6.116912991e-12
-1.059136718e-11
9.475507519e-06
1.472359039e-11
1.147427274e-11
9.475477863e-06
1.672568213e-11
1.530914844e-11
9.475464918e-06
1.460485715e-11
1.394221149e-11
9.475454826e-06
1.180476663e-11
1.119544838e-11
9.475452915e-06
9.832044862e-12
8.885963244e-12
9.475453243e-06
8.103269553e-12
6.697555299e-12
9.475455706e-06
5.74172578e-12
6.185225106e-12
9.47545919e-06
5.79810566e-12
4.207811823e-12
9.475461796e-06
5.483978092e-12
3.302752085e-12
9.475464843e-06
4.485558278e-12
4.048112969e-12
9.475470794e-06
7.107946245e-12
5.602758129e-12
5.557244739e-12
3.798494714e-12
9.475566311e-06
8.594810052e-11
2.027413312e-10
9.47550555e-06
2.443526756e-11
-1.005335809e-11
9.47546277e-06
2.407274629e-11
2.54508655e-11
9.475442144e-06
1.876747704e-11
3.148724393e-11
9.475437102e-06
1.243475712e-11
2.449231462e-11
9.475439101e-06
8.57819094e-12
1.696846949e-11
9.475445662e-06
5.529950552e-12
1.272536597e-11
9.475450007e-06
2.218862013e-12
7.150170529e-12
9.475460192e-06
1.86562503e-12
4.609106554e-12
9.47546516e-06
2.403433408e-12
3.241235345e-12
9.475470567e-06
3.082429051e-12
3.071821245e-12
9.475478803e-06
2.197837842e-12
4.545574482e-12
9.475483051e-06
2.448931961e-12
5.662902623e-12
3.027674221e-12
4.424578882e-12
9.475689004e-06
-8.730276322e-11
1.012061068e-09
9.475485284e-06
-2.418642695e-11
3.139836842e-10
9.475424983e-06
-2.393826377e-11
1.525396592e-10
9.475416225e-06
-1.862631255e-11
8.947562065e-11
9.475425579e-06
-1.156696732e-11
4.488772979e-11
9.475437708e-06
-7.732614159e-12
2.370308001e-11
9.475448121e-06
-5.20763575e-12
1.327756056e-11
9.475457937e-06
-2.691817693e-12
7.572257368e-12
9.4754705e-06
-1.606412745e-12
5.501123844e-12
9.475476542e-06
-2.596923345e-12
2.59776548e-12
9.475481744e-06
-2.160841885e-12
1.575808098e-12
9.475490057e-06
-6.513708008e-13
2.839192257e-12
9.475497304e-06
-2.032510739e-12
5.41640959e-12
-2.380530012e-12
4.099281453e-12
9.475598271e-06
-1.892452116e-11
2.059292965e-10
9.475536777e-06
7.840716026e-12
-8.873777485e-12
9.47549436e-06
-1.370992796e-11
2.599540901e-11
9.475474283e-06
-1.674447796e-11
3.009593363e-11
9.475468113e-06
-1.625892252e-11
2.227873899e-11
9.475469931e-06
-1.437046378e-11
1.70759236e-11
9.475476248e-06
-1.126888837e-11
1.303914662e-11
9.475481468e-06
-8.508792313e-12
7.921923537e-12
9.475491954e-06
-4.523089013e-12
7.6346026e-12
9.475498608e-06
-3.235981836e-12
5.031370445e-12
9.475502972e-06
-4.783337689e-12
3.422376412e-12
9.475509467e-06
-4.151681279e-12
3.709801695e-12
9.475515636e-06
-5.469689249e-12
6.117044179e-12
-6.434930938e-12
5.474090199e-12
9.475617973e-06
1.772959761e-11
1.894250984e-11
9.475581414e-06
2.914988623e-11
-7.494956202e-12
9.475543883e-06
8.157829609e-12
1.312681771e-11
9.47551606e-06
-2.946175022e-12
1.612103768e-11
9.475501672e-06
-7.333936694e-12
1.464316032e-11
9.475495984e-06
-7.899681942e-12
1.346099019e-11
9.475492135e-06
-8.467308226e-12
1.097219039e-11
9.475494199e-06
-6.820121753e-12
8.038862971e-12
9.475496143e-06
-7.068342165e-12
7.496868535e-12
9.475499624e-06
-5.565798808e-12
5.689700824e-12
9.475502026e-06
-5.462882056e-12
5.453849716e-12
9.475506575e-06
-4.541399835e-12
3.453302049e-12
9.475507168e-06
-6.255432562e-12
5.613244708e-12
-5.324232665e-12
4.987538644e-12
9.475584208e-06
1.655047894e-11
2.576389574e-14
9.475587124e-06
1.910868731e-11
-1.374027756e-11
9.475578486e-06
6.8547367e-12
-5.068325531e-12
9.475568778e-06
1.24854984e-12
8.052090353e-13
9.475563335e-06
9.191695525e-13
4.488500014e-12
9.475555564e-06
-2.640769121e-12
5.190337937e-12
9.475549559e-06
-3.040804824e-12
4.33050821e-12
9.475545975e-06
-3.488278754e-12
4.180298419e-12
9.47554375e-06
-2.476285931e-12
3.736075245e-12
9.475542474e-06
-3.270183805e-12
4.037512132e-12
9.475544431e-06
-2.93427372e-12
4.986235564e-12
9.475541808e-06
-2.989260096e-12
4.157814546e-12
9.475541237e-06
-4.677747544e-12
5.642221907e-12
-4.159661644e-12
4.590581639e-12
9.475532786e-06
-1.003861086e-11
9.47554554e-06
-1.26915362e-11
9.475551768e-06
-5.208567447e-12
9.475551419e-06
-2.116086018e-12
9.475547308e-06
-5.480285276e-13
9.475543662e-06
1.866765731e-12
9.47553977e-06
1.301258547e-12
9.475535876e-06
1.450586483e-12
9.475533163e-06
2.332031993e-12
9.475530745e-06
2.108684945e-12
9.475527448e-06
3.655771422e-12
9.47552533e-06
4.729335705e-12
9.475522448e-06
6.078131931e-12
5.00904411e-12
9.475554387e-06
-1.194734926e-10
-5.812716036e-11
9.475543592e-06
1.632332973e-12
-4.96891612e-12
9.4755604e-06
-2.249825647e-11
-3.142267517e-12
9.475562836e-06
-5.514305057e-12
1.025004521e-12
9.475556261e-06
2.581502994e-12
1.110092149e-12
9.475551327e-06
6.737407207e-12
1.701626735e-12
9.475541125e-06
8.428051377e-12
1.371796896e-12
9.475534885e-06
8.105787761e-12
8.280711497e-13
9.475532022e-06
6.803894661e-12
7.089437194e-13
9.475529181e-06
5.22955309e-12
5.621147071e-13
9.475524874e-06
4.904939405e-12
1.509989286e-12
9.475525078e-06
4.669260562e-12
6.228030791e-13
9.475525331e-06
4.347967481e-12
2.119073129e-12
9.475521661e-06
5.014412929e-12
3.605643619e-13
3.994507702e-12
1.468395012e-12
9.475625462e-06
-2.840890412e-10
-1.161494195e-10
9.475562408e-06
4.688521486e-11
1.684206566e-11
9.47556245e-06
-3.63093731e-11
5.755872941e-13
9.475549601e-06
-3.309663671e-12
2.984413128e-12
9.475533958e-06
1.128986078e-11
4.024714154e-12
9.475524829e-06
1.406267536e-11
3.928586601e-12
9.475514607e-06
1.428427075e-11
1.756973168e-12
9.475512326e-06
1.179788898e-11
7.313631963e-13
9.475511623e-06
1.082224555e-11
1.68101264e-12
9.475515009e-06
9.997332417e-12
2.158750546e-12
9.475512567e-06
6.260469748e-12
1.860174397e-12
9.475513212e-06
4.313582469e-12
2.104398806e-12
9.475515043e-06
5.15302772e-12
1.443830579e-12
9.475516616e-06
5.468054619e-12
1.413023601e-12
5.72023651e-12
4.736483826e-13
9.475824533e-06
-3.5334063e-10
9.475603783e-06
2.072801985e-10
8.547951974e-11
9.475543641e-06
-5.624313677e-12
2.48645429e-11
9.475499637e-06
2.81918379e-11
2.372724173e-11
9.475477988e-06
3.173640401e-11
1.830871016e-11
9.4754726e-06
2.331356694e-11
1.163997535e-11
9.47547467e-06
1.768931785e-11
6.708126354e-12
9.475480485e-06
1.444495584e-11
3.315705025e-12
9.475488914e-06
1.097342503e-11
3.345730059e-12
9.475495316e-06
5.392472719e-12
2.705262728e-12
9.475501988e-06
4.878387585e-12
3.163092055e-12
9.47551154e-06
4.858460505e-12
4.162475596e-12
9.47551627e-06
3.706598277e-12
2.318636446e-12
9.475523778e-06
7.339392198e-12
3.184180634e-12
6.308795943e-12
2.390395569e-12
9.475302838e-06
4.214582279e-10
4.207695357e-10
9.475326616e-06
-1.970571556e-11
-2.01648904e-11
9.475337089e-06
2.066610042e-11
2.044587289e-11
9.475356209e-06
2.427864838e-11
2.515246354e-11
9.475376442e-06
1.312200276e-11
1.328994542e-11
9.475397544e-06
9.263760656e-12
8.84643876e-12
9.475413212e-06
4.961681757e-12
4.184296673e-12
9.475425354e-06
2.695479003e-12
1.405869172e-12
9.475438826e-06
2.952076863e-12
2.236603178e-12
9.475447732e-06
1.833165987e-12
2.496475905e-12
9.475455568e-06
1.690008701e-12
2.562151322e-12
9.475463121e-06
7.542210771e-13
1.06636038e-12
9.475469408e-06
2.745561918e-12
2.739850763e-12
3.876203875e-12
3.260741122e-12
9.475241369e-06
-4.203346679e-10
3.280063978e-09
9.475269852e-06
2.159576877e-11
2.489926987e-10
9.475367787e-06
-2.031593452e-11
9.775331728e-11
9.47544208e-06
-2.520242623e-11
6.814761672e-11
9.475489553e-06
-1.344195944e-11
2.708274768e-11
9.475518641e-06
-7.895926239e-12
9.513694142e-12
9.475538153e-06
-4.356331827e-12
3.409011097e-12
9.475553239e-06
-2.290169192e-12
-1.337074538e-14
9.475563389e-06
-5.486935007e-13
1.105717793e-12
9.475571075e-06
-3.418607757e-13
7.994512281e-13
9.475577913e-06
-5.374390398e-13
1.494984927e-12
9.475584041e-06
-2.633001527e-13
1.443360864e-12
9.475592525e-06
-1.07816011e-12
2.199950675e-12
-1.513029133e-12
-1.335854291e-12
9.475369783e-06
-2.038802085e-10
4.218543699e-10
9.475393659e-06
9.049729524e-12
-2.042271836e-11
9.475405293e-06
-2.715218435e-11
2.034089548e-11
9.475424496e-06
-3.04257474e-11
2.562508902e-11
9.475446734e-06
-2.257622551e-11
1.46189412e-11
9.475464515e-06
-1.856184375e-11
8.069110896e-12
9.475480027e-06
-1.421581676e-11
4.232428586e-12
9.47549574e-06
-8.631988175e-12
3.039950748e-12
9.475505953e-06
-5.000692183e-12
3.36499999e-13
9.47551481e-06
-2.445049322e-12
-6.216809828e-13
9.475524211e-06
-2.724905674e-12
4.541029377e-13
9.475532267e-06
-4.094544296e-12
9.314039519e-13
9.475539481e-06
-7.359644813e-12
1.209540434e-12
-7.801095431e-12
1.607258987e-12
9.47560041e-06
-4.857673518e-11
8.667387532e-11
9.475536475e-06
3.627576693e-11
2.39958544e-11
9.475494982e-06
4.630745192e-12
2.362777609e-11
9.475474216e-06
-9.285488599e-12
1.877154848e-11
9.475469394e-06
-1.271264975e-11
1.191450127e-11
9.475469501e-06
-1.273729738e-11
7.404185079e-12
9.475475476e-06
-1.321362044e-11
4.44367522e-12
9.475482537e-06
-1.030746457e-11
2.189684735e-12
9.475487142e-06
-9.717593648e-12
1.099209329e-12
9.475494888e-06
-7.300746586e-12
1.289949004e-12
9.475500775e-06
-5.892728072e-12
5.130496336e-13
9.475509487e-06
-3.96322583e-12
1.404546108e-12
9.475514858e-06
-6.137337686e-12
2.507780326e-12
-5.080324271e-12
3.324594029e-12
9.475507286e-06
-1.175466026e-12
1.978259039e-11
9.475503341e-06
2.188759873e-11
1.065265222e-12
9.475490723e-06
6.798848566e-12
2.117711812e-12
9.4754779e-06
-1.671021328e-12
5.015358441e-12
9.475467131e-06
-5.117365516e-12
4.000331637e-12
9.475458708e-06
-6.295639996e-12
3.33644209e-12
9.475458385e-06
-5.769620797e-12
2.807151983e-12
9.475455696e-06
-5.304628481e-12
2.246214004e-12
9.475454875e-06
-4.242269955e-12
3.631367165e-12
9.475454706e-06
-4.355886662e-12
2.040204254e-12
9.475455774e-06
-3.531403225e-12
2.080314615e-12
9.475458909e-06
-1.954061524e-12
1.608916223e-12
9.475458806e-06
-4.286830979e-12
3.446581692e-12
-4.336345592e-12
3.224753344e-12
9.475543105e-06
-4.426454323e-12
9.475557984e-06
-3.889766557e-12
9.475558793e-06
-3.834697887e-13
9.475554756e-06
2.004614456e-12
9.475548239e-06
3.147899922e-12
9.475540348e-06
7.138560878e-13
9.475535242e-06
-2.31927804e-13
9.475530675e-06
2.053542656e-13
9.475525706e-06
1.077727355e-12
9.475522874e-06
1.692709331e-12
9.475520771e-06
1.81557514e-12
9.475518744e-06
1.309823337e-12
9.47551613e-06
1.339077658e-12
2.288843389e-12
9.475608555e-06
-3.280436819e-10
5.831435542e-11
9.475570796e-06
2.574786416e-11
3.767790284e-12
9.475565341e-06
2.409180724e-12
2.95990234e-12
9.47555193e-06
1.334721476e-11
-2.256482798e-13
9.475539408e-06
1.707258581e-11
-2.513126035e-12
9.475529451e-06
1.506768097e-11
-2.81297616e-12
9.475522133e-06
1.231882781e-11
-4.508093212e-12
9.475514208e-06
9.180315266e-12
-3.081561535e-12
9.475511593e-06
8.968959617e-12
-1.747468372e-12
9.475509378e-06
6.735686864e-12
-7.682565142e-13
9.475505801e-06
4.58481895e-12
-5.63118645e-13
9.475506702e-06
5.28956863e-12
-5.642290945e-13
9.475504349e-06
3.870204877e-12
-1.545806165e-12
9.475505015e-06
6.294364517e-12
-1.993584092e-12
3.832574408e-12
-1.285380902e-12
9.475770253e-06
-9.239702207e-10
1.153085246e-10
9.475600856e-06
2.314594031e-10
-1.752942097e-11
9.475546882e-06
5.918595879e-11
-3.371509269e-14
9.475518319e-06
5.045524771e-11
-3.055858081e-12
9.47549978e-06
4.477436288e-11
-5.37046144e-12
9.475487714e-06
3.028249389e-11
-6.628037021e-12
9.475484779e-06
2.21735398e-11
-5.323571656e-12
9.475483752e-06
1.497297549e-11
-2.754927629e-12
9.475482938e-06
1.133734177e-11
-1.807836175e-12
9.47548622e-06
9.686385993e-12
-1.259022123e-12
9.475488384e-06
6.361116461e-12
-1.147670981e-12
9.475490462e-06
6.039857602e-12
-5.179518783e-13
9.475492256e-06
5.297873487e-12
1.026528461e-13
9.475493548e-06
7.23072601e-12
-1.14483561e-12
7.996874855e-12
-3.616508564e-13
9.476280077e-06
-2.541874006e-09
3.515483139e-10
9.475669053e-06
1.015049563e-09
-8.617308079e-11
9.475462722e-06
3.171868018e-10
-2.373964552e-11
9.475405738e-06
1.549013475e-10
-2.405348264e-11
9.47539655e-06
9.030301034e-11
-2.024512056e-11
9.475406227e-06
4.519999047e-11
-1.363144166e-11
9.475419532e-06
2.544169796e-11
-9.631446675e-12
9.475433477e-06
1.574154161e-11
-5.138685561e-12
9.47544624e-06
9.21703705e-12
-2.937104181e-12
9.475454602e-06
4.496102378e-12
-2.770046623e-12
9.47546308e-06
3.764404033e-12
-1.490865449e-12
9.475469365e-06
2.693428386e-12
-1.050675179e-12
9.475475609e-06
2.450710017e-12
-6.683198973e-13
9.475483547e-06
6.459175218e-12
-1.725073247e-12
5.583077375e-12
-1.565881431e-12
9.476645371e-06
5.942564428e-10
9.475224318e-06
3.28192539e-09
-4.213856763e-10
9.47525388e-06
2.486165021e-10
1.976987438e-11
9.475354554e-06
9.684539113e-11
-2.06025102e-11
9.475425516e-06
6.770558159e-11
-2.409347938e-11
9.475473673e-06
2.752850636e-11
-1.361650622e-11
9.475503048e-06
9.329841623e-12
-8.070815161e-12
9.475523701e-06
2.743567015e-12
-6.467515018e-12
9.475539617e-06
4.790429312e-13
-3.093193509e-12
9.475551738e-06
8.43711024e-13
1.230584765e-13
9.475556644e-06
-1.429748758e-13
-6.086678339e-13
9.475564751e-06
3.867917447e-13
2.898210728e-13
9.475572286e-06
1.230985961e-12
2.621597753e-13
9.475578281e-06
1.705146258e-12
-2.255368905e-12
-1.882254295e-12
-2.490372315e-12
9.503567178e-06
-3.279174846e-09
-3.280480738e-09
9.504589155e-06
-2.479199267e-10
-2.484122431e-10
9.505002924e-06
-9.720326479e-11
-9.687038522e-11
9.505301969e-06
-6.799822748e-11
-6.796975083e-11
9.505428002e-06
-2.722793259e-11
-2.729547352e-11
9.505494964e-06
-9.573623255e-12
-1.018190595e-11
9.50554056e-06
-2.867561103e-12
-3.003758597e-12
9.505584435e-06
1.867014787e-13
-8.952051883e-13
9.505628433e-06
-1.105756841e-12
-8.555662863e-13
9.505678671e-06
-1.850374629e-12
-1.357164697e-13
9.505738205e-06
-1.401015479e-12
1.14877753e-12
9.505801805e-06
-7.020992754e-13
8.795296004e-13
9.505874346e-06
-2.257120206e-12
-9.46364433e-13
1.959068954e-12
1.429910062e-12
9.475206516e-06
-1.013620676e-09
-4.219031065e-10
9.47523651e-06
-3.1381539e-10
2.01021514e-11
9.475337528e-06
-1.538539965e-10
-1.851636925e-11
9.475411071e-06
-8.961834366e-11
-2.298880824e-11
9.475457187e-06
-4.591129556e-11
-1.369300169e-11
9.475487285e-06
-2.558377677e-11
-8.331052503e-12
9.475510012e-06
-1.415789094e-11
-3.313778308e-12
9.475522729e-06
-7.289648164e-12
-2.118163979e-12
9.475533648e-06
-3.821443326e-12
-9.00389814e-13
9.475542782e-06
-1.246781667e-12
9.661667448e-13
9.475550658e-06
-2.065445249e-12
4.125382066e-13
9.475553008e-06
-3.097712686e-12
-4.469375239e-13
9.475561389e-06
-6.299866518e-12
-3.697112592e-13
-4.907860366e-12
-2.832613238e-12
9.475681497e-06
-2.317795821e-10
-8.561854872e-11
9.475474264e-06
-5.821600287e-11
-2.434067167e-11
9.475420023e-06
-4.884175508e-11
-2.302030631e-11
9.475409901e-06
-4.286357975e-11
-1.884472797e-11
9.475420581e-06
-2.895422816e-11
-1.273880359e-11
9.475433998e-06
-1.959574718e-11
-6.924536653e-12
9.475446778e-06
-1.404314531e-11
-4.618603864e-12
9.475458077e-06
-9.868871486e-12
-3.443692004e-12
9.475469345e-06
-6.672572437e-12
-2.386964676e-12
9.4754749e-06
-4.971477052e-12
-9.223955185e-13
9.475482348e-06
-4.01002419e-12
-1.078481586e-12
9.475489763e-06
-3.751934075e-12
-1.858738082e-12
9.475496377e-06
-4.885696598e-12
-4.638472696e-13
-6.155357885e-12
-1.509152204e-12
9.47557506e-06
-2.598455275e-11
-1.769152803e-11
9.475523281e-06
-2.559141712e-12
-5.705849734e-13
9.475495966e-06
-1.330638301e-11
-4.043573099e-12
9.475476244e-06
-1.557204236e-11
-5.605968065e-12
9.475467529e-06
-1.269061951e-11
-4.562043665e-12
9.475460417e-06
-1.185355067e-11
-3.29181953e-12
9.475461186e-06
-9.924958271e-12
-2.477306152e-12
9.475462158e-06
-8.186974817e-12
-1.639210294e-12
9.47546315e-06
-5.167426722e-12
-2.255519901e-12
9.475466589e-06
-4.210018078e-12
-4.006112517e-13
9.475468201e-06
-3.305757086e-12
-1.790664192e-12
9.475473448e-06
-2.147386883e-12
-2.424846643e-12
9.475474516e-06
-5.453450409e-12
-3.334661339e-12
-4.741731966e-12
-1.06375304e-12
9.475578413e-06
4.901235943e-12
9.475573358e-06
4.844817886e-12
9.475559981e-06
2.852103703e-13
9.47554609e-06
-2.015048438e-12
9.47553801e-06
-2.607774316e-13
9.475530672e-06
-1.552591336e-12
9.47552626e-06
-2.608103313e-13
9.475523441e-06
-5.984099798e-13
9.475517738e-06
-1.42579027e-12
9.475515129e-06
-1.270987292e-13
9.4755147e-06
-2.20650274e-13
9.475514521e-06
-2.274827135e-12
9.475513205e-06
-1.026626581e-12
-2.611110444e-13
9.475486317e-06