/*--------------------------------*- C++ -*----------------------------------*\
| =========                 |                                                 |
| \\      /  F ield         | OpenFOAM: The Open Source CFD Toolbox           |
|  \\    /   O peration     | Version:  4.x                                   |
|   \\  /    A nd           | Web:      www.OpenFOAM.org                      |
|    \\/     M anipulation  |                                                 |
\*---------------------------------------------------------------------------*/
FoamFile
{
    version     2.0;
    format      ascii;
    class       volScalarField;
    location    "8000";
    object      rhoeps;
}
// * * * * * * * * * * * * * * * * * * * * * * * * * * * * * * * * * * * * * //

dimensions      [1 -3 0 0 0 0 0];

internalField   nonuniform List<scalar> 
1174
(
0.2790917623
0.2790919993
0.2790923032
0.2790927443
0.2790932723
0.2790938894
0.2790945552
0.2790952542
0.2790960395
0.2790968053
0.2790976029
0.2790983724
0.2790990887
0.2790996565
0.2790907767
0.2790911596
0.2790916739
0.2790922982
0.2790930194
0.279093799
0.2790946062
0.2790954446
0.2790962802
0.2790971032
0.2790979258
0.2790986939
0.2790993564
0.2790998668
0.2790928028
0.2790934943
0.2790943524
0.2790952955
0.2790963001
0.2790973052
0.2790983257
0.279099291
0.279100143
0.2791009505
0.2791017079
0.2791023816
0.2791029977
0.2791034759
0.2790942742
0.2790953199
0.2790964657
0.2790976988
0.2790989287
0.2791001
0.2791012202
0.2791022385
0.2791031416
0.2791039147
0.2791046132
0.2791052238
0.2791057407
0.2791061117
0.2790946787
0.2790959043
0.2790972741
0.2790986294
0.2790999248
0.2791011414
0.2791022526
0.2791032274
0.2791041046
0.2791048286
0.2791054953
0.2791060038
0.2791064587
0.2791067502
0.2790933049
0.2790943276
0.2790954924
0.2790967565
0.2790980066
0.2790992251
0.2791003444
0.2791013776
0.2791022544
0.279103004
0.2791036853
0.279104291
0.2791047897
0.2791051763
0.2790924224
0.2790931022
0.2790939278
0.2790948748
0.2790958778
0.2790968858
0.2790979361
0.2790988904
0.2790997518
0.2791005922
0.2791013333
0.2791019937
0.2791025722
0.2791030404
0.2790924091
0.2790927555
0.2790932215
0.279093837
0.2790945506
0.279095309
0.2790961001
0.2790969358
0.279097771
0.2790985978
0.2790993752
0.2791001098
0.2791007811
0.279101296
0.2790918657
0.2790920676
0.2790923863
0.2790928074
0.2790933164
0.2790939699
0.2790946416
0.2790953823
0.2790961409
0.2790969349
0.2790976965
0.2790984782
0.279099178
0.2790997406
0.2790913251
0.2790915733
0.2790919738
0.2790924882
0.2790931335
0.279093855
0.2790946285
0.2790954744
0.2790963018
0.2790971383
0.2790979693
0.2790987407
0.2790994744
0.2791001623
0.2791007066
0.2790941272
0.2790948307
0.2790956651
0.2790965126
0.2790974408
0.2790983918
0.2790993241
0.2791002381
0.2791011135
0.2791019029
0.2791026032
0.2791032599
0.2791038739
0.2791043181
0.2790952609
0.2790965391
0.2790979372
0.2790992776
0.2791006424
0.2791017827
0.2791028432
0.2791037126
0.2791045084
0.2791051782
0.2791057085
0.2791061581
0.2791065067
0.2791068121
0.2790951925
0.2790973039
0.2790993641
0.2791011328
0.2791025894
0.2791037684
0.279104669
0.2791053441
0.2791058131
0.2791061938
0.279106454
0.2791066175
0.2791066955
0.2791067951
0.2790966479
0.2790992008
0.2791013915
0.2791030813
0.2791043638
0.2791053641
0.2791060672
0.2791065783
0.2791069026
0.2791071572
0.2791073008
0.2791073593
0.2791073358
0.2791072826
0.2790959856
0.2790981548
0.2791002225
0.2791019875
0.2791034498
0.2791046047
0.2791054877
0.2791061591
0.2791066875
0.2791070139
0.2791073011
0.2791074697
0.279107602
0.2791076624
0.2790940283
0.2790952688
0.2790966409
0.2790980457
0.2790993009
0.2791005104
0.2791015202
0.2791024346
0.2791031561
0.2791038329
0.2791043722
0.2791048366
0.2791051612
0.2791054687
0.2790916842
0.2790923994
0.2790932099
0.2790941173
0.2790950299
0.2790959803
0.2790969325
0.2790978385
0.2790987101
0.2790994995
0.2791002381
0.279100918
0.2791015334
0.2791019365
0.2790920432
0.2790924317
0.2790929522
0.2790935541
0.2790942782
0.2790950604
0.2790958649
0.2790966502
0.2790975137
0.279098319
0.2790991097
0.2790998523
0.2791005684
0.2791010845
0.2790919228
0.2790924311
0.2790930918
0.2790938989
0.2790948688
0.2790958993
0.2790969004
0.2790978953
0.2790988664
0.2790997634
0.2791005883
0.2791013464
0.279102033
0.2791026292
0.2791030481
0.2790916646
0.279092703
0.2790939853
0.2790953656
0.2790967417
0.2790980565
0.2790992675
0.2791003064
0.2791011734
0.2791019133
0.2791025397
0.2791030816
0.2791034909
0.2791038971
0.2791041945
0.2790968966
0.2790996512
0.2791021071
0.2791041427
0.2791056511
0.2791067093
0.2791074347
0.2791078938
0.2791081509
0.2791082609
0.2791082997
0.2791082525
0.2791081848
0.2791081429
0.2791053466
0.2791099505
0.279113117
0.2791150074
0.2791159279
0.2791161079
0.2791158906
0.2791153867
0.2791147728
0.279114123
0.2791134811
0.2791128722
0.2791122735
0.2791118135
0.2791165495
0.2791211189
0.2791230854
0.2791234668
0.2791228597
0.2791218069
0.2791205563
0.2791192883
0.2791180773
0.2791169388
0.2791158911
0.2791149258
0.27911413
0.2791135241
0.2791062483
0.279110847
0.2791140083
0.2791158712
0.2791167585
0.2791169933
0.2791167733
0.2791163065
0.279115725
0.2791150609
0.279114399
0.2791138205
0.2791132471
0.2791128305
0.2790978931
0.2791006802
0.2791031581
0.2791051777
0.2791067078
0.2791078235
0.2791086043
0.2791090801
0.2791093082
0.2791094469
0.2791094982
0.2791094787
0.2791094195
0.2791093155
0.2790952655
0.2790965563
0.2790979776
0.2790992986
0.2791005811
0.2791017664
0.279102803
0.27910371
0.279104438
0.279105102
0.2791056207
0.2791060495
0.2791064617
0.2791067695
0.2790932218
0.2790938957
0.2790947379
0.2790956764
0.2790966622
0.27909769
0.2790986775
0.2790996663
0.2791006126
0.279101406
0.2791021739
0.2791028733
0.2791034487
0.2791038754
0.2790932898
0.2790940981
0.2790951055
0.279096303
0.2790975862
0.2790988335
0.2791000692
0.2791011448
0.2791021404
0.2791030092
0.2791038091
0.2791045067
0.2791050939
0.2791055501
0.2791059079
0.2790948325
0.2790967902
0.279098993
0.2791009995
0.2791027669
0.2791042254
0.2791053663
0.279106273
0.2791069335
0.2791075084
0.27910783
0.2791081581
0.2791083189
0.2791084199
0.2791084714
0.2791008089
0.279106399
0.2791109942
0.2791141773
0.2791160214
0.2791168934
0.2791171254
0.2791169028
0.2791164321
0.2791158435
0.2791151827
0.2791145192
0.2791139402
0.2791134095
0.279113009
0.2791329526
0.279138715
0.2791396637
0.2791380337
0.2791352402
0.2791321079
0.2791290146
0.2791261142
0.2791235551
0.2791213579
0.2791194564
0.2791178168
0.2791164283
0.2791154214
0.2791918829
0.2791846252
0.2791735005
0.2791627803
0.2791537557
0.2791463214
0.2791403454
0.2791355611
0.2791316774
0.2791284465
0.2791257931
0.2791236311
0.2791218684
0.2791205823
0.2791349562
0.279140733
0.2791416814
0.2791400258
0.2791372231
0.2791340428
0.2791309778
0.2791280841
0.2791255887
0.2791233761
0.2791214719
0.2791198454
0.279118469
0.279117485
0.2791063352
0.2791108767
0.2791140433
0.2791159059
0.2791167597
0.2791169942
0.2791167296
0.2791162559
0.279115675
0.2791150007
0.2791143138
0.2791137352
0.2791132131
0.279112819
0.2790951469
0.2790972712
0.2790993548
0.2791011106
0.2791025678
0.2791037444
0.2791046375
0.2791052989
0.279105801
0.2791061719
0.2791064332
0.2791066042
0.2791067596
0.2791068401
0.2790940405
0.2790950629
0.2790962765
0.2790975529
0.2790988044
0.2791000253
0.2791011118
0.2791020877
0.279102975
0.2791037274
0.2791044134
0.279104951
0.2791054472
0.2791058121
0.2790931151
0.2790941191
0.279095355
0.2790967045
0.2790980763
0.2790994041
0.279100604
0.2791017556
0.2791027278
0.2791035679
0.2791042974
0.2791049511
0.2791054989
0.2791059152
0.279106229
0.2790954615
0.279098178
0.2791007503
0.2791029375
0.2791046937
0.2791060105
0.2791069685
0.2791076603
0.2791081326
0.2791084574
0.2791086883
0.2791088336
0.2791088993
0.2791089059
0.2791088889
0.2791078687
0.279115955
0.2791204785
0.2791224685
0.2791228285
0.2791222652
0.2791212865
0.2791200943
0.2791188842
0.2791176635
0.2791165071
0.2791154788
0.2791146078
0.279113787
0.2791131793
0.2791815783
0.2791914478
0.2791842009
0.2791730929
0.2791624036
0.279153324
0.2791459058
0.2791399217
0.2791351186
0.2791312822
0.2791280958
0.2791254822
0.2791232423
0.2791214342
0.2791201239
0.2803110218
0.2801892346
0.2801220461
0.2800830169
0.2800591172
0.2800437304
0.2800334609
0.2800264695
0.2800216505
0.2800183783
0.2800163177
0.2800151906
0.2800147587
0.2800150646
0.2791909995
0.2791837144
0.2791725957
0.279161902
0.2791528203
0.2791454393
0.2791394759
0.2791347025
0.2791307776
0.2791275914
0.2791249837
0.279122768
0.2791209638
0.2791196986
0.2791163546
0.2791209598
0.2791229352
0.2791232855
0.2791227387
0.2791216963
0.2791205337
0.2791192514
0.2791180053
0.2791168469
0.2791158669
0.2791149464
0.2791141509
0.2791135384
0.2790975061
0.2791000972
0.279102342
0.2791040501
0.2791054047
0.2791063738
0.279107068
0.2791075495
0.2791078744
0.2791080811
0.2791082291
0.2791083074
0.2791083234
0.2791082839
0.2790943557
0.2790956319
0.2790969833
0.2790983626
0.2790997015
0.2791009225
0.2791020095
0.2791030184
0.2791038554
0.2791046196
0.279105234
0.2791057829
0.2791061847
0.2791065012
0.2790912932
0.2790920861
0.2790931083
0.2790942565
0.2790955166
0.2790968004
0.2790979684
0.2790990619
0.2791000388
0.2791008972
0.2791016862
0.2791023332
0.2791029028
0.2791034051
0.2791037692
0.2790944219
0.2790963729
0.2790984823
0.2791005358
0.2791023124
0.2791037456
0.2791049176
0.2791058715
0.2791065612
0.2791070692
0.2791074213
0.2791077055
0.2791079214
0.2791080524
0.2791081228
0.2790999069
0.2791055322
0.2791101232
0.2791132638
0.2791151428
0.2791160258
0.2791161875
0.2791159495
0.2791154565
0.2791147919
0.2791141579
0.2791135167
0.2791129003
0.2791123914
0.2791119728
0.2791213478
0.2791343844
0.2791401654
0.2791411076
0.2791394591
0.2791366231
0.2791334287
0.2791303396
0.2791274474
0.2791249002
0.279122667
0.2791207554
0.2791191341
0.2791177755
0.2791167736
0.279178951
0.2791888378
0.2791815504
0.2791703956
0.2791597041
0.2791506347
0.2791432256
0.2791372225
0.2791323732
0.2791284552
0.2791252364
0.2791225798
0.2791203284
0.2791185399
0.2791172083
0.2791226143
0.2791356015
0.2791413547
0.2791422888
0.2791406035
0.2791377466
0.2791346089
0.2791315209
0.2791286505
0.279126101
0.2791238909
0.2791219523
0.2791203587
0.2791189688
0.2791179511
0.2791060733
0.2791106436
0.2791137753
0.2791156536
0.2791165247
0.2791167567
0.2791165243
0.2791160488
0.2791154144
0.279114748
0.2791141012
0.2791134881
0.2791129508
0.279112504
0.2790948123
0.2790969682
0.2790990196
0.2791008107
0.2791022884
0.2791034362
0.279104305
0.2791050161
0.2791055545
0.2791059147
0.2791061795
0.2791064134
0.2791065707
0.2791066398
0.2790934152
0.2790944446
0.2790956185
0.2790968678
0.2790981351
0.2790993115
0.279100434
0.2791014326
0.2791023238
0.2791031149
0.2791037793
0.2791043631
0.2791048389
0.2791052041
0.2790926409
0.279093127
0.2790937952
0.2790946319
0.2790956073
0.2790965897
0.2790976136
0.2790986165
0.2790995769
0.2791004948
0.2791013177
0.2791020601
0.2791027523
0.2791033483
0.2791038069
0.2790943217
0.2790953598
0.2790966552
0.2790980538
0.2790994355
0.2791007726
0.2791019352
0.279102942
0.2791038069
0.2791045556
0.2791052109
0.2791058013
0.2791062314
0.2791066515
0.2791069195
0.2790945023
0.2790970699
0.2790998133
0.2791022438
0.2791042532
0.2791057742
0.2791069074
0.2791076667
0.2791081188
0.2791083668
0.2791085266
0.2791085203
0.2791084991
0.2791084165
0.2791083912
0.2791001225
0.2791057099
0.2791103531
0.279113525
0.2791153582
0.2791162606
0.2791164514
0.2791162117
0.2791157002
0.2791151231
0.2791144513
0.2791137847
0.2791131505
0.2791126015
0.2791121842
0.279107946
0.2791160453
0.2791206281
0.279122608
0.2791229645
0.2791224058
0.2791213533
0.2791201091
0.2791188751
0.2791176533
0.2791165188
0.2791154596
0.2791145628
0.2791137108
0.2791130774
0.2791007682
0.2791063579
0.2791109683
0.2791141227
0.2791159788
0.279116827
0.2791170156
0.2791167911
0.2791162798
0.2791156462
0.279114976
0.2791143222
0.279113689
0.2791131425
0.2791127429
0.2790952343
0.2790978121
0.2791005569
0.2791030018
0.2791050281
0.2791065385
0.2791076279
0.2791083832
0.2791089066
0.2791091976
0.2791093591
0.2791093942
0.2791093505
0.2791093237
0.279109298
0.2790940753
0.2790953576
0.2790967263
0.2790981224
0.2790994552
0.2791006586
0.2791016753
0.2791025433
0.2791032925
0.2791039303
0.2791044425
0.2791048794
0.2791052591
0.2791055079
0.2790933208
0.2790939656
0.2790948055
0.2790957386
0.2790967553
0.2790977389
0.2790986905
0.2790996669
0.2791005442
0.2791014299
0.2791021468
0.2791028396
0.2791034457
0.2791038769
0.2790919298
0.2790921472
0.27909252
0.279092998
0.2790936098
0.2790943285
0.2790951241
0.2790959598
0.2790967565
0.279097584
0.2790983728
0.2790991524
0.2790998953
0.2791005548
0.2791011024
0.2790922137
0.2790927014
0.2790933583
0.2790942023
0.2790951104
0.2790960727
0.2790970281
0.2790979728
0.2790988287
0.2790997089
0.2791005342
0.2791012789
0.27910192
0.2791025088
0.2791029459
0.2790935311
0.2790945829
0.2790958697
0.2790973011
0.2790987284
0.2791000572
0.2791011553
0.2791021987
0.2791030812
0.279103858
0.279104485
0.2791050501
0.2791054732
0.2791058675
0.2791061169
0.2790936032
0.2790955626
0.2790976858
0.2790996794
0.2791014729
0.2791029422
0.2791041024
0.2791050159
0.279105655
0.2791061924
0.2791065498
0.2791068197
0.2791070178
0.2791071105
0.2791071823
0.2790952676
0.2790979818
0.2791005593
0.2791027292
0.279104467
0.2791057852
0.2791068253
0.2791075161
0.2791080031
0.2791082939
0.2791085212
0.2791086331
0.2791086707
0.2791086552
0.2791086526
0.2790934661
0.2790954263
0.2790975502
0.2790996228
0.2791014103
0.279102884
0.2791040345
0.2791049728
0.2791056635
0.2791062053
0.2791065621
0.2791068471
0.2791070338
0.2791071749
0.2791072661
0.2790949334
0.2790959626
0.2790972483
0.2790986607
0.2791000364
0.2791013865
0.2791025006
0.2791035102
0.2791044179
0.27910517
0.2791058278
0.2791063725
0.2791068438
0.2791072303
0.279107503
0.2790940955
0.2790945838
0.2790952476
0.279096077
0.2790969397
0.2790978834
0.2790988638
0.279099826
0.2791007398
0.2791015732
0.2791023502
0.2791031013
0.2791037243
0.2791042852
0.2791046966
0.2790928625
0.2790932237
0.2790937104
0.2790943237
0.2790950459
0.2790958236
0.279096638
0.2790974758
0.279098292
0.2790991268
0.2790999299
0.2791006828
0.2791013772
0.2791019106
0.2790928845
0.2790930695
0.2790933056
0.2790936302
0.2790940467
0.2790945803
0.2790951968
0.2790959184
0.2790966432
0.2790974082
0.2790981935
0.2790990044
0.2790997812
0.2791004814
0.2791010866
0.2790911787
0.2790914369
0.2790918103
0.2790923116
0.2790929213
0.279093641
0.2790944471
0.2790952445
0.2790960662
0.2790968897
0.2790977005
0.2790984921
0.2790992686
0.2790999691
0.2791004701
0.2790921515
0.2790926348
0.2790932917
0.2790941474
0.2790950834
0.2790960996
0.2790970961
0.2790980761
0.2790990675
0.2790999615
0.2791007724
0.2791015085
0.279102147
0.2791027548
0.2791031833
0.2790931862
0.2790939565
0.2790950229
0.2790962309
0.2790975029
0.2790987524
0.2790999331
0.2791010162
0.2791020528
0.2791029221
0.2791036903
0.2791043623
0.2791049296
0.2791053974
0.2791057765
0.2790938234
0.279094818
0.2790960724
0.2790974325
0.2790987936
0.2791001432
0.2791013533
0.2791024733
0.2791034131
0.2791042573
0.2791049812
0.2791055786
0.2791061241
0.2791065568
0.279106894
0.2790936837
0.2790944674
0.2790954995
0.2790966883
0.2790979538
0.2790991803
0.2791003616
0.2791014115
0.2791024651
0.2791032928
0.2791040806
0.2791047632
0.2791053211
0.2791058323
0.2791061571
0.2790924904
0.2790929736
0.2790936245
0.2790944776
0.2790954273
0.2790964157
0.2790974418
0.279098448
0.279099398
0.2791002837
0.27910109
0.2791018092
0.2791024991
0.2791030709
0.2791035383
0.2790912858
0.2790915452
0.2790919262
0.279092435
0.2790930347
0.2790937603
0.2790944968
0.2790953001
0.2790961513
0.2790969976
0.2790977865
0.2790985923
0.2790993517
0.2791000269
0.2791005434
0.2790924821
0.2790926175
0.2790928811
0.279093209
0.2790936438
0.279094167
0.2790947485
0.2790954542
0.2790961774
0.2790969502
0.279097738
0.2790984976
0.2790992934
0.2790999778
0.2791005421
)
;

boundaryField
{
    top
    {
        type            calculated;
        value           nonuniform List<scalar> 
127
(
0.2790924821
0.2790918657
0.2790920432
0.2790932218
0.2790940405
0.2790943557
0.2790934152
0.2790933208
0.2790928625
0.2790926175
0.2790920676
0.2790924317
0.2790938957
0.2790950629
0.2790956319
0.2790944446
0.2790939656
0.2790932237
0.2790928811
0.2790923863
0.2790929522
0.2790947379
0.2790962765
0.2790969833
0.2790956185
0.2790948055
0.2790937104
0.279093209
0.2790928074
0.2790935541
0.2790956764
0.2790975529
0.2790983626
0.2790968678
0.2790957386
0.2790943237
0.2790936438
0.2790933164
0.2790942782
0.2790966622
0.2790988044
0.2790997015
0.2790981351
0.2790967553
0.2790950459
0.279094167
0.2790939699
0.2790950604
0.27909769
0.2791000253
0.2791009225
0.2790993115
0.2790977389
0.2790958236
0.2790947485
0.2790946416
0.2790958649
0.2790986775
0.2791011118
0.2791020095
0.279100434
0.2790986905
0.279096638
0.2790954542
0.2790953823
0.2790966502
0.2790996663
0.2791020877
0.2791030184
0.2791014326
0.2790996669
0.2790974758
0.2790961774
0.2790961409
0.2790975137
0.2791006126
0.279102975
0.2791038554
0.2791023238
0.2791005442
0.279098292
0.2790969502
0.2790969349
0.279098319
0.279101406
0.2791037274
0.2791046196
0.2791031149
0.2791014299
0.2790991268
0.279097738
0.2790976965
0.2790991097
0.2791021739
0.2791044134
0.279105234
0.2791037793
0.2791021468
0.2790999299
0.2790984976
0.2790984782
0.2790998523
0.2791028733
0.279104951
0.2791057829
0.2791043631
0.2791028396
0.2791006828
0.2790992934
0.279099178
0.2791005684
0.2791034487
0.2791054472
0.2791061847
0.2791048389
0.2791034457
0.2791013772
0.2790999778
0.2790997406
0.2791010845
0.2791038754
0.2791058121
0.2791065012
0.2791052041
0.2791038769
0.2791019106
0.2791005421
)
;
    }
    bottom
    {
        type            calculated;
        value           nonuniform List<scalar> 
134
(
0.2790913251
0.2790919228
0.2790932898
0.2790931151
0.2790912932
0.2790926409
0.2790919298
0.2790928845
0.2790917623
0.2790915733
0.2790924311
0.2790940981
0.2790941191
0.2790920861
0.279093127
0.2790921472
0.2790930695
0.2790919993
0.2790919738
0.2790930918
0.2790951055
0.279095355
0.2790931083
0.2790937952
0.27909252
0.2790933056
0.2790923032
0.2790924882
0.2790938989
0.279096303
0.2790967045
0.2790942565
0.2790946319
0.279092998
0.2790936302
0.2790927443
0.2790931335
0.2790948688
0.2790975862
0.2790980763
0.2790955166
0.2790956073
0.2790936098
0.2790940467
0.2790932723
0.279093855
0.2790958993
0.2790988335
0.2790994041
0.2790968004
0.2790965897
0.2790943285
0.2790945803
0.2790938894
0.2790946285
0.2790969004
0.2791000692
0.279100604
0.2790979684
0.2790976136
0.2790951241
0.2790951968
0.2790945552
0.2790954744
0.2790978953
0.2791011448
0.2791017556
0.2790990619
0.2790986165
0.2790959598
0.2790959184
0.2790952542
0.2790963018
0.2790988664
0.2791021404
0.2791027278
0.2791000388
0.2790995769
0.2790967565
0.2790966432
0.2790960395
0.2790971383
0.2790997634
0.2791030092
0.2791035679
0.2791008972
0.2791004948
0.279097584
0.2790974082
0.2790968053
0.2790979693
0.2791005883
0.2791038091
0.2791042974
0.2791016862
0.2791013177
0.2790983728
0.2790981935
0.2790976029
0.2790987407
0.2791013464
0.2791045067
0.2791049511
0.2791023332
0.2791020601
0.2790991524
0.2790990044
0.2790983724
0.2790994744
0.279102033
0.2791050939
0.2791054989
0.2791029028
0.2791027523
0.2790998953
0.2790997812
0.2790990887
0.2791001623
0.2791026292
0.2791055501
0.2791059152
0.2791034051
0.2791033483
0.2791005548
0.2791004814
0.2790996565
0.2791007066
0.2791030481
0.2791059079
0.279106229
0.2791037692
0.2791038069
0.2791011024
0.2791010866
)
;
    }
    side-walls
    {
        type            calculated;
        value           nonuniform List<scalar> 
261
(
0.2790917623
0.2790907767
0.2790928028
0.2790942742
0.2790946787
0.2790933049
0.2790924224
0.2790924091
0.2790918657
0.2790919993
0.2790911596
0.2790934943
0.2790953199
0.2790959043
0.2790943276
0.2790931022
0.2790927555
0.2790920676
0.2790923032
0.2790916739
0.2790943524
0.2790964657
0.2790972741
0.2790954924
0.2790939278
0.2790932215
0.2790923863
0.2790927443
0.2790922982
0.2790952955
0.2790976988
0.2790986294
0.2790967565
0.2790948748
0.279093837
0.2790928074
0.2790932723
0.2790930194
0.2790963001
0.2790989287
0.2790999248
0.2790980066
0.2790958778
0.2790945506
0.2790933164
0.2790938894
0.279093799
0.2790973052
0.2791001
0.2791011414
0.2790992251
0.2790968858
0.279095309
0.2790939699
0.2790945552
0.2790946062
0.2790983257
0.2791012202
0.2791022526
0.2791003444
0.2790979361
0.2790961001
0.2790946416
0.2790952542
0.2790954446
0.279099291
0.2791022385
0.2791032274
0.2791013776
0.2790988904
0.2790969358
0.2790953823
0.2790960395
0.2790962802
0.279100143
0.2791031416
0.2791041046
0.2791022544
0.2790997518
0.279097771
0.2790961409
0.2790968053
0.2790971032
0.2791009505
0.2791039147
0.2791048286
0.279103004
0.2791005922
0.2790985978
0.2790969349
0.2790976029
0.2790979258
0.2791017079
0.2791046132
0.2791054953
0.2791036853
0.2791013333
0.2790993752
0.2790976965
0.2790983724
0.2790986939
0.2791023816
0.2791052238
0.2791060038
0.279104291
0.2791019937
0.2791001098
0.2790984782
0.2790990887
0.2790993564
0.2791029977
0.2791057407
0.2791064587
0.2791047897
0.2791025722
0.2791007811
0.279099178
0.2790996565
0.2790998668
0.2791034759
0.2791061117
0.2791067502
0.2791051763
0.2791030404
0.279101296
0.2790997406
0.2790928845
0.2790911787
0.2790921515
0.2790931862
0.2790938234
0.2790936837
0.2790924904
0.2790912858
0.2790924821
0.2790930695
0.2790914369
0.2790926348
0.2790939565
0.279094818
0.2790944674
0.2790929736
0.2790915452
0.2790926175
0.2790933056
0.2790918103
0.2790932917
0.2790950229
0.2790960724
0.2790954995
0.2790936245
0.2790919262
0.2790928811
0.2790936302
0.2790923116
0.2790941474
0.2790962309
0.2790974325
0.2790966883
0.2790944776
0.279092435
0.279093209
0.2790940467
0.2790929213
0.2790950834
0.2790975029
0.2790987936
0.2790979538
0.2790954273
0.2790930347
0.2790936438
0.2790945803
0.279093641
0.2790960996
0.2790987524
0.2791001432
0.2790991803
0.2790964157
0.2790937603
0.279094167
0.2790951968
0.2790944471
0.2790970961
0.2790999331
0.2791013533
0.2791003616
0.2790974418
0.2790944968
0.2790947485
0.2790959184
0.2790952445
0.2790980761
0.2791010162
0.2791024733
0.2791014115
0.279098448
0.2790953001
0.2790954542
0.2790966432
0.2790960662
0.2790990675
0.2791020528
0.2791034131
0.2791024651
0.279099398
0.2790961513
0.2790961774
0.2790974082
0.2790968897
0.2790999615
0.2791029221
0.2791042573
0.2791032928
0.2791002837
0.2790969976
0.2790969502
0.2790981935
0.2790977005
0.2791007724
0.2791036903
0.2791049812
0.2791040806
0.27910109
0.2790977865
0.279097738
0.2790990044
0.2790984921
0.2791015085
0.2791043623
0.2791055786
0.2791047632
0.2791018092
0.2790985923
0.2790984976
0.2790997812
0.2790992686
0.279102147
0.2791049296
0.2791061241
0.2791053211
0.2791024991
0.2790993517
0.2790992934
0.2791004814
0.2790999691
0.2791027548
0.2791053974
0.2791065568
0.2791058323
0.2791030709
0.2791000269
0.2790999778
0.2791010866
0.2791004701
0.2791031833
0.2791057765
0.279106894
0.2791061571
0.2791035383
0.2791005434
0.2791005421
)
;
    }
    inlet
    {
        type            calculated;
        value           nonuniform 0();
    }
    outlet
    {
        type            calculated;
        value           nonuniform List<scalar> 
81
(
0.2790996565
0.2790998668
0.2791034759
0.2791061117
0.2791067502
0.2791051763
0.2791030404
0.279101296
0.2790997406
0.2791007066
0.2791043181
0.2791068121
0.2791067951
0.2791072826
0.2791076624
0.2791054687
0.2791019365
0.2791010845
0.2791030481
0.2791041945
0.2791081429
0.2791118135
0.2791135241
0.2791128305
0.2791093155
0.2791067695
0.2791038754
0.2791059079
0.2791084714
0.279113009
0.2791154214
0.2791205823
0.279117485
0.279112819
0.2791068401
0.2791058121
0.279106229
0.2791088889
0.2791131793
0.2791201239
0.2800150646
0.2791196986
0.2791135384
0.2791082839
0.2791065012
0.2791037692
0.2791081228
0.2791119728
0.2791167736
0.2791172083
0.2791179511
0.279112504
0.2791066398
0.2791052041
0.2791038069
0.2791069195
0.2791083912
0.2791121842
0.2791130774
0.2791127429
0.279109298
0.2791055079
0.2791038769
0.2791011024
0.2791029459
0.2791061169
0.2791071823
0.2791086526
0.2791072661
0.279107503
0.2791046966
0.2791019106
0.2791010866
0.2791004701
0.2791031833
0.2791057765
0.279106894
0.2791061571
0.2791035383
0.2791005434
0.2791005421
)
;
    }
    procBoundary1to0
    {
        type            processor;
        value           nonuniform List<scalar> 
97
(
0.279091672
0.279091672
0.2790905022
0.2790923423
0.2790934548
0.2790936527
0.2790924549
0.2790919783
0.2790921596
0.2790917277
0.2790911736
0.2790936754
0.2790936754
0.2790936754
0.2790942454
0.2790932124
0.2790939202
0.2790940559
0.279092947
0.2790911854
0.2790917584
0.2790916133
0.2790909731
0.2790943108
0.2790943108
0.2790943108
0.2790997314
0.2791084453
0.2791006636
0.2790953334
0.2790942375
0.2790927705
0.2790927635
0.2790934065
0.2790956887
0.2791199376
0.2791199376
0.2791199376
0.2791819408
0.2791219435
0.2791006733
0.2790932046
0.2790931829
0.2790924238
0.2790931963
0.2790970432
0.2791168711
0.2791810965
0.2791810965
0.2791810965
0.2791810374
0.2791810374
0.2791082272
0.2790947925
0.2790933315
0.2790907936
0.2790929529
0.2790947878
0.2791021354
0.279114218
0.279103436
0.2791004424
0.2791004424
0.2791004424
0.2790928545
0.2790926821
0.2790923569
0.2790935757
0.2790925268
0.279094943
0.279097105
0.2790956132
0.2790932668
0.2790930083
0.2790930083
0.2790930083
0.2790928214
0.2790917874
0.279091918
0.2790928858
0.2790921874
0.2790929529
0.2790920387
0.2790942541
0.279093806
0.2790926264
0.2790926264
0.2790926264
0.2790928138
0.2790910069
0.2790918832
0.2790927124
0.2790930836
0.2790931341
0.2790921661
0.2790911032
0.2790924122
)
;
    }
}


// ************************************************************************* //
