/*--------------------------------*- C++ -*----------------------------------*\
| =========                 |                                                 |
| \\      /  F ield         | OpenFOAM: The Open Source CFD Toolbox           |
|  \\    /   O peration     | Version:  4.x                                   |
|   \\  /    A nd           | Web:      www.OpenFOAM.org                      |
|    \\/     M anipulation  |                                                 |
\*---------------------------------------------------------------------------*/
FoamFile
{
    version     2.0;
    format      ascii;
    class       volScalarField;
    location    "8000";
    object      T;
}
// * * * * * * * * * * * * * * * * * * * * * * * * * * * * * * * * * * * * * //

dimensions      [0 0 0 1 0 0 0];

internalField   nonuniform List<scalar> 
1174
(
1223.151489
1223.151484
1223.151612
1223.151585
1223.151603
1223.151606
1223.151701
1223.151876
1223.151815
1223.151904
1223.151847
1223.151827
1223.151817
1223.151791
1223.156778
1223.156757
1223.15671
1223.156681
1223.156635
1223.156629
1223.156685
1223.156683
1223.156687
1223.156668
1223.156519
1223.156421
1223.156492
1223.156555
1223.150042
1223.149939
1223.149804
1223.149787
1223.149774
1223.149835
1223.149748
1223.149713
1223.149914
1223.150011
1223.150012
1223.150053
1223.149969
1223.149837
1223.146734
1223.146702
1223.146905
1223.147019
1223.147123
1223.147234
1223.147177
1223.147103
1223.147048
1223.147087
1223.147006
1223.146895
1223.146779
1223.146716
1223.147205
1223.147275
1223.147208
1223.147283
1223.147397
1223.147443
1223.147434
1223.147465
1223.147373
1223.147432
1223.147267
1223.147363
1223.147281
1223.147373
1223.150982
1223.15105
1223.15117
1223.151149
1223.151164
1223.151068
1223.151015
1223.150875
1223.150935
1223.151077
1223.151072
1223.150982
1223.150945
1223.150813
1223.151709
1223.151658
1223.151664
1223.151631
1223.151625
1223.151672
1223.151455
1223.151467
1223.151627
1223.15158
1223.151652
1223.151751
1223.15183
1223.151742
1223.149624
1223.149762
1223.149927
1223.149937
1223.149924
1223.150011
1223.150137
1223.150147
1223.150152
1223.150117
1223.150165
1223.150213
1223.150245
1223.150288
1223.151036
1223.151184
1223.151248
1223.151308
1223.151409
1223.151253
1223.151323
1223.151314
1223.151369
1223.151334
1223.151434
1223.151361
1223.151422
1223.151418
1223.153256
1223.153287
1223.153188
1223.153141
1223.15302
1223.152973
1223.152993
1223.152879
1223.152926
1223.152926
1223.152873
1223.152947
1223.153
1223.15296
1223.152874
1223.144282
1223.144108
1223.143999
1223.14426
1223.144382
1223.144438
1223.144479
1223.144414
1223.14428
1223.14426
1223.144357
1223.144361
1223.144215
1223.144197
1223.144819
1223.144871
1223.144889
1223.145134
1223.14489
1223.145056
1223.144928
1223.145008
1223.144832
1223.144704
1223.144755
1223.144792
1223.144928
1223.144794
1223.154909
1223.155058
1223.154971
1223.155031
1223.155098
1223.155055
1223.155066
1223.155103
1223.155279
1223.155252
1223.155306
1223.155447
1223.155708
1223.15565
1223.157772
1223.157899
1223.157884
1223.158085
1223.158244
1223.158111
1223.158065
1223.157927
1223.157909
1223.157681
1223.157568
1223.157566
1223.157747
1223.157966
1223.151433
1223.151329
1223.151208
1223.151285
1223.151327
1223.151389
1223.151477
1223.15153
1223.151446
1223.151657
1223.151592
1223.151711
1223.151733
1223.151847
1223.15022
1223.150437
1223.15057
1223.150532
1223.150768
1223.15063
1223.150725
1223.150607
1223.150756
1223.150597
1223.150609
1223.15058
1223.150821
1223.150678
1223.154988
1223.154763
1223.154759
1223.154758
1223.154947
1223.155006
1223.154959
1223.154929
1223.154811
1223.15479
1223.154719
1223.154621
1223.154469
1223.15463
1223.151227
1223.151181
1223.151107
1223.151176
1223.151117
1223.1511
1223.151168
1223.151398
1223.151279
1223.151338
1223.151328
1223.151341
1223.151176
1223.151213
1223.151793
1223.15167
1223.151703
1223.15179
1223.151657
1223.15153
1223.151608
1223.151634
1223.151573
1223.151577
1223.151598
1223.151596
1223.15158
1223.151583
1223.151711
1223.156015
1223.156029
1223.156063
1223.156159
1223.156247
1223.156222
1223.156078
1223.156046
1223.156135
1223.156205
1223.156266
1223.156267
1223.156481
1223.156364
1223.156266
1223.153923
1223.153781
1223.15382
1223.153757
1223.153895
1223.154093
1223.154183
1223.154238
1223.154305
1223.154405
1223.154409
1223.154531
1223.154601
1223.154542
1223.153105
1223.153084
1223.153104
1223.153025
1223.152852
1223.152939
1223.15288
1223.152981
1223.15301
1223.152986
1223.152935
1223.152881
1223.153052
1223.153194
1223.151468
1223.151499
1223.151485
1223.151324
1223.151517
1223.151647
1223.15179
1223.151817
1223.151764
1223.151745
1223.151764
1223.151898
1223.151834
1223.151841
1223.149152
1223.149153
1223.149196
1223.149237
1223.14921
1223.149057
1223.14901
1223.148949
1223.148835
1223.148874
1223.14891
1223.148723
1223.148782
1223.148734
1223.149555
1223.14927
1223.149213
1223.14922
1223.149263
1223.149208
1223.149055
1223.149037
1223.14923
1223.149204
1223.149153
1223.149153
1223.149185
1223.149398
1223.144799
1223.144795
1223.144712
1223.145041
1223.145157
1223.145125
1223.145103
1223.145016
1223.145137
1223.145034
1223.145136
1223.145263
1223.14512
1223.144975
1223.148205
1223.14818
1223.148113
1223.148117
1223.148186
1223.148147
1223.148204
1223.148066
1223.147853
1223.148011
1223.147965
1223.147893
1223.147986
1223.148079
1223.147539
1223.147506
1223.147641
1223.147617
1223.147511
1223.14754
1223.147368
1223.147506
1223.147532
1223.147627
1223.147549
1223.147472
1223.147464
1223.147613
1223.147608
1223.147836
1223.147906
1223.147655
1223.147802
1223.147868
1223.147927
1223.148051
1223.148035
1223.148136
1223.147849
1223.148081
1223.147837
1223.14799
1223.14815
1223.148303
1223.148392
1223.148492
1223.148509
1223.148456
1223.14858
1223.14862
1223.148479
1223.148443
1223.148399
1223.148317
1223.148342
1223.148385
1223.148201
1223.148073
1223.147954
1223.156358
1223.156502
1223.156549
1223.156417
1223.156264
1223.156067
1223.155993
1223.156179
1223.156254
1223.156148
1223.156055
1223.156008
1223.156032
1223.156026
1223.14211
1223.14209
1223.141904
1223.14196
1223.141645
1223.14172
1223.141708
1223.141532
1223.141384
1223.141486
1223.141515
1223.141375
1223.141244
1223.141244
1223.147573
1223.147655
1223.147704
1223.147685
1223.147572
1223.147586
1223.147387
1223.147544
1223.14734
1223.147301
1223.14722
1223.147115
1223.147086
1223.146979
1223.148771
1223.149023
1223.149042
1223.149084
1223.149203
1223.149051
1223.149199
1223.149168
1223.149051
1223.149135
1223.14928
1223.149094
1223.148928
1223.14878
1223.155108
1223.155201
1223.15501
1223.155126
1223.15519
1223.155157
1223.1552
1223.155297
1223.155328
1223.155343
1223.155391
1223.155499
1223.15542
1223.155445
1223.147758
1223.147828
1223.147734
1223.147658
1223.147667
1223.147559
1223.14765
1223.147761
1223.147774
1223.147903
1223.147876
1223.148084
1223.148057
1223.14802
1223.149608
1223.149657
1223.149682
1223.149703
1223.149706
1223.149678
1223.149797
1223.14961
1223.149653
1223.149724
1223.149759
1223.14965
1223.149575
1223.149662
1223.149656
1223.151037
1223.151065
1223.151107
1223.151108
1223.151017
1223.151026
1223.151078
1223.151082
1223.151114
1223.151093
1223.150969
1223.15085
1223.150816
1223.150865
1223.150926
1223.153884
1223.154071
1223.154304
1223.154186
1223.154119
1223.154121
1223.153926
1223.153813
1223.153587
1223.153575
1223.153635
1223.15357
1223.15329
1223.153336
1223.153351
1223.143821
1223.144011
1223.143946
1223.143688
1223.143609
1223.143535
1223.14354
1223.143563
1223.14347
1223.143114
1223.143022
1223.142876
1223.143078
1223.143146
1223.143252
1219.306111
1219.302891
1219.30015
1219.297271
1219.294322
1219.291341
1219.287939
1219.283801
1219.278987
1219.27339
1219.266722
1219.259099
1219.250989
1219.242599
1223.145981
1223.146075
1223.145862
1223.145802
1223.145738
1223.14558
1223.145513
1223.14529
1223.145321
1223.145229
1223.145057
1223.145152
1223.145203
1223.145111
1223.152323
1223.152195
1223.15214
1223.152114
1223.152042
1223.152126
1223.151883
1223.151973
1223.152073
1223.152141
1223.151863
1223.1518
1223.151735
1223.15177
1223.154011
1223.15397
1223.153717
1223.153837
1223.15368
1223.153682
1223.153675
1223.153666
1223.153644
1223.153625
1223.153493
1223.153403
1223.15341
1223.153569
1223.148621
1223.148469
1223.148482
1223.148451
1223.148374
1223.1484
1223.148495
1223.148377
1223.14846
1223.148342
1223.148405
1223.148324
1223.148472
1223.148454
1223.156289
1223.156323
1223.156393
1223.156586
1223.156581
1223.156449
1223.156574
1223.156634
1223.15674
1223.156881
1223.156851
1223.156996
1223.157064
1223.157011
1223.156978
1223.149636
1223.149734
1223.149893
1223.149834
1223.149859
1223.150029
1223.150016
1223.149793
1223.149766
1223.149771
1223.14987
1223.149818
1223.14973
1223.149758
1223.149828
1223.152343
1223.152288
1223.152323
1223.152457
1223.152428
1223.152419
1223.152586
1223.152617
1223.152671
1223.152922
1223.152829
1223.152775
1223.152754
1223.152531
1223.152491
1223.15021
1223.150074
1223.150139
1223.150216
1223.150165
1223.150199
1223.150274
1223.150182
1223.150332
1223.150355
1223.150406
1223.150358
1223.15023
1223.150123
1223.150095
1223.155332
1223.155445
1223.155552
1223.155498
1223.155429
1223.155312
1223.155278
1223.155385
1223.155495
1223.155497
1223.155547
1223.15559
1223.155842
1223.155824
1223.156023
1223.144662
1223.144741
1223.144926
1223.145037
1223.145147
1223.145273
1223.145099
1223.145002
1223.145056
1223.14509
1223.14504
1223.145109
1223.14486
1223.14489
1223.144931
1223.14992
1223.150044
1223.150215
1223.150187
1223.15023
1223.150089
1223.150095
1223.150072
1223.150189
1223.150238
1223.150208
1223.150172
1223.150073
1223.150156
1223.156575
1223.156529
1223.156479
1223.15644
1223.156414
1223.156506
1223.156656
1223.156534
1223.156405
1223.156467
1223.1565
1223.156332
1223.156244
1223.156319
1223.150499
1223.150537
1223.150617
1223.15066
1223.150599
1223.150687
1223.150619
1223.15063
1223.150626
1223.150585
1223.150652
1223.150657
1223.150719
1223.150681
1223.148646
1223.14862
1223.14862
1223.148577
1223.14842
1223.148503
1223.148481
1223.148471
1223.148457
1223.148369
1223.148398
1223.148465
1223.148425
1223.148428
1223.148382
1223.14437
1223.144385
1223.144361
1223.144377
1223.14444
1223.144317
1223.144385
1223.144492
1223.144591
1223.144621
1223.144556
1223.144344
1223.144466
1223.144288
1223.144319
1223.15304
1223.153161
1223.153068
1223.153219
1223.15327
1223.153352
1223.153221
1223.153162
1223.153248
1223.153354
1223.153235
1223.153436
1223.153444
1223.153579
1223.153448
1223.151398
1223.151509
1223.151315
1223.151311
1223.151482
1223.151388
1223.151428
1223.151466
1223.151601
1223.151468
1223.15154
1223.151597
1223.151654
1223.151606
1223.151561
1223.153546
1223.153674
1223.153645
1223.153571
1223.153518
1223.153499
1223.153627
1223.153741
1223.15362
1223.153613
1223.153577
1223.153647
1223.15348
1223.153662
1223.153789
1223.148568
1223.148669
1223.148618
1223.14869
1223.14876
1223.148904
1223.148953
1223.148925
1223.149059
1223.149173
1223.149238
1223.149238
1223.149291
1223.149232
1223.149109
1223.149833
1223.149909
1223.149809
1223.149896
1223.149873
1223.150001
1223.150061
1223.150019
1223.149792
1223.149709
1223.149583
1223.149602
1223.149707
1223.149598
1223.149467
1223.150015
1223.150048
1223.150195
1223.150195
1223.15009
1223.149978
1223.150042
1223.150126
1223.150153
1223.150164
1223.150294
1223.150385
1223.150384
1223.150498
1223.147772
1223.147874
1223.147817
1223.147844
1223.147777
1223.147931
1223.148146
1223.148061
1223.148149
1223.147903
1223.14808
1223.148036
1223.147994
1223.148067
1223.150606
1223.150771
1223.150794
1223.150906
1223.150931
1223.150896
1223.15082
1223.150751
1223.150932
1223.15097
1223.151101
1223.15114
1223.151152
1223.151235
1223.151135
1223.150548
1223.15053
1223.15056
1223.150409
1223.150404
1223.150375
1223.150412
1223.150398
1223.150588
1223.150432
1223.150254
1223.150156
1223.150228
1223.150193
1223.150205
1223.147835
1223.147789
1223.147803
1223.147675
1223.147539
1223.147452
1223.147802
1223.147749
1223.14777
1223.147677
1223.147736
1223.147635
1223.147787
1223.147722
1223.147834
1223.153224
1223.153285
1223.153383
1223.153586
1223.153537
1223.153548
1223.153586
1223.15354
1223.153734
1223.15361
1223.153685
1223.153695
1223.153684
1223.15388
1223.153944
1223.151887
1223.151924
1223.151943
1223.152018
1223.152008
1223.15201
1223.151702
1223.151709
1223.151676
1223.151803
1223.151695
1223.151721
1223.151809
1223.151955
1223.151952
1223.153824
1223.153883
1223.153977
1223.153833
1223.15381
1223.153802
1223.153883
1223.153728
1223.153695
1223.153552
1223.153629
1223.153573
1223.153611
1223.153595
1223.153573
1223.141689
1223.141743
1223.141761
1223.141717
1223.141806
1223.141625
1223.141905
1223.142
1223.14191
1223.141925
1223.141848
1223.141836
1223.141776
1223.141745
1223.141754
1223.142302
1223.14228
1223.14228
1223.142193
1223.142387
1223.14244
1223.142366
1223.142275
1223.14221
1223.14226
1223.142292
1223.142165
1223.142316
1223.142402
1223.142527
1223.147637
1223.147711
1223.147784
1223.147803
1223.147752
1223.147754
1223.147777
1223.147778
1223.147865
1223.147794
1223.147728
1223.147695
1223.147625
1223.147587
1223.145906
1223.14576
1223.145758
1223.145796
1223.145876
1223.145869
1223.145875
1223.145726
1223.145787
1223.145814
1223.145817
1223.145701
1223.145649
1223.145709
1223.145518
1223.153898
1223.153885
1223.153904
1223.153914
1223.153949
1223.153909
1223.153787
1223.153885
1223.153957
1223.154012
1223.154047
1223.154033
1223.153897
1223.153801
1223.153905
1223.150791
1223.150777
1223.150827
1223.1507
1223.150715
1223.150651
1223.150749
1223.150838
1223.150688
1223.150704
1223.150786
1223.15088
1223.151074
1223.151025
1223.151111
1223.147993
1223.148126
1223.148002
1223.147932
1223.147875
1223.147893
1223.147962
1223.148067
1223.147911
1223.148003
1223.148063
1223.148098
1223.148176
1223.148274
1223.148175
1223.146504
1223.146594
1223.146537
1223.146512
1223.146561
1223.146437
1223.14651
1223.146461
1223.146645
1223.146697
1223.146755
1223.146893
1223.146826
1223.14684
1223.146731
1223.145812
1223.145887
1223.145913
1223.145928
1223.145899
1223.146017
1223.146083
1223.146333
1223.146103
1223.146377
1223.146351
1223.146339
1223.146458
1223.146365
1223.146504
1223.149305
1223.149293
1223.149368
1223.149253
1223.149208
1223.149265
1223.149233
1223.149208
1223.149238
1223.14929
1223.149391
1223.149559
1223.149527
1223.149635
1223.149551
1223.153429
1223.15341
1223.153397
1223.153373
1223.153452
1223.153386
1223.153568
1223.153641
1223.153582
1223.153537
1223.153667
1223.15359
1223.153529
1223.153543
1223.153578
1223.14767
1223.147741
1223.147619
1223.147642
1223.147642
1223.14768
1223.147839
1223.147759
1223.147826
1223.147819
1223.14781
1223.147918
1223.147782
1223.14791
1223.147898
)
;

boundaryField
{
    top
    {
        type            zeroGradient;
    }
    bottom
    {
        type            zeroGradient;
    }
    side-walls
    {
        type            zeroGradient;
    }
    inlet
    {
        type            zeroGradient;
    }
    outlet
    {
        type            zeroGradient;
    }
    procBoundary1to0
    {
        type            processor;
        value           nonuniform List<scalar> 
97
(
1223.15122
1223.15122
1223.156863
1223.149954
1223.146815
1223.147251
1223.151198
1223.15155
1223.149599
1223.150976
1223.15326
1223.144143
1223.144143
1223.144143
1223.144704
1223.154936
1223.15779
1223.151239
1223.150394
1223.155055
1223.151357
1223.151856
1223.156017
1223.15388
1223.15388
1223.15388
1223.15311
1223.15135
1223.149023
1223.149397
1223.144738
1223.148077
1223.147582
1223.147743
1223.148167
1223.156391
1223.156391
1223.156391
1223.142187
1223.147589
1223.148981
1223.15497
1223.148007
1223.149619
1223.150922
1223.153819
1223.145189
1219.305773
1219.305773
1219.305773
1223.146148
1223.146148
1223.152307
1223.153968
1223.148659
1223.156216
1223.149731
1223.152115
1223.150241
1223.156819
1223.14454
1223.149997
1223.149997
1223.149997
1223.156505
1223.150202
1223.148597
1223.144611
1223.153182
1223.151435
1223.153549
1223.148498
1223.149938
1223.150126
1223.150126
1223.150126
1223.147855
1223.150569
1223.150531
1223.147634
1223.153086
1223.151988
1223.153738
1223.141638
1223.142257
1223.147554
1223.147554
1223.147554
1223.145834
1223.15399
1223.150673
1223.147806
1223.146728
1223.145958
1223.149433
1223.153568
1223.147595
)
;
    }
}


// ************************************************************************* //
