/*--------------------------------*- C++ -*----------------------------------*\
| =========                 |                                                 |
| \\      /  F ield         | OpenFOAM: The Open Source CFD Toolbox           |
|  \\    /   O peration     | Version:  4.x                                   |
|   \\  /    A nd           | Web:      www.OpenFOAM.org                      |
|    \\/     M anipulation  |                                                 |
\*---------------------------------------------------------------------------*/
FoamFile
{
    version     2.0;
    format      ascii;
    class       volVectorField;
    location    "8000";
    object      U;
}
// * * * * * * * * * * * * * * * * * * * * * * * * * * * * * * * * * * * * * //

dimensions      [0 1 -1 0 0 0 0];

internalField   nonuniform List<vector> 
1174
(
(0.01100015389 -1.805683486e-09 -2.977614799e-09)
(0.01100015455 -2.957968952e-09 -3.443422414e-09)
(0.01100016486 -2.021006749e-09 -1.963738698e-09)
(0.01100015865 -7.151141202e-10 -6.505344731e-10)
(0.01100014605 -1.48710332e-09 -1.322291181e-09)
(0.01100012782 -1.013404299e-09 -2.115161388e-09)
(0.01100010162 -5.856330025e-10 -1.313494151e-09)
(0.01100007275 2.247621636e-10 -1.347166944e-09)
(0.01100003924 -1.026510538e-09 4.90169315e-10)
(0.01100000949 -2.426668018e-09 3.629082179e-09)
(0.0109999752 -8.030004003e-10 3.242859479e-09)
(0.01099994101 -1.747065808e-10 1.013838242e-09)
(0.01099990886 2.413015032e-09 1.292654905e-09)
(0.01099987952 2.037188837e-09 2.318888617e-09)
(0.0110001612 -2.234430274e-08 -3.525940623e-09)
(0.01100014914 -2.069471873e-08 -5.645251335e-09)
(0.01100015429 -1.187509923e-08 -5.187620477e-09)
(0.01100013809 -8.607156954e-09 -2.946017747e-09)
(0.01100011582 -2.973918369e-09 -1.605769515e-09)
(0.01100008784 -1.992999837e-09 -1.580600567e-09)
(0.01100005347 -1.40615706e-09 -6.313601596e-10)
(0.01100001695 8.700936513e-10 -1.763133301e-09)
(0.01099998091 8.810093836e-10 1.503459687e-10)
(0.01099994641 2.542147411e-09 1.105482236e-09)
(0.01099991266 3.287346798e-09 1.230476472e-09)
(0.01099987914 2.718015417e-09 8.789968273e-10)
(0.01099985084 4.739635722e-09 1.0501106e-11)
(0.01099981892 4.989056514e-09 2.115245972e-09)
(0.01100018525 -1.385329546e-08 -5.438569427e-09)
(0.01100014715 -1.803382748e-08 -1.107964985e-08)
(0.01100013355 -1.082614081e-08 -6.661950403e-09)
(0.01100009422 -5.526959529e-09 -5.813667353e-09)
(0.01100005314 -3.500757808e-09 1.390717207e-10)
(0.01100000834 -1.761701686e-09 -2.499152488e-10)
(0.01099996235 -1.524015488e-09 -7.51892678e-10)
(0.01099992 -1.927473095e-10 -1.430236928e-09)
(0.01099987973 4.684322892e-09 1.579239809e-09)
(0.01099984521 2.832048857e-09 8.604398451e-10)
(0.01099981429 2.559690326e-09 7.592486214e-10)
(0.01099978226 2.435687399e-09 1.805404879e-10)
(0.01099975583 2.477864045e-09 3.258203914e-10)
(0.01099973254 5.717208463e-09 8.437089766e-11)
(0.0110001913 -1.973681441e-08 1.01331103e-08)
(0.01100010429 -1.010028872e-08 -1.217244391e-08)
(0.01100008271 -2.734583226e-09 -5.340845378e-09)
(0.01100002829 7.706766883e-10 -6.337875865e-10)
(0.01099997211 2.187003437e-09 -7.162275596e-10)
(0.01099991697 1.887631881e-09 1.073403656e-09)
(0.01099986554 3.098820209e-09 4.037431429e-09)
(0.01099981967 2.141403664e-09 4.047349641e-09)
(0.01099977961 1.965518941e-09 2.217921488e-09)
(0.01099974826 2.76609631e-09 3.122300502e-09)
(0.0109997155 4.161847523e-09 2.627197799e-09)
(0.01099969043 3.370671601e-09 2.037440594e-09)
(0.01099967175 4.712733943e-09 1.75411386e-09)
(0.0109996545 3.663612352e-09 2.883378359e-09)
(0.01100026468 1.554120679e-11 1.839469263e-08)
(0.01100010645 -2.87687277e-10 -2.094357557e-09)
(0.01100006025 -3.248647631e-10 9.0406898e-10)
(0.01099998968 6.911884438e-10 3.868465934e-09)
(0.01099992443 1.885704867e-10 2.749682761e-09)
(0.01099986865 1.600701413e-09 3.414363862e-09)
(0.01099981623 2.271404454e-09 2.180335701e-09)
(0.01099977348 1.360671061e-09 2.842065563e-09)
(0.01099973313 1.00567523e-09 1.259838514e-09)
(0.01099970442 9.386594978e-10 3.982112532e-09)
(0.01099967785 4.113359183e-10 8.829568725e-10)
(0.01099965326 1.960148006e-09 2.706312625e-09)
(0.01099963876 1.208470263e-09 1.51596565e-09)
(0.01099962405 8.981760204e-10 7.412992225e-10)
(0.01100018923 1.906882464e-08 8.543385194e-09)
(0.01100010481 1.285959596e-08 -1.323063234e-08)
(0.01100008421 3.377168047e-09 -5.942158934e-09)
(0.01100002867 -2.132859243e-09 -1.212326985e-09)
(0.01099997119 -2.63638003e-09 -1.626457089e-10)
(0.01099991675 -2.904278938e-09 3.585849198e-09)
(0.0109998663 -1.865348697e-09 2.859651363e-09)
(0.01099981929 9.755341409e-10 2.13373098e-09)
(0.010999779 1.792649144e-10 2.733039053e-09)
(0.01099974657 1.77907103e-09 2.176260431e-09)
(0.01099971577 1.243574588e-10 2.932664767e-09)
(0.01099969296 -1.759165886e-09 1.832224774e-09)
(0.01099967295 -3.466656576e-09 2.037918791e-09)
(0.01099965399 -6.047330846e-10 2.071058977e-09)
(0.01100018533 1.110827162e-08 -2.801334954e-09)
(0.01100014476 1.782651482e-08 -9.347745974e-09)
(0.01100013489 1.060289608e-08 -4.709265617e-09)
(0.01100009408 6.986395366e-09 -1.766590944e-09)
(0.01100005295 4.687456617e-09 2.843587069e-10)
(0.01100001179 7.330005127e-10 1.454851439e-09)
(0.01099996374 -1.773167503e-09 8.809410847e-10)
(0.01099991916 -1.12900711e-09 1.445530659e-09)
(0.01099987988 -9.423712637e-10 1.78835116e-09)
(0.01099984449 -2.975322318e-09 1.792387599e-09)
(0.01099980877 -2.822624716e-09 1.245576773e-09)
(0.01099978202 -1.794811287e-09 1.997246834e-09)
(0.01099975883 -2.614190368e-09 1.450684434e-09)
(0.01099973402 -5.175925422e-09 2.086710068e-10)
(0.01100016066 2.480166888e-08 1.143533968e-10)
(0.01100014991 2.054198019e-08 -4.399600773e-09)
(0.01100015515 1.451148437e-08 -2.607798128e-09)
(0.01100013819 9.742684488e-09 -1.339243459e-09)
(0.01100011296 5.124533145e-09 -4.716478865e-09)
(0.01100008581 2.901029141e-09 -7.677147661e-10)
(0.0110000524 1.097744215e-09 3.446340626e-10)
(0.01100002123 -1.050805443e-09 1.352947267e-09)
(0.01099998015 -6.44127913e-10 1.018006433e-09)
(0.01099994747 -3.181314738e-09 1.473071684e-09)
(0.01099991264 -3.80480126e-09 9.664129745e-10)
(0.0109998784 -2.502964429e-09 3.417459148e-10)
(0.01099985168 -3.469068971e-09 1.419809844e-09)
(0.01099981939 -3.67914861e-09 7.490208414e-10)
(0.01100015266 3.464366193e-09 -2.340532539e-09)
(0.01100015552 5.193318195e-09 -5.925585133e-09)
(0.0110001649 3.978807569e-09 -4.699062444e-09)
(0.01100015667 2.179042e-09 -3.071351019e-09)
(0.01100014684 1.53481209e-09 -2.937777416e-09)
(0.01100012642 2.370084036e-09 -6.840018451e-10)
(0.01100010072 2.511980739e-09 -4.233114092e-11)
(0.01100007371 -6.740943076e-10 4.93219808e-10)
(0.01100004038 -1.677865587e-09 1.63648764e-09)
(0.01100000752 -3.230104217e-12 1.321698523e-09)
(0.01099997478 1.061870697e-09 -2.230854201e-10)
(0.01099994003 -5.962265264e-10 4.837509397e-10)
(0.01099990973 -1.364694365e-09 5.021800428e-10)
(0.01099987589 -2.281603731e-09 1.549553794e-10)
(0.01100011206 -1.765698617e-08 -5.14154948e-08)
(0.01100016363 -1.502948374e-09 -2.4392111e-08)
(0.01100015061 -6.80599353e-09 -2.037065571e-08)
(0.01100015309 -3.002532656e-09 -1.259627638e-08)
(0.01100013627 -1.870146772e-09 -9.500421371e-09)
(0.01100011409 -2.333067135e-09 -3.553971721e-09)
(0.01100008695 -2.449532425e-10 -2.076646276e-09)
(0.01100005221 -3.130129351e-10 2.11043516e-10)
(0.01100001761 9.722461418e-12 1.935075988e-09)
(0.01099998225 1.082716697e-09 2.486529445e-09)
(0.01099994744 3.464482673e-10 2.418049781e-09)
(0.01099991343 9.82458405e-12 4.319072625e-09)
(0.01099987774 1.405001128e-09 4.494767019e-09)
(0.01099985089 2.041167537e-09 5.928513734e-09)
(0.01099981869 2.710432841e-09 5.804914489e-09)
(0.01100017166 -2.164135589e-08 -2.590497316e-08)
(0.01100012991 -2.497755684e-08 -2.577957359e-08)
(0.01100012202 -1.526868894e-08 -1.532125508e-08)
(0.01100008783 -8.009971615e-09 -8.767842425e-09)
(0.01100005258 -3.019342525e-09 -3.562425514e-09)
(0.01100001339 1.382862853e-09 5.34301684e-11)
(0.01099996944 2.121922527e-09 1.0530217e-09)
(0.01099993057 5.024341343e-09 3.494860219e-09)
(0.0109998929 5.430712359e-09 5.450541883e-09)
(0.01099985977 5.312972737e-09 5.467607759e-09)
(0.0109998284 4.284792544e-09 5.15219054e-09)
(0.01099979987 5.741700682e-09 4.845885411e-09)
(0.01099977605 7.081753538e-09 6.108503072e-09)
(0.01099975115 6.723651553e-09 6.191977212e-09)
(0.01100019897 1.404264339e-09 -4.232310528e-08)
(0.01100008809 -2.422458495e-08 -3.682351813e-08)
(0.01100004817 -1.230153863e-08 -1.501709557e-08)
(0.01099998143 -4.350073672e-09 -2.60333384e-09)
(0.01099991661 1.274906892e-09 4.069511149e-09)
(0.01099986135 3.850688815e-09 7.726422546e-09)
(0.01099981041 5.37715962e-09 9.944600238e-09)
(0.01099977408 6.151191913e-09 9.198969844e-09)
(0.01099973881 5.684938131e-09 8.135035529e-09)
(0.01099971233 6.874318939e-09 6.659109378e-09)
(0.01099969162 4.91260966e-09 6.826646367e-09)
(0.01099967114 5.156131264e-09 5.47632696e-09)
(0.01099965835 5.007230643e-09 6.86376178e-09)
(0.01099964737 6.922577223e-09 7.107568922e-09)
(0.01100015966 4.195959714e-09 -7.169597627e-09)
(0.01099994359 -2.334845109e-09 -4.404263524e-08)
(0.01099989494 7.148040477e-09 -1.058283338e-08)
(0.01099980437 9.886991639e-09 4.666061617e-09)
(0.01099973044 9.023706702e-09 1.03520718e-08)
(0.01099967693 7.490749278e-09 1.425207149e-08)
(0.01099963332 5.709148395e-09 1.508942258e-08)
(0.01099960136 6.92617702e-09 1.266049632e-08)
(0.01099958445 3.86496225e-09 1.10360657e-08)
(0.01099956898 4.971330513e-09 8.65459338e-09)
(0.01099955841 4.294900644e-09 7.676386736e-09)
(0.0109995517 3.732018717e-09 7.13306996e-09)
(0.01099955374 5.954049133e-09 8.614732983e-09)
(0.01099955036 4.767649889e-09 8.497661528e-09)
(0.01100028113 -2.235905661e-09 5.441208791e-08)
(0.01099985718 -2.199635198e-10 1.006401679e-08)
(0.01099978334 -1.010555516e-09 3.508418998e-08)
(0.01099968709 7.059003986e-10 3.557289086e-08)
(0.01099961838 4.808750682e-10 2.769702109e-08)
(0.01099957261 1.382845708e-09 2.549112665e-08)
(0.01099954289 1.751799498e-09 1.833200466e-08)
(0.01099952353 1.967742564e-11 1.403861147e-08)
(0.01099951147 1.565264225e-09 1.110395853e-08)
(0.01099950549 5.778128712e-10 1.042055195e-08)
(0.01099950323 1.189480006e-09 8.841003338e-09)
(0.01099950204 1.242926214e-09 6.662941795e-09)
(0.0109995053 1.108803344e-09 8.586880199e-09)
(0.01099950899 8.555395898e-10 8.927834404e-09)
(0.01100016046 -3.387731006e-09 -6.424478603e-09)
(0.0109999431 4.675467991e-09 -4.278529345e-08)
(0.01099989533 -4.702323083e-09 -9.285242761e-09)
(0.0109998023 -9.505949763e-09 5.279805739e-09)
(0.0109997319 -9.065916245e-09 1.073621617e-08)
(0.01099967566 -7.657179058e-09 1.362101924e-08)
(0.01099963323 -5.38847279e-09 1.378627888e-08)
(0.01099960345 -4.667904139e-09 1.347714118e-08)
(0.01099958286 -3.730590994e-09 9.588661966e-09)
(0.01099956914 -3.406525503e-09 7.73943914e-09)
(0.01099955755 -4.649830091e-09 8.232370671e-09)
(0.01099955349 -3.880048937e-09 6.837501485e-09)
(0.0109995519 -5.778626508e-09 9.49467827e-09)
(0.01099954812 -4.523444544e-09 8.420395697e-09)
(0.01100019455 -5.438664915e-10 -3.93333505e-08)
(0.01100008607 2.655056931e-08 -3.78384971e-08)
(0.01100004902 1.38002943e-08 -1.343163412e-08)
(0.01099997674 7.127765843e-09 -9.30366768e-10)
(0.01099991658 1.967846203e-09 3.500425786e-09)
(0.0109998597 -3.828884224e-09 7.116079344e-09)
(0.01099981294 -5.200558313e-09 9.032862821e-09)
(0.01099977155 -3.42236617e-09 8.303968877e-09)
(0.01099974029 -4.6541732e-09 7.518905323e-09)
(0.01099971198 -5.791241861e-09 6.274863315e-09)
(0.0109996907 -4.325278082e-09 5.892015072e-09)
(0.01099967189 -3.870978677e-09 6.48975584e-09)
(0.01099965804 -6.194000831e-09 6.428862414e-09)
(0.01099964794 -6.866277786e-09 5.529960369e-09)
(0.01100016982 2.466437136e-08 -2.341300146e-08)
(0.01100012852 2.602155519e-08 -2.43656216e-08)
(0.01100012238 1.636325442e-08 -1.318386097e-08)
(0.01100008692 8.203986127e-09 -7.968900543e-09)
(0.01100004999 4.67581723e-09 -3.572254441e-09)
(0.01100001276 5.721934419e-10 -1.168539785e-09)
(0.01099997103 -1.048847927e-09 2.0835262e-09)
(0.01099993268 -4.030758062e-09 2.972007181e-09)
(0.01099989325 -2.614513831e-09 3.93578198e-09)
(0.01099985772 -3.201094163e-09 4.337038187e-09)
(0.0109998267 -4.633750539e-09 3.562660956e-09)
(0.01099979899 -5.608137436e-09 3.98953746e-09)
(0.0109997747 -5.431888002e-09 2.853896155e-09)
(0.01099975386 -5.194556431e-09 4.964713238e-09)
(0.01100016353 2.312221656e-09 -2.192981015e-08)
(0.01100014726 5.888974635e-09 -1.984948273e-08)
(0.01100015288 2.164122357e-09 -1.167743019e-08)
(0.01100013754 2.205642104e-09 -7.025498895e-09)
(0.01100011583 2.086659591e-09 -4.875232803e-09)
(0.01100008575 1.512988409e-09 -2.887227792e-09)
(0.01100005279 9.836859693e-10 -1.077379558e-09)
(0.01100001832 4.04539649e-10 6.885572347e-10)
(0.01099997938 -1.424167038e-09 2.824896865e-09)
(0.01099994548 -7.830235289e-10 2.153470868e-09)
(0.01099991266 -9.631034328e-10 2.960646691e-09)
(0.01099987837 -7.740881337e-10 2.705159917e-09)
(0.01099984919 -8.39840574e-10 3.417375457e-09)
(0.01099982211 -1.763761366e-09 3.535808135e-09)
(0.0110001155 -3.631933739e-08 -6.009404525e-08)
(0.01100018301 -1.285017897e-09 -1.121161988e-08)
(0.01100014498 -8.245906159e-09 -1.960618331e-08)
(0.0110001362 -1.749090744e-09 -1.319316108e-08)
(0.01100009468 2.13360774e-09 -6.270083357e-09)
(0.01100005214 -1.737895875e-09 -2.574575666e-09)
(0.01100000792 2.996456247e-09 8.523241172e-10)
(0.01099996217 4.135262558e-09 1.278226473e-09)
(0.01099992134 4.252449207e-09 3.087817803e-09)
(0.01099987972 4.494511429e-09 3.448397564e-09)
(0.01099984335 6.290772735e-09 4.650586462e-09)
(0.01099981342 3.796197181e-09 2.89855936e-09)
(0.01099978018 4.384504563e-09 4.646546965e-09)
(0.0109997564 3.747445281e-09 6.217510328e-09)
(0.0109997297 6.728499766e-09 6.944292031e-09)
(0.01100011714 -1.827292495e-07 -9.63961236e-08)
(0.01100019599 -3.963946357e-08 -3.55727196e-09)
(0.01100008461 -3.727744161e-08 -2.792221847e-08)
(0.01100004826 -1.203173144e-08 -1.460424957e-08)
(0.01099997877 3.322493554e-10 -5.09994025e-09)
(0.01099991667 5.79067565e-09 -4.635946371e-11)
(0.01099986145 9.722665034e-09 3.851713864e-09)
(0.01099980894 8.632640036e-09 5.766132914e-09)
(0.01099977238 9.028505826e-09 5.72070614e-09)
(0.0109997391 1.00553459e-08 4.929501679e-09)
(0.01099971236 8.294916781e-09 5.27247203e-09)
(0.010999689 6.767235267e-09 4.490476964e-09)
(0.0109996738 5.420174755e-09 5.847305699e-09)
(0.01099965814 6.999067062e-09 6.704455244e-09)
(0.01099964617 8.168531354e-09 5.805405409e-09)
(0.01100021617 7.1984455e-09 7.535589387e-10)
(0.01099992085 -3.642244251e-08 -4.088190092e-08)
(0.01099981776 -5.217435477e-09 -7.445581747e-09)
(0.01099968845 8.492275466e-09 7.253284943e-09)
(0.01099960457 1.279740401e-08 1.068882436e-08)
(0.01099955221 1.296484972e-08 1.242940865e-08)
(0.01099951712 1.345612343e-08 1.230117898e-08)
(0.0109994975 1.255113365e-08 1.083681027e-08)
(0.01099948799 7.862259792e-09 8.032755124e-09)
(0.01099948935 7.555714245e-09 6.432421536e-09)
(0.01099948958 6.910168978e-09 4.225075331e-09)
(0.01099949664 5.834622144e-09 4.191828764e-09)
(0.01099950319 9.317948842e-09 7.858521721e-09)
(0.01099951045 6.961928004e-09 6.896126181e-09)
(0.0109999988 7.178604211e-08 1.104095383e-07)
(0.0109994287 3.590943619e-08 -7.875677889e-08)
(0.01099933636 4.646248328e-08 -8.806524927e-09)
(0.01099921358 3.939885344e-08 1.62821363e-08)
(0.01099916266 2.681673994e-08 2.064867694e-08)
(0.01099915702 1.987364168e-08 2.079543331e-08)
(0.01099917061 1.332926032e-08 1.76258881e-08)
(0.01099919661 8.582718577e-09 1.528732267e-08)
(0.01099922937 6.868823255e-09 9.564284992e-09)
(0.0109992649 5.975339112e-09 7.073605262e-09)
(0.01099929427 5.837573659e-09 4.666585542e-09)
(0.01099932679 4.630120945e-09 6.349144325e-09)
(0.01099935725 6.138774877e-09 9.787530252e-09)
(0.01099938282 5.993224093e-09 7.426306002e-09)
(0.01100012646 -1.001183463e-09 5.580362693e-07)
(0.01099893717 5.897781624e-10 3.44816413e-08)
(0.01099889542 -1.480156346e-10 5.949364981e-08)
(0.01099884098 1.825753963e-10 5.874284993e-08)
(0.01099886604 -3.453821416e-10 4.028615865e-08)
(0.01099892514 3.828549402e-10 2.725591697e-08)
(0.0109989881 4.601511752e-10 1.867843167e-08)
(0.01099905008 -1.618633573e-10 1.150293722e-08)
(0.01099911012 6.712110649e-10 8.365510551e-09)
(0.01099916673 -7.027429849e-10 5.373320834e-09)
(0.01099921356 7.148319252e-10 2.703133959e-09)
(0.01099925926 1.571048955e-09 3.955746048e-09)
(0.0109992971 6.885453953e-10 7.421988921e-09)
(0.01099933268 6.540292417e-10 6.954754516e-09)
(0.0110000006 -6.996629526e-08 1.133893502e-07)
(0.01099942909 -3.554111264e-08 -7.70092638e-08)
(0.01099933735 -4.58309564e-08 -8.883986075e-09)
(0.01099921461 -3.961853908e-08 1.576741009e-08)
(0.01099916506 -2.736381843e-08 2.052037028e-08)
(0.01099915753 -1.966473755e-08 1.890018856e-08)
(0.01099917083 -1.344581389e-08 1.723758764e-08)
(0.01099919663 -9.952263697e-09 1.247921861e-08)
(0.0109992283 -6.944858546e-09 1.027822635e-08)
(0.01099926348 -4.43230461e-09 6.756564764e-09)
(0.01099929883 -4.969155272e-09 6.048493335e-09)
(0.0109993254 -3.608660396e-09 6.265593744e-09)
(0.01099935584 -4.829548603e-09 9.42040451e-09)
(0.01099938328 -5.224847829e-09 7.78463254e-09)
(0.01100021632 -3.871576276e-09 4.309536122e-09)
(0.0109999198 3.952600667e-08 -3.977066464e-08)
(0.01099981579 7.834392414e-09 -6.853711346e-09)
(0.01099969119 -6.051316341e-09 5.469314745e-09)
(0.01099960579 -1.276621096e-08 1.048013735e-08)
(0.01099955228 -1.462231547e-08 1.295548607e-08)
(0.01099951705 -1.352050892e-08 1.174750132e-08)
(0.01099949742 -9.617490675e-09 1.000713277e-08)
(0.0109994902 -7.428637666e-09 1.073938183e-08)
(0.01099948964 -6.524987452e-09 8.093165049e-09)
(0.01099948925 -7.165382778e-09 8.119559482e-09)
(0.01099949637 -6.744103272e-09 5.29741092e-09)
(0.01099950049 -8.603172237e-09 9.243572205e-09)
(0.01099950976 -8.553571365e-09 7.00685905e-09)
(0.01100019718 4.08901202e-08 -1.058083822e-09)
(0.01100008677 3.759622247e-08 -2.712931561e-08)
(0.01100004498 1.374920943e-08 -1.434581478e-08)
(0.01099997795 1.385886921e-09 -5.790853616e-09)
(0.01099991611 -2.840920354e-09 -4.315793857e-10)
(0.01099986217 -6.931560982e-09 4.492475178e-09)
(0.01099981261 -7.800868129e-09 3.991678258e-09)
(0.01099977179 -8.009695795e-09 4.125528874e-09)
(0.01099974075 -7.622226335e-09 3.798874141e-09)
(0.01099971264 -6.840310943e-09 4.781618038e-09)
(0.01099969213 -6.870562222e-09 6.910819518e-09)
(0.01099967479 -5.921269352e-09 5.155210881e-09)
(0.0109996587 -7.923043363e-09 8.941382769e-09)
(0.0109996432 -6.991205243e-09 5.539816378e-09)
(0.01100018455 3.094856374e-09 -1.204656779e-08)
(0.01100014525 9.86324303e-09 -1.986213667e-08)
(0.01100013328 4.15804079e-09 -1.091130492e-08)
(0.01100009482 9.93473357e-10 -6.14375884e-09)
(0.01100005383 2.478850161e-09 -4.759504004e-09)
(0.01100000842 1.531260444e-10 8.6399629e-10)
(0.0109999636 -1.315828715e-09 4.350712419e-10)
(0.01099992069 -2.222846905e-09 1.894041704e-09)
(0.0109998783 -8.665999045e-11 1.63569929e-09)
(0.01099984528 -1.714312275e-09 3.701116906e-09)
(0.01099981088 -1.03948896e-09 4.414576378e-09)
(0.0109997828 -1.932788968e-09 5.457354697e-09)
(0.01099975637 -3.548657582e-09 5.933320256e-09)
(0.010999734 -2.247649347e-09 6.112240195e-09)
(0.0110001205 -5.148586913e-08 -1.092010645e-07)
(0.01100018824 9.916404166e-09 -2.130118015e-08)
(0.01100010501 -1.275335518e-08 -1.434039692e-08)
(0.01100008564 -3.538898279e-09 -4.305210424e-09)
(0.01100002734 -1.091112441e-09 -1.746504685e-10)
(0.01099997317 3.79300208e-09 1.563138198e-09)
(0.01099991572 4.251736657e-09 3.100682593e-09)
(0.01099986324 4.028091008e-09 3.221382641e-09)
(0.01099981824 3.932668433e-09 2.390721483e-09)
(0.01099977918 3.907773063e-09 1.860903499e-09)
(0.0109997458 2.683681612e-09 2.563968956e-09)
(0.0109997142 2.770618222e-09 1.881801257e-09)
(0.01099969142 3.053700435e-09 2.068808518e-09)
(0.01099967297 2.676886129e-09 2.765174366e-09)
(0.01099965307 1.948129593e-09 3.483938283e-09)
(0.01100012463 -2.713082985e-07 -2.215279782e-07)
(0.01100016243 -7.894321256e-09 2.125598781e-09)
(0.01099994303 -4.287277961e-08 -6.120847e-09)
(0.01099989719 -8.023263896e-09 3.357563596e-09)
(0.01099980315 6.908529126e-09 8.093213284e-09)
(0.01099973248 1.240160411e-08 9.769631093e-09)
(0.01099967535 1.430412399e-08 6.051434609e-09)
(0.01099962977 1.372408357e-08 5.081360743e-09)
(0.01099960248 1.191363894e-08 5.794907708e-09)
(0.01099958157 1.047370048e-08 4.656778202e-09)
(0.01099957232 9.547606514e-09 3.301853589e-09)
(0.01099955565 7.945650324e-09 3.674583064e-09)
(0.01099955391 6.861365966e-09 3.861110048e-09)
(0.01099954983 9.093156313e-09 4.607996938e-09)
(0.01099955145 8.231300548e-09 4.32453194e-09)
(0.01100004868 -3.351034722e-07 -6.662010845e-07)
(0.01099999961 1.156044065e-07 6.860824351e-08)
(0.0109994304 -7.527789286e-08 3.405964952e-08)
(0.01099933714 -7.346648883e-09 4.409585033e-08)
(0.01099921506 1.722214876e-08 3.844602791e-08)
(0.01099916414 1.926348135e-08 2.768612211e-08)
(0.01099915833 2.059479315e-08 1.837567235e-08)
(0.01099916993 1.816996936e-08 1.161104809e-08)
(0.01099919846 1.455899455e-08 8.752343765e-09)
(0.01099922994 1.05400461e-08 6.876939251e-09)
(0.01099926339 7.817679564e-09 5.607621272e-09)
(0.01099929914 4.771528113e-09 5.76474991e-09)
(0.01099932938 6.608409956e-09 5.182046919e-09)
(0.01099935609 8.357440112e-09 6.319401996e-09)
(0.01099938346 7.629545557e-09 5.075249021e-09)
(0.01099875964 5.593642293e-07 5.567492908e-07)
(0.01099790096 7.120267696e-08 6.848576931e-08)
(0.01099814972 7.434310595e-08 7.247610225e-08)
(0.01099818862 6.521132812e-08 6.50161726e-08)
(0.01099831607 4.03146718e-08 4.114817106e-08)
(0.01099846832 2.568074529e-08 2.615721457e-08)
(0.0109986122 1.640769478e-08 1.606577119e-08)
(0.01099874279 1.136251172e-08 6.977194741e-09)
(0.01099885603 6.207618341e-09 5.43671779e-09)
(0.01099895808 4.246328642e-09 4.309905343e-09)
(0.01099903873 6.829462393e-09 5.160548931e-09)
(0.01099911464 3.254349956e-09 3.544462715e-09)
(0.01099917364 7.676135618e-09 6.601434034e-09)
(0.01099923254 7.430814554e-09 6.106136799e-09)
(0.01099749056 -6.589345928e-11 3.401414249e-06)
(0.01099562652 1.955216859e-09 8.316821121e-07)
(0.01099683039 5.881057035e-10 3.245458428e-07)
(0.01099730321 -2.404190712e-10 1.759980484e-07)
(0.01099770491 -6.868946183e-10 8.009504258e-08)
(0.01099804912 3.055996168e-10 3.401748535e-08)
(0.0109983083 -1.424560698e-11 1.670146013e-08)
(0.01099851762 -6.196826795e-10 8.104205304e-09)
(0.0109986834 2.494043526e-09 4.530309403e-09)
(0.01099882158 1.665337067e-09 3.478066124e-09)
(0.01099893257 -3.474475669e-10 4.013294784e-09)
(0.01099902597 -3.303530161e-11 4.157179453e-09)
(0.0109991019 1.231359183e-09 6.91078868e-09)
(0.01099917143 2.906162372e-09 1.924517652e-09)
(0.01099876049 -5.559134766e-07 5.599611309e-07)
(0.01099789874 -6.91656702e-08 6.813187712e-08)
(0.0109981488 -7.299797877e-08 7.257029086e-08)
(0.01099818904 -6.476558338e-08 6.54628276e-08)
(0.01099831835 -3.932512482e-08 4.049886448e-08)
(0.01099847207 -2.628282444e-08 2.512501006e-08)
(0.01099861043 -1.486966864e-08 1.538178848e-08)
(0.0109987441 -8.90584112e-09 9.441623758e-09)
(0.01099885599 -5.102089693e-09 6.904515731e-09)
(0.01099895671 -3.344384363e-09 4.348267523e-09)
(0.01099904034 -2.746578938e-09 3.31213594e-09)
(0.01099911566 -3.098051618e-09 3.60512421e-09)
(0.0109991732 -7.321662128e-09 6.039681151e-09)
(0.01099923086 -6.910299573e-09 5.865544384e-09)
(0.01099999886 -1.136682577e-07 6.936650487e-08)
(0.01099942887 7.806856187e-08 3.644127648e-08)
(0.01099933506 8.488448072e-09 4.47368901e-08)
(0.01099921301 -1.481255712e-08 3.926593218e-08)
(0.01099916638 -1.975480828e-08 2.778809943e-08)
(0.01099915693 -1.990031268e-08 1.96836959e-08)
(0.01099917151 -1.913658679e-08 1.396499896e-08)
(0.01099920046 -1.385835042e-08 1.04520591e-08)
(0.01099922948 -1.066862019e-08 7.748303138e-09)
(0.01099926301 -6.260390335e-09 4.960854373e-09)
(0.01099929601 -5.288187626e-09 4.346351591e-09)
(0.01099932905 -5.464154034e-09 2.799911655e-09)
(0.01099935422 -8.762369678e-09 5.887769478e-09)
(0.01099938445 -1.004324527e-08 6.56419902e-09)
(0.01100016029 6.996681419e-09 3.987874019e-09)
(0.01099994445 4.164646066e-08 -4.040774026e-09)
(0.01099989375 9.349147438e-09 3.354626192e-09)
(0.01099980312 -5.353386114e-09 9.860114247e-09)
(0.01099973049 -1.05045201e-08 9.356566994e-09)
(0.01099967269 -1.248173986e-08 8.037304575e-09)
(0.01099963188 -1.309260192e-08 7.013974532e-09)
(0.01099960477 -1.153736949e-08 5.578210559e-09)
(0.01099958292 -9.647627344e-09 5.724399332e-09)
(0.01099956977 -1.029714543e-08 3.225343683e-09)
(0.01099955654 -7.964930988e-09 4.182562518e-09)
(0.01099955569 -5.452095736e-09 4.285713842e-09)
(0.01099954931 -6.955287829e-09 5.849084909e-09)
(0.01099954639 -7.392497002e-09 5.676219699e-09)
(0.01100018875 -9.220074987e-09 -1.947967847e-08)
(0.01100010609 1.172288138e-08 -1.253556107e-08)
(0.01100008285 5.957499393e-09 -2.85016898e-09)
(0.01100002814 9.932242675e-10 1.614515154e-09)
(0.01099997128 -1.329392454e-09 3.585945187e-09)
(0.01099991388 -2.290393943e-09 2.657203292e-09)
(0.01099986346 -2.828865573e-09 2.062119802e-09)
(0.01099982046 -2.090507538e-09 2.302650431e-09)
(0.0109997782 -2.671726885e-09 3.045705464e-09)
(0.01099974397 -1.892133094e-09 2.305117038e-09)
(0.01099971542 -1.24103119e-09 3.374715615e-09)
(0.01099969271 -1.367846665e-09 3.681955565e-09)
(0.01099967005 -3.207150144e-09 5.435450819e-09)
(0.01099965329 -2.518287784e-09 3.892263905e-09)
(0.01100013578 -1.474515349e-07 -7.442160382e-10)
(0.01100026124 2.161620651e-08 -7.66608886e-10)
(0.01100010716 -1.506178192e-09 -1.06807528e-10)
(0.01100006499 5.355735838e-09 5.713671091e-11)
(0.01099999169 7.925546962e-09 -4.591355759e-10)
(0.01099992576 8.868768527e-09 -5.286725972e-10)
(0.01099986993 8.097213478e-09 -1.561596949e-09)
(0.01099981471 6.024712554e-09 -2.097301763e-09)
(0.01099977118 6.845983909e-09 -1.370607211e-09)
(0.01099973466 4.080506216e-09 -2.660476088e-10)
(0.01099970264 2.752934999e-09 1.949268777e-09)
(0.01099967512 5.359443898e-09 -3.287230844e-10)
(0.01099965505 4.616796967e-09 -1.864978444e-10)
(0.01099963506 6.709933373e-09 -1.286727207e-09)
(0.01099962368 4.479280873e-09 -5.192404605e-10)
(0.01100016158 -7.249495856e-07 -3.819193769e-10)
(0.011000281 5.40884484e-08 -8.613845393e-10)
(0.01099985814 1.335001171e-08 -1.752385212e-10)
(0.01099978687 3.628778939e-08 -2.44627257e-10)
(0.01099968794 3.723716414e-08 -1.252082015e-09)
(0.01099961645 2.831913819e-08 -3.168238868e-09)
(0.01099957335 2.356291449e-08 -2.18402927e-09)
(0.01099954055 1.800199738e-08 -1.503528594e-09)
(0.01099952317 1.420614583e-08 -1.39633336e-09)
(0.01099951206 1.271603825e-08 5.197339155e-10)
(0.01099950701 9.079835988e-09 6.161643052e-10)
(0.01099950242 7.844545914e-09 1.573062615e-09)
(0.01099950321 6.374858064e-09 6.666071158e-10)
(0.0109995042 9.926960268e-09 1.183559676e-09)
(0.01099950929 8.479804547e-09 4.898821323e-10)
(0.01099998439 -1.350693073e-06 -1.290787301e-09)
(0.0110001246 5.620098871e-07 -8.466385312e-10)
(0.01099893795 3.758546307e-08 1.241938363e-09)
(0.01099889465 6.097143667e-08 -4.976675674e-10)
(0.01099884373 6.193807468e-08 -1.65659048e-09)
(0.01099886687 4.162923607e-08 -1.442752246e-09)
(0.01099892501 2.82264754e-08 -1.955700912e-09)
(0.01099898618 1.995465734e-08 -1.589111348e-09)
(0.01099905026 1.283020657e-08 3.84762387e-12)
(0.01099911002 9.790188572e-09 7.554027755e-11)
(0.01099916781 7.402395747e-09 2.279835404e-09)
(0.01099921334 5.775355869e-09 2.140204941e-09)
(0.01099925754 5.394820253e-09 1.320330612e-09)
(0.01099929482 8.310472261e-09 1.000682762e-09)
(0.01099933033 9.193501211e-09 6.541292332e-10)
(0.01099741245 -6.721820746e-06 7.397119407e-10)
(0.01099748689 3.40365747e-06 3.177953415e-10)
(0.01099562449 8.341928054e-07 -1.81417816e-10)
(0.01099683193 3.277173862e-07 2.58218336e-10)
(0.01099730169 1.751737544e-07 9.995274072e-10)
(0.01099770373 7.911768661e-08 2.388076133e-10)
(0.01099804619 3.562848735e-08 1.291003024e-10)
(0.01099830823 1.754762349e-08 -2.331322938e-09)
(0.01099851797 9.53769608e-09 -1.304498649e-09)
(0.01099868447 4.001367588e-09 1.480927095e-09)
(0.01099882117 3.017516917e-09 1.915201296e-09)
(0.01099892788 3.108047069e-09 1.4349509e-09)
(0.01099902824 2.883396166e-09 1.382535598e-09)
(0.01099910135 6.868692924e-09 2.306071147e-10)
(0.01099917066 2.923126939e-09 6.595580271e-10)
(0.01099438454 2.342070367e-09 3.618182772e-10)
(0.01098798763 5.154242112e-11 7.147900775e-10)
(0.01099364386 -1.324141545e-09 1.319872816e-09)
(0.01099568072 -6.963972036e-10 7.102318579e-10)
(0.0109967583 -2.724114181e-10 -8.137238808e-10)
(0.01099746341 -5.074649979e-10 1.174167636e-10)
(0.01099792658 -3.96350892e-10 2.523730793e-10)
(0.01099824832 4.189271306e-10 -1.225797588e-09)
(0.01099848515 6.248728599e-11 -1.950304136e-11)
(0.01099866753 -1.410292737e-09 2.682151485e-10)
(0.01099880951 -5.945439275e-10 2.184130605e-09)
(0.0109989282 3.925656392e-10 7.810180164e-10)
(0.0109990127 9.872909397e-10 1.047099459e-09)
(0.01099911324 7.810078712e-10 -2.583586749e-11)
(0.01099748489 -3.401404568e-06 -6.056482891e-10)
(0.01099562207 -8.313240531e-07 -4.710661019e-10)
(0.01099683084 -3.252322264e-07 1.756068105e-09)
(0.01099730223 -1.735790807e-07 1.524215634e-09)
(0.01099770717 -7.895563442e-08 5.933794545e-10)
(0.01099804579 -3.521818235e-08 -3.638524071e-10)
(0.01099830869 -1.572334679e-08 5.336979595e-10)
(0.01099851673 -7.790985902e-09 8.195577611e-10)
(0.01099868336 -4.780149854e-09 -1.892313645e-10)
(0.01099882064 -3.820018743e-09 -2.28784517e-10)
(0.01099893105 -3.516838637e-09 1.42866032e-09)
(0.01099902786 -3.897189536e-09 9.852853542e-10)
(0.01099910051 -7.753722887e-09 3.782510124e-10)
(0.01099916964 -2.030744711e-09 -7.23773963e-10)
(0.01100012683 -5.617376434e-07 3.27422259e-11)
(0.01099893084 -3.535040705e-08 -1.037854541e-09)
(0.01099889206 -6.053844769e-08 6.744947362e-10)
(0.01099884256 -6.131191848e-08 -6.017534692e-10)