/*--------------------------------*- C++ -*----------------------------------*\
| =========                 |                                                 |
| \\      /  F ield         | OpenFOAM: The Open Source CFD Toolbox           |
|  \\    /   O peration     | Version:  4.x                                   |
|   \\  /    A nd           | Web:      www.OpenFOAM.org                      |
|    \\/     M anipulation  |                                                 |
\*---------------------------------------------------------------------------*/
FoamFile
{
    version     2.0;
    format      ascii;
    class       volScalarField;
    location    "8000";
    object      X_CO;
}
// * * * * * * * * * * * * * * * * * * * * * * * * * * * * * * * * * * * * * //

dimensions      [0 0 0 0 0 0 0];

internalField   nonuniform List<scalar> 
1174
(
0.40002715
0.4000256711
0.4000235817
0.4000208546
0.4000175176
0.4000136425
0.4000093308
0.4000046978
0.3999998609
0.3999949313
0.3999900123
0.3999852153
0.3999807387
0.3999772161
0.4000257622
0.4000233916
0.4000202335
0.4000163599
0.4000119027
0.400007022
0.40000188
0.3999966242
0.3999913794
0.3999862452
0.3999813012
0.3999766258
0.3999723708
0.3999690803
0.4000226955
0.4000185046
0.4000133178
0.4000074261
0.4000011443
0.3999947542
0.3999884788
0.3999824759
0.399976846
0.3999716438
0.3999668934
0.3999626112
0.39995887
0.3999560601
0.4000182
0.400011688
0.4000042109
0.399996314
0.3999884511
0.3999809471
0.3999740039
0.3999677246
0.3999621407
0.3999572373
0.3999529736
0.399949305
0.399946232
0.3999439962
0.4000149885
0.4000072016
0.3999987061
0.3999900991
0.3999818112
0.3999741162
0.3999671617
0.3999610033
0.3999556345
0.3999510108
0.3999470681
0.3999437423
0.3999410092
0.399939051
0.4000182001
0.4000116882
0.400004211
0.3999963142
0.3999884514
0.3999809474
0.3999740043
0.3999677251
0.3999621413
0.399957238
0.3999529745
0.399949306
0.3999462331
0.3999439975
0.4000226956
0.4000185048
0.400013318
0.4000074264
0.4000011446
0.3999947547
0.3999884793
0.3999824766
0.3999768469
0.399971645
0.3999668948
0.3999626128
0.3999588719
0.3999560623
0.4000257623
0.4000233917
0.4000202337
0.4000163601
0.4000119031
0.4000070225
0.4000018805
0.399996625
0.3999913804
0.3999862465
0.3999813028
0.3999766277
0.3999723731
0.3999690828
0.4000271501
0.4000256712
0.4000235818
0.4000208548
0.4000175178
0.4000136428
0.4000093312
0.4000046985
0.3999998619
0.3999949325
0.3999900139
0.3999852173
0.3999807411
0.3999772189
0.4000273623
0.4000257623
0.4000233917
0.4000202336
0.40001636
0.4000119029
0.4000070222
0.4000018801
0.3999966244
0.3999913795
0.3999862453
0.3999813013
0.3999766259
0.399972371
0.3999690804
0.4000226319
0.4000184686
0.4000133907
0.4000077021
0.4000017074
0.3999956627
0.399989758
0.3999841195
0.3999788216
0.399973901
0.3999693721
0.3999652487
0.3999616079
0.3999588493
0.4000147525
0.4000066612
0.3999978659
0.3999891093
0.3999808993
0.399973511
0.3999670425
0.3999614781
0.3999567398
0.3999527243
0.399949326
0.3999464558
0.3999440769
0.3999423539
0.4000007407
0.399987283
0.399974487
0.3999633079
0.3999540765
0.3999467449
0.3999410819
0.3999367966
0.3999336046
0.3999312573
0.3999295508
0.3999283255
0.3999274655
0.3999269252
0.3999875132
0.399971318
0.3999575992
0.3999467141
0.3999384429
0.3999323615
0.3999280193
0.3999250126
0.3999230073
0.3999217384
0.3999210016
0.3999206406
0.3999205309
0.3999205527
0.4000007411
0.3999872835
0.3999744875
0.3999633085
0.3999540772
0.3999467456
0.3999410827
0.3999367975
0.3999336056
0.3999312584
0.3999295521
0.3999283269
0.399927467
0.3999269269
0.4000147528
0.4000066617
0.3999978664
0.3999891099
0.3999809
0.3999735118
0.3999670435
0.3999614792
0.3999567412
0.3999527259
0.3999493279
0.399946458
0.3999440794
0.3999423566
0.4000226321
0.4000184688
0.400013391
0.4000077024
0.4000017078
0.3999956633
0.3999897588
0.3999841205
0.3999788229
0.3999739027
0.3999693741
0.3999652512
0.3999616107
0.3999588525
0.4000257623
0.4000233917
0.4000202337
0.4000163602
0.4000119031
0.4000070226
0.4000018808
0.3999966253
0.3999913808
0.399986247
0.3999813035
0.3999766285
0.399972374
0.3999690839
0.4000257082
0.4000226957
0.4000185049
0.400013318
0.4000074264
0.4000011446
0.3999947546
0.3999884791
0.3999824763
0.3999768464
0.3999716442
0.3999668938
0.3999626115
0.3999588703
0.3999560604
0.4000212854
0.4000147526
0.4000066614
0.3999978661
0.3999891095
0.3999808995
0.3999735112
0.3999670428
0.3999614783
0.3999567401
0.3999527245
0.3999493263
0.399946456
0.3999440771
0.3999423541
0.3999914631
0.399974388
0.399958928
0.3999462509
0.399936594
0.3999296748
0.3999249986
0.3999220413
0.3999203362
0.3999195052
0.3999192592
0.399919383
0.3999197093
0.399920058
0.3999396291
0.3999107816
0.3998908915
0.3998791496
0.3998736254
0.3998723737
0.399873825
0.3998768423
0.3998806554
0.3998847673
0.3998888699
0.3998927685
0.3998962825
0.3998989664
0.3998716954
0.3998429892
0.3998306773
0.3998285185
0.3998320539
0.3998384754
0.3998461184
0.3998540358
0.3998617114
0.3998688824
0.399875429
0.3998812956
0.3998863803
0.3998901731
0.3999396305
0.399910783
0.3998908929
0.3998791509
0.3998736267
0.399872375
0.3998738263
0.3998768437
0.3998806568
0.3998847688
0.3998888716
0.3998927704
0.3998962845
0.3998989686
0.3999914643
0.399974389
0.3999589291
0.3999462521
0.3999365953
0.3999296762
0.3999250003
0.3999220431
0.3999203383
0.3999195076
0.3999192619
0.3999193861
0.3999197126
0.3999200616
0.4000147528
0.4000066617
0.3999978665
0.3999891101
0.3999809003
0.3999735123
0.3999670441
0.3999614799
0.3999567421
0.399952727
0.3999493292
0.3999464594
0.3999440809
0.3999423583
0.4000226956
0.4000185048
0.4000133181
0.4000074266
0.400001145
0.3999947552
0.39998848
0.3999824776
0.3999768482
0.3999716465
0.3999668966
0.399962615
0.3999588743
0.399956065
0.4000232227
0.4000182003
0.4000116885
0.4000042114
0.3999963146
0.3999884518
0.3999809478
0.3999740047
0.3999677254
0.3999621415
0.3999572381
0.3999529743
0.3999493057
0.3999462326
0.3999439968
0.4000131206
0.4000007413
0.3999872837
0.3999744877
0.3999633087
0.3999540773
0.3999467457
0.3999410827
0.3999367974
0.3999336054
0.3999312581
0.3999295515
0.3999283262
0.399927466
0.3999269257
0.3999748383
0.3999396299
0.3999107823
0.3998908921
0.3998791501
0.399873626
0.3998723742
0.3998738255
0.3998768428
0.3998806558
0.3998847677
0.3998888703
0.3998927689
0.3998962828
0.3998989667
0.3997618026
0.3997254507
0.3997194351
0.3997298528
0.3997475989
0.3997675325
0.3997870463
0.399804977
0.3998209242
0.3998348619
0.3998469251
0.3998572802
0.3998659576
0.3998722836
0.3994125187
0.3994580818
0.3995281402
0.3995953139
0.3996523801
0.3996989119
0.3997364197
0.3997666852
0.3997912627
0.399811385
0.3998279908
0.3998417548
0.3998530017
0.3998610707
0.3997618074
0.3997254541
0.3997194379
0.3997298553
0.3997476012
0.3997675346
0.3997870483
0.3998049789
0.3998209262
0.3998348639
0.3998469273
0.3998572826
0.3998659601
0.3998722863
0.3999396304
0.3999107834
0.3998908936
0.3998791519
0.399873628
0.3998723764
0.3998738279
0.3998768455
0.3998806587
0.3998847709
0.3998888738
0.3998927728
0.399896287
0.3998989712
0.400000741
0.3999872836
0.399974488
0.3999633092
0.3999540782
0.399946747
0.3999410843
0.3999367995
0.399933608
0.3999312611
0.3999295552
0.3999283303
0.3999274707
0.3999269309
0.4000182001
0.4000116882
0.4000042113
0.3999963146
0.3999884521
0.3999809485
0.3999740058
0.399967727
0.3999621437
0.3999572409
0.3999529779
0.39994931
0.3999462375
0.3999440024
0.4000213569
0.4000149889
0.4000072021
0.3999987067
0.3999900998
0.3999818121
0.3999741172
0.3999671628
0.3999610044
0.3999556357
0.3999510119
0.3999470692
0.3999437433
0.3999410101
0.3999390519
0.400004594
0.3999875138
0.3999713188
0.3999576001
0.3999467151
0.399938444
0.3999323626
0.3999280204
0.3999250138
0.3999230085
0.3999217395
0.3999210027
0.3999206416
0.3999205318
0.3999205535
0.3999226884
0.3998716963
0.3998429903
0.3998306785
0.3998285197
0.399832055
0.3998384765
0.3998461195
0.3998540369
0.3998617125
0.3998688834
0.3998754299
0.3998812965
0.399886381
0.3998901738
0.399474704
0.3994125222
0.3994580842
0.399528142
0.3995953153
0.3996523813
0.3996989129
0.3997364206
0.3997666861
0.3997912635
0.3998113857
0.3998279914
0.3998417554
0.3998530023
0.3998610712
0.3979067354
0.3986729784
0.3990970893
0.3993452998
0.3994989944
0.3995994988
0.3996686057
0.3997182697
0.3997553207
0.3997838223
0.3998062852
0.3998242815
0.3998386305
0.3998487671
0.399412518
0.3994580859
0.3995281451
0.3995953186
0.3996523844
0.3996989158
0.3997364233
0.3997666886
0.399791266
0.3998113883
0.3998279941
0.3998417581
0.3998530052
0.3998610742
0.399871695
0.3998429906
0.3998306799
0.3998285217
0.3998320574
0.3998384792
0.3998461224
0.39985404
0.3998617158
0.3998688871
0.3998754339
0.3998813008
0.3998863857
0.3998901788
0.3999875131
0.3999713184
0.3999576003
0.3999467157
0.3999384451
0.3999323641
0.3999280223
0.3999250162
0.3999230114
0.399921743
0.3999210068
0.3999206463
0.399920537
0.3999205592
0.4000149885
0.4000072017
0.3999987065
0.3999900999
0.3999818124
0.3999741179
0.399967164
0.3999610063
0.3999556382
0.3999510151
0.3999470732
0.399943748
0.3999410156
0.399939058
0.4000232227
0.4000182004
0.4000116886
0.4000042116
0.3999963149
0.3999884522
0.3999809484
0.3999740054
0.3999677262
0.3999621425
0.3999572392
0.3999529756
0.3999493071
0.3999462341
0.3999439985
0.4000131208
0.4000007417
0.3999872842
0.3999744884
0.3999633095
0.3999540783
0.3999467468
0.3999410839
0.3999367988
0.3999336069
0.3999312597
0.3999295533
0.3999283281
0.3999274681
0.3999269279
0.39997484
0.3999396316
0.3999107842
0.3998908941
0.3998791522
0.3998736281
0.3998723764
0.3998738278
0.3998768452
0.3998806583
0.3998847703
0.3998888729
0.3998927716
0.3998962856
0.3998989696
0.3998433936
0.39976181
0.3997254565
0.39971944
0.3997298572
0.399747603
0.3997675363
0.3997870499
0.3998049805
0.3998209277
0.3998348653
0.3998469286
0.3998572837
0.3998659611
0.3998722872
0.3994747024
0.399412522
0.3994580888
0.3995281475
0.3995953206
0.3996523862
0.3996989173
0.3997364246
0.3997666898
0.3997912671
0.3998113893
0.399827995
0.399841759
0.3998530059
0.3998610748
0.3998433928
0.3997618106
0.3997254581
0.399719442
0.3997298595
0.3997476052
0.3997675384
0.399787052
0.3998049826
0.3998209299
0.3998348676
0.3998469311
0.3998572864
0.3998659639
0.3998722902
0.3999396292
0.3999107836
0.3998908947
0.3998791536
0.3998736299
0.3998723786
0.3998738302
0.399876848
0.3998806614
0.3998847737
0.3998888768
0.3998927758
0.3998962902
0.3998989745
0.4000007406
0.3999872835
0.3999744881
0.3999633097
0.399954079
0.399946748
0.3999410856
0.399936801
0.3999336097
0.3999312631
0.3999295573
0.3999283327
0.3999274732
0.3999269335
0.4000181999
0.4000116881
0.4000042113
0.3999963148
0.3999884524
0.399980949
0.3999740065
0.399967728
0.3999621449
0.3999572424
0.3999529796
0.3999493118
0.3999462396
0.3999440046
0.4000257083
0.4000226959
0.4000185052
0.4000133185
0.400007427
0.4000011454
0.3999947556
0.3999884804
0.3999824778
0.3999768482
0.3999716462
0.399966896
0.399962614
0.399958873
0.3999560633
0.4000212858
0.4000147532
0.4000066622
0.3999978671
0.3999891107
0.399980901
0.3999735129
0.3999670447
0.3999614805
0.3999567425
0.3999527273
0.3999493292
0.3999464592
0.3999440805
0.3999423576
0.4000077434
0.3999914649
0.3999743898
0.39995893
0.3999462532
0.3999365965
0.3999296775
0.3999250017
0.3999220446
0.3999203398
0.3999195091
0.3999192633
0.3999193874
0.3999197138
0.3999200627
0.39997484
0.3999396318
0.3999107849
0.3998908951
0.3998791535
0.3998736296
0.3998723781
0.3998738295
0.3998768471
0.3998806603
0.3998847724
0.3998888753
0.3998927741
0.3998962882
0.3998989723
0.399922688
0.3998716972
0.3998429926
0.3998306817
0.3998285234
0.399832059
0.3998384807
0.3998461238
0.3998540413
0.3998617172
0.3998688883
0.3998754351
0.3998813019
0.3998863867
0.3998901796
0.3999748402
0.3999396323
0.3999107856
0.3998908961
0.3998791547
0.3998736309
0.3998723794
0.399873831
0.3998768487
0.399880662
0.3998847743
0.3998888773
0.3998927764
0.3998962907
0.3998989749
0.4000077429
0.3999914645
0.3999743897
0.3999589304
0.3999462539
0.3999365976
0.3999296789
0.3999250034
0.3999220467
0.3999203422
0.3999195119
0.3999192665
0.399919391
0.3999197178
0.399920067
0.4000147525
0.4000066617
0.3999978668
0.3999891108
0.3999809013
0.3999735137
0.3999670459
0.3999614822
0.3999567447
0.39995273
0.3999493326
0.3999464632
0.399944085
0.3999423626
0.4000226955
0.4000185048
0.4000133182
0.4000074269
0.4000011455
0.399994756
0.3999884812
0.3999824792
0.3999768502
0.3999716489
0.3999668994
0.3999626181
0.3999588778
0.3999560687
0.4000273624
0.4000257625
0.400023392
0.400020234
0.4000163606
0.4000119037
0.4000070232
0.4000018814
0.399996626
0.3999913814
0.3999862475
0.3999813039
0.3999766287
0.3999723741
0.3999690837
0.4000256648
0.4000226324
0.4000184692
0.4000133915
0.400007703
0.4000017086
0.3999956643
0.3999897598
0.3999841217
0.3999788241
0.3999739039
0.3999693753
0.3999652523
0.3999616118
0.3999588535
0.4000212858
0.4000147532
0.4000066623
0.3999978672
0.399989111
0.3999809013
0.3999735134
0.3999670453
0.3999614813
0.3999567434
0.3999527284
0.3999493305
0.3999464606
0.399944082
0.3999423593
0.4000131207
0.4000007417
0.3999872845
0.399974489
0.3999633104
0.3999540795
0.3999467484
0.3999410858
0.399936801
0.3999336095
0.3999312626
0.3999295566
0.3999283317
0.399927472
0.399926932
0.400004594
0.3999875142
0.3999713197
0.3999576016
0.3999467171
0.3999384465
0.3999323655
0.3999280238
0.3999250177
0.3999230128
0.3999217444
0.3999210081
0.3999206475
0.3999205381
0.3999205602
0.4000131208
0.4000007419
0.3999872848
0.3999744894
0.3999633109
0.3999540801
0.3999467491
0.3999410867
0.3999368021
0.3999336107
0.3999312641
0.3999295582
0.3999283335
0.399927474
0.3999269342
0.4000212858
0.4000147532
0.4000066623
0.3999978674
0.3999891114
0.3999809019
0.3999735142
0.3999670465
0.3999614827
0.3999567452
0.3999527305
0.3999493331
0.3999464636
0.3999440854
0.3999423629
0.4000256646
0.4000226322
0.4000184691
0.4000133914
0.4000077031
0.4000017089
0.3999956648
0.3999897607
0.399984123
0.3999788259
0.3999739062
0.3999693782
0.3999652556
0.3999616156
0.3999588577
0.4000257622
0.4000233917
0.4000202338
0.4000163605
0.4000119038
0.4000070236
0.4000018821
0.3999966271
0.3999913831
0.3999862498
0.3999813068
0.3999766323
0.3999723782
0.3999690884
0.4000281009
0.4000271502
0.4000256714
0.4000235821
0.4000208552
0.4000175183
0.4000136435
0.400009332
0.4000046994
0.3999998628
0.3999949335
0.3999900149
0.3999852183
0.399980742
0.3999772198
0.4000273624
0.4000257625
0.400023392
0.4000202341
0.4000163607
0.4000119038
0.4000070234
0.4000018817
0.3999966263
0.3999913818
0.3999862481
0.3999813045
0.3999766295
0.399972375
0.3999690848
0.4000257083
0.4000226959
0.4000185052
0.4000133186
0.4000074273
0.4000011458
0.3999947562
0.3999884812
0.3999824788
0.3999768494
0.3999716478
0.3999668979
0.3999626162
0.3999588754
0.399956066
0.4000232227
0.4000182005
0.4000116888
0.400004212
0.3999963156
0.3999884532
0.3999809498
0.3999740072
0.3999677284
0.3999621452
0.3999572424
0.3999529793
0.3999493113
0.3999462387
0.3999440035
0.4000213569
0.400014989
0.4000072025
0.3999987075
0.399990101
0.3999818137
0.3999741193
0.3999671654
0.3999610077
0.3999556396
0.3999510165
0.3999470745
0.3999437493
0.3999410167
0.3999390591
0.4000232227
0.4000182006
0.400011689
0.4000042122
0.3999963158
0.3999884536
0.3999809502
0.3999740078
0.3999677292
0.3999621461
0.3999572436
0.3999529807
0.3999493128
0.3999462405
0.3999440054
0.4000257083
0.4000226959
0.4000185053
0.4000133188
0.4000074275
0.4000011462
0.3999947568
0.399988482
0.3999824799
0.3999768509
0.3999716496
0.3999669001
0.3999626187
0.3999588784
0.3999560692
0.4000273623
0.4000257624
0.4000233919
0.400020234
0.4000163607
0.400011904
0.4000070238
0.4000018823
0.3999966273
0.3999913833
0.39998625
0.399981307
0.3999766325
0.3999723784
0.3999690885
0.4000281009
0.4000271501
0.4000256713
0.400023582
0.4000208551
0.4000175184
0.4000136438
0.4000093326
0.4000047003
0.3999998643
0.3999949355
0.3999900175
0.3999852214
0.3999807457
0.399977224
)
;

boundaryField
{
    top
    {
        type            calculated;
        value           nonuniform List<scalar> 
127
(
0.4000281009
0.4000271501
0.4000257623
0.4000226956
0.4000182001
0.4000149885
0.4000181999
0.4000226955
0.4000257622
0.4000271501
0.4000256712
0.4000233917
0.4000185048
0.4000116882
0.4000072017
0.4000116881
0.4000185048
0.4000233917
0.4000256713
0.4000235818
0.4000202337
0.4000133181
0.4000042113
0.3999987065
0.4000042113
0.4000133182
0.4000202338
0.400023582
0.4000208548
0.4000163602
0.4000074266
0.3999963146
0.3999900999
0.3999963148
0.4000074269
0.4000163605
0.4000208551
0.4000175178
0.4000119031
0.400001145
0.3999884521
0.3999818124
0.3999884524
0.4000011455
0.4000119038
0.4000175184
0.4000136428
0.4000070226
0.3999947552
0.3999809485
0.3999741179
0.399980949
0.399994756
0.4000070236
0.4000136438
0.4000093312
0.4000018808
0.39998848
0.3999740058
0.399967164
0.3999740065
0.3999884812
0.4000018821
0.4000093326
0.4000046985
0.3999966253
0.3999824776
0.399967727
0.3999610063
0.399967728
0.3999824792
0.3999966271
0.4000047003
0.3999998619
0.3999913808
0.3999768482
0.3999621437
0.3999556382
0.3999621449
0.3999768502
0.3999913831
0.3999998643
0.3999949325
0.399986247
0.3999716465
0.3999572409
0.3999510151
0.3999572424
0.3999716489
0.3999862498
0.3999949355
0.3999900139
0.3999813035
0.3999668966
0.3999529779
0.3999470732
0.3999529796
0.3999668994
0.3999813068
0.3999900175
0.3999852173
0.3999766285
0.399962615
0.39994931
0.399943748
0.3999493118
0.3999626181
0.3999766323
0.3999852214
0.3999807411
0.399972374
0.3999588743
0.3999462375
0.3999410156
0.3999462396
0.3999588778
0.3999723782
0.3999807457
0.3999772189
0.3999690839
0.399956065
0.3999440024
0.399939058
0.3999440046
0.3999560687
0.3999690884
0.399977224
)
;
    }
    bottom
    {
        type            calculated;
        value           nonuniform List<scalar> 
134
(
0.4000273623
0.4000257082
0.4000232227
0.4000213569
0.4000232227
0.4000257083
0.4000273624
0.4000281009
0.40002715
0.4000257623
0.4000226957
0.4000182003
0.4000149889
0.4000182004
0.4000226959
0.4000257625
0.4000271502
0.4000256711
0.4000233917
0.4000185049
0.4000116885
0.4000072021
0.4000116886
0.4000185052
0.400023392
0.4000256714
0.4000235817
0.4000202336
0.400013318
0.4000042114
0.3999987067
0.4000042116
0.4000133185
0.400020234
0.4000235821
0.4000208546
0.40001636
0.4000074264
0.3999963146
0.3999900998
0.3999963149
0.400007427
0.4000163606
0.4000208552
0.4000175176
0.4000119029
0.4000011446
0.3999884518
0.3999818121
0.3999884522
0.4000011454
0.4000119037
0.4000175183
0.4000136425
0.4000070222
0.3999947546
0.3999809478
0.3999741172
0.3999809484
0.3999947556
0.4000070232
0.4000136435
0.4000093308
0.4000018801
0.3999884791
0.3999740047
0.3999671628
0.3999740054
0.3999884804
0.4000018814
0.400009332
0.4000046978
0.3999966244
0.3999824763
0.3999677254
0.3999610044
0.3999677262
0.3999824778
0.399996626
0.4000046994
0.3999998609
0.3999913795
0.3999768464
0.3999621415
0.3999556357
0.3999621425
0.3999768482
0.3999913814
0.3999998628
0.3999949313
0.3999862453
0.3999716442
0.3999572381
0.3999510119
0.3999572392
0.3999716462
0.3999862475
0.3999949335
0.3999900123
0.3999813013
0.3999668938
0.3999529743
0.3999470692
0.3999529756
0.399966896
0.3999813039
0.3999900149
0.3999852153
0.3999766259
0.3999626115
0.3999493057
0.3999437433
0.3999493071
0.399962614
0.3999766287
0.3999852183
0.3999807387
0.399972371
0.3999588703
0.3999462326
0.3999410101
0.3999462341
0.399958873
0.3999723741
0.399980742
0.3999772161
0.3999690804
0.3999560604
0.3999439968
0.3999390519
0.3999439985
0.3999560633
0.3999690837
0.3999772198
)
;
    }
    side-walls
    {
        type            calculated;
        value           nonuniform List<scalar> 
261
(
0.40002715
0.4000257622
0.4000226955
0.4000182
0.4000149885
0.4000182001
0.4000226956
0.4000257623
0.4000271501
0.4000256711
0.4000233916
0.4000185046
0.400011688
0.4000072016
0.4000116882
0.4000185048
0.4000233917
0.4000256712
0.4000235817
0.4000202335
0.4000133178
0.4000042109
0.3999987061
0.400004211
0.400013318
0.4000202337
0.4000235818
0.4000208546
0.4000163599
0.4000074261
0.399996314
0.3999900991
0.3999963142
0.4000074264
0.4000163601
0.4000208548
0.4000175176
0.4000119027
0.4000011443
0.3999884511
0.3999818112
0.3999884514
0.4000011446
0.4000119031
0.4000175178
0.4000136425
0.400007022
0.3999947542
0.3999809471
0.3999741162
0.3999809474
0.3999947547
0.4000070225
0.4000136428
0.4000093308
0.40000188
0.3999884788
0.3999740039
0.3999671617
0.3999740043
0.3999884793
0.4000018805
0.4000093312
0.4000046978
0.3999966242
0.3999824759
0.3999677246
0.3999610033
0.3999677251
0.3999824766
0.399996625
0.4000046985
0.3999998609
0.3999913794
0.399976846
0.3999621407
0.3999556345
0.3999621413
0.3999768469
0.3999913804
0.3999998619
0.3999949313
0.3999862452
0.3999716438
0.3999572373
0.3999510108
0.399957238
0.399971645
0.3999862465
0.3999949325
0.3999900123
0.3999813012
0.3999668934
0.3999529736
0.3999470681
0.3999529745
0.3999668948
0.3999813028
0.3999900139
0.3999852153
0.3999766258
0.3999626112
0.399949305
0.3999437423
0.399949306
0.3999626128
0.3999766277
0.3999852173
0.3999807387
0.3999723708
0.39995887
0.399946232
0.3999410092
0.3999462331
0.3999588719
0.3999723731
0.3999807411
0.3999772161
0.3999690803
0.3999560601
0.3999439962
0.399939051
0.3999439975
0.3999560623
0.3999690828
0.3999772189
0.4000281009
0.4000273624
0.4000257083
0.4000232227
0.4000213569
0.4000232227
0.4000257083
0.4000273623
0.4000281009
0.4000271502
0.4000257625
0.4000226959
0.4000182005
0.400014989
0.4000182006
0.4000226959
0.4000257624
0.4000271501
0.4000256714
0.400023392
0.4000185052
0.4000116888
0.4000072025
0.400011689
0.4000185053
0.4000233919
0.4000256713
0.4000235821
0.4000202341
0.4000133186
0.400004212
0.3999987075
0.4000042122
0.4000133188
0.400020234
0.400023582
0.4000208552
0.4000163607
0.4000074273
0.3999963156
0.399990101
0.3999963158
0.4000074275
0.4000163607
0.4000208551
0.4000175183
0.4000119038
0.4000011458
0.3999884532
0.3999818137
0.3999884536
0.4000011462
0.400011904
0.4000175184
0.4000136435
0.4000070234
0.3999947562
0.3999809498
0.3999741193
0.3999809502
0.3999947568
0.4000070238
0.4000136438
0.400009332
0.4000018817
0.3999884812
0.3999740072
0.3999671654
0.3999740078
0.399988482
0.4000018823
0.4000093326
0.4000046994
0.3999966263
0.3999824788
0.3999677284
0.3999610077
0.3999677292
0.3999824799
0.3999966273
0.4000047003
0.3999998628
0.3999913818
0.3999768494
0.3999621452
0.3999556396
0.3999621461
0.3999768509
0.3999913833
0.3999998643
0.3999949335
0.3999862481
0.3999716478
0.3999572424
0.3999510165
0.3999572436
0.3999716496
0.39998625
0.3999949355
0.3999900149
0.3999813045
0.3999668979
0.3999529793
0.3999470745
0.3999529807
0.3999669001
0.399981307
0.3999900175
0.3999852183
0.3999766295
0.3999626162
0.3999493113
0.3999437493
0.3999493128
0.3999626187
0.3999766325
0.3999852214
0.399980742
0.399972375
0.3999588754
0.3999462387
0.3999410167
0.3999462405
0.3999588784
0.3999723784
0.3999807457
0.3999772198
0.3999690848
0.399956066
0.3999440035
0.3999390591
0.3999440054
0.3999560692
0.3999690885
0.399977224
)
;
    }
    inlet
    {
        type            calculated;
        value           nonuniform 0();
    }
    outlet
    {
        type            calculated;
        value           nonuniform List<scalar> 
81
(
0.3999772161
0.3999690803
0.3999560601
0.3999439962
0.399939051
0.3999439975
0.3999560623
0.3999690828
0.3999772189
0.3999690804
0.3999588493
0.3999423539
0.3999269252
0.3999205527
0.3999269269
0.3999423566
0.3999588525
0.3999690839
0.3999560604
0.3999423541
0.399920058
0.3998989664
0.3998901731
0.3998989686
0.3999200616
0.3999423583
0.399956065
0.3999439968
0.3999269257
0.3998989667
0.3998722836
0.3998610707
0.3998722863
0.3998989712
0.3999269309
0.3999440024
0.3999390519
0.3999205535
0.3998901738
0.3998610712
0.3998487671
0.3998610742
0.3998901788
0.3999205592
0.399939058
0.3999439985
0.3999269279
0.3998989696
0.3998722872
0.3998610748
0.3998722902
0.3998989745
0.3999269335
0.3999440046
0.3999560633
0.3999423576
0.3999200627
0.3998989723
0.3998901796
0.3998989749
0.399920067
0.3999423626
0.3999560687
0.3999690837
0.3999588535
0.3999423593
0.399926932
0.3999205602
0.3999269342
0.3999423629
0.3999588577
0.3999690884
0.3999772198
0.3999690848
0.399956066
0.3999440035
0.3999390591
0.3999440054
0.3999560692
0.3999690885
0.399977224
)
;
    }
    procBoundary1to0
    {
        type            processor;
        value           nonuniform List<scalar> 
97
(
0.4000281009
0.4000281009
0.4000273623
0.4000257083
0.4000232228
0.4000213571
0.4000232229
0.4000257084
0.4000273624
0.400028101
0.400028308
0.4000256646
0.4000256646
0.4000256646
0.4000212858
0.400013121
0.4000045949
0.4000131214
0.4000212861
0.4000256649
0.4000273624
0.400027559
0.4000256193
0.4000077428
0.4000077428
0.4000077428
0.3999748407
0.3999226931
0.3999748423
0.4000077443
0.4000212861
0.4000257084
0.4000264611
0.4000221976
0.4000072759
0.3998433914
0.3998433914
0.3998433914
0.3994747324
0.3998434012
0.3999748422
0.4000131213
0.4000232229
0.4000256768
0.4000189671
0.3999906887
0.3998786569
0.3964435688
0.3964435688
0.3964435688
0.3994747298
0.3994747298
0.3999226924
0.4000045948
0.400021357
0.4000264611
0.4000221976
0.4000072756
0.3999638679
0.3998786547
0.3999638689
0.399974839
0.399974839
0.399974839
0.4000131207
0.4000232227
0.400027559
0.4000256193
0.4000199321
0.4000072756
0.3999906883
0.4000072758
0.4000199322
0.4000212855
0.4000212855
0.4000212855
0.4000257082
0.400028308
0.4000275435
0.4000256193
0.4000221975
0.400018967
0.4000221976
0.4000256193
0.4000275435
0.4000273623
0.4000273623
0.4000273623
0.4000286469
0.400028308
0.400027559
0.4000264611
0.4000256768
0.4000264611
0.400027559
0.400028308
0.4000286469
)
;
    }
}


// ************************************************************************* //
