/*--------------------------------*- C++ -*----------------------------------*\
| =========                 |                                                 |
| \\      /  F ield         | OpenFOAM: The Open Source CFD Toolbox           |
|  \\    /   O peration     | Version:  4.x                                   |
|   \\  /    A nd           | Web:      www.OpenFOAM.org                      |
|    \\/     M anipulation  |                                                 |
\*---------------------------------------------------------------------------*/
FoamFile
{
    version     2.0;
    format      ascii;
    class       volScalarField;
    location    "8000";
    object      X_CO2;
}
// * * * * * * * * * * * * * * * * * * * * * * * * * * * * * * * * * * * * * //

dimensions      [0 0 0 0 0 0 0];

internalField   nonuniform List<scalar> 
1174
(
1.982834745e-06
3.462569917e-06
5.553168404e-06
8.281845536e-06
1.162098504e-05
1.549863494e-05
1.981352884e-05
2.44501422e-05
2.929106274e-05
3.422504874e-05
3.914849058e-05
4.394984313e-05
4.843040059e-05
5.195592929e-05
3.371263121e-06
5.743021414e-06
8.902733528e-06
1.277843156e-05
1.723821497e-05
2.212213359e-05
2.726795729e-05
3.252796948e-05
3.777745736e-05
4.291652617e-05
4.786542453e-05
5.254554255e-05
5.680466619e-05
6.009827901e-05
6.439046801e-06
1.063166313e-05
1.582082305e-05
2.171540926e-05
2.800074522e-05
3.439482611e-05
4.067491284e-05
4.668280713e-05
5.231807578e-05
5.752583012e-05
6.228171525e-05
6.656902801e-05
7.031463945e-05
7.312764332e-05
1.093590618e-05
1.745026239e-05
2.493049557e-05
3.283103576e-05
4.069812917e-05
4.82068869e-05
5.515531091e-05
6.144030581e-05
6.703011328e-05
7.193951513e-05
7.620903927e-05
7.988299031e-05
8.296057678e-05
8.519945791e-05
1.414814975e-05
2.193777366e-05
3.043661501e-05
3.904757733e-05
4.733993308e-05
5.503991042e-05
6.199982237e-05
6.816400597e-05
7.353883544e-05
7.816871689e-05
8.211725053e-05
8.544844316e-05
8.818610616e-05
9.014732515e-05
1.093577532e-05
1.745007467e-05
2.493024359e-05
3.283070647e-05
4.069770625e-05
4.820634648e-05
5.515461475e-05
6.143941653e-05
6.702898023e-05
7.193809795e-05
7.620732259e-05
7.988095826e-05
8.295824853e-05
8.519686549e-05
6.438860568e-06
1.06314269e-05
1.582052683e-05
2.171502775e-05
2.800023792e-05
3.439413901e-05
4.067397469e-05
4.668153486e-05
5.231639246e-05
5.752365841e-05
6.227899575e-05
6.656575306e-05
7.03108205e-05
7.312333747e-05
3.371072102e-06
5.742812718e-06
8.902495653e-06
1.277813486e-05
1.723780871e-05
2.21215434e-05
2.726708797e-05
3.252671333e-05
3.777569798e-05
4.291416847e-05
4.786238513e-05
5.254179267e-05
5.680022398e-05
6.009322172e-05
1.982691167e-06
3.462448251e-06
5.55305171e-06
8.281701326e-06
1.162075886e-05
1.549824898e-05
1.981287314e-05
2.444909173e-05
2.928947305e-05
3.422279547e-05
3.914546701e-05
4.394600296e-05
4.842572616e-05
5.195043097e-05
1.770281962e-06
3.371071885e-06
5.7428215e-06
8.902513358e-06
1.277818672e-05
1.723794432e-05
2.212183678e-05
2.726763938e-05
3.252764035e-05
3.777712848e-05
4.291621007e-05
4.78651247e-05
5.254526911e-05
5.68044264e-05
6.009806211e-05
6.502719643e-06
1.066762819e-05
1.574776108e-05
2.143919946e-05
2.74372171e-05
3.348578306e-05
3.939494841e-05
4.503833732e-05
5.034147746e-05
5.526743624e-05
5.980170949e-05
6.393010328e-05
6.757530425e-05
7.033686099e-05
1.438457156e-05
2.247850722e-05
3.127720865e-05
4.00376386e-05
4.825206421e-05
5.564519922e-05
6.211894056e-05
6.768903634e-05
7.243318258e-05
7.645460927e-05
7.985860585e-05
8.273411835e-05
8.511749348e-05
8.684347499e-05
2.839970298e-05
4.186141214e-05
5.466192932e-05
6.584589206e-05
7.50824007e-05
8.241945597e-05
8.808820878e-05
9.237947583e-05
9.557763165e-05
9.793111812e-05
9.964349513e-05
0.0001008741219
0.0001017385698
0.0001022816493
4.16295275e-05
5.78293919e-05
7.15530683e-05
8.244324258e-05
9.071966748e-05
9.680657719e-05
0.0001011545136
0.0001041671291
0.0001061785875
0.0001074535964
0.0001081962134
0.0001085624167
0.0001086764768
0.0001086573151
2.839913586e-05
4.186073823e-05
5.466114664e-05
6.584500392e-05
7.508139498e-05
8.24183127e-05
8.808688063e-05
9.237793925e-05
9.557583387e-05
9.792899387e-05
9.964103829e-05
0.0001008713379
0.0001017354804
0.0001022782569
1.43840033e-05
2.247790814e-05
3.127653045e-05
4.00368267e-05
4.825103752e-05
5.56439151e-05
6.211730858e-05
6.768698056e-05
7.243060492e-05
7.645144666e-05
7.985481253e-05
8.272969768e-05
8.511246684e-05
8.683790548e-05
6.502363139e-06
1.066733411e-05
1.57474476e-05
2.143878451e-05
2.743661042e-05
3.348489292e-05
3.939365517e-05
4.503651995e-05
5.033901096e-05
5.526421134e-05
5.979766462e-05
6.3925212e-05
6.75696118e-05
7.033044191e-05
3.37108743e-06
5.742815128e-06
8.902469744e-06
1.277805393e-05
1.723764574e-05
2.212126612e-05
2.726665786e-05
3.25260912e-05
3.777486095e-05
4.291307563e-05
4.786102512e-05
5.254015827e-05
5.679832612e-05
6.009099831e-05
3.424943192e-06
6.438626873e-06
1.063117381e-05
1.582025385e-05
2.171476191e-05
2.800001826e-05
3.439402621e-05
4.067405303e-05
4.668192039e-05
5.231719671e-05
5.752498239e-05
6.228092323e-05
6.656831463e-05
7.031400333e-05
7.312707623e-05
7.849291933e-06
1.438411063e-05
2.247806746e-05
3.127675494e-05
4.003715408e-05
4.825153165e-05
5.564463772e-05
6.211834253e-05
6.768842342e-05
7.243256162e-05
7.645400795e-05
7.985805278e-05
8.273361555e-05
8.511705312e-05
8.684307627e-05
3.768001264e-05
5.475967761e-05
7.022471625e-05
8.290708463e-05
9.256937547e-05
9.949421345e-05
0.0001041761002
0.0001071394311
0.000108850652
0.0001096877153
0.0001099396214
0.0001098209958
0.0001094990303
0.0001091530969
8.952452364e-05
0.0001183789699
0.0001382755754
0.0001500234226
0.0001555530861
0.0001568101331
0.0001553642574
0.0001523524876
0.0001485452293
0.0001444391059
0.0001403419949
0.0001364482504
0.0001329381767
0.0001302565533
0.0001574674838
0.0001861815469
0.0001984995971
0.0002006634966
0.0001971327058
0.0001907156531
0.0001830772864
0.00017516494
0.0001674945987
0.0001603290225
0.0001537876308
0.000147925593
0.0001428445682
0.0001390538199
8.952224601e-05
0.0001183767911
0.0001382734161
0.0001500212036
0.0001555508015
0.0001568077725
0.0001553617868
0.0001523498509
0.0001485423616
0.0001444359222
0.0001403384496
0.0001364443596
0.0001329339654
0.0001302520186
3.767829725e-05
5.475820465e-05
7.022314677e-05
8.290526338e-05
9.256722259e-05
9.949168734e-05
0.0001041731425
0.0001071359687
0.0001088465793
0.0001096829596
0.0001099341525
0.0001098148178
0.0001094921669
0.0001091456168
1.438400439e-05
2.247781421e-05
3.127629005e-05
4.003637991e-05
4.825036903e-05
5.564298687e-05
6.211609422e-05
6.768545467e-05
7.242875023e-05
7.644924199e-05
7.985225628e-05
8.272680406e-05
8.510929147e-05
8.683449348e-05
6.438881606e-06
1.063138002e-05
1.582034631e-05
2.171464519e-05
2.79995756e-05
3.439312288e-05
4.067251895e-05
4.667957747e-05
5.231386404e-05
5.75204962e-05
6.227519235e-05
6.656132268e-05
7.03058029e-05
7.311771532e-05
5.911200861e-06
1.093519749e-05
1.744937865e-05
2.492943458e-05
3.28297944e-05
4.069671942e-05
4.820533528e-05
5.515364884e-05
6.143858877e-05
6.702839575e-05
7.193786688e-05
7.620751387e-05
7.988160882e-05
8.295933751e-05
8.519835693e-05
1.601599902e-05
2.83985487e-05
4.186015483e-05
5.466056999e-05
6.584443739e-05
7.508086016e-05
8.241784584e-05
8.80865556e-05
9.237781476e-05
9.557602331e-05
9.792957414e-05
9.964207826e-05
0.0001008728574
0.0001017374565
0.0001022806639
5.430739344e-05
8.952273126e-05
0.0001183775007
0.0001382742927
0.0001500222025
0.0001555519057
0.000156808984
0.000155363138
0.0001523513883
0.0001485441842
0.0001444381153
0.0001403411037
0.0001364474654
0.0001329375125
0.0001302559697
0.0002673818452
0.0003037415385
0.000309762576
0.0002993484164
0.0002816051605
0.0002616744215
0.0002421638681
0.0002242369463
0.0002082940865
0.0001943611452
0.0001823024695
0.0001719515205
0.0001632773574
0.0001569529777
0.0006167060601
0.0005711444545
0.0005010839427
0.0004339075521
0.0003768395652
0.0003303073048
0.0002928004987
0.0002625372378
0.0002379629863
0.0002178444746
0.0002012426586
0.0001874822807
0.0001762380774
0.0001681703786
0.0002673743007
0.0003037361565
0.0003097577933
0.0002993438713
0.0002816008029
0.0002616702276
0.0002421597784
0.0002242328697
0.0002082898901
0.0001943566997
0.0001822977281
0.0001719464258
0.0001632719491
0.0001569472343
8.952244349e-05
0.0001183761687
0.0001382720029
0.0001500191256
0.0001555481891
0.0001568047498
0.0001553584149
0.0001523461584
0.0001485383194
0.000144431554
0.0001403337366
0.0001364393397
0.0001329286797
0.0001302465087
2.83992778e-05
4.186046351e-05
5.466030806e-05
6.584352072e-05
7.507924063e-05
8.241548011e-05
8.808337106e-05
9.237370388e-05
9.557085618e-05
9.792326613e-05
9.963453905e-05
0.0001008641256
0.0001017276473
0.0001022699112
1.093585508e-05
1.744996831e-05
2.492980568e-05
3.282979644e-05
4.069619843e-05
4.820412914e-05
5.515156501e-05
6.143543306e-05
6.702397504e-05
7.193201548e-05
7.620013248e-05
7.98727033e-05
8.294901689e-05
8.518670525e-05
7.777444196e-06
1.414733164e-05
2.193670901e-05
3.043528616e-05
3.904598663e-05
4.733808947e-05
5.503784458e-05
6.199759895e-05
6.816168389e-05
7.353650228e-05
7.816645689e-05
8.211513453e-05
8.544652631e-05
8.818439852e-05
9.014581201e-05
2.454395811e-05
4.162811777e-05
5.782774264e-05
7.155120529e-05
8.24411955e-05
9.071745354e-05
9.680422125e-05
0.0001011520845
0.0001041646451
0.0001061761514
0.0001074512723
0.0001081940693
0.0001085605089
0.0001086748001
0.0001086558435
0.0001064634473
0.0001574649728
0.0001861789012
0.000198497007
0.0002006609455
0.0001971302102
0.0001907132274
0.0001830748932
0.000175162597
0.0001674923538
0.0001603269108
0.000153785711
0.0001479239255
0.0001428431188
0.00013905253
0.0005545055148
0.0006166984278
0.0005711394374
0.000501080337
0.0004339047502
0.0003768371705
0.0003303052479
0.0002927985896
0.0002625354527
0.0002379613997
0.0002178430498
0.0002012414027
0.000187481149
0.0001762370821
0.0001681695156
0.002122650166
0.001356334674
0.0009321846758
0.0006839523705
0.0005302455845
0.0004297347929
0.0003606253393
0.0003109612808
0.0002739121441
0.0002454134054
0.0002229537499
0.0002049605033
0.0001906138385
0.0001804781449
0.0006167069009
0.0005711373373
0.0005010746883
0.0004338982901
0.0003768308333
0.0003302992886
0.0002927930546
0.0002625301381
0.00023795605
0.0002178375996
0.0002012357116
0.0001874751682
0.0001762308215
0.0001681629555
0.0001574682533
0.0001861789028
0.0001984945518
0.0002006569681
0.0001971253116
0.000190707726
0.0001830689392
0.0001751561421
0.0001674852822
0.0001603191503
0.000153777188
0.0001479146017
0.0001428330728
0.0001390418187
4.162977603e-05
5.782856124e-05
7.155101316e-05
8.244000131e-05
9.071533636e-05
9.680120022e-05
0.0001011481221
0.0001041596579
0.0001061700023
0.0001074438595
0.0001081853548
0.0001085505056
0.0001086636446
0.0001086436856
1.414830629e-05
2.193756299e-05
3.043580558e-05
3.904598863e-05
4.733741604e-05
5.503633065e-05
6.199503327e-05
6.815788698e-05
7.353125761e-05
7.815962019e-05
8.210661146e-05
8.543634185e-05
8.8172672e-05
9.013265474e-05
5.911166713e-06
1.093505417e-05
1.744909212e-05
2.49289708e-05
3.282912661e-05
4.069582296e-05
4.820419012e-05
5.515223208e-05
6.14368917e-05
6.702641262e-05
7.193559411e-05
7.620495412e-05
7.987879023e-05
8.295629948e-05
8.519510562e-05
1.601564189e-05
2.83978732e-05
4.185916574e-05
5.465928681e-05
6.584286474e-05
7.507897741e-05
8.241567878e-05
8.808409162e-05
9.237506347e-05
9.557296916e-05
9.792625341e-05
9.963848231e-05
0.0001008690172
0.0001017334265
0.0001022764225
5.430418535e-05
8.951961498e-05
0.0001183739938
0.0001382705086
0.0001500182146
0.0001555477119
0.0001568045948
0.0001553585755
0.0001523466586
0.0001485392479
0.0001444329851
0.0001403357657
0.0001364419598
0.0001329318654
0.0001302501732
0.0001857708129
0.0002673680222
0.0003037308256
0.0003097531843
0.0002993397865
0.0002815970541
0.0002616667148
0.0002421564751
0.0002242297167
0.0002082869231
0.0001943540099
0.0001822952907
0.0001719442901
0.0001632701108
0.0001569456091
0.0005545062512
0.0006166976013
0.0005711310638
0.0005010699893
0.0004338945213
0.0003768277315
0.0003302965903
0.0002927905834
0.000262527909
0.0002379540708
0.0002178358277
0.0002012341264
0.0001874737971
0.0001762296541
0.0001681619453
0.0001857728021
0.0002673676101
0.0003037282354
0.0003097492412
0.0002993352239
0.0002815923212
0.0002616619884
0.0002421517761
0.0002242250143
0.0002082820855
0.0001943488922
0.0001822898425
0.0001719384984
0.0001632639611
0.0001569391321
8.952445986e-05
0.0001183753998
0.0001382694866
0.0001500155291
0.0001555439184
0.0001568000056
0.0001553533166
0.0001523407269
0.0001485325874
0.0001444255072
0.0001403274402
0.0001364327969
0.0001329219441
0.0001302395649
2.840003308e-05
4.186057278e-05
5.46597155e-05
6.584228944e-05
7.507743081e-05
8.241313636e-05
8.808051875e-05
9.237037622e-05
9.556706923e-05
9.791901097e-05
9.962988686e-05
0.0001008591314
0.0001017223558
0.0001022643563
1.093612016e-05
1.745008602e-05
2.492966008e-05
3.282931177e-05
4.069532421e-05
4.820281681e-05
5.514979116e-05
6.143317537e-05
6.702122664e-05
7.192877536e-05
7.619642445e-05
7.986859878e-05
8.294456329e-05
8.518195901e-05
3.424798583e-06
6.438293957e-06
1.063061185e-05
1.581942249e-05
2.171361211e-05
2.799850397e-05
3.439211247e-05
4.067170056e-05
4.667909867e-05
5.231388815e-05
5.752117475e-05
6.227663091e-05
6.656356936e-05
7.030884702e-05
7.312154111e-05
7.848581082e-06
1.438310324e-05
2.247669804e-05
3.127499696e-05
4.003495793e-05
4.824886695e-05
5.564145932e-05
6.211464027e-05
6.768417926e-05
7.242777802e-05
7.644868907e-05
7.985221946e-05
8.272730833e-05
8.511033489e-05
8.683597431e-05
2.139432686e-05
3.767666128e-05
5.475623067e-05
7.022086274e-05
8.290270277e-05
9.256441026e-05
9.948867114e-05
0.0001041699788
0.0001071327236
0.0001088433783
0.0001096798936
0.0001099312741
0.0001098122248
0.0001094898732
0.0001091435819
5.430428564e-05
8.951912146e-05
0.0001183727209
0.0001382684995
0.0001500155901
0.0001555446464
0.0001568011935
0.0001553548742
0.0001523426664
0.0001485349849
0.0001444284201
0.0001403308914
0.000136436786
0.0001329264342
0.0001302445106
0.0001064638536
0.0001574629974
0.0001861742518
0.0001984904528
0.000200653272
0.000197121913
0.0001907045178
0.0001830658683
0.0001751532472
0.0001674825846
0.0001603166611
0.0001537749305
0.0001479126076
0.0001428313308
0.0001390402905
5.43040253e-05
8.951840087e-05
0.0001183713639
0.0001382665536
0.000150013208
0.0001555419504
0.0001567982581
0.0001553517125
0.0001523392458
0.0001485312089
0.0001444242607
0.0001403263306
0.0001364318049
0.0001329210819
0.0001302388127
2.139547517e-05
3.767760887e-05
5.475645592e-05
7.022021444e-05
8.290120298e-05
9.256214117e-05
9.948566804e-05
0.0001041662651
0.000107128276
0.0001088381171
0.0001096737508
0.0001099242341
0.0001098043044
0.0001094811854
0.0001091342218
1.438458096e-05
2.247771732e-05
3.127546209e-05
4.003478748e-05
4.824797229e-05
5.563976128e-05
6.21120147e-05
6.768050814e-05
7.242293895e-05
7.644258526e-05
7.984480942e-05
8.271865298e-05
8.510054951e-05
8.682525356e-05
6.439174071e-06
1.063146353e-05
1.582008167e-05
2.171390984e-05
2.799826399e-05
3.439113541e-05
4.066978065e-05
4.66760248e-05
5.230945797e-05
5.751525164e-05
6.226912375e-05
6.65545118e-05
7.029836345e-05
7.310974829e-05
1.770052304e-06
3.370680261e-06
5.742222958e-06
8.901664216e-06
1.277702942e-05
1.723641492e-05
2.211987458e-05
2.726518466e-05
3.252463688e-05
3.77735316e-05
4.291199226e-05
4.786028329e-05
5.253981615e-05
5.679841143e-05
6.009155765e-05
3.468263254e-06
6.501791718e-06
1.066650671e-05
1.574632588e-05
2.143734712e-05
2.743486313e-05
3.348285127e-05
3.939137922e-05
4.503407706e-05
5.033649904e-05
5.526172954e-05
5.979529009e-05
6.392299296e-05
6.756758922e-05
7.032860954e-05
7.84860502e-06
1.438307492e-05
2.247655581e-05
3.127469034e-05
4.00344479e-05
4.824811223e-05
5.564043275e-05
6.211332013e-05
6.768255118e-05
7.242582031e-05
7.644638333e-05
7.984957192e-05
8.27243435e-05
8.510707199e-05
8.683248117e-05
1.601570155e-05
2.839765252e-05
4.185846034e-05
5.46579615e-05
6.584088368e-05
7.507635177e-05
8.241238912e-05
8.8080128e-05
9.237041183e-05
9.556760672e-05
9.792015589e-05
9.963166237e-05
0.0001008615257
0.0001017253403
0.0001022678489
2.454402726e-05
4.162740524e-05
5.782591515e-05
7.154819409e-05
8.24370677e-05
9.071230301e-05
9.679811931e-05
0.0001011449953
0.0001041565761
0.000106167021
0.0001074410632
0.0001081827827
0.0001085481939
0.0001086616081
0.0001086418962
1.601557072e-05
2.839737902e-05
4.185796339e-05
5.465721433e-05
6.583987025e-05
7.50750634e-05
8.241080689e-05
8.807825123e-05
9.236817318e-05
9.556496538e-05
9.791706039e-05
9.962810731e-05
0.0001008575229
0.0001017209479
0.0001022631188
7.848705568e-06
1.438316637e-05
2.247647154e-05
3.127429458e-05
4.00336463e-05
4.824685062e-05
5.563864415e-05
6.211092016e-05
6.767945527e-05
7.242193217e-05
7.644164577e-05
7.984395001e-05
8.271789795e-05
8.509988508e-05
8.682466729e-05
3.468584048e-06
6.502194819e-06
1.066684873e-05
1.574647372e-05
2.143717716e-05
2.74342468e-05
3.348165405e-05
3.938945352e-05
4.50312828e-05
5.033268234e-05
5.525678804e-05
5.978919027e-05
6.391577419e-05
6.755934539e-05
7.031951317e-05
3.371253701e-06
5.742749359e-06
8.902072312e-06
1.277720573e-05
1.723621429e-05
2.211911855e-05
2.72636715e-05
3.252216425e-05
3.776990618e-05
4.290707198e-05
4.785398869e-05
5.253215833e-05
5.678947852e-05
6.008146611e-05
1.031186311e-06
1.982389747e-06
3.461984934e-06
5.552382169e-06
8.280790866e-06
1.161958831e-05
1.54968208e-05
1.981122174e-05
2.444726748e-05
2.92875412e-05
3.422083402e-05
3.914354777e-05
4.394417619e-05
4.842403098e-05
5.194886514e-05
1.770063951e-06
3.370687329e-06
5.742213413e-06
8.901620698e-06
1.277692693e-05
1.723622687e-05
2.211956831e-05
2.726472213e-05
3.252398422e-05
3.77726547e-05
4.291086354e-05
4.785888444e-05
5.253815312e-05
5.679647915e-05
6.00892929e-05
3.424815576e-06
6.438273031e-06
1.063049841e-05
1.581915368e-05
2.171311506e-05
2.79977163e-05
3.43909544e-05
4.067009858e-05
4.667699e-05
5.231120552e-05
5.751787647e-05
6.227269336e-05
6.655899872e-05
7.030369565e-05
7.311580049e-05
5.911171556e-06
1.093491675e-05
1.744867734e-05
2.492814219e-05
3.28277654e-05
4.069382538e-05
4.820145511e-05
5.514867334e-05
6.14324173e-05
6.702093708e-05
7.192905639e-05
7.619734759e-05
7.98701624e-05
8.294673528e-05
8.518465549e-05
7.777449871e-06
1.414705558e-05
2.193593469e-05
3.043382454e-05
3.904368931e-05
4.733483865e-05
5.503353462e-05
6.199209667e-05
6.815488136e-05
7.35282946e-05
7.81567748e-05
8.210396065e-05
8.543394781e-05
8.817054633e-05
9.013076418e-05
5.911115172e-06
1.093480127e-05
1.744846488e-05
2.492779781e-05
3.282724493e-05
4.069309232e-05
4.820046452e-05
5.514737297e-05
6.143075264e-05
6.701884876e-05
7.192652281e-05
7.619435451e-05
7.986672711e-05
8.29429131e-05
8.51804844e-05
3.424811169e-06
6.438250924e-06
1.063040178e-05
1.581890779e-05
2.171263709e-05
2.799690948e-05
3.438972279e-05
4.066833921e-05
4.66745824e-05
5.230805986e-05
5.75139201e-05
6.22678995e-05
6.655341151e-05
7.029738421e-05
7.310888446e-05
1.770130517e-06
3.370799708e-06
5.742319908e-06
8.901642147e-06
1.277676156e-05
1.723575461e-05
2.211864477e-05
2.726319201e-05
3.252168973e-05
3.776945164e-05
4.290663744e-05
4.785358799e-05
5.253180571e-05
5.678917157e-05
6.008119409e-05
1.031318619e-06
1.982596866e-06
3.46222023e-06
5.552575675e-06
8.280840445e-06
1.161935881e-05
1.54961439e-05
1.980990789e-05
2.4445114e-05
2.92843651e-05
3.421648521e-05
3.913793981e-05
4.393731386e-05
4.841597884e-05
5.193972383e-05
)
;

boundaryField
{
    top
    {
        type            calculated;
        value           nonuniform List<scalar> 
127
(
1.031318619e-06
1.982691167e-06
3.37108743e-06
6.438881606e-06
1.093585508e-05
1.414830629e-05
1.093612016e-05
6.439174071e-06
3.371253701e-06
1.982596866e-06
3.462448251e-06
5.742815128e-06
1.063138002e-05
1.744996831e-05
2.193756299e-05
1.745008602e-05
1.063146353e-05
5.742749359e-06
3.46222023e-06
5.55305171e-06
8.902469744e-06
1.582034631e-05
2.492980568e-05
3.043580558e-05
2.492966008e-05
1.582008167e-05
8.902072312e-06
5.552575675e-06
8.281701326e-06
1.277805393e-05
2.171464519e-05
3.282979644e-05
3.904598863e-05
3.282931177e-05
2.171390984e-05
1.277720573e-05
8.280840445e-06
1.162075886e-05
1.723764574e-05
2.79995756e-05
4.069619843e-05
4.733741604e-05
4.069532421e-05
2.799826399e-05
1.723621429e-05
1.161935881e-05
1.549824898e-05
2.212126612e-05
3.439312288e-05
4.820412914e-05
5.503633065e-05
4.820281681e-05
3.439113541e-05
2.211911855e-05
1.54961439e-05
1.981287314e-05
2.726665786e-05
4.067251895e-05
5.515156501e-05
6.199503327e-05
5.514979116e-05
4.066978065e-05
2.72636715e-05
1.980990789e-05
2.444909173e-05
3.25260912e-05
4.667957747e-05
6.143543306e-05
6.815788698e-05
6.143317537e-05
4.66760248e-05
3.252216425e-05
2.4445114e-05
2.928947305e-05
3.777486095e-05
5.231386404e-05
6.702397504e-05
7.353125761e-05
6.702122664e-05
5.230945797e-05
3.776990618e-05
2.92843651e-05
3.422279547e-05
4.291307563e-05
5.75204962e-05
7.193201548e-05
7.815962019e-05
7.192877536e-05
5.751525164e-05
4.290707198e-05
3.421648521e-05
3.914546701e-05
4.786102512e-05
6.227519235e-05
7.620013248e-05
8.210661146e-05
7.619642445e-05
6.226912375e-05
4.785398869e-05
3.913793981e-05
4.394600296e-05
5.254015827e-05
6.656132268e-05
7.98727033e-05
8.543634185e-05
7.986859878e-05
6.65545118e-05
5.253215833e-05
4.393731386e-05
4.842572616e-05
5.679832612e-05
7.03058029e-05
8.294901689e-05
8.8172672e-05
8.294456329e-05
7.029836345e-05
5.678947852e-05
4.841597884e-05
5.195043097e-05
6.009099831e-05
7.311771532e-05
8.518670525e-05
9.013265474e-05
8.518195901e-05
7.310974829e-05
6.008146611e-05
5.193972383e-05
)
;
    }
    bottom
    {
        type            calculated;
        value           nonuniform List<scalar> 
134
(
1.770281962e-06
3.424943192e-06
5.911200861e-06
7.777444196e-06
5.911166713e-06
3.424798583e-06
1.770052304e-06
1.031186311e-06
1.982834745e-06
3.371071885e-06
6.438626873e-06
1.093519749e-05
1.414733164e-05
1.093505417e-05
6.438293957e-06
3.370680261e-06
1.982389747e-06
3.462569917e-06
5.7428215e-06
1.063117381e-05
1.744937865e-05
2.193670901e-05
1.744909212e-05
1.063061185e-05
5.742222958e-06
3.461984934e-06
5.553168404e-06
8.902513358e-06
1.582025385e-05
2.492943458e-05
3.043528616e-05
2.49289708e-05
1.581942249e-05
8.901664216e-06
5.552382169e-06
8.281845536e-06
1.277818672e-05
2.171476191e-05
3.28297944e-05
3.904598663e-05
3.282912661e-05
2.171361211e-05
1.277702942e-05
8.280790866e-06
1.162098504e-05
1.723794432e-05
2.800001826e-05
4.069671942e-05
4.733808947e-05
4.069582296e-05
2.799850397e-05
1.723641492e-05
1.161958831e-05
1.549863494e-05
2.212183678e-05
3.439402621e-05
4.820533528e-05
5.503784458e-05
4.820419012e-05
3.439211247e-05
2.211987458e-05
1.54968208e-05
1.981352884e-05
2.726763938e-05
4.067405303e-05
5.515364884e-05
6.199759895e-05
5.515223208e-05
4.067170056e-05
2.726518466e-05
1.981122174e-05
2.44501422e-05
3.252764035e-05
4.668192039e-05
6.143858877e-05
6.816168389e-05
6.14368917e-05
4.667909867e-05
3.252463688e-05
2.444726748e-05
2.929106274e-05
3.777712848e-05
5.231719671e-05
6.702839575e-05
7.353650228e-05
6.702641262e-05
5.231388815e-05
3.77735316e-05
2.92875412e-05
3.422504874e-05
4.291621007e-05
5.752498239e-05
7.193786688e-05
7.816645689e-05
7.193559411e-05
5.752117475e-05
4.291199226e-05
3.422083402e-05
3.914849058e-05
4.78651247e-05
6.228092323e-05
7.620751387e-05
8.211513453e-05
7.620495412e-05
6.227663091e-05
4.786028329e-05
3.914354777e-05
4.394984313e-05
5.254526911e-05
6.656831463e-05
7.988160882e-05
8.544652631e-05
7.987879023e-05
6.656356936e-05
5.253981615e-05
4.394417619e-05
4.843040059e-05
5.68044264e-05
7.031400333e-05
8.295933751e-05
8.818439852e-05
8.295629948e-05
7.030884702e-05
5.679841143e-05
4.842403098e-05
5.195592929e-05
6.009806211e-05
7.312707623e-05
8.519835693e-05
9.014581201e-05
8.519510562e-05
7.312154111e-05
6.009155765e-05
5.194886514e-05
)
;
    }
    side-walls
    {
        type            calculated;
        value           nonuniform List<scalar> 
261
(
1.982834745e-06
3.371263121e-06
6.439046801e-06
1.093590618e-05
1.414814975e-05
1.093577532e-05
6.438860568e-06
3.371072102e-06
1.982691167e-06
3.462569917e-06
5.743021414e-06
1.063166313e-05
1.745026239e-05
2.193777366e-05
1.745007467e-05
1.06314269e-05
5.742812718e-06
3.462448251e-06
5.553168404e-06
8.902733528e-06
1.582082305e-05
2.493049557e-05
3.043661501e-05
2.493024359e-05
1.582052683e-05
8.902495653e-06
5.55305171e-06
8.281845536e-06
1.277843156e-05
2.171540926e-05
3.283103576e-05
3.904757733e-05
3.283070647e-05
2.171502775e-05
1.277813486e-05
8.281701326e-06
1.162098504e-05
1.723821497e-05
2.800074522e-05
4.069812917e-05
4.733993308e-05
4.069770625e-05
2.800023792e-05
1.723780871e-05
1.162075886e-05
1.549863494e-05
2.212213359e-05
3.439482611e-05
4.82068869e-05
5.503991042e-05
4.820634648e-05
3.439413901e-05
2.21215434e-05
1.549824898e-05
1.981352884e-05
2.726795729e-05
4.067491284e-05
5.515531091e-05
6.199982237e-05
5.515461475e-05
4.067397469e-05
2.726708797e-05
1.981287314e-05
2.44501422e-05
3.252796948e-05
4.668280713e-05
6.144030581e-05
6.816400597e-05
6.143941653e-05
4.668153486e-05
3.252671333e-05
2.444909173e-05
2.929106274e-05
3.777745736e-05
5.231807578e-05
6.703011328e-05
7.353883544e-05
6.702898023e-05
5.231639246e-05
3.777569798e-05
2.928947305e-05
3.422504874e-05
4.291652617e-05
5.752583012e-05
7.193951513e-05
7.816871689e-05
7.193809795e-05
5.752365841e-05
4.291416847e-05
3.422279547e-05
3.914849058e-05
4.786542453e-05
6.228171525e-05
7.620903927e-05
8.211725053e-05
7.620732259e-05
6.227899575e-05
4.786238513e-05
3.914546701e-05
4.394984313e-05
5.254554255e-05
6.656902801e-05
7.988299031e-05
8.544844316e-05
7.988095826e-05
6.656575306e-05
5.254179267e-05
4.394600296e-05
4.843040059e-05
5.680466619e-05
7.031463945e-05
8.296057678e-05
8.818610616e-05
8.295824853e-05
7.03108205e-05
5.680022398e-05
4.842572616e-05
5.195592929e-05
6.009827901e-05
7.312764332e-05
8.519945791e-05
9.014732515e-05
8.519686549e-05
7.312333747e-05
6.009322172e-05
5.195043097e-05
1.031186311e-06
1.770063951e-06
3.424815576e-06
5.911171556e-06
7.777449871e-06
5.911115172e-06
3.424811169e-06
1.770130517e-06
1.031318619e-06
1.982389747e-06
3.370687329e-06
6.438273031e-06
1.093491675e-05
1.414705558e-05
1.093480127e-05
6.438250924e-06
3.370799708e-06
1.982596866e-06
3.461984934e-06
5.742213413e-06
1.063049841e-05
1.744867734e-05
2.193593469e-05
1.744846488e-05
1.063040178e-05
5.742319908e-06
3.46222023e-06
5.552382169e-06
8.901620698e-06
1.581915368e-05
2.492814219e-05
3.043382454e-05
2.492779781e-05
1.581890779e-05
8.901642147e-06
5.552575675e-06
8.280790866e-06
1.277692693e-05
2.171311506e-05
3.28277654e-05
3.904368931e-05
3.282724493e-05
2.171263709e-05
1.277676156e-05
8.280840445e-06
1.161958831e-05
1.723622687e-05
2.79977163e-05
4.069382538e-05
4.733483865e-05
4.069309232e-05
2.799690948e-05
1.723575461e-05
1.161935881e-05
1.54968208e-05
2.211956831e-05
3.43909544e-05
4.820145511e-05
5.503353462e-05
4.820046452e-05
3.438972279e-05
2.211864477e-05
1.54961439e-05
1.981122174e-05
2.726472213e-05
4.067009858e-05
5.514867334e-05
6.199209667e-05
5.514737297e-05
4.066833921e-05
2.726319201e-05
1.980990789e-05
2.444726748e-05
3.252398422e-05
4.667699e-05
6.14324173e-05
6.815488136e-05
6.143075264e-05
4.66745824e-05
3.252168973e-05
2.4445114e-05
2.92875412e-05
3.77726547e-05
5.231120552e-05
6.702093708e-05
7.35282946e-05
6.701884876e-05
5.230805986e-05
3.776945164e-05
2.92843651e-05
3.422083402e-05
4.291086354e-05
5.751787647e-05
7.192905639e-05
7.81567748e-05
7.192652281e-05
5.75139201e-05
4.290663744e-05
3.421648521e-05
3.914354777e-05
4.785888444e-05
6.227269336e-05
7.619734759e-05
8.210396065e-05
7.619435451e-05
6.22678995e-05
4.785358799e-05
3.913793981e-05
4.394417619e-05
5.253815312e-05
6.655899872e-05
7.98701624e-05
8.543394781e-05
7.986672711e-05
6.655341151e-05
5.253180571e-05
4.393731386e-05
4.842403098e-05
5.679647915e-05
7.030369565e-05
8.294673528e-05
8.817054633e-05
8.29429131e-05
7.029738421e-05
5.678917157e-05
4.841597884e-05
5.194886514e-05
6.00892929e-05
7.311580049e-05
8.518465549e-05
9.013076418e-05
8.51804844e-05
7.310888446e-05
6.008119409e-05
5.193972383e-05
)
;
    }
    inlet
    {
        type            calculated;
        value           nonuniform 0();
    }
    outlet
    {
        type            calculated;
        value           nonuniform List<scalar> 
81
(
5.195592929e-05
6.009827901e-05
7.312764332e-05
8.519945791e-05
9.014732515e-05
8.519686549e-05
7.312333747e-05
6.009322172e-05
5.195043097e-05
6.009806211e-05
7.033686099e-05
8.684347499e-05
0.0001022816493
0.0001086573151
0.0001022782569
8.683790548e-05
7.033044191e-05
6.009099831e-05
7.312707623e-05
8.684307627e-05
0.0001091530969
0.0001302565533
0.0001390538199
0.0001302520186
0.0001091456168
8.683449348e-05
7.311771532e-05
8.519835693e-05
0.0001022806639
0.0001302559697
0.0001569529777
0.0001681703786
0.0001569472343
0.0001302465087
0.0001022699112
8.518670525e-05
9.014581201e-05
0.0001086558435
0.00013905253
0.0001681695156
0.0001804781449
0.0001681629555
0.0001390418187
0.0001086436856
9.013265474e-05
8.519510562e-05
0.0001022764225
0.0001302501732
0.0001569456091
0.0001681619453
0.0001569391321
0.0001302395649
0.0001022643563
8.518195901e-05
7.312154111e-05
8.683597431e-05
0.0001091435819
0.0001302445106
0.0001390402905
0.0001302388127
0.0001091342218
8.682525356e-05
7.310974829e-05
6.009155765e-05
7.032860954e-05
8.683248117e-05
0.0001022678489
0.0001086418962
0.0001022631188
8.682466729e-05
7.031951317e-05
6.008146611e-05
5.194886514e-05
6.00892929e-05
7.311580049e-05
8.518465549e-05
9.013076418e-05
8.51804844e-05
7.310888446e-05
6.008119409e-05
5.193972383e-05
)
;
    }
    procBoundary1to0
    {
        type            processor;
        value           nonuniform List<scalar> 
97
(
1.03132595e-06
1.03132595e-06
1.770123826e-06
3.424742034e-06
5.910875075e-06
7.77694339e-06
5.910771261e-06
3.424588881e-06
1.769950823e-06
1.031132782e-06
8.239388526e-07