/*--------------------------------*- C++ -*----------------------------------*\
| =========                 |                                                 |
| \\      /  F ield         | OpenFOAM: The Open Source CFD Toolbox           |
|  \\    /   O peration     | Version:  4.x                                   |
|   \\  /    A nd           | Web:      www.OpenFOAM.org                      |
|    \\/     M anipulation  |                                                 |
\*---------------------------------------------------------------------------*/
FoamFile
{
    version     2.0;
    format      ascii;
    class       volScalarField;
    location    "9000";
    object      CO;
}
// * * * * * * * * * * * * * * * * * * * * * * * * * * * * * * * * * * * * * //

dimensions      [0 0 0 0 0 0 0];

internalField   nonuniform List<scalar> 
1174
(
0.3999978995
0.3999963321
0.3999941186
0.3999912316
0.3999877018
0.3999836076
0.3999790584
0.3999741785
0.3999690937
0.3999639226
0.3999587745
0.3999537657
0.3999491014
0.3999454368
0.3999964258
0.3999939116
0.3999905637
0.3999864599
0.3999817423
0.3999765826
0.399971155
0.3999656181
0.3999601055
0.3999547235
0.3999495559
0.3999446834
0.3999402614
0.3999368486
0.3999931687
0.3999887216
0.3999832199
0.3999769744
0.3999703215
0.3999635628
0.399956937
0.3999506138
0.3999447008
0.3999392564
0.3999343051
0.3999298613
0.3999259956
0.3999231017
0.3999883936
0.3999814814
0.3999735479
0.3999651744
0.399956845
0.399948907
0.3999415771
0.3999349667
0.3999291103
0.399923992
0.3999195671
0.3999157849
0.3999126381
0.3999103614
0.3999849821
0.3999767158
0.3999677011
0.3999585741
0.3999497945
0.3999416553
0.3999343156
0.3999278362
0.3999222113
0.3999173935
0.3999133133
0.399909899
0.3999071169
0.3999051379
0.3999883937
0.3999814816
0.3999735481
0.3999651746
0.3999568452
0.3999489073
0.3999415775
0.3999349671
0.3999291107
0.3999239925
0.3999195677
0.3999157855
0.3999126388
0.3999103621
0.3999931688
0.3999887217
0.3999832201
0.3999769747
0.3999703219
0.3999635633
0.3999569375
0.3999506144
0.3999447015
0.3999392572
0.3999343059
0.3999298623
0.3999259966
0.3999231029
0.3999964259
0.3999939117
0.3999905638
0.3999864602
0.3999817426
0.399976583
0.3999711555
0.3999656188
0.3999601063
0.3999547244
0.3999495569
0.3999446846
0.3999402627
0.39993685
0.3999978996
0.3999963322
0.3999941188
0.3999912317
0.399987702
0.3999836079
0.3999790588
0.399974179
0.3999690944
0.3999639234
0.3999587755
0.3999537669
0.3999491027
0.3999454382
0.3999981232
0.3999964258
0.3999939116
0.3999905637
0.39998646
0.3999817424
0.3999765826
0.399971155
0.3999656182
0.3999601056
0.3999547236
0.3999495559
0.3999446835
0.3999402615
0.3999368487
0.3999931009
0.3999886829
0.3999832966
0.3999772663
0.3999709177
0.3999645249
0.3999582915
0.3999523534
0.3999467908
0.399941643
0.399936924
0.3999326458
0.3999288836
0.3999260419
0.399984731
0.3999761412
0.3999668075
0.399957521
0.3999488231
0.3999410083
0.3999341829
0.3999283319
0.3999233737
0.3999191983
0.3999156922
0.3999127573
0.399910347
0.3999086142
0.3999698459
0.3999555563
0.3999419747
0.3999301179
0.3999203391
0.3999125897
0.3999066263
0.3999021417
0.3998988347
0.399896441
0.3998947424
0.3998935654
0.3998927784
0.3998923098
0.3999557936
0.3999385966
0.3999240362
0.3999124934
0.3999037365
0.3998973173
0.3998927594
0.3998896359
0.3998875928
0.3998863484
0.3998856838
0.399885429
0.3998854428
0.3998855742
0.3999698463
0.3999555567
0.3999419753
0.3999301185
0.3999203398
0.3999125905
0.3999066271
0.3999021425
0.3998988355
0.3998964419
0.3998947433
0.3998935663
0.3998927793
0.3998923107
0.3999847313
0.3999761416
0.399966808
0.3999575216
0.3999488238
0.3999410091
0.3999341839
0.399928333
0.3999233748
0.3999191995
0.3999156935
0.3999127587
0.3999103485
0.3999086157
0.3999931011
0.3999886831
0.3999832968
0.3999772667
0.3999709182
0.3999645255
0.3999582922
0.3999523543
0.3999467919
0.3999416441
0.3999369253
0.3999326473
0.3999288852
0.3999260436
0.3999964259
0.3999939117
0.3999905638
0.3999864602
0.3999817427
0.3999765831
0.3999711556
0.399965619
0.3999601065
0.3999547247
0.3999495572
0.399944685
0.3999402631
0.3999368505
0.3999963664
0.3999931688
0.3999887217
0.39998322
0.3999769746
0.3999703217
0.399963563
0.3999569371
0.3999506139
0.3999447009
0.3999392565
0.3999343052
0.3999298614
0.3999259957
0.3999231018
0.399991668
0.3999847311
0.3999761412
0.3999668076
0.3999575211
0.3999488231
0.3999410083
0.399934183
0.399928332
0.3999233737
0.3999191983
0.3999156923
0.3999127574
0.3999103471
0.3999086143
0.3999599897
0.3999418578
0.3999254473
0.3999120007
0.3999017717
0.3998944625
0.3998895497
0.3998864783
0.3998847537
0.3998839738
0.3998838296
0.3998840887
0.3998845647
0.3998850423
0.3999049236
0.3998742897
0.3998531789
0.3998407319
0.3998348996
0.3998336176
0.3998352212
0.399838505
0.3998426515
0.3998471327
0.3998516192
0.3998558994
0.3998597722
0.3998627387
0.3998327572
0.3998022787
0.399789223
0.3997869594
0.3997907529
0.3997976237
0.3998058066
0.3998142978
0.3998225504
0.3998302846
0.399837371
0.3998437458
0.399849291
0.3998534385
0.3999049252
0.3998742913
0.3998531804
0.3998407335
0.3998349011
0.3998336191
0.3998352227
0.3998385064
0.3998426529
0.3998471341
0.3998516204
0.3998559007
0.3998597734
0.39986274
0.3999599909
0.3999418589
0.3999254486
0.3999120021
0.3999017733
0.3998944641
0.3998895515
0.3998864802
0.3998847556
0.3998839758
0.3998838316
0.3998840907
0.3998845667
0.3998850443
0.3999847313
0.3999761416
0.3999668081
0.3999575218
0.3999488241
0.3999410095
0.3999341844
0.3999283335
0.3999233755
0.3999192002
0.3999156943
0.3999127595
0.3999103493
0.3999086166
0.3999931688
0.3999887218
0.3999832202
0.3999769749
0.3999703222
0.3999635637
0.3999569381
0.3999506151
0.3999447024
0.3999392582
0.399934307
0.3999298635
0.3999259979
0.3999231042
0.3999937262
0.3999883938
0.3999814817
0.3999735482
0.3999651747
0.3999568453
0.3999489073
0.3999415775
0.399934967
0.3999291106
0.3999239923
0.3999195674
0.3999157852
0.3999126384
0.3999103617
0.399982994
0.3999698464
0.3999555568
0.3999419753
0.3999301184
0.3999203396
0.3999125902
0.3999066267
0.3999021421
0.399898835
0.3998964414
0.3998947427
0.3998935656
0.3998927787
0.39989231
0.3999423227
0.3999049243
0.3998742903
0.3998531794
0.3998407323
0.3998348999
0.3998336179
0.3998352215
0.3998385052
0.3998426517
0.3998471329
0.3998516193
0.3998558995
0.3998597723
0.3998627388
0.3997160237
0.399677436
0.399671077
0.3996821778
0.3997010698
0.3997222964
0.3997430919
0.3997622238
0.3997792679
0.3997941961
0.3998071495
0.3998182994
0.3998276677
0.3998345115
0.39934509
0.3993935182
0.399467955
0.3995393291
0.3995999762
0.3996494477
0.3996893519
0.3997215836
0.3997477948
0.3997692941
0.3997870753
0.3998018494
0.3998139506
0.3998226485
0.399716029
0.3996774397
0.3996710802
0.3996821807
0.3997010725
0.3997222989
0.3997430943
0.3997622259
0.3997792699
0.399794198
0.3998071513
0.399818301
0.3998276693
0.399834513
0.3999049249
0.3998742915
0.3998531812
0.3998407346
0.3998349024
0.3998336206
0.3998352243
0.399838508
0.3998426545
0.3998471357
0.399851622
0.3998559022
0.3998597749
0.3998627414
0.3999698462
0.3999555568
0.3999419757
0.3999301192
0.3999203409
0.3999125917
0.3999066286
0.3999021442
0.3998988373
0.3998964438
0.3998947453
0.3998935683
0.3998927814
0.3998923128
0.3999883936
0.3999814816
0.3999735483
0.3999651751
0.3999568459
0.3999489082
0.3999415787
0.3999349686
0.3999291124
0.3999239944
0.3999195697
0.3999157877
0.3999126411
0.3999103646
0.3999917441
0.3999849824
0.3999767161
0.3999677015
0.3999585745
0.3999497949
0.3999416557
0.399934316
0.3999278366
0.3999222117
0.3999173939
0.3999133137
0.3999098994
0.3999071173
0.3999051383
0.3999739358
0.3999557942
0.3999385972
0.3999240368
0.399912494
0.3999037371
0.3998973179
0.39989276
0.3998896365
0.3998875933
0.3998863489
0.3998856843
0.3998854294
0.3998854432
0.3998855746
0.399886922
0.399832758
0.3998022797
0.399789224
0.3997869602
0.3997907537
0.3997976244
0.3998058072
0.3998142984
0.3998225509
0.3998302851
0.3998373715
0.3998437462
0.3998492913
0.3998534388
0.3994110944
0.3993450937
0.3993935208
0.3994679569
0.3995393306
0.3995999774
0.3996494487
0.3996893527
0.3997215843
0.3997477954
0.3997692945
0.3997870757
0.3998018498
0.399813951
0.3998226488
0.397747832
0.3985605253
0.3990105762
0.3992740444
0.3994372273
0.399543972
0.3996174081
0.3996702264
0.3997096767
0.3997400716
0.3997640728
0.399783343
0.3997987405
0.3998096356
0.3993450885
0.3993935226
0.3994679607
0.3995393348
0.3995999814
0.3996494524
0.399689356
0.3997215873
0.3997477981
0.399769297
0.3997870779
0.3998018519
0.3998139529
0.3998226506
0.3998327563
0.39980228
0.3997892257
0.3997869629
0.3997907568
0.3997976278
0.3998058107
0.3998143018
0.3998225542
0.3998302883
0.3998373746
0.3998437493
0.3998492943
0.3998534417
0.3999557934
0.399938597
0.3999240373
0.399912495
0.3999037387
0.3998973199
0.3998927623
0.399889639
0.3998875961
0.3998863518
0.3998856872
0.3998854324
0.3998854463
0.3998855777
0.399984982
0.3999767159
0.3999677015
0.3999585749
0.3999497957
0.3999416568
0.3999343175
0.3999278385
0.3999222139
0.3999173963
0.3999133164
0.3999099022
0.3999071203
0.3999051416
0.3999937262
0.3999883939
0.3999814818
0.3999735484
0.3999651749
0.3999568456
0.3999489076
0.3999415779
0.3999349675
0.3999291112
0.3999239929
0.3999195681
0.3999157859
0.3999126392
0.3999103626
0.3999829942
0.3999698467
0.3999555573
0.3999419759
0.3999301191
0.3999203404
0.399912591
0.3999066276
0.399902143
0.3998988361
0.3998964424
0.3998947438
0.3998935668
0.3998927798
0.3998923112
0.3999423247
0.3999049262
0.3998742924
0.3998531815
0.3998407345
0.399834902
0.3998336199
0.3998352235
0.3998385071
0.3998426536
0.3998471347
0.399851621
0.3998559012
0.3998597739
0.3998627404
0.3998026808
0.3997160321
0.3996774425
0.3996710824
0.3996821826
0.3997010741
0.3997223002
0.3997430954
0.3997622268
0.3997792707
0.3997941987
0.3998071519
0.3998183016
0.3998276698
0.3998345135
0.3994110935
0.3993450941
0.3993935262
0.3994679632
0.3995393366
0.3995999828
0.3996494535
0.3996893568
0.399721588
0.3997477987
0.3997692975
0.3997870784
0.3998018522
0.3998139532
0.3998226509
0.3998026797
0.3997160326
0.3996774442
0.3996710849
0.3996821854
0.3997010769
0.3997223029
0.399743098
0.3997622293
0.399779273
0.3997942008
0.3998071539
0.3998183035
0.3998276716
0.3998345152
0.3999049235
0.3998742918
0.3998531824
0.3998407363
0.3998349045
0.3998336228
0.3998352265
0.3998385102
0.3998426566
0.3998471377
0.399851624
0.3998559041
0.3998597767
0.3998627432
0.3999698457
0.3999555567
0.3999419759
0.3999301198
0.3999203416
0.3999125927
0.3999066297
0.3999021454
0.3998988386
0.3998964451
0.3998947466
0.3998935697
0.3998927828
0.3998923142
0.3999883935
0.3999814815
0.3999735483
0.3999651752
0.3999568462
0.3999489086
0.3999415793
0.3999349692
0.3999291132
0.3999239953
0.3999195707
0.3999157887
0.3999126422
0.3999103657
0.3999963664
0.399993169
0.399988722
0.3999832203
0.399976975
0.3999703222
0.3999635637
0.399956938
0.3999506148
0.399944702
0.3999392577
0.3999343064
0.3999298628
0.3999259971
0.3999231034
0.3999916684
0.3999847316
0.3999761419
0.3999668084
0.3999575221
0.3999488243
0.3999410096
0.3999341844
0.3999283335
0.3999233753
0.3999192
0.3999156941
0.3999127592
0.399910349
0.3999086162
0.3999772813
0.3999599915
0.3999418596
0.3999254493
0.3999120028
0.399901774
0.3998944648
0.3998895522
0.3998864809
0.3998847562
0.3998839764
0.3998838322
0.3998840913
0.3998845673
0.3998850449
0.3999423246
0.3999049264
0.399874293
0.3998531825
0.3998407358
0.3998349036
0.3998336216
0.3998352253
0.3998385089
0.3998426553
0.3998471364
0.3998516227
0.3998559028
0.3998597755
0.399862742
0.3998869218
0.3998327593
0.3998022825
0.3997892278
0.3997869645
0.3997907582
0.3997976289
0.3998058117
0.3998143026
0.399822555
0.399830289
0.3998373752
0.3998437498
0.3998492947
0.3998534421
0.3999423249
0.399904927
0.3998742941
0.3998531839
0.3998407374
0.3998349053
0.3998336234
0.399835227
0.3998385106
0.399842657
0.3998471381
0.3998516243
0.3998559044
0.399859777
0.3998627435
0.3999772807
0.3999599911
0.3999418597
0.3999254499
0.3999120039
0.3999017755
0.3998944667
0.3998895543
0.3998864831
0.3998847585
0.3998839787
0.3998838345
0.3998840937
0.3998845696
0.3998850473
0.3999847309
0.3999761416
0.3999668084
0.3999575224
0.399948825
0.3999410107
0.3999341858
0.3999283352
0.3999233772
0.3999192021
0.3999156963
0.3999127616
0.3999103515
0.3999086189
0.3999931687
0.3999887217
0.3999832202
0.3999769751
0.3999703226
0.3999635643
0.3999569389
0.3999506161
0.3999447036
0.3999392595
0.3999343085
0.3999298651
0.3999259997
0.3999231061
0.3999981233
0.399996426
0.3999939118
0.399990564
0.3999864604
0.3999817429
0.3999765833
0.3999711558
0.3999656191
0.3999601067
0.3999547248
0.3999495573
0.399944685
0.3999402631
0.3999368505
0.3999963201
0.3999931013
0.3999886833
0.3999832971
0.399977267
0.3999709186
0.3999645259
0.3999582926
0.3999523548
0.3999467923
0.3999416446
0.3999369258
0.3999326478
0.3999288857
0.3999260441
0.3999916684
0.3999847316
0.399976142
0.3999668086
0.3999575223
0.3999488246
0.3999410101
0.3999341849
0.3999283341
0.399923376
0.3999192008
0.3999156948
0.3999127601
0.3999103499
0.3999086171
0.3999829941
0.3999698469
0.3999555577
0.3999419766
0.3999301201
0.3999203417
0.3999125926
0.3999066294
0.399902145
0.3998988381
0.3998964445
0.3998947459
0.3998935689
0.399892782
0.3998923134
0.3999739357
0.3999557946
0.3999385983
0.3999240385
0.3999124962
0.3999037398
0.3998973209
0.3998927632
0.3998896399
0.3998875968
0.3998863525
0.3998856879
0.399885433
0.3998854469
0.3998855783
0.3999829942
0.3999698471
0.399955558
0.3999419771
0.3999301208
0.3999203425
0.3999125935
0.3999066304
0.399902146
0.3998988392
0.3998964456
0.3998947471
0.3998935701
0.3998927832
0.3998923146
0.3999916684
0.3999847316
0.3999761422
0.3999668089
0.3999575229
0.3999488255
0.3999410111
0.3999341862
0.3999283355
0.3999233776
0.3999192024
0.3999156966
0.3999127619
0.3999103517
0.3999086191
0.39999632
0.3999931011
0.3999886833
0.3999832972
0.3999772673
0.3999709191
0.3999645266
0.3999582936
0.3999523559
0.3999467937
0.3999416462
0.3999369275
0.3999326497
0.3999288878
0.3999260463
0.3999964258
0.3999939117
0.399990564
0.3999864605
0.3999817431
0.3999765837
0.3999711565
0.3999656201
0.3999601079
0.3999547263
0.399949559
0.399944687
0.3999402653
0.3999368528
0.3999989076
0.3999978997
0.3999963323
0.3999941189
0.3999912319
0.3999877023
0.3999836082
0.3999790591
0.3999741794
0.3999690947
0.3999639238
0.3999587759
0.3999537673
0.3999491031
0.3999454387
0.3999981233
0.399996426
0.3999939118
0.399990564
0.3999864604
0.3999817429
0.3999765834
0.399971156
0.3999656193
0.3999601069
0.3999547251
0.3999495577
0.3999446854
0.3999402636
0.399936851
0.3999963664
0.399993169
0.399988722
0.3999832205
0.3999769752
0.3999703226
0.3999635641
0.3999569386
0.3999506156
0.3999447029
0.3999392587
0.3999343075
0.399929864
0.3999259984
0.3999231048
0.3999937262
0.399988394
0.3999814821
0.3999735488
0.3999651756
0.3999568466
0.3999489089
0.3999415794
0.3999349692
0.3999291131
0.3999239951
0.3999195704
0.3999157883
0.3999126417
0.3999103652
0.3999917441
0.3999849826
0.3999767166
0.3999677023
0.3999585757
0.3999497965
0.3999416577
0.3999343183
0.3999278393
0.3999222147
0.3999173971
0.3999133171
0.3999099029
0.399907121
0.3999051422
0.3999937262
0.3999883941
0.3999814822
0.3999735491
0.399965176
0.399956847
0.3999489094
0.39994158
0.39993497
0.3999291139
0.3999239959
0.3999195713
0.3999157893
0.3999126427
0.3999103662
0.3999963664
0.3999931691
0.3999887221
0.3999832207
0.3999769756
0.3999703231
0.3999635648
0.3999569394
0.3999506166
0.399944704
0.3999392599
0.3999343089
0.3999298655
0.399926
0.3999231064
0.3999981233
0.3999964259
0.3999939119
0.3999905641
0.3999864606
0.3999817433
0.3999765839
0.3999711567
0.3999656202
0.399960108
0.3999547264
0.3999495591
0.3999446871
0.3999402654
0.3999368529
0.3999989076
0.3999978996
0.3999963323
0.3999941189
0.399991232
0.3999877025
0.3999836086
0.3999790597
0.3999741801
0.3999690957
0.399963925
0.3999587774
0.399953769
0.399949105
0.3999454408
)
;

boundaryField
{
    top
    {
        type            zeroGradient;
    }
    bottom
    {
        type            zeroGradient;
    }
    side-walls
    {
        type            zeroGradient;
    }
    inlet
    {
        type            zeroGradient;
    }
    outlet
    {
        type            zeroGradient;
    }
    procBoundary1to0
    {
        type            processor;
        value           nonuniform List<scalar> 
97
(
0.3999989076
0.3999989076
0.3999981233
0.3999963665
0.3999937264
0.3999917444
0.3999937264
0.3999963666
0.3999981234
0.3999989077
0.3999991266
0.39999632
0.39999632
0.39999632
0.3999916684
0.3999829946
0.3999739369
0.3999829949
0.3999916687
0.3999963203
0.3999981234
0.3999983311
0.3999962704
0.3999772806
0.3999772806
0.3999772806
0.3999423256
0.3998869279
0.3999423274
0.3999772824
0.3999916687
0.3999963666
0.3999971649
0.3999926352
0.3999767812
0.3998026786
0.3998026786
0.3998026786
0.3994111306
0.3998026899
0.3999423272
0.3999829948
0.3999937264
0.3999963316
0.3999892029
0.3999591566
0.3998401191
0.3961976293
0.3961976293
0.3961976293
0.3994111266
0.3994111266
0.3998869268
0.3999739366
0.3999917443
0.3999971649
0.3999926352
0.3999767809
0.3999306592
0.3998401167
0.3999306603
0.3999423235
0.3999423235
0.3999423235
0.3999829942
0.3999937262
0.3999983311
0.3999962704
0.3999902283
0.3999767808
0.3999591562
0.3999767811
0.3999902284
0.3999916681
0.3999916681
0.3999916681
0.3999963664
0.3999991266
0.3999983146
0.3999962704
0.3999926351
0.3999892028
0.3999926352
0.3999962705
0.3999983146
0.3999981232
0.3999981232
0.3999981232
0.3999994865
0.3999991266
0.3999983311
0.3999971649
0.3999963316
0.3999971649
0.3999983311
0.3999991266
0.3999994865
)
;
    }
}


// ************************************************************************* //
