/*--------------------------------*- C++ -*----------------------------------*\
| =========                 |                                                 |
| \\      /  F ield         | OpenFOAM: The Open Source CFD Toolbox           |
|  \\    /   O peration     | Version:  4.x                                   |
|   \\  /    A nd           | Web:      www.OpenFOAM.org                      |
|    \\/     M anipulation  |                                                 |
\*---------------------------------------------------------------------------*/
FoamFile
{
    version     2.0;
    format      ascii;
    class       volScalarField;
    location    "9000";
    object      CO2;
}
// * * * * * * * * * * * * * * * * * * * * * * * * * * * * * * * * * * * * * //

dimensions      [0 0 0 0 0 0 0];

internalField   nonuniform List<scalar> 
1174
(
2.68785048e-06
4.693141711e-06
7.524927238e-06
1.121852208e-05
1.573436503e-05
2.097239029e-05
2.679266723e-05
3.303615778e-05
3.954186104e-05
4.615814348e-05
5.274506531e-05
5.91539372e-05
6.512226921e-05
6.981139734e-05
4.573320194e-06
7.789780939e-06
1.207285038e-05
1.732289009e-05
2.335843894e-05
2.995968574e-05
3.690371233e-05
4.398770383e-05
5.104080944e-05
5.792700895e-05
6.453911852e-05
7.077367233e-05
7.643207523e-05
8.079908114e-05
8.740028398e-06
1.44292074e-05
2.146759066e-05
2.945749289e-05
3.796882443e-05
4.661567112e-05
5.509272988e-05
6.318287489e-05
7.074835565e-05
7.771456359e-05
8.405011808e-05
8.973639336e-05
9.468326187e-05
9.83864561e-05
1.484862827e-05
2.369114891e-05
3.384039362e-05
4.45527122e-05
5.520886283e-05
6.536448302e-05
7.474232076e-05
8.320005495e-05
9.069332907e-05
9.724247709e-05
0.0001029046818
0.0001077448376
0.0001117720087
0.0001146857715
1.921262442e-05
2.978733998e-05
4.13196599e-05
5.299588868e-05
6.42280216e-05
7.464111677e-05
8.403166545e-05
9.232176123e-05
9.951890747e-05
0.0001056837618
0.0001109050167
0.0001152745883
0.0001188352917
0.000121368208
1.484848494e-05
2.369093281e-05
3.384009817e-05
4.455232564e-05
5.520835707e-05
6.536385422e-05
7.474157429e-05
8.319916887e-05
9.06923165e-05
9.724134378e-05
0.0001029034612
0.0001077435155
0.0001117705861
0.0001146842519
8.739834689e-06
1.442895022e-05
2.146724539e-05
2.945702791e-05
3.796820413e-05
4.661487148e-05
5.509172227e-05
6.318164292e-05
7.074688587e-05
7.771286609e-05
8.404821819e-05
8.973427423e-05
9.468095012e-05
9.838397492e-05
4.573131464e-06
7.789552413e-06
1.207255774e-05
1.732249381e-05
2.335789498e-05
2.995894671e-05
3.690274508e-05
4.39864748e-05
5.103930121e-05
5.792521085e-05
6.453702097e-05
7.077127565e-05
7.642938507e-05
8.079614481e-05
2.687716313e-06
4.692998434e-06
7.524746293e-06
1.121826728e-05
1.573399017e-05
2.097184739e-05
2.679190667e-05
3.303512909e-05
3.954052395e-05
4.615647732e-05
5.274303999e-05
5.915153948e-05
6.511949404e-05
6.980823315e-05
2.40166809e-06
4.573191645e-06
7.789658463e-06
1.207272919e-05
1.732276504e-05
2.335831237e-05
2.995955226e-05
3.690358292e-05
4.398756925e-05
5.104067824e-05
5.792688091e-05
6.453898863e-05
7.0773547e-05
7.643195423e-05
8.079896027e-05
8.826850762e-06
1.447872566e-05
2.136946977e-05
2.908408744e-05
3.720609257e-05
4.538497057e-05
5.336002595e-05
6.095741035e-05
6.807462741e-05
7.466145631e-05
8.069975859e-05
8.617414512e-05
9.098852658e-05
9.462507852e-05
1.953423384e-05
3.052276289e-05
4.246309713e-05
5.434331993e-05
6.547089941e-05
7.546899622e-05
8.420156686e-05
9.168784229e-05
9.803220741e-05
0.000103375214
0.0001078620528
0.0001116182702
0.000114703313
0.000116921293
3.85754363e-05
5.685523268e-05
7.422956713e-05
8.939808251e-05
0.0001019085507
0.0001118233055
0.0001194535491
0.0001251921746
0.0001294244333
0.0001324883979
0.0001346632389
0.0001361708603
0.0001371793409
0.0001377802222
5.65504849e-05
7.854942e-05
9.717612217e-05
0.0001119431584
0.0001231466018
0.0001313599337
0.0001371923325
0.0001411899032
0.0001438054958
0.0001453993592
0.0001462515367
0.000146579541
0.0001465636398
0.0001463968997
3.857476021e-05
5.685441011e-05
7.422858962e-05
8.939695451e-05
0.000101907259
0.0001118218706
0.0001194519992
0.0001251905393
0.0001294226863
0.0001324865845
0.0001346613742
0.0001361689343
0.000137177368
0.0001377781804
1.953356885e-05
3.052203109e-05
4.246222438e-05
5.434223021e-05
6.54695486e-05
7.546737816e-05
8.419967837e-05
9.168569004e-05
9.8029805e-05
0.0001033725866
0.0001078592555
0.000111615286
0.0001147001802
0.0001169180235
8.826459395e-06
1.447834744e-05
2.136900724e-05
2.908345389e-05
3.720521421e-05
4.538379532e-05
5.335852056e-05
6.095556507e-05
6.807243473e-05
7.465892538e-05
8.069691466e-05
8.617098155e-05
9.098507214e-05
9.462136413e-05
4.573145307e-06
7.789553271e-06
1.207252847e-05
1.732241601e-05
2.335774965e-05
2.995871502e-05
3.690241424e-05
4.398603398e-05
5.103874634e-05
5.792453605e-05
6.453622621e-05
7.077037033e-05
7.642836918e-05
8.079496929e-05
4.649188028e-06
8.73973687e-06
1.442890751e-05
2.146728595e-05
2.945718849e-05
3.796851721e-05
4.661536946e-05
5.509243102e-05
6.318256945e-05
7.074804758e-05
7.771426192e-05
8.404982511e-05
8.973610213e-05
9.46829799e-05
9.838619019e-05
1.065985894e-05
1.953388048e-05
3.052249578e-05
4.246287304e-05
5.43431206e-05
6.547070787e-05
7.54688133e-05
8.420139138e-05
9.168767674e-05
9.80320389e-05
0.0001033750207
0.0001078618681
0.0001116180793
0.0001147031376
0.000116921133
5.118417047e-05
7.437874664e-05
9.537177532e-05
0.0001125740216
0.0001256605018
0.0001350123544
0.000141298672
0.0001452296081
0.0001474378358
0.0001484374652
0.0001486239233
0.0001482944013
0.0001476873647
0.000147077722
0.0001216238622
0.000160810657
0.0001878167913
0.0002037408084
0.0002112038445
0.0002128462455
0.0002107973001
0.0002065991658
0.0002012972531
0.0001955670814
0.000189830173
0.0001843568863
0.0001794046404
0.0001756111082
0.0002139335028
0.0002529224231
0.0002696256941
0.0002725244422
0.0002676749234
0.0002588888781
0.0002484242403
0.0002375650192
0.0002270108915
0.0002171196247
0.0002080568891
0.0001999042789
0.0001928127782
0.000187508571
0.000121620992
0.000160807888
0.0001878139794
0.000203737907
0.0002112008617
0.0002128432149
0.0002107942801
0.0002065961712
0.0002012942901
0.0001955641515
0.0001898273081
0.0001843540473
0.0001794018652
0.0001756083548
5.118200032e-05
7.437675867e-05
9.536957483e-05
0.000112571437
0.0001256574973
0.0001350089974
0.0001412949891
0.0001452256821
0.0001474337164
0.0001484332312
0.000148619593
0.0001482900218
0.0001476829501
0.0001470732556
1.953359829e-05
3.052195213e-05
4.24619751e-05
5.434178016e-05
6.546886382e-05
7.546646657e-05
8.419856047e-05
9.168439388e-05
9.802835644e-05
0.0001033710067
0.0001078575517
0.000111613488
0.0001146983018
0.0001169160742
8.739854222e-06
1.442889196e-05
2.146704764e-05
2.945662355e-05
3.796754109e-05
4.661391674e-05
5.509046509e-05
6.318007714e-05
7.074503003e-05
7.77107439e-05
8.404582415e-05
8.973164648e-05
9.467811402e-05
9.838088425e-05
8.026692978e-06
1.484808041e-05
2.369052487e-05
3.383971739e-05
4.455200392e-05
5.520813558e-05
6.53637516e-05
7.474158444e-05
8.319932123e-05
9.069260621e-05
9.724177531e-05
0.0001029040157
0.0001077441835
0.0001117713848
0.0001146851616
2.175571083e-05
3.857434935e-05
5.685413571e-05
7.422849237e-05
8.939705095e-05
0.0001019075727
0.0001118223775
0.0001194526911
0.0001251913739
0.0001294236824
0.0001324876883
0.0001346625947
0.0001361702569
0.0001371787601
0.0001377796833
7.378311696e-05
0.0001216219859
0.0001608092669
0.0001878156771
0.0002037398914
0.0002112030885
0.0002128455788
0.000210796725
0.0002065986597
0.0002012968072
0.0001955666559
0.0001898297938
0.0001843565324
0.0001794043196
0.0001756108348
0.0003632567311
0.0004126172621
0.0004207545724
0.0004065585983
0.0003823963532
0.0003552474657
0.0003286495506
0.0003041794337
0.0002823795317
0.0002632859438
0.0002467182816
0.0002324575183
0.0002204754405
0.0002117221337
0.0008377189413
0.0007757803226
0.0006805728236
0.0005892812342
0.0005117096774
0.0004484321937
0.0003973920218
0.0003561654048
0.0003226395672
0.0002951407118
0.0002723975649
0.0002535007577
0.0002380227843
0.000226897733
0.0003632471729
0.0004126103349
0.0004207483259
0.0004065525949
0.000382390604
0.0003552420016
0.0003286443687
0.0003041746069
0.0002823750033
0.0002632816929
0.0002467142809
0.0002324537082
0.000220471794
0.0002117185745
0.0001216213985
0.0001608072814
0.000187812337
0.000203735447
0.0002111978576
0.0002128398226
0.0002107907007
0.000206592501
0.0002012906141
0.0001955605293
0.0001898237384
0.0001843506101
0.0001793984842
0.0001756050116
3.857499393e-05
5.685414219e-05
7.42276449e-05
8.939529109e-05
0.0001019049108
0.0001118189328
0.0001194485615
0.0001251867016
0.0001294185626
0.0001324822345
0.0001346568442
0.0001361642781
0.0001371726064
0.0001377733363
1.484859114e-05
2.369082666e-05
3.383961467e-05
4.45513435e-05
5.520680857e-05
6.536170795e-05
7.47388295e-05
8.319587957e-05
9.068851196e-05
9.723708684e-05
0.0001028987891
0.0001077384948
0.0001117652596
0.0001146785867
1.056215273e-05
1.921201778e-05
2.978662199e-05
4.131885052e-05
5.299501016e-05
6.422709745e-05
7.464017026e-05
8.403069255e-05
9.232080561e-05
9.951795265e-05
0.0001056828275
0.0001109041013
0.0001152736975
0.0001188344083
0.0001213673503
3.334257811e-05
5.65492127e-05
7.854805635e-05
9.717471129e-05
0.0001119417602
0.0001231452549
0.0001313586359
0.0001371911154
0.0001411887263
0.0001438043959
0.0001453983495
0.0001462505923
0.0001465786281
0.0001465627533
0.0001463960719
0.0001446464816
0.0002139310479
0.000252919948
0.0002696234255
0.0002725223995
0.0002676731482
0.0002588872809
0.0002484228505
0.0002375637909
0.0002270097445
0.0002171185771
0.0002080559523
0.0001999034345
0.000192811982
0.0001875078614
0.0007532849214
0.0008377099856
0.0007757744406
0.0006805686999
0.0005892781234
0.0005117072407
0.0004484302846
0.000397390517
0.0003561641452
0.0003226385171
0.0002951397907
0.0002723967807
0.0002535000244
0.0002380221507
0.0002268971735
0.002880762471
0.001841259577
0.001265607208
0.0009286093021
0.0007198846368
0.0005833491009
0.0004894180582
0.0004218589903
0.0003713987918
0.0003325213743
0.0003018220307
0.00027717406
0.0002574796244
0.0002435439643
0.0008377210641
0.0007757715428
0.0006805610467
0.0005892693182
0.000511698579
0.0004484222125
0.000397383197
0.0003561574964
0.0003226324861
0.0002951343135
0.0002723917243
0.0002534953379
0.0002380177739
0.0002268929868
0.0002139350872
0.0002529195484
0.0002696197092
0.0002725166237
0.0002676661848
0.0002588797679
0.0002484151127
0.0002375560948
0.0002270022361
0.0002171112628
0.0002080488505
0.0001998965374
0.0001928052956
0.0001875012529
5.655094927e-05
7.854856801e-05
9.717376489e-05
0.0001119394434
0.00012314175
0.0001313541883
0.0001371859099
0.0001411829511
0.0001437982103
0.0001453918418
0.0001462438474
0.0001465717397
0.0001465557542
0.0001463889382
1.921283962e-05
2.978712556e-05
4.131876949e-05
5.299417183e-05
6.422540826e-05
7.463761074e-05
8.402730551e-05
9.231662954e-05
9.951307309e-05
0.0001056773138
0.0001108980534
0.000115267183
0.0001188274715
0.0001213599661
8.02669529e-06
1.484799613e-05
2.369033013e-05
3.383939274e-05
4.45515293e-05
5.520749188e-05
6.536293881e-05
7.474060967e-05
8.319818541e-05
9.06913113e-05
9.724033714e-05
0.0001029024517
0.0001077425112
0.0001117695888
0.0001146832665
2.175532932e-05
3.857364731e-05
5.685314934e-05
7.422724703e-05
8.939557918e-05
0.000101905874
0.0001118205084
0.0001194506667
0.0001251892261
0.0001294214275
0.0001324853711
0.0001346602075
0.0001361678196
0.0001371762802
0.000137777159
7.377916045e-05
0.0001216182475
0.0001608051478
0.0001878113794
0.0002037355026
0.0002111986591
0.000212841194
0.000210792437
0.0002065944615
0.0002012927223
0.0001955627335
0.0001898259765
0.0001843528537
0.0001794007505
0.0001756072848
0.000252403222
0.0003632394911
0.000412604061
0.0004207432838
0.0004065484904
0.0003823872116
0.0003552391812
0.0003286420147
0.0003041726122
0.0002823732444
0.0002632801278
0.00024671289
0.0002324525227
0.0002204707173
0.000211717594
0.0007532851321
0.0008377084208
0.000775763609
0.0006805556218
0.0005892654214
0.0005116956965
0.000448419979
0.0003973814301
0.0003561560359
0.0003226312787
0.0002951332784
0.0002723908533
0.0002534946166
0.0002380171132
0.0002268923826
0.0002524058006
0.0003632389151
0.000412600587
0.0004207379346
0.000406542263
0.0003823807171
0.0003552328542
0.0003286359898
0.0003041669171
0.0002823679586
0.0002632752438
0.0002467083007
0.0002324481579
0.0002204665896
0.000211713605
0.0001216239167
0.0001608063327
0.0001878093696
0.000203731317
0.0002111931119
0.0002128348071
0.0002107856096
0.0002065874674
0.0002012857306
0.000195555823
0.0001898192121
0.0001843462339
0.0001793942851
0.0001756008873
3.857590177e-05
5.685427938e-05
7.422700712e-05
8.939397766e-05
0.0001019030774
0.000111816681
0.0001194460056
0.0001251839219
0.0001294156538
0.0001324792107
0.0001346537667
0.000136161171
0.0001371694744
0.0001377701683
1.484890394e-05
2.369098501e-05
3.383951417e-05
4.455092533e-05
5.520605642e-05
6.536063783e-05
7.473745046e-05
8.319423658e-05
9.068664495e-05
9.723502891e-05
0.0001028965671
0.0001077361288
0.0001117627737
0.000114676007
4.649076416e-06
8.739472531e-06
1.442846479e-05
2.14666426e-05
2.945631658e-05
3.796739163e-05
4.661397832e-05
5.509076314e-05
6.318063573e-05
7.074583234e-05
7.771179165e-05
8.404711514e-05
8.973317147e-05
9.467984242e-05
9.838286253e-05
1.065912053e-05
1.953288688e-05
3.052118558e-05
4.246124899e-05
5.434116673e-05
6.546841243e-05
7.546619743e-05
8.419846649e-05
9.168447675e-05
9.802859735e-05
0.0001033713926
0.0001078580545
0.0001116141025
0.000114699012
0.0001169168776
2.906342744e-05
5.118049534e-05
7.43750939e-05
9.536783221e-05
0.0001125696821
0.0001256557583
0.0001350073071
0.0001412933562
0.0001452241272
0.0001474322452
0.0001484318181
0.0001486182516
0.0001482887346
0.0001476816889
0.000147072021
7.377938475e-05
0.0001216177556
0.0001608036771
0.0001878089878
0.0002037323921
0.0002111950868
0.0002128373651
0.0002107884645
0.0002065904943
0.0002012888202
0.000195558893
0.0001898222423
0.0001843492386
0.0001793972031
0.0001756037982
0.0001446468045
0.0002139283413
0.0002529139208
0.000269615136
0.0002725129161
0.0002676631446
0.0002588772398
0.000248412995
0.0002375542762
0.0002270006442
0.0002171098632
0.0002080476007
0.0001998954456
0.0001928043221
0.0001875003475
7.377890935e-05
0.0001216166029
0.0001608016124
0.0001878061544
0.0002037289793
0.0002111913135
0.0002128334174
0.0002107844717
0.0002065865224
0.0002012849185
0.0001955551036
0.0001898185626
0.0001843456522
0.0001793937507
0.0001756003947
2.906467067e-05
5.118134869e-05
7.437489924e-05
9.536641114e-05
0.0001125671341
0.0001256522898
0.0001350031249
0.0001412887004
0.0001452191123
0.0001474270328
0.0001484264683
0.0001486128503
0.0001482832936
0.0001476762661
0.0001470665499
1.953428105e-05
3.052191262e-05
4.246118503e-05
5.434025233e-05
6.546665754e-05
7.546364071e-05
8.419519767e-05
9.168059036e-05
9.802418302e-05
0.0001033665436
0.0001078528325
0.0001116085856
0.0001146932291
0.0001169108613
8.74017319e-06
1.442901256e-05
2.146684548e-05
2.945601783e-05
3.796648368e-05
4.661238649e-05
5.508846667e-05
6.317763067e-05
7.074216658e-05
7.770748936e-05
8.404223195e-05
8.972775644e-05
9.467396039e-05
9.83765193e-05
2.401504624e-06
4.572923119e-06
7.789255122e-06
1.207216212e-05
1.732199918e-05
2.335730403e-05
2.995826194e-05
3.690197693e-05
4.39856319e-05
5.10383955e-05
5.792424622e-05
6.453600478e-05
7.077023026e-05
7.642831825e-05
8.07950443e-05
4.708313877e-06
8.826086688e-06
1.447784407e-05
2.136837689e-05
2.908270213e-05
3.72043661e-05
4.538285679e-05
5.335751921e-05
6.09545112e-05
6.807134024e-05
7.46578045e-05
8.069577318e-05
8.616983531e-05
9.098391173e-05
9.462018835e-05
1.065915029e-05
1.95328518e-05
3.052101616e-05
4.246088983e-05
5.434057996e-05
6.546759682e-05
7.54651471e-05
8.419722518e-05
9.168305207e-05
9.802702819e-05
0.0001033696899
0.0001078562478
0.000111612201
0.0001146970359
0.000116914833
2.175541168e-05
3.857337637e-05
5.685228007e-05
7.422566947e-05
8.939326297e-05
0.0001019029224
0.000111816998
0.0001194467099
0.0001251849288
0.0001294168893
0.0001324806506
0.0001346553515
0.0001361628654
0.0001371712688
0.0001377720527
3.334263474e-05
5.654827946e-05
7.854576152e-05
9.717103187e-05
0.0001119368741
0.0001231393856
0.0001313520143
0.0001371839342
0.0001411811419
0.0001437965312
0.000145390308
0.0001462424522
0.0001465704413
0.0001465545422
0.0001463877732
2.175521713e-05
3.857296827e-05
5.685155087e-05
7.422457464e-05
8.939182169e-05
0.0001019011641
0.0001118149982
0.0001194445021
0.0001251825703
0.0001294144217
0.0001324780714
0.000134652729
0.0001361602319
0.0001371685958
0.0001377693216
1.065920262e-05
1.953282034e-05
3.052068195e-05
4.246010544e-05
5.43392735e-05
6.546576477e-05
7.546282654e-05
8.419445297e-05
9.167990991e-05
9.802356174e-05
0.000103365962
0.0001078523125
0.0001116081069
0.0001146927905
0.000116910433
4.708577508e-06
8.826362224e-06
1.447795321e-05
2.136817241e-05
2.908208014e-05
3.720325289e-05
4.538122934e-05
5.335535905e-05
6.095184344e-05
6.806819678e-05
7.465421503e-05
8.06917637e-05
8.616545761e-05
9.097920582e-05
9.461520146e-05
4.573304899e-06
7.789520403e-06
1.207222895e-05
1.732176304e-05
2.335667115e-05
2.995715915e-05
3.690035105e-05
4.398345212e-05
5.103563949e-05
5.79209266e-05
6.453214076e-05
7.076583455e-05
7.642342575e-05
8.078967155e-05
1.398090553e-06
2.687577922e-06
4.692792943e-06
7.524460644e-06
1.121789248e-05
1.573352202e-05
2.097128497e-05
2.67912459e-05
3.30343794e-05
3.953969498e-05
4.615557852e-05
5.274208161e-05
5.915052997e-05
6.511844672e-05
6.980716406e-05
2.401516285e-06
4.5729311e-06
7.789246829e-06
1.207212218e-05
1.732190674e-05
2.335713916e-05
2.995800633e-05
3.690161698e-05
4.398516355e-05
5.103780387e-05
5.792354095e-05
6.453519349e-05
7.076930221e-05
7.642726892e-05
8.079385336e-05
4.649096686e-06
8.739449536e-06
1.442834378e-05
2.146635188e-05
2.94557982e-05
3.796660495e-05
4.661289063e-05
5.50893675e-05
6.317892617e-05
7.07438446e-05
7.770953195e-05
8.404460275e-05
8.973042265e-05
9.46768766e-05
9.837965902e-05
8.026696097e-06
1.484782612e-05
2.368983473e-05
3.383843328e-05
4.455001385e-05
5.520538078e-05
6.536022506e-05
7.473730697e-05
8.319435129e-05
9.068699555e-05
9.723560782e-05
0.0001028973554
0.0001077370992
0.0001117639078
0.0001146772745
1.056214268e-05
1.9211663e-05
2.978567822e-05
4.131712956e-05
5.2992419e-05
6.422360944e-05
7.463580737e-05
8.402553879e-05
9.231491712e-05
9.951142083e-05
0.0001056757418
0.0001108965805
0.0001152657752
0.0001188261371
0.0001213586871
8.026605959e-06
1.4847642e-05
2.368950571e-05
3.383791951e-05
4.454928432e-05
5.520441986e-05
6.535903578e-05
7.473591937e-05
8.319277482e-05
9.068524683e-05
9.723370779e-05
0.000102895327
0.0001077349755
0.0001117616839
0.0001146749776
4.649056173e-06
8.739352191e-06
1.442810965e-05
2.146590157e-05
2.945505839e-05
3.796552407e-05
4.661144395e-05
5.508755785e-05
6.317676603e-05
7.074134321e-05
7.770671028e-05
8.404149479e-05
8.972707578e-05
9.467330237e-05
9.837587858e-05
2.401540967e-06
4.57295526e-06
7.789202353e-06
1.207192615e-05
1.732147306e-05
2.335639334e-05
2.995689767e-05
3.690010286e-05
4.398321708e-05
5.10354158e-05
5.792071366e-05
6.453194003e-05
7.076564558e-05
7.642323683e-05
8.078949549e-05
1.39816441e-06
2.68767772e-06
4.692863917e-06
7.524434701e-06
1.121768849e-05
1.573305556e-05
2.097047757e-05
2.679003127e-05
3.303270333e-05
3.953751899e-05
4.61528753e-05
5.273883882e-05
5.914675802e-05
6.511415322e-05
6.980235971e-05
)
;

boundaryField
{
    top
    {
        type            zeroGradient;
    }
    bottom
    {
        type            zeroGradient;
    }
    side-walls
    {
        type            zeroGradient;
    }
    inlet
    {
        type            zeroGradient;
    }
    outlet
    {
        type            zeroGradient;
    }
    procBoundary1to0
    {
        type            processor;
        value           nonuniform List<scalar> 
97
(
1.398172646e-06
1.398172646e-06
2.401526546e-06
4.648952457e-06
8.026278702e-06
1.056149166e-05
8.026164899e-06
4.648793229e-06
2.401361172e-06
1.398011275e-06
1.117921803e-06
4.708593596e-06
4.708593596e-06
4.708593596e-06
1.065907012e-05
2.175443531e-05
3.334018496e-05
2.175383391e-05
1.065840846e-05
4.70801862e-06
2.401368745e-06
2.13558519e-06
4.771698835e-06
2.906477249e-05
2.906477249e-05
2.906477249e-05
7.37769441e-05
0.0001446334613
7.377351579e-05
2.906129455e-05
1.065843317e-05
4.648807543e-06
3.627513919e-06
9.422033245e-06
2.970224163e-05
0.0002524058832
0.0002524058832
0.0002524058832
0.000753200008
0.0002523830089
7.377387148e-05
2.175401062e-05
8.026236079e-06
4.693486296e-06
1.381265984e-05
5.224702218e-05
0.0002045084429
0.004863288507
0.004863288507
0.004863288507
0.0007532070815
0.0007532070815
0.0001446353972
3.33406232e-05
1.056164967e-05
3.627564326e-06
9.422160242e-06
2.970305223e-05
8.870018157e-05
0.0002045131368
8.869767957e-05
7.378159299e-05
7.378159299e-05
7.378159299e-05
2.175522676e-05
8.026520048e-06
2.135602317e-06
4.771787021e-06
1.250118439e-05
2.970320511e-05
5.224772667e-05
2.970258882e-05
1.250088441e-05
1.065976134e-05
1.065976134e-05
1.065976134e-05
4.649134159e-06
1.117939803e-06
2.156756656e-06
4.771804991e-06
9.42221535e-06
1.381277467e-05
9.422070301e-06
4.771711187e-06
2.156719504e-06
2.401655396e-06
2.401655396e-06
2.401655396e-06
6.574469907e-07
1.117945863e-06
2.135614489e-06
3.627571361e-06
4.693500792e-06
3.627517096e-06
2.135572627e-06
1.117928765e-06
6.574420374e-07
)
;
    }
}


// ************************************************************************* //
