/*--------------------------------*- C++ -*----------------------------------*\
| =========                 |                                                 |
| \\      /  F ield         | OpenFOAM: The Open Source CFD Toolbox           |
|  \\    /   O peration     | Version:  4.x                                   |
|   \\  /    A nd           | Web:      www.OpenFOAM.org                      |
|    \\/     M anipulation  |                                                 |
\*---------------------------------------------------------------------------*/
FoamFile
{
    version     2.0;
    format      ascii;
    class       volScalarField;
    location    "9000";
    object      Cpv;
}
// * * * * * * * * * * * * * * * * * * * * * * * * * * * * * * * * * * * * * //

dimensions      [0 2 -2 -1 0 0 0];

internalField   nonuniform List<scalar> 
1174
(
1210.460012
1210.460117
1210.4603
1210.460539
1210.460836
1210.461171
1210.461555
1210.461927
1210.462349
1210.462761
1210.46318
1210.46359
1210.463978
1210.46428
1210.461011
1210.46119
1210.461462
1210.461797
1210.462181
1210.462613
1210.463054
1210.463505
1210.46396
1210.464413
1210.464826
1210.465232
1210.465585
1210.465871
1210.460506
1210.460854
1210.461302
1210.461796
1210.462351
1210.462911
1210.46345
1210.463966
1210.464411
1210.464852
1210.465238
1210.465576
1210.465882
1210.466122
1210.460129
1210.460699
1210.461343
1210.462043
1210.462722
1210.463367
1210.463985
1210.464505
1210.46496
1210.465373
1210.465747
1210.466049
1210.466295
1210.466482
1210.46061
1210.461278
1210.461999
1210.462738
1210.463416
1210.464075
1210.464653
1210.465167
1210.465607
1210.465985
1210.466315
1210.46657
1210.466789
1210.466963
1210.460745
1210.461307
1210.461952
1210.462608
1210.463279
1210.463918
1210.46451
1210.465041
1210.465526
1210.465945
1210.466318
1210.466617
1210.466895
1210.467098
1210.460766
1210.461139
1210.461591
1210.462085
1210.46262
1210.463167
1210.463716
1210.464211
1210.464691
1210.465141
1210.465525
1210.465864
1210.466153
1210.466394
1210.459841
1210.460018
1210.460324
1210.460638
1210.461022
1210.461455
1210.46189
1210.462329
1210.462777
1210.463211
1210.463629
1210.464012
1210.464385
1210.464651
1210.459956
1210.460077
1210.460262
1210.4605
1210.460798
1210.46116
1210.461515
1210.461909
1210.462323
1210.462729
1210.463162
1210.463579
1210.46395
1210.46426
1210.460391
1210.460512
1210.460709
1210.460975
1210.461305
1210.461679
1210.46209
1210.462535
1210.462983
1210.463425
1210.463839
1210.464271
1210.464682
1210.465034
1210.465334
1210.459389
1210.459777
1210.460213
1210.460699
1210.46122
1210.461736
1210.462219
1210.462713
1210.463157
1210.463574
1210.463947
1210.464283
1210.464593
1210.464785
1210.459677
1210.460389
1210.461131
1210.461875
1210.462577
1210.463214
1210.463765
1210.464258
1210.464673
1210.46503
1210.465325
1210.465568
1210.465782
1210.465932
1210.462864
1210.464016
1210.465129
1210.466091
1210.466873
1210.467495
1210.467964
1210.468319
1210.468597
1210.468818
1210.468976
1210.469077
1210.46913
1210.469207
1210.464538
1210.465965
1210.46715
1210.468084
1210.468814
1210.46935
1210.469723
1210.46997
1210.47013
1210.470258
1210.4703
1210.470318
1210.470326
1210.470311
1210.462454
1210.463606
1210.464705
1210.465697
1210.466495
1210.467118
1210.467602
1210.467961
1210.468217
1210.468409
1210.468543
1210.468638
1210.468714
1210.468759
1210.460551
1210.461243
1210.462004
1210.462765
1210.463497
1210.464139
1210.464682
1210.465147
1210.465558
1210.46588
1210.466146
1210.466389
1210.46659
1210.466733
1210.46085
1210.461201
1210.461623
1210.462099
1210.46265
1210.463158
1210.463667
1210.46413
1210.464582
1210.465019
1210.465406
1210.465737
1210.466033
1210.466274
1210.460222
1210.460444
1210.460713
1210.461054
1210.461426
1210.461848
1210.462271
1210.46273
1210.463163
1210.463604
1210.464033
1210.464438
1210.464807
1210.465061
1210.460238
1210.4605
1210.460848
1210.461275
1210.461776
1210.462336
1210.462889
1210.463414
1210.463944
1210.464403
1210.464871
1210.465266
1210.465617
1210.465943
1210.466139
1210.46155
1210.462146
1210.462863
1210.463619
1210.464345
1210.465067
1210.465689
1210.46622
1210.46668
1210.467078
1210.467432
1210.467712
1210.467947
1210.468145
1210.468269
1210.463644
1210.465106
1210.466453
1210.467544
1210.46836
1210.46896
1210.469355
1210.469597
1210.469758
1210.469812
1210.469854
1210.469822
1210.469791
1210.469762
1210.467842
1210.470322
1210.471995
1210.473016
1210.473498
1210.473602
1210.473489
1210.473237
1210.472906
1210.472555
1210.47219
1210.471849
1210.471512
1210.47129
1210.473518
1210.475971
1210.477037
1210.477221
1210.47692
1210.476347
1210.475691
1210.474997
1210.474319
1210.473672
1210.473095
1210.472581
1210.472154
1210.471819
1210.467049
1210.469517
1210.471231
1210.472222
1210.472714
1210.472781
1210.472628
1210.472373
1210.472043
1210.471678
1210.471309
1210.471008
1210.470687
1210.470457
1210.462521
1210.463981
1210.465305
1210.466399
1210.467229
1210.467828
1210.468225
1210.468467
1210.468635
1210.468696
1210.468719
1210.468699
1210.468655
1210.468612
1210.460139
1210.460824
1210.461607
1210.462351
1210.463061
1210.463706
1210.464248
1210.464737
1210.465141
1210.465467
1210.465762
1210.465997
1210.466197
1210.466341
1210.460107
1210.460477
1210.460909
1210.461398
1210.461923
1210.462488
1210.463021
1210.463561
1210.464025
1210.464474
1210.464891
1210.465276
1210.465559
1210.465784
1210.459857
1210.460279
1210.460853
1210.461494
1210.462175
1210.462851
1210.463493
1210.464093
1210.464645
1210.465129
1210.465535
1210.465879
1210.466185
1210.466425
1210.466608
1210.460655
1210.461723
1210.462855
1210.463964
1210.464927
1210.465724
1210.466349
1210.466819
1210.467193
1210.467424
1210.467611
1210.467737
1210.46783
1210.467905
1210.467944
1210.464235
1210.467271
1210.469746
1210.471451
1210.472423
1210.472901
1210.473
1210.472877
1210.47259
1210.472239
1210.471895
1210.471544
1210.471194
1210.470901
1210.470642
1210.483684
1210.486802
1210.487305
1210.486425
1210.484891
1210.483165
1210.481475
1210.47994
1210.478572
1210.477385
1210.476311
1210.475403
1210.474633
1210.474081
1210.511175
1210.507238
1210.501225
1210.495445
1210.490518
1210.486521
1210.483326
1210.480701
1210.478592
1210.476851
1210.475413
1210.474218
1210.473261
1210.472558
1210.482399
1210.485532
1210.486039
1210.485134
1210.483595
1210.481868
1210.480177
1210.478618
1210.477231
1210.476046
1210.475003
1210.474125
1210.473353
1210.472805
1210.467125
1210.469585
1210.471284
1210.472306
1210.472796
1210.472894
1210.472785
1210.472501
1210.472182
1210.471826
1210.471448
1210.471104
1210.470783
1210.470531
1210.462929
1210.464089
1210.465189
1210.46614
1210.466935
1210.467564
1210.46803
1210.468394
1210.468652
1210.468849
1210.469013
1210.46912
1210.469196
1210.469249
1210.460213
1210.460792
1210.461443
1210.462108
1210.4628
1210.463428
1210.464017
1210.46453
1210.465002
1210.46542
1210.465784
1210.466098
1210.466321
1210.466492
1210.46043
1210.460961
1210.461614
1210.46233
1210.463083
1210.463795
1210.464435
1210.465047
1210.465537
1210.465993
1210.466364
1210.466697
1210.466983
1210.467233
1210.467385
1210.462168
1210.463654
1210.465062
1210.466253
1210.467173
1210.467878
1210.468387
1210.468741
1210.469006
1210.469155
1210.469278
1210.469316
1210.46932
1210.469335
1210.469309
1210.469509
1210.473897
1210.476378
1210.477421
1210.477613
1210.4773
1210.476739
1210.476106
1210.475411
1210.474765
1210.474134
1210.473543
1210.473041
1210.472569
1210.472209
1210.506507
1210.511843
1210.507925
1210.501915
1210.496109
1210.491199
1210.487205
1210.483943
1210.481355
1210.479193
1210.47745
1210.475997
1210.474782
1210.473782
1210.473074
1210.147398
1210.081448
1210.044746
1210.023165
1210.009652
1210.000685
1209.994396
1209.989809
1209.98628
1209.983499
1209.981225
1209.979344
1209.977806
1209.976594
1210.512466
1210.508563
1210.502548
1210.496775
1210.491853
1210.487851
1210.484629
1210.482015
1210.479916
1210.478154
1210.476712
1210.475504
1210.474529
1210.473856
1210.473873
1210.476371
1210.477439
1210.477601
1210.477282
1210.47669
1210.476044
1210.475345
1210.474648
1210.474018
1210.473454
1210.472939
1210.472513
1210.472154
1210.463983
1210.465378
1210.466577
1210.46752
1210.468221
1210.468726
1210.469093
1210.469375
1210.469549
1210.469659
1210.469717
1210.469733
1210.469732
1210.469695
1210.460641
1210.461325
1210.462052
1210.462789
1210.463492
1210.464163
1210.464745
1210.465267
1210.465757
1210.466147
1210.466455
1210.466735
1210.466994
1210.467154
1210.461238
1210.461681
1210.46223
1210.462887
1210.463591
1210.464266
1210.464913
1210.465502
1210.466057
1210.466527
1210.466946
1210.467286
1210.467593
1210.467827
1210.468006
1210.461094
1210.462179
1210.463355
1210.464449
1210.465421
1210.466241
1210.466877
1210.46732
1210.467709
1210.467994
1210.468184
1210.468313
1210.468414
1210.468453
1210.468473
1210.464674
1210.467701
1210.470184
1210.47189
1210.472898
1210.47335
1210.473435
1210.473282
1210.473014
1210.472664
1210.4723
1210.471942
1210.471595
1210.471276
1210.471035
1210.475675
1210.482721
1210.485828
1210.486354
1210.485463
1210.483948
1210.482203
1210.480535
1210.478965
1210.477613
1210.476417
1210.475372
1210.474447
1210.473716
1210.473172
1210.507781
1210.513122
1210.509188
1210.50316
1210.49739
1210.492511
1210.488521
1210.4853
1210.482704
1210.480562
1210.47882
1210.47738
1210.476163
1210.475175
1210.474455
1210.475069
1210.482079
1210.485184
1210.48569
1210.484805
1210.483256
1210.481533
1210.479846
1210.478276
1210.476907
1210.475699
1210.474664
1210.47379
1210.473024
1210.472473
1210.467272
1210.469781
1210.471485
1210.472495
1210.472979
1210.473088
1210.472977
1210.472713
1210.472342
1210.471972
1210.471603
1210.471265
1210.470943
1210.47071
1210.463208
1210.464356
1210.46544
1210.466416
1210.467188
1210.467807
1210.468301
1210.468652
1210.468888
1210.469072
1210.469221
1210.469314
1210.469355
1210.469398
1210.46095
1210.461507
1210.462121
1210.462798
1210.46348
1210.464131
1210.464758
1210.465293
1210.465757
1210.466169
1210.466525
1210.466845
1210.467096
1210.467287
1210.459633
1210.459908
1210.460245
1210.460683
1210.461187
1210.461752
1210.462285
1210.462812
1210.463332
1210.463852
1210.4643
1210.464704
1210.465096
1210.465423
1210.46563
1210.459499
1210.460039
1210.460739
1210.461504
1210.462245
1210.462957
1210.463564
1210.464132
1210.464591
1210.464975
1210.465299
1210.465594
1210.465865
1210.466045
1210.466178
1210.461977
1210.46334
1210.464813
1210.466155
1210.467236
1210.468047
1210.46863
1210.469027
1210.46928
1210.469415
1210.469473
1210.46951
1210.4695
1210.469468
1210.469432
1210.465068
1210.468087
1210.470591
1210.472302
1210.473325
1210.473789
1210.473882
1210.473747
1210.47349
1210.473133
1210.472744
1210.472377
1210.472023
1210.471718
1210.471463
1210.469295
1210.473706
1210.476179
1210.477244
1210.477429
1210.477161
1210.476605
1210.475929
1210.475246
1210.474589
1210.473957
1210.473369
1210.472829
1210.472388
1210.472061
1210.46438
1210.46741
1210.469881
1210.471579
1210.47256
1210.473031
1210.473126
1210.472973
1210.472702
1210.472372
1210.47199
1210.471642
1210.471292
1210.470977
1210.470714
1210.461315
1210.462675
1210.464148
1210.465509
1210.466577
1210.467443
1210.468036
1210.468429
1210.468698
1210.468845
1210.468923
1210.468951
1210.468924
1210.468887
1210.46885
1210.46105
1210.461768
1210.462528
1210.463269
1210.46398
1210.464652
1210.465212
1210.465685
1210.466083
1210.466404
1210.466694
1210.466929
1210.467125
1210.467245
1210.460163
1210.460532
1210.460985
1210.461492
1210.461999
1210.462543
1210.463072
1210.463552
1210.46404
1210.464478
1210.46487
1210.465226
1210.4655
1210.465722
1210.459842
1210.459984
1210.460202
1210.46049
1210.460828
1210.461213
1210.461604
1210.462056
1210.462511
1210.462953
1210.463396
1210.463831
1210.464228
1210.46457
1210.464886
1210.460013
1210.460272
1210.46063
1210.461068
1210.461545
1210.462051
1210.462573
1210.463078
1210.463539
1210.463979
1210.464393
1210.464773
1210.465102
1210.465437
1210.465659
1210.459982
1210.460546
1210.46123
1210.461985
1210.46276
1210.463436
1210.464053
1210.464588
1210.465045
1210.465449
1210.465789
1210.466081
1210.466315
1210.466536
1210.466677
1210.461285
1210.462359
1210.463512
1210.464587
1210.465552
1210.466338
1210.466957
1210.467443
1210.467804
1210.468069
1210.46826
1210.468389
1210.468505
1210.468582
1210.468606
1210.462137
1210.463627
1210.465013
1210.466213
1210.467124
1210.467833
1210.468338
1210.468708
1210.468954
1210.46914
1210.469222
1210.469273
1210.469295
1210.469295
1210.469262
1210.461767
1210.46281
1210.463958
1210.465057
1210.466031
1210.466816
1210.467436
1210.467937
1210.468292
1210.468531
1210.468751
1210.468915
1210.469004
1210.469072
1210.469093
1210.459335
1210.459894
1210.460585
1210.461362
1210.462131
1210.462815
1210.46345
1210.46403
1210.464495
1210.464885
1210.465214
1210.465503
1210.46574
1210.465934
1210.466093
1210.458933
1210.459193
1210.459536
1210.459946
1210.460417
1210.460952
1210.461446
1210.461982
1210.462466
1210.462917
1210.463344
1210.463742
1210.464083
1210.464379
1210.464631
1210.459398
1210.459599
1210.459856
1210.46018
1210.460573
1210.460992
1210.461397
1210.461839
1210.462307
1210.462711
1210.463143
1210.463558
1210.463919
1210.464212
1210.459222
1210.459306
1210.459437
1210.459646
1210.459873
1210.460138
1210.460473
1210.460872
1210.461269
1210.46169
1210.462111
1210.462518
1210.462932
1210.463288
1210.463589
1210.460418
1210.460537
1210.460732
1210.461025
1210.461369
1210.46173
1210.46217
1210.462605
1210.463054
1210.463506
1210.463934
1210.464341
1210.464759
1210.465119
1210.465415
1210.460139
1210.460426
1210.460783
1210.46122
1210.461727
1210.462261
1210.46281
1210.463342
1210.463852
1210.464309
1210.464745
1210.465159
1210.465511
1210.465815
1210.466051
1210.460191
1210.460646
1210.461195
1210.461829
1210.462484
1210.46314
1210.463781
1210.464355
1210.464905
1210.465379
1210.465804
1210.466147
1210.46646
1210.466709
1210.466912
1210.45968
1210.460223
1210.460877
1210.461594
1210.462317
1210.463038
1210.463703
1210.464294
1210.464826
1210.465302
1210.4657
1210.46602
1210.466296
1210.466526
1210.466693
1210.459702
1210.460138
1210.460693
1210.46133
1210.462008
1210.4627
1210.463325
1210.463914
1210.464425
1210.464911
1210.465326
1210.465671
1210.465954
1210.466218
1210.466399
1210.460068
1210.460332
1210.460677
1210.461149
1210.46166
1210.462212
1210.462768
1210.463282
1210.463793
1210.464284
1210.46473
1210.465128
1210.465473
1210.465795
1210.466043
1210.460217
1210.460345
1210.460579
1210.460848
1210.461191
1210.461579
1210.461985
1210.462444
1210.462872
1210.463325
1210.463769
1210.464181
1210.464577
1210.464943
1210.465209
1210.459325
1210.459416
1210.459549
1210.459701
1210.459939
1210.460235
1210.460558
1210.460933
1210.461323
1210.461735
1210.462144
1210.462562
1210.462961
1210.463338
1210.463641
)
;

boundaryField
{
    top
    {
        type            calculated;
        value           nonuniform List<scalar> 
127
(
1210.459325
1210.459956
1210.460222
1210.460107
1210.460213
1210.460641
1210.46095
1210.460163
1210.459398
1210.459416
1210.460077
1210.460444
1210.460477
1210.460792
1210.461325
1210.461507
1210.460532
1210.459599
1210.459549
1210.460262
1210.460713
1210.460909
1210.461443
1210.462052
1210.462121
1210.460985
1210.459856
1210.459701
1210.4605
1210.461054
1210.461398
1210.462108
1210.462789
1210.462798
1210.461492
1210.46018
1210.459939
1210.460798
1210.461426
1210.461923
1210.4628
1210.463492
1210.46348
1210.461999
1210.460573
1210.460235
1210.46116
1210.461848
1210.462488
1210.463428
1210.464163
1210.464131
1210.462543
1210.460992
1210.460558
1210.461515
1210.462271
1210.463021
1210.464017
1210.464745
1210.464758
1210.463072
1210.461397
1210.460933
1210.461909
1210.46273
1210.463561
1210.46453
1210.465267
1210.465293
1210.463552
1210.461839
1210.461323
1210.462323
1210.463163
1210.464025
1210.465002
1210.465757
1210.465757
1210.46404
1210.462307
1210.461735
1210.462729
1210.463604
1210.464474
1210.46542
1210.466147
1210.466169
1210.464478
1210.462711
1210.462144
1210.463162
1210.464033
1210.464891
1210.465784
1210.466455
1210.466525
1210.46487
1210.463143
1210.462562
1210.463579
1210.464438
1210.465276
1210.466098
1210.466735
1210.466845
1210.465226
1210.463558
1210.462961
1210.46395
1210.464807
1210.465559
1210.466321
1210.466994
1210.467096
1210.4655
1210.463919
1210.463338
1210.46426
1210.465061
1210.465784
1210.466492
1210.467154
1210.467287
1210.465722
1210.464212
1210.463641
)
;
    }
    bottom
    {
        type            calculated;
        value           nonuniform List<scalar> 
134
(
1210.460391
1210.460238
1210.459857
1210.46043
1210.461238
1210.459633
1210.459842
1210.459222
1210.460012
1210.460512
1210.4605
1210.460279
1210.460961
1210.461681
1210.459908
1210.459984
1210.459306
1210.460117
1210.460709
1210.460848
1210.460853
1210.461614
1210.46223
1210.460245
1210.460202
1210.459437
1210.4603
1210.460975
1210.461275
1210.461494
1210.46233
1210.462887
1210.460683
1210.46049
1210.459646
1210.460539
1210.461305
1210.461776
1210.462175
1210.463083
1210.463591
1210.461187
1210.460828
1210.459873
1210.460836
1210.461679
1210.462336
1210.462851
1210.463795
1210.464266
1210.461752
1210.461213
1210.460138
1210.461171
1210.46209
1210.462889
1210.463493
1210.464435
1210.464913
1210.462285
1210.461604
1210.460473
1210.461555
1210.462535
1210.463414
1210.464093
1210.465047
1210.465502
1210.462812
1210.462056
1210.460872
1210.461927
1210.462983
1210.463944
1210.464645
1210.465537
1210.466057
1210.463332
1210.462511
1210.461269
1210.462349
1210.463425
1210.464403
1210.465129
1210.465993
1210.466527
1210.463852
1210.462953
1210.46169
1210.462761
1210.463839
1210.464871
1210.465535
1210.466364
1210.466946
1210.4643
1210.463396
1210.462111
1210.46318
1210.464271
1210.465266
1210.465879
1210.466697
1210.467286
1210.464704
1210.463831
1210.462518
1210.46359
1210.464682
1210.465617
1210.466185
1210.466983
1210.467593
1210.465096
1210.464228
1210.462932
1210.463978
1210.465034
1210.465943
1210.466425
1210.467233
1210.467827
1210.465423
1210.46457
1210.463288
1210.46428
1210.465334
1210.466139
1210.466608
1210.467385
1210.468006
1210.46563
1210.464886
1210.463589
)
;
    }
    side-walls
    {
        type            calculated;
        value           nonuniform List<scalar> 
261
(
1210.460012
1210.461011
1210.460506
1210.460129
1210.46061
1210.460745
1210.460766
1210.459841
1210.459956
1210.460117
1210.46119
1210.460854
1210.460699
1210.461278
1210.461307
1210.461139
1210.460018
1210.460077
1210.4603
1210.461462
1210.461302
1210.461343
1210.461999
1210.461952
1210.461591
1210.460324
1210.460262
1210.460539
1210.461797
1210.461796
1210.462043
1210.462738
1210.462608
1210.462085
1210.460638
1210.4605
1210.460836
1210.462181
1210.462351
1210.462722
1210.463416
1210.463279
1210.46262
1210.461022
1210.460798
1210.461171
1210.462613
1210.462911
1210.463367
1210.464075
1210.463918
1210.463167
1210.461455
1210.46116
1210.461555
1210.463054
1210.46345
1210.463985
1210.464653
1210.46451
1210.463716
1210.46189
1210.461515
1210.461927
1210.463505
1210.463966
1210.464505
1210.465167
1210.465041
1210.464211
1210.462329
1210.461909
1210.462349
1210.46396
1210.464411
1210.46496
1210.465607
1210.465526
1210.464691
1210.462777
1210.462323
1210.462761
1210.464413
1210.464852
1210.465373
1210.465985
1210.465945
1210.465141
1210.463211
1210.462729
1210.46318
1210.464826
1210.465238
1210.465747
1210.466315
1210.466318
1210.465525
1210.463629
1210.463162
1210.46359
1210.465232
1210.465576
1210.466049
1210.46657
1210.466617
1210.465864
1210.464012
1210.463579
1210.463978
1210.465585
1210.465882
1210.466295
1210.466789
1210.466895
1210.466153
1210.464385
1210.46395
1210.46428
1210.465871
1210.466122
1210.466482
1210.466963
1210.467098
1210.466394
1210.464651
1210.46426
1210.459222
1210.460418
1210.460139
1210.460191
1210.45968
1210.459702
1210.460068
1210.460217
1210.459325
1210.459306
1210.460537
1210.460426
1210.460646
1210.460223
1210.460138
1210.460332
1210.460345
1210.459416
1210.459437
1210.460732
1210.460783
1210.461195
1210.460877
1210.460693
1210.460677
1210.460579
1210.459549
1210.459646
1210.461025
1210.46122
1210.461829
1210.461594
1210.46133
1210.461149
1210.460848
1210.459701
1210.459873
1210.461369
1210.461727
1210.462484
1210.462317
1210.462008
1210.46166
1210.461191
1210.459939
1210.460138
1210.46173
1210.462261
1210.46314
1210.463038
1210.4627
1210.462212
1210.461579
1210.460235
1210.460473
1210.46217
1210.46281
1210.463781
1210.463703
1210.463325
1210.462768
1210.461985
1210.460558
1210.460872
1210.462605
1210.463342
1210.464355
1210.464294
1210.463914
1210.463282
1210.462444
1210.460933
1210.461269
1210.463054
1210.463852
1210.464905
1210.464826
1210.464425
1210.463793
1210.462872
1210.461323
1210.46169
1210.463506
1210.464309
1210.465379
1210.465302
1210.464911
1210.464284
1210.463325
1210.461735
1210.462111
1210.463934
1210.464745
1210.465804
1210.4657
1210.465326
1210.46473
1210.463769
1210.462144
1210.462518
1210.464341
1210.465159
1210.466147
1210.46602
1210.465671
1210.465128
1210.464181
1210.462562
1210.462932
1210.464759
1210.465511
1210.46646
1210.466296
1210.465954
1210.465473
1210.464577
1210.462961
1210.463288
1210.465119
1210.465815
1210.466709
1210.466526
1210.466218
1210.465795
1210.464943
1210.463338
1210.463589
1210.465415
1210.466051
1210.466912
1210.466693
1210.466399
1210.466043
1210.465209
1210.463641
)
;
    }
    inlet
    {
        type            calculated;
        value           nonuniform 0();
    }
    outlet
    {
        type            calculated;
        value           nonuniform List<scalar> 
81
(
1210.46428
1210.465871
1210.466122
1210.466482
1210.466963
1210.467098
1210.466394
1210.464651
1210.46426
1210.465334
1210.464785
1210.465932
1210.469207
1210.470311
1210.468759
1210.466733
1210.466274
1210.465061
1210.466139
1210.468269
1210.469762
1210.47129
1210.471819
1210.470457
1210.468612
1210.466341
1210.465784
1210.466608
1210.467944
1210.470642
1210.474081
1210.472558
1210.472805
1210.470531
1210.469249
1210.466492
1210.467385
1210.469309
1210.472209
1210.473074
1209.976594
1210.473856
1210.472154
1210.469695
1210.467154
1210.468006
1210.468473
1210.471035
1210.473172
1210.474455
1210.472473
1210.47071
1210.469398
1210.467287
1210.46563
1210.466178
1210.469432
1210.471463
1210.472061
1210.470714
1210.46885
1210.467245
1210.465722
1210.464886
1210.465659
1210.466677
1210.468606
1210.469262
1210.469093
1210.466093
1210.464631
1210.464212
1210.463589
1210.465415
1210.466051
1210.466912
1210.466693
1210.466399
1210.466043
1210.465209
1210.463641
)
;
    }
    procBoundary1to0
    {
        type            processor;
        value           nonuniform List<scalar> 
97
(
1210.459931
1210.459931
1210.460857
1210.460252
1210.459695
1210.460043
1210.460324
1210.460528
1210.459702
1210.459862
1210.460315
1210.459138
1210.459138
1210.459138
1210.459131
1210.46179
1210.463089
1210.461404
1210.459991
1210.460584
1210.4601
1210.460089
1210.461151
1210.462265
1210.462265
1210.462265
1210.464796
1210.469129
1210.464002
1210.46112
1210.459554
1210.459829
1210.459571
1210.459896
1210.461464
1210.476667
1210.476667
1210.476667
1210.505826
1210.47538
1210.46409
1210.461875
1210.459783
1210.460052
1210.460952
1210.463659
1210.471964
1210.272338
1210.272338
1210.272338
1210.507136
1210.507136
1210.469492
1210.462519
1210.46008
1210.460972
1210.460324
1210.461874
1210.465328
1210.473239
1210.464713
1210.464229
1210.464229
1210.464229
1210.462152
1210.460515
1210.45946
1210.459104
1210.460914
1210.462278
1210.463459
1210.461551
1210.460259
1210.460485
1210.460485
1210.460485
1210.45988
1210.459767
1210.459866
1210.45963
1210.460488
1210.460903
1210.460989
1210.458962
1210.458787
1210.459272
1210.459272
1210.459272
1210.459209
1210.460318
1210.459976
1210.459936
1210.459292
1210.459443
1210.459907
1210.460149
1210.459273
)
;
    }
}


// ************************************************************************* //
