/*--------------------------------*- C++ -*----------------------------------*\
| =========                 |                                                 |
| \\      /  F ield         | OpenFOAM: The Open Source CFD Toolbox           |
|  \\    /   O peration     | Version:  4.x                                   |
|   \\  /    A nd           | Web:      www.OpenFOAM.org                      |
|    \\/     M anipulation  |                                                 |
\*---------------------------------------------------------------------------*/
FoamFile
{
    version     2.0;
    format      ascii;
    class       volScalarField;
    location    "9000";
    object      molarConc;
}
// * * * * * * * * * * * * * * * * * * * * * * * * * * * * * * * * * * * * * //

dimensions      [0 -3 0 0 1 0 0];

internalField   nonuniform List<scalar> 
1174
(
9.96327352
9.963274738
9.963274533
9.963274199
9.963273588
9.963273365
9.963272479
9.96327371
9.963273152
9.963273458
9.963273358
9.96327309
9.96327249
9.963272174
9.963225229
9.963226529
9.963226474
9.963226287
9.963226193
9.963225346
9.96322528
9.963225057
9.963224588
9.963223594
9.963223873
9.963223225
9.96322348
9.96322293
9.9632674
9.963268075
9.963267882
9.963268505
9.963267553
9.963266814
9.963266675
9.963266399
9.963268244
9.963268167
9.963269001
9.963270176
9.963270508
9.963270228
9.963309329
9.963308736
9.963308569
9.963307323
9.963307045
9.963306878
9.963305489
9.963306293
9.963307326
9.963307368
9.963306486
9.963306698
9.96330719
9.963307005
9.963298089
9.963298115
9.963298514
9.963298465
9.963300259
9.963300172
9.963301069
9.963301606
9.963302436
9.963303083
9.963303085
9.963304222
9.963304556
9.963303802
9.963275496
9.963275338
9.963275159
9.963276315
9.963276423
9.963276604
9.963276659
9.963276858
9.963276212
9.963275927
9.963275121
9.963275513
9.963274215
9.96327316
9.963253156
9.963252399
9.963252001
9.963252604
9.963252772
9.963252775
9.963252063
9.963252961
9.963252862
9.963252316
9.963253184
9.963254342
9.963255632
9.96325524
9.963289454
9.963290926
9.963289011
9.963289977
9.963289814
9.963288979
9.963289184
9.963289664
9.963289567
9.963289635
9.963289601
9.96329024
9.963289377
9.963289937
9.963276641
9.963276918
9.963276629
9.963276341
9.963275688
9.963273979
9.963274696
9.963274707
9.963274538
9.963275239
9.963274313
9.963273666
9.963274022
9.963273271
9.963251707
9.963252626
9.963252989
9.963253213
9.963253356
9.96325375
9.963254099
9.963253783
9.963253756
9.963253982
9.963255139
9.963254364
9.963253435
9.963253725
9.963252434
9.963329069
9.963327384
9.963327388
9.963327439
9.963327057
9.963327087
9.963328263
9.963327471
9.963327797
9.963327793
9.963328245
9.96332879
9.963328515
9.963330573
9.963350423
9.963349484
9.963350159
9.963350543
9.963350648
9.963350365
9.963350411
9.963349337
9.963348542
9.963347507
9.963346866
9.963346581
9.96334555
9.963344972
9.963241492
9.963241653
9.963240883
9.963240713
9.963241177
9.963241459
9.963242146
9.963242574
9.96324202
9.963240507
9.96323938
9.963239093
9.963239651
9.963237551
9.963211926
9.963209938
9.963209538
9.963209473
9.963208278
9.963207362
9.963207156
9.963207454
9.963207728
9.963206234
9.963206916
9.963207047
9.963206574
9.9632068
9.963263993
9.963264219
9.963264174
9.963262326
9.96326194
9.963262108
9.963262031
9.96326227
9.963262883
9.963262987
9.963263148
9.963263167
9.963262521
9.963262122
9.963302424
9.963302548
9.963302208
9.963301646
9.963300112
9.963299541
9.963300056
9.963300502
9.963299947
9.963300817
9.963301745
9.963301452
9.963301152
9.963300961
9.963248825
9.963249169
9.963249906
9.96325054
9.963248489
9.963248973
9.963248692
9.963249666
9.963249555
9.963248405
9.963248113
9.963248944
9.963249368
9.963248761
9.963268579
9.963267551
9.963267638
9.963267103
9.963267648
9.963267369
9.963268256
9.963267664
9.963268325
9.963268029
9.963267444
9.963266822
9.963266178
9.963267384
9.963267958
9.963267773
9.963268371
9.963269379
9.963269592
9.96326841
9.963268027
9.963268614
9.963267588
9.963268659
9.96326716
9.963267417
9.963267905
9.963267159
9.963269261
9.963216748
9.963214799
9.963213604
9.963213497
9.963214913
9.963213878
9.963214415
9.963215554
9.963216309
9.963216434
9.963215578
9.96321579
9.963215879
9.963215756
9.963216633
9.963242446
9.963242635
9.963241561
9.963241332
9.963241935
9.963241448
9.963241617
9.96324197
9.963240781
9.96324127
9.963239621
9.963240274
9.963239818
9.96323933
9.963256369
9.963256236
9.963258097
9.963257292
9.963256763
9.963256708
9.963255823
9.963255079
9.96325489
9.963254274
9.963254373
9.963254111
9.963255447
9.963254443
9.963265116
9.963265763
9.963265178
9.963265139
9.963264851
9.963265809
9.963265504
9.96326592
9.963266506
9.963267728
9.963267968
9.9632679
9.963266726
9.96326669
9.963299923
9.963300447
9.963300072
9.963300905
9.963299787
9.963301819
9.963303119
9.963302545
9.963302253
9.963302436
9.963302787
9.963300293
9.96330073
9.963300187
9.963304101
9.963304408
9.963304603
9.963304244
9.963304051
9.963303628
9.963303669
9.963304006
9.963302452
9.963302591
9.963301957
9.963301887
9.963302243
9.963302459
9.96332507
9.963325557
9.963324043
9.963324418
9.963324055
9.963323321
9.963323844
9.963323003
9.96332283
9.963323453
9.963322862
9.963322998
9.963322734
9.963322488
9.963289313
9.963288786
9.963289477
9.963290332
9.963291065
9.963290026
9.963290209
9.963288644
9.963289434
9.963288924
9.963288029
9.963286645
9.963288273
9.96328876
9.963300587
9.963301079
9.963300268
9.963300272
9.963300079
9.963299962
9.963299933
9.963299552
9.963298587
9.96329801
9.963298492
9.963299214
9.963299229
9.963300015
9.963300075
9.96330444
9.963304131
9.963305425
9.963304834
9.963304594
9.963304304
9.963304392
9.963305036
9.963304451
9.963306458
9.963306789
9.963307446
9.963307577
9.963306962
9.963306884
9.963288435
9.963287746
9.963287856
9.963287994
9.963289894
9.963289499
9.963289813
9.963289461
9.963290649
9.963291525
9.963290495
9.963289872
9.963290069
9.963288967
9.963290025
9.96322515
9.963225257
9.9632259
9.963224938
9.963225338
9.963225845
9.963226362
9.963225718
9.963225177
9.963224071
9.963225552
9.963225901
9.963226621
9.963226541
9.963362366
9.963363552
9.963363311
9.963363851
9.963365191
9.96336501
9.963363299
9.963364393
9.963363822
9.963363977
9.963364015
9.963364039
9.963362877
9.963362868
9.963295705
9.963294962
9.963295416
9.96329582
9.963296468
9.963297056
9.963297614
9.963298319
9.963298782
9.963297622
9.963297381
9.963296059
9.963296911
9.963296593
9.963295775
9.963296668
9.963297143
9.963296287
9.963295295
9.963295571
9.963294481
9.963295488
9.963294607
9.963294265
9.963295118
9.963294984
9.963295423
9.96329611
9.963237901
9.963237691
9.963237542
9.963237974
9.963237732
9.963237607
9.963238514
9.963238427
9.963238981
9.963238809
9.963237308
9.963236687
9.963236044
9.963235197
9.96330472
9.96330363
9.963303124
9.963303742
9.963302767
9.963303518
9.96330369
9.963304886
9.963304992
9.963304754
9.963304448
9.963303962
9.963305743
9.96330646
9.963277909
9.963278796
9.96327966
9.963280357
9.963279542
9.96327943
9.963280419
9.963279387
9.96328125
9.963281231
9.963282251
9.963282055
9.963281561
9.963280152
9.963280598
9.963261576
9.963260513
9.963259535
9.963258804
9.963259537
9.963259692
9.963260246
9.963261086
9.963260405
9.963261267
9.963260084
9.963260962
9.963261846
9.963260962
9.963261834
9.96324478
9.963244305
9.963243394
9.963244065
9.963243577
9.963243967
9.963244259
9.963242739
9.963243205
9.963242007
9.963242338
9.963243349
9.963242622
9.963243913
9.963245311
9.96332564
9.963325657
9.96332583
9.963325436
9.963327382
9.963327766
9.963327432
9.963329452
9.96332848
9.963330826
9.963331077
9.963331928
9.963333085
9.963334248
9.963334514
9.990447138
9.990467509
9.990488728
9.990506345
9.990525342
9.990544773
9.990564777
9.990582656
9.990601667
9.990619737
9.990638322
9.990656276
9.990672551
9.990690855
9.963291474
9.963290803
9.96329062
9.963290755
9.963291826
9.96329195
9.963291716
9.963292187
9.963291102
9.963292403
9.96329264
9.963293369
9.963293213
9.96329153
9.963245608
9.963243749
9.963243075
9.963244262
9.963244897
9.963246916
9.9632461
9.963246761
9.963248431
9.963248669
9.96324821
9.963248221
9.963246992
9.963248279
9.963242462
9.963242207
9.963240977
9.963240487
9.963240824
9.963241649
9.963241724
9.963240113
9.963239616
9.96323912
9.963238901
9.963239162
9.963239161
9.963240621
9.963296362
9.963295497
9.963295603
9.963295682
9.963296052
9.963295317
9.963295962
9.963296061
9.96329417
9.963294112
9.963295358
9.96329514
9.963293287
9.963293278
9.963224725
9.963224092
9.963224612
9.963223767
9.963222326
9.963222236
9.963221964
9.963222181
9.963221029
9.963221262
9.963220969
9.963221925
9.963221908
9.96322304
9.963223304
9.963280285
9.963279082
9.963277993
9.963278231
9.963277482
9.963275855
9.963275348
9.963277542
9.963276067
9.963275145
9.963275312
9.963275769
9.963275453
9.96327686
9.963277807
9.963264319
9.963264108
9.963263759
9.963263822
9.963263744
9.96326486
9.963265911
9.963267163
9.963267335
9.963268148
9.963268222
9.96326799
9.963268051
9.963268365
9.963268447
9.963280163
9.963277982
9.963278686
9.963278074
9.963277716
9.963277075
9.963278684
9.963277938
9.963279221
9.963277784
9.96327719
9.963277102
9.963278371
9.963276965
9.963276459
9.963255682
9.963255383
9.963256455
9.96325697
9.963256988
9.963255685
9.96325513
9.96325486
9.96325436
9.963255618
9.963255807
9.963255943
9.963257182
9.96325773
9.963258658
9.963313499
9.963313252
9.963314074
9.963314507
9.963313872
9.963315028
9.963315454
9.963315774
9.963317073
9.963316576
9.963316604
9.963315949
9.96331447
9.963314966
9.963314838
9.963287686
9.963285921
9.963286064
9.96328587
9.963285231
9.963284936
9.963283917
9.963283815
9.963285813
9.963286222
9.963286606
9.963286159
9.963286652
9.963286263
9.963222602
9.963222978
9.963223788
9.963222819
9.963223844
9.963224261
9.963223639
9.963224285
9.963226004
9.963226526
9.963225873
9.963226013
9.963227279
9.963226975
9.963264269
9.963264336
9.963265844
9.963265882
9.96326537
9.963264917
9.96326303
9.96326301
9.963263496
9.963263638
9.963263707
9.963262969
9.963263157
9.963262782
9.96330119
9.96330027
9.963301535
9.963301894
9.963301939
9.963300465
9.963301214
9.963301674
9.963301213
9.963298906
9.963298499
9.963298274
9.963296502
9.963295748
9.963297234
9.963329375
9.963330518
9.963330225
9.963329656
9.963330243
9.963329731
9.963331126
9.963330264
9.963330993
9.963331949
9.963332681
9.963332081
9.963330217
9.963331061
9.963331445
9.963257198
9.96325908
9.963258741
9.96325789
9.963258236
9.963259111
9.963259586
9.963259597
9.963259327
9.963259603
9.963259879
9.963258481
9.963257894
9.963257561
9.963257412
9.963242633
9.963242934
9.963241437
9.963241222
9.963240298
9.963240742
9.963241311
9.963241612
9.963241148
9.963242389
9.963243838
9.963244069
9.963244533
9.963244118
9.963244948
9.963256501
9.963254764
9.963254261
9.963253795
9.963253655
9.963251564
9.963251577
9.963252399
9.963252226
9.963251679
9.963252019
9.963252899
9.963254224
9.963253813
9.963253394
9.963280413
9.96328009
9.963280393
9.963280895
9.963282306
9.963282342
9.963282842
9.963284107
9.963284434
9.963284159
9.963285228
9.963284463
9.963284643
9.963284786
9.963286052
9.963293572
9.963295641
9.963295267
9.963293396
9.963294414
9.96329232
9.963292212
9.963292422
9.963291316
9.9632909
9.963290056
9.963289208
9.963289549
9.963289474
9.963289358
9.963275012
9.963273707
9.963273415
9.963273951
9.963273531
9.963271377
9.963270906
9.963270928
9.96327106
9.963271972
9.963271621
9.963271792
9.963271709
9.963272813
9.963286284
9.96328574
9.963285324
9.963285171
9.963286901
9.963287019
9.963287375
9.963289119
9.963288579
9.963288725
9.96328918
9.963289374
9.963291457
9.963292134
9.963281867
9.963281607
9.963280812
9.963279879
9.963279528
9.96327935
9.963280793
9.963280056
9.963279688
9.963279871
9.963279471
9.963278529
9.963278363
9.963279205
9.963276994
9.963280485
9.963280549
9.963280509
9.963280403
9.963280962
9.963281409
9.963281125
9.96328107
9.9632821
9.963282639
9.963282807
9.963282877
9.963283826
9.963282101
9.963282542
9.96330285
9.963302718
9.963303277
9.963303275
9.963301945
9.963303425
9.963304246
9.963305209
9.963306078
9.963305938
9.963305811
9.963305336
9.963305525
9.963304112
9.963304031
9.963269809
9.963269224
9.963269356
9.963270646
9.963270279
9.963270553
9.963270954
9.96327076
9.963270827
9.963270999
9.963271134
9.963271585
9.96327046
9.96326973
9.963270484
9.963263238
9.963261962
9.96326221
9.963260977
9.963262213
9.963262145
9.963262948
9.963262862
9.963263208
9.963262064
9.963263137
9.963263285
9.963263205
9.963263134
9.963264373
9.963243353
9.963244453
9.963244841
9.96324482
9.963243977
9.963244301
9.963244621
9.96324364
9.96324404
9.96324559
9.963244139
9.963242719
9.963243029
9.963242833
9.963243755
9.963338414
9.963338492
9.963338677
9.96333747
9.963336488
9.963337556
9.963337371
9.963335821
9.963336263
9.963336854
9.963337355
9.963337054
9.963337105
9.963337125
9.96333608
9.963339806
9.963339819
9.963340622
9.963342043
9.963342938
9.963341743
9.963342987
9.963341267
9.963341054
9.963340969
9.963340365
9.963339505
9.963339741
9.96334021
9.963339009
9.963313802
9.963313937
9.963314675
9.963315142
9.963314503
9.963314404
9.963316274
9.963316583
9.963315368
9.963317056
9.963316271
9.963315126
9.963314956
9.963314029
9.963312434
9.96331233
9.963312067
9.96331045
9.963310801
9.96331192
9.963311693
9.963309994
9.96330988
9.963309345
9.963309141
9.963309699
9.963309195
9.963310342
9.963310106
9.963250244
9.963251268
9.963251699
9.963250507
9.963249833
9.963250951
9.963249715
9.963249929
9.963249813
9.963249486
9.963249872
9.963250505
9.963249183
9.963249069
9.963247962
9.963273354
9.963271828
9.963271977
9.963272363
9.963272257
9.963272474
9.963272366
9.963272563
9.963272636
9.96327381
9.963274028
9.963273303
9.963273703
9.963274171
9.963274063
9.963282258
9.96328094
9.963281462
9.963281874
9.963283127
9.963284089
9.963284129
9.963285146
9.963284303
9.96328429
9.963283673
9.963284509
9.963284078
9.9632844
9.963283353
9.963319101
9.963319335
9.963320113
9.963320774
9.963321564
9.963320953
9.963320628
9.96332072
9.963320298
9.963319126
9.96331869
9.96331923
9.963319268
9.963318986
9.963318604
9.963309092
9.963308822
9.963309041
9.963309318
9.963309255
9.963308204
9.963309177
9.963309378
9.963310642
9.963309985
9.963309917
9.963310596
9.963311867
9.963311378
9.963311559
9.963277284
9.963276986
9.963277763
9.963276281
9.963275968
9.963275194
9.963274663
9.963275886
9.963275899
9.963275185
9.963274877
9.963275017
9.963275795
9.963275254
9.963274497
9.963261271
9.963261776
9.9632601
9.963260229
9.963259606
9.963259219
9.96325987
9.963258744
9.963259848
9.963259431
9.963258923
9.963259264
9.963259138
9.963258694
9.963259229
9.963306787
9.96330628
9.963305937
9.963307395
9.963307189
9.963306568
9.963307009
9.963306626
9.963306895
9.963306838
9.963307347
9.963307251
9.963307609
9.963307588
9.963307224
)
;

boundaryField
{
    top
    {
        type            calculated;
        value           nonuniform List<scalar> 
127
(
9.963306787
9.963276641
9.963268579
9.963289313
9.96330472
9.963296362
9.963264269
9.963286284
9.963313802
9.96330628
9.963276918
9.963267551
9.963288786
9.96330363
9.963295497
9.963264336
9.96328574
9.963313937
9.963305937
9.963276629
9.963267638
9.963289477
9.963303124
9.963295603
9.963265844
9.963285324
9.963314675
9.963307395
9.963276341
9.963267103
9.963290332
9.963303742
9.963295682
9.963265882
9.963285171
9.963315142
9.963307189
9.963275688
9.963267648
9.963291065
9.963302767
9.963296052
9.96326537
9.963286901
9.963314503
9.963306568
9.963273979
9.963267369
9.963290026
9.963303518
9.963295317
9.963264917
9.963287019
9.963314404
9.963307009
9.963274696
9.963268256
9.963290209
9.96330369
9.963295962
9.96326303
9.963287375
9.963316274
9.963306626
9.963274707
9.963267664
9.963288644
9.963304886
9.963296061
9.96326301
9.963289119
9.963316583
9.963306895
9.963274538
9.963268325
9.963289434
9.963304992
9.96329417
9.963263496
9.963288579
9.963315368
9.963306838
9.963275239
9.963268029
9.963288924
9.963304754
9.963294112
9.963263638
9.963288725
9.963317056
9.963307347
9.963274313
9.963267444
9.963288029
9.963304448
9.963295358
9.963263707
9.96328918
9.963316271
9.963307251
9.963273666
9.963266822
9.963286645
9.963303962
9.96329514
9.963262969
9.963289374
9.963315126
9.963307609
9.963274022
9.963266178
9.963288273
9.963305743
9.963293287
9.963263157
9.963291457
9.963314956
9.963307588
9.963273271
9.963267384
9.96328876
9.96330646
9.963293278
9.963262782
9.963292134
9.963314029
9.963307224
)
;
    }
    bottom
    {
        type            calculated;
        value           nonuniform List<scalar> 
134
(
9.963251707
9.963267958
9.963300587
9.963277909
9.963224725
9.96330119
9.963281867
9.963312434
9.96327352
9.963252626
9.963267773
9.963301079
9.963278796
9.963224092
9.96330027
9.963281607
9.96331233
9.963274738
9.963252989
9.963268371
9.963300268
9.96327966
9.963224612
9.963301535
9.963280812
9.963312067
9.963274533
9.963253213
9.963269379
9.963300272
9.963280357
9.963223767
9.963301894
9.963279879
9.96331045
9.963274199
9.963253356
9.963269592
9.963300079
9.963279542
9.963222326
9.963301939
9.963279528
9.963310801
9.963273588
9.96325375
9.96326841
9.963299962
9.96327943
9.963222236
9.963300465
9.96327935
9.96331192
9.963273365
9.963254099
9.963268027
9.963299933
9.963280419
9.963221964
9.963301214
9.963280793
9.963311693
9.963272479
9.963253783
9.963268614
9.963299552
9.963279387
9.963222181
9.963301674
9.963280056
9.963309994
9.96327371
9.963253756
9.963267588
9.963298587
9.96328125
9.963221029
9.963301213
9.963279688
9.96330988
9.963273152
9.963253982
9.963268659
9.96329801
9.963281231
9.963221262
9.963298906
9.963279871
9.963309345
9.963273458
9.963255139
9.96326716
9.963298492
9.963282251
9.963220969
9.963298499
9.963279471
9.963309141
9.963273358
9.963254364
9.963267417
9.963299214
9.963282055
9.963221925
9.963298274
9.963278529
9.963309699
9.96327309
9.963253435
9.963267905
9.963299229
9.963281561
9.963221908
9.963296502
9.963278363
9.963309195
9.96327249
9.963253725
9.963267159
9.963300015
9.963280152
9.96322304
9.963295748
9.963279205
9.963310342
9.963272174
9.963252434
9.963269261
9.963300075
9.963280598
9.963223304
9.963297234
9.963276994
9.963310106
)
;
    }
    side-walls
    {
        type            calculated;
        value           nonuniform List<scalar> 
261
(
9.96327352
9.963225229
9.9632674
9.963309329
9.963298089
9.963275496
9.963253156
9.963289454
9.963276641
9.963274738
9.963226529
9.963268075
9.963308736
9.963298115
9.963275338
9.963252399
9.963290926
9.963276918
9.963274533
9.963226474
9.963267882
9.963308569
9.963298514
9.963275159
9.963252001
9.963289011
9.963276629
9.963274199
9.963226287
9.963268505
9.963307323
9.963298465
9.963276315
9.963252604
9.963289977
9.963276341
9.963273588
9.963226193
9.963267553
9.963307045
9.963300259
9.963276423
9.963252772
9.963289814
9.963275688
9.963273365
9.963225346
9.963266814
9.963306878
9.963300172
9.963276604
9.963252775
9.963288979
9.963273979
9.963272479
9.96322528
9.963266675
9.963305489
9.963301069
9.963276659
9.963252063
9.963289184
9.963274696
9.96327371
9.963225057
9.963266399
9.963306293
9.963301606
9.963276858
9.963252961
9.963289664
9.963274707
9.963273152
9.963224588
9.963268244
9.963307326
9.963302436
9.963276212
9.963252862
9.963289567
9.963274538
9.963273458
9.963223594
9.963268167
9.963307368
9.963303083
9.963275927
9.963252316
9.963289635
9.963275239
9.963273358
9.963223873
9.963269001
9.963306486
9.963303085
9.963275121
9.963253184
9.963289601
9.963274313
9.96327309
9.963223225
9.963270176
9.963306698
9.963304222
9.963275513
9.963254342
9.96329024
9.963273666
9.96327249
9.96322348
9.963270508
9.96330719
9.963304556
9.963274215
9.963255632
9.963289377
9.963274022
9.963272174
9.96322293
9.963270228
9.963307005
9.963303802
9.96327316
9.96325524
9.963289937
9.963273271
9.963312434
9.963250244
9.963273354
9.963282258
9.963319101
9.963309092
9.963277284
9.963261271
9.963306787
9.96331233
9.963251268
9.963271828
9.96328094
9.963319335
9.963308822
9.963276986
9.963261776
9.96330628
9.963312067
9.963251699
9.963271977
9.963281462
9.963320113
9.963309041
9.963277763
9.9632601
9.963305937
9.96331045
9.963250507
9.963272363
9.963281874
9.963320774
9.963309318
9.963276281
9.963260229
9.963307395
9.963310801
9.963249833
9.963272257
9.963283127
9.963321564
9.963309255
9.963275968
9.963259606
9.963307189
9.96331192
9.963250951
9.963272474
9.963284089
9.963320953
9.963308204
9.963275194
9.963259219
9.963306568
9.963311693
9.963249715
9.963272366
9.963284129
9.963320628
9.963309177
9.963274663
9.96325987
9.963307009
9.963309994
9.963249929
9.963272563
9.963285146
9.96332072
9.963309378
9.963275886
9.963258744
9.963306626
9.96330988
9.963249813
9.963272636
9.963284303
9.963320298
9.963310642
9.963275899
9.963259848
9.963306895
9.963309345
9.963249486
9.96327381
9.96328429
9.963319126
9.963309985
9.963275185
9.963259431
9.963306838
9.963309141
9.963249872
9.963274028
9.963283673
9.96331869
9.963309917
9.963274877
9.963258923
9.963307347
9.963309699
9.963250505
9.963273303
9.963284509
9.96331923
9.963310596
9.963275017
9.963259264
9.963307251
9.963309195
9.963249183
9.963273703
9.963284078
9.963319268
9.963311867
9.963275795
9.963259138
9.963307609
9.963310342
9.963249069
9.963274171
9.9632844
9.963318986
9.963311378
9.963275254
9.963258694
9.963307588
9.963310106
9.963247962
9.963274063
9.963283353
9.963318604
9.963311559
9.963274497
9.963259229
9.963307224
)
;
    }
    inlet
    {
        type            calculated;
        value           nonuniform 0();
    }
    outlet
    {
        type            calculated;
        value           nonuniform List<scalar> 
81
(
9.963272174
9.96322293
9.963270228
9.963307005
9.963303802
9.96327316
9.96325524
9.963289937
9.963273271
9.963252434
9.963330573
9.963344972
9.963237551
9.9632068
9.963262122
9.963300961
9.963248761
9.963267384
9.963269261
9.963216633
9.96323933
9.963254443
9.96326669
9.963300187
9.963302459
9.963322488
9.96328876
9.963300075
9.963306884
9.963290025
9.963226541
9.963362868
9.963296593
9.96329611
9.963235197
9.96330646
9.963280598
9.963261834
9.963245311
9.963334514
9.990690855
9.96329153
9.963248279
9.963240621
9.963293278
9.963223304
9.963277807
9.963268447
9.963276459
9.963258658
9.963314838
9.963286263
9.963226975
9.963262782
9.963297234
9.963331445
9.963257412
9.963244948
9.963253394
9.963286052
9.963289358
9.963272813
9.963292134
9.963276994
9.963282542
9.963304031
9.963270484
9.963264373
9.963243755
9.96333608
9.963339009
9.963314029
9.963310106
9.963247962
9.963274063
9.963283353
9.963318604
9.963311559
9.963274497
9.963259229
9.963307224
)
;
    }
    procBoundary1to0
    {
        type            processor;
        value           nonuniform List<scalar> 
97
(
9.963273507
9.963273507
9.963226113
9.963267155
9.963309515
9.963299161
9.963274951
9.96325203
9.963289583
9.963277288
9.963251437
9.963328542
9.963328542
9.963328542
9.963349627
9.963242077
9.963210933
9.96326328
9.963302378
9.963249159
9.963267697
9.963267381
9.963218198
9.963241382
9.963241382
9.963241382
9.963257568
9.963265574
9.96330116
9.963304276
9.963326352
9.963290398
9.963301049
9.963303283
9.963287601
9.963225699
9.963225699
9.963225699
9.963362693
9.963296342
9.963296376
9.963237389
9.963304679
9.963278328
9.963260548
9.963245288
9.963317751
9.99045425
9.99045425
9.99045425
9.963290805
9.963290805
9.963245649
9.963242241
9.963297126
9.963224072
9.963279802
9.963265069
9.963280185
9.963247721
9.963313963
9.963288768
9.963288768
9.963288768
9.963222205
9.96326446
9.963301924
9.963330671
9.963258088
9.963242885
9.963256257
9.963282811
9.963294047
9.963275237
9.963275237
9.963275237
9.963287612
9.963281549
9.963279724
9.963301747
9.963270802
9.963263243
9.963243278
9.963338476
9.96333899
9.963313169
9.963313169
9.963313169
9.963310602
9.963251273
9.963273595
9.963280973
9.963320057
9.963308042
9.963277417
9.963260559
9.963307108
)
;
    }
}


// ************************************************************************* //
