/*--------------------------------*- C++ -*----------------------------------*\
| =========                 |                                                 |
| \\      /  F ield         | OpenFOAM: The Open Source CFD Toolbox           |
|  \\    /   O peration     | Version:  4.x                                   |
|   \\  /    A nd           | Web:      www.OpenFOAM.org                      |
|    \\/     M anipulation  |                                                 |
\*---------------------------------------------------------------------------*/
FoamFile
{
    version     2.0;
    format      ascii;
    class       surfaceScalarField;
    location    "9000";
    object      phi;
}
// * * * * * * * * * * * * * * * * * * * * * * * * * * * * * * * * * * * * * //

dimensions      [1 0 -1 0 0 0 0];

internalField   nonuniform List<scalar> 
3172
(
9.475467153e-06
-7.180493924e-12
-8.12645754e-12
9.475484246e-06
-7.661252053e-12
-7.028520593e-12
9.475490069e-06
-5.917152782e-12
-5.559945653e-12
9.475495287e-06
-4.353510656e-12
-2.921703828e-12
9.475499909e-06
-4.051326359e-12
-2.579857732e-12
9.475502383e-06
-8.995582073e-13
5.736963873e-13
9.475499705e-06
-1.251118661e-12
5.394688987e-13
9.475500615e-06
5.960426828e-13
6.72194843e-13
9.475499028e-06
1.35230236e-12
1.270200561e-12
9.475495566e-06
2.536893651e-13
1.98671842e-12
9.475489552e-06
-2.512268518e-12
-2.104221454e-13
9.475487154e-06
-9.370212129e-13
1.698981418e-12
9.475483027e-06
1.2943398e-12
3.026571897e-12
1.521813128e-12
2.481537317e-12
9.475431286e-06
-1.241643183e-11
-6.657151632e-12
9.475445463e-06
-1.191953275e-11
-9.476069067e-12
9.475451603e-06
-7.33118998e-12
-6.241983058e-12
9.475455506e-06
-3.932793993e-12
-4.148551744e-12
9.47545819e-06
-3.616665259e-13
7.387061384e-14
9.475454835e-06
-3.005803529e-13
-5.843924309e-13
9.47545282e-06
-5.039633038e-13
1.722557447e-12
9.475452621e-06
8.563008596e-14
1.867128124e-12
9.475448942e-06
1.886403416e-12
1.666370757e-12
9.475440215e-06
1.900164776e-12
3.15639723e-13
9.475440007e-06
3.252853847e-12
7.326842093e-13
9.475436254e-06
3.459328611e-12
1.990667621e-12
9.475433249e-06
2.422856515e-12
3.115907622e-12
3.222001189e-12
2.733079814e-12
9.475495057e-06
-7.991640702e-12
-9.199715139e-12
9.47550426e-06
-1.122345129e-11
-1.442925665e-11
9.475505645e-06
-4.364465347e-12
-4.902139772e-12
9.475502733e-06
-1.631837003e-12
-7.853490781e-13
9.475497995e-06
-5.076034712e-13
2.552167309e-12
9.475492694e-06
-7.330836174e-13
2.303365898e-12
9.475487367e-06
1.572982506e-12
4.024696309e-12
9.475487002e-06
1.303172456e-12
3.811127033e-12
9.475482439e-06
1.208811015e-12
2.422118188e-12
9.475475744e-06
2.179596689e-12
7.356047225e-13
9.475477865e-06
3.320446338e-12
2.446490068e-12
9.475473879e-06
2.653031376e-12
2.292442668e-12
9.475473416e-06
4.358949748e-12
4.398054702e-12
3.902204501e-12
3.466800444e-12
9.475541163e-06
-7.187152734e-13
1.03117031e-11
9.475548691e-06
-1.862141756e-12
-1.704000746e-11
9.475545903e-06
-5.934765035e-14
-4.163645163e-12
9.47554063e-06
2.627593556e-12
3.119366473e-12
9.475532066e-06
1.151509403e-12
4.234633565e-12
9.47552596e-06
1.153967103e-12
6.011120042e-12
9.475518207e-06
-8.107955782e-13
4.900725288e-12
9.4755172e-06
-1.026171043e-12
5.397391458e-12
9.475515159e-06
9.656547747e-14
4.984094192e-12
9.475508362e-06
-6.716287708e-13
1.963197557e-12
9.475505292e-06
9.498402461e-13
2.122225375e-12
9.475504692e-06
1.536879973e-12
2.878116309e-12
9.475504565e-06
1.947920375e-12
5.394281113e-12
2.195417421e-12
3.794865653e-12
9.475570099e-06
1.44817183e-12
4.411179482e-11
9.475556213e-06
7.853926944e-13
1.334329895e-11
9.475544208e-06
-1.178331326e-12
1.887645269e-11
9.475530221e-06
-2.187726086e-12
1.768790475e-11
9.475521737e-06
-2.376363505e-12
1.357168892e-11
9.475514635e-06
-1.8010516e-12
1.076572572e-11
9.475510552e-06
3.100094612e-13
7.224246275e-12
9.475509304e-06
1.70763854e-12
6.502303584e-12
9.475506061e-06
-1.188990968e-12
4.670494749e-12
9.475502708e-06
-2.229438105e-12
3.967411887e-12
9.475502156e-06
-7.989728266e-13
2.228875951e-12
9.475500911e-06
8.279097269e-13
1.863932405e-12
9.475500638e-06
1.43019464e-12
4.285882716e-12
-4.55782337e-13
2.556402726e-12
9.475508112e-06
6.054330806e-12
9.534073745e-12
9.475517543e-06
1.049204187e-11
-1.626417318e-11
9.475516585e-06
5.232256502e-12
-3.789001793e-12
9.475509957e-06
1.334370241e-12
2.731516858e-12
9.475504397e-06
1.231452287e-12
5.07536106e-12
9.475496446e-06
6.437517235e-13
5.5372302e-12
9.475491669e-06
1.568268489e-13
5.243081993e-12
9.475486784e-06
2.810412071e-13
6.050286696e-12
9.475482238e-06
4.359562002e-13
4.885664327e-12
9.475480323e-06
-7.443585114e-13
4.064837497e-12
9.475477633e-06
-8.780310339e-13
3.568256482e-12
9.475475601e-06
-2.779402898e-12
1.994051303e-12
9.475472059e-06
-4.226213714e-12
2.514781569e-12
-4.131425187e-12
2.953094773e-12
9.475477767e-06
1.071233919e-11
-9.731857038e-12
9.475488034e-06
1.09996261e-11
-1.386557944e-11
9.475489473e-06
6.858165257e-12
-4.375003989e-12
9.475488127e-06
3.468489143e-12
1.177652191e-12
9.475484145e-06
2.408554922e-12
2.901545851e-12
9.475477465e-06
2.041973137e-12
3.869570767e-12
9.475475254e-06
6.855976607e-13
4.799587783e-12
9.475469674e-06
-1.022204128e-12
2.944201053e-12
9.475465927e-06
-5.439415917e-13
3.174441704e-12
9.475465913e-06
-1.040318299e-12
3.188703432e-12
9.475462453e-06
-1.344472097e-12
3.611201825e-12
9.475460522e-06
-2.342784086e-12
4.232875171e-12
9.475457995e-06
-1.97645102e-12
4.378075234e-12
-2.376654065e-12
4.199672751e-12
9.475489497e-06
7.92180818e-12
-6.923809268e-12
9.475504512e-06
7.140848016e-12
-1.004767395e-11
9.47551125e-06
4.195777618e-12
-8.044913412e-12
9.47551495e-06
2.456022427e-12
-3.876722548e-12
9.47551799e-06
1.326365845e-12
-2.769286237e-12
9.475515733e-06
1.173289503e-12
-1.072493771e-12
9.475514435e-06
1.96589632e-12
-1.461979651e-12
9.475512917e-06
2.585998738e-12
1.697906346e-12
9.475508049e-06
1.095842497e-12
1.785402556e-12
9.475505923e-06
2.254430199e-13
1.391669991e-12
9.475503187e-06
-2.077974119e-12
1.934825656e-12
9.475499265e-06
-1.83157402e-12
2.987332781e-12
9.475494511e-06
-2.348889085e-12
2.470760509e-12
-2.147673388e-12
2.632688673e-12
9.475469224e-06
-8.159881307e-12
9.475484331e-06
-8.695602193e-12
9.47549362e-06
-5.037938506e-12
9.475499212e-06
-2.858431479e-12
9.475502709e-06
-1.922568536e-12
9.475504442e-06
-9.694048946e-13
9.475503199e-06
-1.82146124e-12
9.475500515e-06
-1.378211688e-12
9.475497964e-06
-2.446069732e-14
9.475495968e-06
1.104853782e-12
9.475493513e-06
1.753923911e-12
9.475490153e-06
3.947190287e-12
9.475484377e-06
2.41020465e-12
1.699428265e-12
9.475446035e-06
-4.264505191e-11
9.475456762e-06
-4.498311197e-12
-1.000135297e-11
9.47547105e-06
-9.581296563e-12
-1.205453338e-11
9.475476195e-06
-6.404113914e-12
-9.112084222e-12
9.475480448e-06
-3.410437407e-12
-6.261614131e-12
9.475484634e-06
-2.682141619e-12
-2.275356699e-12
9.475482668e-06
-1.41320092e-12
-8.230468026e-13
9.475478801e-06
3.547312345e-13
6.489346429e-13
9.475479998e-06
1.657901618e-12
2.06594905e-12
9.475475314e-06
1.794684845e-12
1.410338421e-12
9.475470941e-06
9.254444172e-13
1.526917464e-12
9.475469217e-06
-1.160612371e-13
2.317528595e-12
9.475465584e-06
-3.898076994e-13
2.638526845e-12
9.475460549e-06
2.140590076e-12
3.446414696e-12
2.550091322e-12
3.570426822e-12
9.47553861e-06
-4.53081577e-12
-6.376371317e-12
9.475550892e-06
-1.518676628e-11
-1.662994931e-11
9.475553774e-06
-7.955289581e-12
-9.150775201e-12
9.475553767e-06
-2.766420721e-12
-4.976108447e-12
9.475552084e-06
6.677102146e-13
-5.252540679e-13
9.47555021e-06
1.659466889e-12
6.414017711e-13
9.475544688e-06
2.082056679e-12
2.31394026e-12
9.475542427e-06
3.048873159e-12
3.289148345e-12
9.475539269e-06
2.989732354e-12
2.750661055e-12
9.475534865e-06
3.104630659e-12
3.362800923e-12
9.475535193e-06
4.58492556e-12
4.01208476e-12
9.475532542e-06
4.324266516e-12
2.798494169e-12
9.475528161e-06
5.22047317e-12
3.871875025e-12
4.815038427e-12
4.612695064e-12
9.475595401e-06
6.682427654e-12
-5.648924865e-12
9.475595032e-06
-9.697004377e-12
-1.860818289e-11
9.475585222e-06
-2.236101804e-12
-2.84523133e-12
9.475576231e-06
2.180013636e-12
4.028065744e-12
9.475565879e-06
2.108310722e-12
7.071352232e-12
9.475560943e-06
3.316902573e-12
8.918487499e-12
9.475555325e-06
3.033260887e-12
8.9020899e-12
9.475552037e-06
2.320208906e-12
7.281544913e-12
9.475548774e-06
3.477553447e-12
5.801922764e-12
9.475543938e-06
2.489904635e-12
5.16262721e-12
9.475545059e-06
3.49658901e-12
5.172711834e-12
9.475543578e-06
3.271283145e-12
4.005482863e-12
9.475540424e-06
5.024345628e-12
5.126668353e-12
3.873509156e-12
4.453287527e-12
9.47548878e-06
2.382502632e-11
5.963212589e-11
9.475486905e-06
4.550144693e-12
-2.976350513e-11
9.475474175e-06
4.022650707e-12
-1.978890272e-12
9.475461895e-06
6.044213527e-12
1.072467942e-11
9.475450795e-06
4.291666484e-12
1.301849129e-11
9.475444481e-06
3.456375118e-12
1.328108003e-11
9.475441683e-06
9.90503719e-13
1.169090849e-11
9.475442678e-06
1.863408799e-12
1.035350029e-11
9.475438598e-06
9.118962357e-13
7.561167449e-12
9.475436677e-06
1.922777569e-12
5.556259353e-12
9.475437596e-06
9.105030069e-14
4.957111986e-12
9.475440322e-06
1.104971021e-12
5.80769371e-12
9.475438524e-06
1.510904582e-12
6.267481002e-12
2.45658601e-12
5.651655803e-12
9.475515357e-06
-2.491646753e-11
2.666395823e-10
9.475462843e-06
-5.939756256e-12
7.361115188e-11
9.475435602e-06
-5.750129783e-12
5.516691239e-11
9.475418143e-06
-6.880349511e-12
4.432485769e-11
9.47540768e-06
-4.421062443e-12
2.966182748e-11
9.475401748e-06
-4.462063475e-12
2.030064129e-11
9.475402723e-06
-1.420532323e-12
1.648050107e-11
9.475402027e-06
2.334828799e-13
1.093606129e-11
9.475402043e-06
-1.937657659e-12
7.028627596e-12
9.475403977e-06
-1.715089361e-12
3.630069259e-12
9.475405301e-06
-7.959689093e-15
3.839111336e-12
9.475407837e-06
-3.665857791e-13
4.411969823e-12
9.475408229e-06
-1.733450091e-12
5.087617596e-12
-2.359557184e-12
3.901711236e-12
9.475506883e-06
-7.835536464e-12
6.168405618e-11
9.475506693e-06
9.865162631e-12
-2.777092801e-11
9.475495352e-06
2.024259981e-12
9.517147734e-13
9.475481608e-06
-6.072290995e-13
1.244567774e-11
9.475471796e-06
-1.031456717e-12
1.406819581e-11
9.475465552e-06
-1.553158203e-12
1.536117173e-11
9.475460738e-06
-9.331722553e-13
1.265468909e-11
9.475457859e-06
-4.295403983e-12
9.70525789e-12
9.475457025e-06
-2.593257351e-12
8.829406519e-12
9.4754591e-06
-2.906478796e-12
6.002806352e-12
9.475459663e-06
-2.465641549e-12
5.48843649e-12
9.475460962e-06
-1.836632864e-12
4.147110409e-12
9.47546148e-06
-3.906600865e-12
6.423455536e-12
-3.912243393e-12
5.938611263e-12
9.475547378e-06
4.117231835e-12
-3.383755213e-12
9.475547686e-06
1.403271922e-11
-1.795996666e-11
9.475540215e-06
6.228373924e-12
-7.492500116e-13
9.475529479e-06
1.149383368e-12
5.213506811e-12
9.475518971e-06
-8.915081947e-13
8.058364901e-12
9.475511298e-06
-1.58289168e-12
9.271533739e-12
9.475505913e-06
-4.731966821e-12
7.626609105e-12
9.475504382e-06
-2.894519763e-12
6.968771248e-12
9.475501835e-06
-2.365491713e-12
5.356414055e-12
9.475502233e-06
-3.18995283e-12
5.302053865e-12
9.47550102e-06
-3.093010196e-12
5.023935255e-12
9.475499338e-06
-3.097553015e-12
3.65231844e-12
9.475498083e-06
-4.133242153e-12
5.72200482e-12
-3.78965293e-12
4.497137557e-12
9.475463598e-06
6.606064281e-12
-5.520022573e-12
9.475475262e-06
8.850584931e-12
-1.40793258e-11
9.475480802e-06
6.056594513e-12
-6.716013584e-12
9.475480242e-06
3.208384444e-12
-1.945475693e-12
9.475477854e-06
1.896279513e-12
-5.734530624e-13
9.475471298e-06
7.795786959e-13
1.20840635e-12
9.475471423e-06
2.928071669e-13
2.691308126e-12
9.475468248e-06
-5.852626673e-13
2.467528786e-12
9.475463585e-06
-1.740510905e-12
3.098369033e-12
9.475460674e-06
-7.566920464e-13
3.874391178e-12
9.475458281e-06
-2.310968894e-12
3.263671867e-12
9.475455571e-06
-1.847702759e-12
2.419658277e-12
9.475452969e-06
-2.856639302e-12
4.135298906e-12
-3.86820962e-12
4.120330043e-12
9.475469757e-06
-1.040176145e-11
9.475485131e-06
-1.072289342e-11
9.475490977e-06
-7.065074875e-12
9.475496793e-06
-2.848736023e-12
9.475496654e-06
-2.365001491e-12
9.475496227e-06
-3.472250764e-12
9.475494218e-06
-1.970628055e-12
9.475491081e-06
-3.220543399e-13
9.475487625e-06
3.658847549e-14
9.475484752e-06
1.641304232e-12
9.475482328e-06
1.518178342e-12
9.475476989e-06
1.619485347e-12
9.475472478e-06
3.316903713e-12
3.857618156e-12
9.475487595e-06
-7.411938809e-11
-5.340695008e-11
9.475493353e-06
-9.822399641e-12
-5.968641594e-12
9.475504167e-06
-1.440489395e-11
-1.038987292e-11
9.475505033e-06
-3.711891754e-12
-6.813742639e-12
9.475504091e-06
6.105731151e-13
-2.420417835e-12
9.475499231e-06
1.4555584e-12
1.830817807e-13
9.475494682e-06
2.473041326e-12
9.023347581e-13
9.475487677e-06
3.538598587e-12
7.546473575e-13
9.475486068e-06
4.374751551e-12
1.736343001e-12
9.475481817e-06
4.758821314e-12
2.658393048e-12
9.475476809e-06
3.608643782e-12
1.728433968e-12
9.475475052e-06
3.086185684e-12
2.137191012e-12
9.475473878e-06
2.075011809e-12
1.970554501e-12
9.475468789e-06
2.98971732e-12
1.998237679e-12
4.51285861e-12
2.184802923e-12
9.475483665e-06
-9.817912143e-11
9.475465408e-06
-2.696983371e-12
6.75889744e-12
9.475464304e-06
-1.631803824e-11
-9.52016682e-12
9.475455376e-06
-1.388696538e-12
-3.533961153e-12
9.475448111e-06
6.46563573e-12
9.028620709e-13
9.475438378e-06
8.066767141e-12
2.010959221e-12
9.475432277e-06
9.334842267e-12
3.179369071e-12
9.47542561e-06
8.942861368e-12
3.703354247e-12
9.475422781e-06
7.938696973e-12
4.722310163e-12
9.47542195e-06
6.437637668e-12
3.591971723e-12
9.475419408e-06
5.422629403e-12
1.88424033e-12
9.475420172e-06
5.584059043e-12
2.11587753e-12
9.475420054e-06
5.670363388e-12
4.019562452e-12
9.475418491e-06
6.879910786e-12
2.905525386e-12
4.288492755e-12
3.77995739e-12
9.475554194e-06
3.645368647e-11
3.421370258e-11
9.475513719e-06
1.351652355e-12
2.342843297e-12
9.475476792e-06
1.858966395e-11
1.872055379e-11
9.475453094e-06
1.949303608e-11
1.904188301e-11
9.475437866e-06
1.55622492e-11
1.441475347e-11
9.475431988e-06
1.193164479e-11
1.145481268e-11
9.475429124e-06
8.519769254e-12
8.260535097e-12
9.475429532e-06
7.309232174e-12
7.964845705e-12
9.475431982e-06
5.154099187e-12
5.011914139e-12
9.475432527e-06
4.269843461e-12
4.067203419e-12
9.475435649e-06
4.32295355e-12
1.58577417e-12
9.47543992e-06
5.952172852e-12
2.687173716e-12
9.475439929e-06
4.897462963e-12
2.001573046e-12
5.391617317e-12
3.930744721e-12
9.475541762e-06
9.987884372e-11
2.187450967e-10
9.475487929e-06
3.24722697e-11
-1.633247052e-12
9.475449526e-06
2.68791744e-11
2.791352265e-11
9.475430301e-06
2.046610394e-11
3.009195585e-11
9.475422651e-06
1.113470782e-11
2.12783763e-11
9.475422806e-06
6.519919592e-12
1.561428276e-11
9.47542769e-06
4.582803367e-12
1.181909124e-11
9.475432598e-06
2.139553503e-12
7.922930993e-12
9.475439139e-06
2.532481099e-12
4.821278124e-12
9.475443514e-06
9.41609975e-13
3.540077602e-12
9.475448815e-06
7.867167447e-13
1.804789563e-12
9.475453233e-06
1.152325408e-12
1.949606944e-12
9.475458522e-06
2.352177351e-12
4.396452294e-12
9.196226328e-13
3.642974462e-12
9.475648575e-06
-9.859511235e-11
1.084014461e-09
9.475450962e-06
-3.155778346e-11
3.362180415e-10
9.475402763e-06
-2.569281262e-11
1.613935795e-10
9.475396482e-06
-1.999090443e-11
9.13588551e-11
9.475406099e-06
-1.2378086e-11
4.579043561e-11
9.475420901e-06
-6.153429165e-12
2.446438181e-11
9.475431855e-06
-4.434980346e-12
1.280445757e-11
9.47544229e-06
-2.139602599e-12
8.726404586e-12
9.475449896e-06
-1.081813327e-12
4.520537536e-12
9.475457434e-06
-8.858427372e-13
2.444369459e-12
9.475464287e-06
5.14176642e-13
2.04254119e-12
9.475467791e-06
-1.691765118e-12
2.459572824e-12
9.475471129e-06
-1.321410206e-12
4.348233117e-12
-2.723818453e-13
4.714213768e-12
9.47558162e-06
-3.745492414e-11
2.179198983e-10
9.475527171e-06
-1.756256195e-12
-3.004862515e-12
9.475488433e-06
-2.000598452e-11
2.56441174e-11
9.475470271e-06
-1.952433656e-11
2.839756949e-11
9.475465521e-06
-1.385813301e-11
2.101904335e-11
9.475466937e-06
-1.183449271e-11
1.434134054e-11
9.47547217e-06
-9.181014718e-12
9.948140215e-12
9.475478274e-06
-7.820461593e-12
8.113661375e-12
9.475482428e-06
-6.709357912e-12
5.779795487e-12
9.475490374e-06
-4.47182756e-12
4.331084221e-12
9.475492622e-06
-3.799441204e-12
2.622974182e-12
9.475499474e-06
-3.482310423e-12
4.094235054e-12
9.475500901e-06
-5.319678226e-12
4.394585306e-12
-5.759653692e-12
4.255313023e-12
9.475613483e-06
2.805059136e-12
3.655969796e-11
9.475573247e-06
1.707818463e-11
1.86718986e-12
9.475536979e-06
1.139268214e-12
1.770999538e-11
9.475513694e-06
-5.735637132e-12
1.813741768e-11
9.475497173e-06
-9.444544474e-12
1.394998556e-11
9.475488322e-06
-9.80198257e-12
9.045402003e-12
9.475485659e-06
-9.357981674e-12
8.316626296e-12
9.475487937e-06
-6.583383703e-12
7.301965099e-12
9.47549115e-06
-5.394866235e-12
6.361968099e-12
9.475493776e-06
-3.635540547e-12
3.52171207e-12
9.475495614e-06
-4.768900222e-12
1.986031542e-12
9.475496536e-06
-4.144961801e-12
3.840819225e-12
9.475497362e-06
-5.235951677e-12
5.410668686e-12
-4.241689747e-12
4.911765039e-12
9.475571282e-06
1.056092241e-11
9.651075489e-12
9.475570614e-06
1.322327429e-11
-9.703956884e-12
9.475561759e-06
3.782925303e-12
-3.039592051e-12
9.475550079e-06
-5.792966579e-13
3.133181851e-13
9.475543019e-06
-8.13863682e-13
2.777106757e-12
9.475533367e-06
-4.943832042e-12
3.611785967e-12
9.475529712e-06
-4.822896301e-12
3.73532062e-12
9.475524629e-06
-3.120153472e-12
1.904899539e-12
9.475524392e-06
-4.371040644e-12
1.315133884e-12
9.475519734e-06
-3.410199771e-12
8.981929679e-13
9.475520551e-06
-4.114578433e-12
1.785314895e-12
9.475519315e-06
-2.350558909e-12
2.2169646e-12
9.475517645e-06
-3.296008503e-12
5.324048301e-12
-3.570079894e-12
3.113341586e-12
9.475514386e-06
-5.600606427e-12
9.475525309e-06
-8.109038068e-12
9.475526103e-06
-3.336420405e-12
9.475523528e-06
-1.868793638e-12
9.475518362e-06
-1.644731349e-12
9.47551419e-06
-1.470441697e-14
9.475511897e-06
2.103007049e-12
9.475505215e-06
1.114509422e-12
9.475503024e-06
9.167119878e-13
9.475495151e-06
-3.933055979e-13
9.475494159e-06
4.463114492e-13
9.475491097e-06
2.089459744e-12
9.475486101e-06
2.162346434e-12
2.260000892e-12
9.475548542e-06
-1.043610104e-10
-5.147787587e-11
9.475530213e-06
9.077846163e-12
-2.175560221e-12
9.475538807e-06
-1.662880712e-11
-1.335681221e-12
9.475539149e-06
-3.418841512e-12
2.593527782e-12
9.475534387e-06
1.87785158e-12
3.049681751e-12
9.475526637e-06
4.730766563e-12
2.836038287e-13
9.475519572e-06
5.915324869e-12
9.043813501e-13
9.475512779e-06
6.43068728e-12
5.685176746e-13
9.475509364e-06
6.747172649e-12
3.331448344e-13
9.475503202e-06
4.67402579e-12
-7.44683202e-13
9.475502415e-06
3.694466369e-12
5.626060836e-13
9.475500705e-06
2.515968015e-12
1.331454268e-12
9.475498979e-06
3.352511973e-12
3.075403719e-12
9.475498337e-06
4.392928971e-12
1.885901412e-12
4.423142147e-12
1.633704412e-12
9.475614197e-06
-2.436103589e-10
-1.012536362e-10
9.475547968e-06
6.052027296e-11
2.29520723e-11
9.475542978e-06
-2.64928475e-11
3.529701424e-12
9.475534307e-06
2.662013483e-12
5.021688767e-12
9.475522544e-06
1.412501976e-11
5.957204739e-12
9.475511405e-06
1.482104575e-11
3.773749104e-12
9.475506297e-06
1.467594272e-11
2.236815602e-12
9.475501675e-06
1.143890193e-11
4.909466195e-13
9.475499617e-06
9.703680078e-12
1.212853472e-12
9.475497872e-06
7.016413775e-12
1.304352715e-13
9.4755e-06
6.071050803e-12
1.078143609e-12
9.475501907e-06
4.428464185e-12
1.441488504e-12
9.475501606e-06
3.808786008e-12
1.793899813e-12
9.475504162e-06
5.727553625e-12
2.373440464e-12
5.283646174e-12
1.363383741e-12
9.475792669e-06
-3.109163265e-10
9.475572057e-06
2.191783729e-10
9.98967105e-11
9.475512701e-06
-3.939683619e-12
3.142545852e-11
9.475476524e-06
2.716265419e-11
2.708875002e-11
9.4754589e-06
3.096324557e-11
1.948182063e-11
9.475453322e-06
2.264550727e-11
1.139257777e-11
9.475453146e-06
1.619936276e-11
5.216902628e-12
9.475460454e-06
1.167231508e-11
5.36788564e-12
9.475465277e-06
7.05404915e-12
3.343853676e-12
9.475471697e-06
4.687298336e-12
2.305908393e-12
9.475475906e-06
3.573234932e-12
1.986428473e-12
9.475482508e-06
4.340547475e-12
2.705609525e-12
9.475485877e-06
4.426215552e-12
1.850206041e-12
9.475491353e-06
7.092172539e-12
2.031907097e-12
6.041641011e-12
1.773177641e-12
9.475288636e-06
4.201124452e-10
4.208019381e-10
9.475322135e-06
-1.826127354e-11
-1.678150293e-11
9.475334349e-06
2.134676316e-11
2.357646578e-11
9.47534615e-06
2.415135882e-11
2.444458402e-11
9.475362687e-06
1.329526228e-11
1.218622055e-11
9.475379661e-06
7.056929178e-12
5.868125789e-12
9.475394347e-06
3.521812777e-12
2.542260834e-12
9.475403434e-06
2.027878673e-12
2.672786748e-12
9.475413986e-06
2.880424921e-12
2.446304048e-12
9.475420713e-06
1.804940267e-12
2.36141223e-12
9.47542797e-06
1.98578973e-12
2.190121632e-12
9.475434142e-06
2.51806876e-12
1.973118672e-13
9.475439929e-06
2.441426506e-12
1.114080296e-12
2.630068559e-12
1.896204296e-12
9.47523765e-06
-4.202039235e-10
3.322272423e-09
9.475277437e-06
1.747571422e-11
2.680653701e-10
9.475378101e-06
-2.337216111e-11
1.088511322e-10
9.475446469e-06
-2.441463358e-11
7.365368134e-11
9.475487844e-06
-1.329165454e-11
2.849557481e-11
9.475516473e-06
-8.36172024e-12
1.096660315e-11
9.475535486e-06
-4.932536989e-12
3.007998507e-12
9.475546759e-06
-2.418942703e-12
1.356466629e-12
9.475554373e-06
-8.236408781e-13
1.130782049e-12
9.475560907e-06
-4.971216091e-14
1.556578101e-12
9.47556587e-06
-1.037451453e-12
5.932219496e-13
9.475569058e-06
-1.232700568e-12
-7.38170027e-13
9.475573922e-06
-2.382614527e-12
-2.406667604e-14
-2.012323138e-12
-2.680862956e-13
9.475354404e-06
-2.187357745e-10
4.208546636e-10
9.475387893e-06
3.556608997e-12
-1.595893677e-11
9.475401305e-06
-2.788692954e-11
2.371683452e-11
9.47541468e-06
-3.004882511e-11
2.487986085e-11
9.475429483e-06
-2.068618816e-11
1.278412817e-11
9.475447461e-06
-1.736592599e-11
6.318069878e-12
9.475464405e-06
-1.155964594e-11
3.523507791e-12
9.475474648e-06
-9.682363341e-12
6.824195944e-13
9.475481965e-06
-6.725556917e-12
1.092536857e-12
9.475489328e-06
-4.811191889e-12
1.603387336e-12
9.475496028e-06
-3.902776846e-12
2.146935348e-12
9.47549925e-06
-3.24656508e-12
1.139682424e-13
9.475506625e-06
-4.461648383e-12
-2.93334244e-14
-5.302640745e-12
1.352428848e-12
9.475578281e-06
-6.073098193e-11
9.971036608e-11
9.475521439e-06
2.733414317e-11
3.160766099e-11
9.475486719e-06
-7.916419112e-13
2.751434564e-11
9.475466778e-06
-1.26437139e-11
2.129532603e-11
9.475455538e-06
-1.581641204e-11
1.105267633e-11
9.475460264e-06
-1.270649037e-11
6.54353528e-12
9.475464298e-06
-1.180660954e-11
3.124502998e-12
9.475470611e-06
-1.00362937e-11
2.173607843e-12
9.47547627e-06
-8.40752607e-12
1.417142497e-12
9.475482639e-06
-5.658603606e-12
1.813252847e-12
9.475488602e-06
-5.09663326e-12
1.318946951e-12
9.475492047e-06
-5.586303477e-12
9.924370691e-13
9.475494944e-06
-6.470271989e-12
5.593911852e-13
-5.685014341e-12
6.391097822e-13
9.475482227e-06
-1.010415551e-11
2.240857365e-11
9.475481447e-06
1.868804244e-11
3.408892842e-12
9.475471288e-06
5.761712121e-12
5.030413761e-12
9.475457505e-06
-1.36162005e-12
6.852510766e-12
9.475448283e-06
-4.567796465e-12
3.758438181e-12
9.475439904e-06
-7.155530106e-12
1.375233937e-12
9.475436254e-06
-5.826363739e-12
2.639371952e-12
9.475434774e-06
-4.556393305e-12
1.989258055e-12
9.475435046e-06
-4.756687604e-12
1.95398665e-13
9.475433091e-06
-5.271208895e-12
7.969816768e-13
9.475433242e-06
-4.717430378e-12
9.62708138e-14
9.475436388e-06
-2.935332768e-12
1.777597475e-12
9.475432545e-06
-5.065693262e-12
-4.091283707e-13
-4.825358114e-12
1.594642767e-12
9.475534762e-06
-2.557790857e-12
9.475542681e-06
-3.604389433e-12
9.47554131e-06
-8.240057752e-13
9.475535498e-06
2.177131661e-12
9.475527384e-06
1.446491445e-12
9.475522471e-06
1.089389472e-12
9.475516567e-06
-6.968126276e-14
9.47551316e-06
-8.317379893e-13
9.475508278e-06
-7.276329768e-13
9.475506595e-06
9.371103403e-13
9.475505944e-06
1.30115369e-13
9.475503166e-06
5.846075233e-13
9.475501076e-06
2.08648355e-12
1.599083877e-12
9.475594003e-06
-2.909131764e-10
4.983037486e-11
9.47554994e-06
4.37964541e-11
1.181423357e-12
9.475536646e-06
1.260075922e-11
2.865953448e-13
9.47552428e-06
1.853879062e-11
-7.571661784e-13
9.475511073e-06
1.743112245e-11
-1.83540852e-12
9.475503237e-06
1.425614435e-11
-2.166941701e-12
9.475495571e-06
1.055667399e-11
-2.846042731e-12
9.475489239e-06
8.33863582e-12
-2.398518322e-12
9.475486968e-06
8.178283572e-12
-2.40730212e-12
9.475485054e-06
5.837941097e-12
-1.962394617e-12
9.475483004e-06
3.888638632e-12
-1.809926958e-12
9.47548145e-06
3.170607999e-12
-1.607806976e-12
9.475477233e-06
3.4946433e-12
-2.625570927e-12
9.475478389e-06
5.486830214e-12
-3.893918965e-13
4.718756714e-12
-7.269665687e-13
9.475739603e-06
-8.126997774e-10
1.009109924e-10
9.475562515e-06
2.690277542e-10
-2.382866885e-11
9.475508133e-06
7.537312479e-11
-4.035746001e-12
9.4754817e-06
5.812551325e-11
-4.413380583e-12
9.475465766e-06
4.677226089e-11
-4.429167664e-12
9.475457219e-06
3.059886065e-11
-5.412402395e-12
9.475454776e-06
2.112801266e-11
-4.426561377e-12
9.475454115e-06
1.607582513e-11
-2.826062835e-12
9.475452448e-06
1.191354092e-11
-1.581756979e-12
9.475452405e-06
8.387147691e-12
-2.28063343e-13
9.475452681e-06
6.583907682e-12
-1.534499082e-13
9.475456568e-06
5.319249676e-12
-6.664614422e-13
9.475459626e-06
4.187237688e-12
-1.698193011e-12
9.475460564e-06
5.3612301e-12
-2.074129541e-12
5.480138921e-12
-6.270802445e-13
9.476243336e-06
-2.247357849e-09
3.109761262e-10
9.475625959e-06
1.082975877e-09
-1.006706798e-10
9.47542885e-06
3.37171701e-10
-3.247034844e-11
9.475380063e-06
1.623326431e-10
-2.936956706e-11
9.47537556e-06
9.238548984e-11
-2.03302423e-11
9.475385192e-06
4.56559826e-11
-1.397924793e-11
9.475400558e-06
2.473116205e-11
-8.654758041e-12
9.475409131e-06
1.158400324e-11
-7.2575162e-12
9.475417232e-06
6.859540162e-12
-4.956418068e-12
9.475426273e-06
4.613001068e-12
-3.814225508e-12
9.475431697e-06
2.878125951e-12
-1.424730141e-12
9.475438124e-06
3.340404003e-12
-3.113518537e-13
9.475443537e-06
2.745315964e-12
-4.085454955e-13
9.475449734e-06
6.446081022e-12
-1.562512781e-12
5.977927506e-12
-1.848014181e-12
9.476598318e-06
5.001168654e-10
9.475202765e-06
3.32286923e-09
-4.217402684e-10
9.475240786e-06
2.661822214e-10
1.613396255e-11
9.475339611e-06
1.074663945e-10
-2.339400118e-11
9.475409887e-06
7.276362126e-11
-2.616705968e-11
9.475452456e-06
2.880426775e-11
-1.402824527e-11
9.475481323e-06
1.191413427e-11
-9.77784388e-12
9.475502875e-06
3.617863233e-12
-5.748209446e-12
9.475513529e-06
7.874803761e-13
-3.502342629e-12
9.475522753e-06
6.569268718e-13
-1.875729291e-12
9.475529028e-06
2.879898652e-13
-1.767937883e-12
9.475533981e-06
3.55328883e-13
-1.50247236e-12
9.47554272e-06
1.289175364e-12
5.032816297e-13
9.475549451e-06
1.815825692e-12
-1.400439758e-12
9.721786018e-13
-2.330026061e-12
9.499345267e-06
-3.322397623e-09
-3.324937554e-09
9.500433371e-06
-2.668709435e-10
-2.682728471e-10
9.500892002e-06
-1.087031501e-10
-1.096609282e-10
9.501202353e-06
-7.341383269e-11
-7.426996693e-11
9.501335068e-06
-2.941223788e-11
-3.006689083e-11
9.501398526e-06
-1.309737189e-11
-1.368809e-11
9.501438891e-06
-4.744860284e-12
-5.291971162e-12
9.501462268e-06
-3.346117021e-12
-3.583338713e-12
9.501483051e-06
-1.534220205e-12
-1.342603255e-12
9.501500956e-06
-8.525039991e-13
-9.54956487e-13
9.501523467e-06
6.03596343e-13
-8.298783651e-13
9.50154419e-06
-2.258684043e-13
8.581434576e-13
9.501565047e-06
-2.372804714e-12
-2.198926959e-12
-9.05855281e-13
-1.667217777e-12
9.475167557e-06
-1.084495438e-09
-4.212013066e-10
9.475205869e-06
-3.383731354e-10
1.687394039e-11
9.47530694e-06
-1.619491139e-10
-2.220169919e-11
9.475374517e-06
-9.135748244e-11
-2.540309022e-11
9.475418062e-06
-4.521109878e-11
-1.626095107e-11
9.475447758e-06
-2.386186767e-11
-9.398216996e-12
9.475467731e-06
-1.330293044e-11
-5.524034521e-12
9.475478299e-06
-7.72663145e-12
-3.860423196e-12
9.475486075e-06
-5.808486188e-12
-3.240354848e-12
9.475491566e-06
-4.473866891e-12
-2.073359681e-12
9.475496326e-06
-3.331192873e-12
-2.580819497e-12
9.475502383e-06
-1.513855818e-12
-6.403007919e-13
9.475508546e-06
-4.545509494e-12
-2.471444463e-12
-5.579908955e-12
-2.127600885e-12
9.475625318e-06
-2.692549071e-10
-1.002954974e-10
9.475428421e-06
-7.54369886e-11
-3.307861318e-11
9.475381231e-06
-5.75729801e-11
-2.732281054e-11
9.475373627e-06
-4.690690937e-11
-2.155640895e-11
9.475384524e-06
-3.207089582e-11
-1.381084746e-11
9.475399761e-06
-2.059522612e-11
-8.19628614e-12
9.475412693e-06
-1.3972653e-11
-5.318086234e-12
9.4754218e-06
-1.087542228e-11
-3.861810553e-12
9.475431972e-06
-7.260927967e-12
-3.635444982e-12
9.475437644e-06
-5.337446325e-12
-2.488598668e-12
9.475445068e-06
-5.879348501e-12
-1.421405341e-12
9.475447904e-06
-5.245870451e-12
-2.528363729e-12
9.475452418e-06
-6.31232408e-12
-2.122230169e-12
-4.216470788e-12
-1.031052164e-12
9.47554274e-06
-4.395417942e-11
-2.335772905e-11
9.475490985e-06
-1.329259943e-11
-3.940972575e-12
9.475464983e-06
-1.920253155e-11
-5.95100248e-12
9.475444019e-06
-1.845814421e-11
-7.386317403e-12
9.475437629e-06
-1.260041473e-11
-4.152520858e-12
9.475434943e-06
-1.058421486e-11
-4.547338663e-12
9.47543307e-06
-9.06988223e-12
-3.599949037e-12
9.475431771e-06
-7.558489697e-12
-3.100285023e-12
9.475433066e-06
-5.578063406e-12
-1.341119937e-12
9.475433035e-06
-4.61283237e-12
-1.016636256e-12
9.475437076e-06
-5.102997411e-12
-6.603789427e-13
9.475436373e-06
-3.765810925e-12
-2.781804533e-12
9.475439644e-06
-3.079589919e-12
-1.730815249e-12
-4.998918119e-12
-2.014676443e-12
9.475565664e-06
8.77319528e-13
9.475554089e-06
9.631825982e-13
9.475539822e-06
-1.875137544e-12
9.475526744e-06
-3.518833027e-12
9.475516416e-06
-2.774333957e-12
9.475508508e-06
-1.366166929e-12
9.475504017e-06
-2.109116253e-12
9.47549898e-06
-2.29311753e-12
9.475496868e-06
-3.194464554e-13
9.475493679e-06
-1.794000923e-12
9.475496121e-06
-1.894398145e-12
9.475492942e-06
-2.600402306e-12
9.475487431e-06
-1.790263726e-12
-1.00592721e-12
9.475475977e-06