/*--------------------------------*- C++ -*----------------------------------*\
| =========                 |                                                 |
| \\      /  F ield         | OpenFOAM: The Open Source CFD Toolbox           |
|  \\    /   O peration     | Version:  4.x                                   |
|   \\  /    A nd           | Web:      www.OpenFOAM.org                      |
|    \\/     M anipulation  |                                                 |
\*---------------------------------------------------------------------------*/
FoamFile
{
    version     2.0;
    format      ascii;
    class       volScalarField;
    location    "9000";
    object      T;
}
// * * * * * * * * * * * * * * * * * * * * * * * * * * * * * * * * * * * * * //

dimensions      [0 0 0 1 0 0 0];

internalField   nonuniform List<scalar> 
1174
(
1223.150732
1223.150626
1223.150573
1223.150704
1223.150685
1223.150812
1223.150836
1223.150728
1223.150636
1223.150784
1223.150782
1223.150843
1223.15091
1223.150867
1223.156664
1223.156532
1223.156562
1223.156575
1223.156607
1223.156499
1223.156685
1223.156718
1223.156766
1223.156902
1223.156903
1223.156982
1223.156994
1223.157042
1223.151439
1223.15147
1223.151388
1223.151377
1223.151364
1223.151527
1223.151623
1223.15157
1223.151351
1223.151361
1223.15131
1223.151238
1223.151164
1223.151258
1223.146334
1223.146314
1223.146424
1223.146619
1223.14661
1223.146734
1223.146765
1223.146758
1223.146589
1223.146559
1223.14668
1223.146616
1223.146672
1223.146618
1223.147778
1223.14787
1223.147754
1223.14772
1223.147611
1223.147546
1223.14736
1223.147395
1223.147224
1223.147172
1223.147154
1223.14705
1223.146831
1223.146854
1223.150514
1223.150657
1223.150576
1223.150374
1223.150412
1223.150481
1223.150236
1223.150472
1223.150419
1223.150489
1223.150444
1223.150476
1223.150672
1223.150703
1223.153235
1223.15327
1223.153359
1223.153317
1223.153259
1223.153222
1223.153283
1223.153229
1223.153265
1223.153398
1223.153152
1223.153207
1223.153087
1223.152936
1223.148788
1223.148578
1223.148647
1223.1487
1223.148747
1223.148758
1223.148826
1223.148873
1223.148757
1223.14869
1223.148683
1223.148727
1223.148802
1223.148714
1223.150335
1223.150322
1223.15037
1223.150432
1223.150474
1223.150572
1223.150537
1223.150592
1223.150623
1223.150602
1223.150657
1223.150698
1223.150725
1223.150752
1223.153431
1223.15331
1223.153199
1223.153204
1223.153326
1223.153154
1223.153155
1223.153137
1223.153256
1223.153117
1223.153074
1223.153138
1223.153211
1223.15324
1223.153375
1223.143928
1223.144029
1223.144136
1223.144113
1223.144196
1223.144101
1223.144137
1223.144096
1223.144082
1223.144044
1223.144181
1223.143969
1223.143896
1223.143735
1223.141259
1223.141534
1223.141311
1223.141235
1223.14119
1223.141262
1223.141288
1223.141459
1223.141571
1223.141655
1223.141779
1223.141728
1223.141865
1223.142033
1223.154668
1223.154694
1223.154775
1223.154839
1223.154761
1223.154673
1223.154686
1223.154677
1223.154688
1223.154783
1223.154985
1223.155041
1223.154978
1223.155082
1223.158329
1223.158563
1223.158521
1223.158589
1223.158713
1223.158771
1223.159005
1223.158761
1223.158774
1223.15896
1223.15901
1223.158985
1223.158846
1223.158986
1223.1519
1223.151861
1223.152051
1223.152081
1223.152242
1223.152198
1223.152181
1223.151945
1223.152104
1223.15195
1223.152011
1223.152073
1223.152079
1223.152252
1223.14721
1223.147189
1223.147145
1223.147336
1223.147441
1223.147387
1223.147392
1223.147446
1223.147506
1223.147486
1223.147228
1223.147283
1223.147279
1223.147378
1223.153823
1223.15382
1223.153723
1223.153629
1223.153775
1223.153697
1223.15382
1223.153694
1223.153785
1223.153868
1223.153863
1223.153868
1223.153853
1223.15373
1223.15148
1223.151426
1223.151531
1223.151517
1223.151434
1223.151386
1223.151418
1223.15149
1223.151379
1223.151408
1223.15149
1223.151542
1223.151568
1223.151531
1223.151477
1223.151479
1223.151338
1223.151291
1223.151213
1223.151324
1223.151375
1223.151362
1223.151499
1223.151444
1223.151474
1223.15146
1223.151465
1223.151438
1223.151292
1223.157714
1223.15797
1223.158074
1223.15807
1223.158084
1223.158074
1223.158041
1223.157905
1223.15774
1223.157632
1223.157959
1223.157925
1223.157899
1223.157753
1223.157702
1223.154614
1223.154588
1223.154662
1223.154688
1223.154564
1223.154759
1223.154703
1223.154713
1223.154775
1223.154806
1223.154831
1223.154841
1223.154816
1223.154995
1223.152824
1223.152846
1223.152726
1223.152713
1223.152824
1223.15273
1223.152893
1223.152976
1223.153048
1223.153024
1223.153067
1223.153095
1223.153036
1223.153111
1223.151824
1223.151743
1223.151778
1223.15179
1223.151865
1223.151755
1223.151755
1223.15179
1223.15164
1223.15151
1223.15146
1223.151481
1223.151494
1223.151539
1223.147516
1223.147376
1223.147375
1223.147414
1223.14746
1223.147365
1223.147242
1223.147158
1223.147168
1223.147276
1223.147258
1223.147516
1223.147494
1223.147545
1223.146962
1223.147085
1223.147013
1223.147008
1223.147007
1223.146952
1223.147018
1223.14701
1223.147197
1223.147179
1223.147308
1223.1473
1223.147156
1223.147122
1223.144432
1223.144363
1223.144455
1223.144408
1223.144646
1223.144669
1223.144614
1223.14463
1223.144665
1223.144709
1223.144613
1223.144673
1223.144607
1223.144651
1223.148864
1223.148934
1223.148711
1223.14867
1223.1487
1223.148779
1223.148802
1223.148893
1223.148828
1223.148805
1223.148901
1223.149075
1223.148862
1223.14888
1223.147426
1223.147463
1223.147479
1223.147472
1223.147538
1223.147508
1223.147536
1223.147602
1223.147676
1223.147659
1223.147687
1223.147611
1223.147658
1223.147496
1223.147469
1223.146901
1223.146844
1223.146849
1223.146884
1223.146951
1223.146953
1223.146998
1223.146897
1223.146878
1223.146776
1223.146723
1223.146616
1223.146506
1223.146589
1223.146507
1223.149064
1223.148937
1223.14894
1223.148856
1223.148794
1223.148709
1223.148713
1223.148744
1223.148659
1223.148575
1223.148718
1223.148695
1223.148804
1223.14885
1223.148781
1223.156733
1223.156643
1223.156669
1223.156663
1223.156618
1223.156582
1223.156458
1223.156634
1223.156647
1223.156806
1223.156712
1223.15661
1223.156562
1223.156523
1223.139841
1223.139731
1223.139708
1223.139593
1223.139463
1223.139562
1223.139741
1223.139656
1223.139704
1223.139639
1223.139665
1223.139523
1223.139624
1223.139713
1223.148157
1223.148133
1223.148158
1223.14815
1223.147968
1223.147947
1223.147956
1223.147825
1223.14774
1223.147817
1223.147811
1223.147932
1223.147958
1223.147942
1223.147854
1223.147775
1223.14791
1223.147995
1223.147975
1223.148068
1223.148012
1223.148044
1223.14812
1223.148144
1223.14818
1223.148029
1223.148123
1223.148048
1223.155111
1223.155235
1223.155297
1223.155158
1223.155217
1223.155113
1223.155152
1223.155034
1223.155007
1223.154888
1223.155094
1223.155233
1223.155352
1223.155439
1223.146838
1223.14693
1223.147082
1223.147055
1223.147134
1223.147219
1223.147072
1223.14695
1223.146966
1223.146973
1223.146957
1223.146914
1223.146843
1223.146847
1223.150189
1223.150107
1223.150041
1223.149926
1223.149994
1223.149923
1223.149918
1223.150049
1223.149822
1223.149779
1223.149718
1223.149801
1223.14979
1223.149869
1223.149855
1223.152268
1223.15238
1223.152455
1223.152494
1223.152479
1223.152454
1223.152478
1223.152407
1223.152422
1223.152419
1223.152317
1223.152228
1223.152295
1223.152345
1223.152265
1223.154214
1223.154294
1223.154391
1223.15437
1223.154467
1223.154358
1223.154413
1223.154317
1223.154386
1223.154588
1223.154567
1223.154493
1223.154476
1223.154489
1223.154276
1223.144298
1223.144361
1223.144367
1223.144332
1223.144233
1223.144148
1223.14405
1223.143939
1223.14389
1223.143753
1223.143749
1223.143522
1223.143468
1223.143344
1223.143375
1219.824126
1219.82181
1219.819191
1219.816948
1219.814546
1219.812341
1219.809813
1219.807581
1219.805305
1219.803017
1219.800965
1219.798817
1219.796627
1219.794359
1223.148533
1223.148679
1223.148621
1223.148499
1223.148543
1223.148617
1223.1485
1223.148553
1223.148557
1223.148472
1223.148409
1223.148448
1223.148324
1223.14834
1223.154149
1223.15445
1223.154367
1223.154308
1223.154277
1223.154147
1223.154127
1223.153993
1223.153814
1223.153794
1223.153778
1223.153897
1223.153954
1223.153913
1223.15467
1223.154541
1223.154682
1223.154696
1223.154733
1223.15463
1223.154769
1223.15493
1223.154869
1223.154951
1223.155029
1223.154997
1223.154971
1223.154874
1223.148084
1223.148183
1223.148112
1223.148111
1223.148103
1223.148093
1223.14804
1223.148035
1223.148054
1223.148193
1223.148182
1223.148094
1223.148271
1223.148406
1223.156784
1223.156718
1223.156776
1223.156789
1223.156902
1223.157027
1223.157051
1223.157066
1223.157178
1223.157136
1223.157165
1223.157066
1223.156979
1223.157032
1223.156955
1223.150051
1223.150112
1223.15017
1223.150266
1223.150252
1223.150428
1223.150454
1223.150351
1223.150318
1223.150475
1223.150429
1223.150492
1223.150493
1223.150495
1223.150257
1223.151988
1223.151965
1223.151986
1223.151892
1223.151903
1223.151854
1223.151674
1223.151473
1223.151494
1223.151478
1223.151358
1223.151472
1223.151467
1223.151344
1223.151391
1223.150101
1223.150219
1223.15024
1223.150267
1223.150323
1223.150215
1223.150178
1223.150115
1223.149981
1223.150186
1223.150407
1223.150477
1223.150206
1223.150367
1223.150401
1223.152863
1223.153109
1223.152941
1223.152942
1223.152859
1223.152858
1223.153006
1223.152959
1223.153132
1223.152978
1223.153
1223.152867
1223.152709
1223.152692
1223.152634
1223.145886
1223.145888
1223.145683
1223.145662
1223.145772
1223.14579
1223.145653
1223.145542
1223.145461
1223.145453
1223.145338
1223.145463
1223.145606
1223.145709
1223.145613
1223.149084
1223.149209
1223.149233
1223.149289
1223.149232
1223.14935
1223.149434
1223.149547
1223.149459
1223.149323
1223.149265
1223.149197
1223.149053
1223.149145
1223.156964
1223.156969
1223.156973
1223.156922
1223.156746
1223.156832
1223.156848
1223.1568
1223.156588
1223.156564
1223.156583
1223.156526
1223.156483
1223.156449
1223.151939
1223.151779
1223.151672
1223.151752
1223.151908
1223.151912
1223.152088
1223.152073
1223.151977
1223.151924
1223.151944
1223.151977
1223.152054
1223.151989
1223.147363
1223.147405
1223.147442
1223.147293
1223.147233
1223.1474
1223.147395
1223.147456
1223.147347
1223.147677
1223.147739
1223.147746
1223.147824
1223.147907
1223.147894
1223.143799
1223.143671
1223.143766
1223.143801
1223.143778
1223.1439
1223.143778
1223.143816
1223.143674
1223.143581
1223.14353
1223.143614
1223.143706
1223.143702
1223.143617
1223.152629
1223.152566
1223.152577
1223.152596
1223.152539
1223.15255
1223.1524
1223.152472
1223.152477
1223.152537
1223.152512
1223.152569
1223.152607
1223.152737
1223.152859
1223.154449
1223.154458
1223.15459
1223.154703
1223.154809
1223.154764
1223.154612
1223.154713
1223.154656
1223.154481
1223.154445
1223.154441
1223.154278
1223.154449
1223.154454
1223.152908
1223.153103
1223.153157
1223.15317
1223.15319
1223.153353
1223.153471
1223.153388
1223.153339
1223.153328
1223.153329
1223.153355
1223.153214
1223.15313
1223.153167
1223.149882
1223.149801
1223.149987
1223.149733
1223.149765
1223.149749
1223.149575
1223.149547
1223.149468
1223.149449
1223.149389
1223.149487
1223.149511
1223.149389
1223.149354
1223.14823
1223.14807
1223.148023
1223.148265
1223.148202
1223.148362
1223.148534
1223.148395
1223.148575
1223.148468
1223.148727
1223.148711
1223.148825
1223.148702
1223.148877
1223.150713
1223.150694
1223.150815
1223.150813
1223.15086
1223.150996
1223.151119
1223.151082
1223.151111
1223.150931
1223.150999
1223.150899
1223.150991
1223.150878
1223.149165
1223.149204
1223.1493
1223.149259
1223.149145
1223.149092
1223.148948
1223.148923
1223.148845
1223.14895
1223.148874
1223.14887
1223.148568
1223.148383
1223.149746
1223.149752
1223.149825
1223.150061
1223.150029
1223.149935
1223.149931
1223.149963
1223.150002
1223.149838
1223.149975
1223.150131
1223.150102
1223.15007
1223.15024
1223.14984
1223.149909
1223.149922
1223.14987
1223.14992
1223.149823
1223.149946
1223.149885
1223.149714
1223.149749
1223.149638
1223.149607
1223.149455
1223.149559
1223.14963
1223.147078
1223.147187
1223.147218
1223.14716
1223.147203
1223.147211
1223.147208
1223.14684
1223.146772
1223.146715
1223.146729
1223.146756
1223.146925
1223.147002
1223.147001
1223.151059
1223.151208
1223.151277
1223.151089
1223.151255
1223.151206
1223.151191
1223.151193
1223.151186
1223.151037
1223.150931
1223.15099
1223.151113
1223.151176
1223.15124
1223.151968
1223.152205
1223.152157
1223.152248
1223.152123
1223.15205
1223.15202
1223.151989
1223.152083
1223.152177
1223.152007
1223.151918
1223.151975
1223.151971
1223.152022
1223.154424
1223.154278
1223.154309
1223.154238
1223.154307
1223.154351
1223.154158
1223.154315
1223.154296
1223.154171
1223.154459
1223.15458
1223.154404
1223.154467
1223.154615
1223.142644
1223.142749
1223.142825
1223.142819
1223.142946
1223.142903
1223.142914
1223.143011
1223.142943
1223.142943
1223.142891
1223.142833
1223.14285
1223.142913
1223.143043
1223.142651
1223.142533
1223.142494
1223.142309
1223.142173
1223.142291
1223.14219
1223.142463
1223.142392
1223.142437
1223.142418
1223.142691
1223.142581
1223.14265
1223.142661
1223.145899
1223.145828
1223.145615
1223.145701
1223.145771
1223.14578
1223.145669
1223.145583
1223.145626
1223.145565
1223.14556
1223.145673
1223.145649
1223.145805
1223.146064
1223.145962
1223.146075
1223.146189
1223.146198
1223.146042
1223.145982
1223.146197
1223.146368
1223.146368
1223.146293
1223.146299
1223.146372
1223.146324
1223.146241
1223.153682
1223.153456
1223.153483
1223.153559
1223.153501
1223.153447
1223.153614
1223.153753
1223.15366
1223.153685
1223.153661
1223.153591
1223.153674
1223.153837
1223.153881
1223.150787
1223.150965
1223.150809
1223.150913
1223.150902
1223.150903
1223.150889
1223.15087
1223.150868
1223.150736
1223.150727
1223.15075
1223.150814
1223.150744
1223.150672
1223.149744
1223.14973
1223.149762
1223.149705
1223.149612
1223.149448
1223.149348
1223.149361
1223.149376
1223.149462
1223.14947
1223.149432
1223.149442
1223.149482
1223.149528
1223.145078
1223.145128
1223.145007
1223.144969
1223.144979
1223.144995
1223.145084
1223.145042
1223.145078
1223.145197
1223.145292
1223.145059
1223.145083
1223.145205
1223.145291
1223.146423
1223.146444
1223.146504
1223.146348
1223.146394
1223.14644
1223.146432
1223.146269
1223.146213
1223.146294
1223.146251
1223.146184
1223.146021
1223.146131
1223.145992
1223.150335
1223.150254
1223.150215
1223.150285
1223.150327
1223.15054
1223.15068
1223.15056
1223.150488
1223.150474
1223.150631
1223.150712
1223.150546
1223.150618
1223.150688
1223.152255
1223.152335
1223.152411
1223.152374
1223.152452
1223.152504
1223.15242
1223.152491
1223.152472
1223.15255
1223.152573
1223.152481
1223.152511
1223.152568
1223.152516
1223.14671
1223.146772
1223.146803
1223.146676
1223.146666
1223.146639
1223.14661
1223.146691
1223.14669
1223.146576
1223.146508
1223.146565
1223.146554
1223.146565
1223.146676
)
;

boundaryField
{
    top
    {
        type            zeroGradient;
    }
    bottom
    {
        type            zeroGradient;
    }
    side-walls
    {
        type            zeroGradient;
    }
    inlet
    {
        type            zeroGradient;
    }
    outlet
    {
        type            zeroGradient;
    }
    procBoundary1to0
    {
        type            processor;
        value           nonuniform List<scalar> 
97
(
1223.150733
1223.150733
1223.156555
1223.151568
1223.146358
1223.147541
1223.150552
1223.153337
1223.148834
1223.150172
1223.153541
1223.143955
1223.143955
1223.143955
1223.141419
1223.154568
1223.158498
1223.151982
1223.147197
1223.153754
1223.151422
1223.151456
1223.157597
1223.154581
1223.154581
1223.154581
1223.152812
1223.151743
1223.147442
1223.147072
1223.144263
1223.148664
1223.147525
1223.147032
1223.149028
1223.156654
1223.156654
1223.156654
1223.139835
1223.147939
1223.147866
1223.15514
1223.146888
1223.150175
1223.152384
1223.154188
1223.145362
1219.823641
1219.823641
1219.823641
1223.148727
1223.148727
1223.154118
1223.154602
1223.147842
1223.156843
1223.14983
1223.151836
1223.149833
1223.154032
1223.145801
1223.149031
1223.149031
1223.149031
1223.157046
1223.151884
1223.147269
1223.143742
1223.152801
1223.154591
1223.152842
1223.149626
1223.148183
1223.150545
1223.150545
1223.150545
1223.148935
1223.149681
1223.150005
1223.14729
1223.151205
1223.151975
1223.154593
1223.142776
1223.142846
1223.145792
1223.145792
1223.145792
1223.146113
1223.153482
1223.150747
1223.149761
1223.145094
1223.146412
1223.150298
1223.152299
1223.146527
)
;
    }
}


// ************************************************************************* //
