/*--------------------------------*- C++ -*----------------------------------*\
| =========                 |                                                 |
| \\      /  F ield         | OpenFOAM: The Open Source CFD Toolbox           |
|  \\    /   O peration     | Version:  4.x                                   |
|   \\  /    A nd           | Web:      www.OpenFOAM.org                      |
|    \\/     M anipulation  |                                                 |
\*---------------------------------------------------------------------------*/
FoamFile
{
    version     2.0;
    format      ascii;
    class       volVectorField;
    location    "9000";
    object      U;
}
// * * * * * * * * * * * * * * * * * * * * * * * * * * * * * * * * * * * * * //

dimensions      [0 1 -1 0 0 0 0];

internalField   nonuniform List<vector> 
1174
(
(0.0110001467 -4.24202891e-10 -1.985495822e-09)
(0.01100014625 -2.77002305e-09 -3.563710202e-09)
(0.01100014924 -3.597920779e-09 -3.405736084e-09)
(0.01100014101 -2.278416321e-09 -2.074233346e-09)
(0.01100012976 -3.248974553e-09 -2.939278871e-09)
(0.01100011134 -8.268579196e-10 -4.999223763e-11)
(0.01100008924 -6.062572067e-10 8.414239415e-10)
(0.01100006379 1.465257923e-10 7.169785326e-10)
(0.0110000352 7.984258423e-10 1.506562418e-09)
(0.01100000675 -1.72567899e-09 2.907731819e-09)
(0.01099997453 -3.032163134e-09 3.512219446e-10)
(0.01099994373 -1.070186316e-09 1.814625563e-09)
(0.01099992043 1.497045492e-09 1.835605367e-09)
(0.01099989108 7.335844195e-10 1.304931358e-09)
(0.01100015565 -2.010899462e-08 -1.114795648e-09)
(0.01100013977 -1.633566954e-08 -3.085848925e-09)
(0.01100014171 -1.078602858e-08 -4.503305698e-09)
(0.01100012367 -7.072050752e-09 -4.005982003e-09)
(0.01100010501 -4.406965331e-09 -3.649114984e-10)
(0.01100007572 -4.755302367e-10 -1.004927007e-09)
(0.01100004711 -1.186596184e-09 6.080162855e-10)
(0.01100001737 1.339871615e-09 9.446467088e-10)
(0.01099998548 2.394770388e-09 1.663656874e-09)
(0.01099995493 1.40342308e-09 -2.103347329e-10)
(0.0109999221 1.092902142e-09 2.360874782e-10)
(0.01099989504 1.732057683e-09 2.114676197e-09)
(0.01099986909 2.116945166e-09 1.919635298e-09)
(0.01099984582 4.195451051e-09 1.882662877e-09)
(0.01100017785 -7.284634258e-09 -2.232322505e-09)
(0.01100013679 -1.527112799e-08 -7.530311159e-09)
(0.01100012336 -8.437394126e-09 -5.556417696e-09)
(0.0110000867 -4.810484838e-09 -4.731042812e-09)
(0.01100005003 -1.224255723e-09 1.361012535e-09)
(0.01100000989 -1.601206545e-09 -2.860520536e-10)
(0.0109999695 1.229430669e-10 -3.504142325e-10)
(0.01099993361 2.008261929e-10 9.063135743e-11)
(0.01099989846 2.502576348e-09 -6.791595286e-10)
(0.01099986623 2.58731154e-09 -2.473978862e-09)
(0.01099983591 6.077952135e-09 -6.766510623e-10)
(0.01099981147 4.819661025e-09 -9.454567437e-10)
(0.01099978857 5.445246448e-09 2.470784864e-09)
(0.01099977208 6.107374686e-09 1.183087532e-09)
(0.01100018352 -1.308046804e-08 1.200219499e-08)
(0.01100010031 -7.602225011e-09 -1.055304015e-08)
(0.01100007966 -1.119477901e-09 -5.485552457e-09)
(0.01100003028 3.009094304e-09 -1.418066288e-09)
(0.01099997965 3.167363405e-09 -2.18237681e-09)
(0.01099992977 2.23422656e-09 1.6049702e-09)
(0.01099988391 7.838266986e-10 7.713095973e-10)
(0.01099984531 1.167125195e-09 2.300564708e-09)
(0.01099981224 -4.279464429e-11 1.177665263e-09)
(0.01099978206 1.159315113e-09 -3.346790259e-11)
(0.01099975441 2.009208579e-09 5.148604147e-10)
(0.01099973179 2.930252193e-09 1.271932536e-09)
(0.01099971749 3.156696223e-09 2.337000266e-09)
(0.01099970187 2.489581752e-09 2.846882749e-09)
(0.01100025207 4.777186466e-10 2.646586989e-08)
(0.01100010281 -1.191442486e-09 2.988443708e-09)
(0.01100006264 -1.851259685e-09 4.241146585e-09)
(0.01099999631 1.413956651e-10 3.804254918e-09)
(0.01099993709 -1.23669683e-09 3.701538252e-09)
(0.01099988816 -1.238344868e-09 2.392640146e-09)
(0.01099984073 9.825422448e-10 1.674568135e-10)
(0.0109998071 8.099410452e-10 1.423157004e-09)
(0.01099977276 -2.710769698e-10 8.256526688e-10)
(0.01099974357 -9.277157306e-10 2.54908692e-09)
(0.01099972013 -3.883769e-10 -7.900847466e-10)
(0.01099970079 1.650047919e-09 -9.726303261e-10)
(0.01099968695 3.389497741e-09 5.247207962e-10)
(0.01099967261 1.632614244e-09 -8.374944104e-10)
(0.01100018056 1.281014964e-08 1.261222496e-08)
(0.01100010122 7.879332754e-09 -8.718838003e-09)
(0.01100008136 4.330540612e-10 -4.695710488e-09)
(0.01100002741 -3.135883815e-09 -2.174794002e-09)
(0.01099997841 -2.22818988e-09 -3.20532401e-11)
(0.01099993189 -2.118988785e-09 1.260701783e-09)
(0.01099988252 -1.536600871e-09 1.305150226e-09)
(0.01099984614 -5.329463357e-10 2.671884423e-09)
(0.01099981022 -1.559922504e-09 1.527697261e-09)
(0.0109997814 -2.725414191e-09 2.76359984e-09)
(0.01099975557 -2.3518196e-09 1.93352679e-09)
(0.01099973549 -1.298824821e-09 -3.14750548e-10)
(0.01099971685 -2.863476367e-09 7.384480436e-10)
(0.01099970133 -2.76920666e-09 1.098865376e-09)
(0.01100017467 5.378107771e-09 -7.059989002e-10)
(0.01100013425 1.374945454e-08 -6.167891275e-09)
(0.01100012401 9.21296139e-09 -2.387517204e-09)
(0.01100008759 4.388577124e-09 -9.185686599e-10)
(0.01100005005 4.165136894e-09 -4.790989961e-10)
(0.01100000837 3.338137091e-09 1.404378392e-09)
(0.01099996896 1.348349178e-09 1.654188562e-09)
(0.01099993256 -4.795768161e-10 9.615572823e-10)
(0.01099989602 -2.002944417e-10 1.137821764e-09)
(0.01099986857 -1.591957307e-09 2.25120332e-09)
(0.01099983682 -2.239636716e-10 2.159973618e-09)
(0.01099981233 -4.498220745e-09 4.013640995e-09)
(0.01099978945 -4.273464063e-09 3.91664566e-09)
(0.0109997717 -5.046864783e-09 2.808498213e-09)
(0.01100015397 1.853824278e-08 -8.99347679e-10)
(0.01100013767 1.481540574e-08 -5.010492508e-09)
(0.01100014056 1.015795361e-08 -5.277869785e-09)
(0.01100012351 5.395128065e-09 -3.086521873e-09)
(0.0110001043 2.975300953e-09 -3.862889785e-09)
(0.01100007575 1.560952815e-09 -2.877288726e-09)
(0.01100004675 7.229224432e-10 -2.689985059e-09)
(0.01100001893 1.69409509e-09 -2.890193222e-10)
(0.01099998439 3.394245589e-10 2.122991183e-11)
(0.01099995426 -6.407695482e-10 2.837957209e-10)
(0.0109999231 -3.515032759e-09 8.445775871e-10)
(0.01099989375 -3.225861768e-09 1.110584257e-09)
(0.01099986996 -3.864200371e-09 1.680722381e-09)
(0.01099984288 -4.281895668e-09 1.526485925e-09)
(0.01100014476 1.782529843e-09 -2.259040272e-09)
(0.01100014311 2.992401096e-09 -5.074454521e-09)
(0.01100015111 4.845749266e-10 -3.926561519e-09)
(0.01100014133 9.08805396e-10 -2.006150502e-09)
(0.01100013134 3.323643776e-10 -2.838579779e-09)
(0.01100011476 1.36497224e-09 -1.013764679e-09)
(0.01100008897 1.346128234e-09 -2.157932899e-09)
(0.01100006418 1.549086987e-09 -1.125572106e-09)
(0.01100003445 6.939437057e-10 -1.522382479e-09)
(0.01100000349 -4.964268826e-10 1.345119399e-10)
(0.01099997726 -1.666908745e-09 1.083033602e-09)
(0.01099994927 -1.446648373e-11 2.631593025e-09)
(0.01099991913 -1.814178578e-09 2.635607529e-09)
(0.01099989357 -1.073822387e-09 1.313099951e-09)
(0.0110001152 -1.619825553e-08 -4.463212365e-08)
(0.01100015405 8.760366876e-10 -1.733938433e-08)
(0.01100014083 -4.019572546e-09 -1.378489017e-08)
(0.01100013992 -3.475307481e-09 -1.008738262e-08)
(0.01100012504 -1.662394538e-09 -5.973676599e-09)
(0.01100010313 -3.035995088e-09 -2.181160739e-09)
(0.01100007683 -7.708154562e-10 -2.563548745e-11)
(0.01100004553 -1.671870346e-10 3.247555775e-10)
(0.01100001753 1.111008244e-09 9.593221031e-10)
(0.01099998499 9.44347908e-10 1.66102062e-09)
(0.01099995243 1.263106903e-09 2.432904969e-09)
(0.01099992394 -1.05567088e-09 3.270618737e-09)
(0.01099989377 -3.483808371e-10 2.987570804e-09)
(0.01099986959 2.83753323e-09 4.591846388e-09)
(0.01099984302 1.353486082e-09 4.883372154e-09)
(0.01100016216 -1.525418793e-08 -1.783381974e-08)
(0.0110001206 -1.854693152e-08 -2.105933233e-08)
(0.01100011493 -1.115439098e-08 -1.17970461e-08)
(0.01100008216 -5.501719998e-09 -5.939763638e-09)
(0.0110000489 -1.398172214e-09 -7.780310243e-10)
(0.01100001109 -8.549307293e-11 -4.524176353e-10)
(0.01099997651 1.258490133e-09 3.287791445e-09)
(0.01099994097 3.023375765e-09 3.711493432e-09)
(0.01099990963 3.724240489e-09 2.905237521e-09)
(0.01099987663 3.519434198e-09 2.931084607e-09)
(0.01099985409 3.820293192e-09 4.258855668e-09)
(0.01099982669 3.5643692e-09 3.262894267e-09)
(0.01099980623 5.16832928e-09 5.85056043e-09)
(0.01099978367 6.358213993e-09 4.932860881e-09)
(0.01100019245 7.966195877e-09 -2.54964265e-08)
(0.01100008568 -2.07666009e-08 -2.57849885e-08)
(0.01100004935 -1.07455497e-08 -6.681944249e-09)
(0.01099998564 -3.45840803e-09 2.024725653e-09)
(0.01099992985 3.818195402e-10 5.944316421e-09)
(0.01099988036 2.162406036e-09 6.223105607e-09)
(0.01099983859 3.419638181e-09 9.046131724e-09)
(0.0109998057 2.725016942e-09 7.145178584e-09)
(0.01099977652 3.937982998e-09 7.118976975e-09)
(0.01099975433 4.635982065e-09 5.301016881e-09)
(0.0109997335 6.479133208e-09 6.236333524e-09)
(0.01099971865 6.085036143e-09 6.120980984e-09)
(0.01099970483 7.643245174e-09 6.962814625e-09)
(0.01099969692 6.551653249e-09 6.328028494e-09)
(0.01100015806 1.465869612e-08 1.113666875e-08)
(0.01099995648 3.494971264e-09 -3.10484881e-08)
(0.0109999176 7.644021082e-09 -3.042910955e-09)
(0.01099983495 1.095611187e-08 9.196916415e-09)
(0.01099977039 8.27775769e-09 1.199456205e-08)
(0.0109997196 7.243005327e-09 1.338504497e-08)
(0.0109996845 4.764495254e-09 1.277677475e-08)
(0.01099966238 4.814960321e-09 1.227934874e-08)
(0.01099964167 4.01335434e-09 1.144426492e-08)
(0.01099962838 3.120451085e-09 7.055781746e-09)
(0.01099961942 3.167585879e-09 7.431531023e-09)
(0.01099961616 2.999830703e-09 7.039200501e-09)
(0.01099961395 4.472518467e-09 8.446872964e-09)
(0.01099961138 2.87629416e-09 6.397839057e-09)
(0.01100027623 -1.033399367e-10 9.244557772e-08)
(0.01099987563 -6.001417979e-10 3.520876916e-08)
(0.01099981838 -6.012272236e-10 4.612762341e-08)
(0.01099972963 -4.195342915e-10 4.102508657e-08)
(0.01099967192 3.631253107e-10 3.014235544e-08)
(0.01099962909 -6.851265245e-10 2.239258289e-08)
(0.01099960652 -7.47083134e-10 1.802715663e-08)
(0.01099958931 1.172510347e-09 1.385071411e-08)
(0.01099957757 -1.1192939e-09 1.008692021e-08)
(0.01099957505 2.643124293e-11 6.816905074e-09)
(0.01099957224 -6.725349564e-10 6.01379711e-09)
(0.0109995725 -2.44375468e-10 6.006908346e-09)
(0.01099957489 -7.047924718e-10 7.688251453e-09)
(0.01099957553 -1.52328212e-10 5.175730101e-09)
(0.01100015354 -1.768773465e-08 1.085550983e-08)
(0.01099995168 -4.933227096e-09 -3.002056738e-08)
(0.01099991679 -8.995315304e-09 -1.971164135e-09)
(0.01099983417 -1.086140238e-08 1.010685524e-08)
(0.01099977202 -9.119976187e-09 1.268855804e-08)
(0.01099972195 -5.905922405e-09 1.459528724e-08)
(0.01099968515 -4.135989215e-09 1.288996493e-08)
(0.01099965713 -4.405655586e-09 1.260882717e-08)
(0.01099964095 -3.505934798e-09 1.084876462e-08)
(0.01099962523 -3.889951221e-09 7.372865556e-09)
(0.01099962097 -2.749305273e-09 6.964601841e-09)
(0.01099961583 -1.083147507e-09 7.014179697e-09)
(0.01099961369 -3.617884352e-09 7.259523461e-09)
(0.01099960956 -3.463667879e-09 6.265223985e-09)
(0.01100018659 -6.985935971e-09 -2.494781308e-08)
(0.01100008209 1.984231191e-08 -2.614166903e-08)
(0.01100004753 9.920680735e-09 -6.668058797e-09)
(0.01099998634 2.749766527e-09 3.441927685e-09)
(0.01099993132 2.011794172e-09 7.301396202e-09)
(0.01099987978 -6.486004473e-10 8.038612055e-09)
(0.01099983654 -2.213162128e-09 8.97396692e-09)
(0.01099980466 -4.657872975e-09 6.986954327e-09)
(0.01099977476 -2.653623052e-09 6.2508178e-09)
(0.0109997547 -3.977991042e-09 5.700511797e-09)
(0.01099973295 -2.678623971e-09 6.845309258e-09)
(0.01099971822 -4.116916348e-09 5.614603011e-09)
(0.01099970378 -6.123966681e-09 7.000980035e-09)
(0.01099969243 -5.158249202e-09 5.177724316e-09)
(0.01100016219 1.664479415e-08 -1.665301078e-08)
(0.01100012138 1.906830757e-08 -1.964653242e-08)
(0.01100011351 9.633703155e-09 -1.120278549e-08)
(0.01100008107 5.066081531e-09 -4.326686984e-09)
(0.01100004951 5.07810306e-10 -2.849974679e-09)
(0.01100000996 -1.237384404e-09 3.95852571e-10)
(0.01099997488 -2.989708803e-09 1.905154347e-09)
(0.01099994273 -2.046342426e-09 3.788971727e-09)
(0.01099990889 -4.072059125e-09 4.637814814e-09)
(0.01099987901 -3.669624738e-09 3.186672632e-09)
(0.01099985205 -4.31385637e-09 3.980372042e-09)
(0.01099982563 -3.814185089e-09 5.205008686e-09)
(0.01099980746 -5.31714803e-09 4.480685214e-09)
(0.01099978381 -5.426049775e-09 3.90470254e-09)
(0.0110001549 -6.190403487e-10 -1.846235335e-08)
(0.01100013879 4.137311403e-09 -1.605922613e-08)
(0.01100014075 3.215676346e-09 -8.637028722e-09)
(0.01100012506 2.007605499e-09 -4.002122688e-09)
(0.01100010583 1.96659851e-09 -3.089940584e-09)
(0.01100007696 1.854324259e-09 -2.344636686e-09)
(0.01100004601 1.065599827e-09 -1.446747545e-09)
(0.01100001705 -1.967888273e-11 -2.397049231e-10)
(0.01099998423 -1.609069742e-09 2.205884441e-09)
(0.01099995311 2.487919778e-10 2.799854845e-09)
(0.01099992361 -1.449100181e-09 2.3499058e-09)
(0.01099989416 -7.934948791e-10 4.58538354e-09)
(0.01099986928 -6.725203609e-10 3.374818477e-09)
(0.01099984381 -1.952178253e-09 3.840338857e-09)
(0.01100011805 -3.390289481e-08 -5.261918848e-08)
(0.01100017681 2.714485744e-09 -4.610839814e-09)
(0.01100013453 -6.74810697e-09 -1.569730025e-08)
(0.01100012249 -9.990369609e-10 -1.167063949e-08)
(0.01100008659 3.98188281e-10 -7.734910969e-09)
(0.01100005093 -2.080033936e-09 -3.299952863e-09)
(0.01100000913 1.588187762e-09 -8.928184204e-10)
(0.01099996977 2.939553973e-09 3.52621169e-10)
(0.01099993272 4.18343858e-09 3.058618488e-09)
(0.01099989822 5.098564393e-09 3.183151979e-09)
(0.0109998652 3.632351772e-09 2.340422659e-09)
(0.01099983782 3.113027501e-09 1.206238428e-09)
(0.01099981199 3.685698093e-09 3.23065487e-09)
(0.0109997898 4.252195974e-09 4.581923679e-09)
(0.0109997661 4.960502837e-09 4.238801487e-09)
(0.01100012652 -1.618580287e-07 -8.424147958e-08)
(0.0110001905 -2.538533062e-08 6.770275322e-09)
(0.01100008373 -2.538632023e-08 -2.102662689e-08)
(0.01100004658 -6.389358879e-09 -1.246420365e-08)
(0.01099998756 2.992688095e-09 -5.849386973e-09)
(0.01099993306 5.696257238e-09 -1.459155486e-09)
(0.01099988196 6.847023393e-09 1.124587076e-09)
(0.0109998391 7.225537951e-09 2.689279752e-09)
(0.01099980282 7.860078279e-09 4.49077411e-09)
(0.01099977414 7.902692918e-09 4.367557244e-09)
(0.01099975099 6.307531513e-09 4.013562203e-09)
(0.01099973411 5.923777946e-09 3.891520286e-09)
(0.01099971921 5.290646991e-09 5.263149602e-09)
(0.01099970508 6.798459542e-09 4.218163515e-09)
(0.01099969406 6.293278536e-09 5.66721489e-09)
(0.01100021793 2.080419197e-08 1.73697486e-08)
(0.01099993815 -2.633456178e-08 -2.690379208e-08)
(0.0109998452 -1.686268541e-10 -1.033424922e-09)
(0.0109997352 9.52208534e-09 8.020125896e-09)
(0.0109996602 1.081126551e-08 9.834944476e-09)
(0.01099961395 1.395666346e-08 1.261491028e-08)
(0.01099958158 1.301400763e-08 9.750971654e-09)
(0.01099956612 1.080267784e-08 1.080604722e-08)
(0.01099956075 7.223564074e-09 5.701279386e-09)
(0.01099955764 6.49425932e-09 6.131701804e-09)
(0.01099956092 7.073868803e-09 4.087534865e-09)
(0.01099956631 8.642818716e-09 4.487479932e-09)
(0.01099957081 7.676569061e-09 4.894154604e-09)
(0.01099957726 7.571558989e-09 5.008405077e-09)
(0.01100002838 1.025231822e-07 1.199155996e-07)
(0.01099950395 5.249016977e-08 -7.252820072e-08)
(0.01099943303 5.301557103e-08 -8.489052446e-09)
(0.01099932347 4.413636716e-08 1.476492136e-08)
(0.01099927955 2.912934895e-08 1.748052208e-08)
(0.01099927087 1.919858144e-08 1.767212467e-08)
(0.01099928283 1.204663912e-08 1.452174561e-08)
(0.01099930781 7.837391201e-09 1.127080314e-08)
(0.01099933536 6.249022785e-09 8.030809046e-09)
(0.01099936496 3.84602637e-09 5.565111797e-09)
(0.01099939473 3.706126494e-09 3.281954565e-09)
(0.01099942202 4.44587496e-09 5.381969901e-09)
(0.01099944457 5.256685801e-09 7.182148711e-09)
(0.01099946698 4.276652094e-09 6.561532227e-09)
(0.01100018304 4.258094496e-10 5.91505521e-07)
(0.01099905562 8.556677733e-10 4.788972832e-08)
(0.01099903495 1.638179858e-09 6.432901966e-08)
(0.01099899248 -5.25425045e-10 5.919810834e-08)
(0.0109990157 -1.363618117e-09 3.825940876e-08)
(0.0109990669 -4.657924717e-10 2.586120514e-08)
(0.01099912489 -4.121927252e-10 1.874000885e-08)
(0.01099917959 1.791316261e-10 1.156535054e-08)
(0.01099923153 1.40667514e-09 7.13277195e-09)
(0.01099927795 4.932984805e-11 3.268671741e-09)
(0.01099932296 5.236056954e-10 4.17968923e-09)
(0.01099936318 -4.384091388e-10 4.067749154e-09)
(0.01099939251 1.536104984e-09 5.925857305e-09)
(0.01099942411 5.317494505e-11 7.05313128e-09)
(0.01100002858 -1.017206451e-07 1.205704519e-07)
(0.01099950153 -5.233426135e-08 -7.240229054e-08)
(0.01099942932 -5.395347068e-08 -7.408795581e-09)
(0.01099932119 -4.252036276e-08 1.433118763e-08)
(0.01099927926 -2.764785875e-08 1.827004158e-08)
(0.01099927223 -1.776635656e-08 1.783350325e-08)
(0.01099928287 -1.219420067e-08 1.526443608e-08)
(0.01099930671 -9.123028389e-09 1.179939966e-08)
(0.01099933387 -5.651620201e-09 9.107446801e-09)
(0.01099936456 -3.805601582e-09 7.596052022e-09)
(0.01099939403 -3.056702871e-09 5.79437577e-09)
(0.01099942331 -3.780227824e-09 4.874662945e-09)
(0.01099944546 -5.03789972e-09 6.697105878e-09)
(0.01099946705 -4.134323964e-09 7.409662368e-09)
(0.01100021634 -2.121505676e-08 1.978826387e-08)
(0.01099993996 2.651047222e-08 -2.853936085e-08)
(0.01099984542 -1.571029274e-10 -1.697299431e-09)
(0.01099973543 -9.361298188e-09 8.218341374e-09)
(0.0109996608 -1.16517404e-08 1.011240002e-08)
(0.01099961106 -1.215786824e-08 1.054578158e-08)
(0.0109995805 -1.183388827e-08 1.025114034e-08)
(0.01099956479 -9.45107387e-09 9.877039258e-09)
(0.01099956022 -9.017856095e-09 7.9331316e-09)
(0.01099955954 -5.904311236e-09 5.666509063e-09)
(0.01099956305 -4.769842834e-09 3.8281846e-09)
(0.01099956634 -5.316794115e-09 5.967783655e-09)
(0.01099956769 -8.020848839e-09 8.195164738e-09)
(0.01099957239 -6.826314626e-09 6.939317097e-09)
(0.01100019068 2.462418094e-08 8.032056853e-09)
(0.01100008285 2.525093463e-08 -1.917357246e-08)
(0.01100005026 6.713090873e-09 -1.049498079e-08)
(0.01099998348 -2.260291189e-09 -5.060997236e-09)
(0.0109999307 -5.816720829e-09 -8.481516162e-10)
(0.01099988145 -9.397226388e-09 1.69026562e-09)
(0.01099983692 -9.954647509e-09 2.951607212e-09)
(0.01099980424 -8.099812684e-09 2.057158741e-09)
(0.01099977582 -6.909897307e-09 1.854127466e-09)
(0.01099975223 -5.12229744e-09 4.413631457e-09)
(0.01099973133 -7.122274075e-09 3.437673369e-09)
(0.01099971744 -4.092086151e-09 2.583020531e-09)
(0.0109997031 -5.963217395e-09 6.965531774e-09)
(0.01099968981 -5.116424762e-09 6.138810726e-09)
(0.01100017607 8.425617331e-10 -4.486365557e-09)
(0.01100013777 6.797524742e-09 -1.294955363e-08)
(0.0110001243 2.39980881e-09 -8.233975806e-09)
(0.01100008696 8.146813579e-11 -5.563204928e-09)
(0.01100004893 -5.422232699e-10 -3.941876685e-09)
(0.01100000904 -2.32485516e-09 -3.660038053e-09)
(0.01099997054 -2.80652915e-09 -4.269916654e-10)
(0.01099993453 -1.008077589e-09 -5.387391422e-10)
(0.0109998975 -2.869793009e-09 -1.502384294e-11)
(0.0109998668 -1.333990773e-09 7.384646159e-10)
(0.01099983415 -1.604448212e-09 1.074472702e-09)
(0.01099981355 -1.769502406e-09 2.107448933e-09)
(0.01099978707 -2.449135983e-09 3.762614303e-09)
(0.01099976426 -2.88362585e-09 3.292961322e-09)
(0.01100013063 -4.228253448e-08 -9.65871526e-08)
(0.01100018144 1.462706983e-08 -1.430458902e-08)
(0.01100009917 -9.595791247e-09 -7.172255688e-09)
(0.01100007894 -4.254828328e-09 -9.536272097e-10)
(0.01100003037 -2.610960033e-09 3.412301214e-09)
(0.01099998043 1.773592873e-09 3.949600852e-09)
(0.01099992931 2.275443082e-09 3.33611458e-09)
(0.01099988565 2.579067927e-09 3.049516719e-09)
(0.01099984792 3.774988125e-09 3.539399765e-09)
(0.01099980953 2.373232133e-09 1.564361786e-09)
(0.0109997799 2.902150796e-09 1.415145391e-09)
(0.01099975637 1.160825933e-09 2.434621782e-09)
(0.01099973617 2.362981554e-09 3.203575205e-09)
(0.01099971601 3.817370262e-09 3.248450879e-09)
(0.01099970324 4.068008815e-09 2.780464257e-09)
(0.01100014002 -2.373746881e-07 -1.95232081e-07)
(0.01100015555 1.037081447e-08 1.398394993e-08)
(0.01099995196 -2.912546849e-08 3.061671387e-09)
(0.01099991392 -5.616137517e-10 7.880050115e-09)
(0.01099983501 1.026881509e-08 9.854841402e-09)
(0.01099977135 1.229158376e-08 8.021253699e-09)
(0.01099972272 1.380272929e-08 7.01051177e-09)
(0.01099968455 1.365021726e-08 4.897868995e-09)
(0.01099965965 1.078239301e-08 5.017275389e-09)
(0.01099963951 8.355015525e-09 3.455763159e-09)
(0.01099962646 8.578677504e-09 2.439261585e-09)
(0.0109996203 6.840082157e-09 2.932228997e-09)
(0.01099961478 5.262911816e-09 3.626428207e-09)
(0.01099961311 7.137191733e-09 4.368022407e-09)
(0.01099961132 6.743396596e-09 3.990211522e-09)
(0.01100010233 -2.822173959e-07 -5.910573416e-07)
(0.01100002579 1.19700526e-07 9.985753961e-08)
(0.01099949982 -7.145088948e-08 5.120165146e-08)
(0.01099942888 -5.173472939e-09 5.307261021e-08)
(0.01099931946 1.773680195e-08 4.245186984e-08)
(0.01099927809 1.920364519e-08 2.87914601e-08)
(0.01099926967 1.846462794e-08 1.749662366e-08)
(0.01099928358 1.528771738e-08 1.260186106e-08)
(0.01099930554 1.156055464e-08 9.05548351e-09)
(0.01099933286 9.761473263e-09 7.210021366e-09)
(0.01099936407 4.912507259e-09 4.630544369e-09)
(0.01099939335 4.823021197e-09 3.88883731e-09)
(0.01099942088 5.575541666e-09 2.833469387e-09)
(0.01099944572 8.999946211e-09 2.985119475e-09)
(0.01099946729 7.334830683e-09 3.890917161e-09)
(0.01099892906 5.88985827e-07 5.890313128e-07)
(0.01099816042 7.859347223e-08 8.181319853e-08)
(0.01099841346 7.630830076e-08 7.850755088e-08)
(0.01099843651 6.524507712e-08 6.41898363e-08)
(0.01099854681 3.963712004e-08 3.743736406e-08)
(0.01099867859 2.40964148e-08 2.250279024e-08)
(0.01099879936 1.371735543e-08 1.392207539e-08)
(0.01099891519 8.196588526e-09 1.023963756e-08)
(0.01099901221 5.228025585e-09 5.024895664e-09)
(0.01099910083 4.82440488e-09 4.089156153e-09)
(0.01099917188 4.146043734e-09 3.385834115e-09)
(0.01099923843 4.327796582e-09 2.367603286e-09)
(0.01099928879 5.797332813e-09 3.987681831e-09)
(0.01099933542 6.134139552e-09 3.65671533e-09)
(0.0109978823 -8.589629647e-10 3.562543509e-06)
(0.01099611091 -1.7829e-10 8.801420468e-07)
(0.010997253 -1.119125453e-09 3.461278702e-07)
(0.01099765747 -1.517206343e-09 1.834397258e-07)
(0.01099800961 -9.168914269e-10 8.076718643e-08)
(0.01099830731 -1.137696953e-09 3.535136403e-08)
(0.01099853769 -1.841155488e-09 1.597491247e-08)
(0.01099871927 -2.521377035e-10 8.959554894e-09)
(0.01099886342 1.233885086e-09 4.966061233e-09)
(0.01099898145 8.103246678e-10 3.653138695e-09)
(0.01099907997 1.526369605e-09 1.53351263e-09)
(0.01099915824 1.537978225e-09 1.551430605e-09)
(0.01099922491 1.011285649e-09 3.98959315e-09)
(0.01099928162 1.929139565e-10 3.56834396e-09)
(0.0109989294 -5.876986155e-07 5.885824738e-07)
(0.01099815943 -7.99881437e-08 8.166832625e-08)
(0.01099841466 -7.757239466e-08 7.671699902e-08)
(0.01099843766 -6.47210113e-08 6.493366889e-08)
(0.01099854592 -3.800059013e-08 3.806203295e-08)
(0.01099867772 -2.486756388e-08 2.256881819e-08)
(0.01099880251 -1.520041789e-08 1.304965606e-08)
(0.01099891777 -9.594626074e-09 8.125325286e-09)
(0.01099901333 -5.968838368e-09 5.924971461e-09)
(0.01099909907 -4.542743157e-09 4.751216284e-09)
(0.01099917129 -4.52661179e-09 3.63422096e-09)
(0.01099923937 -4.097824531e-09 3.480193271e-09)
(0.01099928635 -6.025259001e-09 4.467995681e-09)
(0.01099933688 -5.210859439e-09 4.566814765e-09)
(0.01100002539 -1.200870007e-07 1.026690871e-07)
(0.01099950031 7.209783709e-08 5.278514213e-08)
(0.01099943098 5.559452433e-09 5.3897765e-08)
(0.01099932365 -1.618687895e-08 4.267948001e-08)
(0.01099927548 -1.956273737e-08 2.828225565e-08)
(0.01099927038 -1.720032537e-08 1.623875705e-08)
(0.01099928172 -1.445082448e-08 1.152089329e-08)
(0.01099930786 -1.362177888e-08 8.744791602e-09)
(0.01099933516 -9.874646654e-09 7.41739467e-09)
(0.01099936528 -6.527145635e-09 5.07607902e-09)
(0.01099939498 -4.484745754e-09 3.084973361e-09)
(0.01099942291 -5.338487629e-09 3.609881134e-09)
(0.0109994434 -7.575006943e-09 3.956510895e-09)
(0.01099946684 -7.109321745e-09 3.040969038e-09)
(0.01100015549 -1.143704593e-08 1.570569159e-08)
(0.01099995245 3.036992175e-08 1.884562077e-09)
(0.01099991637 2.879050332e-09 8.58510177e-09)
(0.01099983504 -7.817633724e-09 1.171909607e-08)
(0.0109997707 -1.307400515e-08 9.114184994e-09)
(0.01099972013 -1.37646277e-08 6.59587315e-09)
(0.01099968377 -1.313616838e-08 5.642570146e-09)
(0.01099965755 -1.0271252e-08 4.65386045e-09)
(0.01099963969 -1.109085492e-08 2.665557117e-09)
(0.01099962714 -7.996860119e-09 2.054951397e-09)
(0.01099961724 -8.4312447e-09 1.841108213e-09)
(0.01099961511 -6.323901365e-09 3.565466019e-09)
(0.01099961232 -8.559676784e-09 2.908992902e-09)
(0.01099960701 -7.298551312e-09 2.527528783e-09)
(0.01100018317 -1.231828528e-08 -1.370436341e-08)
(0.01100009862 1.081888614e-08 -7.46575436e-09)
(0.0110000802 5.832703392e-09 4.683448481e-10)
(0.01100002809 1.020072397e-09 3.17090865e-09)
(0.01099997766 -5.712591032e-10 2.301469258e-09)
(0.01099993027 -3.886133517e-09 2.682435196e-09)
(0.01099988313 -1.586192352e-09 1.714592944e-09)
(0.01099984584 -3.565753749e-09 2.015549655e-09)
(0.01099980788 -2.098004708e-09 1.19169168e-09)
(0.01099977967 -4.027523281e-09 5.734235919e-10)
(0.01099975645 -2.932790448e-09 1.751842716e-09)
(0.0109997347 -2.129916954e-09 2.355270051e-09)
(0.01099971523 -2.731909999e-09 3.704544518e-09)
(0.01099969949 -4.515902534e-09 3.476811489e-09)
(0.01100015133 -1.292389654e-07 -1.50553925e-09)
(0.01100025059 3.119025008e-08 -6.040652951e-10)
(0.01100010127 3.473674666e-09 -6.947882372e-10)
(0.01100005729 6.27853616e-09 4.239570332e-10)
(0.01099999751 6.714106679e-09 4.045401024e-10)
(0.01099993721 7.922110339e-09 -1.915220149e-09)
(0.01099988639 5.534191181e-09 -1.828612537e-09)
(0.01099984354 5.136977622e-09 -2.186461146e-09)
(0.0109998024 7.070639658e-09 -2.129289444e-09)
(0.01099977101 4.969640124e-09 -1.708044338e-09)
(0.01099974319 4.310893843e-09 -9.530658039e-10)
(0.01099972098 3.285885965e-09 8.856313758e-10)
(0.01099970104 3.850740387e-09 1.063548713e-09)
(0.01099968791 5.721436929e-09 5.135205602e-10)
(0.01099967556 5.806564765e-09 1.293494275e-09)
(0.01100019798 -6.443634328e-07 -7.710485975e-10)
(0.01100027549 9.353207453e-08 4.557902437e-10)
(0.01099987629 3.399212118e-08 2.770812476e-10)
(0.01099981584 4.850470343e-08 1.066162509e-10)
(0.01099973072 4.087677608e-08 1.392006478e-09)
(0.01099966819 2.85694311e-08 -6.719568363e-10)
(0.01099963126 2.213165954e-08 -1.225882937e-09)
(0.01099960573 1.792502305e-08 -1.919537447e-09)
(0.01099959024 1.407127068e-08 -1.372741839e-09)
(0.01099957758 1.052925737e-08 4.781678861e-10)
(0.01099957273 7.860835576e-09 4.559644847e-10)
(0.01099956971 7.288392403e-09 6.623733625e-10)
(0.01099957179 6.204476739e-09 -2.870203986e-10)
(0.01099957648 7.57476931e-09 -9.241070576e-10)
(0.01099957853 6.657524082e-09 3.122545609e-10)
(0.01100012394 -1.169910579e-06 3.811612287e-10)
(0.01100018126 5.936937754e-07 -5.952476089e-11)
(0.01099905351 5.153930293e-08 -5.298251927e-11)
(0.01099903375 6.602824067e-08 -2.018867269e-09)
(0.01099899048 6.235455662e-08 -8.821436161e-10)
(0.01099901323 3.990085142e-08 -2.237373174e-09)
(0.0109990677 2.725788892e-08 -2.320371127e-09)
(0.01099912436 1.845300967e-08 -6.576804867e-10)
(0.01099917615 1.264823949e-08 -1.231143993e-09)
(0.01099923197 8.530712741e-09 -1.253288198e-09)
(0.01099927893 5.775224671e-09 3.228591615e-10)
(0.010999321 5.255353363e-09 3.833289797e-10)
(0.01099936002 3.723121954e-09 1.573587368e-09)
(0.01099939365 8.062258733e-09 9.477458468e-10)
(0.01099942271 7.910695183e-09 -3.718750898e-10)
(0.0109980326 -5.919453095e-06 6.007438498e-10)
(0.01099787863 3.560972729e-06 9.392971113e-11)
(0.01099611135 8.784612377e-07 -1.215867774e-10)
(0.01099724979 3.461517996e-07 -6.464368214e-10)
(0.01099765697 1.822241658e-07 -8.647669632e-10)
(0.01099800939 8.177940206e-08 -6.56024959e-10)
(0.01099830541 3.668135566e-08 -1.888454449e-09)
(0.01099853779 1.383879974e-08 -1.807301584e-09)
(0.01099871905 7.036738023e-09 -6.871126192e-10)
(0.01099886231 5.139260069e-09 1.478741459e-10)
(0.01099898282 3.15554145e-09 -4.686346886e-10)
(0.01099907659 2.353620773e-09 9.415446202e-10)
(0.01099915956 3.535937126e-09 -3.282733622e-10)
(0.01099922519 5.537201818e-09 -7.562585504e-11)
(0.01099928409 4.496706355e-09 -6.22618646e-11)
(0.01099549346 1.316863306e-10 -1.592595987e-09)
(0.01098899098 5.454270225e-10 8.75323178e-10)
(0.01099435325 -1.922833553e-09 -1.128874151e-09)
(0.01099620306 3.318023071e-10 -9.302786353e-10)
(0.01099716185 -1.294058134e-09 -2.304102517e-10)
(0.01099779357 -1.196486638e-09 -4.785078346e-10)
(0.01099819821 2.988750099e-11 -1.15122481e-09)
(0.01099848389 -1.562357641e-09 -1.346384221e-09)
(0.01099869001 -1.537552618e-09 -5.98636424e-10)
(0.01099884568 3.69340565e-11 2.285374987e-10)
(0.01099897172 7.990286423e-10 3.579713534e-10)
(0.01099907866 -3.204195079e-10 -7.090208782e-10)
(0.01099915606 1.233444573e-10 -2.291385251e-09)
(0.01099923044 1.325706252e-09 -1.503620499e-09)
(0.0109978773 -3.562338808e-06 -2.566779406e-10)
(0.01099610968 -8.808627804e-07 9.395299432e-10)
(0.0109972499 -3.45484517e-07 9.79478541e-10)
(0.01099765546 -1.822438873e-07 -5.23710687e-10)
(0.01099800753 -8.1318022e-08 -2.057887303e-09)
(0.01099830938 -3.723213334e-08 -1.760036448e-09)
(0.01099853704 -1.62956865e-08 -5.494609859e-10)
(0.01099872024 -8.324880304e-09 -1.782072527e-09)
(0.01099886423 -4.552585106e-09 -1.240170191e-09)
(0.01099898209 -3.296709527e-09 -1.331191201e-10)
(0.01099907527 -2.903611733e-09 7.139165314e-11)
(0.01099915978 -8.618095086e-10 -7.214240769e-10)
(0.01099922498 -5.834795705e-09 -1.653276136e-09)
(0.0109992821 -4.722151321e-09 1.709144909e-10)
(0.01100017754 -5.936520226e-07 -8.611185008e-10)
(0.01099905508 -5.079603971e-08 -7.688003136e-10)
(0.01099903282 -6.574061747e-08 4.851012014e-10)