/*--------------------------------*- C++ -*----------------------------------*\
| =========                 |                                                 |
| \\      /  F ield         | OpenFOAM: The Open Source CFD Toolbox           |
|  \\    /   O peration     | Version:  4.x                                   |
|   \\  /    A nd           | Web:      www.OpenFOAM.org                      |
|    \\/     M anipulation  |                                                 |
\*---------------------------------------------------------------------------*/
FoamFile
{
    version     2.0;
    format      ascii;
    class       volScalarField;
    location    "9000";
    object      X_N2;
}
// * * * * * * * * * * * * * * * * * * * * * * * * * * * * * * * * * * * * * //

dimensions      [0 0 0 0 0 0 0];

internalField   nonuniform List<scalar> 
1174
(
0.5999708679
0.5999708674
0.5999708668
0.599970866
0.5999708649
0.5999708637
0.5999708622
0.5999708606
0.5999708588
0.5999708568
0.5999708548
0.5999708527
0.5999708506
0.5999708489
0.5999708675
0.5999708668
0.5999708659
0.5999708648
0.5999708635
0.5999708619
0.5999708601
0.5999708583
0.5999708563
0.5999708542
0.599970852
0.5999708499
0.5999708478
0.5999708461
0.5999708667
0.5999708656
0.5999708643
0.5999708627
0.5999708608
0.5999708588
0.5999708567
0.5999708545
0.5999708523
0.59997085
0.5999708478
0.5999708457
0.5999708436
0.599970842
0.5999708657
0.5999708642
0.5999708623
0.5999708602
0.599970858
0.5999708556
0.5999708532
0.5999708508
0.5999708485
0.5999708462
0.599970844
0.5999708419
0.5999708399
0.5999708384
0.5999708651
0.5999708634
0.5999708613
0.599970859
0.5999708566
0.5999708542
0.5999708518
0.5999708494
0.599970847
0.5999708447
0.5999708426
0.5999708405
0.5999708386
0.5999708371
0.5999708657
0.5999708642
0.5999708624
0.5999708603
0.5999708581
0.5999708558
0.5999708534
0.5999708511
0.5999708488
0.5999708466
0.5999708444
0.5999708423
0.5999708404
0.5999708389
0.5999708667
0.5999708657
0.5999708644
0.5999708628
0.599970861
0.599970859
0.599970857
0.5999708549
0.5999708527
0.5999708506
0.5999708484
0.5999708463
0.5999708444
0.5999708428
0.5999708675
0.5999708669
0.599970866
0.5999708649
0.5999708636
0.5999708621
0.5999708604
0.5999708586
0.5999708567
0.5999708547
0.5999708527
0.5999708506
0.5999708486
0.5999708471
0.5999708679
0.5999708675
0.5999708668
0.599970866
0.599970865
0.5999708638
0.5999708624
0.5999708608
0.5999708591
0.5999708573
0.5999708554
0.5999708534
0.5999708515
0.5999708499
0.599970868
0.5999708675
0.5999708669
0.599970866
0.5999708648
0.5999708635
0.5999708619
0.5999708602
0.5999708583
0.5999708563
0.5999708542
0.5999708521
0.5999708499
0.5999708478
0.5999708462
0.5999708666
0.5999708656
0.5999708643
0.5999708627
0.599970861
0.5999708591
0.599970857
0.5999708549
0.5999708528
0.5999708506
0.5999708485
0.5999708463
0.5999708443
0.5999708428
0.5999708648
0.599970863
0.5999708609
0.5999708587
0.5999708563
0.5999708539
0.5999708516
0.5999708493
0.5999708471
0.5999708449
0.5999708429
0.5999708409
0.5999708391
0.5999708377
0.5999708622
0.5999708594
0.5999708565
0.5999708536
0.5999708508
0.5999708482
0.5999708458
0.5999708436
0.5999708415
0.5999708395
0.5999708377
0.599970836
0.5999708344
0.5999708333
0.5999708603
0.5999708571
0.5999708539
0.5999708509
0.5999708481
0.5999708456
0.5999708433
0.5999708412
0.5999708392
0.5999708374
0.5999708358
0.5999708342
0.5999708327
0.5999708317
0.5999708623
0.5999708596
0.5999708567
0.5999708538
0.5999708511
0.5999708486
0.5999708462
0.599970844
0.599970842
0.5999708401
0.5999708383
0.5999708366
0.5999708351
0.5999708339
0.599970865
0.5999708632
0.5999708611
0.5999708589
0.5999708566
0.5999708543
0.5999708521
0.5999708499
0.5999708478
0.5999708457
0.5999708437
0.5999708419
0.5999708401
0.5999708388
0.5999708667
0.5999708657
0.5999708644
0.5999708629
0.5999708612
0.5999708594
0.5999708575
0.5999708555
0.5999708535
0.5999708514
0.5999708494
0.5999708473
0.5999708454
0.599970844
0.5999708675
0.5999708669
0.599970866
0.5999708649
0.5999708636
0.5999708621
0.5999708605
0.5999708587
0.5999708569
0.5999708549
0.5999708529
0.5999708509
0.599970849
0.5999708475
0.5999708675
0.5999708668
0.5999708657
0.5999708644
0.5999708628
0.5999708609
0.5999708589
0.5999708568
0.5999708546
0.5999708524
0.5999708502
0.5999708479
0.5999708458
0.5999708437
0.5999708421
0.5999708664
0.599970865
0.5999708632
0.5999708611
0.5999708588
0.5999708564
0.599970854
0.5999708517
0.5999708494
0.5999708471
0.599970845
0.599970843
0.599970841
0.5999708392
0.5999708378
0.59997086
0.5999708568
0.5999708535
0.5999708503
0.5999708473
0.5999708447
0.5999708423
0.5999708403
0.5999708384
0.5999708367
0.5999708351
0.5999708336
0.5999708323
0.5999708313
0.5999708516
0.5999708466
0.5999708422
0.5999708386
0.5999708359
0.5999708338
0.5999708321
0.5999708307
0.5999708296
0.5999708286
0.5999708277
0.5999708268
0.5999708261
0.5999708256
0.599970844
0.5999708383
0.5999708343
0.5999708315
0.5999708296
0.5999708283
0.5999708274
0.5999708267
0.599970826
0.5999708255
0.5999708249
0.5999708244
0.5999708239
0.5999708236
0.5999708523
0.5999708472
0.5999708428
0.5999708394
0.5999708367
0.5999708346
0.599970833
0.5999708317
0.5999708306
0.5999708296
0.5999708287
0.5999708278
0.599970827
0.5999708265
0.5999708605
0.5999708572
0.599970854
0.5999708509
0.5999708481
0.5999708456
0.5999708434
0.5999708415
0.5999708397
0.599970838
0.5999708365
0.599970835
0.5999708337
0.5999708328
0.5999708649
0.5999708632
0.5999708612
0.5999708591
0.5999708568
0.5999708546
0.5999708525
0.5999708503
0.5999708483
0.5999708463
0.5999708443
0.5999708425
0.5999708407
0.5999708395
0.5999708667
0.5999708657
0.5999708644
0.5999708629
0.5999708612
0.5999708593
0.5999708574
0.5999708554
0.5999708533
0.5999708513
0.5999708492
0.5999708472
0.5999708453
0.5999708439
0.599970867
0.5999708659
0.5999708644
0.5999708625
0.5999708605
0.5999708582
0.5999708559
0.5999708535
0.5999708511
0.5999708487
0.5999708464
0.5999708442
0.5999708421
0.5999708401
0.5999708386
0.5999708649
0.5999708625
0.5999708598
0.5999708568
0.5999708539
0.5999708511
0.5999708485
0.5999708461
0.5999708438
0.5999708417
0.5999708397
0.5999708379
0.5999708362
0.5999708346
0.5999708334
0.5999708576
0.5999708523
0.5999708471
0.5999708426
0.599970839
0.5999708362
0.599970834
0.5999708323
0.5999708309
0.5999708298
0.5999708288
0.5999708278
0.599970827
0.5999708262
0.5999708257
0.5999708265
0.5999708208
0.5999708175
0.5999708161
0.5999708157
0.599970816
0.5999708165
0.5999708171
0.5999708176
0.599970818
0.5999708183
0.5999708185
0.5999708186
0.5999708188
0.5999707935
0.5999707931
0.599970796
0.5999707998
0.5999708034
0.5999708065
0.5999708091
0.5999708111
0.5999708127
0.5999708139
0.5999708148
0.5999708155
0.599970816
0.5999708164
0.5999708287
0.5999708225
0.5999708192
0.5999708178
0.5999708175
0.5999708178
0.5999708182
0.5999708187
0.5999708192
0.5999708195
0.5999708198
0.5999708199
0.5999708199
0.59997082
0.5999708522
0.5999708474
0.5999708434
0.5999708402
0.5999708377
0.5999708358
0.5999708342
0.5999708329
0.5999708318
0.5999708308
0.5999708299
0.599970829
0.5999708282
0.5999708276
0.5999708623
0.5999708597
0.599970857
0.5999708544
0.5999708519
0.5999708496
0.5999708474
0.5999708453
0.5999708434
0.5999708416
0.5999708398
0.5999708382
0.5999708367
0.5999708356
0.5999708657
0.5999708642
0.5999708625
0.5999708606
0.5999708586
0.5999708565
0.5999708544
0.5999708522
0.5999708501
0.599970848
0.599970846
0.599970844
0.5999708422
0.5999708408
0.5999708666
0.5999708653
0.5999708636
0.5999708616
0.5999708593
0.599970857
0.5999708545
0.5999708521
0.5999708497
0.5999708473
0.5999708451
0.5999708429
0.5999708408
0.5999708389
0.5999708374
0.5999708637
0.5999708608
0.5999708576
0.5999708543
0.5999708513
0.5999708485
0.599970846
0.5999708437
0.5999708416
0.5999708396
0.5999708378
0.5999708361
0.5999708345
0.599970833
0.599970832
0.5999708525
0.5999708452
0.5999708393
0.5999708351
0.5999708323
0.5999708303
0.5999708289
0.5999708279
0.5999708271
0.5999708264
0.5999708258
0.5999708252
0.5999708247
0.5999708241
0.5999708238
0.5999708054
0.5999707968
0.5999707951
0.5999707973
0.5999708008
0.5999708041
0.5999708071
0.5999708095
0.5999708114
0.5999708129
0.5999708141
0.599970815
0.5999708157
0.5999708161
0.5999708166
0.5999706615
0.599970722
0.5999707552
0.5999707748
0.599970787
0.5999707951
0.5999708006
0.5999708046
0.5999708075
0.5999708096
0.5999708113
0.5999708125
0.5999708134
0.5999708142
0.5999707933
0.5999707956
0.5999707995
0.5999708035
0.5999708069
0.5999708097
0.5999708119
0.5999708136
0.599970815
0.599970816
0.5999708167
0.5999708173
0.5999708176
0.599970818
0.5999708437
0.5999708393
0.5999708363
0.5999708341
0.5999708326
0.5999708314
0.5999708305
0.5999708297
0.599970829
0.5999708283
0.5999708277
0.599970827
0.5999708264
0.5999708261
0.5999708602
0.5999708574
0.5999708547
0.5999708521
0.5999708497
0.5999708475
0.5999708454
0.5999708435
0.5999708417
0.59997084
0.5999708384
0.5999708368
0.5999708354
0.5999708344
0.5999708651
0.5999708634
0.5999708616
0.5999708596
0.5999708575
0.5999708554
0.5999708532
0.5999708511
0.599970849
0.5999708469
0.5999708449
0.599970843
0.5999708413
0.59997084
0.599970867
0.5999708659
0.5999708644
0.5999708627
0.5999708606
0.5999708584
0.5999708561
0.5999708538
0.5999708515
0.5999708492
0.5999708469
0.5999708448
0.5999708427
0.5999708407
0.5999708392
0.599970865
0.5999708627
0.59997086
0.5999708572
0.5999708543
0.5999708516
0.5999708491
0.5999708467
0.5999708445
0.5999708424
0.5999708405
0.5999708387
0.599970837
0.5999708354
0.5999708343
0.5999708587
0.5999708534
0.5999708482
0.5999708438
0.5999708403
0.5999708375
0.5999708354
0.5999708337
0.5999708323
0.5999708311
0.59997083
0.5999708291
0.5999708282
0.5999708274
0.5999708268
0.5999708422
0.5999708316
0.5999708247
0.5999708209
0.5999708192
0.5999708186
0.5999708187
0.599970819
0.5999708194
0.5999708197
0.59997082
0.5999708201
0.5999708202
0.5999708202
0.5999708203
0.5999708061
0.5999707976
0.5999707982
0.5999708013
0.5999708047
0.5999708078
0.5999708103
0.5999708124
0.599970814
0.5999708153
0.5999708163
0.5999708169
0.5999708175
0.5999708178
0.5999708182
0.5999708413
0.5999708315
0.5999708256
0.5999708226
0.5999708213
0.5999708209
0.5999708209
0.5999708211
0.5999708213
0.5999708216
0.5999708217
0.5999708218
0.5999708217
0.5999708217
0.5999708217
0.5999708516
0.5999708478
0.5999708445
0.5999708417
0.5999708394
0.5999708375
0.599970836
0.5999708347
0.5999708335
0.5999708324
0.5999708314
0.5999708305
0.5999708296
0.599970829
0.599970862
0.5999708597
0.5999708573
0.5999708549
0.5999708526
0.5999708504
0.5999708483
0.5999708463
0.5999708444
0.5999708426
0.5999708409
0.5999708393
0.5999708378
0.5999708367
0.5999708656
0.5999708642
0.5999708626
0.5999708608
0.5999708589
0.5999708569
0.5999708549
0.5999708528
0.5999708508
0.5999708488
0.5999708468
0.5999708449
0.5999708431
0.5999708418
0.5999708676
0.5999708669
0.5999708658
0.5999708646
0.599970863
0.5999708613
0.5999708593
0.5999708573
0.5999708552
0.5999708531
0.5999708509
0.5999708488
0.5999708467
0.5999708447
0.5999708432
0.5999708666
0.5999708652
0.5999708635
0.5999708615
0.5999708593
0.599970857
0.5999708548
0.5999708525
0.5999708503
0.5999708482
0.5999708462
0.5999708442
0.5999708423
0.5999708405
0.5999708392
0.5999708639
0.5999708611
0.5999708579
0.5999708547
0.5999708516
0.5999708488
0.5999708463
0.599970844
0.599970842
0.5999708402
0.5999708385
0.599970837
0.5999708355
0.5999708341
0.5999708332
0.5999708587
0.5999708536
0.5999708487
0.5999708446
0.5999708413
0.5999708387
0.5999708367
0.599970835
0.5999708336
0.5999708324
0.5999708313
0.5999708303
0.5999708294
0.5999708286
0.599970828
0.5999708525
0.599970846
0.5999708412
0.5999708378
0.5999708354
0.5999708336
0.5999708323
0.5999708312
0.5999708303
0.5999708295
0.5999708288
0.5999708281
0.5999708274
0.5999708267
0.5999708263
0.5999708587
0.5999708538
0.5999708493
0.5999708455
0.5999708424
0.59997084
0.599970838
0.5999708363
0.599970835
0.5999708338
0.5999708327
0.5999708316
0.5999708307
0.5999708298
0.5999708292
0.5999708635
0.5999708608
0.5999708579
0.5999708551
0.5999708524
0.5999708499
0.5999708477
0.5999708456
0.5999708437
0.599970842
0.5999708404
0.5999708388
0.5999708374
0.599970836
0.5999708351
0.5999708648
0.5999708633
0.5999708615
0.5999708597
0.5999708577
0.5999708557
0.5999708537
0.5999708517
0.5999708498
0.5999708479
0.599970846
0.5999708442
0.5999708425
0.5999708413
0.5999708666
0.5999708657
0.5999708645
0.5999708631
0.5999708616
0.5999708599
0.5999708581
0.5999708563
0.5999708544
0.5999708524
0.5999708505
0.5999708486
0.5999708468
0.5999708454
0.599970868
0.5999708676
0.599970867
0.5999708661
0.5999708651
0.5999708638
0.5999708623
0.5999708607
0.5999708589
0.599970857
0.599970855
0.599970853
0.5999708509
0.599970849
0.5999708474
0.5999708676
0.5999708669
0.5999708659
0.5999708646
0.5999708632
0.5999708615
0.5999708597
0.5999708578
0.5999708558
0.5999708538
0.5999708518
0.5999708498
0.5999708477
0.5999708458
0.5999708444
0.5999708665
0.5999708652
0.5999708636
0.5999708616
0.5999708595
0.5999708573
0.5999708551
0.599970853
0.5999708508
0.5999708488
0.5999708467
0.5999708448
0.5999708429
0.5999708412
0.5999708399
0.599970865
0.5999708628
0.5999708603
0.5999708577
0.5999708551
0.5999708526
0.5999708503
0.599970848
0.5999708459
0.599970844
0.5999708421
0.5999708403
0.5999708387
0.5999708371
0.599970836
0.5999708637
0.5999708611
0.5999708583
0.5999708555
0.5999708529
0.5999708505
0.5999708482
0.5999708461
0.5999708441
0.5999708423
0.5999708405
0.5999708388
0.5999708373
0.5999708358
0.5999708348
0.599970865
0.5999708629
0.5999708606
0.5999708581
0.5999708556
0.5999708532
0.5999708509
0.5999708488
0.5999708467
0.5999708448
0.599970843
0.5999708412
0.5999708396
0.599970838
0.599970837
0.5999708665
0.5999708652
0.5999708636
0.5999708618
0.5999708599
0.5999708579
0.5999708559
0.5999708539
0.5999708519
0.5999708499
0.599970848
0.5999708461
0.5999708443
0.5999708426
0.5999708414
0.5999708675
0.5999708668
0.5999708658
0.5999708647
0.5999708634
0.5999708619
0.5999708602
0.5999708585
0.5999708567
0.5999708549
0.599970853
0.5999708511
0.5999708492
0.5999708474
0.5999708461
0.5999708675
0.5999708669
0.5999708661
0.5999708651
0.599970864
0.5999708627
0.5999708612
0.5999708596
0.5999708579
0.5999708561
0.5999708543
0.5999708525
0.5999708507
0.5999708493
0.5999708682
0.5999708679
0.5999708675
0.5999708669
0.5999708662
0.5999708652
0.599970864
0.5999708626
0.5999708611
0.5999708594
0.5999708576
0.5999708557
0.5999708537
0.5999708518
0.5999708503
0.599970868
0.5999708676
0.599970867
0.5999708661
0.5999708651
0.5999708638
0.5999708624
0.5999708608
0.5999708591
0.5999708572
0.5999708553
0.5999708533
0.5999708513
0.5999708494
0.5999708479
0.5999708676
0.5999708669
0.5999708659
0.5999708647
0.5999708632
0.5999708615
0.5999708597
0.5999708578
0.5999708558
0.5999708538
0.5999708517
0.5999708496
0.5999708476
0.5999708457
0.5999708443
0.599970867
0.5999708659
0.5999708646
0.5999708629
0.5999708611
0.5999708591
0.599970857
0.5999708549
0.5999708527
0.5999708506
0.5999708485
0.5999708464
0.5999708445
0.5999708426
0.5999708413
0.5999708666
0.5999708654
0.5999708639
0.5999708621
0.5999708602
0.5999708581
0.5999708559
0.5999708538
0.5999708516
0.5999708495
0.5999708474
0.5999708454
0.5999708434
0.5999708417
0.5999708403
0.599970867
0.599970866
0.5999708647
0.5999708631
0.5999708613
0.5999708594
0.5999708574
0.5999708553
0.5999708533
0.5999708512
0.5999708491
0.5999708471
0.5999708452
0.5999708434
0.5999708421
0.5999708676
0.5999708669
0.599970866
0.5999708648
0.5999708634
0.5999708619
0.5999708602
0.5999708584
0.5999708565
0.5999708546
0.5999708527
0.5999708507
0.5999708488
0.599970847
0.5999708456
0.599970868
0.5999708676
0.599970867
0.5999708662
0.5999708652
0.5999708641
0.5999708628
0.5999708613
0.5999708597
0.599970858
0.5999708562
0.5999708544
0.5999708525
0.5999708507
0.5999708493
0.5999708682
0.5999708679
0.5999708675
0.599970867
0.5999708662
0.5999708653
0.5999708643
0.599970863
0.5999708617
0.5999708601
0.5999708585
0.5999708568
0.599970855
0.5999708533
0.5999708519
)
;

boundaryField
{
    top
    {
        type            calculated;
        value           nonuniform List<scalar> 
127
(
0.5999708682
0.5999708679
0.5999708675
0.5999708667
0.5999708657
0.5999708651
0.5999708656
0.5999708666
0.5999708675
0.5999708679
0.5999708675
0.5999708669
0.5999708657
0.5999708642
0.5999708634
0.5999708642
0.5999708657
0.5999708669
0.5999708675
0.5999708668
0.599970866
0.5999708644
0.5999708625
0.5999708616
0.5999708626
0.5999708645
0.5999708661
0.599970867
0.599970866
0.5999708649
0.5999708629
0.5999708606
0.5999708596
0.5999708608
0.5999708631
0.5999708651
0.5999708662
0.599970865
0.5999708636
0.5999708612
0.5999708586
0.5999708575
0.5999708589
0.5999708616
0.599970864
0.5999708653
0.5999708638
0.5999708621
0.5999708593
0.5999708565
0.5999708554
0.5999708569
0.5999708599
0.5999708627
0.5999708643
0.5999708624
0.5999708605
0.5999708574
0.5999708544
0.5999708532
0.5999708549
0.5999708581
0.5999708612
0.599970863
0.5999708608
0.5999708587
0.5999708554
0.5999708522
0.5999708511
0.5999708528
0.5999708563
0.5999708596
0.5999708617
0.5999708591
0.5999708569
0.5999708533
0.5999708501
0.599970849
0.5999708508
0.5999708544
0.5999708579
0.5999708601
0.5999708573
0.5999708549
0.5999708513
0.599970848
0.5999708469
0.5999708488
0.5999708524
0.5999708561
0.5999708585
0.5999708554
0.5999708529
0.5999708492
0.599970846
0.5999708449
0.5999708468
0.5999708505
0.5999708543
0.5999708568
0.5999708534
0.5999708509
0.5999708472
0.599970844
0.599970843
0.5999708449
0.5999708486
0.5999708525
0.599970855
0.5999708515
0.599970849
0.5999708453
0.5999708422
0.5999708413
0.5999708431
0.5999708468
0.5999708507
0.5999708533
0.5999708499
0.5999708475
0.5999708439
0.5999708408
0.59997084
0.5999708418
0.5999708454
0.5999708493
0.5999708519
)
;
    }
    bottom
    {
        type            calculated;
        value           nonuniform List<scalar> 
134
(
0.599970868
0.5999708675
0.599970867
0.5999708666
0.599970867
0.5999708676
0.599970868
0.5999708682
0.5999708679
0.5999708675
0.5999708668
0.5999708659
0.5999708653
0.5999708659
0.5999708669
0.5999708676
0.5999708679
0.5999708674
0.5999708669
0.5999708657
0.5999708644
0.5999708636
0.5999708644
0.5999708658
0.599970867
0.5999708675
0.5999708668
0.599970866
0.5999708644
0.5999708625
0.5999708616
0.5999708627
0.5999708646
0.5999708661
0.5999708669
0.599970866
0.5999708648
0.5999708628
0.5999708605
0.5999708593
0.5999708606
0.599970863
0.5999708651
0.5999708662
0.5999708649
0.5999708635
0.5999708609
0.5999708582
0.599970857
0.5999708584
0.5999708613
0.5999708638
0.5999708652
0.5999708637
0.5999708619
0.5999708589
0.5999708559
0.5999708545
0.5999708561
0.5999708593
0.5999708623
0.599970864
0.5999708622
0.5999708602
0.5999708568
0.5999708535
0.5999708521
0.5999708538
0.5999708573
0.5999708607
0.5999708626
0.5999708606
0.5999708583
0.5999708546
0.5999708511
0.5999708497
0.5999708515
0.5999708552
0.5999708589
0.5999708611
0.5999708588
0.5999708563
0.5999708524
0.5999708487
0.5999708473
0.5999708492
0.5999708531
0.599970857
0.5999708594
0.5999708568
0.5999708542
0.5999708502
0.5999708464
0.5999708451
0.5999708469
0.5999708509
0.599970855
0.5999708576
0.5999708548
0.5999708521
0.5999708479
0.5999708442
0.5999708429
0.5999708448
0.5999708488
0.599970853
0.5999708557
0.5999708527
0.5999708499
0.5999708458
0.5999708421
0.5999708408
0.5999708427
0.5999708467
0.5999708509
0.5999708537
0.5999708506
0.5999708478
0.5999708437
0.5999708401
0.5999708389
0.5999708407
0.5999708447
0.599970849
0.5999708518
0.5999708489
0.5999708462
0.5999708421
0.5999708386
0.5999708374
0.5999708392
0.5999708432
0.5999708474
0.5999708503
)
;
    }
    side-walls
    {
        type            calculated;
        value           nonuniform List<scalar> 
261
(
0.5999708679
0.5999708675
0.5999708667
0.5999708657
0.5999708651
0.5999708657
0.5999708667
0.5999708675
0.5999708679
0.5999708674
0.5999708668
0.5999708656
0.5999708642
0.5999708634
0.5999708642
0.5999708657
0.5999708669
0.5999708675
0.5999708668
0.5999708659
0.5999708643
0.5999708623
0.5999708613
0.5999708624
0.5999708644
0.599970866
0.5999708668
0.599970866
0.5999708648
0.5999708627
0.5999708602
0.599970859
0.5999708603
0.5999708628
0.5999708649
0.599970866
0.5999708649
0.5999708635
0.5999708608
0.599970858
0.5999708566
0.5999708581
0.599970861
0.5999708636
0.599970865
0.5999708637
0.5999708619
0.5999708588
0.5999708556
0.5999708542
0.5999708558
0.599970859
0.5999708621
0.5999708638
0.5999708622
0.5999708601
0.5999708567
0.5999708532
0.5999708518
0.5999708534
0.599970857
0.5999708604
0.5999708624
0.5999708606
0.5999708583
0.5999708545
0.5999708508
0.5999708494
0.5999708511
0.5999708549
0.5999708586
0.5999708608
0.5999708588
0.5999708563
0.5999708523
0.5999708485
0.599970847
0.5999708488
0.5999708527
0.5999708567
0.5999708591
0.5999708568
0.5999708542
0.59997085
0.5999708462
0.5999708447
0.5999708466
0.5999708506
0.5999708547
0.5999708573
0.5999708548
0.599970852
0.5999708478
0.599970844
0.5999708426
0.5999708444
0.5999708484
0.5999708527
0.5999708554
0.5999708527
0.5999708499
0.5999708457
0.5999708419
0.5999708405
0.5999708423
0.5999708463
0.5999708506
0.5999708534
0.5999708506
0.5999708478
0.5999708436
0.5999708399
0.5999708386
0.5999708404
0.5999708444
0.5999708486
0.5999708515
0.5999708489
0.5999708461
0.599970842
0.5999708384
0.5999708371
0.5999708389
0.5999708428
0.5999708471
0.5999708499
0.5999708682
0.599970868
0.5999708676
0.599970867
0.5999708666
0.599970867
0.5999708676
0.599970868
0.5999708682
0.5999708679
0.5999708676
0.5999708669
0.5999708659
0.5999708654
0.599970866
0.5999708669
0.5999708676
0.5999708679
0.5999708675
0.599970867
0.5999708659
0.5999708646
0.5999708639
0.5999708647
0.599970866
0.599970867
0.5999708675
0.5999708669
0.5999708661
0.5999708647
0.5999708629
0.5999708621
0.5999708631
0.5999708648
0.5999708662
0.599970867
0.5999708662
0.5999708651
0.5999708632
0.5999708611
0.5999708602
0.5999708613
0.5999708634
0.5999708652
0.5999708662
0.5999708652
0.5999708638
0.5999708615
0.5999708591
0.5999708581
0.5999708594
0.5999708619
0.5999708641
0.5999708653
0.599970864
0.5999708624
0.5999708597
0.599970857
0.5999708559
0.5999708574
0.5999708602
0.5999708628
0.5999708643
0.5999708626
0.5999708608
0.5999708578
0.5999708549
0.5999708538
0.5999708553
0.5999708584
0.5999708613
0.599970863
0.5999708611
0.5999708591
0.5999708558
0.5999708527
0.5999708516
0.5999708533
0.5999708565
0.5999708597
0.5999708617
0.5999708594
0.5999708572
0.5999708538
0.5999708506
0.5999708495
0.5999708512
0.5999708546
0.599970858
0.5999708601
0.5999708576
0.5999708553
0.5999708517
0.5999708485
0.5999708474
0.5999708491
0.5999708527
0.5999708562
0.5999708585
0.5999708557
0.5999708533
0.5999708496
0.5999708464
0.5999708454
0.5999708471
0.5999708507
0.5999708544
0.5999708568
0.5999708537
0.5999708513
0.5999708476
0.5999708445
0.5999708434
0.5999708452
0.5999708488
0.5999708525
0.599970855
0.5999708518
0.5999708494
0.5999708457
0.5999708426
0.5999708417
0.5999708434
0.599970847
0.5999708507
0.5999708533
0.5999708503
0.5999708479
0.5999708443
0.5999708413
0.5999708403
0.5999708421
0.5999708456
0.5999708493
0.5999708519
)
;
    }
    inlet
    {
        type            calculated;
        value           nonuniform 0();
    }
    outlet
    {
        type            calculated;
        value           nonuniform List<scalar> 
81
(
0.5999708489
0.5999708461
0.599970842
0.5999708384
0.5999708371
0.5999708389
0.5999708428
0.5999708471
0.5999708499
0.5999708462
0.5999708428
0.5999708377
0.5999708333
0.5999708317
0.5999708339
0.5999708388
0.599970844
0.5999708475
0.5999708421
0.5999708378
0.5999708313
0.5999708256
0.5999708236
0.5999708265
0.5999708328
0.5999708395
0.5999708439
0.5999708386
0.5999708334
0.5999708257
0.5999708188
0.5999708164
0.59997082
0.5999708276
0.5999708356
0.5999708408
0.5999708374
0.599970832
0.5999708238
0.5999708166
0.5999708142
0.599970818
0.5999708261
0.5999708344
0.59997084
0.5999708392
0.5999708343
0.5999708268
0.5999708203
0.5999708182
0.5999708217
0.599970829
0.5999708367
0.5999708418
0.5999708432
0.5999708392
0.5999708332
0.599970828
0.5999708263
0.5999708292
0.5999708351
0.5999708413
0.5999708454
0.5999708474
0.5999708444
0.5999708399
0.599970836
0.5999708348
0.599970837
0.5999708414
0.5999708461
0.5999708493
0.5999708503
0.5999708479
0.5999708443
0.5999708413
0.5999708403
0.5999708421
0.5999708456
0.5999708493
0.5999708519
)
;
    }
    procBoundary1to0
    {
        type            processor;
        value           nonuniform List<scalar> 
97
(
0.5999708682
0.5999708682
0.599970868
0.5999708676
0.5999708671
0.5999708668
0.5999708671
0.5999708677
0.5999708681
0.5999708682
0.5999708683
0.5999708675
0.5999708675
0.5999708675
0.5999708666
0.5999708653
0.5999708645
0.5999708654
0.5999708668
0.5999708676
0.599970868
0.5999708681
0.5999708677
0.5999708635
0.5999708635
0.5999708635
0.5999708595
0.5999708568
0.5999708604
0.5999708645
0.5999708668
0.5999708676
0.5999708678
0.599970867
0.5999708645
0.5999708423
0.5999708423
0.5999708423
0.5999708356
0.599970849
0.5999708604
0.5999708654
0.5999708671
0.5999708677
0.5999708664
0.5999708621
0.5999708513
0.5999707908
0.5999707908
0.5999707908
0.599970834
0.599970834
0.5999708564
0.5999708644
0.5999708668
0.5999708678
0.5999708669
0.5999708642
0.599970858
0.59997085
0.5999708589
0.599970858
0.599970858
0.599970858
0.599970865
0.5999708671
0.5999708681
0.5999708676
0.5999708664
0.5999708642
0.599970862
0.5999708643
0.5999708665
0.5999708664
0.5999708664
0.5999708664
0.5999708676
0.5999708683
0.5999708681
0.5999708676
0.5999708669
0.5999708664
0.5999708669
0.5999708677
0.5999708681
0.599970868
0.599970868
0.599970868
0.5999708684
0.5999708683
0.5999708681
0.5999708678
0.5999708677
0.5999708678
0.5999708681
0.5999708683
0.5999708684
)
;
    }
}


// ************************************************************************* //
