/*--------------------------------*- C++ -*----------------------------------*\
| =========                 |                                                 |
| \\      /  F ield         | OpenFOAM: The Open Source CFD Toolbox           |
|  \\    /   O peration     | Version:  4.x                                   |
|   \\  /    A nd           | Web:      www.OpenFOAM.org                      |
|    \\/     M anipulation  |                                                 |
\*---------------------------------------------------------------------------*/
FoamFile
{
    version     2.0;
    format      ascii;
    class       volScalarField;
    location    "5000";
    object      CO;
}
// * * * * * * * * * * * * * * * * * * * * * * * * * * * * * * * * * * * * * //

dimensions      [0 0 0 0 0 0 0];

internalField   nonuniform List<scalar> 
1174
(
0.3101788954
0.3101769161
0.3101741507
0.3101705789
0.310166252
0.3101612762
0.3101557918
0.3101499534
0.3101439136
0.3101378129
0.310131779
0.3101259458
0.3101205504
0.3101163458
0.3101770755
0.3101739597
0.3101698527
0.310164865
0.3101591797
0.3101530101
0.3101465672
0.3101400386
0.3101335792
0.3101273095
0.3101213228
0.3101157086
0.3101106432
0.3101067627
0.3101730998
0.3101676909
0.3101610671
0.3101536176
0.3101457492
0.3101378179
0.310130098
0.3101227787
0.3101159752
0.3101097449
0.3101041073
0.3100990717
0.3100947134
0.3100914726
0.3101673568
0.3101590692
0.3101496511
0.3101398007
0.3101300846
0.3101208977
0.3101124768
0.3101049345
0.3100982954
0.3100925277
0.3100875692
0.3100833532
0.3100798646
0.3100773577
0.3101633225
0.3101534841
0.3101428511
0.3101321753
0.3101219868
0.3101126131
0.3101042218
0.3100968662
0.310090524
0.310085127
0.3100805849
0.3100768069
0.3100737475
0.3100715872
0.3101673569
0.3101590693
0.3101496512
0.3101398009
0.3101300848
0.3101208979
0.3101124771
0.3101049348
0.3100982958
0.3100925281
0.3100875696
0.3100833536
0.310079865
0.3100773582
0.3101731
0.3101676911
0.3101610674
0.3101536179
0.3101457496
0.3101378183
0.3101300985
0.3101227793
0.3101159758
0.3101097456
0.310104108
0.3100990725
0.3100947142
0.3100914735
0.3101770756
0.3101739599
0.3101698529
0.3101648653
0.31015918
0.3101530105
0.3101465677
0.3101400392
0.3101335798
0.3101273102
0.3101213236
0.3101157095
0.3101106441
0.3101067637
0.3101788955
0.3101769163
0.3101741508
0.3101705791
0.3101662523
0.3101612765
0.3101557922
0.3101499539
0.3101439141
0.3101378136
0.3101317797
0.3101259466
0.3101205514
0.3101163469
0.3101792029
0.3101770755
0.3101739597
0.3101698527
0.310164865
0.3101591797
0.3101530102
0.3101465672
0.3101400387
0.3101335792
0.3101273095
0.3101213228
0.3101157087
0.3101106432
0.3101067627
0.3101730398
0.3101676808
0.3101612115
0.3101540327
0.3101465345
0.3101390369
0.310131772
0.3101248897
0.3101184745
0.3101125638
0.3101071675
0.3101022946
0.3100980283
0.3100948261
0.3101630148
0.3101528118
0.3101418424
0.3101310335
0.3101209976
0.310112051
0.3101042906
0.3100976773
0.3100921009
0.3100874239
0.3100835092
0.3100802409
0.3100775641
0.3100756486
0.3101454751
0.3101287905
0.310113112
0.3100995708
0.3100885173
0.3100798442
0.3100732344
0.3100683112
0.3100647157
0.3100621388
0.3100603291
0.310059089
0.3100582702
0.3100577889
0.3101292145
0.3101093464
0.3100927049
0.3100796515
0.3100698554
0.310062757
0.3100577817
0.3100544248
0.3100522734
0.3100510032
0.3100503646
0.3100501653
0.3100502467
0.3100504361
0.3101454754
0.3101287909
0.3101131124
0.3100995713
0.3100885178
0.3100798448
0.310073235
0.3100683118
0.3100647162
0.3100621393
0.3100603296
0.3100590896
0.3100582707
0.3100577895
0.3101630152
0.3101528123
0.3101418429
0.3101310341
0.3101209983
0.3101120517
0.3101042914
0.3100976782
0.3100921018
0.3100874248
0.3100835102
0.3100802418
0.3100775651
0.3100756496
0.3101730401
0.3101676811
0.3101612119
0.3101540332
0.310146535
0.3101390375
0.3101317727
0.3101248905
0.3101184753
0.3101125647
0.3101071685
0.3101022956
0.3100980294
0.3100948272
0.3101770756
0.3101739599
0.3101698529
0.3101648653
0.31015918
0.3101530106
0.3101465678
0.3101400393
0.31013358
0.3101273104
0.3101213238
0.3101157097
0.3101106444
0.3101067639
0.3101770332
0.3101730999
0.310167691
0.3101610672
0.3101536176
0.3101457493
0.310137818
0.310130098
0.3101227788
0.3101159753
0.310109745
0.3101041074
0.3100990718
0.3100947135
0.3100914727
0.3101713517
0.3101630149
0.3101528118
0.3101418425
0.3101310335
0.3101209977
0.310112051
0.3101042906
0.3100976774
0.310092101
0.310087424
0.3100835093
0.3100802409
0.3100775641
0.3100756486
0.3101338699
0.3101128292
0.3100940408
0.3100788547
0.3100674679
0.3100594597
0.3100541783
0.3100509589
0.3100492237
0.310048512
0.3100484752
0.3100488553
0.3100494469
0.310050012
0.3100700927
0.3100353296
0.3100118597
0.3099984259
0.3099925073
0.3099916594
0.3099939562
0.3099980288
0.3100029656
0.3100081885
0.3100133441
0.31001821
0.3100225717
0.3100258813
0.3099880074
0.3099542197
0.3099404196
0.3099387752
0.3099438103
0.3099521351
0.309961774
0.309971623
0.3099810947
0.309989899
0.3099979105
0.3100050725
0.3100112632
0.3100158584
0.3100700945
0.3100353313
0.3100118613
0.3099984274
0.3099925087
0.3099916607
0.3099939574
0.3099980298
0.3100029666
0.3100081894
0.3100133449
0.3100182108
0.3100225725
0.310025882
0.3101338713
0.3101128305
0.3100940422
0.3100788561
0.3100674693
0.3100594612
0.3100541798
0.3100509603
0.3100492251
0.3100485133
0.3100484766
0.3100488566
0.3100494482
0.3100500133
0.3101630152
0.3101528123
0.3101418431
0.3101310343
0.3101209986
0.310112052
0.3101042917
0.3100976786
0.3100921022
0.3100874253
0.3100835107
0.3100802423
0.3100775656
0.3100756501
0.3101731
0.3101676911
0.3101610675
0.310153618
0.3101457498
0.3101378186
0.3101300989
0.3101227797
0.3101159763
0.3101097462
0.3101041086
0.3100990732
0.310094715
0.3100914743
0.3101738212
0.3101673569
0.3101590694
0.3101496512
0.3101398009
0.3101300848
0.3101208978
0.310112477
0.3101049347
0.3100982956
0.3100925279
0.3100875693
0.3100833533
0.3100798647
0.3100773579
0.3101610143
0.3101454752
0.3101287906
0.3101131121
0.310099571
0.3100885174
0.3100798444
0.3100732346
0.3100683113
0.3100647158
0.3100621389
0.3100603292
0.3100590892
0.3100582703
0.3100577891
0.310113265
0.310070093
0.3100353298
0.31001186
0.3099984261
0.3099925075
0.3099916596
0.3099939564
0.309998029
0.3100029657
0.3100081886
0.3100133442
0.3100182101
0.3100225719
0.3100258814
0.309854591
0.3098128756
0.3098077801
0.3098220175
0.3098445346
0.3098692324
0.3098931017
0.3099148563
0.3099340986
0.3099508541
0.30996532
0.3099777137
0.3099880754
0.309995595
0.309438865
0.3094978665
0.3095843319
0.3096659654
0.3097346954
0.309790402
0.3098351197
0.3098711018
0.309900269
0.3099241245
0.3099438005
0.3099601023
0.3099734072
0.3099829168
0.3098545974
0.3098128802
0.3098077835
0.3098220201
0.3098445367
0.3098692341
0.3098931031
0.3099148575
0.3099340997
0.3099508551
0.3099653209
0.3099777145
0.3099880762
0.3099955958
0.3100700944
0.3100353316
0.3100118619
0.3099984282
0.3099925096
0.3099916617
0.3099939584
0.3099980308
0.3100029676
0.3100081904
0.3100133459
0.3100182117
0.3100225734
0.3100258829
0.3101454755
0.3101287912
0.310113113
0.310099572
0.3100885187
0.3100798458
0.3100732361
0.3100683129
0.3100647174
0.3100621406
0.3100603309
0.3100590909
0.310058272
0.3100577908
0.3101673569
0.3101590695
0.3101496515
0.3101398013
0.3101300854
0.3101208987
0.310112478
0.3101049359
0.3100982969
0.3100925293
0.3100875709
0.310083355
0.3100798664
0.3100773597
0.3101714514
0.3101633226
0.3101534843
0.3101428513
0.3101321755
0.3101219871
0.3101126133
0.310104222
0.3100968665
0.3100905242
0.3100851273
0.3100805852
0.3100768072
0.3100737477
0.3100715875
0.3101504147
0.3101292147
0.3101093468
0.3100927053
0.3100796519
0.3100698558
0.3100627573
0.310057782
0.3100544251
0.3100522737
0.3100510035
0.3100503649
0.3100501656
0.310050247
0.3100504363
0.3100495162
0.3099880078
0.3099542205
0.3099404204
0.3099387759
0.3099438109
0.3099521357
0.3099617744
0.3099716234
0.3099810951
0.3099898994
0.3099979108
0.3100050728
0.3100112635
0.3100158586
0.3095081359
0.3094388677
0.3094978684
0.3095843333
0.3096659664
0.3097346962
0.3097904027
0.3098351202
0.3098711022
0.3099002694
0.3099241248
0.3099438008
0.3099601026
0.3099734075
0.309982917
0.3076702679
0.3085840696
0.3090864079
0.3093788586
0.309559292
0.3096770304
0.3097579122
0.3098160354
0.3098594202
0.3098928238
0.3099191769
0.3099403067
0.3099571512
0.3099690168
0.3094388656
0.3094978714
0.3095843366
0.3096659693
0.3097346986
0.3097904047
0.309835122
0.3098711038
0.3099002708
0.309924126
0.3099438019
0.3099601036
0.3099734084
0.309982918
0.3099880076
0.3099542215
0.3099404221
0.309938778
0.309943813
0.3099521378
0.3099617765
0.3099716255
0.309981097
0.3099899012
0.3099979126
0.3100050745
0.3100112651
0.3100158603
0.3101292147
0.3101093471
0.310092706
0.3100796529
0.3100698571
0.3100627588
0.3100577836
0.3100544268
0.3100522755
0.3100510053
0.3100503667
0.3100501674
0.3100502488
0.3100504382
0.3101633225
0.3101534843
0.3101428515
0.3101321759
0.3101219877
0.3101126142
0.3101042231
0.3100968677
0.3100905257
0.3100851288
0.3100805869
0.310076809
0.3100737496
0.3100715894
0.3101738213
0.310167357
0.3101590695
0.3101496515
0.3101398012
0.3101300851
0.3101208982
0.3101124774
0.3101049351
0.3100982961
0.3100925284
0.3100875699
0.3100833539
0.3100798653
0.3100773584
0.3101610147
0.3101454757
0.3101287913
0.3101131129
0.3100995718
0.3100885183
0.3100798452
0.3100732354
0.3100683122
0.3100647166
0.3100621397
0.31006033
0.31005909
0.3100582711
0.3100577898
0.310113267
0.310070095
0.310035332
0.310011862
0.309998428
0.3099925092
0.3099916612
0.3099939579
0.3099980303
0.310002967
0.3100081898
0.3100133453
0.3100182112
0.3100225729
0.3100258824
0.3099522035
0.3098545985
0.3098128816
0.3098077848
0.3098220213
0.3098445378
0.3098692351
0.309893104
0.3099148583
0.3099341004
0.3099508557
0.3099653215
0.309977715
0.3099880766
0.3099955962
0.3095081364
0.3094388692
0.3094978739
0.3095843385
0.3096659708
0.3097346998
0.3097904057
0.3098351227
0.3098711044
0.3099002713
0.3099241265
0.3099438023
0.3099601039
0.3099734087
0.3099829182
0.3099522026
0.3098545992
0.3098128831
0.3098077866
0.3098220231
0.3098445395
0.3098692368
0.3098931056
0.3099148597
0.3099341017
0.3099508569
0.3099653226
0.3099777161
0.3099880776
0.3099955972
0.3100700928
0.3100353314
0.3100118624
0.309998429
0.3099925106
0.3099916628
0.3099939596
0.309998032
0.3100029687
0.3100081915
0.310013347
0.3100182128
0.3100225744
0.3100258839
0.310145475
0.3101287909
0.3101131129
0.3100995722
0.310088519
0.3100798462
0.3100732366
0.3100683135
0.3100647181
0.3100621413
0.3100603316
0.3100590916
0.3100582728
0.3100577916
0.3101673568
0.3101590694
0.3101496514
0.3101398014
0.3101300855
0.3101208989
0.3101124783
0.3101049362
0.3100982973
0.3100925298
0.3100875714
0.3100833555
0.310079867
0.3100773603
0.3101770333
0.3101731001
0.3101676912
0.3101610676
0.3101536181
0.3101457498
0.3101378186
0.3101300987
0.3101227795
0.3101159761
0.3101097459
0.3101041083
0.3100990728
0.3100947145
0.3100914738
0.3101713521
0.3101630154
0.3101528125
0.3101418432
0.3101310344
0.3101209986
0.310112052
0.3101042917
0.3100976785
0.3100921021
0.3100874252
0.3100835105
0.3100802422
0.3100775654
0.3100756499
0.3101542099
0.3101338716
0.310112831
0.3100940427
0.3100788566
0.3100674698
0.3100594616
0.3100541802
0.3100509608
0.3100492255
0.3100485137
0.310048477
0.310048857
0.3100494486
0.3100500136
0.3101132669
0.3100700951
0.3100353325
0.3100118628
0.309998429
0.3099925103
0.3099916624
0.309993959
0.3099980314
0.3100029681
0.3100081909
0.3100133463
0.3100182121
0.3100225738
0.3100258833
0.3100495162
0.3099880092
0.309954223
0.3099404234
0.309938779
0.3099438139
0.3099521386
0.3099617772
0.3099716261
0.3099810976
0.3099899017
0.309997913
0.3100050749
0.3100112655
0.3100158606
0.3101132671
0.3100700956
0.3100353332
0.3100118636
0.3099984299
0.3099925112
0.3099916633
0.3099939599
0.3099980323
0.310002969
0.3100081917
0.3100133472
0.310018213
0.3100225746
0.3100258841
0.3101542093
0.3101338711
0.3101128308
0.3100940428
0.3100788571
0.3100674705
0.3100594625
0.3100541813
0.3100509619
0.3100492267
0.310048515
0.3100484782
0.3100488583
0.3100494498
0.3100500149
0.3101630148
0.3101528121
0.3101418431
0.3101310345
0.310120999
0.3101120526
0.3101042925
0.3100976794
0.3100921032
0.3100874263
0.3100835118
0.3100802435
0.3100775668
0.3100756513
0.3101730998
0.310167691
0.3101610674
0.3101536181
0.31014575
0.3101378189
0.3101300992
0.3101227802
0.310115977
0.3101097469
0.3101041094
0.3100990741
0.3100947159
0.3100914753
0.310179203
0.3101770757
0.31017396
0.310169853
0.3101648654
0.3101591802
0.3101530107
0.3101465679
0.3101400394
0.3101335801
0.3101273105
0.3101213239
0.3101157098
0.3101106444
0.310106764
0.3101769884
0.3101730402
0.3101676812
0.3101612121
0.3101540334
0.3101465352
0.3101390378
0.310131773
0.3101248908
0.3101184756
0.310112565
0.3101071688
0.3101022959
0.3100980298
0.3100948276
0.310171352
0.3101630154
0.3101528125
0.3101418433
0.3101310345
0.3101209989
0.3101120523
0.3101042921
0.3100976789
0.3100921026
0.3100874256
0.310083511
0.3100802427
0.3100775659
0.3100756504
0.3101610146
0.3101454758
0.3101287916
0.3101131134
0.3100995725
0.3100885191
0.3100798462
0.3100732365
0.3100683134
0.3100647178
0.310062141
0.3100603313
0.3100590913
0.3100582724
0.3100577912
0.3101504148
0.3101292152
0.3101093477
0.3100927066
0.3100796535
0.3100698577
0.3100627593
0.3100577841
0.3100544272
0.3100522759
0.3100510057
0.310050367
0.3100501678
0.3100502491
0.3100504385
0.3101610147
0.3101454759
0.3101287918
0.3101131136
0.3100995728
0.3100885195
0.3100798467
0.310073237
0.3100683139
0.3100647184
0.3100621416
0.3100603319
0.3100590919
0.310058273
0.3100577918
0.310171352
0.3101630154
0.3101528126
0.3101418435
0.3101310348
0.3101209993
0.3101120529
0.3101042927
0.3100976796
0.3100921034
0.3100874265
0.3100835119
0.3100802436
0.3100775669
0.3100756515
0.3101769883
0.31017304
0.3101676811
0.310161212
0.3101540335
0.3101465355
0.3101390381
0.3101317734
0.3101248914
0.3101184764
0.3101125659
0.3101071697
0.310102297
0.3100980309
0.3100948287
0.3101770755
0.3101739598
0.310169853
0.3101648654
0.3101591803
0.3101530109
0.3101465682
0.3101400399
0.3101335807
0.3101273112
0.3101213247
0.3101157108
0.3101106455
0.3101067652
0.3101801832
0.3101788956
0.3101769163
0.3101741509
0.3101705792
0.3101662524
0.3101612767
0.3101557924
0.3101499541
0.3101439144
0.3101378138
0.31013178
0.3101259469
0.3101205517
0.3101163472
0.310179203
0.3101770757
0.31017396
0.310169853
0.3101648654
0.3101591802
0.3101530108
0.310146568
0.3101400395
0.3101335802
0.3101273107
0.310121324
0.31011571
0.3101106446
0.3101067642
0.3101770332
0.3101731001
0.3101676912
0.3101610676
0.3101536182
0.31014575
0.3101378188
0.3101300991
0.31012278
0.3101159766
0.3101097464
0.3101041089
0.3100990735
0.3100947152
0.3100914746
0.3101738213
0.3101673571
0.3101590697
0.3101496518
0.3101398016
0.3101300857
0.310120899
0.3101124783
0.3101049362
0.3100982972
0.3100925297
0.3100875712
0.3100833553
0.3100798668
0.31007736
0.3101714515
0.3101633228
0.3101534847
0.3101428519
0.3101321764
0.3101219882
0.3101126147
0.3101042235
0.3100968681
0.310090526
0.3100851292
0.3100805872
0.3100768093
0.3100737499
0.3100715897
0.3101738213
0.3101673572
0.3101590698
0.3101496519
0.3101398018
0.310130086
0.3101208993
0.3101124787
0.3101049366
0.3100982977
0.3100925301
0.3100875717
0.3100833558
0.3100798673
0.3100773605
0.3101770333
0.3101731001
0.3101676913
0.3101610678
0.3101536184
0.3101457503
0.3101378193
0.3101300996
0.3101227806
0.3101159773
0.3101097472
0.3101041097
0.3100990743
0.3100947161
0.3100914755
0.310179203
0.3101770756
0.3101739599
0.3101698531
0.3101648655
0.3101591804
0.310153011
0.3101465683
0.31014004
0.3101335808
0.3101273113
0.3101213248
0.3101157109
0.3101106456
0.3101067653
0.3101801831
0.3101788955
0.3101769163
0.3101741509
0.3101705792
0.3101662525
0.3101612768
0.3101557926
0.3101499545
0.3101439148
0.3101378144
0.3101317807
0.3101259478
0.3101205526
0.3101163483
)
;

boundaryField
{
    top
    {
        type            zeroGradient;
    }
    bottom
    {
        type            zeroGradient;
    }
    side-walls
    {
        type            zeroGradient;
    }
    inlet
    {
        type            zeroGradient;
    }
    outlet
    {
        type            zeroGradient;
    }
    procBoundary1to0
    {
        type            processor;
        value           nonuniform List<scalar> 
97
(
0.3101801831
0.3101801831
0.310179203
0.3101770333
0.3101738214
0.3101714517
0.3101738215
0.3101770334
0.3101792031
0.3101801832
0.3101804765
0.3101769882
0.3101769882
0.3101769882
0.310171352
0.3101610149
0.3101504155
0.3101610151
0.3101713523
0.3101769885
0.3101792031
0.310179481
0.3101769561
0.3101542091
0.3101542091
0.3101542091
0.3101132672
0.3100495194
0.3101132689
0.3101542106
0.3101713523
0.3101770334
0.3101780431
0.3101725648
0.3101536948
0.3099521992
0.3099521992
0.3099521992
0.3095081529
0.3099522094
0.3101132687
0.3101610152
0.3101738215
0.310177033
0.3101684939
0.31013315
0.3099957841
0.3059112851
0.3059112851
0.3059112851
0.3095081521
0.3095081521
0.3100495192
0.3101504155
0.3101714516
0.3101780431
0.3101725649
0.3101536949
0.3100997648
0.3099957834
0.3100997653
0.3101132658
0.3101132658
0.3101132658
0.3101610146
0.3101738214
0.3101794811
0.3101769561
0.3101696598
0.3101536948
0.3101331498
0.310153695
0.3101696598
0.3101713518
0.3101713518
0.3101713518
0.3101770332
0.3101804765
0.3101794661
0.3101769561
0.3101725649
0.3101684939
0.3101725649
0.3101769561
0.3101794661
0.3101792029
0.3101792029
0.3101792029
0.3101809322
0.3101804765
0.310179481
0.3101780431
0.310177033
0.3101780431
0.3101794811
0.3101804765
0.3101809322
)
;
    }
}


// ************************************************************************* //
