/*--------------------------------*- C++ -*----------------------------------*\
| =========                 |                                                 |
| \\      /  F ield         | OpenFOAM: The Open Source CFD Toolbox           |
|  \\    /   O peration     | Version:  4.x                                   |
|   \\  /    A nd           | Web:      www.OpenFOAM.org                      |
|    \\/     M anipulation  |                                                 |
\*---------------------------------------------------------------------------*/
FoamFile
{
    version     2.0;
    format      ascii;
    class       volScalarField;
    location    "5000";
    object      CO2;
}
// * * * * * * * * * * * * * * * * * * * * * * * * * * * * * * * * * * * * * //

dimensions      [0 0 0 0 0 0 0];

internalField   nonuniform List<scalar> 
1174
(
0.06498436276
0.06498656567
0.06498964365
0.06499361906
0.0649984351
0.06500397355
0.06501007815
0.065016577
0.06502330029
0.06503009147
0.06503680862
0.06504330248
0.06504930916
0.06505399026
0.06498638815
0.06498985592
0.06499442694
0.0649999783
0.06500630626
0.06501317333
0.06502034488
0.06502761203
0.06503480245
0.06504178188
0.0650484466
0.06505469683
0.06506033644
0.06506465695
0.06499081263
0.06499683252
0.06500420457
0.06501249592
0.06502125362
0.06503008164
0.06503867468
0.06504682205
0.06505439568
0.06506133153
0.06506760799
0.06507321447
0.06507806724
0.06508167588
0.06499720392
0.06500642753
0.06501690959
0.06502787296
0.06503868729
0.06504891298
0.06505828641
0.06506668229
0.06507407322
0.06508049447
0.06508601535
0.06509070995
0.06509459494
0.06509738688
0.06500169367
0.06501264315
0.06502447726
0.06503635943
0.06504769954
0.06505813328
0.06506747394
0.06507566215
0.06508272281
0.06508873157
0.06509378908
0.06509799625
0.06510140365
0.06510380992
0.06499720384
0.06500642741
0.06501690945
0.06502787279
0.0650386871
0.06504891278
0.06505828619
0.06506668206
0.06507407298
0.06508049422
0.0650860151
0.06509070969
0.06509459468
0.06509738661
0.06499081249
0.06499683232
0.06500420431
0.06501249562
0.06502125327
0.06503008126
0.06503867426
0.0650468216
0.06505439522
0.06506133105
0.06506760749
0.06507321396
0.06507806673
0.06508167536
0.06498638803
0.06498985576
0.06499442673
0.06499997804
0.06500630595
0.06501317298
0.06502034448
0.06502761158
0.06503480196
0.06504178135
0.06504844605
0.06505469625
0.06506033583
0.06506465632
0.06498436267
0.06498656556
0.0649896435
0.06499361888
0.06499843487
0.06500397327
0.06501007782
0.06501657661
0.06502329986
0.06503009098
0.06503680808
0.0650433019
0.06504930855
0.06505398961
0.06498402045
0.06498638815
0.06498985591
0.06499442694
0.06499997829
0.06500630625
0.06501317333
0.06502034488
0.06502761202
0.06503480245
0.06504178187
0.0650484466
0.06505469683
0.06506033644
0.06506465695
0.06499087941
0.06499684374
0.0650040438
0.06501203376
0.06502037952
0.0650287248
0.06503681139
0.06504447237
0.06505161381
0.06505819391
0.06506420172
0.06506962712
0.06507437737
0.06507794311
0.06500203593
0.06501339124
0.0650255997
0.06503762996
0.06504880016
0.06505875854
0.06506739696
0.06507475895
0.0650809672
0.06508617462
0.06509053374
0.06509417363
0.06509715508
0.06509928888
0.06502155525
0.06504012395
0.06505757343
0.06507264476
0.06508494803
0.06509460242
0.06510196082
0.06510744238
0.06511144646
0.06511431693
0.06511633364
0.06511771632
0.06511863019
0.06511916783
0.06503965093
0.0650617626
0.06508028405
0.06509481288
0.06510571699
0.06511361929
0.06511915887
0.06512289748
0.06512529445
0.06512671082
0.06512742432
0.06512764879
0.0651275608
0.06512735216
0.06502155494
0.06504012356
0.06505757302
0.06507264434
0.06508494761
0.065094602
0.06510196041
0.06510744198
0.06511144608
0.06511431656
0.06511633328
0.06511771597
0.06511862985
0.0651191675
0.06500203554
0.06501339076
0.06502559918
0.0650376294
0.06504879957
0.06505875793
0.06506739634
0.06507475833
0.06508096658
0.065086174
0.06509053313
0.06509417303
0.06509715448
0.06509928829
0.06499087914
0.06499684344
0.06500404345
0.06501203336
0.06502037906
0.0650287243
0.06503681084
0.06504447178
0.06505161319
0.06505819326
0.06506420105
0.06506962643
0.06507437666
0.06507794239
0.06498638804
0.06498985576
0.06499442673
0.06499997804
0.06500630593
0.06501317295
0.06502034444
0.06502761153
0.06503480189
0.06504178127
0.06504844596
0.06505469615
0.06506033572
0.0650646562
0.06498643516
0.06499081263
0.0649968325
0.06500420454
0.0650124959
0.06502125359
0.06503008162
0.06503867466
0.06504682202
0.06505439566
0.0650613315
0.06506760796
0.06507321444
0.06507806721
0.06508167585
0.0649927578
0.06500203593
0.06501339122
0.06502559969
0.06503762995
0.06504880015
0.06505875852
0.06506739694
0.06507475893
0.06508096718
0.0650861746
0.06509053372
0.06509417361
0.06509715506
0.06509928886
0.06503447007
0.06505788671
0.06507879738
0.06509569964
0.06510837417
0.06511728878
0.06512316902
0.06512675461
0.06512868847
0.06512948325
0.06512952684
0.06512910654
0.06512845065
0.06512782382
0.06510544425
0.06514413295
0.06517025454
0.06518520783
0.06519179791
0.0651927449
0.06519019225
0.06518566322
0.06518017225
0.06517436272
0.06516862795
0.06516321545
0.06515836381
0.06515468268
0.06519679208
0.06523439613
0.06524975755
0.06525159166
0.06524599245
0.06523673189
0.06522600881
0.06521505146
0.06520451383
0.06519471867
0.06518580572
0.06517783785
0.06517095078
0.06516583881
0.0651054426
0.06514413127
0.065170253
0.06518520649
0.06519179675
0.06519274391
0.0651901914
0.06518566249
0.0651801716
0.06517436215
0.06516862744
0.06516321498
0.06515836337
0.06515468226
0.0650344687
0.0650578854
0.06507879609
0.06509569839
0.06510837298
0.06511728766
0.06512316797
0.06512675363
0.06512868756
0.0651294824
0.06512952604
0.06512910578
0.06512844992
0.06512782312
0.06500203551
0.06501339069
0.06502559907
0.06503762925
0.06504879938
0.06505875771
0.0650673961
0.06507475807
0.06508096631
0.06508617372
0.06509053285
0.06509417274
0.0650971542
0.065099288
0.06499081248
0.06499683228
0.06500420425
0.06501249552
0.06502125313
0.06503008108
0.06503867404
0.06504682134
0.06505439492
0.06506133073
0.06506760715
0.0650732136
0.06507806635
0.06508167497
0.06499000964
0.06499720391
0.06500642748
0.06501690953
0.0650278729
0.06503868722
0.06504891291
0.06505828634
0.06506668223
0.06507407315
0.0650804944
0.06508601528
0.06509070988
0.06509459487
0.06509738681
0.06500426184
0.06502155535
0.06504012395
0.06505757344
0.06507264476
0.06508494802
0.0650946024
0.06510196079
0.06510744234
0.06511144642
0.06511431688
0.06511633358
0.06511771626
0.06511863012
0.06511916777
0.06505739882
0.06510544436
0.06514413289
0.06517025444
0.06518520773
0.0651917978
0.06519274478
0.06519019213
0.06518566311
0.06518017213
0.06517436261
0.06516862785
0.06516321535
0.06515836372
0.06515468259
0.06534526185
0.0653916904
0.06539736698
0.06538152864
0.06535647554
0.06532899495
0.06530243574
0.06527822946
0.06525681846
0.06523817469
0.06522207864
0.06520828852
0.0651967595
0.06518839289
0.06580789291
0.06574224439
0.06564603129
0.06555519346
0.0654787135
0.06541672521
0.06536696504
0.06532692554
0.06529446946
0.06526792428
0.06524602989
0.06522789041
0.0652130858
0.06520250452
0.06534525571
0.06539168607
0.06539736392
0.0653815265
0.06535647404
0.06532899391
0.065302435
0.0652782289
0.06525681801
0.06523817432
0.06522207832
0.06520828822
0.06519675922
0.0651883926
0.06510544269
0.06514413108
0.06517025264
0.06518520601
0.06519179622
0.06519274335
0.06519019085
0.06518566195
0.06518017108
0.06517436164
0.06516862695
0.06516321452
0.06515836293
0.06515468183
0.06502155483
0.06504012328
0.06505757261
0.06507264382
0.06508494701
0.06509460135
0.06510195974
0.0651074413
0.06511144539
0.06511431587
0.06511633259
0.0651177153
0.06511862918
0.06511916683
0.0649972038
0.06500642729
0.06501690924
0.06502787249
0.06503868671
0.06504891231
0.06505828565
0.06506668147
0.06507407234
0.06508049354
0.0650860144
0.06509070896
0.06509459393
0.06509738586
0.06499264693
0.06500169363
0.06501264305
0.06502447714
0.06503635931
0.06504769941
0.06505813315
0.06506747382
0.06507566202
0.06508272268
0.06508873145
0.06509378895
0.06509799613
0.06510140353
0.0651038098
0.06501605756
0.06503965086
0.06506176235
0.06508028378
0.06509481262
0.06510571675
0.06511361907
0.06511915866
0.06512289728
0.06512529427
0.06512671065
0.06512742416
0.06512764863
0.06512756065
0.06512735201
0.06512834078
0.06519679226
0.06523439563
0.06524975705
0.06525159124
0.0652459921
0.06523673158
0.06522600854
0.06521505122
0.0652045136
0.06519471846
0.06518580553
0.06517783767
0.06517095061
0.06516583866
0.06573079764
0.06580789143
0.06574224314
0.06564603032
0.06555519271
0.06547871291
0.06541672473
0.06536696463
0.06532692519
0.06529446916
0.06526792402
0.06524602966
0.06522789021
0.06521308562
0.06520250435
0.06777601291
0.06675914246
0.066200142
0.06587470265
0.06567391576
0.06554289604
0.06545289059
0.0653882111
0.06533993261
0.06530276139
0.06527343618
0.06524992348
0.06523117957
0.06521797617
0.06580789214
0.06574224004
0.06564602771
0.06555519083
0.06547871154
0.0654167237
0.06536696383
0.06532692453
0.0652944686
0.06526792352
0.06524602922
0.06522788981
0.06521308524
0.06520250399
0.06519679172
0.06523439451
0.0652497557
0.06525158985
0.06524599076
0.06523673032
0.06522600738
0.06521505014
0.06520451261
0.06519471753
0.06518580466
0.06517783686
0.06517094984
0.06516583791
0.06503965066
0.06506176195
0.06508028318
0.06509481187
0.0651057159
0.06511361815
0.06511915772
0.06512289632
0.06512529331
0.0651267097
0.06512742322
0.0651276477
0.06512755973
0.06512735111
0.06500169362
0.06501264296
0.06502447694
0.06503635898
0.06504769897
0.06505813259
0.06506747317
0.0650756613
0.0650827219
0.06508873061
0.06509378808
0.06509799523
0.0651014026
0.06510380885
0.06499000959
0.0649972038
0.06500642731
0.06501690932
0.06502787266
0.06503868695
0.06504891262
0.06505828603
0.06506668191
0.06507407282
0.06508049406
0.06508601494
0.06509070953
0.06509459452
0.06509738646
0.06500426151
0.0650215548
0.06504012329
0.06505757272
0.06507264404
0.06508494732
0.06509460172
0.06510196015
0.06510744174
0.06511144585
0.06511431634
0.06511633306
0.06511771577
0.06511862965
0.06511916731
0.06505739719
0.06510544261
0.065144131
0.06517025272
0.06518520621
0.06519179647
0.06519274363
0.06519019113
0.06518566223
0.06518017135
0.06517436191
0.06516862721
0.06516321477
0.06515836317
0.06515468206
0.06523663328
0.06534525579
0.06539168551
0.06539736324
0.06538152578
0.06535647332
0.0653289932
0.06530243432
0.06527822827
0.06525681745
0.0652381738
0.06522207786
0.06520828781
0.06519675885
0.06518839227
0.06573079736
0.06580789014
0.0657422384
0.06564602635
0.06555518972
0.06547871062
0.06541672292
0.06536696317
0.06532692398
0.06529446813
0.06526792312
0.06524602887
0.0652278895
0.06521308497
0.06520250375
0.06523663384
0.06534525491
0.06539168434
0.06539736211
0.06538152476
0.0653564724
0.06532899238
0.06530243359
0.06527822761
0.06525681684
0.06523817326
0.06522207736
0.06520828734
0.06519675841
0.06518839185
0.06510544424
0.06514413157
0.06517025264
0.06518520577
0.06519179584
0.06519274289
0.06519019034
0.06518566143
0.06518017055
0.06517436113
0.06516862644
0.06516321403
0.06515836245
0.06515468136
0.06502155527
0.06504012359
0.06505757279
0.06507264389
0.06508494699
0.06509460126
0.06510195959
0.0651074411
0.06511144516
0.06511431562
0.06511633231
0.06511771501
0.06511862888
0.06511916652
0.06499720393
0.06500642741
0.06501690934
0.06502787256
0.06503868674
0.06504891229
0.0650582856
0.06506668138
0.06507407222
0.0650804934
0.06508601423
0.06509070877
0.06509459373
0.06509738563
0.06498643508
0.06499081246
0.06499683226
0.06500420424
0.06501249553
0.06502125317
0.06503008115
0.06503867415
0.06504682148
0.06505439508
0.06506133091
0.06506760735
0.06507321382
0.06507806658
0.06508167521
0.06499275748
0.06500203547
0.06501339064
0.06502559903
0.06503762924
0.0650487994
0.06505875775
0.06506739616
0.06507475814
0.0650809664
0.06508617382
0.06509053295
0.06509417285
0.06509715431
0.06509928811
0.06501183419
0.0650344686
0.06505788519
0.06507879586
0.06509569815
0.06510837273
0.06511728742
0.06512316773
0.06512675339
0.06512868732
0.06512948217
0.06512952581
0.06512910556
0.06512844971
0.06512782291
0.06505739728
0.0651054425
0.06514413069
0.06517025226
0.06518520564
0.06519179586
0.065192743
0.0651901905
0.06518566162
0.06518017077
0.06517436136
0.06516862668
0.06516321426
0.06515836268
0.0651546816
0.06512834076
0.065196791
0.06523439375
0.06524975501
0.06525158924
0.06524599022
0.06523672984
0.06522600694
0.06521504975
0.06520451226
0.06519471722
0.06518580437
0.06517783659
0.06517094959
0.06516583768
0.06505739702
0.0651054421
0.06514413023
0.06517025178
0.06518520518
0.06519179542
0.06519274257
0.0651901901
0.06518566123
0.0651801704
0.065174361
0.06516862633
0.06516321392
0.06515836236
0.06515468127
0.06501183467
0.06503446904
0.06505788547
0.06507879594
0.06509569807
0.06510837252
0.0651172871
0.06512316734
0.06512675295
0.06512868685
0.06512948167
0.06512952529
0.06512910503
0.06512844918
0.06512782238
0.06500203594
0.06501339098
0.06502559924
0.06503762932
0.06504879935
0.0650587576
0.06506739591
0.06507475781
0.06508096599
0.06508617336
0.06509053244
0.0650941723
0.06509715373
0.0650992875
0.06499081265
0.06499683244
0.06500420438
0.06501249562
0.06502125318
0.06503008107
0.06503867398
0.06504682123
0.06505439476
0.06506133051
0.06506760689
0.0650732133
0.06507806601
0.0650816746
0.06498402037
0.06498638801
0.06498985571
0.06499442667
0.06499997797
0.06500630586
0.06501317287
0.06502034437
0.06502761145
0.06503480182
0.06504178121
0.06504844589
0.06505469609
0.06506033567
0.06506465616
0.064986485
0.0649908791
0.06499684337
0.06500404335
0.06501203325
0.06502037894
0.06502872416
0.06503681069
0.06504447162
0.06505161303
0.06505819309
0.06506420088
0.06506962626
0.06507437649
0.06507794222
0.0649927575
0.06500203548
0.06501339062
0.06502559899
0.06503762916
0.06504879929
0.06505875761
0.06506739599
0.06507475795
0.06508096619
0.06508617359
0.06509053271
0.0650941726
0.06509715405
0.06509928785
0.06500426155
0.06502155476
0.06504012314
0.06505757246
0.06507264366
0.06508494685
0.06509460118
0.06510195956
0.06510744112
0.06511144521
0.06511431569
0.06511633241
0.06511771511
0.065118629
0.06511916665
0.06501605745
0.06503965045
0.06506176167
0.0650802829
0.0650948116
0.06510571564
0.06511361791
0.06511915749
0.06512289611
0.0651252931
0.0651267095
0.06512742303
0.06512764752
0.06512755955
0.06512735093
0.06500426151
0.0650215547
0.06504012306
0.06505757235
0.06507264353
0.06508494669
0.06509460101
0.06510195937
0.06510744091
0.06511144498
0.06511431545
0.06511633216
0.06511771486
0.06511862874
0.0651191664
0.06499275753
0.06500203552
0.06501339063
0.06502559893
0.06503762905
0.06504879911
0.06505875738
0.06506739572
0.06507475764
0.06508096584
0.06508617322
0.06509053232
0.06509417219
0.06509715363
0.06509928741
0.0649864851
0.06499087922
0.06499684347
0.06500404342
0.06501203327
0.0650203789
0.06502872406
0.06503681053
0.0650444714
0.06505161275
0.06505819276
0.0650642005
0.06506962584
0.06507437603
0.06507794173
0.06498638814
0.06498985583
0.06499442678
0.06499997804
0.06500630589
0.06501317285
0.06502034429
0.06502761131
0.06503480162
0.06504178094
0.06504844557
0.06505469571
0.06506033524
0.06506465568
0.06498292957
0.06498436266
0.06498656552
0.06498964345
0.06499361881
0.06499843479
0.06500397317
0.0650100777
0.06501657648
0.06502329971
0.06503009083
0.06503680792
0.06504330173
0.06504930837
0.06505398943
0.06498402038
0.06498638802
0.06498985572
0.06499442669
0.06499997798
0.06500630587
0.06501317287
0.06502034435
0.06502761143
0.06503480178
0.06504178115
0.06504844583
0.06505469601
0.06506033558
0.06506465606
0.06498643509
0.06499081248
0.06499683226
0.06500420422
0.06501249548
0.06502125308
0.06503008103
0.06503867398
0.06504682128
0.06505439485
0.06506133065
0.06506760706
0.06507321351
0.06507806624
0.06508167486
0.06499000958
0.06499720375
0.0650064272
0.06501690913
0.06502787238
0.06503868659
0.06504891218
0.06505828552
0.06506668133
0.0650740722
0.0650804934
0.06508601425
0.06509070882
0.06509459379
0.06509738571
0.06499264688
0.06500169348
0.06501264277
0.06502447672
0.06503635875
0.06504769874
0.06505813237
0.06506747295
0.06507566109
0.06508272169
0.06508873042
0.06509378789
0.06509799505
0.06510140243
0.06510380868
0.06499000955
0.0649972037
0.06500642714
0.06501690905
0.06502787227
0.06503868646
0.06504891203
0.06505828536
0.06506668115
0.065074072
0.0650804932
0.06508601404
0.06509070859
0.06509459356
0.06509738548
0.06498643507
0.06499081244
0.06499683219
0.06500420411
0.06501249534
0.0650212529
0.0650300808
0.06503867371
0.06504682098
0.06505439452
0.06506133029
0.06506760668
0.0650732131
0.06507806583
0.06508167443
0.06498402039
0.06498638804
0.06498985574
0.06499442669
0.06499997796
0.06500630581
0.06501317277
0.06502034421
0.06502761124
0.06503480155
0.06504178088
0.06504844551
0.06505469565
0.06506033519
0.06506465563
0.06498292961
0.06498436271
0.06498656558
0.06498964351
0.06499361886
0.06499843482
0.06500397317
0.06501007767
0.06501657641
0.06502329959
0.06503009066
0.0650368077
0.06504330146
0.06504930805
0.06505398906
)
;

boundaryField
{
    top
    {
        type            zeroGradient;
    }
    bottom
    {
        type            zeroGradient;
    }
    side-walls
    {
        type            zeroGradient;
    }
    inlet
    {
        type            zeroGradient;
    }
    outlet
    {
        type            zeroGradient;
    }
    procBoundary1to0
    {
        type            processor;
        value           nonuniform List<scalar> 
97
(
0.06498292961
0.06498292961
0.0649840204
0.06498643508
0.0649900095
0.06499264676
0.06499000945
0.06498643499
0.06498402033
0.06498292955
0.06498260312
0.06498648513
0.06498648513
0.06498648513
0.06499275757
0.06500426141
0.0650160571
0.06500426119
0.0649927573
0.06498648492
0.06498402033
0.06498371093
0.06498652085
0.06501183489
0.06501183489
0.06501183489
0.06505739735
0.06512833929
0.06505739588
0.06501183367
0.06499275729
0.064986435
0.06498531115
0.06499140769
0.06501240719
0.06523663825
0.06523663825
0.06523663825
0.06573079317
0.06523662996
0.06505739604
0.06500426115
0.06499000945
0.06498643529
0.06499593801
0.06503527003
0.06518813551
0.06973349914
0.06973349914
0.06973349914
0.06573079345
0.06573079345
0.06512833937
0.06501605703
0.06499264677
0.06498531114
0.06499140759
0.06501240692
0.06507242213
0.06518813566
0.06507242197
0.06505739816
0.06505739816
0.06505739816
0.06500426157
0.06499000955
0.06498371091
0.06498652079
0.0649946405
0.06501240701
0.06503527017
0.0650124069
0.06499464057
0.06499275772
0.06499275772
0.06499275772
0.06498643512
0.0649826031
0.06498372757
0.0649865208
0.06499140763
0.06499593801
0.06499140761
0.0649865208
0.06498372759
0.06498402043
0.06498402043
0.06498402043
0.06498209598
0.06498260311
0.06498371092
0.06498531115
0.06498643529
0.06498531114
0.0649837109
0.06498260311
0.06498209599
)
;
    }
}


// ************************************************************************* //
