/*--------------------------------*- C++ -*----------------------------------*\
| =========                 |                                                 |
| \\      /  F ield         | OpenFOAM: The Open Source CFD Toolbox           |
|  \\    /   O peration     | Version:  4.x                                   |
|   \\  /    A nd           | Web:      www.OpenFOAM.org                      |
|    \\/     M anipulation  |                                                 |
\*---------------------------------------------------------------------------*/
FoamFile
{
    version     2.0;
    format      ascii;
    class       volScalarField;
    location    "5000";
    object      Cpv;
}
// * * * * * * * * * * * * * * * * * * * * * * * * * * * * * * * * * * * * * //

dimensions      [0 2 -2 -1 0 0 0];

internalField   nonuniform List<scalar> 
1174
(
1277.532867
1277.532654
1277.53237
1277.531984
1277.531495
1277.530942
1277.530343
1277.529688
1277.529031
1277.528347
1277.527681
1277.527021
1277.526431
1277.525973
1277.53268
1277.532342
1277.531863
1277.531305
1277.530731
1277.530041
1277.529338
1277.528611
1277.527907
1277.52722
1277.526543
1277.525921
1277.525342
1277.52492
1277.532153
1277.531569
1277.530858
1277.530044
1277.529187
1277.528342
1277.527473
1277.526681
1277.525921
1277.525183
1277.52459
1277.524042
1277.523576
1277.523215
1277.531521
1277.53059
1277.529541
1277.528469
1277.527396
1277.526378
1277.525426
1277.524586
1277.523859
1277.523221
1277.52266
1277.522184
1277.521801
1277.521529
1277.530824
1277.529691
1277.528481
1277.527288
1277.526176
1277.525154
1277.524222
1277.523409
1277.522731
1277.52211
1277.52161
1277.521201
1277.520871
1277.520661
1277.53171
1277.530806
1277.529791
1277.528709
1277.52763
1277.526626
1277.525698
1277.524865
1277.524113
1277.523485
1277.522954
1277.522477
1277.522112
1277.521835
1277.531667
1277.531057
1277.530308
1277.52948
1277.528593
1277.527722
1277.526886
1277.526047
1277.525308
1277.52461
1277.523959
1277.523432
1277.522931
1277.522573
1277.532564
1277.532215
1277.531779
1277.531202
1277.530569
1277.529908
1277.529189
1277.52846
1277.527759
1277.527065
1277.526403
1277.525797
1277.525254
1277.52484
1277.532986
1277.53275
1277.53246
1277.532061
1277.531606
1277.531049
1277.530444
1277.529775
1277.52911
1277.528433
1277.527767
1277.527118
1277.526528
1277.526071
1277.532987
1277.532748
1277.532416
1277.53196
1277.531443
1277.530802
1277.530108
1277.529395
1277.528692
1277.52796
1277.527264
1277.526608
1277.525996
1277.525446
1277.525016
1277.532526
1277.531924
1277.531202
1277.530357
1277.529532
1277.528707
1277.527926
1277.527157
1277.526491
1277.525822
1277.525275
1277.524727
1277.524265
1277.523914
1277.531084
1277.529953
1277.528715
1277.527513
1277.526412
1277.525403
1277.524533
1277.523819
1277.523201
1277.522678
1277.522231
1277.521884
1277.52161
1277.521365
1277.52875
1277.52689
1277.525165
1277.523667
1277.522436
1277.521504
1277.520779
1277.520251
1277.519843
1277.519577
1277.519373
1277.519242
1277.519142
1277.519124
1277.528176
1277.525978
1277.524137
1277.52269
1277.521608
1277.520836
1277.520278
1277.519919
1277.519675
1277.519539
1277.5195
1277.51948
1277.519474
1277.519505
1277.529691
1277.527846
1277.526116
1277.524632
1277.523418
1277.522456
1277.521748
1277.521213
1277.520808
1277.520534
1277.520344
1277.520216
1277.520125
1277.520096
1277.531214
1277.530054
1277.528832
1277.527645
1277.526516
1277.525547
1277.524691
1277.523992
1277.523386
1277.522892
1277.522457
1277.522084
1277.521763
1277.521545
1277.532422
1277.531827
1277.531098
1277.530297
1277.529467
1277.528633
1277.527829
1277.527083
1277.526362
1277.5257
1277.525103
1277.524588
1277.524087
1277.523738
1277.53299
1277.53264
1277.532195
1277.531644
1277.530999
1277.530302
1277.52959
1277.528864
1277.528165
1277.52747
1277.526835
1277.526216
1277.525631
1277.525197
1277.532958
1277.532506
1277.531901
1277.531146
1277.530305
1277.529428
1277.528581
1277.527715
1277.526911
1277.52617
1277.525468
1277.52485
1277.524281
1277.523823
1277.523458
1277.531705
1277.53078
1277.52964
1277.528424
1277.527233
1277.526115
1277.525122
1277.524268
1277.523507
1277.522883
1277.522352
1277.52193
1277.521588
1277.521302
1277.521115
1277.528224
1277.525891
1277.523819
1277.52213
1277.52088
1277.51999
1277.519423
1277.519071
1277.518886
1277.518842
1277.518842
1277.518884
1277.518947
1277.519006
1277.520366
1277.516504
1277.513926
1277.51246
1277.51181
1277.511697
1277.511959
1277.512417
1277.512976
1277.513529
1277.514104
1277.514643
1277.515142
1277.515531
1277.512044
1277.508311
1277.506815
1277.506623
1277.507203
1277.508134
1277.509212
1277.510311
1277.511347
1277.512338
1277.513233
1277.514032
1277.514724
1277.515235
1277.520562
1277.516726
1277.514135
1277.512656
1277.512029
1277.511942
1277.512207
1277.512673
1277.513233
1277.513818
1277.514363
1277.514889
1277.515398
1277.51578
1277.526983
1277.524656
1277.522557
1277.520879
1277.519629
1277.518731
1277.518173
1277.517769
1277.517569
1277.517472
1277.517479
1277.517557
1277.517639
1277.517684
1277.531182
1277.530029
1277.528805
1277.527594
1277.526495
1277.525497
1277.524637
1277.523942
1277.523302
1277.522786
1277.52235
1277.522013
1277.521721
1277.521498
1277.532024
1277.531407
1277.530686
1277.529859
1277.528972
1277.528116
1277.527272
1277.526455
1277.525697
1277.524986
1277.524342
1277.5238
1277.523304
1277.522938
1277.53179
1277.531087
1277.530161
1277.529124
1277.528036
1277.526969
1277.525975
1277.525029
1277.524196
1277.52348
1277.522819
1277.52227
1277.521858
1277.521473
1277.521233
1277.531451
1277.529734
1277.52788
1277.526123
1277.524654
1277.52341
1277.522442
1277.521743
1277.52118
1277.520805
1277.520559
1277.520346
1277.520233
1277.520137
1277.520118
1277.525613
1277.520842
1277.516994
1277.514374
1277.512891
1277.512214
1277.512139
1277.512411
1277.512843
1277.513422
1277.514017
1277.514606
1277.515133
1277.515604
1277.516012
1277.498371
1277.493766
1277.4932
1277.494782
1277.497307
1277.500062
1277.502697
1277.505105
1277.507257
1277.509093
1277.510711
1277.512098
1277.51324
1277.514094
1277.449634
1277.456175
1277.465782
1277.474841
1277.482504
1277.488702
1277.493685
1277.497684
1277.500918
1277.503575
1277.505749
1277.507558
1277.50906
1277.510124
1277.495682
1277.491087
1277.490523
1277.49213
1277.494607
1277.497353
1277.500005
1277.502446
1277.504591
1277.506435
1277.508074
1277.509435
1277.510572
1277.511411
1277.521394
1277.517559
1277.514939
1277.513436
1277.512773
1277.512704
1277.512958
1277.513439
1277.513987
1277.514602
1277.515173
1277.515727
1277.516223
1277.516568
1277.528633
1277.526793
1277.52504
1277.523541
1277.522316
1277.521356
1277.520615
1277.520072
1277.519659
1277.519379
1277.519185
1277.519056
1277.518979
1277.518919
1277.531864
1277.530941
1277.5299
1277.528801
1277.527712
1277.526688
1277.525776
1277.524963
1277.524236
1277.523601
1277.523077
1277.522595
1277.522222
1277.521972
1277.531938
1277.531033
1277.529922
1277.528763
1277.52759
1277.526454
1277.525433
1277.524514
1277.523697
1277.523008
1277.522426
1277.521935
1277.521488
1277.521146
1277.520938
1277.530392
1277.528028
1277.525842
1277.524
1277.522578
1277.521508
1277.520708
1277.520146
1277.519796
1277.519546
1277.51941
1277.519327
1277.5193
1277.51932
1277.519335
1277.518779
1277.511929
1277.508196
1277.506681
1277.506515
1277.507088
1277.508005
1277.509084
1277.510167
1277.511212
1277.512191
1277.513089
1277.513916
1277.514606
1277.515142
1277.457487
1277.44978
1277.456354
1277.465971
1277.475052
1277.482675
1277.488862
1277.493855
1277.497859
1277.501059
1277.503715
1277.505908
1277.507728
1277.509205
1277.51026
1276.163565
1276.26514
1276.32061
1276.352563
1276.371899
1276.384248
1276.392417
1276.398049
1276.402019
1276.404888
1276.406939
1276.408418
1276.409417
1276.409835
1277.449324
1277.455881
1277.465509
1277.474587
1277.482262
1277.488464
1277.493418
1277.497422
1277.500673
1277.503306
1277.505472
1277.507271
1277.508747
1277.509795
1277.511978
1277.508229
1277.506711
1277.506528
1277.507084
1277.50801
1277.509077
1277.510182
1277.511227
1277.512213
1277.513128
1277.513888
1277.514559
1277.515081
1277.526884
1277.524668
1277.522846
1277.52139
1277.520318
1277.519551
1277.518997
1277.518617
1277.518389
1277.518225
1277.518197
1277.518162
1277.518136
1277.518185
1277.53147
1277.530372
1277.529217
1277.528018
1277.526877
1277.525822
1277.524888
1277.52407
1277.523375
1277.522772
1277.522268
1277.521873
1277.521551
1277.52131
1277.532915
1277.532197
1277.531265
1277.530226
1277.529149
1277.528076
1277.527036
1277.526126
1277.525286
1277.524572
1277.523948
1277.523435
1277.522984
1277.522598
1277.522304
1277.530557
1277.528813
1277.526977
1277.525246
1277.523767
1277.522523
1277.521572
1277.520823
1277.520259
1277.519872
1277.519587
1277.519411
1277.519276
1277.519192
1277.519125
1277.525433
1277.52066
1277.516798
1277.514204
1277.512706
1277.512094
1277.511993
1277.512254
1277.512732
1277.513271
1277.513836
1277.514378
1277.514927
1277.515428
1277.515775
1277.50818
1277.497359
1277.492715
1277.492186
1277.49375
1277.496266
1277.499008
1277.501694
1277.504119
1277.506245
1277.508105
1277.509734
1277.511114
1277.512285
1277.513144
1277.457771
1277.450089
1277.456647
1277.466235
1277.475282
1277.482925
1277.489096
1277.494067
1277.498072
1277.501322
1277.503937
1277.506108
1277.507932
1277.509399
1277.510434
1277.508505
1277.497683
1277.493076
1277.492513
1277.494118
1277.496626
1277.499398
1277.502077
1277.504493
1277.506665
1277.508537
1277.510151
1277.511538
1277.512684
1277.513556
1277.521107
1277.51725
1277.514678
1277.513165
1277.512514
1277.512422
1277.51268
1277.513155
1277.513727
1277.514293
1277.51486
1277.515386
1277.515879
1277.516222
1277.529141
1277.527265
1277.525543
1277.524052
1277.522842
1277.521864
1277.521114
1277.52054
1277.520146
1277.519876
1277.519711
1277.519597
1277.519534
1277.519467
1277.531621
1277.530683
1277.52964
1277.528532
1277.527463
1277.52646
1277.52554
1277.524705
1277.523972
1277.52334
1277.522803
1277.522341
1277.521968
1277.521689
1277.532323
1277.531854
1277.531275
1277.530531
1277.529716
1277.528861
1277.527984
1277.527114
1277.526285
1277.525499
1277.524814
1277.524184
1277.523637
1277.523127
1277.522772
1277.532287
1277.531364
1277.530265
1277.52907
1277.527871
1277.526736
1277.52576
1277.524929
1277.524205
1277.523602
1277.523108
1277.522653
1277.522296
1277.522025
1277.521833
1277.529352
1277.527096
1277.524755
1277.522658
1277.520994
1277.519704
1277.51883
1277.518242
1277.517874
1277.517681
1277.5176
1277.517621
1277.517679
1277.517756
1277.517848
1277.525988
1277.521177
1277.517344
1277.514727
1277.513252
1277.512592
1277.512509
1277.512784
1277.513213
1277.513777
1277.514362
1277.51494
1277.515506
1277.51597
1277.51635
1277.519447
1277.512637
1277.508911
1277.507382
1277.507208
1277.507769
1277.508709
1277.509779
1277.510868
1277.511907
1277.512922
1277.513838
1277.514628
1277.515301
1277.515841
1277.525251
1277.520459
1277.51663
1277.51404
1277.51255
1277.511931
1277.511829
1277.512067
1277.512543
1277.513077
1277.513643
1277.514224
1277.514775
1277.515259
1277.515594
1277.529953
1277.52769
1277.525389
1277.52331
1277.521645
1277.520427
1277.51953
1277.518961
1277.518636
1277.518447
1277.518387
1277.518371
1277.518417
1277.518483
1277.518555
1277.531784
1277.530655
1277.529469
1277.528258
1277.527147
1277.526142
1277.525275
1277.524561
1277.523929
1277.523408
1277.522958
1277.522619
1277.522328
1277.522109
1277.532301
1277.531704
1277.530975
1277.53017
1277.529309
1277.52844
1277.527579
1277.526748
1277.525985
1277.525295
1277.524692
1277.524133
1277.523637
1277.523275
1277.532794
1277.532565
1277.532202
1277.531752
1277.531214
1277.530566
1277.529895
1277.529186
1277.528463
1277.527751
1277.527057
1277.526411
1277.525769
1277.525203
1277.524778
1277.532056
1277.531599
1277.530982
1277.530261
1277.529451
1277.528611
1277.527776
1277.526973
1277.526207
1277.525474
1277.524846
1277.524251
1277.523743
1277.523263
1277.522908
1277.532614
1277.531675
1277.530548
1277.529309
1277.528099
1277.527007
1277.526022
1277.52519
1277.524453
1277.523822
1277.523302
1277.522884
1277.52253
1277.522251
1277.522058
1277.531106
1277.52939
1277.527521
1277.525796
1277.524286
1277.523064
1277.522103
1277.521376
1277.520834
1277.520442
1277.52017
1277.519976
1277.519859
1277.519783
1277.519749
1277.529898
1277.527553
1277.525329
1277.523478
1277.522066
1277.520993
1277.52021
1277.519654
1277.519275
1277.519034
1277.51889
1277.518827
1277.518803
1277.518827
1277.518909
1277.531701
1277.529976
1277.528116
1277.526391
1277.524899
1277.523673
1277.522701
1277.521951
1277.521428
1277.520987
1277.520696
1277.520487
1277.52035
1277.520258
1277.520209
1277.531352
1277.530415
1277.52927
1277.528047
1277.526838
1277.52572
1277.524715
1277.523852
1277.523136
1277.522509
1277.522
1277.521566
1277.521212
1277.520918
1277.520714
1277.532071
1277.531652
1277.531044
1277.530348
1277.529557
1277.5287
1277.527866
1277.52706
1277.526291
1277.525601
1277.524958
1277.52436
1277.523784
1277.523319
1277.522998
1277.532564
1277.532211
1277.53175
1277.531197
1277.530569
1277.529886
1277.52919
1277.528448
1277.527736
1277.527064
1277.526383
1277.525787
1277.525236
1277.524804
1277.532514
1277.532384
1277.532162
1277.531849
1277.531453
1277.530984
1277.530422
1277.529825
1277.529176
1277.528513
1277.527851
1277.527168
1277.526538
1277.525957
1277.525485
1277.533251
1277.532992
1277.532654
1277.532181
1277.531664
1277.531037
1277.530348
1277.529655
1277.528924
1277.528222
1277.52751
1277.526837
1277.526212
1277.52564
1277.525217
1277.53304
1277.532632
1277.53202
1277.531277
1277.530489
1277.529604
1277.528711
1277.527857
1277.527036
1277.526293
1277.525621
1277.525008
1277.524456
1277.523964
1277.523598
1277.532541
1277.531831
1277.530902
1277.529886
1277.5288
1277.527728
1277.526722
1277.525814
1277.524981
1277.524268
1277.523612
1277.52308
1277.522605
1277.522222
1277.521962
1277.531877
1277.531
1277.529916
1277.528734
1277.527586
1277.526456
1277.525423
1277.524514
1277.52371
1277.523025
1277.522428
1277.521928
1277.521522
1277.521189
1277.520938
1277.532055
1277.531348
1277.530439
1277.529383
1277.528292
1277.527204
1277.526199
1277.525272
1277.524439
1277.523706
1277.523076
1277.522544
1277.522085
1277.521709
1277.521409
1277.531881
1277.531427
1277.530835
1277.530111
1277.529303
1277.528438
1277.527562
1277.526722
1277.525907
1277.525145
1277.524459
1277.523813
1277.523262
1277.522788
1277.522414
1277.533182
1277.532963
1277.532642
1277.532185
1277.531614
1277.530998
1277.530319
1277.529607
1277.528907
1277.52818
1277.52748
1277.526823
1277.526205
1277.525656
1277.525232
1277.533195
1277.533044
1277.532829
1277.532519
1277.532128
1277.53164
1277.531096
1277.530491
1277.529845
1277.529168
1277.5285
1277.527829
1277.527191
1277.526594
1277.526131
)
;

boundaryField
{
    top
    {
        type            calculated;
        value           nonuniform List<scalar> 
127
(
1277.533195
1277.532986
1277.53299
1277.532024
1277.531864
1277.53147
1277.531621
1277.532301
1277.532564
1277.533044
1277.53275
1277.53264
1277.531407
1277.530941
1277.530372
1277.530683
1277.531704
1277.532211
1277.532829
1277.53246
1277.532195
1277.530686
1277.5299
1277.529217
1277.52964
1277.530975
1277.53175
1277.532519
1277.532061
1277.531644
1277.529859
1277.528801
1277.528018
1277.528532
1277.53017
1277.531197
1277.532128
1277.531606
1277.530999
1277.528972
1277.527712
1277.526877
1277.527463
1277.529309
1277.530569
1277.53164
1277.531049
1277.530302
1277.528116
1277.526688
1277.525822
1277.52646
1277.52844
1277.529886
1277.531096
1277.530444
1277.52959
1277.527272
1277.525776
1277.524888
1277.52554
1277.527579
1277.52919
1277.530491
1277.529775
1277.528864
1277.526455
1277.524963
1277.52407
1277.524705
1277.526748
1277.528448
1277.529845
1277.52911
1277.528165
1277.525697
1277.524236
1277.523375
1277.523972
1277.525985
1277.527736
1277.529168
1277.528433
1277.52747
1277.524986
1277.523601
1277.522772
1277.52334
1277.525295
1277.527064
1277.5285
1277.527767
1277.526835
1277.524342
1277.523077
1277.522268
1277.522803
1277.524692
1277.526383
1277.527829
1277.527118
1277.526216
1277.5238
1277.522595
1277.521873
1277.522341
1277.524133
1277.525787
1277.527191
1277.526528
1277.525631
1277.523304
1277.522222
1277.521551
1277.521968
1277.523637
1277.525236
1277.526594
1277.526071
1277.525197
1277.522938
1277.521972
1277.52131
1277.521689
1277.523275
1277.524804
1277.526131
)
;
    }
    bottom
    {
        type            calculated;
        value           nonuniform List<scalar> 
134
(
1277.532987
1277.532958
1277.53179
1277.531938
1277.532915
1277.532323
1277.532794
1277.532514
1277.532867
1277.532748
1277.532506
1277.531087
1277.531033
1277.532197
1277.531854
1277.532565
1277.532384
1277.532654
1277.532416
1277.531901
1277.530161
1277.529922
1277.531265
1277.531275
1277.532202
1277.532162
1277.53237
1277.53196
1277.531146
1277.529124
1277.528763
1277.530226
1277.530531
1277.531752
1277.531849
1277.531984
1277.531443
1277.530305
1277.528036
1277.52759
1277.529149
1277.529716
1277.531214
1277.531453
1277.531495
1277.530802
1277.529428
1277.526969
1277.526454
1277.528076
1277.528861
1277.530566
1277.530984
1277.530942
1277.530108
1277.528581
1277.525975
1277.525433
1277.527036
1277.527984
1277.529895
1277.530422
1277.530343
1277.529395
1277.527715
1277.525029
1277.524514
1277.526126
1277.527114
1277.529186
1277.529825
1277.529688
1277.528692
1277.526911
1277.524196
1277.523697
1277.525286
1277.526285
1277.528463
1277.529176
1277.529031
1277.52796
1277.52617
1277.52348
1277.523008
1277.524572
1277.525499
1277.527751
1277.528513
1277.528347
1277.527264
1277.525468
1277.522819
1277.522426
1277.523948
1277.524814
1277.527057
1277.527851
1277.527681
1277.526608
1277.52485
1277.52227
1277.521935
1277.523435
1277.524184
1277.526411
1277.527168
1277.527021
1277.525996
1277.524281
1277.521858
1277.521488
1277.522984
1277.523637
1277.525769
1277.526538
1277.526431
1277.525446
1277.523823
1277.521473
1277.521146
1277.522598
1277.523127
1277.525203
1277.525957
1277.525973
1277.525016
1277.523458
1277.521233
1277.520938
1277.522304
1277.522772
1277.524778
1277.525485
)
;
    }
    side-walls
    {
        type            calculated;
        value           nonuniform List<scalar> 
261
(
1277.532867
1277.53268
1277.532153
1277.531521
1277.530824
1277.53171
1277.531667
1277.532564
1277.532986
1277.532654
1277.532342
1277.531569
1277.53059
1277.529691
1277.530806
1277.531057
1277.532215
1277.53275
1277.53237
1277.531863
1277.530858
1277.529541
1277.528481
1277.529791
1277.530308
1277.531779
1277.53246
1277.531984
1277.531305
1277.530044
1277.528469
1277.527288
1277.528709
1277.52948
1277.531202
1277.532061
1277.531495
1277.530731
1277.529187
1277.527396
1277.526176
1277.52763
1277.528593
1277.530569
1277.531606
1277.530942
1277.530041
1277.528342
1277.526378
1277.525154
1277.526626
1277.527722
1277.529908
1277.531049
1277.530343
1277.529338
1277.527473
1277.525426
1277.524222
1277.525698
1277.526886
1277.529189
1277.530444
1277.529688
1277.528611
1277.526681
1277.524586
1277.523409
1277.524865
1277.526047
1277.52846
1277.529775
1277.529031
1277.527907
1277.525921
1277.523859
1277.522731
1277.524113
1277.525308
1277.527759
1277.52911
1277.528347
1277.52722
1277.525183
1277.523221
1277.52211
1277.523485
1277.52461
1277.527065
1277.528433
1277.527681
1277.526543
1277.52459
1277.52266
1277.52161
1277.522954
1277.523959
1277.526403
1277.527767
1277.527021
1277.525921
1277.524042
1277.522184
1277.521201
1277.522477
1277.523432
1277.525797
1277.527118
1277.526431
1277.525342
1277.523576
1277.521801
1277.520871
1277.522112
1277.522931
1277.525254
1277.526528
1277.525973
1277.52492
1277.523215
1277.521529
1277.520661
1277.521835
1277.522573
1277.52484
1277.526071
1277.532514
1277.533251
1277.53304
1277.532541
1277.531877
1277.532055
1277.531881
1277.533182
1277.533195
1277.532384
1277.532992
1277.532632
1277.531831
1277.531
1277.531348
1277.531427
1277.532963
1277.533044
1277.532162
1277.532654
1277.53202
1277.530902
1277.529916
1277.530439
1277.530835
1277.532642
1277.532829
1277.531849
1277.532181
1277.531277
1277.529886
1277.528734
1277.529383
1277.530111
1277.532185
1277.532519
1277.531453
1277.531664
1277.530489
1277.5288
1277.527586
1277.528292
1277.529303
1277.531614
1277.532128
1277.530984
1277.531037
1277.529604
1277.527728
1277.526456
1277.527204
1277.528438
1277.530998
1277.53164
1277.530422
1277.530348
1277.528711
1277.526722
1277.525423
1277.526199
1277.527562
1277.530319
1277.531096
1277.529825
1277.529655
1277.527857
1277.525814
1277.524514
1277.525272
1277.526722
1277.529607
1277.530491
1277.529176
1277.528924
1277.527036
1277.524981
1277.52371
1277.524439
1277.525907
1277.528907
1277.529845
1277.528513
1277.528222
1277.526293
1277.524268
1277.523025
1277.523706
1277.525145
1277.52818
1277.529168
1277.527851
1277.52751
1277.525621
1277.523612
1277.522428
1277.523076
1277.524459
1277.52748
1277.5285
1277.527168
1277.526837
1277.525008
1277.52308
1277.521928
1277.522544
1277.523813
1277.526823
1277.527829
1277.526538
1277.526212
1277.524456
1277.522605
1277.521522
1277.522085
1277.523262
1277.526205
1277.527191
1277.525957
1277.52564
1277.523964
1277.522222
1277.521189
1277.521709
1277.522788
1277.525656
1277.526594
1277.525485
1277.525217
1277.523598
1277.521962
1277.520938
1277.521409
1277.522414
1277.525232
1277.526131
)
;
    }
    inlet
    {
        type            calculated;
        value           nonuniform 0();
    }
    outlet
    {
        type            calculated;
        value           nonuniform List<scalar> 
81
(
1277.525973
1277.52492
1277.523215
1277.521529
1277.520661
1277.521835
1277.522573
1277.52484
1277.526071
1277.525016
1277.523914
1277.521365
1277.519124
1277.519505
1277.520096
1277.521545
1277.523738
1277.525197
1277.523458
1277.521115
1277.519006
1277.515531
1277.515235
1277.51578
1277.517684
1277.521498
1277.522938
1277.521233
1277.520118
1277.516012
1277.514094
1277.510124
1277.511411
1277.516568
1277.518919
1277.521972
1277.520938
1277.519335
1277.515142
1277.51026
1276.409835
1277.509795
1277.515081
1277.518185
1277.52131
1277.522304
1277.519125
1277.515775
1277.513144
1277.510434
1277.513556
1277.516222
1277.519467
1277.521689
1277.522772
1277.521833
1277.517848
1277.51635
1277.515841
1277.515594
1277.518555
1277.522109
1277.523275
1277.524778
1277.522908
1277.522058
1277.519749
1277.518909
1277.520209
1277.520714
1277.522998
1277.524804
1277.525485
1277.525217
1277.523598
1277.521962
1277.520938
1277.521409
1277.522414
1277.525232
1277.526131
)
;
    }
    procBoundary1to0
    {
        type            processor;
        value           nonuniform List<scalar> 
97
(
1277.533004
1277.533004
1277.532916
1277.532561
1277.532233
1277.531699
1277.532396
1277.532097
1277.532801
1277.533119
1277.533172
1277.532966
1277.532966
1277.532966
1277.532007
1277.53046
1277.530537
1277.53144
1277.532111
1277.532865
1277.53323
1277.533269
1277.532325
1277.53047
1277.53047
1277.53047
1277.525129
1277.518872
1277.525379
1277.529243
1277.532096
1277.532446
1277.532228
1277.53272
1277.530103
1277.509203
1277.509203
1277.509203
1277.457294
1277.506462
1277.526166
1277.530346
1277.532619
1277.532579
1277.532389
1277.528051
1277.512589
1275.965897
1275.965897
1275.965897
1277.456954
1277.456954
1277.518823
1277.52921
1277.532352
1277.533378
1277.531845
1277.529918
1277.524575
1277.512867
1277.524917
1277.525865
1277.525865
1277.525865
1277.530894
1277.532358
1277.532585
1277.532912
1277.531073
1277.53049
1277.528715
1277.529767
1277.531639
1277.532702
1277.532702
1277.532702
1277.532751
1277.53293
1277.532358
1277.533239
1277.532374
1277.531922
1277.533005
1277.531979
1277.532338
1277.5328
1277.5328
1277.5328
1277.532605
1277.533399
1277.533299
1277.533
1277.532501
1277.532528
1277.532168
1277.533343
1277.533248
)
;
    }
}


// ************************************************************************* //
