/*--------------------------------*- C++ -*----------------------------------*\
| =========                 |                                                 |
| \\      /  F ield         | OpenFOAM: The Open Source CFD Toolbox           |
|  \\    /   O peration     | Version:  4.x                                   |
|   \\  /    A nd           | Web:      www.OpenFOAM.org                      |
|    \\/     M anipulation  |                                                 |
\*---------------------------------------------------------------------------*/
FoamFile
{
    version     2.0;
    format      ascii;
    class       volScalarField;
    location    "5000";
    object      H2;
}
// * * * * * * * * * * * * * * * * * * * * * * * * * * * * * * * * * * * * * //

dimensions      [0 0 0 0 0 0 0];

internalField   nonuniform List<scalar> 
1174
(
0.004463674064
0.004463565444
0.004463413693
0.004463217721
0.004462980345
0.00446270741
0.004462406632
0.004462086497
0.004461755384
0.004461421014
0.00446109038
0.00446077083
0.004460475336
0.004460245104
0.004463574143
0.004463403128
0.004463177735
0.004462904044
0.004462592122
0.004462253695
0.004461900344
0.004461542374
0.004461188285
0.004460844693
0.004460516705
0.004460209226
0.004459931883
0.004459719469
0.00446335584
0.004463058921
0.004462695364
0.004462286546
0.004461854828
0.004461419754
0.004460996383
0.004460595102
0.00446022222
0.004459880883
0.004459572144
0.004459296503
0.004459058041
0.00445888079
0.004463040451
0.004462585467
0.004462068498
0.004461527911
0.004460994812
0.004460490886
0.004460029127
0.0044596157
0.00445925194
0.004458936089
0.004458664711
0.004458434128
0.004458243466
0.004458106543
0.004462818862
0.004462278721
0.004461695063
0.004461109179
0.004460550187
0.004460036051
0.004459575963
0.004459172834
0.004458825416
0.004458529957
0.004458281474
0.004458074966
0.004457907888
0.004457790006
0.004463040454
0.004462585472
0.004462068505
0.004461527918
0.004460994821
0.004460490896
0.004460029138
0.004459615712
0.004459251953
0.004458936103
0.004458664725
0.004458434142
0.004458243481
0.004458106559
0.004463355846
0.00446305893
0.004462695375
0.00446228656
0.004461854845
0.004461419772
0.004460996403
0.004460595125
0.004460222244
0.004459880908
0.00445957217
0.00445929653
0.004459058069
0.004458880819
0.004463574148
0.004463403136
0.004463177744
0.004462904056
0.004462592136
0.004462253712
0.004461900363
0.004461542397
0.00446118831
0.00446084472
0.004460516735
0.004460209257
0.004459931916
0.004459719504
0.004463674068
0.004463565449
0.004463413699
0.004463217729
0.004462980356
0.004462707423
0.004462406648
0.004462086517
0.004461755406
0.004461421039
0.004461090408
0.004460770861
0.004460475369
0.00446024514
0.004463690918
0.004463574143
0.004463403129
0.004463177735
0.004462904044
0.004462592122
0.004462253695
0.004461900344
0.004461542375
0.004461188285
0.004460844693
0.004460516705
0.004460209226
0.004459931883
0.004459719469
0.004463352533
0.004463058349
0.004462703269
0.004462309311
0.004461897904
0.00446148663
0.004461088225
0.004460710918
0.004460359332
0.004460035521
0.004459740009
0.004459473277
0.004459239852
0.004459064702
0.004462801975
0.0044622418
0.004461639656
0.004461046449
0.004460495824
0.00446000512
0.004459579656
0.004459217261
0.004458911864
0.004458655904
0.004458441838
0.00445826328
0.00445811718
0.004458012714
0.004461838579
0.004460922469
0.004460061801
0.004459318689
0.004458712339
0.004458236832
0.004457874713
0.004457605269
0.004457408771
0.004457268234
0.004457169834
0.004457102712
0.004457058671
0.004457032985
0.004460945301
0.004459854382
0.00445894091
0.004458224692
0.004457687512
0.004457298577
0.004457026305
0.004456842946
0.004456725812
0.004456657072
0.00445662301
0.004456613061
0.004456618469
0.004456629613
0.004461838593
0.004460922487
0.00446006182
0.004459318709
0.00445871236
0.004458236853
0.004457874734
0.00445760529
0.004457408792
0.004457268254
0.004457169854
0.004457102731
0.004457058691
0.004457033004
0.004462801993
0.004462241822
0.00446163968
0.004461046476
0.004460495852
0.004460005151
0.004459579687
0.004459217293
0.004458911897
0.004458655937
0.004458441872
0.004458263313
0.004458117214
0.004458012748
0.004463352546
0.004463058362
0.004462703285
0.00446230933
0.004461897926
0.004461486654
0.004461088252
0.004460710948
0.004460359365
0.004460035555
0.004459740046
0.004459473315
0.004459239892
0.004459064743
0.004463574148
0.004463403136
0.004463177744
0.004462904056
0.004462592137
0.004462253713
0.004461900366
0.0044615424
0.004461188314
0.004460844725
0.00446051674
0.004460209264
0.004459931924
0.004459719512
0.004463571774
0.00446335584
0.004463058922
0.004462695365
0.004462286547
0.00446185483
0.004461419755
0.004460996384
0.004460595104
0.004460222221
0.004459880885
0.004459572145
0.004459296504
0.004459058043
0.004458880792
0.004463259748
0.004462801976
0.004462241802
0.004461639657
0.004461046451
0.004460495825
0.004460005122
0.004459579657
0.004459217262
0.004458911865
0.004458655905
0.00445844184
0.004458263281
0.004458117182
0.004458012716
0.004461201153
0.004460045818
0.004459014406
0.004458181033
0.004457556468
0.004457117568
0.004456828481
0.004456652667
0.004456558377
0.004456520296
0.004456519275
0.004456541123
0.004456574534
0.004456606297
0.004457697604
0.004455788704
0.004454500484
0.004453763743
0.004453439893
0.004453394585
0.004453521971
0.004453746845
0.004454019131
0.004454307074
0.00445459127
0.0044548595
0.004455099965
0.004455282442
0.004453187625
0.004451332649
0.004450576007
0.004450487216
0.004450765311
0.004451224035
0.004451754829
0.004452297068
0.004452818484
0.004453303163
0.004453744222
0.004454138564
0.004454479471
0.004454732548
0.004457697682
0.004455788783
0.004454500557
0.004453763808
0.004453439951
0.004453394635
0.004453522016
0.004453746884
0.004454019166
0.004454307106
0.004454591299
0.004454859528
0.004455099991
0.004455282467
0.004461201216
0.004460045879
0.004459014467
0.004458181093
0.004457556527
0.004457117625
0.004456828536
0.00445665272
0.004456558427
0.004456520344
0.004456519321
0.004456541167
0.004456574577
0.004456606339
0.004462801994
0.004462241825
0.004461639686
0.004461046484
0.004460495862
0.004460005162
0.0044595797
0.004459217308
0.004458911912
0.004458655953
0.004458441889
0.00445826333
0.004458117232
0.004458012766
0.004463355846
0.004463058932
0.004462695379
0.004462286565
0.004461854853
0.004461419782
0.004460996416
0.00446059514
0.004460222261
0.004459880928
0.004459572191
0.004459296552
0.004459058093
0.004458880844
0.004463395381
0.004463040453
0.00446258547
0.004462068502
0.004461527914
0.004460994816
0.00446049089
0.004460029131
0.004459615704
0.004459251944
0.004458936093
0.004458664715
0.004458434132
0.00445824347
0.004458106547
0.004462691935
0.004461838577
0.00446092247
0.004460061801
0.00445931869
0.004458712341
0.004458236833
0.004457874715
0.004457605272
0.004457408774
0.004457268237
0.004457169837
0.004457102715
0.004457058675
0.004457032988
0.00446006884
0.004457697605
0.00445578871
0.00445450049
0.004453763749
0.004453439899
0.004453394591
0.004453521977
0.004453746851
0.004454019136
0.00445430708
0.004454591275
0.004454859506
0.00445509997
0.004455282446
0.004445857794
0.004443567786
0.004443289914
0.004444074098
0.004445312948
0.004446671361
0.004447984039
0.004449180354
0.004450238514
0.004451159944
0.00445195551
0.004452637168
0.004453207122
0.004453620782
0.004423014333
0.004426259851
0.004431013757
0.004435501462
0.004439279617
0.004442341795
0.0044447999
0.004446777837
0.004448381203
0.004449692627
0.004450774358
0.004451670649
0.004452402234
0.004452925165
0.00444585808
0.00444356799
0.004443290061
0.004444074204
0.004445313025
0.004446671418
0.004447984082
0.004449180389
0.004450238544
0.004451159969
0.004451955532
0.004452637189
0.004453207143
0.004453620803
0.004457697676
0.004455788792
0.004454500576
0.004453763834
0.00445343998
0.004453394667
0.004453522048
0.004453746917
0.004454019198
0.004454307137
0.004454591329
0.004454859557
0.004455100019
0.004455282494
0.004461838598
0.0044609225
0.004460061841
0.004459318736
0.004458712392
0.004458236888
0.004457874772
0.00445760533
0.004457408833
0.004457268295
0.004457169895
0.004457102772
0.004457058732
0.004457033045
0.004463040456
0.004462585478
0.004462068515
0.004461527934
0.004460994842
0.004460490922
0.004460029168
0.004459615746
0.00445925199
0.004458936143
0.004458664767
0.004458434187
0.004458243527
0.004458106606
0.004463265215
0.004462818865
0.004462278727
0.004461695069
0.004461109186
0.004460550194
0.004460036058
0.00445957597
0.004459172841
0.004458825422
0.004458529963
0.004458281481
0.004458074973
0.004457907894
0.004457790013
0.00446210962
0.004460945307
0.004459854395
0.004458940924
0.004458224705
0.004457687525
0.004457298588
0.004457026316
0.004456842956
0.004456725821
0.00445665708
0.004456623018
0.004456613069
0.004456618476
0.00445662962
0.004456566118
0.004453187626
0.004451332675
0.004450576033
0.004450487237
0.004450765329
0.004451224051
0.004451754843
0.004452297081
0.004452818496
0.004453303174
0.004453744232
0.004454138573
0.004454479479
0.004454732556
0.004426817308
0.00442301442
0.004426259918
0.004431013807
0.0044355015
0.004439279647
0.00444234182
0.004444799921
0.004446777855
0.004448381218
0.00444969264
0.00445077437
0.004451670659
0.004452402243
0.004452925173
0.004325825036
0.004376047867
0.004403655769
0.004419728159
0.004429644216
0.004436114716
0.004440559722
0.004443754033
0.00444613842
0.004447974315
0.004449422777
0.004450584224
0.004451510185
0.00445216249
0.004423014366
0.004426260049
0.004431013931
0.004435501598
0.004439279725
0.004442341882
0.004444799972
0.004446777898
0.004448381257
0.004449692674
0.004450774401
0.004451670688
0.004452402269
0.004452925199
0.004453187638
0.004451332724
0.0044505761
0.004450487312
0.004450765405
0.004451224124
0.004451754913
0.004452297147
0.004452818558
0.004453303233
0.004453744287
0.004454138626
0.00445447953
0.004454732605
0.004460945312
0.004459854413
0.004458940953
0.004458224745
0.004457687572
0.00445729864
0.004457026371
0.004456843014
0.00445672588
0.004456657139
0.004456623077
0.004456613127
0.004456618535
0.004456629679
0.004462818864
0.00446227873
0.004461695079
0.004461109203
0.004460550219
0.004460036089
0.004459576007
0.004459172884
0.00445882547
0.004458530015
0.004458281535
0.004458075029
0.004457907953
0.004457790074
0.004463395384
0.004463040458
0.004462585478
0.004462068511
0.004461527926
0.004460994829
0.004460490904
0.004460029146
0.00445961572
0.004459251961
0.004458936111
0.004458664733
0.004458434151
0.004458243489
0.004458106567
0.00446269195
0.004461838602
0.004460922501
0.004460061835
0.004459318724
0.004458712375
0.004458236867
0.004457874747
0.004457605303
0.004457408804
0.004457268266
0.004457169865
0.004457102742
0.004457058701
0.004457033014
0.004460068918
0.004457697686
0.004455788798
0.004454500572
0.004453763823
0.004453439965
0.00445339465
0.00445352203
0.004453746898
0.004454019179
0.004454307119
0.004454591311
0.004454859539
0.004455100002
0.004455282477
0.004451219477
0.004445858088
0.00444356802
0.004443290096
0.00444407424
0.004445313061
0.004446671454
0.004447984116
0.00444918042
0.004450238572
0.004451159995
0.004451955556
0.00445263721
0.004453207162
0.004453620819
0.00442681732
0.004423014478
0.004426260136
0.004431014002
0.004435501655
0.004439279771
0.004442341921
0.004444800005
0.004446777926
0.00444838128
0.004449692695
0.004450774418
0.004451670703
0.004452402283
0.004452925211
0.004451219446
0.004445858122
0.004443568076
0.004443290157
0.0044440743
0.004445313118
0.004446671506
0.004447984164
0.004449180464
0.004450238612
0.004451160032
0.00445195559
0.004452637242
0.004453207192
0.004453620848
0.004457697605
0.004455788772
0.004454500581
0.004453763853
0.004453440007
0.004453394698
0.004453522081
0.004453746951
0.004454019232
0.004454307171
0.004454591362
0.004454859589
0.00445510005
0.004455282524
0.004461838577
0.004460922486
0.004460061834
0.004459318736
0.004458712397
0.004458236897
0.004457874784
0.004457605345
0.00445740885
0.004457268314
0.004457169915
0.004457102793
0.004457058753
0.004457033067
0.00446304045
0.004462585472
0.004462068511
0.004461527932
0.004460994843
0.004460490925
0.004460029174
0.004459615754
0.004459252
0.004458936155
0.00445866478
0.004458434201
0.004458243542
0.004458106622
0.004463571778
0.004463355848
0.004463058933
0.00446269538
0.004462286565
0.00446185485
0.004461419778
0.00446099641
0.004460595131
0.004460222251
0.004459880916
0.004459572178
0.004459296538
0.004459058077
0.004458880827
0.004463259762
0.004462801997
0.004462241828
0.004461639688
0.004461046485
0.004460495861
0.00446000516
0.004459579696
0.004459217303
0.004458911907
0.004458655947
0.004458441882
0.004458263323
0.004458117224
0.004458012758
0.004462318178
0.004461201223
0.00446004589
0.004459014479
0.004458181106
0.00445755654
0.004457117638
0.004456828548
0.004456652732
0.004456558439
0.004456520356
0.004456519333
0.004456541178
0.004456574588
0.00445660635
0.004460068912
0.004457697691
0.004455788813
0.004454500596
0.004453763853
0.004453439999
0.004453394685
0.004453522066
0.004453746934
0.004454019214
0.004454307152
0.004454591343
0.00445485957
0.004455100032
0.004455282506
0.004456566116
0.004453187681
0.004451332765
0.004450576137
0.004450487344
0.004450765433
0.004451224149
0.004451754935
0.004452297166
0.004452818576
0.004453303249
0.004453744302
0.004454138639
0.004454479542
0.004454732617
0.004460068924
0.00445769771
0.004455788838
0.004454500624
0.004453763882
0.004453440028
0.004453394714
0.004453522094
0.004453746961
0.00445401924
0.004454307178
0.004454591368
0.004454859594
0.004455100055
0.004455282529
0.004462318154
0.004461201202
0.004460045879
0.004459014479
0.004458181116
0.004457556558
0.004457117662
0.004456828577
0.004456652765
0.004456558473
0.004456520392
0.00445651937
0.004456541216
0.004456574626
0.004456606388
0.004462801975
0.004462241813
0.00446163968
0.004461046484
0.004460495868
0.004460005174
0.004459579716
0.004459217328
0.004458911936
0.00445865598
0.004458441918
0.004458263361
0.004458117264
0.0044580128
0.004463355839
0.004463058925
0.004462695373
0.004462286562
0.004461854853
0.004461419786
0.004460996424
0.004460595151
0.004460222275
0.004459880945
0.004459572211
0.004459296575
0.004459058118
0.004458880871
0.004463690922
0.00446357415
0.004463403138
0.004463177748
0.00446290406
0.004462592141
0.004462253717
0.004461900369
0.004461542403
0.004461188317
0.004460844728
0.004460516743
0.004460209266
0.004459931925
0.004459719512
0.004463569309
0.004463352548
0.004463058366
0.00446270329
0.004462309336
0.004461897932
0.004461486662
0.00446108826
0.004460710956
0.004460359373
0.004460035564
0.004459740054
0.004459473324
0.004459239901
0.004459064751
0.004463259761
0.004462801997
0.004462241829
0.00446163969
0.004461046489
0.004460495868
0.004460005168
0.004459579706
0.004459217314
0.004458911919
0.00445865596
0.004458441896
0.004458263338
0.004458117239
0.004458012774
0.004462691947
0.004461838603
0.004460922509
0.004460061849
0.004459318745
0.004458712401
0.004458236898
0.004457874782
0.00445760534
0.004457408842
0.004457268305
0.004457169905
0.004457102782
0.004457058741
0.004457033055
0.004462109624
0.004460945326
0.004459854429
0.004458940969
0.00445822476
0.004457687586
0.004457298653
0.004457026384
0.004456843025
0.004456725891
0.00445665715
0.004456623087
0.004456613137
0.004456618544
0.004456629688
0.004462691949
0.004461838607
0.004460922514
0.004460061857
0.004459318754
0.004458712413
0.00445823691
0.004457874796
0.004457605355
0.004457408859
0.004457268322
0.004457169923
0.0044571028
0.00445705876
0.004457033073
0.00446325976
0.004462801996
0.00446224183
0.004461639695
0.004461046498
0.004460495881
0.004460005185
0.004459579726
0.004459217337
0.004458911944
0.004458655987
0.004458441924
0.004458263367
0.00445811727
0.004458012805
0.004463569304
0.004463352543
0.004463058362
0.004462703288
0.004462309337
0.004461897938
0.004461486671
0.004461088274
0.004460710974
0.004460359394
0.004460035589
0.004459740082
0.004459473355
0.004459239934
0.004459064786
0.004463574143
0.004463403133
0.004463177743
0.004462904058
0.004462592142
0.004462253721
0.004461900378
0.004461542416
0.004461188334
0.004460844749
0.004460516767
0.004460209294
0.004459931957
0.004459719548
0.004463744737
0.004463674069
0.004463565451
0.004463413702
0.004463217733
0.00446298036
0.004462707428
0.004462406654
0.004462086523
0.004461755414
0.004461421047
0.004461090417
0.00446077087
0.004460475379
0.004460245149
0.004463690921
0.004463574149
0.004463403138
0.004463177747
0.004462904059
0.004462592141
0.004462253718
0.004461900371
0.004461542405
0.00446118832
0.004460844732
0.004460516747
0.004460209271
0.004459931931
0.00445971952
0.004463571777
0.004463355847
0.004463058933
0.004462695381
0.004462286567
0.004461854855
0.004461419785
0.004460996419
0.004460595144
0.004460222265
0.004459880932
0.004459572196
0.004459296558
0.004459058099
0.00445888085
0.004463395384
0.00446304046
0.004462585483
0.004462068521
0.004461527941
0.004460994849
0.004460490929
0.004460029176
0.004459615754
0.004459251998
0.004458936151
0.004458664775
0.004458434194
0.004458243535
0.004458106614
0.004463265216
0.004462818872
0.00446227874
0.00446169509
0.004461109215
0.004460550231
0.004460036101
0.004459576019
0.004459172895
0.004458825481
0.004458530025
0.004458281545
0.004458075039
0.004457907962
0.004457790083
0.004463395385
0.004463040462
0.004462585487
0.004462068526
0.004461527947
0.004460994857
0.004460490939
0.004460029187
0.004459615766
0.004459252011
0.004458936165
0.00445866479
0.00445843421
0.004458243551
0.00445810663
0.004463571779
0.00446335585
0.004463058937
0.004462695387
0.004462286577
0.004461854867
0.0044614198
0.004460996437
0.004460595164
0.004460222288
0.004459880957
0.004459572222
0.004459296585
0.004459058127
0.004458880879
0.004463690921
0.004463574148
0.004463403137
0.004463177748
0.004462904062
0.004462592146
0.004462253725
0.004461900381
0.00446154242
0.004461188337
0.004460844752
0.00446051677
0.004460209297
0.00445993196
0.00445971955
0.004463744735
0.004463674067
0.004463565449
0.0044634137
0.004463217731
0.00446298036
0.00446270743
0.004462406659
0.004462086531
0.004461755425
0.004461421062
0.004461090436
0.004460770892
0.004460475405
0.004460245179
)
;

boundaryField
{
    top
    {
        type            zeroGradient;
    }
    bottom
    {
        type            zeroGradient;
    }
    side-walls
    {
        type            zeroGradient;
    }
    inlet
    {
        type            zeroGradient;
    }
    outlet
    {
        type            zeroGradient;
    }
    procBoundary1to0
    {
        type            processor;
        value           nonuniform List<scalar> 
97
(
0.004463744735
0.004463744735
0.004463690921
0.004463571779
0.004463395388
0.004463265223
0.004463395391
0.004463571783
0.004463690924
0.004463744738
0.004463760825
0.004463569302
0.004463569302
0.004463569302
0.004463259759
0.004462691957
0.004462109645
0.004462691967
0.004463259772
0.004463569313
0.004463690924
0.004463706165
0.004463567498
0.004462318145
0.004462318145
0.004462318145
0.004460068918
0.004456566217
0.004460068989
0.004462318206
0.004463259773
0.004463571783
0.0044636272
0.004463326303
0.004462289717
0.004451219272
0.004451219272
0.004451219272
0.004426817745
0.004451219683
0.004460068981
0.004462691969
0.004463395391
0.004463571719
0.004463102667
0.004461160945
0.004453613211
0.004229143812
0.004229143812
0.004229143812
0.004426817727
0.004426817727
0.004456566212
0.004462109649
0.004463265223
0.0044636272
0.004463326307
0.004462289726
0.004459326772
0.004453613191
0.004459326787
0.004460068871
0.004460068871
0.004460068871
0.004462691948
0.004463395386
0.004463706166
0.0044635675
0.004463166742
0.004462289721
0.004461160936
0.004462289727
0.004463166739
0.004463259751
0.004463259751
0.004463259751
0.004463571776
0.004463760825
0.004463705341
0.004463567499
0.004463326305
0.004463102666
0.004463326306
0.0044635675
0.00446370534
0.004463690919
0.004463690919
0.004463690919
0.004463785844
0.004463760825
0.004463706166
0.0044636272
0.004463571718
0.0044636272
0.004463706167
0.004463760825
0.004463785844
)
;
    }
}


// ************************************************************************* //
