/*--------------------------------*- C++ -*----------------------------------*\
| =========                 |                                                 |
| \\      /  F ield         | OpenFOAM: The Open Source CFD Toolbox           |
|  \\    /   O peration     | Version:  4.x                                   |
|   \\  /    A nd           | Web:      www.OpenFOAM.org                      |
|    \\/     M anipulation  |                                                 |
\*---------------------------------------------------------------------------*/
FoamFile
{
    version     2.0;
    format      ascii;
    class       volScalarField;
    location    "5000";
    object      N2;
}
// * * * * * * * * * * * * * * * * * * * * * * * * * * * * * * * * * * * * * //

dimensions      [0 0 0 0 0 0 0];

internalField   nonuniform List<scalar> 
1174
(
0.6203618267
0.620360808
0.6203593847
0.6203575466
0.62035532
0.6203527596
0.6203499376
0.6203469337
0.6203438263
0.6203406879
0.620337584
0.6203345837
0.6203318088
0.6203296465
0.6203608898
0.6203592862
0.6203571724
0.6203546055
0.6203516798
0.620348505
0.6203451899
0.6203418308
0.6203385077
0.6203352824
0.620332203
0.6203293156
0.6203267106
0.6203247152
0.6203588433
0.6203560592
0.6203526501
0.6203488162
0.6203447669
0.6203406856
0.6203367134
0.6203329477
0.6203294477
0.6203262431
0.6203233436
0.6203207542
0.6203185134
0.6203168474
0.6203558869
0.6203516211
0.6203467736
0.6203417041
0.620336704
0.6203319766
0.6203276439
0.6203237638
0.6203203487
0.6203173824
0.6203148328
0.6203126654
0.6203108725
0.6203095843
0.62035381
0.6203487459
0.6203432732
0.6203377789
0.6203325358
0.6203277124
0.6203233951
0.6203196112
0.6203163491
0.6203135738
0.6203112386
0.6203092968
0.6203077248
0.6203066152
0.6203558869
0.6203516212
0.6203467737
0.6203417042
0.6203367042
0.6203319769
0.6203276442
0.6203237641
0.6203203491
0.6203173828
0.6203148332
0.6203126659
0.6203108729
0.6203095848
0.6203588434
0.6203560594
0.6203526503
0.6203488164
0.6203447672
0.6203406859
0.6203367138
0.6203329482
0.6203294483
0.6203262437
0.6203233443
0.620320755
0.6203185142
0.6203168483
0.6203608899
0.6203592863
0.6203571726
0.6203546057
0.62035168
0.6203485054
0.6203451902
0.6203418313
0.6203385082
0.6203352831
0.6203322038
0.6203293164
0.6203267115
0.6203247162
0.6203618267
0.6203608081
0.6203593848
0.6203575468
0.6203553202
0.6203527598
0.6203499379
0.620346934
0.6203438268
0.6203406885
0.6203375847
0.6203345845
0.6203318097
0.6203296475
0.6203619849
0.6203608899
0.6203592862
0.6203571725
0.6203546056
0.6203516798
0.6203485051
0.6203451899
0.6203418309
0.6203385077
0.6203352824
0.6203322031
0.6203293156
0.6203267106
0.6203247152
0.6203588123
0.620356054
0.6203527244
0.6203490298
0.620345171
0.6203413129
0.6203375748
0.620334034
0.6203307338
0.6203276935
0.6203249182
0.6203224125
0.620320219
0.6203185728
0.6203536515
0.6203483997
0.6203427538
0.6203371909
0.6203320263
0.6203274227
0.6203234301
0.6203200282
0.6203171602
0.6203147553
0.620312743
0.6203110634
0.6203096882
0.6203087044
0.6203446219
0.6203360338
0.6203279641
0.6203209951
0.6203153072
0.620310845
0.6203074452
0.6203049137
0.6203030657
0.6203017422
0.6203008137
0.6203001783
0.6202997597
0.6202995143
0.6203362507
0.6203260239
0.6203174587
0.6203107412
0.6203057009
0.6203020496
0.6202994914
0.6202977664
0.6202966621
0.6202960113
0.6202956857
0.6202955861
0.6202956309
0.6202957308
0.6203446222
0.6203360341
0.6203279644
0.6203209955
0.6203153076
0.6203108455
0.6203074457
0.6203049142
0.6203030663
0.6203017428
0.6203008143
0.6203001789
0.6202997603
0.6202995149
0.6203536518
0.6203484
0.6203427542
0.6203371913
0.6203320268
0.6203274233
0.6203234308
0.6203200289
0.620317161
0.6203147562
0.6203127439
0.6203110644
0.6203096893
0.6203087055
0.6203588125
0.6203560541
0.6203527246
0.6203490301
0.6203451714
0.6203413134
0.6203375754
0.6203340347
0.6203307346
0.6203276944
0.6203249192
0.6203224136
0.6203202202
0.6203185741
0.6203608899
0.6203592863
0.6203571726
0.6203546057
0.6203516801
0.6203485054
0.6203451903
0.6203418314
0.6203385084
0.6203352833
0.620332204
0.6203293167
0.6203267119
0.6203247166
0.6203608679
0.6203588434
0.6203560593
0.6203526502
0.6203488163
0.620344767
0.6203406857
0.6203367135
0.6203329478
0.6203294478
0.6203262432
0.6203233437
0.6203207543
0.6203185135
0.6203168475
0.620357943
0.6203536516
0.6203483998
0.6203427539
0.620337191
0.6203320264
0.6203274228
0.6203234302
0.6203200283
0.6203171603
0.6203147554
0.620312743
0.6203110634
0.6203096883
0.6203087045
0.6203386473
0.6203278169
0.6203181466
0.6203103311
0.6203044719
0.6203003523
0.6202976365
0.6202959823
0.6202950921
0.6202947288
0.620294713
0.6202949116
0.620295219
0.6202955122
0.6203058134
0.6202879194
0.6202758402
0.6202689281
0.6202658851
0.6202654525
0.6202666387
0.6202687388
0.6202712837
0.6202739756
0.6202766328
0.6202791407
0.6202813888
0.6202830948
0.6202635533
0.6202461625
0.6202390624
0.6202382206
0.6202408172
0.6202451073
0.6202500734
0.6202551475
0.620260027
0.6202645627
0.6202686901
0.6202723799
0.6202755695
0.6202779373
0.6203058146
0.6202879206
0.6202758414
0.6202689293
0.6202658862
0.6202654536
0.6202666397
0.6202687399
0.6202712847
0.6202739766
0.6202766338
0.6202791416
0.6202813897
0.6202830957
0.6203386482
0.6203278178
0.6203181475
0.6203103322
0.6203044731
0.6203003536
0.6202976379
0.6202959837
0.6202950935
0.6202947302
0.6202947144
0.620294913
0.6202952204
0.6202955136
0.6203536518
0.6203484001
0.6203427543
0.6203371915
0.6203320271
0.6203274237
0.6203234312
0.6203200294
0.6203171615
0.6203147567
0.6203127445
0.620311065
0.6203096899
0.6203087062
0.6203588433
0.6203560594
0.6203526504
0.6203488165
0.6203447674
0.6203406863
0.6203367142
0.6203329487
0.6203294489
0.6203262444
0.6203233451
0.6203207558
0.6203185151
0.6203168493
0.6203592145
0.620355887
0.6203516213
0.6203467738
0.6203417043
0.6203367042
0.6203319768
0.6203276441
0.620323764
0.6203203489
0.6203173826
0.620314833
0.6203126656
0.6203108727
0.6203095845
0.6203526212
0.6203446222
0.620336034
0.6203279643
0.6203209954
0.6203153074
0.6203108452
0.6203074454
0.6203049139
0.6203030659
0.6203017424
0.6203008138
0.6203001785
0.6202997598
0.6202995144
0.620328038
0.6203058139
0.6202879198
0.6202758405
0.6202689284
0.6202658853
0.6202654527
0.6202666389
0.620268739
0.6202712838
0.6202739758
0.620276633
0.6202791408
0.620281389
0.6202830949
0.6201948648
0.6201733953
0.6201707788
0.6201781149
0.6201897128
0.6202024327
0.6202147253
0.6202259286
0.6202358382
0.6202444671
0.6202519171
0.6202583
0.6202636366
0.6202675097
0.6199808302
0.620011218
0.6200557433
0.6200977788
0.6201331693
0.6201618536
0.6201848795
0.6202034073
0.6202184262
0.6202307101
0.6202408421
0.6202492368
0.6202560884
0.6202609858
0.6201948692
0.6201733985
0.6201707814
0.6201781171
0.6201897148
0.6202024345
0.6202147269
0.6202259301
0.6202358396
0.6202444684
0.6202519183
0.6202583011
0.6202636377
0.6202675107
0.6203058145
0.6202879209
0.620275842
0.6202689301
0.6202658872
0.6202654547
0.6202666409
0.620268741
0.6202712859
0.6202739778
0.6202766349
0.6202791427
0.6202813908
0.6202830967
0.6203446222
0.6203360343
0.6203279648
0.6203209962
0.6203153085
0.6203108465
0.6203074469
0.6203049155
0.6203030677
0.6203017443
0.6203008157
0.6203001805
0.6202997618
0.6202995165
0.6203558869
0.6203516212
0.620346774
0.6203417046
0.6203367047
0.6203319776
0.6203276452
0.6203237652
0.6203203504
0.6203173842
0.6203148347
0.6203126675
0.6203108747
0.6203095867
0.6203579945
0.6203538102
0.6203487462
0.6203432735
0.6203377792
0.6203325361
0.6203277127
0.6203233954
0.6203196115
0.6203163494
0.6203135741
0.6203112389
0.6203092971
0.6203077251
0.6203066154
0.6203471643
0.6203362511
0.6203260244
0.6203174592
0.6203107417
0.6203057014
0.62030205
0.6202994918
0.6202977668
0.6202966624
0.6202960116
0.620295686
0.6202955864
0.6202956312
0.620295731
0.6202952178
0.6202635541
0.6202461634
0.6202390633
0.6202382213
0.6202408179
0.6202451078
0.6202500739
0.6202551479
0.6202600274
0.6202645631
0.6202686904
0.6202723802
0.6202755698
0.6202779375
0.6200164841
0.6199808333
0.62001122
0.6200557447
0.6200977798
0.62013317
0.6201618542
0.62018488
0.6202034077
0.6202184266
0.6202307104
0.6202408424
0.620249237
0.6202560886
0.620260986
0.6190702507
0.619540754
0.6197993977
0.6199499732
0.6200428734
0.6201034936
0.6201451374
0.6201750636
0.6201974015
0.6202146006
0.6202281697
0.6202390496
0.6202477232
0.6202538332
0.6199808304
0.6200112217
0.6200557475
0.6200977827
0.6201331727
0.6201618566
0.6201848821
0.6202034097
0.6202184283
0.620230712
0.6202408438
0.6202492384
0.6202560899
0.6202609872
0.6202635533
0.6202461639
0.6202390648
0.6202382234
0.6202408202
0.6202451103
0.6202500764
0.6202551504
0.6202600298
0.6202645654
0.6202686926
0.6202723823
0.6202755719
0.6202779395
0.6203362508
0.6203260244
0.6203174597
0.6203107426
0.6203057027
0.6203020516
0.6202994936
0.6202977687
0.6202966644
0.6202960138
0.6202956881
0.6202955886
0.6202956334
0.6202957333
0.62035381
0.6203487461
0.6203432736
0.6203377795
0.6203325367
0.6203277137
0.6203233966
0.6203196129
0.6203163511
0.6203135759
0.6203112409
0.6203092992
0.6203077273
0.6203066178
0.6203592145
0.6203558871
0.6203516214
0.620346774
0.6203417045
0.6203367045
0.6203319772
0.6203276445
0.6203237644
0.6203203494
0.6203173832
0.6203148336
0.6203126662
0.6203108733
0.6203095852
0.6203526214
0.6203446226
0.6203360345
0.6203279649
0.620320996
0.6203153081
0.620310846
0.6203074461
0.6203049147
0.6203030667
0.6203017432
0.6203008147
0.6203001793
0.6202997607
0.6202995153
0.6203280396
0.6203058154
0.6202879215
0.6202758422
0.6202689301
0.620265887
0.6202654543
0.6202666403
0.6202687404
0.6202712852
0.6202739771
0.6202766342
0.620279142
0.6202813901
0.620283096
0.6202451172
0.6201948713
0.6201734003
0.620170783
0.6201781184
0.6201897159
0.6202024354
0.6202147278
0.6202259309
0.6202358402
0.620244469
0.6202519188
0.6202583016
0.6202636381
0.6202675111
0.6200164848
0.6199808345
0.6200112244
0.6200557494
0.620097784
0.6201331738
0.6201618574
0.6201848828
0.6202034102
0.6202184288
0.6202307124
0.6202408442
0.6202492386
0.6202560902
0.6202609874
0.6202451163
0.6201948716
0.6201734016
0.6201707848
0.6201781205
0.620189718
0.6202024375
0.6202147297
0.6202259326
0.6202358419
0.6202444705
0.6202519202
0.6202583029
0.6202636394
0.6202675123
0.6203058134
0.620287921
0.6202758428
0.6202689313
0.6202658887
0.6202654562
0.6202666424
0.6202687425
0.6202712874
0.6202739792
0.6202766363
0.6202791441
0.6202813921
0.620283098
0.6203446218
0.6203360341
0.620327965
0.6203209966
0.6203153091
0.6203108472
0.6203074476
0.6203049164
0.6203030686
0.6203017452
0.6203008167
0.6203001814
0.6202997628
0.6202995175
0.6203558868
0.6203516212
0.620346774
0.6203417047
0.620336705
0.620331978
0.6203276456
0.6203237657
0.6203203509
0.6203173849
0.6203148355
0.6203126683
0.6203108754
0.6203095875
0.620360868
0.6203588435
0.6203560595
0.6203526505
0.6203488166
0.6203447675
0.6203406862
0.6203367141
0.6203329485
0.6203294486
0.620326244
0.6203233446
0.6203207553
0.6203185146
0.6203168486
0.6203579433
0.620353652
0.6203484003
0.6203427545
0.6203371917
0.6203320272
0.6203274237
0.6203234312
0.6203200294
0.6203171614
0.6203147566
0.6203127443
0.6203110647
0.6203096896
0.6203087059
0.6203491182
0.6203386488
0.6203278184
0.6203181481
0.6203103328
0.6203044737
0.6203003541
0.6202976384
0.6202959842
0.620295094
0.6202947307
0.6202947148
0.6202949135
0.6202952208
0.620295514
0.6203280395
0.6203058156
0.6202879221
0.620275843
0.6202689311
0.6202658881
0.6202654555
0.6202666416
0.6202687417
0.6202712864
0.6202739783
0.6202766354
0.6202791432
0.6202813912
0.6202830971
0.6202952178
0.6202635553
0.6202461657
0.6202390662
0.6202382246
0.6202408212
0.6202451111
0.6202500771
0.620255151
0.6202600303
0.6202645658
0.620268693
0.6202723827
0.6202755722
0.6202779399
0.6203280397
0.620305816
0.6202879227
0.6202758439
0.6202689321
0.6202658893
0.6202654567
0.6202666428
0.6202687429
0.6202712876
0.6202739795
0.6202766365
0.6202791442
0.6202813923
0.6202830981
0.6203491177
0.6203386483
0.6203278183
0.6203181484
0.6203103335
0.6203044747
0.6203003554
0.6202976398
0.6202959857
0.6202950956
0.6202947323
0.6202947165
0.6202949151
0.6202952225
0.6202955157
0.6203536515
0.6203484
0.6203427545
0.620337192
0.6203320278
0.6203274245
0.6203234322
0.6203200306
0.6203171628
0.6203147581
0.6203127459
0.6203110665
0.6203096914
0.6203087078
0.6203588432
0.6203560593
0.6203526504
0.6203488167
0.6203447677
0.6203406867
0.6203367148
0.6203329495
0.6203294498
0.6203262454
0.6203233462
0.620320757
0.6203185164
0.6203168506
0.6203619849
0.62036089
0.6203592864
0.6203571727
0.6203546059
0.6203516802
0.6203485056
0.6203451905
0.6203418316
0.6203385085
0.6203352834
0.6203322041
0.6203293168
0.6203267119
0.6203247165
0.6203608449
0.6203588126
0.6203560543
0.6203527248
0.6203490303
0.6203451717
0.6203413137
0.6203375757
0.620334035
0.620330735
0.6203276948
0.6203249196
0.620322414
0.6203202206
0.6203185744
0.6203579433
0.620353652
0.6203484004
0.6203427546
0.6203371919
0.6203320275
0.6203274241
0.6203234316
0.6203200298
0.6203171619
0.6203147572
0.6203127449
0.6203110653
0.6203096903
0.6203087066
0.6203526214
0.6203446227
0.6203360348
0.6203279654
0.6203209968
0.6203153091
0.6203108471
0.6203074474
0.620304916
0.6203030682
0.6203017447
0.6203008162
0.6203001809
0.6202997622
0.6202995169
0.6203471643
0.6203362515
0.6203260252
0.6203174605
0.6203107433
0.6203057034
0.6203020522
0.6202994941
0.6202977692
0.6202966649
0.6202960142
0.6202956886
0.620295589
0.6202956338
0.6202957337
0.6203526215
0.6203446228
0.620336035
0.6203279657
0.6203209972
0.6203153096
0.6203108477
0.6203074481
0.6203049168
0.6203030689
0.6203017455
0.620300817
0.6203001817
0.620299763
0.6202995177
0.6203579432
0.620353652
0.6203484005
0.6203427549
0.6203371923
0.620332028
0.6203274248
0.6203234324
0.6203200308
0.620317163
0.6203147583
0.6203127461
0.6203110666
0.6203096916
0.6203087079
0.6203608447
0.6203588125
0.6203560543
0.6203527248
0.6203490305
0.620345172
0.6203413142
0.6203375764
0.6203340358
0.6203307359
0.6203276959
0.6203249209
0.6203224153
0.620320222
0.620318576
0.6203608898
0.6203592863
0.6203571726
0.6203546059
0.6203516804
0.6203485059
0.620345191
0.6203418322
0.6203385094
0.6203352844
0.6203322053
0.6203293181
0.6203267134
0.6203247182
0.6203624895
0.6203618268
0.6203608081
0.6203593849
0.6203575469
0.6203553203
0.62035276
0.6203499381
0.6203469343
0.620343827
0.6203406888
0.620337585
0.6203345849
0.6203318101
0.6203296479
0.6203619849
0.62036089
0.6203592864
0.6203571727
0.6203546059
0.6203516803
0.6203485057
0.6203451906
0.6203418317
0.6203385087
0.6203352836
0.6203322044
0.6203293171
0.6203267122
0.6203247169
0.620360868
0.6203588435
0.6203560596
0.6203526506
0.6203488168
0.6203447677
0.6203406866
0.6203367146
0.620332949
0.6203294493
0.6203262447
0.6203233454
0.6203207562
0.6203185155
0.6203168496
0.6203592145
0.6203558871
0.6203516215
0.6203467743
0.620341705
0.6203367052
0.6203319781
0.6203276456
0.6203237656
0.6203203508
0.6203173847
0.6203148352
0.6203126679
0.6203108751
0.6203095871
0.6203579945
0.6203538103
0.6203487465
0.6203432741
0.62033778
0.6203325373
0.6203277142
0.6203233971
0.6203196134
0.6203163515
0.6203135764
0.6203112413
0.6203092996
0.6203077277
0.6203066182
0.6203592145
0.6203558872
0.6203516216
0.6203467745
0.6203417052
0.6203367055
0.6203319784
0.620327646
0.6203237661
0.6203203513
0.6203173853
0.6203148358
0.6203126686
0.6203108758
0.6203095878
0.620360868
0.6203588435
0.6203560597
0.6203526507
0.620348817
0.6203447681
0.6203406871
0.6203367152
0.6203329498
0.6203294501
0.6203262457
0.6203233464
0.6203207573
0.6203185166
0.6203168508
0.6203619849
0.62036089
0.6203592864
0.6203571728
0.620354606
0.6203516805
0.620348506
0.6203451911
0.6203418323
0.6203385095
0.6203352845
0.6203322054
0.6203293182
0.6203267135
0.6203247183
0.6203624894
0.6203618267
0.6203608081
0.6203593849
0.6203575469
0.6203553204
0.6203527602
0.6203499385
0.6203469348
0.6203438277
0.6203406896
0.620337586
0.620334586
0.6203318114
0.6203296494
)
;

boundaryField
{
    top
    {
        type            zeroGradient;
    }
    bottom
    {
        type            zeroGradient;
    }
    side-walls
    {
        type            zeroGradient;
    }
    inlet
    {
        type            zeroGradient;
    }
    outlet
    {
        type            zeroGradient;
    }
    procBoundary1to0
    {
        type            processor;
        value           nonuniform List<scalar> 
97
(
0.6203624894
0.6203624894
0.6203619849
0.620360868
0.6203592146
0.6203579947
0.6203592147
0.6203608681
0.620361985
0.6203624895
0.6203626404
0.6203608447
0.6203608447
0.6203608447
0.6203579433
0.6203526217
0.6203471651
0.6203526219
0.6203579435
0.620360845
0.620361985
0.620362128
0.6203608282
0.6203491176
0.6203491176
0.6203491176
0.6203280402
0.6202952218
0.6203280415
0.6203491189
0.6203579435
0.6203608681
0.6203613878
0.6203585675
0.6203488529
0.6202451152
0.6202451152
0.6202451152
0.6200165092
0.6202451239
0.6203280414
0.6203526219
0.6203592146
0.6203608677
0.6203564716
0.6203382755
0.6202675543
0.6181646942
0.6181646942
0.6181646942
0.620016508
0.620016508
0.6202952215
0.6203471651
0.6203579947
0.6203613878
0.6203585675
0.6203488527
0.6203210874
0.6202675532
0.6203210882
0.6203280386
0.6203280386
0.6203280386
0.6203526215
0.6203592145
0.620362128
0.6203608282
0.6203570719
0.6203488526
0.6203382753
0.6203488528
0.6203570719
0.620357943
0.620357943
0.620357943
0.6203608679
0.6203626404
0.6203621203
0.6203608281
0.6203585675
0.6203564716
0.6203585675
0.6203608282
0.6203621203
0.6203619849
0.6203619849
0.6203619849
0.620362875
0.6203626404
0.620362128
0.6203613877
0.6203608677
0.6203613878
0.620362128
0.6203626404
0.620362875
)
;
    }
}


// ************************************************************************* //
