/*--------------------------------*- C++ -*----------------------------------*\
| =========                 |                                                 |
| \\      /  F ield         | OpenFOAM: The Open Source CFD Toolbox           |
|  \\    /   O peration     | Version:  4.x                                   |
|   \\  /    A nd           | Web:      www.OpenFOAM.org                      |
|    \\/     M anipulation  |                                                 |
\*---------------------------------------------------------------------------*/
FoamFile
{
    version     2.0;
    format      ascii;
    class       volVectorField;
    location    "5000";
    object      U;
}
// * * * * * * * * * * * * * * * * * * * * * * * * * * * * * * * * * * * * * //

dimensions      [0 1 -1 0 0 0 0];

internalField   nonuniform List<vector> 
1174
(
(0.01100035539 -1.749911167e-08 -1.709952798e-08)
(0.01100039795 -1.509532605e-08 -1.526575487e-08)
(0.01100044113 -1.063293822e-08 -1.104592248e-08)
(0.01100044999 -7.080018264e-09 -6.990756713e-09)
(0.01100043841 -2.904173445e-09 -4.201304583e-09)
(0.01100041024 -2.739224148e-09 -3.342472576e-10)
(0.0110003718 6.71055404e-10 1.784372161e-09)
(0.01100032239 1.790969111e-09 3.461138269e-09)
(0.01100026622 4.330261168e-09 4.26138155e-09)
(0.01100020474 2.086618004e-09 6.003157918e-09)
(0.01100014663 4.021054419e-09 5.764212313e-09)
(0.01100008203 3.993713165e-09 4.914047168e-09)
(0.01100003232 4.441582933e-09 4.980209587e-09)
(0.0109999704 5.38975396e-09 5.1366044e-09)
(0.01100036828 -6.838578459e-08 -1.986293864e-08)
(0.01100039321 -6.10207275e-08 -1.954626043e-08)
(0.01100042497 -4.143780917e-08 -1.314696333e-08)
(0.01100041431 -2.639449394e-08 -7.197842355e-09)
(0.01100038524 -1.392693365e-08 -3.003010336e-09)
(0.01100034017 -3.643838412e-09 3.400968266e-09)
(0.01100028412 2.106008458e-09 4.201216995e-09)
(0.01100022748 6.646951486e-09 5.434952158e-09)
(0.01100016361 9.481412822e-09 6.531620137e-09)
(0.01100009908 1.125911291e-08 7.27396728e-09)
(0.01100003791 1.36786985e-08 7.351361948e-09)
(0.01099997658 1.309234237e-08 6.661779719e-09)
(0.01099992976 1.390307495e-08 6.768991449e-09)
(0.01099987388 1.372939888e-08 6.22125683e-09)
(0.01100039936 -6.734744504e-08 -3.698005138e-08)
(0.01100038868 -5.849799198e-08 -3.100228962e-08)
(0.01100039327 -3.802153339e-08 -1.843425221e-08)
(0.01100034547 -1.723419483e-08 -6.123261914e-09)
(0.01100028001 -5.639495027e-09 2.042099792e-09)
(0.01100020758 6.07428619e-09 5.165119512e-09)
(0.01100012911 9.584531747e-09 4.955791361e-09)
(0.01100005582 1.397599858e-08 8.126667484e-09)
(0.01099998565 1.465542395e-08 8.34200243e-09)
(0.01099991982 1.41394748e-08 8.541470136e-09)
(0.01099986742 1.608127673e-08 6.759199595e-09)
(0.01099981103 1.735607154e-08 3.855545616e-09)
(0.01099976841 1.896685982e-08 7.572864239e-09)
(0.01099972603 1.645886939e-08 6.157446522e-09)
(0.01100041696 -8.421472439e-08 -2.213382938e-08)
(0.01100033639 -5.291297018e-08 -3.238380442e-08)
(0.01100031203 -2.735103842e-08 -1.384903143e-08)
(0.01100022964 -8.935805954e-09 -7.172807469e-11)
(0.01100013831 5.8158767e-10 4.755900354e-09)
(0.01100004407 7.520715135e-09 1.236160396e-08)
(0.01099995414 1.181527836e-08 1.321704279e-08)
(0.0109998775 1.183553696e-08 1.256107294e-08)
(0.01099980539 1.277783193e-08 1.232712576e-08)
(0.01099975109 1.311794022e-08 1.167189342e-08)
(0.01099969624 1.29065486e-08 1.068113559e-08)
(0.01099965659 1.14146379e-08 9.99720532e-09)
(0.01099962442 1.132843894e-08 9.482656902e-09)
(0.01099959041 1.120222839e-08 6.803385037e-09)
(0.01100051492 7.916430652e-10 -4.023547182e-08)
(0.0110003465 1.366921077e-10 -2.718508659e-08)
(0.01100028269 3.927443957e-10 -5.134213956e-09)
(0.01100017139 -1.90901244e-09 1.078250687e-08)
(0.01100006452 -7.0726835e-10 1.541313432e-08)
(0.01099996372 -1.565740043e-09 1.699851004e-08)
(0.01099987176 6.939673687e-11 1.649997914e-08)
(0.01099979793 1.107816537e-09 1.631941672e-08)
(0.01099973068 -2.80699307e-10 1.373317193e-08)
(0.01099967244 4.642308201e-10 1.187865972e-08)
(0.01099962983 1.96689545e-09 8.720878903e-09)
(0.01099958997 1.702263853e-09 8.166366831e-09)
(0.01099956651 1.75597131e-09 8.598586277e-09)
(0.01099953876 4.702963214e-10 7.003970449e-09)
(0.01100041751 8.343259113e-08 -2.299947513e-08)
(0.01100033086 5.089102492e-08 -3.093075716e-08)
(0.01100031041 2.282614293e-08 -1.314967606e-08)
(0.01100022972 5.583024507e-09 2.031752e-09)
(0.01100013975 -4.807482035e-09 9.65109779e-09)
(0.01100004638 -8.202668731e-09 1.379417295e-08)
(0.01099995644 -1.065816663e-08 1.559847366e-08)
(0.01099987739 -1.157146355e-08 1.477923613e-08)
(0.01099980845 -1.287253532e-08 1.325058313e-08)
(0.01099975063 -1.146691126e-08 1.370027328e-08)
(0.01099970138 -1.078464145e-08 1.093580977e-08)
(0.01099965919 -9.229978482e-09 1.192892251e-08)
(0.01099962431 -1.162999567e-08 1.072147269e-08)
(0.01099959236 -1.048934165e-08 8.661923763e-09)
(0.01100039785 6.284228114e-08 -3.437422894e-08)
(0.01100038941 5.713635534e-08 -2.836447085e-08)
(0.01100039166 3.754082697e-08 -1.497536161e-08)
(0.01100034364 1.855888213e-08 -4.978979233e-09)
(0.01100028019 5.247876034e-09 3.741046699e-09)
(0.0110002077 -4.092023694e-09 7.027229017e-09)
(0.01100013064 -9.755567801e-09 8.850448977e-09)
(0.01100005587 -1.370685278e-08 1.010141086e-08)
(0.01099998786 -1.469034832e-08 1.025476849e-08)
(0.01099992217 -1.443024595e-08 9.067944659e-09)
(0.01099986372 -1.886177724e-08 1.106967915e-08)
(0.01099981337 -1.633278588e-08 9.145942566e-09)
(0.01099977 -1.869919526e-08 1.098296735e-08)
(0.01099972816 -1.587759156e-08 6.967809755e-09)
(0.01100037089 6.767865536e-08 -1.875246703e-08)
(0.0110003954 5.797399763e-08 -1.763276942e-08)
(0.01100042653 4.080063353e-08 -1.229557104e-08)
(0.01100041475 2.516371802e-08 -7.210298444e-09)
(0.01100038787 1.456227863e-08 -3.279754895e-09)
(0.01100034527 4.379699767e-09 1.506953101e-09)
(0.01100028379 -2.839423487e-09 4.271757714e-09)
(0.01100022727 -7.455884888e-09 6.793127169e-09)
(0.01100016215 -1.034563958e-08 6.353878989e-09)
(0.01100009966 -1.256455841e-08 6.394183366e-09)
(0.01100003685 -1.30114342e-08 7.188741601e-09)
(0.01099997723 -1.597511989e-08 6.339359748e-09)
(0.01099993044 -1.461615683e-08 6.449909268e-09)
(0.01099987709 -1.292599585e-08 6.874459611e-09)
(0.01100035554 1.67037319e-08 -1.675147158e-08)
(0.01100039927 1.56054479e-08 -1.654632436e-08)
(0.01100044263 1.092341698e-08 -1.226513291e-08)
(0.01100044948 7.537619744e-09 -7.979509227e-09)
(0.01100044112 5.082845988e-09 -7.030327066e-09)
(0.01100041367 2.213923101e-09 -2.88436021e-09)
(0.01100037088 -1.360816496e-09 1.648560261e-09)
(0.01100032316 -1.696984461e-09 2.226846558e-09)
(0.01100026486 -2.428658581e-09 4.597616646e-09)
(0.01100020702 -3.335409329e-09 5.511462193e-09)
(0.01100014548 -4.773122415e-09 5.254870365e-09)
(0.01100008539 -6.983617758e-09 5.120669297e-09)
(0.0110000325 -6.992030708e-09 5.739950022e-09)
(0.01099997293 -4.509454171e-09 6.896447242e-09)
(0.01100023599 -4.268987751e-08 -1.058819398e-07)
(0.01100036802 -1.902713058e-08 -6.693739188e-08)
(0.01100039185 -1.818955768e-08 -5.836479648e-08)
(0.01100042469 -1.246598706e-08 -3.987978796e-08)
(0.01100041359 -6.840651366e-09 -2.411212204e-08)
(0.0110003854 -2.431956388e-09 -1.329346918e-08)
(0.01100033668 9.94404052e-10 -3.307710985e-09)
(0.01100028446 3.320909782e-09 2.895791158e-09)
(0.01100022762 3.835711495e-09 9.224455492e-09)
(0.01100016043 7.686150934e-09 1.214790529e-08)
(0.01100009742 6.908109844e-09 1.256141388e-08)
(0.01100003735 7.12339896e-09 1.672284253e-08)
(0.0109999781 6.518692222e-09 1.634398748e-08)
(0.01099993056 6.941065162e-09 1.613751662e-08)
(0.01099987102 6.851881104e-09 1.550991862e-08)
(0.0110003849 -8.644560581e-08 -8.726285475e-08)
(0.01100036466 -7.520553084e-08 -7.471027502e-08)
(0.01100037418 -4.873059867e-08 -4.710223613e-08)
(0.01100033114 -2.453704395e-08 -2.424406128e-08)
(0.01100027547 -8.706494869e-09 -9.042340729e-09)
(0.01100020676 3.410975347e-09 3.737875338e-09)
(0.01100013869 1.20249405e-08 1.20354833e-08)
(0.01100007576 1.538029799e-08 1.652568451e-08)
(0.01100000791 1.781745449e-08 1.854924057e-08)
(0.01099994757 1.947391198e-08 1.758166081e-08)
(0.01099989159 1.975788942e-08 1.944507747e-08)
(0.01099984392 1.759725422e-08 1.837940724e-08)
(0.01099980249 1.918249145e-08 1.905989867e-08)
(0.01099975849 1.682578215e-08 1.681223105e-08)
(0.01100041787 -7.099331863e-08 -1.495999761e-07)
(0.01100029836 -7.392748547e-08 -1.1337431e-07)
(0.01100024891 -3.822349635e-08 -5.4590128e-08)
(0.01100014379 -1.071798284e-08 -1.679051118e-08)
(0.01100004275 6.332056419e-09 8.949179993e-09)
(0.01099994649 1.769800969e-08 2.156880014e-08)
(0.01099986838 2.190437323e-08 2.977439e-08)
(0.01099980155 2.430654277e-08 3.143118601e-08)
(0.01099974282 2.290141607e-08 3.064870935e-08)
(0.0109996949 2.232701468e-08 2.896753934e-08)
(0.0109996577 2.193760235e-08 2.745360909e-08)
(0.01099962893 2.358068242e-08 2.373109892e-08)
(0.01099960183 2.330612437e-08 2.294077383e-08)
(0.01099958018 1.906114709e-08 1.99087935e-08)
(0.01100037594 -9.264449511e-08 -1.39244764e-07)
(0.01100007904 -5.110712012e-08 -1.232247042e-07)
(0.01099998824 -1.293938304e-08 -3.984285693e-08)
(0.0109998417 1.014874167e-08 8.887360592e-09)
(0.01099972096 2.077007309e-08 3.369149139e-08)
(0.01099962544 2.438921399e-08 4.271040421e-08)
(0.01099955711 2.39922068e-08 4.914731175e-08)
(0.01099950797 2.157971859e-08 4.591641713e-08)
(0.01099947344 2.052760126e-08 4.326950267e-08)
(0.01099944894 1.774043143e-08 3.706259092e-08)
(0.01099943278 1.591325556e-08 3.294246294e-08)
(0.01099942389 1.581771016e-08 2.887165848e-08)
(0.01099941888 1.446228383e-08 2.782169818e-08)
(0.01099941748 1.400074274e-08 2.229983673e-08)
(0.01100053508 -2.4430449e-10 -1.841205071e-07)
(0.01099996874 5.222898411e-11 -9.522591854e-08)
(0.01099982202 -1.225651687e-09 9.606730725e-09)
(0.01099965811 -1.773146438e-09 5.54351959e-08)
(0.01099953589 -1.41103941e-10 6.562567079e-08)
(0.01099945609 -6.056381704e-10 6.608770158e-08)
(0.01099940349 5.948051308e-10 6.118670881e-08)
(0.01099937198 2.631725522e-09 5.288568669e-08)
(0.01099935151 1.116790473e-09 4.718515865e-08)
(0.01099934223 2.618917291e-10 4.007558764e-08)
(0.01099934083 1.770710309e-09 3.47931752e-08)
(0.01099933993 1.012415898e-09 3.019380233e-08)
(0.01099934501 1.474009259e-09 2.976599897e-08)
(0.01099934823 1.028348295e-09 2.235363169e-08)
(0.01100037518 9.136079038e-08 -1.397441624e-07)
(0.01100007597 5.256253647e-08 -1.243345293e-07)
(0.01099998934 1.337517822e-08 -3.991128479e-08)
(0.0109998425 -1.129148166e-08 1.128342024e-08)
(0.01099972031 -2.178225312e-08 3.400679738e-08)
(0.01099963125 -2.365155801e-08 4.568806793e-08)
(0.0109995584 -2.247092583e-08 4.776293763e-08)
(0.01099950874 -2.155778351e-08 4.711788391e-08)
(0.01099947204 -2.035144079e-08 4.4033198e-08)
(0.0109994503 -1.629485311e-08 3.70716854e-08)
(0.01099943527 -1.483313576e-08 3.280943492e-08)
(0.01099942429 -1.338628548e-08 2.655134829e-08)
(0.01099941995 -1.30827269e-08 2.785725296e-08)
(0.01099941167 -1.238407712e-08 2.272270218e-08)
(0.0110004155 7.057707948e-08 -1.503174811e-07)
(0.01100029607 7.145739524e-08 -1.139171833e-07)
(0.01100024537 3.804162545e-08 -5.358050164e-08)
(0.01100014453 9.734298854e-09 -1.511757133e-08)
(0.01100004304 -6.498467117e-09 8.154293641e-09)
(0.01099994962 -1.686414661e-08 2.174668526e-08)
(0.0109998684 -2.168855523e-08 2.894941765e-08)
(0.01099980262 -2.423024925e-08 3.131412647e-08)
(0.01099974279 -2.3982156e-08 3.042598587e-08)
(0.0109996971 -2.281034291e-08 2.888329182e-08)
(0.01099965943 -2.338833637e-08 2.699837288e-08)
(0.01099962944 -2.120326632e-08 2.411463498e-08)
(0.01099960205 -2.477562393e-08 2.396955716e-08)
(0.01099957866 -1.810008781e-08 1.940413094e-08)
(0.0110003869 8.696756161e-08 -8.67351876e-08)
(0.0110003672 7.374445817e-08 -7.483164133e-08)
(0.01100037228 4.675368187e-08 -4.804765218e-08)
(0.01100033282 2.38495473e-08 -2.389662302e-08)
(0.01100027816 8.548481376e-09 -8.010744393e-09)
(0.01100020928 -3.309396197e-09 4.006073059e-09)
(0.01100013951 -1.259552905e-08 1.108811291e-08)
(0.01100007274 -1.613481038e-08 1.687259816e-08)
(0.01100000648 -1.765249179e-08 1.90734227e-08)
(0.01099994875 -1.939216607e-08 1.919814609e-08)
(0.01099989363 -1.854776414e-08 1.908158267e-08)
(0.01099984316 -1.834543028e-08 1.839090745e-08)
(0.01099980362 -1.930839327e-08 1.835424985e-08)
(0.01099976187 -1.621731109e-08 1.551942735e-08)
(0.01100036942 1.890802797e-08 -6.675042657e-08)
(0.01100039448 1.831692578e-08 -5.892600531e-08)
(0.01100042666 1.137032744e-08 -4.078478884e-08)
(0.01100041349 6.690412524e-09 -2.42244046e-08)
(0.01100038798 7.273701116e-10 -1.440115312e-08)
(0.01100034003 -1.659704544e-09 -3.49355917e-09)
(0.0110002863 -4.746799358e-09 2.522537742e-09)
(0.01100022637 -6.029520066e-09 6.899619421e-09)
(0.01100016466 -5.126508448e-09 1.132656271e-08)
(0.01100009618 -5.228965481e-09 1.212048374e-08)
(0.01100003883 -6.849345436e-09 1.341217815e-08)
(0.01099997887 -8.026091247e-09 1.558024046e-08)
(0.0109999332 -6.659331574e-09 1.519031606e-08)
(0.01099987701 -6.014115723e-09 1.203873351e-08)
(0.0110002223 -8.677221297e-08 -1.333652623e-07)
(0.01100039751 -3.046856005e-08 -6.339995594e-08)
(0.01100038611 -2.933058621e-08 -5.661980552e-08)
(0.01100038938 -1.363564836e-08 -3.463635877e-08)
(0.01100033981 -1.775433238e-09 -1.890831772e-08)
(0.01100027913 2.647749246e-09 -3.872678002e-09)
(0.01100020638 9.574517998e-09 4.421424152e-09)
(0.0110001301 1.154308729e-08 8.12239467e-09)
(0.01100005551 1.029609999e-08 1.308118702e-08)
(0.01099998473 1.256726106e-08 1.38317639e-08)
(0.01099992077 1.211545178e-08 1.595599037e-08)
(0.01099986425 1.157785564e-08 1.85579715e-08)
(0.01099980913 1.15312299e-08 1.906123589e-08)
(0.01099976967 1.026166635e-08 1.873278169e-08)
(0.01099972262 1.008086712e-08 1.722040506e-08)
(0.01100020678 -3.521819357e-07 -2.192906179e-07)
(0.01100041498 -1.529547765e-07 -6.837477589e-08)
(0.01100029514 -1.151118209e-07 -7.139387005e-08)
(0.01100024559 -5.48446116e-08 -3.853007084e-08)
(0.01100014225 -1.552250025e-08 -1.221171384e-08)
(0.01100004037 8.467844487e-09 4.775176774e-09)
(0.01099994831 2.237879538e-08 1.594090585e-08)
(0.01099986701 2.867031325e-08 2.091324166e-08)
(0.0109998024 3.091136525e-08 2.373743541e-08)
(0.01099974279 2.958087274e-08 2.158379322e-08)
(0.01099969475 3.015850105e-08 2.335106172e-08)
(0.01099965687 2.825220476e-08 2.156710741e-08)
(0.01099962751 2.241527903e-08 2.264415385e-08)
(0.01099960187 2.407113852e-08 2.180604826e-08)
(0.01099958031 2.075056907e-08 1.835647598e-08)
(0.01100041375 -1.218469475e-07 -1.215162926e-07)
(0.01100002208 -1.125431424e-07 -1.109277837e-07)
(0.01099985137 -3.23264901e-08 -3.10018969e-08)
(0.01099965559 1.475754532e-08 1.492757198e-08)
(0.01099951448 3.556439926e-08 3.58592482e-08)
(0.01099942136 4.500194606e-08 4.632713567e-08)
(0.01099936372 4.817832772e-08 4.814634932e-08)
(0.01099933107 4.370335455e-08 4.209636711e-08)
(0.01099931711 4.10067081e-08 3.86581997e-08)
(0.01099931646 3.370237576e-08 3.437790273e-08)
(0.01099931879 3.108519695e-08 3.026623113e-08)
(0.01099932527 2.846754972e-08 2.782566755e-08)
(0.01099933769 2.781897604e-08 2.704640356e-08)
(0.01099935118 2.183796809e-08 2.153013468e-08)
(0.01100006562 -1.28917e-07 2.846965652e-08)
(0.01099922796 -3.885558867e-08 -1.151039279e-07)
(0.01099903675 3.70469303e-08 9.003170527e-09)
(0.01099884501 6.490133743e-08 6.743866349e-08)
(0.01099875565 6.327143223e-08 8.036303823e-08)
(0.01099874633 5.531255498e-08 8.017595871e-08)
(0.01099877215 4.707477492e-08 7.306878187e-08)
(0.01099882046 3.873722993e-08 6.289724398e-08)
(0.01099887479 3.201564787e-08 5.476565484e-08)
(0.01099893585 2.705922238e-08 4.543505397e-08)
(0.01099899061 2.261970645e-08 3.745958438e-08)
(0.01099904559 1.875251574e-08 3.155586299e-08)
(0.01099909437 1.987519052e-08 3.22478459e-08)
(0.01099914029 1.62733245e-08 2.555153064e-08)
(0.01100013565 -5.921394858e-10 4.027827439e-07)
(0.01099851949 1.181137869e-09 3.415102379e-08)
(0.0109983573 4.494818492e-11 1.273853373e-07)
(0.01099825508 2.788430355e-10 1.557889186e-07)
(0.01099827332 1.006976645e-09 1.322358974e-07)
(0.01099836232 5.399081956e-10 1.096464022e-07)
(0.01099846619 -4.874564093e-10 9.019994393e-08)
(0.01099857295 2.792626424e-09 7.288043275e-08)
(0.01099867416 -6.290264327e-10 5.75780163e-08)
(0.01099876852 1.243701572e-09 4.792268752e-08)
(0.01099885178 -2.716912521e-10 3.956409927e-08)
(0.01099892753 1.500843942e-09 3.27762385e-08)
(0.01099899213 1.139157082e-09 3.198783132e-08)
(0.01099905427 4.339790874e-10 2.485196904e-08)
(0.01100006316 1.287067462e-07 2.830160342e-08)
(0.01099922927 3.665919771e-08 -1.168264387e-07)
(0.0109990372 -4.011117281e-08 9.434402216e-09)
(0.01099884392 -6.648532771e-08 6.721553837e-08)
(0.01099875749 -6.537782652e-08 8.097525956e-08)
(0.01099874561 -5.437698802e-08 8.147394554e-08)
(0.01099877258 -4.592230526e-08 7.32885428e-08)
(0.01099882093 -3.920993203e-08 6.318988054e-08)
(0.01099887762 -3.113848882e-08 5.446292184e-08)
(0.01099893464 -2.606723606e-08 4.422585547e-08)
(0.01099899058 -2.230435447e-08 3.752852394e-08)
(0.01099904553 -1.862981203e-08 3.08028504e-08)
(0.01099909326 -1.748709243e-08 2.942539863e-08)
(0.01099913899 -1.54616294e-08 2.553933341e-08)
(0.01100041225 1.212486008e-07 -1.214075099e-07)
(0.01100002469 1.107248708e-07 -1.123979984e-07)
(0.01099985322 3.062019986e-08 -3.296399179e-08)
(0.01099965643 -1.728974931e-08 1.374919281e-08)
(0.01099951596 -3.756375282e-08 3.380317907e-08)
(0.0109994227 -4.667001154e-08 4.801809233e-08)
(0.01099936583 -4.529271522e-08 4.779158012e-08)
(0.01099933164 -4.340194116e-08 4.546685146e-08)
(0.01099931833 -3.958936808e-08 4.094860938e-08)
(0.01099931615 -3.434062444e-08 3.556897401e-08)
(0.01099931879 -3.011499987e-08 3.204223468e-08)
(0.01099932953 -2.564262166e-08 2.596737673e-08)
(0.01099933731 -2.878427914e-08 2.604089547e-08)
(0.01099934805 -2.225715376e-08 2.066664825e-08)
(0.01100041744 1.504393457e-07 -7.128412748e-08)
(0.01100029681 1.132982932e-07 -7.384283477e-08)
(0.01100024837 5.360053384e-08 -3.894866728e-08)
(0.01100014284 1.491890357e-08 -1.07961563e-08)
(0.01100004314 -8.370216104e-09 5.260131303e-09)
(0.01099995055 -2.129458435e-08 1.638986075e-08)
(0.01099986697 -2.842278387e-08 2.137475153e-08)
(0.01099980153 -3.018719893e-08 2.545415183e-08)
(0.01099974102 -2.902465245e-08 2.538612628e-08)
(0.01099969657 -2.850294654e-08 2.333513496e-08)
(0.01099965829 -2.696208118e-08 2.331893258e-08)
(0.01099962622 -2.334181511e-08 2.2148726e-08)
(0.01099960162 -2.41408612e-08 2.340585168e-08)
(0.01099957995 -2.057064882e-08 1.659366495e-08)
(0.01100040073 3.432258255e-08 -6.52811604e-08)
(0.01100038754 2.967198843e-08 -5.686044795e-08)
(0.01100039349 1.656509314e-08 -3.650259772e-08)
(0.01100034379 6.126933442e-09 -1.792099308e-08)
(0.01100028167 -1.090317907e-10 -5.075007806e-09)
(0.01100020662 -6.318429599e-09 3.09903545e-09)
(0.01100012874 -8.83571006e-09 1.157866181e-08)
(0.01100005625 -9.829721255e-09 1.421291703e-08)
(0.01099998578 -9.361459892e-09 1.406193884e-08)
(0.01099992177 -8.530863789e-09 1.546827861e-08)
(0.01099986319 -9.308726898e-09 1.724541232e-08)
(0.01099981157 -9.280543907e-09 1.630618143e-08)
(0.01099976928 -9.750318079e-09 1.783458717e-08)
(0.01099972572 -7.1932296e-09 1.435059574e-08)
(0.01100022619 -1.234986536e-07 -2.032140785e-07)
(0.01100041547 -2.268448937e-08 -8.436074912e-08)
(0.01100033295 -3.17533276e-08 -5.271676098e-08)
(0.01100030885 -1.338482579e-08 -2.535770011e-08)
(0.0110002269 -5.811163924e-11 -6.837207627e-09)
(0.01100013502 1.07870708e-08 2.697052581e-09)
(0.01100004184 1.259435576e-08 6.740615305e-09)
(0.01099995365 1.553391239e-08 1.087450917e-08)
(0.01099987765 1.547631457e-08 9.396442924e-09)
(0.01099980706 1.356825064e-08 1.256206906e-08)
(0.01099974905 1.400777481e-08 1.425473228e-08)
(0.01099969804 1.17442171e-08 1.181339196e-08)
(0.01099965638 1.073468022e-08 1.192306213e-08)
(0.01099962338 1.035198472e-08 1.184938507e-08)
(0.01099959305 8.687103537e-09 9.76839757e-09)
(0.01100019988 -5.456918875e-07 -4.156994058e-07)
(0.01100037741 -1.396255512e-07 -9.402070349e-08)
(0.01100007512 -1.234514054e-07 -5.295976356e-08)
(0.01099998431 -4.112761191e-08 -1.342125398e-08)
(0.01099984042 9.349871453e-09 1.002140941e-08)
(0.0109997194 3.23042703e-08 1.838347954e-08)
(0.01099962701 4.582920461e-08 2.155199631e-08)
(0.0109995582 4.89518053e-08 2.151764152e-08)
(0.01099950657 4.631628204e-08 2.149563548e-08)
(0.01099947335 4.269987113e-08 2.012077099e-08)
(0.01099944925 3.738861073e-08 1.665015697e-08)
(0.0109994328 3.528400993e-08 1.766501818e-08)
(0.01099942429 2.870234492e-08 1.617812175e-08)
(0.0109994188 2.800501751e-08 1.500290225e-08)
(0.01099941715 2.327873974e-08 1.250799108e-08)
(0.01099994842 -7.836727305e-07 -1.175826464e-06)
(0.01100006255 2.785239561e-08 -1.303873782e-07)
(0.01099922673 -1.166576045e-07 -3.874527025e-08)
(0.01099903377 8.7842474e-09 3.775363878e-08)
(0.01099884256 6.683399919e-08 6.52548204e-08)
(0.01099875283 8.167964589e-08 6.141711876e-08)
(0.0109987474 8.271996619e-08 5.245150634e-08)
(0.01099877152 7.447684393e-08 4.421288507e-08)
(0.0109988184 6.391372804e-08 3.785739644e-08)
(0.01099887636 5.585286016e-08 3.030110602e-08)
(0.01099893367 4.565933931e-08 2.653952451e-08)
(0.01099899071 3.61866632e-08 2.241898861e-08)
(0.01099904488 3.112615503e-08 1.903936876e-08)
(0.01099909459 3.339627716e-08 1.99569025e-08)
(0.01099913896 2.586794768e-08 1.611127243e-08)
(0.01099809791 4.289552001e-07 4.302870638e-07)
(0.01099669087 9.363139981e-08 9.679902996e-08)
(0.01099697324 1.486062013e-07 1.491000304e-07)
(0.01099708388 1.555060235e-07 1.554473794e-07)
(0.01099730749 1.223933403e-07 1.200866195e-07)
(0.01099757587 9.304121614e-08 9.268473779e-08)
(0.01099782549 7.086388201e-08 6.92401151e-08)
(0.01099805231 5.607464359e-08 5.338669667e-08)
(0.01099824549 4.124891619e-08 4.050433641e-08)
(0.01099841416 3.339943581e-08 3.313179747e-08)
(0.01099856189 2.696315411e-08 2.719816989e-08)
(0.01099869124 2.375289171e-08 2.322087633e-08)
(0.01099878562 2.18656174e-08 2.248940817e-08)
(0.01099888687 1.818352122e-08 1.717004136e-08)
(0.01099588439 -2.174538161e-09 2.865811694e-06)
(0.01099327934 -1.928408548e-09 9.248721129e-07)
(0.01099483267 -1.346835487e-09 4.803261182e-07)
(0.01099563179 -5.80222886e-10 3.283106788e-07)
(0.01099630285 -1.3871497e-10 1.986997839e-07)
(0.01099687185 -4.830161128e-10 1.262699885e-07)
(0.01099731491 -4.282861305e-10 8.356852127e-08)
(0.01099767093 5.776115292e-10 5.853854668e-08)
(0.01099795433 1.16471362e-09 4.356874468e-08)
(0.01099818725 -5.198190466e-10 3.48524569e-08)
(0.01099837965 2.404696024e-09 2.720208812e-08)
(0.01099853698 -5.196768167e-10 2.281381746e-08)
(0.01099866279 1.730073822e-09 2.404026535e-08)
(0.01099878673 7.25342722e-10 1.639824826e-08)
(0.01099809839 -4.308429821e-07 4.289659268e-07)
(0.01099669444 -9.532024181e-08 9.505870895e-08)
(0.01099697313 -1.494018044e-07 1.475533053e-07)
(0.01099708515 -1.560352169e-07 1.534713245e-07)
(0.01099730858 -1.217622147e-07 1.21246094e-07)
(0.01099757322 -9.177389417e-08 9.226729487e-08)
(0.01099782462 -6.975482814e-08 7.006140097e-08)
(0.01099805234 -5.377719732e-08 5.26524135e-08)
(0.01099824666 -4.25923055e-08 4.12951467e-08)
(0.01099841883 -3.194200257e-08 3.178936837e-08)
(0.01099856112 -2.657637641e-08 2.599180833e-08)
(0.01099868682 -2.237607414e-08 2.315896422e-08)
(0.01099878844 -2.326848414e-08 2.197608019e-08)
(0.01099888607 -1.872556858e-08 1.6692308e-08)
(0.01100006411 -2.944814775e-08 -1.287870102e-07)
(0.0109992289 1.154559443e-07 -3.89191026e-08)
(0.01099903521 -9.897067825e-09 3.958923926e-08)
(0.01099883981 -6.884594642e-08 6.523289938e-08)
(0.01099875734 -8.211868519e-08 6.431239735e-08)
(0.0109987473 -8.256814876e-08 5.429756795e-08)
(0.0109987728 -7.317219689e-08 4.66805436e-08)
(0.01099881839 -6.146103815e-08 3.878954297e-08)
(0.01099887549 -5.217906178e-08 3.253546439e-08)
(0.0109989368 -4.352817312e-08 2.633424499e-08)
(0.01099898952 -3.750392786e-08 2.200185591e-08)
(0.01099904628 -3.049126615e-08 1.715507788e-08)
(0.01099909081 -3.171198571e-08 1.726048596e-08)
(0.01099913908 -2.577998851e-08 1.571893624e-08)
(0.01100037879 1.384092556e-07 -9.254030118e-08)
(0.01100007824 1.228790646e-07 -5.23406323e-08)
(0.01099998313 3.955859872e-08 -1.149267725e-08)
(0.01099984053 -9.345261273e-09 1.059841225e-08)
(0.01099972194 -3.274491699e-08 2.004976827e-08)
(0.01099962689 -4.581999433e-08 2.236703708e-08)
(0.01099955815 -4.928715171e-08 2.326860058e-08)
(0.01099950839 -4.730934519e-08 2.107034288e-08)
(0.01099947055 -4.227621495e-08 1.949856433e-08)
(0.01099944874 -3.836637401e-08 1.77935998e-08)
(0.01099943253 -3.391566342e-08 1.602750759e-08)
(0.01099942246 -2.926298953e-08 1.400684654e-08)
(0.01099941717 -2.758643532e-08 1.488360281e-08)
(0.01099941373 -2.181004157e-08 1.326001155e-08)
(0.01100041854 2.236711865e-08 -8.439142302e-08)
(0.01100033554 2.980104504e-08 -5.172024367e-08)
(0.01100031005 1.340232725e-08 -2.394783465e-08)
(0.01100022747 -8.929224612e-10 -4.596540175e-09)
(0.01100013585 -9.631935888e-09 4.513628908e-09)
(0.01100004556 -1.287787527e-08 8.019707719e-09)
(0.01099995425 -1.350285376e-08 9.740801463e-09)
(0.01099987756 -1.562713128e-08 1.119550873e-08)
(0.01099980676 -1.364186876e-08 1.1720507e-08)
(0.01099974868 -1.182060956e-08 1.081475997e-08)
(0.01099969648 -9.738659385e-09 1.276607962e-08)
(0.01099965469 -9.687862108e-09 1.144096929e-08)
(0.01099962444 -1.166123937e-08 1.252416512e-08)
(0.01099959276 -7.335726124e-09 1.079322376e-08)
(0.01100021012 -2.890987699e-07 9.269277701e-11)
(0.01100051081 -3.599201155e-08 -6.881624373e-10)
(0.01100034611 -2.570104814e-08 3.305140711e-10)
(0.01100028405 -9.77747339e-10 -3.19537964e-10)
(0.01100017135 1.34258493e-08 -8.019389159e-10)
(0.01100006002 1.871284408e-08 -1.075437913e-09)
(0.01099996241 2.155349492e-08 -1.064355108e-09)
(0.01099987225 1.964687231e-08 -9.729900088e-10)
(0.01099979553 1.871775365e-08 -6.10602397e-10)
(0.01099972994 1.762460696e-08 -5.971645732e-10)
(0.0109996743 1.352341571e-08 -7.617841667e-10)
(0.01099962953 1.269330368e-08 5.644089728e-11)
(0.01099959097 1.318420748e-08 -1.121722436e-09)
(0.01099956194 1.33052116e-08 1.895634816e-10)
(0.01099953927 1.086392697e-08 9.878930309e-11)
(0.01100015481 -1.301813836e-06 -5.36881861e-10)
(0.011000533 -1.858125359e-07 -2.174099113e-09)
(0.01099996786 -9.691942527e-08 -8.174393493e-10)
(0.0109998202 8.975102208e-09 -4.221844661e-10)
(0.01099965723 5.468395527e-08 -1.205352171e-10)
(0.01099953487 6.564255471e-08 -1.766201864e-10)
(0.01099945555 6.652850655e-08 1.460185061e-10)
(0.0109994039 6.181958015e-08 -6.041255112e-10)
(0.01099937076 5.532291721e-08 -8.954904842e-10)
(0.01099935065 4.741322648e-08 -5.882686877e-10)
(0.01099934136 4.079294723e-08 -3.286066583e-10)
(0.01099933822 3.59377529e-08 5.946145705e-10)
(0.01099933932 2.930531512e-08 -8.954609947e-10)
(0.01099934267 3.006956031e-08 2.276696952e-10)
(0.01099934981 2.403795255e-08 -9.816990439e-10)
(0.01099947027 -2.600720363e-06 -8.203932227e-10)
(0.01100013299 4.024578614e-07 5.66756503e-10)
(0.01099851856 3.534722603e-08 -1.30822664e-09)
(0.01099835483 1.264615566e-07 7.633496654e-10)
(0.01099825198 1.570405485e-07 -1.803432286e-09)
(0.0109982723 1.3624453e-07 -7.53293017e-10)
(0.0109983612 1.117192434e-07 -1.552535489e-09)
(0.0109984653 9.260551212e-08 8.317724184e-10)
(0.01099857203 7.307113956e-08 -1.493687839e-10)
(0.01099867311 5.914756934e-08 6.831413106e-11)
(0.01099876666 4.861857165e-08 6.017105484e-11)
(0.01099885233 3.956756887e-08 -1.191427397e-09)
(0.01099892883 3.383038622e-08 9.886000286e-10)
(0.01099899221 3.424595186e-08 9.336007495e-10)
(0.01099905274 2.665742945e-08 3.230140468e-10)
(0.01099443946 -1.163951491e-05 6.740704323e-10)
(0.0109958813 2.864200121e-06 -5.860789618e-10)
(0.0109932783 9.254676547e-07 -4.907077166e-10)
(0.01099483238 4.801944962e-07 -8.200490789e-10)
(0.01099563348 3.265859223e-07 -7.797438682e-10)
(0.01099629963 1.977615726e-07 -3.040452753e-10)
(0.0109968713 1.267755778e-07 -2.173587507e-09)
(0.01099731429 8.42772842e-08 -1.295751856e-09)
(0.01099767184 5.91596988e-08 -9.139401085e-10)
(0.01099795416 4.415922266e-08 -1.599903106e-09)
(0.01099818648 3.397601829e-08 -2.613364673e-09)
(0.01099837685 2.841886177e-08 -6.416356394e-10)
(0.0109985376 2.336522089e-08 -3.317256514e-10)
(0.01099866425 2.256015281e-08 -1.446239979e-09)
(0.01099878741 1.650813678e-08 -2.355051585e-10)
(0.01098992244 1.037551718e-09 -2.815448559e-10)
(0.01098300057 -1.264950721e-09 1.145766771e-09)
(0.01099005274 -9.50549091e-10 -4.984512605e-10)
(0.0109930937 -6.05393189e-13 -1.044391457e-09)
(0.01099478015 6.260109262e-10 -6.136692131e-10)
(0.01099591319 8.994897936e-10 -2.026120692e-09)
(0.010996675 9.157769306e-10 -2.041828025e-09)
(0.01099721864 4.195823008e-10 -1.67777528e-09)
(0.01099761834 1.452103692e-09 -2.84156424e-09)
(0.01099792837 -4.97644078e-10 -1.585299319e-09)
(0.01099817232 -7.144661646e-11 1.206840266e-09)
(0.01099837398 -1.678037176e-09 5.885994922e-11)
(0.01099852709 1.420719302e-09 -4.169428637e-10)
(0.01099868094 1.416466724e-09 -1.29245433e-11)
(0.01099588345 -2.867122719e-06 1.535417146e-10)
(0.01099327719 -9.28495055e-07 -9.179822075e-11)
(0.01099483303 -4.812985665e-07 3.61770523e-10)
(0.01099563307 -3.280805088e-07 2.887541018e-10)
(0.01099630203 -1.989251241e-07 -9.367781172e-10)
(0.01099687095 -1.249625982e-07 2.02149489e-10)
(0.01099731473 -8.295351283e-08 1.724015566e-09)
(0.01099766989 -5.7199025e-08 -6.719085387e-10)
(0.01099795737 -4.526851066e-08 -1.457318913e-09)
(0.01099818804 -3.44368545e-08 -2.240799145e-10)
(0.01099837849 -2.745029458e-08 1.336508439e-10)
(0.01099853831 -2.361909251e-08 6.354534406e-10)
(0.01099866388 -2.46036706e-08 1.032865533e-09)
(0.01099878355 -1.662900338e-08 -2.901443508e-11)
(0.01100013417 -4.047145306e-07 -8.007647357e-10)
(0.01099851891 -3.470141301e-08 -3.91157434e-10)
(0.01099835397 -1.282191657e-07 5.566051383e-10)