/*--------------------------------*- C++ -*----------------------------------*\
| =========                 |                                                 |
| \\      /  F ield         | OpenFOAM: The Open Source CFD Toolbox           |
|  \\    /   O peration     | Version:  4.x                                   |
|   \\  /    A nd           | Web:      www.OpenFOAM.org                      |
|    \\/     M anipulation  |                                                 |
\*---------------------------------------------------------------------------*/
FoamFile
{
    version     2.0;
    format      ascii;
    class       volScalarField;
    location    "5000";
    object      X_CO;
}
// * * * * * * * * * * * * * * * * * * * * * * * * * * * * * * * * * * * * * //

dimensions      [0 0 0 0 0 0 0];

internalField   nonuniform List<scalar> 
1174
(
0.3000559761
0.3000545537
0.3000525663
0.3000499993
0.3000468896
0.3000433133
0.3000393714
0.3000351749
0.3000308334
0.3000264479
0.3000221102
0.3000179165
0.3000140374
0.3000110143
0.3000546683
0.3000524292
0.3000494777
0.3000458932
0.3000418072
0.300037373
0.300032742
0.3000280493
0.300023406
0.3000188989
0.3000145949
0.3000105585
0.3000069163
0.300004126
0.3000518115
0.3000479245
0.3000431644
0.3000378106
0.3000321556
0.3000264551
0.3000209061
0.3000156448
0.3000107539
0.3000062747
0.3000022213
0.2999986004
0.2999954662
0.2999931355
0.3000476847
0.3000417292
0.3000349609
0.3000278817
0.3000208985
0.3000142952
0.3000082422
0.3000028202
0.2999980471
0.2999939
0.2999903343
0.2999873022
0.2999847929
0.2999829896
0.3000447858
0.3000377159
0.3000300745
0.3000224019
0.3000150791
0.3000083414
0.3000023094
0.2999970215
0.2999924615
0.2999885808
0.2999853143
0.2999825969
0.299980396
0.2999788417
0.3000476848
0.3000417293
0.300034961
0.3000278818
0.3000208987
0.3000142955
0.3000082424
0.3000028205
0.2999980474
0.2999939004
0.2999903347
0.2999873026
0.2999847933
0.29998299
0.3000518116
0.3000479247
0.3000431646
0.3000378109
0.3000321559
0.3000264554
0.3000209065
0.3000156453
0.3000107545
0.3000062753
0.3000022219
0.2999986011
0.299995467
0.2999931364
0.3000546684
0.3000524293
0.3000494779
0.3000458934
0.3000418075
0.3000373733
0.3000327425
0.3000280498
0.3000234066
0.3000188996
0.3000145956
0.3000105593
0.3000069172
0.300004127
0.3000559762
0.3000545538
0.3000525664
0.3000499995
0.3000468898
0.3000433136
0.3000393718
0.3000351753
0.3000308339
0.3000264485
0.3000221109
0.3000179173
0.3000140383
0.3000110154
0.3000561971
0.3000546683
0.3000524292
0.3000494778
0.3000458932
0.3000418072
0.300037373
0.3000327421
0.3000280493
0.3000234061
0.3000188989
0.3000145949
0.3000105585
0.3000069163
0.300004126
0.3000517683
0.3000479173
0.3000432682
0.300038109
0.30003272
0.3000273312
0.3000221093
0.3000171621
0.3000125502
0.3000083008
0.3000044208
0.3000009169
0.299997849
0.299995546
0.3000445647
0.3000372327
0.3000293496
0.3000215814
0.3000143683
0.3000079375
0.300002359
0.2999976046
0.2999935951
0.2999902318
0.2999874163
0.2999850653
0.2999831394
0.2999817611
0.3000319614
0.3000199715
0.3000087038
0.2999989714
0.2999910262
0.2999847913
0.2999800389
0.2999764985
0.2999739122
0.2999720579
0.299970755
0.2999698615
0.2999692708
0.2999689232
0.3000202773
0.3000059992
0.2999940389
0.2999846565
0.2999776145
0.2999725108
0.2999689328
0.2999665179
0.2999649693
0.2999640541
0.2999635927
0.2999634471
0.2999635034
0.2999636378
0.3000319616
0.3000199718
0.3000087042
0.2999989718
0.2999910266
0.2999847918
0.2999800395
0.2999764991
0.2999739128
0.2999720585
0.2999707556
0.2999698621
0.2999692714
0.2999689238
0.300044565
0.3000372331
0.3000293501
0.3000215819
0.3000143689
0.3000079382
0.3000023597
0.2999976053
0.2999935959
0.2999902327
0.2999874173
0.2999850662
0.2999831404
0.2999817621
0.3000517686
0.3000479175
0.3000432685
0.3000381094
0.3000327205
0.3000273317
0.3000221099
0.3000171628
0.300012551
0.3000083017
0.3000044218
0.300000918
0.2999978501
0.2999955472
0.3000546684
0.3000524293
0.3000494779
0.3000458934
0.3000418075
0.3000373734
0.3000327426
0.3000280499
0.3000234068
0.3000188997
0.3000145958
0.3000105595
0.3000069175
0.3000041273
0.300054638
0.3000518115
0.3000479246
0.3000431645
0.3000378107
0.3000321557
0.3000264551
0.3000209062
0.3000156449
0.300010754
0.3000062748
0.3000022213
0.2999986005
0.2999954663
0.2999931356
0.3000505555
0.3000445648
0.3000372328
0.3000293497
0.3000215815
0.3000143684
0.3000079376
0.3000023591
0.2999976046
0.2999935951
0.2999902319
0.2999874164
0.2999850653
0.2999831395
0.2999817612
0.300023622
0.3000085016
0.2999949986
0.2999840836
0.2999758983
0.2999701409
0.2999663429
0.2999640268
0.2999627773
0.2999622634
0.2999622347
0.2999625055
0.2999629286
0.299963333
0.2999777917
0.2999528071
0.299935937
0.299926279
0.2999220222
0.2999214098
0.2999230577
0.299925982
0.2999295276
0.299933279
0.2999369821
0.299940477
0.2999436098
0.2999459867
0.2999188001
0.2998945124
0.2998845897
0.2998834041
0.2998870196
0.2998930001
0.2998999251
0.2999070014
0.2999138066
0.2999201322
0.299925888
0.2999310333
0.2999354807
0.2999387818
0.2999777931
0.2999528085
0.2999359384
0.2999262803
0.2999220234
0.299921411
0.2999230588
0.2999259831
0.2999295286
0.2999332799
0.2999369829
0.2999404778
0.2999436106
0.2999459876
0.3000236232
0.3000085026
0.2999949997
0.2999840848
0.2999758995
0.2999701422
0.2999663443
0.2999640281
0.2999627787
0.2999622648
0.299962236
0.2999625069
0.2999629299
0.2999633343
0.3000445651
0.3000372332
0.3000293502
0.3000215821
0.3000143692
0.3000079385
0.3000023601
0.2999976058
0.2999935964
0.2999902332
0.2999874178
0.2999850668
0.299983141
0.2999817627
0.3000518116
0.3000479247
0.3000431647
0.300037811
0.3000321562
0.3000264557
0.3000209069
0.3000156458
0.300010755
0.300006276
0.3000022226
0.2999986019
0.2999954678
0.2999931372
0.30005233
0.3000476849
0.3000417293
0.3000349611
0.3000278818
0.3000208987
0.3000142954
0.3000082423
0.3000028204
0.2999980472
0.2999939002
0.2999903345
0.2999873024
0.2999847931
0.2999829897
0.3000431277
0.3000319615
0.3000199716
0.300008704
0.2999989716
0.2999910263
0.2999847914
0.2999800391
0.2999764987
0.2999739124
0.2999720581
0.2999707551
0.2999698616
0.2999692709
0.2999689233
0.3000088167
0.299977792
0.2999528074
0.2999359373
0.2999262793
0.2999220224
0.29992141
0.2999230579
0.2999259822
0.2999295278
0.2999332791
0.2999369822
0.2999404771
0.2999436099
0.2999459869
0.2998228995
0.2997929063
0.2997892382
0.2997994692
0.2998156528
0.2998334039
0.2998505592
0.2998661942
0.2998800232
0.2998920645
0.2999024601
0.2999113661
0.2999188117
0.299924215
0.2995239496
0.2995663822
0.2996285644
0.2996872646
0.2997366807
0.2997767292
0.2998088748
0.2998347391
0.2998557035
0.2998728491
0.2998869902
0.2998987057
0.2999082671
0.2999151009
0.2998229048
0.2997929101
0.2997892412
0.2997994717
0.2998156548
0.2998334056
0.2998505607
0.2998661955
0.2998800244
0.2998920656
0.2999024611
0.2999113671
0.2999188126
0.2999242159
0.299977793
0.2999528088
0.2999359389
0.2999262811
0.2999220243
0.299921412
0.2999230598
0.2999259841
0.2999295297
0.299933281
0.2999369839
0.2999404788
0.2999436115
0.2999459885
0.3000319617
0.300019972
0.3000087046
0.2999989725
0.2999910275
0.2999847928
0.2999800406
0.2999765003
0.299973914
0.2999720598
0.2999707569
0.2999698634
0.2999692728
0.2999689252
0.3000476848
0.3000417294
0.3000349613
0.3000278822
0.3000208992
0.3000142962
0.3000082433
0.3000028215
0.2999980486
0.2999939017
0.2999903361
0.2999873041
0.2999847949
0.2999829917
0.3000506272
0.300044786
0.3000377161
0.3000300748
0.3000224022
0.3000150794
0.3000083417
0.3000023097
0.2999970217
0.2999924618
0.2999885811
0.2999853146
0.2999825972
0.2999803962
0.2999788419
0.3000355116
0.3000202776
0.3000059997
0.2999940394
0.2999846569
0.2999776149
0.2999725112
0.2999689332
0.2999665182
0.2999649697
0.2999640544
0.299963593
0.2999634474
0.2999635037
0.299963638
0.2999630074
0.2999188006
0.2998945133
0.2998845905
0.2998834048
0.2998870202
0.2998930006
0.2998999256
0.2999070018
0.299913807
0.2999201325
0.2999258883
0.2999310336
0.299935481
0.299938782
0.2995737848
0.2995239524
0.2995663842
0.2996285657
0.2996872656
0.2997366815
0.2997767298
0.2998088753
0.2998347395
0.2998557039
0.2998728494
0.2998869905
0.299898706
0.2999082674
0.2999151011
0.2982498518
0.2989086068
0.2992703156
0.2994807564
0.2996105415
0.2996952094
0.2997533634
0.2997951491
0.2998263363
0.2998503469
0.2998692884
0.2998844749
0.2998965809
0.2999051084
0.29952395
0.2995663865
0.2996285687
0.2996872684
0.299736684
0.299776732
0.2998088772
0.2998347412
0.2998557054
0.2998728508
0.2998869918
0.2998987071
0.2999082685
0.2999151021
0.2999188001
0.299894514
0.299884592
0.2998834068
0.2998870225
0.2998930029
0.2998999278
0.299907004
0.2999138091
0.2999201346
0.2999258902
0.2999310355
0.2999354828
0.2999387838
0.3000202773
0.3000059998
0.29999404
0.2999846579
0.2999776161
0.2999725127
0.2999689349
0.29996652
0.2999649715
0.2999640563
0.2999635949
0.2999634494
0.2999635057
0.29996364
0.3000447858
0.3000377161
0.3000300749
0.3000224026
0.30001508
0.3000083426
0.3000023108
0.2999970231
0.2999924633
0.2999885827
0.2999853164
0.2999825991
0.2999803982
0.299978844
0.3000523301
0.300047685
0.3000417295
0.3000349613
0.3000278821
0.300020899
0.3000142958
0.3000082427
0.3000028208
0.2999980477
0.2999939007
0.299990335
0.2999873029
0.2999847936
0.2999829903
0.3000431279
0.300031962
0.3000199722
0.3000087046
0.2999989723
0.2999910271
0.2999847922
0.2999800399
0.2999764995
0.2999739132
0.2999720589
0.2999707559
0.2999698624
0.2999692717
0.2999689241
0.3000088185
0.2999777938
0.2999528093
0.2999359391
0.299926281
0.299922024
0.2999214116
0.2999230593
0.2999259836
0.2999295291
0.2999332803
0.2999369833
0.2999404782
0.2999436109
0.2999459879
0.2998930689
0.2998229064
0.2997929117
0.2997892426
0.2997994729
0.2998156559
0.2998334066
0.2998505616
0.2998661963
0.2998800251
0.2998920662
0.2999024616
0.2999113675
0.299918813
0.2999242163
0.2995737854
0.2995239537
0.299566389
0.2996285706
0.2996872698
0.299736685
0.2997767328
0.2998088779
0.2998347418
0.2998557059
0.2998728512
0.2998869921
0.2998987075
0.2999082687
0.2999151024
0.2998930681
0.2998229069
0.2997929131
0.2997892444
0.2997994748
0.2998156577
0.2998334084
0.2998505633
0.2998661978
0.2998800265
0.2998920676
0.2999024629
0.2999113687
0.2999188142
0.2999242173
0.2999777917
0.2999528088
0.2999359396
0.2999262821
0.2999220255
0.2999214133
0.2999230612
0.2999259855
0.299929531
0.2999332822
0.2999369852
0.29994048
0.2999436127
0.2999459896
0.3000319613
0.3000199719
0.3000087047
0.2999989728
0.2999910279
0.2999847933
0.2999800412
0.299976501
0.2999739148
0.2999720606
0.2999707577
0.2999698643
0.2999692736
0.299968926
0.3000476847
0.3000417293
0.3000349612
0.3000278823
0.3000208994
0.3000142965
0.3000082437
0.300002822
0.2999980491
0.2999939022
0.2999903367
0.2999873047
0.2999847956
0.2999829923
0.3000546381
0.3000518117
0.3000479248
0.3000431648
0.3000378111
0.3000321562
0.3000264557
0.3000209068
0.3000156456
0.3000107548
0.3000062756
0.3000022222
0.2999986014
0.2999954673
0.2999931367
0.3000505558
0.3000445652
0.3000372334
0.3000293504
0.3000215823
0.3000143693
0.3000079386
0.3000023601
0.2999976057
0.2999935963
0.2999902331
0.2999874176
0.2999850666
0.2999831408
0.2999817625
0.3000382383
0.3000236236
0.3000085032
0.2999950003
0.2999840853
0.2999759001
0.2999701427
0.2999663448
0.2999640286
0.2999627791
0.2999622652
0.2999622364
0.2999625073
0.2999629303
0.2999633347
0.3000088184
0.299977794
0.2999528098
0.2999359399
0.299926282
0.2999220251
0.2999214127
0.2999230605
0.2999259847
0.2999295302
0.2999332814
0.2999369844
0.2999404793
0.2999436119
0.2999459889
0.2999630074
0.299918802
0.2998945156
0.2998845934
0.2998834079
0.2998870234
0.2998930037
0.2998999285
0.2999070046
0.2999138096
0.299920135
0.2999258906
0.2999310359
0.2999354831
0.2999387841
0.3000088186
0.2999777944
0.2999528105
0.2999359407
0.299926283
0.2999220261
0.2999214138
0.2999230616
0.2999259858
0.2999295312
0.2999332824
0.2999369854
0.2999404802
0.2999436128
0.2999459898
0.3000382378
0.3000236231
0.300008503
0.2999950005
0.2999840859
0.2999759009
0.2999701438
0.299966346
0.2999640299
0.2999627805
0.2999622666
0.2999622379
0.2999625087
0.2999629317
0.2999633361
0.3000445647
0.300037233
0.3000293503
0.3000215824
0.3000143697
0.3000079392
0.3000023609
0.2999976067
0.2999935975
0.2999902344
0.299987419
0.2999850681
0.2999831423
0.2999817641
0.3000518114
0.3000479246
0.3000431647
0.3000378111
0.3000321564
0.3000264561
0.3000209074
0.3000156464
0.3000107557
0.3000062768
0.3000022236
0.2999986029
0.2999954689
0.2999931384
0.3000561972
0.3000546685
0.3000524294
0.300049478
0.3000458936
0.3000418076
0.3000373735
0.3000327427
0.3000280501
0.3000234069
0.3000188998
0.3000145959
0.3000105596
0.3000069175
0.3000041273
0.3000546058
0.3000517687
0.3000479177
0.3000432687
0.3000381096
0.3000327207
0.300027332
0.3000221102
0.3000171631
0.3000125514
0.300008302
0.3000044222
0.3000009183
0.2999978504
0.2999955476
0.3000505558
0.3000445653
0.3000372334
0.3000293505
0.3000215824
0.3000143695
0.3000079389
0.3000023604
0.2999976061
0.2999935967
0.2999902336
0.2999874181
0.2999850671
0.2999831413
0.299981763
0.3000431279
0.3000319621
0.3000199725
0.3000087051
0.299998973
0.299991028
0.2999847933
0.2999800411
0.2999765008
0.2999739145
0.2999720602
0.2999707573
0.2999698638
0.2999692731
0.2999689256
0.3000355116
0.300020278
0.3000060006
0.2999940407
0.2999846585
0.2999776168
0.2999725132
0.2999689354
0.2999665205
0.299964972
0.2999640567
0.2999635953
0.2999634497
0.299963506
0.2999636404
0.300043128
0.3000319622
0.3000199727
0.3000087054
0.2999989734
0.2999910285
0.2999847938
0.2999800416
0.2999765014
0.2999739151
0.2999720609
0.299970758
0.2999698645
0.2999692738
0.2999689263
0.3000505558
0.3000445652
0.3000372335
0.3000293507
0.3000215828
0.30001437
0.3000079395
0.3000023612
0.299997607
0.2999935977
0.2999902346
0.2999874192
0.2999850682
0.2999831425
0.2999817642
0.3000546057
0.3000517685
0.3000479176
0.3000432687
0.3000381097
0.300032721
0.3000273324
0.3000221107
0.3000171638
0.3000125522
0.300008303
0.3000044232
0.3000009195
0.2999978517
0.2999955489
0.3000546683
0.3000524293
0.3000494779
0.3000458936
0.3000418078
0.3000373738
0.3000327431
0.3000280506
0.3000234076
0.3000189007
0.3000145969
0.3000105608
0.3000069188
0.3000041287
0.3000569015
0.3000559762
0.3000545539
0.3000525665
0.3000499996
0.3000468899
0.3000433138
0.300039372
0.3000351756
0.3000308341
0.3000264488
0.3000221112
0.3000179176
0.3000140387
0.3000110157
0.3000561972
0.3000546685
0.3000524294
0.300049478
0.3000458936
0.3000418077
0.3000373736
0.3000327428
0.3000280502
0.300023407
0.3000189
0.3000145961
0.3000105598
0.3000069178
0.3000041276
0.3000546381
0.3000518117
0.3000479248
0.3000431649
0.3000378112
0.3000321564
0.300026456
0.3000209072
0.3000156461
0.3000107553
0.3000062763
0.300002223
0.2999986022
0.2999954681
0.2999931376
0.3000523301
0.300047685
0.3000417296
0.3000349616
0.3000278826
0.3000208996
0.3000142966
0.3000082437
0.3000028219
0.299998049
0.2999939021
0.2999903365
0.2999873045
0.2999847953
0.299982992
0.3000506273
0.3000447862
0.3000377165
0.3000300754
0.300022403
0.3000150805
0.3000083431
0.3000023113
0.2999970235
0.2999924637
0.2999885831
0.2999853168
0.2999825994
0.2999803986
0.2999788444
0.3000523301
0.3000476851
0.3000417297
0.3000349617
0.3000278828
0.3000208999
0.3000142969
0.3000082441
0.3000028224
0.2999980494
0.2999939026
0.299990337
0.2999873051
0.2999847958
0.2999829926
0.3000546381
0.3000518117
0.3000479249
0.300043165
0.3000378115
0.3000321567
0.3000264564
0.3000209078
0.3000156467
0.300010756
0.3000062771
0.3000022238
0.2999986031
0.2999954691
0.2999931386
0.3000561972
0.3000546684
0.3000524294
0.3000494781
0.3000458937
0.3000418079
0.3000373739
0.3000327432
0.3000280507
0.3000234077
0.3000189008
0.300014597
0.3000105608
0.3000069189
0.3000041288
0.3000569015
0.3000559762
0.3000545538
0.3000525664
0.3000499996
0.30004689
0.3000433139
0.3000393723
0.300035176
0.3000308347
0.3000264495
0.300022112
0.3000179186
0.3000140398
0.3000110169
)
;

boundaryField
{
    top
    {
        type            calculated;
        value           nonuniform List<scalar> 
127
(
0.3000569015
0.3000559762
0.3000546684
0.3000518116
0.3000476848
0.3000447858
0.3000476847
0.3000518114
0.3000546683
0.3000559762
0.3000545538
0.3000524293
0.3000479247
0.3000417294
0.3000377161
0.3000417293
0.3000479246
0.3000524293
0.3000545538
0.3000525664
0.3000494779
0.3000431647
0.3000349613
0.3000300749
0.3000349612
0.3000431647
0.3000494779
0.3000525664
0.3000499995
0.3000458934
0.300037811
0.3000278822
0.3000224026
0.3000278823
0.3000378111
0.3000458936
0.3000499996
0.3000468898
0.3000418075
0.3000321562
0.3000208992
0.30001508
0.3000208994
0.3000321564
0.3000418078
0.30004689
0.3000433136
0.3000373734
0.3000264557
0.3000142962
0.3000083426
0.3000142965
0.3000264561
0.3000373738
0.3000433139
0.3000393718
0.3000327426
0.3000209069
0.3000082433
0.3000023108
0.3000082437
0.3000209074
0.3000327431
0.3000393723
0.3000351753
0.3000280499
0.3000156458
0.3000028215
0.2999970231
0.300002822
0.3000156464
0.3000280506
0.300035176
0.3000308339
0.3000234068
0.300010755
0.2999980486
0.2999924633
0.2999980491
0.3000107557
0.3000234076
0.3000308347
0.3000264485
0.3000188997
0.300006276
0.2999939017
0.2999885827
0.2999939022
0.3000062768
0.3000189007
0.3000264495
0.3000221109
0.3000145958
0.3000022226
0.2999903361
0.2999853164
0.2999903367
0.3000022236
0.3000145969
0.300022112
0.3000179173
0.3000105595
0.2999986019
0.2999873041
0.2999825991
0.2999873047
0.2999986029
0.3000105608
0.3000179186
0.3000140383
0.3000069175
0.2999954678
0.2999847949
0.2999803982
0.2999847956
0.2999954689
0.3000069188
0.3000140398
0.3000110154
0.3000041273
0.2999931372
0.2999829917
0.299978844
0.2999829923
0.2999931384
0.3000041287
0.3000110169
)
;
    }
    bottom
    {
        type            calculated;
        value           nonuniform List<scalar> 
134
(
0.3000561971
0.300054638
0.30005233
0.3000506272
0.3000523301
0.3000546381
0.3000561972
0.3000569015
0.3000559761
0.3000546683
0.3000518115
0.3000476849
0.300044786
0.300047685
0.3000518117
0.3000546685
0.3000559762
0.3000545537
0.3000524292
0.3000479246
0.3000417293
0.3000377161
0.3000417295
0.3000479248
0.3000524294
0.3000545539
0.3000525663
0.3000494778
0.3000431645
0.3000349611
0.3000300748
0.3000349613
0.3000431648
0.300049478
0.3000525665
0.3000499993
0.3000458932
0.3000378107
0.3000278818
0.3000224022
0.3000278821
0.3000378111
0.3000458936
0.3000499996
0.3000468896
0.3000418072
0.3000321557
0.3000208987
0.3000150794
0.300020899
0.3000321562
0.3000418076
0.3000468899
0.3000433133
0.300037373
0.3000264551
0.3000142954
0.3000083417
0.3000142958
0.3000264557
0.3000373735
0.3000433138
0.3000393714
0.3000327421
0.3000209062
0.3000082423
0.3000023097
0.3000082427
0.3000209068
0.3000327427
0.300039372
0.3000351749
0.3000280493
0.3000156449
0.3000028204
0.2999970217
0.3000028208
0.3000156456
0.3000280501
0.3000351756
0.3000308334
0.3000234061
0.300010754
0.2999980472
0.2999924618
0.2999980477
0.3000107548
0.3000234069
0.3000308341
0.3000264479
0.3000188989
0.3000062748
0.2999939002
0.2999885811
0.2999939007
0.3000062756
0.3000188998
0.3000264488
0.3000221102
0.3000145949
0.3000022213
0.2999903345
0.2999853146
0.299990335
0.3000022222
0.3000145959
0.3000221112
0.3000179165
0.3000105585
0.2999986005
0.2999873024
0.2999825972
0.2999873029
0.2999986014
0.3000105596
0.3000179176
0.3000140374
0.3000069163
0.2999954663
0.2999847931
0.2999803962
0.2999847936
0.2999954673
0.3000069175
0.3000140387
0.3000110143
0.300004126
0.2999931356
0.2999829897
0.2999788419
0.2999829903
0.2999931367
0.3000041273
0.3000110157
)
;
    }
    side-walls
    {
        type            calculated;
        value           nonuniform List<scalar> 
261
(
0.3000559761
0.3000546683
0.3000518115
0.3000476847
0.3000447858
0.3000476848
0.3000518116
0.3000546684
0.3000559762
0.3000545537
0.3000524292
0.3000479245
0.3000417292
0.3000377159
0.3000417293
0.3000479247
0.3000524293
0.3000545538
0.3000525663
0.3000494777
0.3000431644
0.3000349609
0.3000300745
0.300034961
0.3000431646
0.3000494779
0.3000525664
0.3000499993
0.3000458932
0.3000378106
0.3000278817
0.3000224019
0.3000278818
0.3000378109
0.3000458934
0.3000499995
0.3000468896
0.3000418072
0.3000321556
0.3000208985
0.3000150791
0.3000208987
0.3000321559
0.3000418075
0.3000468898
0.3000433133
0.300037373
0.3000264551
0.3000142952
0.3000083414
0.3000142955
0.3000264554
0.3000373733
0.3000433136
0.3000393714
0.300032742
0.3000209061
0.3000082422
0.3000023094
0.3000082424
0.3000209065
0.3000327425
0.3000393718
0.3000351749
0.3000280493
0.3000156448
0.3000028202
0.2999970215
0.3000028205
0.3000156453
0.3000280498
0.3000351753
0.3000308334
0.300023406
0.3000107539
0.2999980471
0.2999924615
0.2999980474
0.3000107545
0.3000234066
0.3000308339
0.3000264479
0.3000188989
0.3000062747
0.2999939
0.2999885808
0.2999939004
0.3000062753
0.3000188996
0.3000264485
0.3000221102
0.3000145949
0.3000022213
0.2999903343
0.2999853143
0.2999903347
0.3000022219
0.3000145956
0.3000221109
0.3000179165
0.3000105585
0.2999986004
0.2999873022
0.2999825969
0.2999873026
0.2999986011
0.3000105593
0.3000179173
0.3000140374
0.3000069163
0.2999954662
0.2999847929
0.299980396
0.2999847933
0.299995467
0.3000069172
0.3000140383
0.3000110143
0.300004126
0.2999931355
0.2999829896
0.2999788417
0.29998299
0.2999931364
0.300004127
0.3000110154
0.3000569015
0.3000561972
0.3000546381
0.3000523301
0.3000506273
0.3000523301
0.3000546381
0.3000561972
0.3000569015
0.3000559762
0.3000546685
0.3000518117
0.300047685
0.3000447862
0.3000476851
0.3000518117
0.3000546684
0.3000559762
0.3000545539
0.3000524294
0.3000479248
0.3000417296
0.3000377165
0.3000417297
0.3000479249
0.3000524294
0.3000545538
0.3000525665
0.300049478
0.3000431649
0.3000349616
0.3000300754
0.3000349617
0.300043165
0.3000494781
0.3000525664
0.3000499996
0.3000458936
0.3000378112
0.3000278826
0.300022403
0.3000278828
0.3000378115
0.3000458937
0.3000499996
0.3000468899
0.3000418077
0.3000321564
0.3000208996
0.3000150805
0.3000208999
0.3000321567
0.3000418079
0.30004689
0.3000433138
0.3000373736
0.300026456
0.3000142966
0.3000083431
0.3000142969
0.3000264564
0.3000373739
0.3000433139
0.300039372
0.3000327428
0.3000209072
0.3000082437
0.3000023113
0.3000082441
0.3000209078
0.3000327432
0.3000393723
0.3000351756
0.3000280502
0.3000156461
0.3000028219
0.2999970235
0.3000028224
0.3000156467
0.3000280507
0.300035176
0.3000308341
0.300023407
0.3000107553
0.299998049
0.2999924637
0.2999980494
0.300010756
0.3000234077
0.3000308347
0.3000264488
0.3000189
0.3000062763
0.2999939021
0.2999885831
0.2999939026
0.3000062771
0.3000189008
0.3000264495
0.3000221112
0.3000145961
0.300002223
0.2999903365
0.2999853168
0.299990337
0.3000022238
0.300014597
0.300022112
0.3000179176
0.3000105598
0.2999986022
0.2999873045
0.2999825994
0.2999873051
0.2999986031
0.3000105608
0.3000179186
0.3000140387
0.3000069178
0.2999954681
0.2999847953
0.2999803986
0.2999847958
0.2999954691
0.3000069189
0.3000140398
0.3000110157
0.3000041276
0.2999931376
0.299982992
0.2999788444
0.2999829926
0.2999931386
0.3000041288
0.3000110169
)
;
    }
    inlet
    {
        type            calculated;
        value           nonuniform 0();
    }
    outlet
    {
        type            calculated;
        value           nonuniform List<scalar> 
81
(
0.3000110143
0.300004126
0.2999931355
0.2999829896
0.2999788417
0.29998299
0.2999931364
0.300004127
0.3000110154
0.300004126
0.299995546
0.2999817611
0.2999689232
0.2999636378
0.2999689238
0.2999817621
0.2999955472
0.3000041273
0.2999931356
0.2999817612
0.299963333
0.2999459867
0.2999387818
0.2999459876
0.2999633343
0.2999817627
0.2999931372
0.2999829897
0.2999689233
0.2999459869
0.299924215
0.2999151009
0.2999242159
0.2999459885
0.2999689252
0.2999829917
0.2999788419
0.299963638
0.299938782
0.2999151011
0.2999051084
0.2999151021
0.2999387838
0.29996364
0.299978844
0.2999829903
0.2999689241
0.2999459879
0.2999242163
0.2999151024
0.2999242173
0.2999459896
0.299968926
0.2999829923
0.2999931367
0.2999817625
0.2999633347
0.2999459889
0.2999387841
0.2999459898
0.2999633361
0.2999817641
0.2999931384
0.3000041273
0.2999955476
0.299981763
0.2999689256
0.2999636404
0.2999689263
0.2999817642
0.2999955489
0.3000041287
0.3000110157
0.3000041276
0.2999931376
0.299982992
0.2999788444
0.2999829926
0.2999931386
0.3000041288
0.3000110169
)
;
    }
    procBoundary1to0
    {
        type            processor;
        value           nonuniform List<scalar> 
97
(
0.3000569015
0.3000569015
0.3000561972
0.3000546381
0.3000523302
0.3000506275
0.3000523303
0.3000546382
0.3000561973
0.3000569016
0.3000571124
0.3000546057
0.3000546057
0.3000546057
0.3000505558
0.3000431282
0.3000355124
0.3000431284
0.3000505561
0.3000546059
0.3000561973
0.3000563971
0.3000545828
0.3000382377
0.3000382377
0.3000382377
0.3000088188
0.2999630109
0.3000088203
0.3000382391
0.3000505561
0.3000546382
0.3000553638
0.3000514275
0.3000378688
0.2998930658
0.2998930658
0.2998930658
0.2995738054
0.2998930751
0.3000088202
0.3000431284
0.3000523303
0.300054638
0.3000485024
0.3000231066
0.2999243942
0.2969790586
0.2969790586
0.2969790586
0.2995738044
0.2995738044
0.2999630107
0.3000355123
0.3000506274
0.3000553638
0.3000514275
0.3000378687
0.299999117
0.2999243933
0.2999991176
0.3000088174
0.3000088174
0.3000088174
0.300043128
0.3000523301
0.3000563971
0.3000545828
0.3000493401
0.3000378687
0.3000231064
0.3000378688
0.3000493401
0.3000505555
0.3000505555
0.3000505555
0.300054638
0.3000571124
0.3000563863
0.3000545828
0.3000514275
0.3000485024
0.3000514275
0.3000545828
0.3000563863
0.3000561972
0.3000561972
0.3000561972
0.3000574398
0.3000571124
0.3000563971
0.3000553638
0.300054638
0.3000553638
0.3000563971
0.3000571124
0.3000574398
)
;
    }
}


// ************************************************************************* //
