/*--------------------------------*- C++ -*----------------------------------*\
| =========                 |                                                 |
| \\      /  F ield         | OpenFOAM: The Open Source CFD Toolbox           |
|  \\    /   O peration     | Version:  4.x                                   |
|   \\  /    A nd           | Web:      www.OpenFOAM.org                      |
|    \\/     M anipulation  |                                                 |
\*---------------------------------------------------------------------------*/
FoamFile
{
    version     2.0;
    format      ascii;
    class       volScalarField;
    location    "5000";
    object      X_CO2;
}
// * * * * * * * * * * * * * * * * * * * * * * * * * * * * * * * * * * * * * //

dimensions      [0 0 0 0 0 0 0];

internalField   nonuniform List<scalar> 
1174
(
0.04000927165
0.04001069388
0.04001268107
0.04001524767
0.040018357
0.04002193274
0.04002587402
0.04003006985
0.0400344106
0.04003879519
0.04004313201
0.04004732467
0.0400512028
0.04005422509
0.04001057929
0.04001281815
0.04001576931
0.0400193534
0.04002343891
0.0400278725
0.04003250269
0.04003719463
0.04004183704
0.04004634324
0.04005064626
0.04005468166
0.04005832282
0.04006111232
0.04001343586
0.04001732247
0.04002208211
0.04002743533
0.04003308966
0.04003878944
0.04004433754
0.0400495979
0.04005448785
0.040058966
0.04006301841
0.04006663823
0.0400697714
0.04007210129
0.04001756231
0.04002351743
0.04003028513
0.04003736365
0.040044346
0.04005094835
0.04005700046
0.04006242141
0.04006719349
0.04007133945
0.04007490406
0.04007793512
0.04008044343
0.04008224599
0.0400204611
0.04002753058
0.04003517129
0.04004284313
0.04005016505
0.0400569018
0.04006293282
0.04006821973
0.04007277859
0.04007665825
0.04007992366
0.04008264001
0.04008483994
0.04008639347
0.04001756226
0.04002351736
0.04003028504
0.04003736354
0.04004434589
0.04005094823
0.04005700032
0.04006242127
0.04006719334
0.0400713393
0.0400749039
0.04007793496
0.04008044327
0.04008224583
0.04001343577
0.04001732235
0.04002208195
0.04002743513
0.04003308944
0.0400387892
0.04004433728
0.04004959763
0.04005448756
0.0400589657
0.0400630181
0.04006663792
0.04006977108
0.04007210097
0.04001057921
0.04001281805
0.04001576917
0.04001935324
0.04002343871
0.04002787228
0.04003250244
0.04003719435
0.04004183673
0.04004634291
0.04005064591
0.0400546813
0.04005832245
0.04006111194
0.04000927159
0.04001069381
0.04001268098
0.04001524755
0.04001835685
0.04002193256
0.04002587381
0.0400300696
0.04003441033
0.04003879489
0.04004313168
0.04004732431
0.04005120242
0.04005422469
0.04000905065
0.04001057929
0.04001281815
0.0400157693
0.0400193534
0.0400234389
0.0400278725
0.04003250269
0.04003719462
0.04004183704
0.04004634323
0.04005064625
0.04005468166
0.04005832282
0.04006111232
0.04001347898
0.04001732973
0.04002197832
0.04002713694
0.04003252531
0.0400379134
0.04004313448
0.04004808079
0.04005269166
0.0400569401
0.04006081903
0.04006432192
0.04006738887
0.04006969106
0.04002068207
0.04002801358
0.04003589602
0.04004366349
0.04005087572
0.04005730556
0.04006288314
0.04006763656
0.04007164501
0.04007500722
0.04007782167
0.0400801717
0.04008209658
0.04008347417
0.04003328487
0.04004527412
0.04005654095
0.04006627239
0.04007421659
0.04008045041
0.04008520167
0.04008874099
0.04009132625
0.04009317948
0.04009448139
0.04009537389
0.04009596366
0.04009631056
0.04004496888
0.04005924614
0.0400712055
0.04008058692
0.04008762783
0.04009273038
0.04009630723
0.04009872108
0.04010026857
0.04010118281
0.04010164317
0.04010178774
0.04010173055
0.04010159553
0.04003328468
0.04004527388
0.04005654069
0.04006627213
0.04007421632
0.04008045014
0.04008520141
0.04008874075
0.04009132601
0.04009317925
0.04009448117
0.04009537368
0.04009596346
0.04009631036
0.04002068182
0.04002801328
0.04003589569
0.04004366314
0.04005087535
0.04005730517
0.04006288275
0.04006763617
0.04007164463
0.04007500684
0.0400778213
0.04008017133
0.04008209622
0.04008347381
0.04001347881
0.04001732954
0.0400219781
0.04002713669
0.04003252502
0.04003791308
0.04004313414
0.04004808042
0.04005269128
0.0400569397
0.04006081862
0.04006432149
0.04006738844
0.04006969062
0.04001057921
0.04001281805
0.04001576917
0.04001935323
0.0400234387
0.04002787226
0.04003250242
0.04003719431
0.0400418367
0.04004634286
0.04005064586
0.04005468124
0.04005832238
0.04006111187
0.04001060966
0.04001343586
0.04001732246
0.0400220821
0.04002743531
0.04003308965
0.04003878943
0.04004433753
0.04004959789
0.04005448783
0.04005896599
0.0400630184
0.04006663821
0.04006977138
0.04007210127
0.04001469176
0.04002068208
0.04002801357
0.04003589601
0.04004366348
0.04005087571
0.04005730555
0.04006288313
0.04006763655
0.040071645
0.04007500721
0.04007782166
0.04008017169
0.04008209657
0.04008347416
0.04004162362
0.0400567434
0.04007024546
0.04008115949
0.04008934366
0.04009509995
0.04009889679
0.04010121185
0.04010246029
0.04010297314
0.04010300089
0.0401027291
0.04010230518
0.04010190012
0.04008745283
0.04011243652
0.04012930545
0.04013896212
0.0401432177
0.0401438288
0.04014217974
0.04013925432
0.04013570768
0.04013195537
0.04012825139
0.04012475559
0.04012162204
0.0401192445
0.04014644509
0.0401707315
0.04018065261
0.04018183665
0.04017821961
0.04017223783
0.04016531159
0.04015823419
0.04015142801
0.04014510149
0.04013934484
0.04013419864
0.04012975053
0.04012644891
0.04008745178
0.04011243545
0.04012930448
0.04013896127
0.04014321697
0.04014382819
0.04014217922
0.04013925387
0.04013570729
0.04013195502
0.04012825108
0.04012475531
0.04012162178
0.04011924426
0.04004162275
0.04005674257
0.04007024465
0.0400811587
0.04008934291
0.04009509924
0.04009889614
0.04010121125
0.04010245973
0.04010297262
0.04010300041
0.04010272864
0.04010230475
0.0401018997
0.0400206818
0.04002801323
0.04003589562
0.04004366304
0.04005087523
0.04005730504
0.04006288261
0.04006763601
0.04007164447
0.04007500667
0.04007782113
0.04008017116
0.04008209605
0.04008347364
0.04001343577
0.04001732232
0.04002208191
0.04002743507
0.04003308935
0.04003878909
0.04004433714
0.04004959747
0.04005448738
0.04005896551
0.0400630179
0.0400666377
0.04006977086
0.04007210074
0.04001291745
0.04001756231
0.04002351741
0.04003028509
0.04003736361
0.04004434597
0.04005094832
0.04005700042
0.04006242137
0.04006719345
0.04007133941
0.04007490402
0.04007793508
0.04008044339
0.04008224595
0.0400221193
0.04003328495
0.04004527413
0.04005654096
0.0400662724
0.04007421659
0.0400804504
0.04008520165
0.04008874097
0.04009132622
0.04009317945
0.04009448136
0.04009537385
0.04009596362
0.04009631053
0.04005642872
0.04008745292
0.04011243649
0.0401293054
0.04013896206
0.04014321763
0.04014382873
0.04014217967
0.04013925425
0.04013570761
0.0401319553
0.04012825132
0.04012475552
0.04012162198
0.04011924445
0.04024234352
0.04027233599
0.04027600245
0.0402657697
0.04024958454
0.04023183199
0.04021467541
0.04019903938
0.04018520943
0.04017316726
0.04016277094
0.04015386417
0.04014641793
0.04014101425
0.04054130054
0.04049886389
0.04043667801
0.04037797476
0.04032855643
0.04028850621
0.04025635916
0.04023049378
0.04020952839
0.04019238193
0.04017824008
0.04016652389
0.04015696188
0.04015012776
0.04024233961
0.04027233323
0.04027600051
0.04026576835
0.04024958361
0.04023183136
0.04021467498
0.04019903906
0.04018520918
0.04017316706
0.04016277076
0.04015386401
0.04014641777
0.04014101409
0.04008745184
0.04011243534
0.04012930426
0.04013896098
0.04014321665
0.04014382785
0.04014217889
0.04013925354
0.04013570697
0.04013195472
0.04012825079
0.04012475503
0.04012162152
0.040119244
0.0400332846
0.0400452737
0.04005654043
0.0400662718
0.04007421596
0.04008044975
0.040085201
0.04008874033
0.0400913256
0.04009317884
0.04009448077
0.04009537328
0.04009596306
0.04009630997
0.04001756224
0.04002351728
0.0400302849
0.04003736336
0.04004434565
0.04005094794
0.040057
0.04006242091
0.04006719296
0.0400713389
0.04007490349
0.04007793454
0.04008044283
0.04008224539
0.04001462019
0.04002046108
0.04002753052
0.04003517122
0.04004284306
0.04005016497
0.04005690173
0.04006293275
0.04006821965
0.04007277852
0.04007665817
0.04007992359
0.04008263994
0.04008483987
0.0400863934
0.04002973532
0.04004496885
0.04005924599
0.04007120534
0.04008058676
0.04008762768
0.04009273025
0.0400963071
0.04009872097
0.04010026846
0.04010118271
0.04010164308
0.04010178765
0.04010173046
0.04010159544
0.04010223902
0.04014644524
0.04017073121
0.04018065231
0.0401818364
0.0401782194
0.04017223764
0.04016531142
0.04015823404
0.04015142788
0.04014510136
0.04013934473
0.04013419854
0.04012975043
0.04012644882
0.04049146772
0.04054129966
0.04049886313
0.04043667742
0.04037797431
0.04032855607
0.04028850591
0.04025635891
0.04023049357
0.0402095282
0.04019238177
0.04017823994
0.04016652376
0.04015696177
0.04015012766
0.04181543456
0.04115665641
0.04079493497
0.04058448682
0.04045469728
0.04037002652
0.04031187059
0.04027008352
0.04023889514
0.04021488369
0.04019594142
0.04018075424
0.04016864764
0.04016011983
0.04054130004
0.04049886114
0.0404366758
0.04037797317
0.04032855525
0.0402885053
0.04025635845
0.04023049319
0.04020952788
0.0401923815
0.04017823969
0.04016652354
0.04015696156
0.04015012745
0.04014644486
0.04017073049
0.04018065147
0.04018183555
0.04017821858
0.04017223689
0.04016531073
0.04015823341
0.04015142729
0.04014510082
0.04013934422
0.04013419806
0.04012974998
0.04012644838
0.04004496871
0.04005924573
0.04007120496
0.0400805863
0.04008762716
0.0400927297
0.04009630653
0.04009872039
0.04010026789
0.04010118215
0.04010164252
0.0401017871
0.04010172992
0.04010159491
0.04002046106
0.04002753046
0.04003517109
0.04004284285
0.0400501647
0.04005690139
0.04006293236
0.04006821922
0.04007277805
0.04007665768
0.04007992307
0.04008263941
0.04008483932
0.04008639285
0.04001291742
0.04001756224
0.0400235173
0.04003028496
0.04003736346
0.0400443458
0.04005094814
0.04005700023
0.04006242118
0.04006719325
0.04007133921
0.04007490381
0.04007793487
0.04008044318
0.04008224574
0.04002211909
0.0400332846
0.04004527371
0.04005654051
0.04006627194
0.04007421615
0.04008044998
0.04008520125
0.0400887406
0.04009132587
0.04009317912
0.04009448105
0.04009537356
0.04009596334
0.04009631025
0.04005642769
0.04008745181
0.0401124353
0.04012930431
0.04013896111
0.04014321681
0.04014382803
0.04014217906
0.04013925371
0.04013570713
0.04013195488
0.04012825094
0.04012475517
0.04012162165
0.04011924414
0.04017217738
0.04024233973
0.04027233293
0.04027600012
0.04026576793
0.04024958317
0.04023183092
0.04021467455
0.04019903867
0.04018520883
0.04017316674
0.04016277048
0.04015386375
0.04014641754
0.04014101389
0.04049146759
0.04054129884
0.04049886013
0.04043667495
0.04037797248
0.04032855468
0.04028850481
0.04025635803
0.04023049284
0.04020952758
0.04019238124
0.04017823947
0.04016652335
0.04015696139
0.0401501273
0.04017217771
0.04024233916
0.04027233219
0.04027599943
0.04026576732
0.04024958263
0.04023183044
0.04021467413
0.04019903829
0.04018520848
0.04017316642
0.04016277018
0.04015386348
0.04014641729
0.04014101365
0.04008745282
0.04011243566
0.04012930428
0.04013896086
0.04014321644
0.0401438276
0.0401421786
0.04013925324
0.04013570667
0.04013195442
0.0401282505
0.04012475475
0.04012162124
0.04011924374
0.04003328489
0.0400452739
0.04005654055
0.04006627186
0.04007421596
0.04008044971
0.04008520093
0.04008874023
0.04009132548
0.0400931787
0.04009448061
0.04009537311
0.04009596289
0.0400963098
0.04001756232
0.04002351736
0.04003028497
0.0400373634
0.04004434567
0.04005094794
0.04005699998
0.04006242087
0.04006719289
0.04007133882
0.0400749034
0.04007793443
0.04008044272
0.04008224527
0.0400106096
0.04001343576
0.04001732231
0.04002208191
0.04002743508
0.04003308938
0.04003878914
0.04004433721
0.04004959755
0.04005448748
0.04005896562
0.04006301802
0.04006663783
0.040069771
0.04007210089
0.04001469156
0.04002068179
0.0400280132
0.0400358956
0.04004366304
0.04005087525
0.04005730507
0.04006288265
0.04006763606
0.04007164452
0.04007500673
0.04007782119
0.04008017123
0.04008209611
0.04008347371
0.04002700842
0.0400416227
0.04005674245
0.04007024451
0.04008115856
0.04008934277
0.0400950991
0.040098896
0.04010121111
0.04010245959
0.04010297248
0.04010300028
0.04010272851
0.04010230462
0.04010189958
0.04005642775
0.04008745174
0.04011243512
0.04012930404
0.04013896077
0.04014321644
0.04014382765
0.04014217869
0.04013925335
0.04013570679
0.04013195455
0.04012825063
0.04012475487
0.04012162137
0.04011924386
0.040102239
0.04014644445
0.04017073004
0.04018065106
0.04018183518
0.04017821826
0.0401722366
0.04016531047
0.04015823317
0.04015142708
0.04014510063
0.04013934404
0.0401341979
0.04012974983
0.04012644825
0.04005642759
0.0400874515
0.04011243483
0.04012930375
0.0401389605
0.04014321618
0.0401438274
0.04014217846
0.04013925313
0.04013570658
0.04013195435
0.04012825043
0.04012475468
0.04012162118
0.04011924368
0.04002700872
0.04004162298
0.04005674263
0.04007024458
0.04008115852
0.04008934266
0.04009509893
0.04009889579
0.04010121086
0.04010245932
0.0401029722
0.04010299998
0.04010272821
0.04010230432
0.04010189927
0.04002068208
0.04002801342
0.04003589574
0.0400436631
0.04005087523
0.04005730499
0.04006288251
0.04006763588
0.04007164429
0.04007500647
0.0400778209
0.04008017092
0.04008209578
0.04008347336
0.04001343587
0.04001732243
0.040022082
0.04002743514
0.0400330894
0.0400387891
0.04004433712
0.04004959742
0.0400544873
0.0400589654
0.04006301776
0.04006663754
0.04006977067
0.04007210054
0.0400090506
0.0400105792
0.04001281802
0.04001576914
0.0400193532
0.04002343866
0.04002787222
0.04003250237
0.04003719427
0.04004183665
0.04004634282
0.04005064582
0.04005468121
0.04005832235
0.04006111184
0.04001064183
0.04001347878
0.04001732949
0.04002197804
0.04002713662
0.04003252494
0.040037913
0.04004313405
0.04004808033
0.04005269118
0.0400569396
0.04006081852
0.04006432139
0.04006738834
0.04006969052
0.04001469157
0.04002068179
0.0400280132
0.04003589557
0.04004366299
0.04005087518
0.04005730499
0.04006288255
0.04006763595
0.0400716444
0.0400750066
0.04007782105
0.04008017108
0.04008209596
0.04008347356
0.04002211911
0.04003328458
0.04004527362
0.04005654035
0.04006627172
0.04007421587
0.04008044966
0.04008520091
0.04008874023
0.0400913255
0.04009317874
0.04009448066
0.04009537317
0.04009596296
0.04009630987
0.04002973526
0.04004496859
0.04005924557
0.0400712048
0.04008058614
0.04008762702
0.04009272956
0.0400963064
0.04009872027
0.04010026777
0.04010118203
0.04010164241
0.04010178699
0.04010172982
0.04010159481
0.04002211909
0.04003328454
0.04004527357
0.04005654029
0.04006627165
0.04007421578
0.04008044956
0.0400852008
0.04008874012
0.04009132537
0.0400931786
0.04009448052
0.04009537303
0.04009596281
0.04009630972
0.04001469159
0.04002068182
0.0400280132
0.04003589555
0.04004366293
0.04005087508
0.04005730486
0.0400628824
0.04006763578
0.0400716442
0.04007500639
0.04007782083
0.04008017085
0.04008209572
0.04008347331
0.0400106419
0.04001347886
0.04001732956
0.04002197809
0.04002713664
0.04003252493
0.04003791294
0.04004313396
0.04004808021
0.04005269103
0.04005693942
0.04006081831
0.04006432116
0.04006738808
0.04006969025
0.04001057928
0.0400128181
0.0400157692
0.04001935324
0.04002343868
0.04002787221
0.04003250234
0.0400371942
0.04004183655
0.04004634268
0.04005064564
0.040054681
0.04005832211
0.04006111158
0.04000834636
0.04000927158
0.04001069379
0.04001268095
0.04001524751
0.0400183568
0.0400219325
0.04002587374
0.04003006953
0.04003441024
0.0400387948
0.04004313158
0.04004732421
0.04005120232
0.04005422458
0.04000905061
0.04001057921
0.04001281803
0.04001576915
0.0400193532
0.04002343866
0.04002787222
0.04003250237
0.04003719426
0.04004183663
0.0400463428
0.04005064579
0.04005468117
0.0400583223
0.04006111179
0.04001060961
0.04001343577
0.04001732231
0.0400220819
0.04002743505
0.04003308933
0.04003878907
0.04004433711
0.04004959744
0.04005448735
0.04005896547
0.04006301786
0.04006663765
0.0400697708
0.04007210068
0.04001291742
0.04001756221
0.04002351723
0.04003028485
0.04003736329
0.04004434558
0.04005094787
0.04005699992
0.04006242084
0.04006719288
0.04007133882
0.04007490341
0.04007793445
0.04008044275
0.04008224531
0.04001462016
0.04002046099
0.04002753035
0.04003517097
0.04004284272
0.04005016457
0.04005690126
0.04006293223
0.0400682191
0.04007277793
0.04007665756
0.04007992296
0.0400826393
0.04008483922
0.04008639275
0.0400129174
0.04001756218
0.0400235172
0.0400302848
0.04003736323
0.04004434551
0.04005094779
0.04005699983
0.04006242073
0.04006719277
0.0400713387
0.04007490328
0.04007793433
0.04008044262
0.04008224517
0.0400106096
0.04001343574
0.04001732227
0.04002208183
0.04002743497
0.04003308922
0.04003878893
0.04004433695
0.04004959726
0.04005448715
0.04005896526
0.04006301763
0.04006663742
0.04006977056
0.04007210044
0.04000905062
0.04001057922
0.04001281804
0.04001576915
0.04001935319
0.04002343863
0.04002787216
0.04003250229
0.04003719415
0.0400418365
0.04004634264
0.04005064561
0.04005468096
0.04005832208
0.04006111155
0.04000834638
0.04000927161
0.04001069383
0.04001268099
0.04001524755
0.04001835683
0.04002193251
0.04002587373
0.04003006949
0.04003441018
0.04003879471
0.04004313146
0.04004732406
0.04005120214
0.04005422439
)
;

boundaryField
{
    top
    {
        type            calculated;
        value           nonuniform List<scalar> 
127
(
0.04000834638
0.04000927159
0.04001057921
0.04001343577
0.04001756224
0.04002046106
0.04001756232
0.04001343587
0.04001057928
0.04000927161
0.04001069381
0.04001281805
0.04001732232
0.04002351728
0.04002753046
0.04002351736
0.04001732243
0.0400128181
0.04001069383
0.04001268098
0.04001576917
0.04002208191
0.0400302849
0.04003517109
0.04003028497
0.040022082
0.0400157692
0.04001268099
0.04001524755
0.04001935323
0.04002743507
0.04003736336
0.04004284285
0.0400373634
0.04002743514
0.04001935324
0.04001524755
0.04001835685
0.0400234387
0.04003308935
0.04004434565
0.0400501647
0.04004434567
0.0400330894
0.04002343868
0.04001835683
0.04002193256
0.04002787226
0.04003878909
0.04005094794
0.04005690139
0.04005094794
0.0400387891
0.04002787221
0.04002193251
0.04002587381
0.04003250242
0.04004433714
0.040057
0.04006293236
0.04005699998
0.04004433712
0.04003250234
0.04002587373
0.0400300696
0.04003719431
0.04004959747
0.04006242091
0.04006821922
0.04006242087
0.04004959742
0.0400371942
0.04003006949
0.04003441033
0.0400418367
0.04005448738
0.04006719296
0.04007277805
0.04006719289
0.0400544873
0.04004183655
0.04003441018
0.04003879489
0.04004634286
0.04005896551
0.0400713389
0.04007665768
0.04007133882
0.0400589654
0.04004634268
0.04003879471
0.04004313168
0.04005064586
0.0400630179
0.04007490349
0.04007992307
0.0400749034
0.04006301776
0.04005064564
0.04004313146
0.04004732431
0.04005468124
0.0400666377
0.04007793454
0.04008263941
0.04007793443
0.04006663754
0.040054681
0.04004732406
0.04005120242
0.04005832238
0.04006977086
0.04008044283
0.04008483932
0.04008044272
0.04006977067
0.04005832211
0.04005120214
0.04005422469
0.04006111187
0.04007210074
0.04008224539
0.04008639285
0.04008224527
0.04007210054
0.04006111158
0.04005422439
)
;
    }
    bottom
    {
        type            calculated;
        value           nonuniform List<scalar> 
134
(
0.04000905065
0.04001060966
0.04001291745
0.04001462019
0.04001291742
0.0400106096
0.0400090506
0.04000834636
0.04000927165
0.04001057929
0.04001343586
0.04001756231
0.04002046108
0.04001756224
0.04001343576
0.0400105792
0.04000927158
0.04001069388
0.04001281815
0.04001732246
0.04002351741
0.04002753052
0.0400235173
0.04001732231
0.04001281802
0.04001069379
0.04001268107
0.0400157693
0.0400220821
0.04003028509
0.04003517122
0.04003028496
0.04002208191
0.04001576914
0.04001268095
0.04001524767
0.0400193534
0.04002743531
0.04003736361
0.04004284306
0.04003736346
0.04002743508
0.0400193532
0.04001524751
0.040018357
0.0400234389
0.04003308965
0.04004434597
0.04005016497
0.0400443458
0.04003308938
0.04002343866
0.0400183568
0.04002193274
0.0400278725
0.04003878943
0.04005094832
0.04005690173
0.04005094814
0.04003878914
0.04002787222
0.0400219325
0.04002587402
0.04003250269
0.04004433753
0.04005700042
0.04006293275
0.04005700023
0.04004433721
0.04003250237
0.04002587374
0.04003006985
0.04003719462
0.04004959789
0.04006242137
0.04006821965
0.04006242118
0.04004959755
0.04003719427
0.04003006953
0.0400344106
0.04004183704
0.04005448783
0.04006719345
0.04007277852
0.04006719325
0.04005448748
0.04004183665
0.04003441024
0.04003879519
0.04004634323
0.04005896599
0.04007133941
0.04007665817
0.04007133921
0.04005896562
0.04004634282
0.0400387948
0.04004313201
0.04005064625
0.0400630184
0.04007490402
0.04007992359
0.04007490381
0.04006301802
0.04005064582
0.04004313158
0.04004732467
0.04005468166
0.04006663821
0.04007793508
0.04008263994
0.04007793487
0.04006663783
0.04005468121
0.04004732421
0.0400512028
0.04005832282
0.04006977138
0.04008044339
0.04008483987
0.04008044318
0.040069771
0.04005832235
0.04005120232
0.04005422509
0.04006111232
0.04007210127
0.04008224595
0.0400863934
0.04008224574
0.04007210089
0.04006111184
0.04005422458
)
;
    }
    side-walls
    {
        type            calculated;
        value           nonuniform List<scalar> 
261
(
0.04000927165
0.04001057929
0.04001343586
0.04001756231
0.0400204611
0.04001756226
0.04001343577
0.04001057921
0.04000927159
0.04001069388
0.04001281815
0.04001732247
0.04002351743
0.04002753058
0.04002351736
0.04001732235
0.04001281805
0.04001069381
0.04001268107
0.04001576931
0.04002208211
0.04003028513
0.04003517129
0.04003028504
0.04002208195
0.04001576917
0.04001268098
0.04001524767
0.0400193534
0.04002743533
0.04003736365
0.04004284313
0.04003736354
0.04002743513
0.04001935324
0.04001524755
0.040018357
0.04002343891
0.04003308966
0.040044346
0.04005016505
0.04004434589
0.04003308944
0.04002343871
0.04001835685
0.04002193274
0.0400278725
0.04003878944
0.04005094835
0.0400569018
0.04005094823
0.0400387892
0.04002787228
0.04002193256
0.04002587402
0.04003250269
0.04004433754
0.04005700046
0.04006293282
0.04005700032
0.04004433728
0.04003250244
0.04002587381
0.04003006985
0.04003719463
0.0400495979
0.04006242141
0.04006821973
0.04006242127
0.04004959763
0.04003719435
0.0400300696
0.0400344106
0.04004183704
0.04005448785
0.04006719349
0.04007277859
0.04006719334
0.04005448756
0.04004183673
0.04003441033
0.04003879519
0.04004634324
0.040058966
0.04007133945
0.04007665825
0.0400713393
0.0400589657
0.04004634291
0.04003879489
0.04004313201
0.04005064626
0.04006301841
0.04007490406
0.04007992366
0.0400749039
0.0400630181
0.04005064591
0.04004313168
0.04004732467
0.04005468166
0.04006663823
0.04007793512
0.04008264001
0.04007793496
0.04006663792
0.0400546813
0.04004732431
0.0400512028
0.04005832282
0.0400697714
0.04008044343
0.04008483994
0.04008044327
0.04006977108
0.04005832245
0.04005120242
0.04005422509
0.04006111232
0.04007210129
0.04008224599
0.04008639347
0.04008224583
0.04007210097
0.04006111194
0.04005422469
0.04000834636
0.04000905061
0.04001060961
0.04001291742
0.04001462016
0.0400129174
0.0400106096
0.04000905062
0.04000834638
0.04000927158
0.04001057921
0.04001343577
0.04001756221
0.04002046099
0.04001756218
0.04001343574
0.04001057922
0.04000927161
0.04001069379
0.04001281803
0.04001732231
0.04002351723
0.04002753035
0.0400235172
0.04001732227
0.04001281804
0.04001069383
0.04001268095
0.04001576915
0.0400220819
0.04003028485
0.04003517097
0.0400302848
0.04002208183
0.04001576915
0.04001268099
0.04001524751
0.0400193532
0.04002743505
0.04003736329
0.04004284272
0.04003736323
0.04002743497
0.04001935319
0.04001524755
0.0400183568
0.04002343866
0.04003308933
0.04004434558
0.04005016457
0.04004434551
0.04003308922
0.04002343863
0.04001835683
0.0400219325
0.04002787222
0.04003878907
0.04005094787
0.04005690126
0.04005094779
0.04003878893
0.04002787216
0.04002193251
0.04002587374
0.04003250237
0.04004433711
0.04005699992
0.04006293223
0.04005699983
0.04004433695
0.04003250229
0.04002587373
0.04003006953
0.04003719426
0.04004959744
0.04006242084
0.0400682191
0.04006242073
0.04004959726
0.04003719415
0.04003006949
0.04003441024
0.04004183663
0.04005448735
0.04006719288
0.04007277793
0.04006719277
0.04005448715
0.0400418365
0.04003441018
0.0400387948
0.0400463428
0.04005896547
0.04007133882
0.04007665756
0.0400713387
0.04005896526
0.04004634264
0.04003879471
0.04004313158
0.04005064579
0.04006301786
0.04007490341
0.04007992296
0.04007490328
0.04006301763
0.04005064561
0.04004313146
0.04004732421
0.04005468117
0.04006663765
0.04007793445
0.0400826393
0.04007793433
0.04006663742
0.04005468096
0.04004732406
0.04005120232
0.0400583223
0.0400697708
0.04008044275
0.04008483922
0.04008044262
0.04006977056
0.04005832208
0.04005120214
0.04005422458
0.04006111179
0.04007210068
0.04008224531
0.04008639275
0.04008224517
0.04007210044
0.04006111155
0.04005422439
)
;
    }
    inlet
    {
        type            calculated;
        value           nonuniform 0();
    }
    outlet
    {
        type            calculated;
        value           nonuniform List<scalar> 
81
(
0.04005422509
0.04006111232
0.04007210129
0.04008224599
0.04008639347
0.04008224583
0.04007210097
0.04006111194
0.04005422469
0.04006111232
0.04006969106
0.04008347417
0.04009631056
0.04010159553
0.04009631036
0.04008347381
0.04006969062
0.04006111187
0.04007210127
0.04008347416
0.04010190012
0.0401192445
0.04012644891
0.04011924426
0.0401018997
0.04008347364
0.04007210074
0.04008224595
0.04009631053
0.04011924445
0.04014101425
0.04015012776
0.04014101409
0.040119244
0.04009630997
0.04008224539
0.0400863934
0.04010159544
0.04012644882
0.04015012766
0.04016011983
0.04015012745
0.04012644838
0.04010159491
0.04008639285
0.04008224574
0.04009631025
0.04011924414
0.04014101389
0.0401501273
0.04014101365
0.04011924374
0.0400963098
0.04008224527
0.04007210089
0.04008347371
0.04010189958
0.04011924386
0.04012644825
0.04011924368
0.04010189927
0.04008347336
0.04007210054
0.04006111184
0.04006969052
0.04008347356
0.04009630987
0.04010159481
0.04009630972
0.04008347331
0.04006969025
0.04006111158
0.04005422458
0.04006111179
0.04007210068
0.04008224531
0.04008639275
0.04008224517
0.04007210044
0.04006111155
0.04005422439
)
;
    }
    procBoundary1to0
    {
        type            processor;
        value           nonuniform List<scalar> 
97
(
0.04000834639
0.04000834639
0.04000905062
0.0400106096
0.04001291737
0.04001462009
0.04001291734
0.04001060955
0.04000905058
0.04000834635
0.0400081356
0.04001064192
0.04001064192
0.04001064192
0.04001469162
0.04002211903
0.04002973505
0.04002211889
0.04001469145
0.04001064178
0.04000905058
0.04000885083
0.040010665
0.04002700886
0.04002700886
0.04002700886
0.04005642782
0.04010223816
0.04005642689
0.0400270081
0.04001469144
0.04001060955
0.04000988398
0.04001382011
0.04002737846
0.04017218058
0.04017218058
0.04017218058
0.04049146556
0.04017217538
0.040056427
0.04002211886
0.04001291733
0.04001060976
0.04001674508
0.04004214042
0.04014085504
0.04308641992
0.04308641992
0.04308641992
0.04049146567
0.04049146567
0.04010223821
0.040029735
0.04001462009
0.04000988397
0.04001382005
0.04002737827
0.04006612963
0.04014085511
0.04006612955
0.04005642831
0.04005642831
0.04005642831
0.04002211912
0.0400129174
0.04000885082
0.04001066496
0.04001590734
0.04002737833
0.0400421405
0.04002737826
0.04001590739
0.04001469171
0.04001469171
0.04001469171
0.04001060963
0.04000813559
0.04000886158
0.04001066496
0.04001382007
0.04001674508
0.04001382006
0.04001066496
0.04000886159
0.04000905064
0.04000905064
0.04000905064
0.04000780818
0.04000813559
0.04000885082
0.04000988398
0.04001060976
0.04000988397
0.04000885081
0.0400081356
0.04000780819
)
;
    }
}


// ************************************************************************* //
