/*--------------------------------*- C++ -*----------------------------------*\
| =========                 |                                                 |
| \\      /  F ield         | OpenFOAM: The Open Source CFD Toolbox           |
|  \\    /   O peration     | Version:  4.x                                   |
|   \\  /    A nd           | Web:      www.OpenFOAM.org                      |
|    \\/     M anipulation  |                                                 |
\*---------------------------------------------------------------------------*/
FoamFile
{
    version     2.0;
    format      ascii;
    class       volScalarField;
    location    "5000";
    object      X_H2;
}
// * * * * * * * * * * * * * * * * * * * * * * * * * * * * * * * * * * * * * //

dimensions      [0 0 0 0 0 0 0];

internalField   nonuniform List<scalar> 
1174
(
0.05987482383
0.0598734649
0.05987156635
0.05986911455
0.05986614475
0.05986273006
0.05985896702
0.05985496179
0.0598508192
0.05984663585
0.05984249925
0.0598385013
0.05983480433
0.05983192385
0.0598735737
0.05987143414
0.05986861422
0.05986519005
0.05986128755
0.05985705343
0.05985263258
0.05984815394
0.05984372382
0.05983942505
0.05983532149
0.05983147454
0.05982800463
0.05982534707
0.05987084246
0.05986712765
0.05986257909
0.05985746423
0.05985206284
0.05984661941
0.0598413224
0.05983630175
0.05983163641
0.05982736577
0.05982350298
0.05982005433
0.05981707087
0.05981485325
0.05986689651
0.05986120403
0.05985473598
0.05984797236
0.05984130238
0.05983499737
0.05982921992
0.05982404718
0.0598194959
0.05981554407
0.0598121487
0.0598092638
0.05980687841
0.05980516538
0.05986412409
0.05985736612
0.05985006361
0.05984273318
0.05983573916
0.05982930632
0.05982354971
0.05981850579
0.05981415894
0.05981046224
0.05980735335
0.05980476968
0.05980267938
0.05980120461
0.05986689655
0.05986120409
0.05985473606
0.05984797246
0.0598413025
0.0598349975
0.05982922006
0.05982404734
0.05981949607
0.05981554425
0.05981214889
0.059809264
0.05980687861
0.05980516559
0.05987084254
0.05986712777
0.05986257924
0.05985746441
0.05985206305
0.05984661965
0.05984132267
0.05983630205
0.05983163673
0.05982736611
0.05982350334
0.0598200547
0.05981707125
0.05981485364
0.05987357377
0.05987143423
0.05986861434
0.0598651902
0.05986128774
0.05985705365
0.05985263284
0.05984815423
0.05984372415
0.05983942541
0.05983532189
0.05983147496
0.05982800508
0.05982534755
0.05987482389
0.05987346496
0.05987156643
0.05986911466
0.05986614489
0.05986273023
0.05985896723
0.05985496204
0.0598508195
0.05984663619
0.05984249962
0.05983850172
0.05983480478
0.05983192435
0.05987503468
0.05987357371
0.05987143414
0.05986861423
0.05986519006
0.05986128756
0.05985705344
0.05985263258
0.05984815394
0.05984372383
0.05983942505
0.0598353215
0.05983147454
0.05982800464
0.05982534708
0.05987080108
0.05986712048
0.05986267799
0.05985774905
0.05985260177
0.05984745614
0.0598424715
0.05983775082
0.05983335196
0.05982930061
0.05982560334
0.05982226617
0.05981934574
0.05981715441
0.0598639128
0.05985690416
0.05984937034
0.05984194827
0.05983505891
0.05982891925
0.05982359587
0.05981906163
0.05981524058
0.05981203813
0.05980935989
0.05980712596
0.05980529817
0.05980399127
0.059851859
0.05984039666
0.05982962779
0.05982032969
0.05981274276
0.059806793
0.05980226207
0.05979889081
0.05979643234
0.05979467413
0.05979344322
0.05979260369
0.05979205299
0.05979173188
0.05984068214
0.05982703219
0.05981560228
0.05980664044
0.05979991886
0.05979505229
0.0597916456
0.05978935152
0.05978788615
0.05978702639
0.05978660059
0.05978647651
0.05978654459
0.05978668438
0.05985185918
0.05984039689
0.05982962804
0.05982032995
0.05981274303
0.05980679328
0.05980226235
0.05979889109
0.05979643262
0.05979467441
0.05979344349
0.05979260396
0.05979205326
0.05979173215
0.05986391303
0.05985690444
0.05984937065
0.05984194861
0.05983505928
0.05982891965
0.05982359628
0.05981906206
0.05981524103
0.05981203858
0.05980936035
0.05980712641
0.05980529863
0.05980399174
0.05987080124
0.05986712066
0.05986267819
0.05985774929
0.05985260206
0.05984745646
0.05984247186
0.05983775122
0.0598333524
0.05982930107
0.05982560384
0.05982226669
0.05981934629
0.05981715497
0.05987357377
0.05987143423
0.05986861435
0.05986519021
0.05986128775
0.05985705368
0.05985263287
0.05984815428
0.05984372421
0.05983942548
0.05983532197
0.05983147506
0.05982800519
0.05982534767
0.05987354405
0.05987084247
0.05986712768
0.05986257912
0.05985746426
0.05985206286
0.05984661944
0.05984132242
0.05983630178
0.05983163644
0.05982736579
0.05982350301
0.05982005436
0.0598170709
0.05981485327
0.05986964017
0.05986391282
0.05985690419
0.05984937036
0.05984194829
0.05983505892
0.05982891928
0.05982359589
0.05981906165
0.0598152406
0.05981203815
0.05980935991
0.05980712597
0.05980529819
0.05980399129
0.05984388345
0.0598294276
0.05981652197
0.05980609415
0.05979827906
0.05979278723
0.05978917009
0.05978697042
0.0597857909
0.0597853148
0.05978530246
0.05978557628
0.05978599478
0.05978639258
0.05980004383
0.05977615635
0.05976003534
0.05975081561
0.05974676315
0.05974619665
0.05974779143
0.05975060625
0.05975401437
0.05975761841
0.05976117547
0.0597645327
0.0597675424
0.05976982629
0.0597436038
0.0597203881
0.05971091851
0.05970980783
0.05971328917
0.05971903121
0.05972567514
0.05973246216
0.05973898843
0.05974505478
0.05975057511
0.05975551068
0.05975977744
0.05976294493
0.05980004482
0.05977615735
0.05976003627
0.05975081646
0.05974676389
0.05974619731
0.05974779202
0.05975060677
0.05975401485
0.05975761884
0.05976117588
0.05976453308
0.05976754276
0.05976982664
0.05984388426
0.05982942837
0.05981652274
0.05980609493
0.05979827983
0.05979278798
0.05978917082
0.05978697112
0.05978579158
0.05978531545
0.05978530308
0.05978557688
0.05978599537
0.05978639316
0.05986391305
0.05985690449
0.05984937073
0.05984194872
0.05983505941
0.05982891981
0.05982359646
0.05981906226
0.05981524124
0.0598120388
0.05980936058
0.05980712665
0.05980529887
0.05980399198
0.05987084254
0.05986712779
0.05986257928
0.05985746448
0.05985206316
0.0598466198
0.05984132284
0.05983630226
0.05983163697
0.05982736637
0.05982350363
0.05982005502
0.05981707159
0.059814854
0.05987133715
0.05986689654
0.05986120408
0.05985473604
0.05984797242
0.05984130244
0.05983499743
0.05982921997
0.05982404724
0.05981949595
0.05981554412
0.05981214876
0.05980926386
0.05980687847
0.05980516544
0.05986253595
0.05985185899
0.05984039669
0.05982962781
0.05982032971
0.05981274279
0.05980679303
0.05980226211
0.05979889085
0.05979643238
0.05979467418
0.05979344327
0.05979260374
0.05979205304
0.05979173193
0.05982971523
0.05980004386
0.05977615643
0.05976003543
0.0597508157
0.05974676323
0.05974619674
0.05974779152
0.05975060633
0.05975401445
0.05975761848
0.05976117555
0.05976453277
0.05976754246
0.05976982635
0.05965185836
0.05962319171
0.05961971394
0.05962953193
0.05964504127
0.0596620466
0.05967847865
0.05969345348
0.05970669851
0.05971823175
0.05972818935
0.05973672107
0.05974385459
0.05974903188
0.05936580194
0.05940645734
0.0594659996
0.05952219966
0.05956950794
0.05960784712
0.05963862059
0.0596633811
0.05968345153
0.05969986683
0.05971340656
0.05972462488
0.05973378148
0.05974032645
0.05965186201
0.05962319432
0.05961971585
0.05962953333
0.0596450423
0.05966204737
0.05967847925
0.05969345398
0.05970669894
0.05971823212
0.05972818969
0.05973672139
0.0597438549
0.05974903218
0.05980004475
0.05977615747
0.05976003653
0.05975081681
0.05974676431
0.05974619775
0.05974779247
0.05975060723
0.0597540153
0.05975761928
0.0597611763
0.05976453349
0.05976754315
0.05976982702
0.05985185924
0.05984039706
0.05982962831
0.05982033031
0.05981274347
0.05980679376
0.05980226287
0.05979889163
0.05979643318
0.05979467498
0.05979344407
0.05979260454
0.05979205383
0.05979173273
0.05986689657
0.05986120417
0.0598547362
0.05984797267
0.05984130278
0.05983499785
0.05982922048
0.05982404782
0.05981949659
0.05981554481
0.05981214948
0.05980926462
0.05980687926
0.05980516626
0.05986970858
0.05986412414
0.05985736621
0.0598500637
0.05984273327
0.05983573925
0.05982930641
0.05982354981
0.05981850589
0.05981415904
0.05981046234
0.05980735345
0.05980476977
0.05980267947
0.0598012047
0.05985525014
0.05984068224
0.05982703237
0.05981560247
0.05980664063
0.05979991904
0.05979505245
0.05979164575
0.05978935166
0.05978788629
0.05978702651
0.0597866007
0.05978647662
0.0597865447
0.05978668448
0.05978588424
0.05974360386
0.05972038847
0.05971091886
0.05970980812
0.05971328942
0.05971903143
0.05972567533
0.05973246233
0.05973898859
0.05974505493
0.05975057524
0.0597555108
0.05975977755
0.05976294503
0.05941343688
0.05936580313
0.05940645826
0.05946600028
0.05952220016
0.05956950834
0.05960784744
0.05963862086
0.05966338133
0.05968345173
0.059699867
0.05971340671
0.05972462502
0.0597337816
0.05974032656
0.05814653722
0.05877704592
0.05912323368
0.05932463933
0.05944885014
0.05952988106
0.05958553727
0.05962552886
0.059655378
0.05967835938
0.05969649006
0.05971102759
0.05972261728
0.0597307816
0.05936580234
0.05940645991
0.05946600191
0.05952220149
0.05956950942
0.05960784832
0.05963862159
0.05966338196
0.05968345228
0.05969986749
0.05971340716
0.05972462543
0.05973378199
0.05974032693
0.05974360395
0.05972038907
0.05971091974
0.05970980913
0.05971329046
0.05971903244
0.0597256763
0.05973246326
0.05973898946
0.05974505576
0.05975057603
0.05975551156
0.05975977827
0.05976294574
0.05984068228
0.05982703258
0.05981560285
0.05980664115
0.05979991967
0.05979505316
0.05979164651
0.05978935245
0.0597878871
0.05978702733
0.05978660153
0.05978647744
0.05978654552
0.0597866853
0.05986412411
0.05985736624
0.05985006382
0.0598427335
0.05983573958
0.05982930684
0.05982355033
0.05981850649
0.0598141597
0.05981046306
0.05980735421
0.05980477057
0.0598026803
0.05980120557
0.05987133718
0.0598668966
0.05986120417
0.05985473616
0.05984797256
0.05984130261
0.05983499761
0.05982922018
0.05982404746
0.05981949618
0.05981554436
0.05981214901
0.05980926411
0.05980687873
0.05980516571
0.05986253615
0.05985185931
0.05984039708
0.05982962824
0.05982033016
0.05981274324
0.05980679347
0.05980226254
0.05979889126
0.05979643279
0.05979467457
0.05979344365
0.05979260411
0.0597920534
0.05979173228
0.05982971624
0.05980004492
0.05977615758
0.05976003649
0.05975081667
0.05974676411
0.05974619751
0.05974779222
0.05975060697
0.05975401504
0.05975761902
0.05976117604
0.05976453324
0.0597675429
0.05976982678
0.05971897061
0.05965186222
0.05962319477
0.05961971634
0.05962953383
0.0596450428
0.05966204785
0.0596784797
0.05969345439
0.05970669931
0.05971823246
0.05972818999
0.05973672166
0.05974385514
0.05974903241
0.05941343705
0.0593658039
0.0594064611
0.05946600285
0.05952220224
0.05956951003
0.05960784883
0.05963862202
0.05966338232
0.05968345259
0.05969986776
0.05971340739
0.05972462563
0.05973378217
0.05974032709
0.05971897019
0.05965186264
0.05962319551
0.05961971716
0.05962953465
0.05964504359
0.05966204859
0.05967848038
0.05969345502
0.05970669989
0.05971823299
0.05972819048
0.05973672212
0.05974385557
0.05974903282
0.05980004383
0.05977615724
0.05976003664
0.0597508171
0.0597467647
0.05974619821
0.05974779296
0.05975060772
0.0597540158
0.05975761976
0.05976117677
0.05976453394
0.05976754359
0.05976982746
0.05985185896
0.05984039688
0.05982962824
0.05982033033
0.05981274356
0.05980679391
0.05980226307
0.05979889186
0.05979643343
0.05979467525
0.05979344436
0.05979260484
0.05979205414
0.05979173304
0.05986689649
0.0598612041
0.05985473615
0.05984797266
0.05984130281
0.05983499791
0.05982922057
0.05982404794
0.05981949674
0.05981554498
0.05981214968
0.05980926483
0.05980687949
0.0598051665
0.0598735441
0.05987084257
0.05986712782
0.0598625793
0.05985746448
0.05985206313
0.05984661974
0.05984132276
0.05983630215
0.05983163683
0.05982736621
0.05982350344
0.05982005481
0.05981707136
0.05981485375
0.05986964036
0.05986391309
0.05985690454
0.05984937077
0.05984194874
0.0598350594
0.05982891978
0.05982359642
0.0598190622
0.05981524116
0.05981203871
0.05980936048
0.05980712655
0.05980529876
0.05980399187
0.05985785961
0.05984388437
0.05982942854
0.05981652293
0.05980609511
0.05979828002
0.05979278817
0.05978917099
0.05978697129
0.05978579175
0.05978531562
0.05978530325
0.05978557704
0.05978599553
0.05978639331
0.05982971617
0.05980004498
0.05977615778
0.05976003683
0.05975081709
0.05974676458
0.05974619801
0.05974779273
0.05975060747
0.05975401552
0.05975761948
0.0597611765
0.05976453367
0.05976754332
0.05976982719
0.05978588421
0.05974360458
0.05972038967
0.05971092026
0.05970980957
0.05971329084
0.05971903279
0.05972567661
0.05973246353
0.05973898971
0.05974505598
0.05975057623
0.05975551174
0.05975977844
0.05976294589
0.05982971632
0.05980004523
0.05977615811
0.05976003721
0.0597508175
0.05974676499
0.05974619843
0.05974779313
0.05975060786
0.0597540159
0.05975761986
0.05976117686
0.05976453402
0.05976754366
0.05976982752
0.0598578593
0.0598438841
0.0598294284
0.05981652294
0.05980609527
0.05979828029
0.05979278853
0.05978917142
0.05978697177
0.05978579226
0.05978531615
0.05978530378
0.05978557758
0.05978599607
0.05978639386
0.0598639128
0.05985690433
0.05984937067
0.05984194875
0.05983505952
0.05982891999
0.05982359671
0.05981906257
0.0598152416
0.0598120392
0.05980936101
0.05980712711
0.05980529935
0.05980399248
0.05987084244
0.0598671277
0.05986257922
0.05985746446
0.05985206318
0.05984661987
0.05984132297
0.05983630243
0.05983163719
0.05982736664
0.05982350394
0.05982005536
0.05981707196
0.0598148544
0.05987503473
0.05987357379
0.05987143426
0.05986861439
0.05986519026
0.05986128781
0.05985705373
0.05985263292
0.05984815432
0.05984372426
0.05983942552
0.059835322
0.05983147508
0.0598280052
0.05982534767
0.0598735132
0.05987080128
0.05986712072
0.05986267827
0.05985774937
0.05985260215
0.05984745656
0.05984247198
0.05983775134
0.05983335252
0.0598293012
0.05982560396
0.05982226682
0.05981934641
0.0598171551
0.05986964035
0.05986391309
0.05985690455
0.0598493708
0.0598419488
0.0598350595
0.0598289199
0.05982359656
0.05981906236
0.05981524134
0.05981203891
0.05980936069
0.05980712676
0.05980529899
0.0598039921
0.05986253612
0.05985185933
0.05984039718
0.05982962844
0.05982033045
0.05981274361
0.0598067939
0.05980226302
0.05979889178
0.05979643332
0.05979467512
0.05979344421
0.05979260468
0.05979205397
0.05979173286
0.05985525018
0.05984068248
0.05982703282
0.05981560308
0.05980664137
0.05979991988
0.05979505335
0.05979164668
0.05978935262
0.05978788726
0.05978702748
0.05978660167
0.05978647758
0.05978654565
0.05978668543
0.05986253614
0.05985185938
0.05984039726
0.05982962855
0.05982033058
0.05981274377
0.05980679409
0.05980226322
0.059798892
0.05979643356
0.05979467537
0.05979344447
0.05979260494
0.05979205424
0.05979173313
0.05986964034
0.05986391308
0.05985690457
0.05984937087
0.05984194893
0.05983505968
0.05982892014
0.05982359684
0.05981906268
0.0598152417
0.05981203929
0.05980936109
0.05980712718
0.05980529942
0.05980399254
0.05987351314
0.05987080121
0.05986712066
0.05986267824
0.0598577494
0.05985260223
0.0598474567
0.05984247217
0.05983775159
0.05983335283
0.05982930155
0.05982560436
0.05982226726
0.05981934689
0.0598171556
0.05987357371
0.05987143419
0.05986861434
0.05986519024
0.05986128783
0.0598570538
0.05985263305
0.05984815451
0.0598437245
0.05983942582
0.05983532237
0.0598314755
0.05982800568
0.05982534819
0.05987570802
0.0598748239
0.05987346499
0.05987156647
0.05986911471
0.05986614495
0.0598627303
0.05985896731
0.05985496214
0.0598508196
0.0598466363
0.05984249974
0.05983850185
0.05983480491
0.05983192448
0.05987503473
0.05987357379
0.05987143426
0.05986861438
0.05986519026
0.05986128781
0.05985705374
0.05985263294
0.05984815436
0.0598437243
0.05983942557
0.05983532207
0.05983147516
0.0598280053
0.05982534778
0.05987354409
0.05987084256
0.05986712782
0.05986257932
0.05985746453
0.0598520632
0.05984661985
0.0598413229
0.05983630232
0.05983163704
0.05982736645
0.05982350371
0.0598200551
0.05981707168
0.05981485409
0.05987133718
0.05986689663
0.05986120425
0.05985473629
0.05984797277
0.05984130289
0.05983499796
0.05982922059
0.05982404793
0.0598194967
0.05981554492
0.0598121496
0.05980926473
0.05980687937
0.05980516638
0.0598697086
0.05986412423
0.05985736639
0.05985006399
0.05984273367
0.05983573976
0.05982930702
0.0598235505
0.05981850665
0.05981415985
0.0598104632
0.05980735435
0.05980477071
0.05980268043
0.05980120569
0.0598713372
0.05986689666
0.0598612043
0.05985473636
0.05984797286
0.059841303
0.0598349981
0.05982922075
0.05982404811
0.0598194969
0.05981554513
0.05981214982
0.05980926496
0.05980687961
0.05980516662
0.05987354411
0.05987084259
0.05986712787
0.05986257941
0.05985746465
0.05985206337
0.05984662005
0.05984132315
0.0598363026
0.05983163735
0.05982736679
0.05982350408
0.05982005549
0.05981707208
0.05981485451
0.05987503472
0.05987357377
0.05987143425
0.0598686144
0.0598651903
0.05986128788
0.05985705385
0.0598526331
0.05984815456
0.05984372455
0.05983942587
0.05983532241
0.05983147554
0.05982800571
0.05982534822
0.05987570799
0.05987482387
0.05987346496
0.05987156644
0.05986911469
0.05986614496
0.05986273034
0.05985896739
0.05985496226
0.05985081978
0.05984663653
0.05984250002
0.05983850218
0.0598348053
0.05983192491
)
;

boundaryField
{
    top
    {
        type            calculated;
        value           nonuniform List<scalar> 
127
(
0.05987570799
0.05987482389
0.05987357377
0.05987084254
0.05986689657
0.05986412411
0.05986689649
0.05987084244
0.05987357371
0.05987482387
0.05987346496
0.05987143423
0.05986712779
0.05986120417
0.05985736624
0.0598612041
0.0598671277
0.05987143419
0.05987346496
0.05987156643
0.05986861435
0.05986257928
0.0598547362
0.05985006382
0.05985473615
0.05986257922
0.05986861434
0.05987156644
0.05986911466
0.05986519021
0.05985746448
0.05984797267
0.0598427335
0.05984797266
0.05985746446
0.05986519024
0.05986911469
0.05986614489
0.05986128775
0.05985206316
0.05984130278
0.05983573958
0.05984130281
0.05985206318
0.05986128783
0.05986614496
0.05986273023
0.05985705368
0.0598466198
0.05983499785
0.05982930684
0.05983499791
0.05984661987
0.0598570538
0.05986273034
0.05985896723
0.05985263287
0.05984132284
0.05982922048
0.05982355033
0.05982922057
0.05984132297
0.05985263305
0.05985896739
0.05985496204
0.05984815428
0.05983630226
0.05982404782
0.05981850649
0.05982404794
0.05983630243
0.05984815451
0.05985496226
0.0598508195
0.05984372421
0.05983163697
0.05981949659
0.0598141597
0.05981949674
0.05983163719
0.0598437245
0.05985081978
0.05984663619
0.05983942548
0.05982736637
0.05981554481
0.05981046306
0.05981554498
0.05982736664
0.05983942582
0.05984663653
0.05984249962
0.05983532197
0.05982350363
0.05981214948
0.05980735421
0.05981214968
0.05982350394
0.05983532237
0.05984250002
0.05983850172
0.05983147506
0.05982005502
0.05980926462
0.05980477057
0.05980926483
0.05982005536
0.0598314755
0.05983850218
0.05983480478
0.05982800519
0.05981707159
0.05980687926
0.0598026803
0.05980687949
0.05981707196
0.05982800568
0.0598348053
0.05983192435
0.05982534767
0.059814854
0.05980516626
0.05980120557
0.0598051665
0.0598148544
0.05982534819
0.05983192491
)
;
    }
    bottom
    {
        type            calculated;
        value           nonuniform List<scalar> 
134
(
0.05987503468
0.05987354405
0.05987133715
0.05986970858
0.05987133718
0.0598735441
0.05987503473
0.05987570802
0.05987482383
0.05987357371
0.05987084247
0.05986689654
0.05986412414
0.0598668966
0.05987084257
0.05987357379
0.0598748239
0.0598734649
0.05987143414
0.05986712768
0.05986120408
0.05985736621
0.05986120417
0.05986712782
0.05987143426
0.05987346499
0.05987156635
0.05986861423
0.05986257912
0.05985473604
0.0598500637
0.05985473616
0.0598625793
0.05986861439
0.05987156647
0.05986911455
0.05986519006
0.05985746426
0.05984797242
0.05984273327
0.05984797256
0.05985746448
0.05986519026
0.05986911471
0.05986614475
0.05986128756
0.05985206286
0.05984130244
0.05983573925
0.05984130261
0.05985206313
0.05986128781
0.05986614495
0.05986273006
0.05985705344
0.05984661944
0.05983499743
0.05982930641
0.05983499761
0.05984661974
0.05985705373
0.0598627303
0.05985896702
0.05985263258
0.05984132242
0.05982921997
0.05982354981
0.05982922018
0.05984132276
0.05985263292
0.05985896731
0.05985496179
0.05984815394
0.05983630178
0.05982404724
0.05981850589
0.05982404746
0.05983630215
0.05984815432
0.05985496214
0.0598508192
0.05984372383
0.05983163644
0.05981949595
0.05981415904
0.05981949618
0.05983163683
0.05984372426
0.0598508196
0.05984663585
0.05983942505
0.05982736579
0.05981554412
0.05981046234
0.05981554436
0.05982736621
0.05983942552
0.0598466363
0.05984249925
0.0598353215
0.05982350301
0.05981214876
0.05980735345
0.05981214901
0.05982350344
0.059835322
0.05984249974
0.0598385013
0.05983147454
0.05982005436
0.05980926386
0.05980476977
0.05980926411
0.05982005481
0.05983147508
0.05983850185
0.05983480433
0.05982800464
0.0598170709
0.05980687847
0.05980267947
0.05980687873
0.05981707136
0.0598280052
0.05983480491
0.05983192385
0.05982534708
0.05981485327
0.05980516544
0.0598012047
0.05980516571
0.05981485375
0.05982534767
0.05983192448
)
;
    }
    side-walls
    {
        type            calculated;
        value           nonuniform List<scalar> 
261
(
0.05987482383
0.0598735737
0.05987084246
0.05986689651
0.05986412409
0.05986689655
0.05987084254
0.05987357377
0.05987482389
0.0598734649
0.05987143414
0.05986712765
0.05986120403
0.05985736612
0.05986120409
0.05986712777
0.05987143423
0.05987346496
0.05987156635
0.05986861422
0.05986257909
0.05985473598
0.05985006361
0.05985473606
0.05986257924
0.05986861434
0.05987156643
0.05986911455
0.05986519005
0.05985746423
0.05984797236
0.05984273318
0.05984797246
0.05985746441
0.0598651902
0.05986911466
0.05986614475
0.05986128755
0.05985206284
0.05984130238
0.05983573916
0.0598413025
0.05985206305
0.05986128774
0.05986614489
0.05986273006
0.05985705343
0.05984661941
0.05983499737
0.05982930632
0.0598349975
0.05984661965
0.05985705365
0.05986273023
0.05985896702
0.05985263258
0.0598413224
0.05982921992
0.05982354971
0.05982922006
0.05984132267
0.05985263284
0.05985896723
0.05985496179
0.05984815394
0.05983630175
0.05982404718
0.05981850579
0.05982404734
0.05983630205
0.05984815423
0.05985496204
0.0598508192
0.05984372382
0.05983163641
0.0598194959
0.05981415894
0.05981949607
0.05983163673
0.05984372415
0.0598508195
0.05984663585
0.05983942505
0.05982736577
0.05981554407
0.05981046224
0.05981554425
0.05982736611
0.05983942541
0.05984663619
0.05984249925
0.05983532149
0.05982350298
0.0598121487
0.05980735335
0.05981214889
0.05982350334
0.05983532189
0.05984249962
0.0598385013
0.05983147454
0.05982005433
0.0598092638
0.05980476968
0.059809264
0.0598200547
0.05983147496
0.05983850172
0.05983480433
0.05982800463
0.05981707087
0.05980687841
0.05980267938
0.05980687861
0.05981707125
0.05982800508
0.05983480478
0.05983192385
0.05982534707
0.05981485325
0.05980516538
0.05980120461
0.05980516559
0.05981485364
0.05982534755
0.05983192435
0.05987570802
0.05987503473
0.05987354409
0.05987133718
0.0598697086
0.0598713372
0.05987354411
0.05987503472
0.05987570799
0.0598748239
0.05987357379
0.05987084256
0.05986689663
0.05986412423
0.05986689666
0.05987084259
0.05987357377
0.05987482387
0.05987346499
0.05987143426
0.05986712782
0.05986120425
0.05985736639
0.0598612043
0.05986712787
0.05987143425
0.05987346496
0.05987156647
0.05986861438
0.05986257932
0.05985473629
0.05985006399
0.05985473636
0.05986257941
0.0598686144
0.05987156644
0.05986911471
0.05986519026
0.05985746453
0.05984797277
0.05984273367
0.05984797286
0.05985746465
0.0598651903
0.05986911469
0.05986614495
0.05986128781
0.0598520632
0.05984130289
0.05983573976
0.059841303
0.05985206337
0.05986128788
0.05986614496
0.0598627303
0.05985705374
0.05984661985
0.05983499796
0.05982930702
0.0598349981
0.05984662005
0.05985705385
0.05986273034
0.05985896731
0.05985263294
0.0598413229
0.05982922059
0.0598235505
0.05982922075
0.05984132315
0.0598526331
0.05985896739
0.05985496214
0.05984815436
0.05983630232
0.05982404793
0.05981850665
0.05982404811
0.0598363026
0.05984815456
0.05985496226
0.0598508196
0.0598437243
0.05983163704
0.0598194967
0.05981415985
0.0598194969
0.05983163735
0.05984372455
0.05985081978
0.0598466363
0.05983942557
0.05982736645
0.05981554492
0.0598104632
0.05981554513
0.05982736679
0.05983942587
0.05984663653
0.05984249974
0.05983532207
0.05982350371
0.0598121496
0.05980735435
0.05981214982
0.05982350408
0.05983532241
0.05984250002
0.05983850185
0.05983147516
0.0598200551
0.05980926473
0.05980477071
0.05980926496
0.05982005549
0.05983147554
0.05983850218
0.05983480491
0.0598280053
0.05981707168
0.05980687937
0.05980268043
0.05980687961
0.05981707208
0.05982800571
0.0598348053
0.05983192448
0.05982534778
0.05981485409
0.05980516638
0.05980120569
0.05980516662
0.05981485451
0.05982534822
0.05983192491
)
;
    }
    inlet
    {
        type            calculated;
        value           nonuniform 0();
    }
    outlet
    {
        type            calculated;
        value           nonuniform List<scalar> 
81
(
0.05983192385
0.05982534707
0.05981485325
0.05980516538
0.05980120461
0.05980516559
0.05981485364
0.05982534755
0.05983192435
0.05982534708
0.05981715441
0.05980399127
0.05979173188
0.05978668438
0.05979173215
0.05980399174
0.05981715497
0.05982534767
0.05981485327
0.05980399129
0.05978639258
0.05976982629
0.05976294493
0.05976982664
0.05978639316
0.05980399198
0.059814854
0.05980516544
0.05979173193
0.05976982635
0.05974903188
0.05974032645
0.05974903218
0.05976982702
0.05979173273
0.05980516626
0.0598012047
0.05978668448
0.05976294503
0.05974032656
0.0597307816
0.05974032693
0.05976294574
0.0597866853
0.05980120557
0.05980516571
0.05979173228
0.05976982678
0.05974903241
0.05974032709
0.05974903282
0.05976982746
0.05979173304
0.0598051665
0.05981485375
0.05980399187
0.05978639331
0.05976982719
0.05976294589
0.05976982752
0.05978639386
0.05980399248
0.0598148544
0.05982534767
0.0598171551
0.0598039921
0.05979173286
0.05978668543
0.05979173313
0.05980399254
0.0598171556
0.05982534819
0.05983192448
0.05982534778
0.05981485409
0.05980516638
0.05980120569
0.05980516662
0.05981485451
0.05982534822
0.05983192491
)
;
    }
    procBoundary1to0
    {
        type            processor;
        value           nonuniform List<scalar> 
97
(
0.05987570799
0.05987570799
0.05987503472
0.05987354411
0.05987133724
0.0598697087
0.05987133727
0.05987354416
0.05987503476
0.05987570803
0.05987590929
0.05987351312
0.05987351312
0.05987351312
0.05986964032
0.05986253625
0.05985525049
0.05986253638
0.0598696405
0.05987351326
0.05987503476
0.05987522544
0.05987349053
0.05985785919
0.05985785919
0.05985785919
0.05982971628
0.05978588564
0.0598297172
0.05985785999
0.0598696405
0.05987354416
0.05987423748
0.05987047285
0.05985750347
0.05971896806
0.05971896806
0.05971896806
0.05941344352
0.05971897345
0.0598297171
0.05986253641
0.05987133728
0.05987354334
0.05986767483
0.05984338014
0.05974892961
0.05693008481
0.05693008481
0.05693008481
0.05941344327
0.05941344327
0.05978588556
0.05985525053
0.05986970869
0.05987423748
0.0598704729
0.05985750356
0.05982042976
0.05974892932
0.05982042997
0.05982971563
0.05982971563
0.05982971563
0.05986253613
0.05987133721
0.05987522545
0.05987349056
0.05986847651
0.0598575035
0.05984338002
0.05985750359
0.05986847649
0.05986964021
0.05986964021
0.05986964021
0.05987354408
0.0598759093
0.05987521512
0.05987349055
0.05987047287
0.05986767482
0.05987047289
0.05987349056
0.05987521512
0.05987503469
0.05987503469
0.05987503469
0.05987622231
0.05987590929
0.05987522544
0.05987423748
0.05987354334
0.05987423749
0.05987522545
0.05987590929
0.0598762223
)
;
    }
}


// ************************************************************************* //
