/*--------------------------------*- C++ -*----------------------------------*\
| =========                 |                                                 |
| \\      /  F ield         | OpenFOAM: The Open Source CFD Toolbox           |
|  \\    /   O peration     | Version:  4.x                                   |
|   \\  /    A nd           | Web:      www.OpenFOAM.org                      |
|    \\/     M anipulation  |                                                 |
\*---------------------------------------------------------------------------*/
FoamFile
{
    version     2.0;
    format      ascii;
    class       volScalarField;
    location    "5000";
    object      X_H2O;
}
// * * * * * * * * * * * * * * * * * * * * * * * * * * * * * * * * * * * * * //

dimensions      [0 0 0 0 0 0 0];

internalField   nonuniform List<scalar> 
1174
(
1.690771975e-05
1.826712825e-05
2.016634993e-05
2.261904796e-05
2.559000547e-05
2.900612581e-05
3.277085771e-05
3.677803218e-05
4.092280869e-05
4.510856265e-05
4.92477479e-05
5.324839915e-05
5.694805114e-05
5.983071034e-05
1.815826968e-05
2.029849659e-05
2.31193098e-05
2.654465334e-05
3.044859713e-05
3.468444321e-05
3.910727939e-05
4.3588139e-05
4.802067072e-05
5.232204276e-05
5.642832654e-05
6.027809503e-05
6.375074742e-05
6.641048306e-05
2.089023841e-05
2.460600848e-05
2.915583646e-05
3.427227798e-05
3.967554811e-05
4.512112442e-05
5.042051642e-05
5.544372174e-05
6.011177106e-05
6.438523915e-05
6.825091009e-05
7.170245863e-05
7.468869884e-05
7.690850164e-05
2.483694893e-05
3.053067902e-05
3.700035493e-05
4.376594092e-05
5.043818109e-05
5.674570095e-05
6.252583682e-05
6.770139252e-05
7.225558782e-05
7.62103766e-05
7.960871026e-05
8.249655579e-05
8.488472301e-05
8.659988398e-05
2.760965951e-05
3.436898899e-05
4.167328188e-05
4.900582688e-05
5.600224376e-05
6.243770532e-05
6.819708068e-05
7.32438864e-05
7.75936866e-05
8.129336944e-05
8.440522827e-05
8.699182653e-05
8.908487645e-05
9.05617403e-05
2.48368536e-05
3.053053744e-05
3.700015471e-05
4.376567223e-05
5.043783417e-05
5.674526643e-05
6.25253122e-05
6.770077557e-05
7.225487579e-05
7.620958157e-05
7.960784332e-05
8.249561737e-05
8.488373187e-05
8.659882822e-05
2.089007341e-05
2.460578735e-05
2.915554749e-05
3.427189609e-05
3.967505191e-05
4.512049198e-05
5.041973192e-05
5.544278332e-05
6.011066876e-05
6.438398299e-05
6.82495123e-05
7.170092165e-05
7.468703786e-05
7.69067194e-05
1.815812149e-05
2.029831755e-05
2.311908299e-05
2.654434739e-05
3.044818959e-05
3.468389615e-05
3.910656721e-05
4.358724194e-05
4.801958149e-05
5.232074804e-05
5.642682889e-05
6.027638854e-05
6.374883796e-05
6.640839275e-05
1.690761249e-05
1.826701661e-05
2.016621203e-05
2.261885738e-05
2.558972581e-05
2.900572308e-05
3.277029696e-05
3.677728624e-05
4.092184799e-05
4.510736189e-05
4.924629811e-05
5.324668615e-05
5.694607816e-05
5.982847686e-05
1.669673648e-05
1.815817863e-05
2.029841232e-05
2.31192326e-05
2.654457253e-05
3.044852408e-05
3.468437404e-05
3.910720685e-05
4.358806157e-05
4.802059874e-05
5.232197268e-05
5.642825952e-05
6.027802758e-05
6.375066971e-05
6.64104175e-05
2.093168154e-05
2.461318045e-05
2.905689125e-05
3.398737183e-05
3.913646751e-05
4.428418684e-05
4.927112242e-05
5.3994291e-05
5.839578634e-05
6.244989317e-05
6.614998503e-05
6.949000925e-05
7.241318063e-05
7.460662352e-05
2.782143649e-05
3.483143501e-05
4.236701556e-05
4.979117645e-05
5.668291087e-05
6.282513417e-05
6.815122911e-05
7.268826601e-05
7.651217093e-05
7.971750728e-05
8.239861226e-05
8.463539011e-05
8.646584807e-05
8.777476509e-05
3.987673336e-05
5.134091511e-05
6.211210472e-05
7.141284178e-05
7.900261055e-05
8.495531665e-05
8.948923687e-05
9.286348178e-05
9.53249098e-05
9.708601338e-05
9.831979052e-05
9.916207626e-05
9.971534654e-05
0.0001000383245
5.105387106e-05
6.470589459e-05
7.613842543e-05
8.510316493e-05
9.182778476e-05
9.669742676e-05
0.0001001071814
0.0001024042714
0.0001038726
0.0001047352378
0.0001051638457
0.0001052906377
0.0001052250582
0.0001050870913
3.98763242e-05
5.134041557e-05
6.211150248e-05
7.141213724e-05
7.900178702e-05
8.495438814e-05
8.948820807e-05
9.286237336e-05
9.532373247e-05
9.708478834e-05
9.831850101e-05
9.9160754e-05
9.971399803e-05
0.0001000369498
2.782093726e-05
3.483088698e-05
4.236636591e-05
4.979038527e-05
5.668194189e-05
6.282396594e-05
6.814988034e-05
7.268672495e-05
7.651046816e-05
7.971565788e-05
8.239663639e-05
8.463330337e-05
8.646367459e-05
8.777247989e-05
2.093136751e-05
2.461287084e-05
2.905651199e-05
3.398685613e-05
3.913577539e-05
4.428328429e-05
4.926999527e-05
5.399291933e-05
5.839418048e-05
6.244805445e-05
6.614792937e-05
6.948774048e-05
7.241071711e-05
7.460399334e-05
1.815813507e-05
2.029832217e-05
2.311906811e-05
2.654430022e-05
3.044809604e-05
3.468374416e-05
3.910634417e-05
4.358694095e-05
4.801919325e-05
5.232028085e-05
5.642627179e-05
6.027575312e-05
6.374812149e-05
6.640758068e-05
1.818774562e-05
2.089001359e-05
2.460577422e-05
2.915560236e-05
3.427204094e-05
3.967531198e-05
4.512088521e-05
5.042028181e-05
5.544348951e-05
6.011153267e-05
6.438500481e-05
6.825068539e-05
7.170224613e-05
7.468849371e-05
7.690830287e-05
2.209275196e-05
2.782112915e-05
3.483117351e-05
4.236678239e-05
4.979096021e-05
5.668270819e-05
6.282493705e-05
6.815104084e-05
7.268808385e-05
7.651199795e-05
7.971734478e-05
8.239845318e-05
8.46352392e-05
8.646571177e-05
8.777462003e-05
4.78539779e-05
6.231163483e-05
7.52196978e-05
8.565035592e-05
9.34684753e-05
9.896339416e-05
0.0001025836075
0.0001047862843
0.0001059687133
0.0001064476459
0.0001064627452
0.0001061915725
0.0001057754905
0.0001053794684
9.169668005e-05
0.00011558661
0.0001317108806
0.000140934188
0.0001449902411
0.0001455601783
0.0001439686181
0.0001411568371
0.0001377515373
0.0001341501674
0.0001305956315
0.00012724079
0.0001242332455
0.0001219508583
0.0001481349064
0.0001713541687
0.0001808281516
0.0001819431906
0.0001784658746
0.0001727275053
0.0001660868939
0.0001593029076
0.0001527794306
0.0001467156531
0.0001411977721
0.0001362644787
0.0001319997717
0.0001288336981
9.169459864e-05
0.0001155845751
0.0001317088377
0.0001409320961
0.0001449881052
0.0001455580171
0.0001439664696
0.0001411547012
0.0001377494315
0.0001341481169
0.0001305936156
0.0001272388293
0.00012423133
0.0001219489533
4.785240044e-05
6.231019209e-05
7.521812106e-05
8.564851078e-05
9.346634742e-05
9.896101762e-05
0.0001025810113
0.0001047835422
0.0001059658486
0.0001064447235
0.0001064597607
0.0001061885396
0.0001057724419
0.0001053763778
2.782093635e-05
3.483079753e-05
4.236615329e-05
4.979002302e-05
5.668141956e-05
6.282329184e-05
6.814905995e-05
7.268578595e-05
7.650942469e-05
7.971453128e-05
8.239544714e-05
8.463204538e-05
8.646234686e-05
8.777111561e-05
2.089009605e-05
2.460575581e-05
2.915541526e-05
3.427162173e-05
3.967459487e-05
4.51198355e-05
5.04188622e-05
5.544169848e-05
6.010938518e-05
6.438250353e-05
6.824785462e-05
7.169910334e-05
7.468506924e-05
7.690457756e-05
2.039508785e-05
2.483657469e-05
3.053026602e-05
3.699991862e-05
4.376548946e-05
5.043772353e-05
5.67452383e-05
6.252538381e-05
6.770093974e-05
7.225513926e-05
7.620993958e-05
7.960828589e-05
8.249613704e-05
8.488431721e-05
8.659948071e-05
2.919775645e-05
3.987609939e-05
5.134031085e-05
6.21115329e-05
7.141230528e-05
7.900210036e-05
8.495483364e-05
8.948877674e-05
9.286305157e-05
9.532447953e-05
9.708560706e-05
9.831940019e-05
9.916169749e-05
9.971497557e-05
0.0001000379894
6.202270671e-05
9.169541608e-05
0.0001155856671
0.0001317101348
0.0001409335638
0.0001449896987
0.0001455596833
0.0001439681906
0.0001411564506
0.0001377511829
0.0001341498458
0.0001305953258
0.000127240495
0.0001242329818
0.0001219506152
0.0002398862636
0.0002685548152
0.0002720371089
0.0002622239805
0.0002467191309
0.0002297177164
0.0002132890734
0.0001983172294
0.0001850748165
0.000173543944
0.0001635884831
0.0001550587712
0.0001479270288
0.0001427508949
0.0005259231088
0.0004852786588
0.0004257467992
0.0003695549596
0.0003222529241
0.0002839185668
0.0002531489472
0.0002283916095
0.000208323838
0.0001919108456
0.0001783731998
0.0001671567643
0.0001580018179
0.0001514578825
0.0002398788159
0.000268549365
0.0002720323737
0.0002622196335
0.0002467150837
0.0002297139883
0.0002132856013
0.0001983139617
0.0001850717685
0.0001735410975
0.0001635858295
0.0001550562448
0.0001479246274
0.0001427485518
9.1694811e-05
0.0001155840589
0.0001317076221
0.0001409303347
0.0001449859729
0.0001455556635
0.0001439640037
0.0001411521814
0.0001377469325
0.0001341456415
0.0001305912126
0.0001272364629
0.0001242290298
0.0001219466982
3.987633926e-05
5.134004646e-05
6.211065555e-05
7.141077962e-05
7.899997397e-05
8.495218632e-05
8.948569021e-05
9.285962878e-05
9.532079358e-05
9.70817172e-05
9.831532936e-05
9.915752003e-05
9.971069262e-05
0.0001000335932
2.483688999e-05
3.053040135e-05
3.699974103e-05
4.376489921e-05
5.043665541e-05
5.674367312e-05
6.252331161e-05
6.769839018e-05
7.225215972e-05
7.620656053e-05
7.960455885e-05
8.249210147e-05
8.487999081e-05
8.659486946e-05
2.202385925e-05
2.760921612e-05
3.436846672e-05
4.167269595e-05
4.900520256e-05
5.600159931e-05
6.243704422e-05
6.819643076e-05
7.324323814e-05
7.75930467e-05
8.129272988e-05
8.440461067e-05
8.6991232e-05
8.908429442e-05
9.05611667e-05
3.64837182e-05
5.105296273e-05
6.47049244e-05
7.613743883e-05
8.510218846e-05
9.182684195e-05
9.669654805e-05
0.0001001063602
0.0001024035016
0.0001038718663
0.0001047345517
0.0001051632045
0.0001052900224
0.000105224463
0.0001050865178
0.0001058510098
0.0001481328314
0.0001713521445
0.000180826377
0.0001819416544
0.000178464548
0.0001727263662
0.0001660859287
0.000159302039
0.0001527786407
0.0001467149706
0.0001411971402
0.0001362638881
0.0001319992322
0.0001288331922
0.0004782813966
0.0005259165947
0.000485274522
0.0004257439906
0.0003695529689
0.0003222514547
0.0002839174415
0.0002531480411
0.0002283908417
0.0002083232038
0.0001919103086
0.0001783727217
0.0001671563298
0.000158001417
0.0001514575271
0.001745087634
0.001114642771
0.0007684901206
0.0005671046916
0.000442906132
0.000361883066
0.0003062322593
0.000266244623
0.0002363985286
0.000213419637
0.0001952910799
0.000180755409
0.0001691673162
0.0001610039489
0.0005259229564
0.0004852720276
0.000425738664
0.0003695470389
0.0003222457219
0.0002839122087
0.000253143324
0.0002283865599
0.0002083192837
0.0001919067315
0.0001783694406
0.0001671532984
0.0001579985767
0.0001514547949
0.000148135214
0.000171351509
0.0001808235265
0.0001819374745
0.0001784596563
0.0001727211443
0.0001660806033
0.0001592967765
0.0001527735144
0.0001467099692
0.0001411923016
0.0001362592422
0.0001319947457
0.0001288287674
5.105395403e-05
6.470501169e-05
7.613649635e-05
8.5100319e-05
9.182418925e-05
9.66932667e-05
0.0001001026028
0.0001023993913
0.0001038674945
0.000104730003
0.0001051585203
0.0001052852521
0.000105219653
0.0001050816098
2.760975249e-05
3.436874822e-05
4.167253333e-05
4.900448596e-05
5.600028084e-05
6.243512396e-05
6.819391847e-05
7.324019149e-05
7.758952891e-05
8.12887992e-05
8.440032249e-05
8.698662376e-05
8.907942107e-05
9.055600738e-05
2.039505663e-05
2.483645983e-05
3.053005051e-05
3.699958881e-05
4.376504569e-05
5.043716036e-05
5.674455639e-05
6.252458334e-05
6.770003847e-05
7.225414061e-05
7.620885228e-05
7.960711066e-05
8.249489296e-05
8.488301732e-05
8.659813395e-05
2.919738919e-05
3.987546629e-05
5.133944331e-05
6.211047354e-05
7.141108151e-05
7.900074617e-05
8.495337577e-05
8.948724051e-05
9.286144605e-05
9.532283462e-05
9.708393087e-05
9.831768839e-05
9.915996767e-05
9.971324148e-05
0.0001000362167
6.201973735e-05
9.16925923e-05
0.0001155826064
0.0001317069969
0.0001409303999
0.0001449865422
0.000145556619
0.0001439652074
0.0001411535469
0.0001377483955
0.0001341471603
0.0001305927543
0.0001272380094
0.0001242305596
0.0001219482333
0.0001727649226
0.0002398738465
0.0002685453367
0.000272029052
0.0002622168979
0.0002467127949
0.0002297120663
0.0002132839584
0.0001983125583
0.0001850705644
0.0001735400233
0.0001635848877
0.0001550553944
0.0001479238486
0.0001427478263
0.0004782799534
0.0005259143018
0.0004852665067
0.0004257349014
0.0003695443384
0.0003222437322
0.0002839106761
0.0002531420762
0.000228385553
0.0002083184522
0.0001919060536
0.0001783688357
0.0001671527578
0.0001579980996
0.000151454356
0.0001727668402
0.0002398735089
0.0002685429113
0.0002720253372
0.0002622125631
0.0002467083326
0.0002297076876
0.000213279801
0.0001983086582
0.0001850668944
0.0001735366209
0.0001635817038
0.0001550524211
0.00014792103
0.0001427451169
9.169669911e-05
0.0001155835358
0.0001317056713
0.0001409275744
0.000144982794
0.0001455523043
0.0001439605932
0.0001411488176
0.0001377436423
0.0001341424758
0.0001305881425
0.0001272335255
0.0001242261838
0.0001219438927
3.987702613e-05
5.1340186e-05
6.211022747e-05
7.140988031e-05
7.899869895e-05
8.495064211e-05
8.948395019e-05
9.285772662e-05
9.531880998e-05
9.707965883e-05
9.831323168e-05
9.915538113e-05
9.970853637e-05
0.0001000314168
2.483709949e-05
3.053048852e-05
3.699962787e-05
4.376455843e-05
5.043607327e-05
5.674286182e-05
6.252229809e-05
6.769720134e-05
7.225081576e-05
7.620508758e-05
7.960296866e-05
8.249042729e-05
8.487824534e-05
8.659306296e-05
1.818766001e-05
2.088981576e-05
2.460544357e-05
2.915512352e-05
3.427139988e-05
3.967449204e-05
4.511987746e-05
5.041907621e-05
5.544209907e-05
6.010996583e-05
6.438326136e-05
6.824877266e-05
7.17001909e-05
7.468630588e-05
7.690598756e-05
2.209221829e-05
2.782042161e-05
3.483024543e-05
4.236563547e-05
4.978959008e-05
5.668110514e-05
6.282310852e-05
6.814899821e-05
7.268584566e-05
7.650959507e-05
7.971479847e-05
8.239580164e-05
8.46324911e-05
8.646285829e-05
8.777168538e-05
3.387464681e-05
4.785120124e-05
6.230885864e-05
7.521673347e-05
8.564712249e-05
9.346500693e-05
9.89597348e-05
0.000102579818
0.0001047823953
0.0001059647641
0.0001064436906
0.000106458791
0.0001061876265
0.0001057715808
0.0001053755493
6.201985601e-05
9.169219248e-05
0.0001155815022
0.0001317052708
0.0001409281851
0.0001449840576
0.0001455539566
0.0001439624657
0.0001411508185
0.0001377457069
0.0001341445467
0.0001305901882
0.0001272355332
0.0001242281719
0.0001219458769
0.0001058510667
0.0001481306889
0.0001713476997
0.0001808204396
0.0001819349368
0.0001784575877
0.0001727194122
0.0001660791313
0.0001592955471
0.0001527724259
0.0001467090168
0.000141191447
0.0001362584643
0.0001319940318
0.0001288281044
6.201962408e-05
9.169152023e-05
0.0001155802088
0.0001317034179
0.0001409259355
0.0001449815463
0.0001455513124
0.0001439598009
0.0001411481597
0.0001377430979
0.0001341420002
0.0001305877285
0.0001272331384
0.0001242258443
0.0001219435846
3.387566288e-05
4.78519846e-05
6.230891701e-05
7.521593903e-05
8.564554724e-05
9.346276815e-05
9.895700104e-05
0.0001025767182
0.0001047790556
0.0001059612771
0.0001064400966
0.0001064551506
0.0001061839702
0.0001057679171
0.0001053718377
2.782144009e-05
3.483077709e-05
4.236559241e-05
4.978894112e-05
5.667985476e-05
6.282131251e-05
6.814671507e-05
7.268314491e-05
7.65065272e-05
7.971143345e-05
8.23921902e-05
8.462865945e-05
8.645887004e-05
8.776753424e-05
2.089033268e-05
2.460584339e-05
2.915526566e-05
3.427117699e-05
3.96738249e-05
4.511872993e-05
5.04174328e-05
5.543995925e-05
6.0107364e-05
6.438021862e-05
6.824534013e-05
7.169639349e-05
7.468218138e-05
7.690153807e-05
1.669660405e-05
1.815796354e-05
2.029809771e-05
2.311879466e-05
2.654398832e-05
3.04477645e-05
3.468340459e-05
3.910602152e-05
4.358664588e-05
4.80189403e-05
5.232007189e-05
5.642611933e-05
6.027566475e-05
6.374810007e-05
6.640764856e-05
1.821856032e-05
2.093108755e-05
2.461249555e-05
2.905604342e-05
3.398631211e-05
3.91351613e-05
4.428261628e-05
4.926928018e-05
5.399218025e-05
5.839340725e-05
6.244726766e-05
6.614713393e-05
6.948693839e-05
7.240991977e-05
7.460319336e-05
2.209223672e-05
2.782038805e-05
3.483011848e-05
4.23653719e-05
4.978916498e-05
5.668051372e-05
6.282236662e-05
6.814812023e-05
7.268485019e-05
7.650849885e-05
7.971360972e-05
8.239454215e-05
8.463116547e-05
8.646148931e-05
8.777026977e-05
2.919744209e-05
3.987526007e-05
5.13388183e-05
6.210933722e-05
7.140944873e-05
7.899866257e-05
8.495092249e-05
8.948448969e-05
9.285847093e-05
9.531969695e-05
9.708067651e-05
9.831434927e-05
9.915657575e-05
9.970981101e-05
0.0001000327372
3.648369902e-05
5.105222042e-05
6.470320508e-05
7.613476288e-05
8.509868344e-05
9.182268135e-05
9.669187606e-05
0.0001001013372
0.0001023982426
0.0001038664387
0.0001047290311
0.0001051576196
0.0001052844187
0.0001052188469
0.0001050808431
2.919732772e-05
3.987500421e-05
5.133834652e-05
6.210862642e-05
7.140849673e-05
7.899749316e-05
8.494958086e-05
8.948300967e-05
9.285688263e-05
9.531803958e-05
9.707896249e-05
9.831259637e-05
9.915479946e-05
9.970799975e-05
0.0001000309147
2.20922987e-05
2.782040162e-05
3.482992337e-05
4.236486495e-05
4.978830018e-05
5.66792801e-05
6.282079041e-05
6.814624988e-05
7.268272559e-05
7.650614391e-05
7.971108579e-05
8.239186517e-05
8.46283691e-05
8.645859367e-05
8.776727774e-05
1.821877321e-05
2.093131703e-05
2.461261343e-05
2.905594315e-05
3.398591024e-05
3.913442517e-05
4.428151701e-05
4.926780826e-05
5.399034785e-05
5.839124802e-05
6.244479932e-05
6.614437855e-05
6.948393424e-05
7.240668284e-05
7.459975044e-05
1.81582708e-05
2.029832108e-05
2.311887603e-05
2.654385886e-05
3.044735525e-05
3.468266857e-05
3.910491487e-05
4.358515315e-05
4.801705216e-05
5.231778429e-05
5.642345135e-05
6.02726199e-05
6.37447038e-05
6.640392419e-05
1.602309642e-05
1.690750779e-05
1.826686132e-05
2.016599841e-05
2.261857912e-05
2.558938221e-05
2.900531234e-05
3.276982622e-05
3.677674969e-05
4.092126344e-05
4.510673166e-05
4.924563177e-05
5.324598581e-05
5.694535091e-05
5.982773351e-05
1.669661435e-05
1.815797287e-05
2.029809283e-05
2.311876667e-05
2.654392203e-05
3.044764309e-05
3.468322394e-05
3.910576783e-05
4.358631778e-05
4.801852809e-05
5.231957914e-05
5.642554797e-05
6.027500704e-05
6.374736303e-05
6.640680611e-05
1.818767907e-05
2.088980363e-05
2.460536265e-05
2.915492542e-05
3.427104196e-05
3.96739499e-05
4.51191302e-05
5.041811371e-05
5.544092155e-05
6.010858272e-05
6.438168303e-05
6.824703053e-05
7.169829508e-05
7.468425624e-05
7.69037649e-05
2.039507128e-05
2.483635783e-05
3.052972529e-05
3.699894015e-05
4.376401012e-05
5.043570363e-05
5.674268849e-05
6.252231358e-05
6.769739723e-05
7.225117008e-05
7.620559628e-05
7.960361896e-05
8.249120376e-05
8.487912291e-05
8.659402269e-05
2.202385663e-05
2.760896304e-05
3.436779026e-05
4.167147608e-05
4.900336902e-05
5.599914673e-05
6.243399513e-05
6.819281391e-05
7.323913325e-05
7.758850996e-05
8.128783286e-05
8.439940584e-05
8.698576656e-05
8.907859938e-05
9.055523083e-05
2.039501434e-05
2.483623704e-05
3.05295023e-05
3.699859659e-05
4.376351311e-05
5.043505323e-05
5.674188101e-05
6.252136369e-05
6.769631484e-05
7.224997681e-05
7.62043056e-05
7.960223828e-05
8.248973578e-05
8.48776016e-05
8.659245579e-05
1.818764531e-05
2.088972711e-05
2.460518371e-05
2.915458568e-05
3.42704968e-05
3.967315923e-05
4.511808462e-05
5.041681126e-05
5.54393719e-05
6.01068083e-05
6.43796991e-05
6.824485727e-05
7.169594459e-05
7.468176218e-05
7.690114273e-05
1.66966366e-05
1.815799749e-05
2.029807335e-05
2.311864097e-05
2.654363181e-05
3.04471355e-05
3.468245443e-05
3.910470979e-05
4.358495066e-05
4.801685923e-05
5.231760717e-05
5.642328531e-05
6.0272467e-05
6.37445593e-05
6.640378235e-05
1.602315771e-05
1.69075965e-05
1.826693438e-05
2.016600745e-05
2.261846521e-05
2.558908367e-05
2.900477368e-05
3.276899815e-05
3.677559884e-05
4.091975547e-05
4.510485294e-05
4.92433764e-05
5.324335798e-05
5.694236056e-05
5.982438731e-05
)
;

boundaryField
{
    top
    {
        type            calculated;
        value           nonuniform List<scalar> 
127
(
1.602315771e-05
1.690761249e-05
1.815813507e-05
2.089009605e-05
2.483688999e-05
2.760975249e-05
2.483709949e-05
2.089033268e-05
1.81582708e-05
1.69075965e-05
1.826701661e-05
2.029832217e-05
2.460575581e-05
3.053040135e-05
3.436874822e-05
3.053048852e-05
2.460584339e-05
2.029832108e-05
1.826693438e-05
2.016621203e-05
2.311906811e-05
2.915541526e-05
3.699974103e-05
4.167253333e-05
3.699962787e-05
2.915526566e-05
2.311887603e-05
2.016600745e-05
2.261885738e-05
2.654430022e-05
3.427162173e-05
4.376489921e-05
4.900448596e-05
4.376455843e-05
3.427117699e-05
2.654385886e-05
2.261846521e-05
2.558972581e-05
3.044809604e-05
3.967459487e-05
5.043665541e-05
5.600028084e-05
5.043607327e-05
3.96738249e-05
3.044735525e-05
2.558908367e-05
2.900572308e-05
3.468374416e-05
4.51198355e-05
5.674367312e-05
6.243512396e-05
5.674286182e-05
4.511872993e-05
3.468266857e-05
2.900477368e-05
3.277029696e-05
3.910634417e-05
5.04188622e-05
6.252331161e-05
6.819391847e-05
6.252229809e-05
5.04174328e-05
3.910491487e-05
3.276899815e-05
3.677728624e-05
4.358694095e-05
5.544169848e-05
6.769839018e-05
7.324019149e-05
6.769720134e-05
5.543995925e-05
4.358515315e-05
3.677559884e-05
4.092184799e-05
4.801919325e-05
6.010938518e-05
7.225215972e-05
7.758952891e-05
7.225081576e-05
6.0107364e-05
4.801705216e-05
4.091975547e-05
4.510736189e-05
5.232028085e-05
6.438250353e-05
7.620656053e-05
8.12887992e-05
7.620508758e-05
6.438021862e-05
5.231778429e-05
4.510485294e-05
4.924629811e-05
5.642627179e-05
6.824785462e-05
7.960455885e-05
8.440032249e-05
7.960296866e-05
6.824534013e-05
5.642345135e-05
4.92433764e-05
5.324668615e-05
6.027575312e-05
7.169910334e-05
8.249210147e-05
8.698662376e-05
8.249042729e-05
7.169639349e-05
6.02726199e-05
5.324335798e-05
5.694607816e-05
6.374812149e-05
7.468506924e-05
8.487999081e-05
8.907942107e-05
8.487824534e-05
7.468218138e-05
6.37447038e-05
5.694236056e-05
5.982847686e-05
6.640758068e-05
7.690457756e-05
8.659486946e-05
9.055600738e-05
8.659306296e-05
7.690153807e-05
6.640392419e-05
5.982438731e-05
)
;
    }
    bottom
    {
        type            calculated;
        value           nonuniform List<scalar> 
134
(
1.669673648e-05
1.818774562e-05
2.039508785e-05
2.202385925e-05
2.039505663e-05
1.818766001e-05
1.669660405e-05
1.602309642e-05
1.690771975e-05
1.815817863e-05
2.089001359e-05
2.483657469e-05
2.760921612e-05
2.483645983e-05
2.088981576e-05
1.815796354e-05
1.690750779e-05
1.826712825e-05
2.029841232e-05
2.460577422e-05
3.053026602e-05
3.436846672e-05
3.053005051e-05
2.460544357e-05
2.029809771e-05
1.826686132e-05
2.016634993e-05
2.31192326e-05
2.915560236e-05
3.699991862e-05
4.167269595e-05
3.699958881e-05
2.915512352e-05
2.311879466e-05
2.016599841e-05
2.261904796e-05
2.654457253e-05
3.427204094e-05
4.376548946e-05
4.900520256e-05
4.376504569e-05
3.427139988e-05
2.654398832e-05
2.261857912e-05
2.559000547e-05
3.044852408e-05
3.967531198e-05
5.043772353e-05
5.600159931e-05
5.043716036e-05
3.967449204e-05
3.04477645e-05
2.558938221e-05
2.900612581e-05
3.468437404e-05
4.512088521e-05
5.67452383e-05
6.243704422e-05
5.674455639e-05
4.511987746e-05
3.468340459e-05
2.900531234e-05
3.277085771e-05
3.910720685e-05
5.042028181e-05
6.252538381e-05
6.819643076e-05
6.252458334e-05
5.041907621e-05
3.910602152e-05
3.276982622e-05
3.677803218e-05
4.358806157e-05
5.544348951e-05
6.770093974e-05
7.324323814e-05
6.770003847e-05
5.544209907e-05
4.358664588e-05
3.677674969e-05
4.092280869e-05
4.802059874e-05
6.011153267e-05
7.225513926e-05
7.75930467e-05
7.225414061e-05
6.010996583e-05
4.80189403e-05
4.092126344e-05
4.510856265e-05
5.232197268e-05
6.438500481e-05
7.620993958e-05
8.129272988e-05
7.620885228e-05
6.438326136e-05
5.232007189e-05
4.510673166e-05
4.92477479e-05
5.642825952e-05
6.825068539e-05
7.960828589e-05
8.440461067e-05
7.960711066e-05
6.824877266e-05
5.642611933e-05
4.924563177e-05
5.324839915e-05
6.027802758e-05
7.170224613e-05
8.249613704e-05
8.6991232e-05
8.249489296e-05
7.17001909e-05
6.027566475e-05
5.324598581e-05
5.694805114e-05
6.375066971e-05
7.468849371e-05
8.488431721e-05
8.908429442e-05
8.488301732e-05
7.468630588e-05
6.374810007e-05
5.694535091e-05
5.983071034e-05
6.64104175e-05
7.690830287e-05
8.659948071e-05
9.05611667e-05
8.659813395e-05
7.690598756e-05
6.640764856e-05
5.982773351e-05
)
;
    }
    side-walls
    {
        type            calculated;
        value           nonuniform List<scalar> 
261
(
1.690771975e-05
1.815826968e-05
2.089023841e-05
2.483694893e-05
2.760965951e-05
2.48368536e-05
2.089007341e-05
1.815812149e-05
1.690761249e-05
1.826712825e-05
2.029849659e-05
2.460600848e-05
3.053067902e-05
3.436898899e-05
3.053053744e-05
2.460578735e-05
2.029831755e-05
1.826701661e-05
2.016634993e-05
2.31193098e-05
2.915583646e-05
3.700035493e-05
4.167328188e-05
3.700015471e-05
2.915554749e-05
2.311908299e-05
2.016621203e-05
2.261904796e-05
2.654465334e-05
3.427227798e-05
4.376594092e-05
4.900582688e-05
4.376567223e-05
3.427189609e-05
2.654434739e-05
2.261885738e-05
2.559000547e-05
3.044859713e-05
3.967554811e-05
5.043818109e-05
5.600224376e-05
5.043783417e-05
3.967505191e-05
3.044818959e-05
2.558972581e-05
2.900612581e-05
3.468444321e-05
4.512112442e-05
5.674570095e-05
6.243770532e-05
5.674526643e-05
4.512049198e-05
3.468389615e-05
2.900572308e-05
3.277085771e-05
3.910727939e-05
5.042051642e-05
6.252583682e-05
6.819708068e-05
6.25253122e-05
5.041973192e-05
3.910656721e-05
3.277029696e-05
3.677803218e-05
4.3588139e-05
5.544372174e-05
6.770139252e-05
7.32438864e-05
6.770077557e-05
5.544278332e-05
4.358724194e-05
3.677728624e-05
4.092280869e-05
4.802067072e-05
6.011177106e-05
7.225558782e-05
7.75936866e-05
7.225487579e-05
6.011066876e-05
4.801958149e-05
4.092184799e-05
4.510856265e-05
5.232204276e-05
6.438523915e-05
7.62103766e-05
8.129336944e-05
7.620958157e-05
6.438398299e-05
5.232074804e-05
4.510736189e-05
4.92477479e-05
5.642832654e-05
6.825091009e-05
7.960871026e-05
8.440522827e-05
7.960784332e-05
6.82495123e-05
5.642682889e-05
4.924629811e-05
5.324839915e-05
6.027809503e-05
7.170245863e-05
8.249655579e-05
8.699182653e-05
8.249561737e-05
7.170092165e-05
6.027638854e-05
5.324668615e-05
5.694805114e-05
6.375074742e-05
7.468869884e-05
8.488472301e-05
8.908487645e-05
8.488373187e-05
7.468703786e-05
6.374883796e-05
5.694607816e-05
5.983071034e-05
6.641048306e-05
7.690850164e-05
8.659988398e-05
9.05617403e-05
8.659882822e-05
7.69067194e-05
6.640839275e-05
5.982847686e-05
1.602309642e-05
1.669661435e-05
1.818767907e-05
2.039507128e-05
2.202385663e-05
2.039501434e-05
1.818764531e-05
1.66966366e-05
1.602315771e-05
1.690750779e-05
1.815797287e-05
2.088980363e-05
2.483635783e-05
2.760896304e-05
2.483623704e-05
2.088972711e-05
1.815799749e-05
1.69075965e-05
1.826686132e-05
2.029809283e-05
2.460536265e-05
3.052972529e-05
3.436779026e-05
3.05295023e-05
2.460518371e-05
2.029807335e-05
1.826693438e-05
2.016599841e-05
2.311876667e-05
2.915492542e-05
3.699894015e-05
4.167147608e-05
3.699859659e-05
2.915458568e-05
2.311864097e-05
2.016600745e-05
2.261857912e-05
2.654392203e-05
3.427104196e-05
4.376401012e-05
4.900336902e-05
4.376351311e-05
3.42704968e-05
2.654363181e-05
2.261846521e-05
2.558938221e-05
3.044764309e-05
3.96739499e-05
5.043570363e-05
5.599914673e-05
5.043505323e-05
3.967315923e-05
3.04471355e-05
2.558908367e-05
2.900531234e-05
3.468322394e-05
4.51191302e-05
5.674268849e-05
6.243399513e-05
5.674188101e-05
4.511808462e-05
3.468245443e-05
2.900477368e-05
3.276982622e-05
3.910576783e-05
5.041811371e-05
6.252231358e-05
6.819281391e-05
6.252136369e-05
5.041681126e-05
3.910470979e-05
3.276899815e-05
3.677674969e-05
4.358631778e-05
5.544092155e-05
6.769739723e-05
7.323913325e-05
6.769631484e-05
5.54393719e-05
4.358495066e-05
3.677559884e-05
4.092126344e-05
4.801852809e-05
6.010858272e-05
7.225117008e-05
7.758850996e-05
7.224997681e-05
6.01068083e-05
4.801685923e-05
4.091975547e-05
4.510673166e-05
5.231957914e-05
6.438168303e-05
7.620559628e-05
8.128783286e-05
7.62043056e-05
6.43796991e-05
5.231760717e-05
4.510485294e-05
4.924563177e-05
5.642554797e-05
6.824703053e-05
7.960361896e-05
8.439940584e-05
7.960223828e-05
6.824485727e-05
5.642328531e-05
4.92433764e-05
5.324598581e-05
6.027500704e-05
7.169829508e-05
8.249120376e-05
8.698576656e-05
8.248973578e-05
7.169594459e-05
6.0272467e-05
5.324335798e-05
5.694535091e-05
6.374736303e-05
7.468425624e-05
8.487912291e-05
8.907859938e-05
8.48776016e-05
7.468176218e-05
6.37445593e-05
5.694236056e-05
5.982773351e-05
6.640680611e-05
7.69037649e-05
8.659402269e-05
9.055523083e-05
8.659245579e-05
7.690114273e-05
6.640378235e-05
5.982438731e-05
)
;
    }
    inlet
    {
        type            calculated;
        value           nonuniform 0();
    }
    outlet
    {
        type            calculated;
        value           nonuniform List<scalar> 
81
(
5.983071034e-05
6.641048306e-05
7.690850164e-05
8.659988398e-05
9.05617403e-05
8.659882822e-05
7.69067194e-05
6.640839275e-05
5.982847686e-05
6.64104175e-05
7.460662352e-05
8.777476509e-05
0.0001000383245
0.0001050870913
0.0001000369498
8.777247989e-05
7.460399334e-05
6.640758068e-05
7.690830287e-05
8.777462003e-05
0.0001053794684
0.0001219508583
0.0001288336981
0.0001219489533
0.0001053763778
8.777111561e-05
7.690457756e-05
8.659948071e-05
0.0001000379894
0.0001219506152
0.0001427508949
0.0001514578825
0.0001427485518
0.0001219466982
0.0001000335932
8.659486946e-05
9.05611667e-05
0.0001050865178
0.0001288331922
0.0001514575271
0.0001610039489
0.0001514547949
0.0001288287674
0.0001050816098
9.055600738e-05
8.659813395e-05
0.0001000362167
0.0001219482333
0.0001427478263
0.000151454356
0.0001427451169
0.0001219438927
0.0001000314168
8.659306296e-05
7.690598756e-05
8.777168538e-05
0.0001053755493
0.0001219458769
0.0001288281044
0.0001219435846
0.0001053718377
8.776753424e-05
7.690153807e-05
6.640764856e-05
7.460319336e-05
8.777026977e-05
0.0001000327372
0.0001050808431
0.0001000309147
8.776727774e-05
7.459975044e-05
6.640392419e-05
5.982773351e-05
6.640680611e-05
7.69037649e-05
8.659402269e-05
9.055523083e-05
8.659245579e-05
7.690114273e-05
6.640378235e-05
5.982438731e-05
)
;
    }
    procBoundary1to0
    {
        type            processor;
        value           nonuniform List<scalar> 
97
(
1.602315939e-05
1.602315939e-05
1.669662507e-05
1.818757312e-05
2.039476224e-05
2.202337303e-05
2.039468363e-05
1.81874398e-05
1.669649231e-05
1.60230303e-05
1.58216711e-05