/*--------------------------------*- C++ -*----------------------------------*\
| =========                 |                                                 |
| \\      /  F ield         | OpenFOAM: The Open Source CFD Toolbox           |
|  \\    /   O peration     | Version:  4.x                                   |
|   \\  /    A nd           | Web:      www.OpenFOAM.org                      |
|    \\/     M anipulation  |                                                 |
\*---------------------------------------------------------------------------*/
FoamFile
{
    version     2.0;
    format      ascii;
    class       volScalarField;
    location    "6000";
    object      Cpv;
}
// * * * * * * * * * * * * * * * * * * * * * * * * * * * * * * * * * * * * * //

dimensions      [0 2 -2 -1 0 0 0];

internalField   nonuniform List<scalar> 
1175
(
1277.533243
1277.53325
1277.533249
1277.533248
1277.533233
1277.533221
1277.533232
1277.533238
1277.533231
1277.533235
1277.533231
1277.533222
1277.533207
1277.533179
1277.533117
1277.533107
1277.533139
1277.533135
1277.533124
1277.533122
1277.533118
1277.533107
1277.533104
1277.533116
1277.533116
1277.533119
1277.53309
1277.533093
1277.533021
1277.532891
1277.532934
1277.532937
1277.53293
1277.532931
1277.532947
1277.532952
1277.532939
1277.532925
1277.532963
1277.532963
1277.532957
1277.532926
1277.53286
1277.532741
1277.532504
1277.533102
1277.533078
1277.533055
1277.53308
1277.533105
1277.533106
1277.533098
1277.533133
1277.533125
1277.533099
1277.533075
1277.533041
1277.532924
1277.53272
1277.532329
1277.533066
1277.533086
1277.533089
1277.533103
1277.533108
1277.533128
1277.533133
1277.533133
1277.533106
1277.533139
1277.533109
1277.533076
1277.532952
1277.532658
1277.53209
1277.53325
1277.533248
1277.533226
1277.533222
1277.53324
1277.533231
1277.53325
1277.533254
1277.533247
1277.533243
1277.533238
1277.533215
1277.533121
1277.532922
1277.532526
1277.53282
1277.532811
1277.532797
1277.532824
1277.532824
1277.532819
1277.5328
1277.532795
1277.5328
1277.532774
1277.53277
1277.532722
1277.532698
1277.532612
1277.532369
1277.53277
1277.532756
1277.532758
1277.532782
1277.53278
1277.53278
1277.53278
1277.532809
1277.532805
1277.532787
1277.532781
1277.532773
1277.532721
1277.532656
1277.532522
1277.53312
1277.53314
1277.533151
1277.533119
1277.533104
1277.533124
1277.533118
1277.533135
1277.53312
1277.533117
1277.53311
1277.533112
1277.533084
1277.533066
1277.53302
1277.533259
1277.533254
1277.533238
1277.533233
1277.533219
1277.533239
1277.533238
1277.533235
1277.533268
1277.533237
1277.533237
1277.533223
1277.533181
1277.533097
1277.533364
1277.533398
1277.533401
1277.533417
1277.533406
1277.533412
1277.533418
1277.533405
1277.533404
1277.533398
1277.533348
1277.533327
1277.533248
1277.533146
1277.532888
1277.533363
1277.533349
1277.53336
1277.533349
1277.533324
1277.533314
1277.533312
1277.533303
1277.533288
1277.533279
1277.533249
1277.533219
1277.533096
1277.532808
1277.532285
1277.532724
1277.532738
1277.532745
1277.532748
1277.532755
1277.532746
1277.532759
1277.532766
1277.532738
1277.532731
1277.532719
1277.532652
1277.532436
1277.531883
1277.530769
1277.534039
1277.534053
1277.534081
1277.53407
1277.534028
1277.534025
1277.534024
1277.534043
1277.534055
1277.534048
1277.534025
1277.533922
1277.53362
1277.532793
1277.531064
1277.533268
1277.53329
1277.533293
1277.533296
1277.533286
1277.53327
1277.533285
1277.533277
1277.533277
1277.533289
1277.533279
1277.533217
1277.532982
1277.532434
1277.531302
1277.533396
1277.533384
1277.533363
1277.533357
1277.533362
1277.533358
1277.533363
1277.533366
1277.533357
1277.533374
1277.533355
1277.533326
1277.533223
1277.532944
1277.532405
1277.533337
1277.533317
1277.533303
1277.533318
1277.533305
1277.533298
1277.533307
1277.533303
1277.533298
1277.533275
1277.533264
1277.533246
1277.533222
1277.533085
1277.532877
1277.533618
1277.533627
1277.533621
1277.533635
1277.533633
1277.533633
1277.533642
1277.533663
1277.533659
1277.533663
1277.533659
1277.533638
1277.533616
1277.533536
1277.533412
1277.533001
1277.532992
1277.532998
1277.532988
1277.532989
1277.53298
1277.532967
1277.532971
1277.53297
1277.532984
1277.533003
1277.532974
1277.532919
1277.532798
1277.533248
1277.533242
1277.533266
1277.533271
1277.533253
1277.533261
1277.533262
1277.533255
1277.533265
1277.533268
1277.533231
1277.533196
1277.533108
1277.532827
1277.533478
1277.533492
1277.533511
1277.533541
1277.533536
1277.533521
1277.533535
1277.53354
1277.533553
1277.533553
1277.533511
1277.53341
1277.533129
1277.532443
1277.530967
1277.532567
1277.532577
1277.532536
1277.532555
1277.532549
1277.532551
1277.532545
1277.532517
1277.532526
1277.532502
1277.532425
1277.532241
1277.531599
1277.529812
1277.525897
1277.533667
1277.533633
1277.533657
1277.533661
1277.533635
1277.533632
1277.533642
1277.533629
1277.533639
1277.533634
1277.533569
1277.533292
1277.53228
1277.528984
1277.520927
1277.532592
1277.532582
1277.532581
1277.532573
1277.532563
1277.532572
1277.532579
1277.532597
1277.532596
1277.532579
1277.532545
1277.532354
1277.531722
1277.529927
1277.526045
1277.531959
1277.531958
1277.531938
1277.531958
1277.531971
1277.531958
1277.53195
1277.531955
1277.531936
1277.531924
1277.531855
1277.531785
1277.531494
1277.530758
1277.529246
1277.533885
1277.533866
1277.533868
1277.533904
1277.533921
1277.53393
1277.533938
1277.533907
1277.533908
1277.533928
1277.53392
1277.533876
1277.533751
1277.533465
1277.532922
1277.533039
1277.533061
1277.533074
1277.533063
1277.533046
1277.533058
1277.533039
1277.533049
1277.533054
1277.533056
1277.533064
1277.533026
1277.532971
1277.532843
1277.532618
1277.532466
1277.532457
1277.532437
1277.532433
1277.532438
1277.532447
1277.532471
1277.532476
1277.532454
1277.532462
1277.532465
1277.532445
1277.532359
1277.532145
1277.533584
1277.533578
1277.533577
1277.533579
1277.533575
1277.5336
1277.533587
1277.533591
1277.533591
1277.533581
1277.533554
1277.533475
1277.533271
1277.532738
1277.533447
1277.533443
1277.533442
1277.533427
1277.533448
1277.533462
1277.533478
1277.533475
1277.533453
1277.533434
1277.533386
1277.533206
1277.532573
1277.530766
1277.535162
1277.535165
1277.535181
1277.535167
1277.535184
1277.53517
1277.535161
1277.53516
1277.535183
1277.535191
1277.535054
1277.534617
1277.53297
1277.527315
1277.513137
1277.533258
1277.533243
1277.533245
1277.53325
1277.533231
1277.533236
1277.533231
1277.533206
1277.533179
1277.533132
1277.533013
1277.532269
1277.529079
1277.515293
1277.46765
1277.532014
1277.531996
1277.532032
1277.532046
1277.532059
1277.532072
1277.532061
1277.532082
1277.532077
1277.532029
1277.531922
1277.531511
1277.52984
1277.524181
1277.50998
1277.533852
1277.533832
1277.533813
1277.533791
1277.533756
1277.533743
1277.533748
1277.533734
1277.533731
1277.533686
1277.533641
1277.533461
1277.532829
1277.531014
1277.527116
1277.532495
1277.532502
1277.532509
1277.532533
1277.532526
1277.532521
1277.532497
1277.532504
1277.532518
1277.532525
1277.53251
1277.53246
1277.532258
1277.531743
1277.530629
1277.533504
1277.533516
1277.533519
1277.533521
1277.533531
1277.533514
1277.53353
1277.533547
1277.533538
1277.533534
1277.533493
1277.533464
1277.533377
1277.533152
1277.532742
1277.53314
1277.53317
1277.533176
1277.533173
1277.533183
1277.533178
1277.533197
1277.533203
1277.533224
1277.53321
1277.533165
1277.533126
1277.533025
1277.532734
1277.533814
1277.533816
1277.533861
1277.533854
1277.533867
1277.533883
1277.533914
1277.533916
1277.533894
1277.5339
1277.533873
1277.5338
1277.533519
1277.532702
1277.533247
1277.533225
1277.533239
1277.533253
1277.533237
1277.533223
1277.53321
1277.533223
1277.533233
1277.533199
1277.533136
1277.532882
1277.53189
1277.5286
1277.533435
1277.533457
1277.533465
1277.533468
1277.53348
1277.533483
1277.53348
1277.533471
1277.533462
1277.533426
1277.533273
1277.532581
1277.529344
1277.515571
1277.533056
1277.533056
1277.533066
1277.533048
1277.533041
1277.533053
1277.533051
1277.533059
1277.53302
1277.532984
1277.532735
1277.531383
1277.523408
1277.472625
1276.201769
1277.53248
1277.532504
1277.532514
1277.53253
1277.532546
1277.532543
1277.532543
1277.532518
1277.53249
1277.532433
1277.532259
1277.531548
1277.528335
1277.514552
1277.46692
1277.533263
1277.533246
1277.533243
1277.533248
1277.533245
1277.53324
1277.533253
1277.533265
1277.533266
1277.533251
1277.533201
1277.532932
1277.531914
1277.52862
1277.520579
1277.532717
1277.532667
1277.532638
1277.532635
1277.532635
1277.532617
1277.532621
1277.532614
1277.532579
1277.53256
1277.532547
1277.53245
1277.532146
1277.531321
1277.529583
1277.533097
1277.53309
1277.533098
1277.533097
1277.533082
1277.53309
1277.533102
1277.533084
1277.533096
1277.533074
1277.533067
1277.53302
1277.532905
1277.532639
1277.532094
1277.534128
1277.534107
1277.534124
1277.534133
1277.534135
1277.534161
1277.534157
1277.534135
1277.534149
1277.534121
1277.534112
1277.534076
1277.533969
1277.533752
1277.533047
1277.533046
1277.533059
1277.533064
1277.533037
1277.533042
1277.533027
1277.533005
1277.533008
1277.533049
1277.533026
1277.53294
1277.532746
1277.532178
1277.53307
1277.533056
1277.533037
1277.532998
1277.532988
1277.532999
1277.532985
1277.532979
1277.532994
1277.533004
1277.532938
1277.53276
1277.532116
1277.530293
1277.533913
1277.533903
1277.533867
1277.533888
1277.53387
1277.533866
1277.533872
1277.533885
1277.533855
1277.533814
1277.533688
1277.533235
1277.531566
1277.525882
1277.533446
1277.53344
1277.533434
1277.533431
1277.53344
1277.53346
1277.533459
1277.533444
1277.533386
1277.533367
1277.533239
1277.532532
1277.529334
1277.515559
1277.53377
1277.533748
1277.53375
1277.53375
1277.533744
1277.533747
1277.533732
1277.533731
1277.533715
1277.533702
1277.533594
1277.53317
1277.531526
1277.525848
1277.53305
1277.533035
1277.533051
1277.533049
1277.533074
1277.533079
1277.533074
1277.533086
1277.533054
1277.533029
1277.53297
1277.532793
1277.532133
1277.530349
1277.526446
1277.53332
1277.533331
1277.533304
1277.533293
1277.533283
1277.53329
1277.533269
1277.533247
1277.533259
1277.533248
1277.533241
1277.533166
1277.532953
1277.532393
1277.531271
1277.533189
1277.533186
1277.533178
1277.533183
1277.533164
1277.533169
1277.533168
1277.533152
1277.53315
1277.533156
1277.533137
1277.533083
1277.532962
1277.532767
1277.532327
1277.532935
1277.532916
1277.532923
1277.532964
1277.53296
1277.532942
1277.532945
1277.532962
1277.532972
1277.532992
1277.532973
1277.532954
1277.532934
1277.532802
1277.533692
1277.533675
1277.533652
1277.533646
1277.533642
1277.533685
1277.533658
1277.533685
1277.533675
1277.533675
1277.533631
1277.533606
1277.533485
1277.533208
1277.532343
1277.532331
1277.532369
1277.53235
1277.532356
1277.532323
1277.532306
1277.532324
1277.532325
1277.532283
1277.532244
1277.532159
1277.531862
1277.531129
1277.53341
1277.533439
1277.533425
1277.533415
1277.53344
1277.533423
1277.533437
1277.533442
1277.533436
1277.533423
1277.53342
1277.533234
1277.53263
1277.530822
1277.534099
1277.534098
1277.534119
1277.534119
1277.534137
1277.534144
1277.534136
1277.534167
1277.534165
1277.534149
1277.53408
1277.533817
1277.532807
1277.529495
1277.53305
1277.533029
1277.533026
1277.533021
1277.533008
1277.532999
1277.53299
1277.532997
1277.533002
1277.532973
1277.532959
1277.532745
1277.532104
1277.530307
1277.532963
1277.532961
1277.532986
1277.532989
1277.533
1277.532986
1277.532984
1277.532977
1277.532984
1277.532988
1277.532957
1277.532876
1277.532601
1277.531862
1277.533692
1277.533709
1277.533699
1277.53371
1277.533747
1277.533734
1277.533721
1277.5337
1277.533682
1277.533656
1277.533665
1277.533613
1277.533492
1277.533248
1277.532719
1277.533143
1277.533134
1277.533108
1277.533121
1277.533118
1277.533109
1277.533128
1277.533131
1277.533141
1277.533143
1277.533126
1277.533129
1277.533099
1277.532997
1277.532728
1277.532744
1277.532764
1277.532743
1277.53276
1277.532768
1277.532766
1277.532743
1277.532746
1277.532727
1277.532748
1277.532739
1277.532734
1277.532695
1277.532649
1277.532614
1277.53263
1277.532629
1277.53261
1277.532613
1277.532618
1277.53263
1277.53264
1277.532656
1277.532643
1277.532634
1277.532607
1277.532599
1277.532495
1277.533996
1277.533994
1277.533982
1277.533969
1277.533962
1277.533953
1277.53396
1277.533967
1277.533971
1277.533973
1277.533962
1277.533916
1277.533789
1277.533522
1277.533601
1277.533584
1277.533587
1277.533606
1277.533602
1277.533598
1277.533592
1277.533607
1277.533605
1277.533621
1277.533602
1277.533541
1277.533283
1277.532742
1277.533467
1277.533478
1277.533485
1277.533483
1277.533457
1277.533475
1277.533465
1277.533481
1277.533495
1277.533496
1277.533488
1277.533418
1277.53312
1277.532285
1277.534162
1277.534173
1277.534182
1277.53417
1277.534157
1277.534163
1277.534159
1277.534143
1277.53417
1277.534195
1277.534145
1277.534065
1277.533869
1277.533322
1277.532336
1277.532367
1277.532377
1277.532397
1277.53241
1277.532432
1277.532446
1277.532461
1277.532495
1277.532494
1277.532499
1277.532453
1277.532315
1277.532034
1277.532645
1277.532615
1277.532641
1277.532631
1277.532621
1277.53263
1277.532668
1277.532684
1277.532674
1277.53264
1277.53264
1277.53264
1277.532594
1277.532461
1277.53314
1277.533138
1277.533148
1277.53315
1277.533127
1277.533145
1277.533128
1277.533119
1277.533106
1277.533118
1277.533112
1277.533087
1277.533068
1277.532982
1277.532852
1277.532717
1277.532695
1277.532698
1277.5327
1277.532724
1277.532703
1277.532694
1277.532708
1277.532712
1277.532708
1277.532703
1277.532691
1277.532669
1277.532662
1277.533358
1277.533366
1277.533406
1277.533433
1277.533416
1277.533415
1277.533398
1277.533399
1277.533402
1277.533404
1277.533394
1277.533384
1277.53336
1277.533298
1277.533381
1277.53337
1277.533397
1277.533402
1277.5334
1277.533407
1277.533418
1277.533427
1277.533431
1277.533438
1277.53342
1277.533398
1277.533343
1277.533225
1277.53335
1277.533326
1277.533329
1277.533343
1277.533351
1277.533327
1277.533319
1277.533308
1277.533278
1277.533299
1277.533267
1277.533242
1277.533188
1277.532984
1277.53281
1277.532814
1277.532807
1277.532782
1277.532787
1277.532802
1277.532795
1277.532782
1277.532798
1277.532796
1277.532766
1277.532732
1277.532626
1277.53234
1277.533233
1277.533246
1277.533244
1277.533261
1277.533268
1277.533248
1277.533232
1277.533256
1277.533237
1277.533238
1277.533225
1277.533209
1277.533108
1277.532929
1277.532091
1277.532098
1277.532109
1277.5321
1277.532106
1277.532107
1277.532107
1277.532068
1277.532075
1277.532079
1277.5321
1277.532071
1277.532008
1277.53189
1277.533163
1277.533153
1277.533158
1277.533154
1277.533167
1277.533152
1277.533166
1277.53315
1277.53316
1277.533138
1277.533168
1277.533158
1277.533133
1277.533078
1277.533603
1277.533588
1277.533607
1277.533591
1277.533576
1277.533573
1277.53356
1277.533548
1277.533537
1277.533553
1277.533535
1277.533543
1277.533512
1277.533485
)
;

boundaryField
{
    top
    {
        type            calculated;
        value           nonuniform List<scalar> 
134
(
1277.53312
1277.533618
1277.533039
1277.533504
1277.533097
1277.533189
1277.533143
1277.53314
1277.533603
1277.53314
1277.533627
1277.533061
1277.533516
1277.53309
1277.533186
1277.533134
1277.533138
1277.533588
1277.533151
1277.533621
1277.533074
1277.533519
1277.533098
1277.533178
1277.533108
1277.533148
1277.533607
1277.533119
1277.533635
1277.533063
1277.533521
1277.533097
1277.533183
1277.533121
1277.53315
1277.533591
1277.533104
1277.533633
1277.533046
1277.533531
1277.533082
1277.533164
1277.533118
1277.533127
1277.533576
1277.533124
1277.533633
1277.533058
1277.533514
1277.53309
1277.533169
1277.533109
1277.533145
1277.533573
1277.533118
1277.533642
1277.533039
1277.53353
1277.533102
1277.533168
1277.533128
1277.533128
1277.53356
1277.533135
1277.533663
1277.533049
1277.533547
1277.533084
1277.533152
1277.533131
1277.533119
1277.533548
1277.53312
1277.533659
1277.533054
1277.533538
1277.533096
1277.53315
1277.533141
1277.533106
1277.533537
1277.533117
1277.533663
1277.533056
1277.533534
1277.533074
1277.533156
1277.533143
1277.533118
1277.533553
1277.53311
1277.533659
1277.533064
1277.533493
1277.533067
1277.533137
1277.533126
1277.533112
1277.533535
1277.533112
1277.533638
1277.533026
1277.533464
1277.53302
1277.533083
1277.533129
1277.533087
1277.533543
1277.533084
1277.533616
1277.532971
1277.533377
1277.532905
1277.532962
1277.533099
1277.533068
1277.533512
1277.533066
1277.533536
1277.532843
1277.533152
1277.532639
1277.532767
1277.532997
1277.532982
1277.533485
1277.53302
1277.533412
1277.532618
1277.532742
1277.532094
1277.532327
1277.532728
1277.532852
)
;
    }
    bottom
    {
        type            calculated;
        value           nonuniform List<scalar> 
127
(
1277.533243
1277.533259
1277.533001
1277.532466
1277.53314
1277.534128
1277.532935
1277.532744
1277.532717
1277.53325
1277.533254
1277.532992
1277.532457
1277.53317
1277.534107
1277.532916
1277.532764
1277.532695
1277.533249
1277.533238
1277.532998
1277.532437
1277.533176
1277.534124
1277.532923
1277.532743
1277.532698
1277.533248
1277.533233
1277.532988
1277.532433
1277.533173
1277.534133
1277.532964
1277.53276
1277.5327
1277.533233
1277.533219
1277.532989
1277.532438
1277.533183
1277.534135
1277.53296
1277.532768
1277.532724
1277.533221
1277.533239
1277.53298
1277.532447
1277.533178
1277.534161
1277.532942
1277.532766
1277.532703
1277.533232
1277.533238
1277.532967
1277.532471
1277.533197
1277.534157
1277.532945
1277.532743
1277.532694
1277.533238
1277.533235
1277.532971
1277.532476
1277.533203
1277.534135
1277.532962
1277.532746
1277.532708
1277.533231
1277.533268
1277.53297
1277.532454
1277.533224
1277.534149
1277.532972
1277.532727
1277.532712
1277.533235
1277.533237
1277.532984
1277.532462
1277.53321
1277.534121
1277.532992
1277.532748
1277.532708
1277.533231
1277.533237
1277.533003
1277.532465
1277.533165
1277.534112
1277.532973
1277.532739
1277.532703
1277.533222
1277.533223
1277.532974
1277.532445
1277.533126
1277.534076
1277.532954
1277.532734
1277.532691
1277.533207
1277.533181
1277.532919
1277.532359
1277.533025
1277.533969
1277.532934
1277.532695
1277.532669
1277.533179
1277.533097
1277.532798
1277.532145
1277.532734
1277.533752
1277.532802
1277.532649
1277.532662
1277.533117
)
;
    }
    side-walls
    {
        type            calculated;
        value           nonuniform List<scalar> 
261
(
1277.533243
1277.533107
1277.532934
1277.533102
1277.533066
1277.53325
1277.53282
1277.53277
1277.53312
1277.53325
1277.533139
1277.532937
1277.533078
1277.533086
1277.533248
1277.532811
1277.532756
1277.53314
1277.533249
1277.533135
1277.53293
1277.533055
1277.533089
1277.533226
1277.532797
1277.532758
1277.533151
1277.533248
1277.533124
1277.532931
1277.53308
1277.533103
1277.533222
1277.532824
1277.532782
1277.533119
1277.533233
1277.533122
1277.532947
1277.533105
1277.533108
1277.53324
1277.532824
1277.53278
1277.533104
1277.533221
1277.533118
1277.532952
1277.533106
1277.533128
1277.533231
1277.532819
1277.53278
1277.533124
1277.533232
1277.533107
1277.532939
1277.533098
1277.533133
1277.53325
1277.5328
1277.53278
1277.533118
1277.533238
1277.533104
1277.532925
1277.533133
1277.533133
1277.533254
1277.532795
1277.532809
1277.533135
1277.533231
1277.533116
1277.532963
1277.533125
1277.533106
1277.533247
1277.5328
1277.532805
1277.53312
1277.533235
1277.533116
1277.532963
1277.533099
1277.533139
1277.533243
1277.532774
1277.532787
1277.533117
1277.533231
1277.533119
1277.532957
1277.533075
1277.533109
1277.533238
1277.53277
1277.532781
1277.53311
1277.533222
1277.53309
1277.532926
1277.533041
1277.533076
1277.533215
1277.532722
1277.532773
1277.533112
1277.533207
1277.533093
1277.53286
1277.532924
1277.532952
1277.533121
1277.532698
1277.532721
1277.533084
1277.533179
1277.533021
1277.532741
1277.53272
1277.532658
1277.532922
1277.532612
1277.532656
1277.533066
1277.533117
1277.532891
1277.532504
1277.532329
1277.53209
1277.532526
1277.532369
1277.532522
1277.53302
1277.532717
1277.533358
1277.533381
1277.53335
1277.53281
1277.533233
1277.532091
1277.533163
1277.533603
1277.532695
1277.533366
1277.53337
1277.533326
1277.532814
1277.533246
1277.532098
1277.533153
1277.533588
1277.532698
1277.533406
1277.533397
1277.533329
1277.532807
1277.533244
1277.532109
1277.533158
1277.533607
1277.5327
1277.533433
1277.533402
1277.533343
1277.532782
1277.533261
1277.5321
1277.533154
1277.533591
1277.532724
1277.533416
1277.5334
1277.533351
1277.532787
1277.533268
1277.532106
1277.533167
1277.533576
1277.532703
1277.533415
1277.533407
1277.533327
1277.532802
1277.533248
1277.532107
1277.533152
1277.533573
1277.532694
1277.533398
1277.533418
1277.533319
1277.532795
1277.533232
1277.532107
1277.533166
1277.53356
1277.532708
1277.533399
1277.533427
1277.533308
1277.532782
1277.533256
1277.532068
1277.53315
1277.533548
1277.532712
1277.533402
1277.533431
1277.533278
1277.532798
1277.533237
1277.532075
1277.53316
1277.533537
1277.532708
1277.533404
1277.533438
1277.533299
1277.532796
1277.533238
1277.532079
1277.533138
1277.533553
1277.532703
1277.533394
1277.53342
1277.533267
1277.532766
1277.533225
1277.5321
1277.533168
1277.533535
1277.532691
1277.533384
1277.533398
1277.533242
1277.532732
1277.533209
1277.532071
1277.533158
1277.533543
1277.532669
1277.53336
1277.533343
1277.533188
1277.532626
1277.533108
1277.532008
1277.533133
1277.533512
1277.532662
1277.533298
1277.533225
1277.532984
1277.53234
1277.532929
1277.53189
1277.533078
1277.533485
)
;
    }
    inlet
    {
        type            calculated;
        value           nonuniform List<scalar> 
81
(
1277.533243
1277.533107
1277.532934
1277.533102
1277.533066
1277.53325
1277.53282
1277.53277
1277.53312
1277.533259
1277.533364
1277.533363
1277.532724
1277.534039
1277.533268
1277.533396
1277.533337
1277.533618
1277.533001
1277.533248
1277.533478
1277.532567
1277.533667
1277.532592
1277.531959
1277.533885
1277.533039
1277.532466
1277.533584
1277.533447
1277.535162
1277.533258
1277.532014
1277.533852
1277.532495
1277.533504
1277.53314
1277.533814
1277.533247
1277.533435
1277.533056
1277.53248
1277.533263
1277.532717
1277.533097
1277.534128
1277.533047
1277.53307
1277.533913
1277.533446
1277.53377
1277.53305
1277.53332
1277.533189
1277.532935
1277.533692
1277.532343
1277.53341
1277.534099
1277.53305
1277.532963
1277.533692
1277.533143
1277.532744
1277.532614
1277.533996
1277.533601
1277.533467
1277.534162
1277.532336
1277.532645
1277.53314
1277.532717
1277.533358
1277.533381
1277.53335
1277.53281
1277.533233
1277.532091
1277.533163
1277.533603
)
;
    }
    outlet
    {
        type            calculated;
        value           nonuniform 0();
    }
    procBoundary0to1
    {
        type            processor;
        value           nonuniform List<scalar> 
97
(
1277.532982
1277.532988
1277.532696
1277.532118
1277.531684
1277.531295
1277.531881
1277.531996
1277.532326
1277.532885
1277.532988
1277.532988
1277.532506
1277.532268
1277.531522
1277.529286
1277.529042
1277.52985
1277.531584
1277.532495
1277.533196
1277.532578
1277.532268
1277.532268
1277.529032
1277.526886
1277.521755
1277.515016
1277.521893
1277.527302
1277.532126
1277.532233
1277.531726
1277.531627
1277.526886
1277.526886
1277.503733
1277.467968
1277.461013
1277.500608
1277.522941
1277.529165
1277.532153
1277.532177
1277.530937
1277.520558
1277.467968
1277.467968
1276.373145
1277.467963
1277.460305
1277.511668
1277.514636
1277.527557
1277.531303
1277.533387
1277.531092
1277.526428
1277.511695
1277.467963
1277.511668
1277.511668
1277.522293
1277.530374
1277.52978
1277.531691
1277.532542
1277.532686
1277.529655
1277.526954
1277.521451
1277.526394
1277.530374
1277.530374
1277.531904
1277.532231
1277.53232
1277.53253
1277.532245
1277.53296
1277.531661
1277.53056
1277.53225
1277.531493
1277.532231
1277.532231
1277.532659
1277.533399
1277.532559
1277.533178
1277.533006
1277.532576
1277.531807
1277.532527
1277.531648
1277.53298
1277.533399
)
;
    }
}


// ************************************************************************* //
