/*--------------------------------*- C++ -*----------------------------------*\
| =========                 |                                                 |
| \\      /  F ield         | OpenFOAM: The Open Source CFD Toolbox           |
|  \\    /   O peration     | Version:  4.x                                   |
|   \\  /    A nd           | Web:      www.OpenFOAM.org                      |
|    \\/     M anipulation  |                                                 |
\*---------------------------------------------------------------------------*/
FoamFile
{
    version     2.0;
    format      ascii;
    class       volScalarField;
    location    "6000";
    object      H2;
}
// * * * * * * * * * * * * * * * * * * * * * * * * * * * * * * * * * * * * * //

dimensions      [0 0 0 0 0 0 0];

internalField   nonuniform List<scalar> 
1175
(
0.004463823179
0.004463823179
0.004463823178
0.004463823178
0.004463823177
0.004463823172
0.004463823156
0.004463823104
0.004463822944
0.00446382247
0.004463821145
0.004463817686
0.004463809371
0.004463791276
0.004463756153
0.004463823179
0.004463823179
0.004463823178
0.004463823178
0.004463823176
0.00446382317
0.004463823149
0.004463823077
0.004463822848
0.004463822143
0.004463820092
0.004463814521
0.004463800677
0.0044637699
0.004463710173
0.004463823179
0.004463823178
0.004463823178
0.004463823178
0.004463823175
0.004463823167
0.004463823136
0.00446382303
0.004463822673
0.004463821523
0.004463818018
0.004463808052
0.004463782239
0.004463723197
0.004463608375
0.004463823178
0.004463823178
0.004463823178
0.004463823177
0.004463823175
0.004463823163
0.004463823123
0.004463822979
0.004463822477
0.0044638208
0.004463815471
0.004463799645
0.00446375688
0.004463655726
0.004463457662
0.004463823178
0.004463823178
0.004463823178
0.004463823177
0.004463823174
0.004463823162
0.004463823117
0.004463822955
0.004463822381
0.004463820427
0.004463814065
0.004463794638
0.004463740451
0.00446360832
0.004463346453
0.004463823178
0.004463823178
0.004463823178
0.004463823177
0.004463823175
0.004463823163
0.004463823123
0.004463822979
0.004463822477
0.0044638208
0.004463815471
0.004463799645
0.00446375688
0.004463655727
0.004463457665
0.004463823179
0.004463823178
0.004463823178
0.004463823178
0.004463823175
0.004463823167
0.004463823136
0.00446382303
0.004463822673
0.004463821523
0.004463818018
0.004463808052
0.00446378224
0.004463723199
0.004463608379
0.004463823179
0.004463823179
0.004463823178
0.004463823178
0.004463823176
0.00446382317
0.004463823149
0.004463823077
0.004463822848
0.004463822143
0.004463820092
0.004463814521
0.004463800677
0.004463769901
0.004463710177
0.004463823179
0.004463823179
0.004463823178
0.004463823178
0.004463823177
0.004463823172
0.004463823156
0.004463823104
0.004463822944
0.00446382247
0.004463821145
0.004463817686
0.004463809372
0.004463791278
0.004463756156
0.004463823179
0.004463823179
0.004463823178
0.004463823178
0.004463823176
0.00446382317
0.004463823149
0.004463823077
0.004463822848
0.004463822143
0.004463820092
0.004463814521
0.004463800676
0.004463769898
0.004463823179
0.004463823178
0.004463823178
0.004463823178
0.004463823175
0.004463823167
0.004463823138
0.004463823034
0.004463822687
0.00446382156
0.004463818095
0.004463808158
0.004463782208
0.004463722489
0.004463606258
0.004463823178
0.004463823178
0.004463823178
0.004463823177
0.004463823174
0.004463823162
0.004463823118
0.004463822955
0.004463822375
0.004463820381
0.004463813855
0.004463793895
0.004463738473
0.004463604708
0.004463341771
0.004463823178
0.004463823178
0.004463823178
0.004463823177
0.004463823173
0.004463823157
0.004463823097
0.004463822865
0.004463822003
0.004463818882
0.004463808055
0.00446377274
0.004463667816
0.004463398614
0.004462856619
0.004463823178
0.004463823178
0.004463823178
0.004463823177
0.004463823173
0.004463823155
0.004463823086
0.00446382282
0.004463821805
0.004463818021
0.004463804385
0.004463757716
0.004463610622
0.004463207517
0.004462359118
0.004463823178
0.004463823178
0.004463823178
0.004463823177
0.004463823173
0.004463823157
0.004463823097
0.004463822865
0.004463822003
0.004463818882
0.004463808055
0.00446377274
0.004463667818
0.004463398619
0.00446285663
0.004463823179
0.004463823178
0.004463823178
0.004463823177
0.004463823174
0.004463823162
0.004463823118
0.004463822955
0.004463822375
0.004463820381
0.004463813855
0.004463793895
0.004463738475
0.004463604714
0.004463341784
0.004463823179
0.004463823178
0.004463823178
0.004463823178
0.004463823175
0.004463823167
0.004463823138
0.004463823034
0.004463822687
0.00446382156
0.004463818095
0.004463808158
0.00446378221
0.004463722493
0.004463606268
0.004463823179
0.004463823179
0.004463823178
0.004463823178
0.004463823176
0.00446382317
0.004463823149
0.004463823077
0.004463822848
0.004463822143
0.004463820092
0.004463814521
0.004463800677
0.004463769901
0.004463710176
0.004463823179
0.004463823178
0.004463823178
0.004463823178
0.004463823175
0.004463823167
0.004463823136
0.00446382303
0.004463822673
0.004463821523
0.004463818018
0.004463808051
0.004463782238
0.004463723194
0.004463823178
0.004463823178
0.004463823178
0.004463823177
0.004463823174
0.004463823162
0.004463823118
0.004463822955
0.004463822375
0.004463820381
0.004463813855
0.004463793894
0.004463738472
0.004463604703
0.004463823178
0.004463823178
0.004463823178
0.004463823177
0.004463823173
0.004463823155
0.004463823084
0.00446382281
0.004463821767
0.004463817911
0.004463804237
0.004463758697
0.004463620865
0.00446326225
0.004462537203
0.004463823178
0.004463823178
0.004463823178
0.004463823177
0.004463823171
0.004463823146
0.004463823046
0.004463822636
0.004463820984
0.004463814453
0.004463789416
0.004463698196
0.004463392923
0.004462512807
0.004460615318
0.004463823178
0.004463823178
0.004463823178
0.004463823176
0.00446382317
0.004463823142
0.004463823027
0.004463822543
0.004463820528
0.004463812209
0.004463778431
0.004463645628
0.00446315442
0.004461548179
0.00445762267
0.004463823178
0.004463823178
0.004463823178
0.004463823177
0.004463823171
0.004463823146
0.004463823046
0.004463822636
0.004463820984
0.004463814453
0.004463789416
0.004463698198
0.004463392931
0.004462512834
0.004460615384
0.004463823178
0.004463823178
0.004463823178
0.004463823177
0.004463823173
0.004463823155
0.004463823084
0.00446382281
0.004463821767
0.004463817911
0.004463804237
0.004463758699
0.004463620872
0.004463262272
0.004462537259
0.004463823178
0.004463823178
0.004463823178
0.004463823177
0.004463823174
0.004463823162
0.004463823118
0.004463822955
0.004463822375
0.004463820381
0.004463813855
0.004463793895
0.004463738475
0.004463604714
0.004463341784
0.004463823179
0.004463823178
0.004463823178
0.004463823178
0.004463823175
0.004463823167
0.004463823136
0.00446382303
0.004463822673
0.004463821523
0.004463818018
0.004463808052
0.00446378224
0.004463723199
0.004463608379
0.004463823178
0.004463823178
0.004463823178
0.004463823177
0.004463823175
0.004463823163
0.004463823123
0.004463822979
0.004463822477
0.0044638208
0.004463815471
0.004463799644
0.004463756878
0.00446365572
0.004463823178
0.004463823178
0.004463823178
0.004463823177
0.004463823173
0.004463823157
0.004463823097
0.004463822865
0.004463822003
0.004463818882
0.004463808055
0.004463772739
0.004463667812
0.004463398599
0.004463823178
0.004463823178
0.004463823178
0.004463823177
0.004463823171
0.004463823146
0.004463823046
0.004463822636
0.004463820984
0.004463814453
0.004463789415
0.004463698194
0.004463392914
0.00446251277
0.004463823178
0.004463823178
0.004463823178
0.004463823176
0.004463823168
0.004463823134
0.004463822985
0.004463822345
0.004463819572
0.004463807631
0.004463756924
0.004463548012
0.004462738793
0.004459980576
0.004453053121
0.004463823178
0.004463823178
0.004463823178
0.004463823176
0.004463823167
0.004463823128
0.004463822954
0.004463822177
0.004463818664
0.004463802578
0.00446372823
0.004463383791
0.004461813287
0.004455097149
0.004432200857
0.004463823178
0.004463823178
0.004463823178
0.004463823176
0.004463823168
0.004463823134
0.004463822985
0.004463822345
0.004463819572
0.004463807632
0.004463756926
0.00446354802
0.004462738825
0.004459980694
0.004453053488
0.004463823178
0.004463823178
0.004463823178
0.004463823177
0.004463823171
0.004463823146
0.004463823046
0.004463822636
0.004463820984
0.004463814453
0.004463789416
0.004463698198
0.004463392929
0.00446251283
0.004460615379
0.004463823178
0.004463823178
0.004463823178
0.004463823177
0.004463823173
0.004463823157
0.004463823097
0.004463822865
0.004463822003
0.004463818882
0.004463808055
0.00446377274
0.004463667818
0.004463398619
0.004462856632
0.004463823178
0.004463823178
0.004463823178
0.004463823177
0.004463823175
0.004463823163
0.004463823123
0.004463822979
0.004463822477
0.0044638208
0.004463815471
0.004463799645
0.00446375688
0.004463655727
0.004463457666
0.004463823178
0.004463823178
0.004463823178
0.004463823177
0.004463823174
0.004463823162
0.004463823117
0.004463822955
0.004463822381
0.004463820427
0.004463814065
0.004463794637
0.004463740448
0.004463608312
0.004463823178
0.004463823178
0.004463823178
0.004463823177
0.004463823173
0.004463823155
0.004463823086
0.00446382282
0.004463821805
0.004463818021
0.004463804384
0.004463757714
0.004463610615
0.004463207495
0.004463823178
0.004463823178
0.004463823178
0.004463823176
0.00446382317
0.004463823142
0.004463823027
0.004463822543
0.004463820528
0.004463812209
0.00446377843
0.004463645624
0.004463154401
0.004461548102
0.004463823178
0.004463823178
0.004463823178
0.004463823176
0.004463823167
0.004463823128
0.004463822954
0.004463822177
0.004463818664
0.004463802577
0.004463728229
0.004463383783
0.004461813242
0.004455096863
0.004463823178
0.004463823178
0.004463823178
0.004463823176
0.004463823165
0.00446382312
0.004463822914
0.004463821956
0.004463817367
0.004463794561
0.004463675759
0.00446301978
0.004459140158
0.004434392368
0.004263239623
0.004463823178
0.004463823178
0.004463823178
0.004463823176
0.004463823167
0.004463823128
0.004463822954
0.004463822177
0.004463818664
0.004463802578
0.00446372823
0.004463383792
0.00446181329
0.004455097155
0.004432200882
0.004463823178
0.004463823178
0.004463823178
0.004463823176
0.00446382317
0.004463823142
0.004463823027
0.004463822543
0.004463820528
0.004463812209
0.004463778431
0.004463645628
0.00446315442
0.00446154818
0.004457622683
0.004463823178
0.004463823178
0.004463823178
0.004463823177
0.004463823173
0.004463823155
0.004463823086
0.00446382282
0.004463821805
0.004463818021
0.004463804385
0.004463757716
0.004463610623
0.004463207519
0.004462359125
0.004463823178
0.004463823178
0.004463823178
0.004463823177
0.004463823174
0.004463823162
0.004463823117
0.004463822955
0.004463822381
0.004463820427
0.004463814065
0.004463794638
0.004463740451
0.004463608321
0.004463346455
0.004463823178
0.004463823178
0.004463823178
0.004463823177
0.004463823175
0.004463823163
0.004463823123
0.004463822979
0.004463822477
0.0044638208
0.004463815471
0.004463799644
0.004463756878
0.00446365572
0.004463823178
0.004463823178
0.004463823178
0.004463823177
0.004463823173
0.004463823157
0.004463823097
0.004463822865
0.004463822003
0.004463818882
0.004463808055
0.004463772739
0.004463667812
0.004463398602
0.004463823178
0.004463823178
0.004463823178
0.004463823177
0.004463823171
0.004463823146
0.004463823046
0.004463822636
0.004463820984
0.004463814453
0.004463789415
0.004463698194
0.004463392914
0.00446251278
0.004463823178
0.004463823178
0.004463823178
0.004463823176
0.004463823168
0.004463823134
0.004463822985
0.004463822345
0.004463819572
0.004463807631
0.004463756923
0.004463548011
0.004462738784
0.004459980537
0.004463823178
0.004463823178
0.004463823178
0.004463823176
0.004463823167
0.004463823128
0.004463822954
0.004463822177
0.004463818664
0.004463802577
0.004463728229
0.004463383782
0.004461813239
0.004455096858
0.004463823178
0.004463823178
0.004463823178
0.004463823176
0.004463823168
0.004463823134
0.004463822985
0.004463822345
0.004463819572
0.004463807631
0.004463756924
0.004463548013
0.004462738793
0.004459980558
0.004463823178
0.004463823178
0.004463823178
0.004463823177
0.004463823171
0.004463823146
0.004463823046
0.004463822636
0.004463820984
0.004463814453
0.004463789416
0.004463698196
0.004463392921
0.004462512801
0.004460615293
0.004463823178
0.004463823178
0.004463823178
0.004463823177
0.004463823173
0.004463823157
0.004463823097
0.004463822865
0.004463822003
0.004463818882
0.004463808055
0.00446377274
0.004463667816
0.004463398611
0.004462856615
0.004463823179
0.004463823178
0.004463823178
0.004463823177
0.004463823175
0.004463823163
0.004463823123
0.004463822979
0.004463822477
0.0044638208
0.004463815471
0.004463799645
0.00446375688
0.004463655725
0.004463457662
0.004463823179
0.004463823178
0.004463823178
0.004463823178
0.004463823175
0.004463823167
0.004463823136
0.00446382303
0.004463822673
0.004463821523
0.004463818018
0.004463808051
0.004463782238
0.004463723195
0.004463823178
0.004463823178
0.004463823178
0.004463823177
0.004463823174
0.004463823162
0.004463823118
0.004463822955
0.004463822375
0.004463820381
0.004463813854
0.004463793894
0.004463738472
0.004463604705
0.004463823178
0.004463823178
0.004463823178
0.004463823177
0.004463823173
0.004463823155
0.004463823084
0.00446382281
0.004463821767
0.004463817911
0.004463804236
0.004463758696
0.004463620864
0.004463262248
0.004463823178
0.004463823178
0.004463823178
0.004463823177
0.004463823171
0.004463823146
0.004463823046
0.004463822636
0.004463820984
0.004463814453
0.004463789415
0.004463698193
0.004463392912
0.004462512777
0.004463823178
0.004463823178
0.004463823178
0.004463823176
0.00446382317
0.004463823142
0.004463823027
0.004463822543
0.004463820528
0.004463812208
0.00446377843
0.004463645623
0.004463154397
0.004461548097
0.004463823178
0.004463823178
0.004463823178
0.004463823177
0.004463823171
0.004463823146
0.004463823046
0.004463822636
0.004463820984
0.004463814453
0.004463789415
0.004463698194
0.004463392915
0.004462512784
0.004463823178
0.004463823178
0.004463823178
0.004463823177
0.004463823173
0.004463823155
0.004463823084
0.00446382281
0.004463821767
0.004463817911
0.004463804237
0.004463758696
0.004463620865
0.004463262247
0.004463823178
0.004463823178
0.004463823178
0.004463823177
0.004463823174
0.004463823162
0.004463823118
0.004463822955
0.004463822375
0.004463820381
0.004463813855
0.004463793895
0.004463738473
0.004463604707
0.004463341767
0.004463823179
0.004463823178
0.004463823178
0.004463823178
0.004463823175
0.004463823167
0.004463823136
0.00446382303
0.004463822673
0.004463821523
0.004463818018
0.004463808051
0.004463782239
0.004463723197
0.004463608374
0.004463823179
0.004463823179
0.004463823178
0.004463823178
0.004463823176
0.00446382317
0.004463823149
0.004463823077
0.004463822848
0.004463822143
0.004463820092
0.004463814521
0.004463800676
0.004463769899
0.004463823179
0.004463823178
0.004463823178
0.004463823178
0.004463823175
0.004463823167
0.004463823138
0.004463823034
0.004463822687
0.00446382156
0.004463818094
0.004463808158
0.004463782208
0.004463722489
0.004463823178
0.004463823178
0.004463823178
0.004463823177
0.004463823174
0.004463823162
0.004463823118
0.004463822955
0.004463822375
0.004463820381
0.004463813854
0.004463793894
0.004463738472
0.004463604704
0.004463823178
0.004463823178
0.004463823178
0.004463823177
0.004463823173
0.004463823157
0.004463823097
0.004463822865
0.004463822003
0.004463818882
0.004463808055
0.004463772738
0.004463667811
0.004463398601
0.004463823178
0.004463823178
0.004463823178
0.004463823177
0.004463823173
0.004463823155
0.004463823086
0.00446382282
0.004463821805
0.004463818021
0.004463804384
0.004463757713
0.004463610614
0.004463207495
0.004463823178
0.004463823178
0.004463823178
0.004463823177
0.004463823173
0.004463823157
0.004463823097
0.004463822865
0.004463822003
0.004463818882
0.004463808055
0.004463772738
0.004463667812
0.004463398602
0.004463823178
0.004463823178
0.004463823178
0.004463823177
0.004463823174
0.004463823162
0.004463823118
0.004463822955
0.004463822375
0.004463820381
0.004463813855
0.004463793894
0.004463738472
0.004463604705
0.004463823179
0.004463823178
0.004463823178
0.004463823178
0.004463823175
0.004463823167
0.004463823138
0.004463823034
0.004463822687
0.00446382156
0.004463818095
0.004463808158
0.004463782208
0.004463722489
0.004463823179
0.004463823179
0.004463823178
0.004463823178
0.004463823176
0.00446382317
0.004463823149
0.004463823077
0.004463822848
0.004463822143
0.004463820092
0.004463814521
0.004463800677
0.004463769899
0.004463710172
0.004463823179
0.004463823179
0.004463823178
0.004463823178
0.004463823177
0.004463823172
0.004463823156
0.004463823104
0.004463822944
0.00446382247
0.004463821145
0.004463817686
0.004463809371
0.004463791276
0.004463823179
0.004463823179
0.004463823178
0.004463823178
0.004463823176
0.00446382317
0.004463823149
0.004463823077
0.004463822848
0.004463822143
0.004463820092
0.004463814521
0.004463800676
0.004463769899
0.004463823179
0.004463823178
0.004463823178
0.004463823178
0.004463823175
0.004463823167
0.004463823136
0.00446382303
0.004463822673
0.004463821523
0.004463818018
0.004463808051
0.004463782238
0.004463723195
0.004463823178
0.004463823178
0.004463823178
0.004463823177
0.004463823175
0.004463823163
0.004463823123
0.004463822979
0.004463822477
0.0044638208
0.004463815471
0.004463799644
0.004463756878
0.00446365572
0.004463823178
0.004463823178
0.004463823178
0.004463823177
0.004463823174
0.004463823162
0.004463823117
0.004463822955
0.004463822381
0.004463820427
0.004463814065
0.004463794637
0.004463740448
0.004463608313
0.004463823178
0.004463823178
0.004463823178
0.004463823177
0.004463823175
0.004463823163
0.004463823123
0.004463822979
0.004463822477
0.0044638208
0.004463815471
0.004463799644
0.004463756878
0.00446365572
0.004463823179
0.004463823178
0.004463823178
0.004463823178
0.004463823175
0.004463823167
0.004463823136
0.00446382303
0.004463822673
0.004463821523
0.004463818018
0.004463808051
0.004463782238
0.004463723195
0.004463823179
0.004463823179
0.004463823178
0.004463823178
0.004463823176
0.00446382317
0.004463823149
0.004463823077
0.004463822848
0.004463822143
0.004463820092
0.004463814521
0.004463800676
0.004463769899
0.004463823179
0.004463823179
0.004463823178
0.004463823178
0.004463823177
0.004463823172
0.004463823156
0.004463823104
0.004463822944
0.00446382247
0.004463821145
0.004463817686
0.004463809371
0.004463791276
)
;

boundaryField
{
    top
    {
        type            zeroGradient;
    }
    bottom
    {
        type            zeroGradient;
    }
    side-walls
    {
        type            zeroGradient;
    }
    inlet
    {
        type            zeroGradient;
    }
    outlet
    {
        type            zeroGradient;
    }
    procBoundary0to1
    {
        type            processor;
        value           nonuniform List<scalar> 
97
(
0.004463695775
0.004463710171
0.004463610401
0.00446342388
0.004463154406
0.004462965082
0.00446315441
0.004463423886
0.004463610406
0.004463695779
0.004463710171
0.004463710171
0.004463421053
0.004463341761
0.004462950639
0.004462127475
0.00446136424
0.004462127491
0.004462950657
0.004463421065
0.004463610406
0.004463608371
0.004463341761
0.004463341761
0.004461582815
0.00446061525
0.004458589127
0.004454735546
0.004458589201
0.004461582876
0.004462950657
0.004463423886
0.004463457656
0.0044628566
0.00446061525
0.00446061525
0.004448471886
0.004432200488
0.00442895128
0.004448472149
0.004458589198
0.004462127495
0.004463154412
0.004463346445
0.004462359096
0.004457622588
0.004432200488
0.004432200488
0.004345916627
0.004432200524
0.004428951325
0.004453053303
0.004454735575
0.004461364256
0.004462965087
0.004463457658
0.004462856613
0.004460615321
0.004453053307
0.004432200524
0.004453053303
0.004453053303
0.004458589146
0.004462537216
0.004462127479
0.004463154408
0.004463608374
0.004463341774
0.004462537233
0.004460615317
0.004457622591
0.00446061533
0.004462537216
0.004462537216
0.004462950642
0.00446360626
0.00446342388
0.004463710174
0.004463606264
0.004463341773
0.004462856611
0.0044623591
0.004462856614
0.004463341773
0.00446360626
0.00446360626
0.004463610402
0.004463756154
0.004463756155
0.004463710174
0.004463608374
0.004463457658
0.004463346447
0.00446345766
0.004463608376
0.004463710174
0.004463756154
)
;
    }
}


// ************************************************************************* //
