/*--------------------------------*- C++ -*----------------------------------*\
| =========                 |                                                 |
| \\      /  F ield         | OpenFOAM: The Open Source CFD Toolbox           |
|  \\    /   O peration     | Version:  4.x                                   |
|   \\  /    A nd           | Web:      www.OpenFOAM.org                      |
|    \\/     M anipulation  |                                                 |
\*---------------------------------------------------------------------------*/
FoamFile
{
    version     2.0;
    format      ascii;
    class       volScalarField;
    location    "6000";
    object      molarConc;
}
// * * * * * * * * * * * * * * * * * * * * * * * * * * * * * * * * * * * * * //

dimensions      [0 -3 0 0 1 0 0];

internalField   nonuniform List<scalar> 
1175
(
9.963274971
9.963274599
9.963274684
9.963274707
9.963275472
9.963276066
9.963275541
9.963275217
9.963275566
9.963275301
9.963275316
9.963275302
9.963274932
9.963273906
9.963272335
9.963281875
9.963280265
9.963280448
9.963281038
9.963281141
9.963281303
9.963281905
9.963282035
9.963281405
9.963281263
9.963280859
9.963281599
9.963279545
9.963279095
9.963277685
9.963290699
9.963290551
9.963290887
9.963290865
9.96329002
9.963289794
9.963290449
9.963291142
9.963289129
9.963289006
9.963288846
9.963289077
9.963288917
9.963287025
9.963283617
9.963282131
9.963283358
9.963284529
9.963283246
9.963282
9.963281939
9.963282341
9.963280537
9.963280896
9.963281959
9.963282452
9.963282083
9.963282256
9.963279026
9.963272226
9.963283982
9.963282954
9.963282783
9.963282063
9.963281844
9.963280813
9.96328055
9.963280547
9.963281808
9.963279901
9.963280531
9.9632796
9.963278638
9.963275774
9.963269355
9.963274589
9.963274717
9.963275817
9.963276028
9.963275105
9.963275564
9.963274622
9.963274391
9.963274688
9.963274645
9.963274193
9.96327322
9.963272213
9.963268748
9.963262209
9.963296468
9.96329696
9.96329768
9.963296288
9.963296292
9.963296537
9.963297514
9.963297723
9.963297456
9.963298614
9.963298355
9.963299461
9.963297156
9.963293623
9.96329049
9.963299043
9.963299758
9.963299626
9.96329844
9.963298519
9.963298544
9.96329854
9.963297024
9.963297203
9.963298015
9.963298041
9.963297694
9.963298493
9.963297658
9.963296453
9.963281244
9.963280218
9.963279668
9.963281265
9.963282017
9.963281001
9.963281337
9.963280452
9.963281171
9.963281291
9.963281455
9.963280912
9.963281215
9.963279686
9.963277278
9.963274132
9.963274428
9.963275233
9.96327546
9.963276201
9.963275184
9.963275222
9.96327535
9.963273654
9.963275109
9.963274864
9.963274822
9.963275077
9.963275211
9.963268802
9.963267057
9.96326692
9.963266107
9.963266688
9.963266351
9.963266054
9.963266684
9.963266703
9.963266858
9.963268918
9.96326864
9.963269208
9.963266347
9.963263836
9.96326886
9.963269561
9.963269018
9.963269553
9.963270818
9.963271345
9.963271456
9.963271892
9.963272549
9.96327275
9.9632734
9.963272216
9.963271003
9.963267676
9.963258855
9.963301363
9.963300659
9.963300309
9.963300132
9.963299787
9.963300278
9.963299605
9.96329918
9.963300486
9.963300435
9.963299603
9.963298233
9.963295061
9.96328693
9.963270533
9.963234436
9.963233753
9.96323231
9.963232866
9.963235007
9.963235147
9.963235233
9.96323419
9.963233461
9.963233322
9.963232646
9.963231585
9.963227099
9.963214831
9.963188424
9.963273712
9.963272567
9.963272432
9.963272277
9.963272799
9.96327359
9.963272837
9.963273205
9.963273077
9.96327204
9.963271115
9.963269485
9.963267313
9.963258876
9.963243422
9.963267156
9.963267803
9.963268859
9.963269187
9.963268889
9.96326912
9.963268862
9.963268678
9.963269068
9.963267946
9.963268021
9.963266773
9.963264562
9.963260726
9.963252707
9.963270173
9.963271185
9.963271887
9.963271146
9.963271802
9.963272146
9.96327171
9.963271903
9.963272077
9.963273127
9.9632732
9.963272779
9.96327053
9.963269419
9.963264349
9.963255867
9.963255407
9.963255751
9.963255005
9.963255104
9.963255137
9.963254648
9.963253587
9.963253733
9.963253454
9.963253366
9.963253687
9.963252966
9.96325287
9.963251151
9.963287292
9.963287745
9.963287432
9.963287932
9.963287907
9.963288331
9.963289006
9.963288804
9.963288776
9.963287926
9.963286496
9.963286603
9.963285921
9.963284153
9.963274704
9.963275006
9.963273802
9.963273551
9.963274479
9.963274058
9.963273971
9.963274337
9.963273743
9.963273306
9.963274331
9.963273412
9.963270401
9.963266675
9.963263019
9.963262272
9.963261329
9.963259793
9.963260049
9.963260814
9.963260107
9.963259781
9.96325898
9.963258477
9.963258787
9.963257789
9.963253484
9.96324005
9.963217441
9.963309386
9.963308858
9.963310944
9.963309998
9.963310274
9.963310184
9.96331046
9.963311823
9.963311161
9.963311515
9.96331204
9.963309087
9.963300581
9.963272774
9.96321616
9.9632534
9.963255129
9.963253901
9.963253672
9.963255003
9.963255158
9.963254634
9.96325522
9.963254431
9.963253565
9.963252354
9.9632485
9.963233716
9.963184667
9.963065057
9.963308077
9.963308609
9.963308648
9.963309069
9.963309576
9.963309118
9.963308715
9.963307777
9.963307595
9.963307571
9.963305919
9.963303343
9.963294331
9.963266954
9.963208557
9.963340311
9.963340344
9.963341355
9.963340334
9.963339717
9.963340332
9.963340775
9.963340437
9.963341267
9.963341386
9.963343059
9.963340486
9.963336703
9.963325798
9.963304961
9.963242313
9.963243247
9.963243171
9.963241336
9.963240449
9.96324002
9.963239608
9.963241155
9.963241017
9.963239712
9.963239259
9.963238824
9.963237675
9.963234196
9.963226405
9.963285354
9.963284248
9.963283548
9.963284104
9.963284979
9.963284356
9.963285331
9.963284801
9.963284528
9.963284253
9.963283373
9.96328397
9.963283296
9.963281828
9.963277828
9.963314484
9.963314978
9.96331596
9.963316195
9.963315926
9.963315479
9.963314244
9.963313954
9.963314999
9.963314393
9.963313505
9.963312382
9.963311009
9.963308296
9.963257612
9.963257915
9.963257993
9.963257877
9.963258056
9.963256808
9.963257453
9.963257238
9.963257095
9.963257163
9.96325711
9.963256357
9.963252612
9.963243432
9.963264608
9.963264785
9.963264838
9.963265625
9.963264522
9.963263821
9.963262983
9.963263084
9.963263976
9.963264051
9.963263116
9.963259993
9.963251022
9.963224319
9.963177298
9.963177169
9.963176335
9.963177053
9.963176189
9.963176882
9.963177345
9.96317728
9.963175746
9.963173751
9.963173868
9.963167919
9.963142543
9.96305817
9.962845283
9.96327422
9.963274971
9.963274855
9.963274618
9.963275559
9.963275324
9.963275546
9.963276712
9.963277596
9.963277852
9.963273831
9.963265232
9.963215591
9.963010451
9.962344415
9.963337487
9.963338433
9.963336596
9.963335893
9.963335232
9.963334551
9.963335091
9.963333932
9.963333832
9.963334631
9.963333243
9.963325958
9.963301811
9.963217584
9.963005501
9.963243954
9.963245004
9.963245955
9.963247092
9.963248853
9.963249531
9.963249223
9.963249888
9.963249833
9.963251265
9.963250178
9.963247032
9.963238002
9.963211624
9.963154093
9.963313004
9.963312684
9.963312319
9.963311104
9.963311438
9.963311706
9.963312896
9.963312522
9.963311708
9.963310908
9.963310209
9.963308003
9.963304126
9.963294032
9.963277645
9.963261679
9.963261065
9.963260923
9.963260803
9.963260295
9.96326118
9.963260354
9.963259463
9.963259849
9.963259835
9.963261229
9.963260564
9.963259217
9.963257013
9.963251184
9.963280213
9.963278691
9.963278366
9.963278538
9.96327802
9.963278262
9.963277322
9.963276976
9.963275804
9.963276251
9.963277686
9.963277058
9.963274896
9.963271911
9.963245892
9.963245828
9.963243533
9.963243875
9.963243202
9.963242389
9.963240817
9.96324067
9.963241635
9.963240832
9.963240362
9.96323779
9.963232282
9.96321948
9.96327475
9.9632759
9.963275152
9.963274481
9.96327529
9.963275977
9.963276604
9.963275887
9.963275118
9.963275709
9.963274371
9.963269371
9.963253593
9.963204414
9.963265169
9.963264092
9.963263691
9.963263538
9.963262916
9.963262723
9.963262864
9.963263205
9.963263191
9.963262869
9.963260641
9.963249342
9.963202139
9.962996792
9.963284488
9.963284493
9.963283964
9.963284902
9.96328526
9.963284622
9.963284713
9.963284153
9.963285547
9.963284269
9.963280925
9.963261164
9.963143233
9.962386141
10.0038589
9.963313793
9.963312553
9.963312086
9.963311236
9.963310433
9.963310584
9.963310578
9.963311708
9.963312698
9.9633134
9.963312221
9.963301931
9.963253479
9.96304829
9.962381647
9.963273968
9.963274834
9.963274964
9.963274723
9.963274881
9.963275133
9.963274424
9.963273753
9.963273417
9.963273098
9.963271048
9.963266826
9.96325234
9.963203254
9.963082787
9.963301752
9.963304287
9.963305743
9.963305928
9.963305896
9.963306842
9.963306621
9.963306918
9.963308582
9.96330905
9.963307861
9.963306516
9.963302115
9.963289722
9.963263771
9.963282417
9.963282739
9.963282337
9.96328241
9.963283137
9.963282735
9.963282132
9.963283018
9.963282354
9.963283206
9.963282669
9.96328249
9.963281024
9.963276743
9.963269156
9.963229921
9.963231013
9.963230142
9.963229652
9.963229564
9.963228261
9.963228423
9.963229521
9.96322875
9.963229942
9.963229679
9.9632294
9.96322908
9.963226527
9.963284919
9.96328497
9.96328434
9.963284067
9.963285461
9.9632852
9.963285962
9.963287053
9.963286762
9.963284234
9.963283945
9.9632836
9.963279307
9.963271928
9.96328376
9.963284459
9.963285459
9.963287407
9.963287929
9.963287352
9.963288086
9.963288344
9.963287323
9.963285943
9.963285946
9.963282684
9.963274295
9.963248421
9.963240873
9.963241372
9.963243206
9.963242132
9.963243072
9.963243255
9.963242947
9.96324219
9.963243351
9.963243832
9.963243358
9.963238248
9.963214043
9.963131246
9.963264643
9.963264916
9.963265259
9.963265396
9.963264937
9.963263912
9.963263921
9.963264586
9.963267065
9.963265872
9.963262371
9.963251886
9.963202692
9.962997504
9.963248123
9.963249257
9.963249139
9.963249164
9.963249489
9.96324933
9.963250048
9.963250034
9.96325045
9.963249495
9.963248163
9.963241571
9.963216069
9.963132922
9.963284796
9.963285569
9.963284737
9.963284826
9.963283562
9.963283284
9.963283531
9.963282894
9.963284307
9.963284675
9.963284308
9.963280985
9.963273438
9.963245489
9.963188318
9.963271035
9.96327047
9.963271837
9.963272418
9.96327291
9.963272551
9.963273646
9.963274736
9.963273981
9.963274133
9.963273011
9.963272091
9.963268787
9.963260957
9.96324501
9.96327773
9.96327786
9.963278276
9.963278029
9.963278964
9.963278737
9.963278768
9.963279575
9.963279597
9.963279068
9.963279327
9.963279947
9.96328032
9.963276625
9.963272342
9.963290615
9.963291589
9.963291258
9.963289174
9.963289372
9.963290282
9.963290133
9.963289225
9.963288687
9.963287514
9.963287986
9.96328765
9.963285156
9.963283957
9.963252139
9.963252959
9.963254146
9.963254479
9.963254657
9.963252493
9.963253827
9.963252466
9.963252858
9.963252579
9.963253958
9.963252522
9.963251244
9.963247327
9.96332076
9.963321371
9.96331942
9.963320383
9.963320094
9.963321772
9.963322633
9.963321672
9.963321493
9.963323098
9.963323268
9.963321417
9.963317989
9.963306954
9.963266452
9.963264981
9.9632657
9.963266219
9.963264949
9.963265802
9.963265098
9.963264783
9.963264838
9.963264638
9.963261416
9.963258574
9.963248141
9.963221489
9.963231405
9.963231473
9.96323037
9.96323041
9.963229494
9.963229127
9.963229515
9.963227868
9.963227712
9.963227395
9.963226333
9.963221831
9.963206951
9.963158856
9.963284793
9.963285862
9.963286027
9.963286248
9.963286899
9.963287356
9.963287829
9.963287415
9.963286952
9.963287545
9.963284853
9.963283428
9.963274913
9.963247665
9.963289225
9.963289321
9.963288024
9.963287871
9.963287334
9.963288032
9.963288157
9.963288453
9.963287967
9.963287232
9.963286961
9.963284964
9.963280361
9.963269612
9.96325211
9.963251253
9.963251748
9.963251206
9.963249308
9.963249982
9.963250655
9.963251666
9.963252505
9.963253588
9.963252228
9.963252211
9.963250889
9.963245288
9.963236781
9.963280061
9.963280488
9.96328181
9.963281154
9.963281328
9.963281795
9.96328082
9.963280655
9.963280079
9.963279844
9.963280207
9.96327871
9.963276792
9.963274036
9.963272234
9.963300368
9.963299351
9.963300397
9.963299566
9.963299131
9.963299247
9.96330039
9.963300245
9.963301187
9.963300001
9.963300184
9.963299725
9.963299801
9.963298022
9.963306971
9.963306173
9.963306197
9.963307162
9.963307016
9.96330677
9.963306164
9.963305613
9.963304745
9.963305279
9.963305288
9.963305309
9.963302242
9.963299481
9.963236641
9.963236739
9.963237367
9.963238015
9.963238394
9.963238825
9.963238456
9.963238102
9.963237823
9.96323743
9.963237121
9.963236772
9.963235751
9.963231346
9.963256741
9.963257589
9.963257456
9.963256479
9.963256707
9.963256899
9.963257209
9.963256385
9.963256367
9.963255144
9.963254661
9.963252992
9.963251963
9.963243247
9.963263579
9.963262992
9.963262666
9.963262765
9.963264099
9.96326316
9.963263674
9.9632628
9.963261939
9.963261403
9.963259948
9.963257218
9.963252575
9.963240701
9.963228208
9.963227621
9.963227189
9.963227806
9.963228458
9.963228154
9.96322836
9.963229123
9.963227634
9.963225943
9.963227035
9.96322632
9.963222191
9.963213728
9.963321124
9.96331953
9.963319041
9.963318036
9.963317378
9.963316222
9.96331551
9.963314725
9.963312942
9.963312712
9.96331157
9.963311209
9.963310772
9.963307064
9.963305401
9.963306939
9.963305602
9.9633061
9.963306613
9.963306181
9.963304214
9.963303414
9.96330384
9.96330542
9.96330498
9.96330364
9.963302481
9.963301217
9.963280199
9.963280325
9.963279809
9.963279703
9.963280849
9.963279962
9.963280813
9.963281269
9.963281911
9.96328121
9.963281219
9.963281748
9.96328083
9.963281082
9.963279646
9.963301754
9.963302849
9.963302716
9.963302572
9.963301366
9.963302456
9.963302887
9.963302179
9.963301935
9.963302112
9.963302167
9.963302332
9.963302334
9.963300234
9.96326911
9.963268718
9.963266692
9.963265306
9.963266158
9.963266218
9.963267053
9.96326701
9.963266816
9.963266628
9.963266857
9.963266614
9.963265988
9.963264999
9.963267961
9.963268515
9.96326715
9.963266874
9.963266986
9.963266603
9.963266045
9.963265588
9.963265334
9.963264814
9.96326524
9.963265028
9.96326438
9.963262407
9.963269531
9.963270729
9.963270599
9.963269868
9.96326949
9.963270708
9.963271083
9.963271618
9.963273084
9.963271815
9.963272708
9.96327182
9.963268852
9.9632656
9.963297009
9.963296783
9.963297171
9.963298399
9.963298147
9.963297398
9.963297763
9.963298379
9.963297504
9.963297358
9.963297985
9.963297121
9.963295224
9.963291986
9.963275498
9.963274818
9.963274907
9.963274024
9.963273705
9.963274728
9.963275517
9.963274278
9.96327519
9.963274882
9.963274855
9.963273499
9.963272906
9.963268364
9.963333563
9.963333231
9.963332651
9.963333113
9.963332813
9.963332764
9.963332774
9.963334725
9.96333433
9.963333969
9.963332417
9.963332585
9.963332272
9.963330374
9.963279053
9.963279526
9.963279292
9.963279514
9.963278825
9.963279586
9.963278896
9.963279682
9.963279123
9.96328019
9.963278366
9.963278145
9.963277554
9.963276189
9.963256625
9.963257384
9.96325645
9.96325728
9.963258039
9.963258166
9.963258834
9.963259447
9.963259962
9.963259115
9.963259823
9.963258978
9.963259421
9.963258375
)
;

boundaryField
{
    top
    {
        type            calculated;
        value           nonuniform List<scalar> 
134
(
9.963281244
9.963255867
9.963285354
9.963261679
9.963282417
9.96327773
9.963280061
9.963280199
9.963256625
9.963280218
9.963255407
9.963284248
9.963261065
9.963282739
9.96327786
9.963280488
9.963280325
9.963257384
9.963279668
9.963255751
9.963283548
9.963260923
9.963282337
9.963278276
9.96328181
9.963279809
9.96325645
9.963281265
9.963255005
9.963284104
9.963260803
9.96328241
9.963278029
9.963281154
9.963279703
9.96325728
9.963282017
9.963255104
9.963284979
9.963260295
9.963283137
9.963278964
9.963281328
9.963280849
9.963258039
9.963281001
9.963255137
9.963284356
9.96326118
9.963282735
9.963278737
9.963281795
9.963279962
9.963258166
9.963281337
9.963254648
9.963285331
9.963260354
9.963282132
9.963278768
9.96328082
9.963280813
9.963258834
9.963280452
9.963253587
9.963284801
9.963259463
9.963283018
9.963279575
9.963280655
9.963281269
9.963259447
9.963281171
9.963253733
9.963284528
9.963259849
9.963282354
9.963279597
9.963280079
9.963281911
9.963259962
9.963281291
9.963253454
9.963284253
9.963259835
9.963283206
9.963279068
9.963279844
9.96328121
9.963259115
9.963281455
9.963253366
9.963283373
9.963261229
9.963282669
9.963279327
9.963280207
9.963281219
9.963259823
9.963280912
9.963253687
9.96328397
9.963260564
9.96328249
9.963279947
9.96327871
9.963281748
9.963258978
9.963281215
9.963252966
9.963283296
9.963259217
9.963281024
9.96328032
9.963276792
9.96328083
9.963259421
9.963279686
9.96325287
9.963281828
9.963257013
9.963276743
9.963276625
9.963274036
9.963281082
9.963258375
9.963277278
9.963251151
9.963277828
9.963251184
9.963269156
9.963272342
9.963272234
9.963279646
)
;
    }
    bottom
    {
        type            calculated;
        value           nonuniform List<scalar> 
127
(
9.963274971
9.963274132
9.963287292
9.963314484
9.963280213
9.963229921
9.963290615
9.963300368
9.963301754
9.963274599
9.963274428
9.963287745
9.963314978
9.963278691
9.963231013
9.963291589
9.963299351
9.963302849
9.963274684
9.963275233
9.963287432
9.96331596
9.963278366
9.963230142
9.963291258
9.963300397
9.963302716
9.963274707
9.96327546
9.963287932
9.963316195
9.963278538
9.963229652
9.963289174
9.963299566
9.963302572
9.963275472
9.963276201
9.963287907
9.963315926
9.96327802
9.963229564
9.963289372
9.963299131
9.963301366
9.963276066
9.963275184
9.963288331
9.963315479
9.963278262
9.963228261
9.963290282
9.963299247
9.963302456
9.963275541
9.963275222
9.963289006
9.963314244
9.963277322
9.963228423
9.963290133
9.96330039
9.963302887
9.963275217
9.96327535
9.963288804
9.963313954
9.963276976
9.963229521
9.963289225
9.963300245
9.963302179
9.963275566
9.963273654
9.963288776
9.963314999
9.963275804
9.96322875
9.963288687
9.963301187
9.963301935
9.963275301
9.963275109
9.963287926
9.963314393
9.963276251
9.963229942
9.963287514
9.963300001
9.963302112
9.963275316
9.963274864
9.963286496
9.963313505
9.963277686
9.963229679
9.963287986
9.963300184
9.963302167
9.963275302
9.963274822
9.963286603
9.963312382
9.963277058
9.9632294
9.96328765
9.963299725
9.963302332
9.963274932
9.963275077
9.963285921
9.963311009
9.963274896
9.96322908
9.963285156
9.963299801
9.963302334
9.963273906
9.963275211
9.963284153
9.963308296
9.963271911
9.963226527
9.963283957
9.963298022
9.963300234
9.963272335
)
;
    }
    side-walls
    {
        type            calculated;
        value           nonuniform List<scalar> 
261
(
9.963274971
9.963281875
9.963290699
9.963282131
9.963283982
9.963274589
9.963296468
9.963299043
9.963281244
9.963274599
9.963280265
9.963290551
9.963283358
9.963282954
9.963274717
9.96329696
9.963299758
9.963280218
9.963274684
9.963280448
9.963290887
9.963284529
9.963282783
9.963275817
9.96329768
9.963299626
9.963279668
9.963274707
9.963281038
9.963290865
9.963283246
9.963282063
9.963276028
9.963296288
9.96329844
9.963281265
9.963275472
9.963281141
9.96329002
9.963282
9.963281844
9.963275105
9.963296292
9.963298519
9.963282017
9.963276066
9.963281303
9.963289794
9.963281939
9.963280813
9.963275564
9.963296537
9.963298544
9.963281001
9.963275541
9.963281905
9.963290449
9.963282341
9.96328055
9.963274622
9.963297514
9.96329854
9.963281337
9.963275217
9.963282035
9.963291142
9.963280537
9.963280547
9.963274391
9.963297723
9.963297024
9.963280452
9.963275566
9.963281405
9.963289129
9.963280896
9.963281808
9.963274688
9.963297456
9.963297203
9.963281171
9.963275301
9.963281263
9.963289006
9.963281959
9.963279901
9.963274645
9.963298614
9.963298015
9.963281291
9.963275316
9.963280859
9.963288846
9.963282452
9.963280531
9.963274193
9.963298355
9.963298041
9.963281455
9.963275302
9.963281599
9.963289077
9.963282083
9.9632796
9.96327322
9.963299461
9.963297694
9.963280912
9.963274932
9.963279545
9.963288917
9.963282256
9.963278638
9.963272213
9.963297156
9.963298493
9.963281215
9.963273906
9.963279095
9.963287025
9.963279026
9.963275774
9.963268748
9.963293623
9.963297658
9.963279686
9.963272335
9.963277685
9.963283617
9.963272226
9.963269355
9.963262209
9.96329049
9.963296453
9.963277278
9.963301754
9.96326911
9.963267961
9.963269531
9.963297009
9.963275498
9.963333563
9.963279053
9.963256625
9.963302849
9.963268718
9.963268515
9.963270729
9.963296783
9.963274818
9.963333231
9.963279526
9.963257384
9.963302716
9.963266692
9.96326715
9.963270599
9.963297171
9.963274907
9.963332651
9.963279292
9.96325645
9.963302572
9.963265306
9.963266874
9.963269868
9.963298399
9.963274024
9.963333113
9.963279514
9.96325728
9.963301366
9.963266158
9.963266986
9.96326949
9.963298147
9.963273705
9.963332813
9.963278825
9.963258039
9.963302456
9.963266218
9.963266603
9.963270708
9.963297398
9.963274728
9.963332764
9.963279586
9.963258166
9.963302887
9.963267053
9.963266045
9.963271083
9.963297763
9.963275517
9.963332774
9.963278896
9.963258834
9.963302179
9.96326701
9.963265588
9.963271618
9.963298379
9.963274278
9.963334725
9.963279682
9.963259447
9.963301935
9.963266816
9.963265334
9.963273084
9.963297504
9.96327519
9.96333433
9.963279123
9.963259962
9.963302112
9.963266628
9.963264814
9.963271815
9.963297358
9.963274882
9.963333969
9.96328019
9.963259115
9.963302167
9.963266857
9.96326524
9.963272708
9.963297985
9.963274855
9.963332417
9.963278366
9.963259823
9.963302332
9.963266614
9.963265028
9.96327182
9.963297121
9.963273499
9.963332585
9.963278145
9.963258978
9.963302334
9.963265988
9.96326438
9.963268852
9.963295224
9.963272906
9.963332272
9.963277554
9.963259421
9.963300234
9.963264999
9.963262407
9.9632656
9.963291986
9.963268364
9.963330374
9.963276189
9.963258375
)
;
    }
    inlet
    {
        type            calculated;
        value           nonuniform List<scalar> 
81
(
9.963274971
9.963281875
9.963290699
9.963282131
9.963283982
9.963274589
9.963296468
9.963299043
9.963281244
9.963274132
9.963268802
9.96326886
9.963301363
9.963234436
9.963273712
9.963267156
9.963270173
9.963255867
9.963287292
9.963274704
9.963263019
9.963309386
9.9632534
9.963308077
9.963340311
9.963242313
9.963285354
9.963314484
9.963257612
9.963264608
9.963177298
9.96327422
9.963337487
9.963243954
9.963313004
9.963261679
9.963280213
9.963245892
9.96327475
9.963265169
9.963284488
9.963313793
9.963273968
9.963301752
9.963282417
9.963229921
9.963284919
9.96328376
9.963240873
9.963264643
9.963248123
9.963284796
9.963271035
9.96327773
9.963290615
9.963252139
9.96332076
9.963266452
9.963231405
9.963284793
9.963289225
9.96325211
9.963280061
9.963300368
9.963306971
9.963236641
9.963256741
9.963263579
9.963228208
9.963321124
9.963305401
9.963280199
9.963301754
9.96326911
9.963267961
9.963269531
9.963297009
9.963275498
9.963333563
9.963279053
9.963256625
)
;
    }
    outlet
    {
        type            calculated;
        value           nonuniform 0();
    }
    procBoundary0to1
    {
        type            processor;
        value           nonuniform List<scalar> 
97
(
9.963271076
9.963272717
9.963274125
9.963278444
9.963264208
9.963258468
9.963254183
9.963284611
9.96329297
9.963276054
9.963272717
9.963272717
9.963258292
9.963259746
9.963244967
9.963247777
9.963157228
9.963219073
9.963241788
9.963258877
9.963248682
9.963279879
9.963259746
9.963259746
9.963187276
9.963165959
9.96315382
9.962976773
9.963146735
9.963275263
9.963214246
9.963272564
9.963302934
9.963226902
9.963165959
9.963165959
9.962706169
9.962330252
9.962246154
9.962865067
9.963093433
9.963253922
9.963240344
9.963264941
9.963194923
9.963084068
9.962330252
9.962330252
10.00638144
9.962330422
9.962282195
9.96292012
9.962996141
9.963232771
9.96325804
9.963218408
9.963254123
9.963189158
9.962918659
9.962330422
9.96292012
9.96292012
9.96312641
9.963247628
9.963222617
9.963263845
9.963281716
9.963238423
9.963284198
9.963162417
9.963038639
9.963190895
9.963247628
9.963247628
9.963225504
9.963297239
9.963268152
9.963296013
9.963296539
9.963224503
9.963225191
9.963214071
9.963195214
9.963299143
9.963297239
9.963297239
9.963276026
9.963257998
9.963300741
9.963263041
9.963258077
9.963259673
9.963283787
9.963262138
9.963327195
9.963273125
9.963257998
)
;
    }
}


// ************************************************************************* //
