/*--------------------------------*- C++ -*----------------------------------*\
| =========                 |                                                 |
| \\      /  F ield         | OpenFOAM: The Open Source CFD Toolbox           |
|  \\    /   O peration     | Version:  4.x                                   |
|   \\  /    A nd           | Web:      www.OpenFOAM.org                      |
|    \\/     M anipulation  |                                                 |
\*---------------------------------------------------------------------------*/
FoamFile
{
    version     2.0;
    format      ascii;
    class       surfaceScalarField;
    location    "6000";
    object      phi;
}
// * * * * * * * * * * * * * * * * * * * * * * * * * * * * * * * * * * * * * //

dimensions      [1 0 -1 0 0 0 0];

internalField   nonuniform List<scalar> 
3175
(
9.165412398e-06
1.864564157e-13
1.718253303e-12
9.165413082e-06
1.968643712e-12
2.58145537e-12
9.165411203e-06
1.318317302e-13
-3.20287593e-13
9.165413047e-06
-1.249517582e-12
-4.174350002e-13
9.165413825e-06
-8.296230605e-13
2.882878735e-13
9.165417479e-06
-9.503178936e-14
1.228224464e-12
9.165416507e-06
-1.447665098e-12
-2.171797713e-13
9.165421965e-06
-1.346238308e-12
-6.650929958e-13
9.165430237e-06
-4.023366562e-12
-3.140406922e-12
9.165440332e-06
-4.83105422e-12
-6.024781961e-12
9.165455008e-06
-8.828183782e-12
-1.027096096e-11
9.165480946e-06
-1.213310261e-11
-1.319810503e-11
9.165523667e-06
-2.075219854e-11
-2.029710777e-11
9.165567223e-06
-2.013865183e-11
-2.034793176e-11
-4.362828632e-11
9.165419014e-06
1.071694533e-12
1.318735378e-12
9.165417372e-06
-5.45639951e-13
-6.746785488e-13
9.165417107e-06
-3.344460331e-13
3.236153697e-13
9.165419509e-06
6.840821943e-14
2.413547866e-13
9.165420625e-06
-1.00391223e-12
3.213139503e-13
9.165420464e-06
-1.663686795e-12
-4.958430916e-13
9.165421135e-06
-3.428093865e-12
-1.38154588e-12
9.165424301e-06
-4.576915702e-12
-1.990946003e-12
9.165431372e-06
-3.851015694e-12
-3.642386044e-12
9.165439885e-06
-7.496662807e-12
-5.736874022e-12
9.16545458e-06
-1.37168449e-11
-9.817238614e-12
9.165479927e-06
-2.04612929e-11
-1.520529216e-11
9.165522487e-06
-3.556581559e-11
-2.550473638e-11
9.165565259e-06
-4.044098731e-11
-2.663549814e-11
-8.483181563e-11
-6.655580627e-11
9.165426033e-06
3.569471753e-13
-1.460279159e-13
9.165427271e-06
-8.29973003e-13
1.55762806e-12
9.165426563e-06
-8.861655421e-13
6.425814909e-13
9.165425943e-06
6.571207521e-13
1.495311321e-12
9.165427557e-06
1.483355943e-12
-2.534082177e-13
9.165427052e-06
-7.100539076e-13
-1.88416764e-12
9.165427043e-06
-1.303657756e-12
-2.824755415e-12
9.165429478e-06
-2.086597867e-12
-2.853158906e-12
9.165433205e-06
-4.240383061e-12
-6.058635345e-12
9.165440181e-06
-7.520196055e-12
-8.271377402e-12
9.165450287e-06
-1.191557957e-11
-1.27135847e-11
9.165471699e-06
-1.973497161e-11
-2.213536763e-11
9.165508769e-06
-3.581292393e-11
-3.883364679e-11
9.165556674e-06
-4.027511431e-11
-4.479087758e-11
-1.023927128e-10
-1.400087225e-10
9.165418455e-06
-6.662693895e-13
-1.453153725e-13
9.165419995e-06
1.766571e-12
1.163419032e-12
9.165419457e-06
-3.762515479e-13
4.736016649e-13
9.165420359e-06
-1.9649817e-12
-1.549932518e-12
9.165417773e-06
-1.927940298e-12
-9.538865832e-13
9.165419805e-06
-1.866184894e-12
-1.74494532e-12
9.165417776e-06
-2.157527617e-12
-3.868369104e-12
9.16542042e-06
-1.669381515e-12
-5.028479501e-12
9.165422702e-06
-2.795913556e-12
-7.075379221e-12
9.165429791e-06
-4.322837287e-12
-9.817123412e-12
9.165435861e-06
-9.027577801e-12
-1.260117595e-11
9.165459005e-06
-1.699184476e-11
-2.546146933e-11
9.165495094e-06
-2.859800288e-11
-3.9107568e-11
9.165550353e-06
-3.879291145e-11
-5.340993595e-11
-8.905588091e-11
-2.075604019e-10
9.165420532e-06
9.183191555e-13
6.769873509e-13
9.165418749e-06
7.702550144e-13
1.228557268e-13
9.165417838e-06
6.349466371e-13
5.276845919e-13
9.165419011e-06
2.756930805e-13
-4.836249345e-13
9.165417918e-06
2.065937013e-13
-2.13851217e-12
9.165417744e-06
9.067313986e-13
-2.88841625e-12
9.16541741e-06
1.511785325e-12
-3.176133672e-12
9.165418792e-06
9.083708911e-13
-5.570246983e-12
9.165416776e-06
2.05558314e-12
-6.909574971e-12
9.165418387e-06
3.95063488e-12
-1.326675973e-11
9.165415685e-06
9.081428166e-12
-1.960072982e-11
9.165429517e-06
1.781877983e-11
-4.291232297e-11
9.165444027e-06
3.027948974e-11
-7.64049988e-11
9.165504403e-06
4.041612018e-11
-1.385040664e-10
9.072042388e-11
-4.988588443e-10
9.165411683e-06
7.271997194e-13
-5.089576774e-13
9.165409025e-06
5.423524155e-13
-2.19466103e-12
9.16541143e-06
1.683232433e-12
-3.771724961e-13
9.165413014e-06
4.831095057e-13
-7.357546481e-13
9.165413718e-06
9.97946529e-13
-1.316251992e-12
9.165411755e-06
8.436309251e-13
-3.061854223e-12
9.165410473e-06
2.417691136e-12
-1.726646372e-12
9.165414975e-06
3.312166526e-12
-2.521032474e-12
9.165416552e-06
3.867371662e-12
-5.532370696e-12
9.165423371e-06
8.087423557e-12
-8.801079964e-12
9.165430673e-06
1.311042547e-11
-1.362475793e-11
9.165451841e-06
1.81502216e-11
-2.678911427e-11
9.165485782e-06
3.439391925e-11
-3.953676457e-11
9.165541855e-06
3.92897217e-11
-5.412711919e-11
9.966078284e-11
-2.084220055e-10
9.165432863e-06
1.273294056e-12
5.99326177e-14
9.165430606e-06
1.259708922e-12
-6.861214788e-14
9.165431046e-06
-1.133157701e-13
-1.959207672e-13
9.165432358e-06
1.14698822e-12
-7.54234389e-13
9.165433671e-06
1.708865516e-12
-1.256344704e-13
9.16543353e-06
3.047020999e-13
-1.395769651e-12
9.165433759e-06
1.28315025e-12
-2.264802499e-12
9.165437293e-06
3.597832616e-12
-1.301644567e-12
9.165442297e-06
6.269289212e-12
-2.18907331e-12
9.165447658e-06
9.632063771e-12
-7.031592292e-12
9.165458359e-06
1.410948361e-11
-1.236791151e-11
9.165480631e-06
2.104572062e-11
-1.977011878e-11
9.165517451e-06
3.652256749e-11
-3.809953258e-11
9.165564114e-06
3.713664764e-11
-4.537540491e-11
8.185783586e-11
-1.394443778e-10
9.165433327e-06
7.163154424e-14
2.314674762e-13
9.165431362e-06
-6.69969804e-13
2.062264599e-14
9.165434027e-06
1.527180899e-12
1.390159555e-12
9.165434312e-06
1.005509594e-12
-5.337265767e-13
9.165434544e-06
6.406222853e-14
-2.558680054e-12
9.165435156e-06
2.131567361e-12
-1.727010556e-12
9.165436391e-06
1.716024411e-12
-2.194825816e-12
9.165441959e-06
5.381466413e-12
-1.315807759e-12
9.165445817e-06
4.503480809e-12
-3.686234239e-12
9.165454438e-06
4.948205483e-12
-6.092263947e-12
9.165469171e-06
7.802177423e-12
-9.527333234e-12
9.165496593e-06
1.118780678e-11
-1.35078084e-11
9.165535666e-06
2.021345374e-11
-2.608710136e-11
9.165582325e-06
2.085243693e-11
-2.632839847e-11
4.555161297e-11
-6.622860467e-11
9.165416411e-06
9.238836637e-13
9.165414942e-06
-6.970634119e-13
9.165415677e-06
-2.228136332e-12
9.165417789e-06
-1.304463931e-12
9.165420717e-06
-6.309849439e-13
9.165421705e-06
-1.894910045e-12
9.165425335e-06
-7.151005624e-13
9.165425913e-06
-3.853869361e-12
9.165431955e-06
-4.885952944e-12
9.165443591e-06
-4.559140277e-12
9.165459969e-06
-7.451412626e-12
9.165485622e-06
-1.0350415e-11
9.165525679e-06
-2.018835479e-11
9.1655697e-06
-2.13116322e-11
-4.409907347e-11
9.165412241e-06
-7.025950869e-13
6.49523886e-13
9.165411214e-06
-5.47603703e-13
-9.757996237e-15
9.165410277e-06
1.216497378e-12
-1.347364027e-12
9.165413407e-06
1.799531681e-13
6.839383964e-14
9.16541472e-06
-3.653323816e-13
-1.117280903e-12
9.165415024e-06
-1.83448755e-12
-3.09623296e-12
9.165415714e-06
-2.239146113e-12
-3.789532446e-12
9.165418761e-06
-2.826073458e-12
-4.964318548e-12
9.165426353e-06
-4.509786245e-12
-5.005564658e-12
9.16543454e-06
-6.957324192e-12
-1.054143693e-11
9.165450486e-06
-9.866023282e-12
-1.589288293e-11
9.16547488e-06
-1.469150387e-11
-2.117942316e-11
9.165516886e-06
-2.539687691e-11
-3.593182673e-11
-2.614275537e-11
-3.860588364e-11
9.165405122e-06
-1.061596051e-13
9.709217203e-13
9.165405419e-06
1.094635997e-12
-9.090696498e-14
9.165402083e-06
6.434369723e-13
-5.910125536e-14
9.165405e-06
1.38511075e-12
1.489174971e-13
9.16540567e-06
-2.791140061e-13
-9.263108305e-13
9.165406505e-06
-2.580815159e-12
-3.188819563e-12
9.165407152e-06
-4.702793548e-12
-2.701312703e-12
9.165408976e-06
-4.939472826e-12
-3.944236136e-12
9.165415488e-06
-5.319091923e-12
-5.814031082e-12
9.165423008e-06
-1.097141751e-11
-1.166802652e-11
9.16543725e-06
-1.525330245e-11
-1.631722784e-11
9.165463421e-06
-2.497529518e-11
-2.598440929e-11
9.165501888e-06
-4.475364136e-11
-4.442892971e-11
9.165551031e-06
-5.076734528e-11
-4.990242993e-11
-1.360603846e-10
9.165408587e-06
-1.194258801e-13
-1.572717114e-13
9.165407208e-06
-1.057339963e-12
-7.160929366e-14
9.165406315e-06
-7.064960407e-13
4.051796588e-13
9.165406293e-06
-1.02710053e-12
-1.790160136e-12
9.165409212e-06
1.813278326e-13
-1.491625755e-12
9.165409003e-06
-1.167362171e-12
-2.951941416e-12
9.165409497e-06
-2.465371631e-12
-1.886981708e-12
9.165410746e-06
-3.929183327e-12
-4.999065188e-12
9.165414066e-06
-6.189779603e-12
-9.16079668e-12
9.165418973e-06
-9.606474121e-12
-1.414951312e-11
9.165424522e-06
-1.297167431e-11
-2.134313822e-11
9.165444637e-06
-2.584165334e-11
-4.019756459e-11
9.165475607e-06
-4.451538115e-11
-6.824139304e-11
9.165532241e-06
-5.686409525e-11
-9.53216169e-11
-1.870045285e-10
-3.074974624e-10
9.165436982e-06
6.984411355e-13
1.159540368e-12
9.16543427e-06
5.908981962e-13
-3.306187706e-13
9.165434211e-06
-1.667304618e-14
1.27273727e-12
9.165434856e-06
-1.408200898e-12
4.496812647e-13
9.165433572e-06
-2.33824001e-12
-1.878741833e-12
9.165434164e-06
-1.64663052e-12
-2.520898933e-12
9.165434003e-06
-1.250540472e-12
-3.45084432e-12
9.165435328e-06
-1.620218942e-12
-5.62638376e-12
9.165436745e-06
-2.812394552e-12
-7.742085784e-12
9.16544031e-06
-5.900190529e-12
-1.565025718e-11
9.165442795e-06
-1.314747185e-11
-2.149895521e-11
9.165463196e-06
-2.444328874e-11
-5.12688343e-11
9.165490251e-06
-4.561680495e-11
-6.596180677e-11
9.16557405e-06
-6.954801182e-11
-1.295522445e-10
-1.770951317e-10
-4.85127788e-10
9.165374409e-06
-2.348798046e-13
5.076860375e-13
9.165371323e-06
-8.731297794e-13
-7.489660128e-13
9.165371747e-06
-1.284548062e-12
-6.353403605e-13
9.165373342e-06
-3.250934471e-13
-2.331678739e-13
9.165373374e-06
-8.997978084e-14
-1.27273181e-12
9.165373145e-06
5.267587916e-13
-2.169665922e-12
9.165373004e-06
3.215086512e-12
-3.405762036e-12
9.165370018e-06
2.651097633e-12
-7.46080085e-12
9.165367334e-06
2.575699066e-12
-1.087628487e-11
9.165363295e-06
6.390833689e-12
-2.161705537e-11
9.165352703e-06
1.202327834e-11
-2.95078501e-11
9.165350416e-06
2.353503532e-11
-9.077788352e-11
9.165326987e-06
4.535801653e-11
-1.401982121e-10
9.165431014e-06
6.94878178e-11
-3.777275881e-10
1.782297686e-10
-1.392437563e-09
9.165410013e-06
7.161929923e-13
1.085931766e-12
9.165407984e-06
2.36238154e-12
4.881265735e-15
9.165408124e-06
1.540633056e-12
4.755850822e-13
9.165409134e-06
1.293380617e-12
-1.124436031e-12
9.165410298e-06
1.728312374e-12
-1.740554909e-12
9.165410483e-06
2.360177902e-12
-1.487215982e-12
9.165409038e-06
2.458386481e-12
-2.452099929e-12
9.165408931e-06
4.35937428e-12
-5.184634053e-12
9.165410606e-06
6.337316527e-12
-7.773727295e-12
9.165413314e-06
9.929429371e-12
-1.590158318e-11
9.165418544e-06
1.444407153e-11
-2.105208427e-11
9.165440085e-06
2.566445676e-11
-4.995328893e-11
9.165464963e-06
4.412232062e-11
-6.567594918e-11
9.165548998e-06
5.600887604e-11
-1.306308969e-10
1.855775198e-10
-4.848997388e-10
9.165405271e-06
2.311369038e-12
7.678842344e-13
9.165403301e-06
1.071388923e-12
-1.004651709e-13
9.165403566e-06
7.599826092e-13
-1.346419041e-13
9.165407063e-06
1.979915673e-12
-4.173561622e-13
9.165405876e-06
-4.670350726e-13
-1.474095852e-12
9.165406927e-06
1.114621047e-12
-1.503083512e-12
9.165405692e-06
1.167101723e-12
-3.629960262e-12
9.165409159e-06
3.940316431e-12
-4.409375784e-12
9.165409306e-06
4.609286102e-12
-7.471801938e-12
9.165413311e-06
1.003218091e-11
-1.513104225e-11
9.165419029e-06
1.524989318e-11
-2.210671911e-11
9.165439336e-06
2.521359272e-11
-4.02781554e-11
9.165470999e-06
4.518036789e-11
-6.74912712e-11
9.165528281e-06
4.887428148e-11
-9.72066554e-11
1.341156796e-10
-3.060689422e-10
9.165406722e-06
9.760809232e-14
-7.245109601e-13
9.165405807e-06
-4.215985064e-13
-9.677795902e-13
9.165406873e-06
-4.884421399e-13
2.077404242e-13
9.165406529e-06
-2.099070043e-13
-2.690304871e-13
9.165410953e-06
2.494851845e-12
-4.705384397e-13
9.165410504e-06
1.710761703e-12
-3.617751191e-13
9.165413127e-06
2.755211495e-12
-1.843630837e-12
9.165413971e-06
2.337951248e-12
-4.383683392e-12
9.165419966e-06
3.543831263e-12
-6.860824819e-12
9.165425959e-06
5.184948585e-12
-1.161896885e-11
9.165441504e-06
9.351820944e-12
-1.672594498e-11
9.165464918e-06
1.443818517e-11
-2.586455832e-11
9.165503394e-06
2.576675268e-11
-4.468368249e-11
9.165553329e-06
2.706658544e-11
-5.12851234e-11
6.778132399e-11
-1.341943986e-10
9.165392058e-06
-4.625114447e-13
9.165391287e-06
2.364848816e-14
9.165393256e-06
1.170328883e-12
9.165393883e-06
2.03345085e-12
9.165394444e-06
5.158520286e-13
9.165395958e-06
-1.169255294e-12
9.165397298e-06
-2.285093756e-12
9.165398789e-06
-4.293600519e-12
9.165405178e-06
-5.880143741e-12
9.165414101e-06
-8.032699351e-12
9.165430229e-06
-1.269016925e-11
9.16545334e-06
-2.032367944e-11
9.165495929e-06
-3.633262904e-11
9.165541067e-06
-3.939423371e-11
-8.419349863e-11
9.165423857e-06
6.880568202e-14
5.776823107e-13
9.165421927e-06
-8.191853428e-13
5.312567941e-14
9.165424054e-06
1.314717759e-12
1.403785287e-12
9.165425375e-06
5.072767821e-13
1.169151801e-13
9.165425352e-06
4.92445292e-13
-4.16859403e-13
9.165426321e-06
-1.639138922e-12
-1.737578885e-12
9.165426586e-06
-2.029681144e-12
-3.522609926e-12
9.165429367e-06
-2.358261919e-12
-3.184270975e-12
9.165431462e-06
-5.95340366e-12
-7.174705349e-12
9.165436045e-06
-8.140370151e-12
-9.281702258e-12
9.165449701e-06
-1.190812711e-11
-1.384123294e-11
9.165468438e-06
-2.179706944e-11
-2.155485798e-11
9.16550821e-06
-3.744897412e-11
-3.610083564e-11
-4.398276249e-11
-4.014270597e-11
9.165409796e-06
-6.254909958e-13
1.556415205e-13
9.165412313e-06
8.35567375e-13
5.705244148e-13
9.165409905e-06
5.123852746e-13
6.141300613e-13
9.165410798e-06
-5.487459172e-13
1.000585465e-12
9.165410226e-06
-1.52281281e-12
-1.081791745e-12
9.1654131e-06
-2.857665958e-12
-1.182679871e-12
9.16541136e-06
-3.693349325e-12
-2.268517452e-12
9.165411171e-06
-6.446105847e-12
-3.466030454e-12
9.165414818e-06
-8.685461329e-12
-5.146957444e-12
9.165418739e-06
-1.432060247e-11
-9.449545708e-12
9.165425073e-06
-2.05239729e-11
-1.590974162e-11
9.165446366e-06
-3.980474474e-11
-2.746558742e-11
9.165476028e-06
-6.937412716e-11
-4.499647275e-11
-9.627712932e-11
-5.908164065e-11
9.165401436e-06
1.108022221e-12
8.655729589e-13
9.16540137e-06
-5.200235536e-13
6.526498598e-13
9.165396119e-06
-4.064143899e-13
9.614200471e-13
9.165397489e-06
-1.211023475e-13
1.422263932e-12
9.165398129e-06
1.401462386e-13
-1.840824826e-13
9.165398356e-06
-9.576548164e-13
-3.542838131e-13
9.165395854e-06
-3.716297047e-12
-3.02655861e-12
9.165393991e-06
-5.54465886e-12
-4.013106851e-12
9.16539374e-06
-6.159930595e-12
-4.708660967e-12
9.165392666e-06
-1.264873198e-11
-1.271060291e-11
9.165387891e-06
-1.787578444e-11
-1.950613078e-11
9.16539396e-06
-4.489990422e-11
-4.58047158e-11
9.165398249e-06
-7.166500356e-11
-7.18764631e-11
9.165474664e-06
-1.348321347e-10
-1.358568189e-10
-5.05261338e-10
9.165442718e-06
-6.850536624e-14
1.809797262e-13
9.165444619e-06
5.562492469e-13
1.839632838e-12
9.165442556e-06
-1.15806419e-12
3.692213053e-13
9.165442625e-06
-4.420414064e-13
-7.887396554e-13
9.165441766e-06
-1.675087756e-12
-1.584097916e-12
9.165440885e-06
-7.349673821e-13
-2.181605581e-12
9.1654405e-06
-1.487592285e-12
-2.954770731e-12
9.165439951e-06
-1.972609258e-12
-4.249353092e-12
9.165436924e-06
-3.737847369e-12
-6.673089029e-12
9.165434239e-06
-8.613245332e-12
-1.560986909e-11
9.165427209e-06
-1.708906803e-11
-1.72380532e-11
9.165434665e-06
-4.32266086e-11
-6.039003615e-11
9.165433746e-06
-8.395443062e-11
-5.115948781e-11
9.16556754e-06
-1.739928377e-10
-2.244680585e-10
-5.170121703e-10
-9.480783155e-10
9.165390561e-06
-3.057528991e-13
-8.879408248e-13
9.165391322e-06
1.095692395e-13
-2.494255661e-13
9.165391462e-06
-2.760037819e-13
7.974030929e-13
9.165390955e-06
-7.2731987e-13
-4.879392043e-13
9.165391869e-06
-1.378281322e-13
-6.324919227e-13
9.165388433e-06
9.316144e-13
-2.323622569e-12
9.165389165e-06
3.392374389e-12
-2.631698222e-12
9.165382361e-06
4.166809568e-12
-5.590727899e-12
9.165373505e-06
5.208138362e-12
-8.154741622e-12
9.165354225e-06
9.202409617e-12
-2.322315963e-11
9.165316247e-06
1.578695637e-11
-2.915036344e-11
9.165261637e-06
4.378957605e-11
-1.26174733e-10
9.165114399e-06
8.482073954e-11
-1.579778589e-10
9.165246154e-06
1.742342881e-10
-8.553392229e-10
5.186556776e-10
-3.655990625e-09
9.165442164e-06
4.037439029e-13
6.748538862e-13
9.165442204e-06
1.831034288e-12
-2.739893858e-13
9.165440991e-06
1.270445835e-12
4.425133947e-13
9.16544293e-06
1.67097642e-12
-3.096308912e-14
9.165444133e-06
2.616028908e-12
9.362645823e-13
9.165441467e-06
1.454135931e-12
-1.851131683e-12
9.165438571e-06
2.174344951e-12
-3.969657016e-12
9.16543514e-06
5.272516807e-12
-5.5972677e-12
9.165433334e-06
7.650936431e-12
-7.179791162e-12
9.165429113e-06
1.232462681e-11
-1.69138735e-11
9.16542434e-06
1.749772132e-11
-1.680513541e-11
9.165430981e-06
4.377303703e-11
-6.079839197e-11
9.165428334e-06
7.150445739e-11
-5.144904314e-11
9.165561507e-06
1.326647406e-10
-2.252807238e-10
5.058511711e-10
-9.47917015e-10
9.165470808e-06
1.46244424e-12
-3.602483399e-14
9.165469331e-06
1.190481664e-12
-1.733098244e-12
9.165471237e-06
1.603485764e-12
-8.267240698e-13
9.165470541e-06
2.073798769e-12
-3.201258972e-13
9.16546998e-06
2.434498118e-13
-1.904235206e-12
9.16547068e-06
2.350054528e-12
-2.166300601e-12
9.165471334e-06
3.175035963e-12
-2.347712165e-12
9.165470867e-06
4.506779751e-12
-5.13333365e-12
9.165464915e-06
6.059162051e-12
-8.819749742e-12
9.165466733e-06
1.354745002e-11
-1.315442375e-11
9.165464673e-06
2.069852373e-11
-1.812870481e-11
9.165472929e-06
4.03240165e-11
-4.443301109e-11
9.165476479e-06
6.84521896e-11
-7.301804979e-11
9.165556501e-06
9.450134429e-11
-1.347590997e-10
3.059199981e-10
-5.055422213e-10
9.165381409e-06
-1.968081069e-13
-2.21609155e-13
9.165381861e-06
9.617649596e-14
-3.038404596e-13
9.165380359e-06
4.624855946e-13
-9.601655594e-13
9.165377703e-06
1.701396112e-12
-4.804746663e-13
9.165382056e-06
2.401244624e-12
-2.905992725e-13
9.165379754e-06
3.868302979e-13
-2.180179229e-12
9.165381293e-06
1.541351341e-12
-2.589039269e-12
9.165381859e-06
2.664421096e-12
-4.748196427e-12
9.165382129e-06
3.525191219e-12
-6.823407388e-12
9.165387039e-06
9.097617291e-12
-9.555747718e-12
9.165394861e-06
1.411624221e-11
-1.49264671e-11
9.16541328e-06
2.146974526e-11
-2.80844576e-11
9.165443075e-06
3.721673002e-11
-4.6589036e-11
9.165505666e-06
4.631285339e-11
-5.601103787e-11
1.392125362e-10
-1.864106095e-10
9.165420627e-06
-3.559355149e-13
9.165418797e-06
-2.53290424e-13
9.165419096e-06
-2.629797799e-13
9.165419102e-06
-2.059923538e-12
9.165421553e-06
-6.922066747e-13
9.165423038e-06
-2.691218273e-12
9.165423726e-06
-2.765218819e-12
9.165424146e-06
-1.920160575e-12
9.165429083e-06
-3.640986964e-12
9.165434608e-06
-8.483849494e-12
9.165445504e-06
-1.315248489e-11
9.165465415e-06
-1.990956884e-11
9.165505505e-06
-3.717739094e-11
9.165553368e-06
-3.899650448e-11
-1.006203563e-10
9.165447437e-06
-2.929155826e-13
6.43601005e-13
9.165446843e-06
-1.014846471e-12
-3.398161739e-13
9.165447351e-06
3.287611898e-13
7.559280329e-13
9.165448281e-06
1.393967645e-12
1.068158736e-13
9.165449596e-06
-4.417709695e-13
1.257230955e-12
9.16545054e-06
-7.911947093e-13
-7.652324177e-13
9.165450632e-06
-1.497741715e-12
-2.675724251e-12
9.165450747e-06
-2.408230542e-12
-2.675318063e-12
9.165453779e-06
-3.759393412e-12
-2.978193999e-12
9.165457219e-06
-8.755633697e-12
-5.035986123e-12
9.165467196e-06
-1.190234517e-11
-9.663341756e-12
9.165488591e-06
-2.61984155e-11
-1.675896232e-11
9.165521768e-06
-3.829820137e-11
-3.094782828e-11
-5.46789705e-11
-3.951252629e-11
9.165396352e-06
1.256677826e-13
1.303357929e-12
9.165396866e-06
-3.079626663e-14
-3.386886457e-13
9.165394891e-06
4.225957038e-13
-6.442413414e-13
9.165394858e-06
-7.854855856e-14
-1.491718984e-12
9.16539441e-06
-1.800060451e-12
-5.602335522e-13
9.165396581e-06
-1.506805479e-12
-2.627359883e-13
9.165396261e-06
-3.171373904e-12
-2.288708947e-12
9.165393458e-06
-6.352922603e-12
-3.267112043e-12
9.165396614e-06
-6.574477385e-12
-3.227361454e-12
9.165399288e-06
-1.545469425e-11
-4.928584572e-12
9.165403949e-06
-2.013345044e-11
-1.154002545e-11
9.165428602e-06
-4.975114189e-11
-2.50079833e-11
9.165450475e-06
-6.639846367e-11
-4.680474399e-11
-1.300401361e-10
-6.758773443e-11
9.165402411e-06
3.887921763e-13
2.205877956e-12
9.165402994e-06
1.139339205e-12
-1.176965924e-13
9.165400665e-06
-2.226363732e-13
-2.800710269e-13
9.165399608e-06
-1.23360262e-12
-1.289571115e-12
9.165401493e-06
-4.408965327e-13
-1.331924633e-13
9.165398833e-06
-2.484299941e-12
-8.526510035e-13
9.165397153e-06
-3.33240273e-12
-1.316286331e-12
9.165397525e-06
-5.845170347e-12
-1.783861694e-12
9.165392292e-06
-7.984115e-12
-4.242971766e-12
9.165388802e-06
-1.561285008e-11
-9.720625139e-12
9.165383843e-06
-1.623337838e-11
-1.713988141e-11
9.165390867e-06
-5.960068949e-11
-4.38890615e-11
9.16538796e-06
-5.166998599e-11
-8.486117782e-11
-2.247349036e-10
-1.742068177e-10
9.165321929e-06
-1.265076423e-12
8.189178842e-13
9.165320269e-06
-1.906298138e-12
-8.045392498e-13
9.165318814e-06
-2.708714455e-13
-6.584512769e-13
9.16531888e-06
-2.300694475e-13
-1.673275837e-13
9.165318327e-06
-3.637203715e-13
-1.058823405e-12
9.165318636e-06
-1.104207396e-12
-2.328009194e-12
9.16531758e-06
-1.712118228e-12
-9.92416991e-13
9.165312706e-06
-2.906217167e-12
-2.777510406e-12
9.165308668e-06
-3.773572305e-12
-6.160889424e-12
9.16530167e-06
-1.220265266e-11
-1.372857366e-11
9.165310693e-06
-2.044378129e-11
-2.084236381e-11
9.165331051e-06
-6.738504439e-11
-7.001060187e-11
9.165436685e-06
-1.021810528e-10
-1.033253228e-10
9.165678961e-06
-3.470575137e-10
-3.478571926e-10
-9.666141759e-10
9.165412344e-06
1.519698841e-12
1.958569617e-12
9.165412542e-06
-2.628240878e-14
1.189127927e-12
9.165409661e-06
-3.224509393e-13
-8.328851735e-13
9.165410459e-06
-6.85220463e-13
1.257667896e-13
9.165410009e-06
1.047322309e-12
-3.629928039e-13
9.165407992e-06
1.744037764e-12
1.099609958e-13
9.165405105e-06
1.861015633e-12
-7.315045412e-13
9.165398826e-06
3.377090553e-12
-3.136203321e-12
9.165386828e-06
3.968988734e-12
-8.240316178e-12
9.165355408e-06
1.181330106e-11
-2.141135732e-11
9.165322176e-06
1.983548042e-11
-3.666412909e-11
9.165206991e-06
6.757503328e-11
-1.508821455e-10
9.165134693e-06
1.022831779e-10
-2.932764169e-10
9.165229074e-06
3.465905593e-10
-1.643052282e-09
9.683962501e-10
-6.647673285e-09
9.165468597e-06
-1.576328834e-13
1.571569605e-12
9.165468617e-06
-1.346983652e-13
1.344625e-12
9.16546522e-06
-5.809521791e-13
1.084623115e-13
9.165467519e-06
1.310505455e-12
7.222843699e-13
9.165464349e-06
-1.549059315e-13
9.628512405e-13
9.165463102e-06
7.629202742e-13
8.164102273e-14
9.165461981e-06
3.481335808e-12
-1.184123506e-12
9.165456485e-06
5.619967549e-12
-3.348382193e-12
9.165454652e-06
5.626997622e-12
-6.534516242e-12
9.165448279e-06
1.463076371e-11
-1.466688743e-11
9.16545808e-06
1.678349452e-11
-2.179267261e-11
9.165479548e-06
5.947669374e-11
-7.010676799e-11
9.165581261e-06
5.024550009e-11
-1.047088231e-10
9.165827475e-06
2.242045034e-10
-3.45958192e-10
9.480322936e-10
-9.664848442e-10
9.165383638e-06
1.441287551e-12
-4.010454917e-14
9.165384337e-06
1.162441274e-12
3.700848585e-13
9.165384341e-06
1.049444244e-12
3.740813259e-13
9.165385223e-06
2.526650034e-12
1.7394035e-12
9.165386291e-06
1.877227044e-12
6.957915931e-13
9.165386195e-06
2.353938759e-12
-7.621380238e-13
9.16538524e-06
2.934405087e-12
-1.732351491e-12
9.165381379e-06
5.712189203e-12
-3.148918987e-12
9.16538027e-06
8.695954914e-12
-3.832218659e-12
9.165376998e-06
1.646454423e-11
-9.95829353e-12
9.165369779e-06
1.906020627e-11
-1.833834803e-11
9.165379431e-06
4.843616384e-11
-4.589301757e-11
9.165375528e-06
6.447424658e-11
-8.421906078e-11
9.165512136e-06
1.300864389e-10
-1.719526146e-10
4.852942196e-10
-5.178480046e-10
9.165445116e-06
1.500500702e-13
-1.633403656e-13
9.165444067e-06
3.572381344e-13
-1.373957797e-13
9.165445407e-06
1.004715565e-12
-1.033877115e-12
9.165443809e-06
3.625941232e-14
-3.909148349e-13
9.165444503e-06
1.627939378e-12
-5.941100849e-15
9.165445123e-06
7.781381018e-13
-4.915693758e-13
9.165446095e-06
2.096790145e-12
-1.00864784e-12
9.16544388e-06
3.924053246e-12
-2.94671e-12
9.16544401e-06
5.220504686e-12
-4.204195921e-12
9.165446512e-06
8.614862952e-12
-8.113009005e-12
9.165453059e-06
1.345171348e-11
-1.17528537e-11
9.165475166e-06
2.707929219e-11
-2.328474989e-11
9.165498523e-06
3.903716356e-11
-4.524388259e-11
9.165583678e-06
5.477276453e-11
-6.818450575e-11
2.066742732e-10
-1.78169926e-10
9.165398388e-06
5.805390334e-13
9.165397938e-06
-3.606794713e-13
9.165397145e-06
-1.3964105e-12
9.165398361e-06
-4.338164486e-13
9.165396937e-06
-7.63730867e-13
9.165401464e-06
-7.21127753e-15
9.165399859e-06
-1.796316626e-12
9.165399652e-06
-2.626086024e-12
9.165402349e-06
-2.641565778e-12
9.165408451e-06
-5.628015478e-12
9.165418802e-06
-9.005126863e-12
9.165437584e-06
-1.691456597e-11
9.165475735e-06
-3.055897742e-11
9.165532114e-06
-3.913339549e-11
-8.946798335e-11
9.16541424e-06
8.147225658e-13
9.71186449e-13
9.165415381e-06
2.562511227e-13
1.048644904e-12
9.165413918e-06
-6.448273936e-13
1.648835568e-14
9.165415623e-06
-3.40258547e-13
5.328914939e-13
9.165412925e-06
-1.601403718e-12
9.314067351e-13
9.16541513e-06
-4.4109861e-13
1.862618986e-12
9.165415044e-06
-1.215251946e-12
1.639077955e-12
9.165413437e-06
-3.334535882e-12
2.024383561e-12
9.165413949e-06
-5.032910209e-12
4.127727245e-12
9.165414561e-06
-1.017119006e-11
5.577306358e-12
9.165415703e-06
-1.649443014e-11
1.022127953e-11
9.165426803e-06
-4.293988732e-11
1.741040731e-11
9.16544216e-06
-7.598656117e-11
3.051149041e-11
-1.372325665e-10
3.989909231e-11
9.165381939e-06
3.602498001e-13
7.580137142e-13
9.165384065e-06
-4.493555413e-15
1.660862877e-12
9.165382494e-06
1.550122101e-13
2.046156748e-13
9.165383267e-06
-5.928762953e-13
1.19006123e-12
9.165381785e-06
-8.923488813e-13
4.479691035e-13
9.165379933e-06
-1.47708639e-12
2.423154625e-12
9.16537791e-06
-2.493585671e-12
1.966026151e-12
9.165377914e-06
-5.417015571e-12
2.649866193e-12
9.165375164e-06
-8.109906925e-12
2.795396137e-12
9.165367429e-06
-2.200853899e-11
4.718481778e-12
9.165358072e-06
-3.028077274e-11
1.258075831e-11
9.165358789e-06
-8.887641129e-11
2.619961212e-11
9.16533306e-06
-1.392459934e-10
4.635362373e-11
-3.785453529e-10
6.838408427e-11
9.165410037e-06
-1.143379551e-12
8.820518146e-14
9.165412867e-06
-3.277274686e-13
1.215921375e-12
9.165409687e-06
-1.476346219e-12
4.517585608e-13
9.165410727e-06
-7.469443517e-13
8.351550142e-13
9.165410073e-06
-1.7378022e-12
4.014442001e-13
9.165408639e-06
-3.192849291e-12
4.436483696e-13
9.165406863e-06
-3.55270585e-12
1.848688785e-12
9.165402258e-06
-6.49419125e-12
2.20623178e-12
9.165391122e-06
-1.030424446e-11
3.719914282e-12
9.165372471e-06
-2.357371968e-11
9.148203561e-12
9.165336561e-06
-2.68468313e-11
1.781708182e-11
9.165282059e-06
-1.25716565e-10
4.443373425e-11
9.165133232e-06
-1.579998097e-10
8.402087807e-11
-8.549477544e-10
1.736787246e-10
9.165400705e-06
4.551901665e-13
1.309983412e-12
9.165401384e-06
6.840255441e-13
2.042500418e-12
9.165399479e-06
7.301384973e-13
1.805546832e-12
9.165397474e-06
3.949001643e-14
7.866034691e-13
9.16539635e-06
-4.647198258e-13
2.395992757e-12
9.16539591e-06
4.234102971e-13
3.31901443e-12
9.1653919e-06
-1.077168396e-12
3.887557529e-12
9.165383567e-06
-3.487302868e-12
3.334954363e-12
9.165373116e-06
-6.378359376e-12
5.335767277e-12
9.16534242e-06
-2.012481091e-11
1.271645149e-11
9.165306063e-06
-3.752738961e-11
2.055044871e-11
9.165194247e-06
-1.490788807e-10
7.076609223e-11
9.165122764e-06
-2.915167422e-10
1.038897744e-10
-1.642319198e-09
3.467947844e-10
9.16541882e-06
1.357072279e-12
9.06064516e-13
9.165419094e-06
7.923154762e-13
5.940437372e-13
9.165418971e-06
6.178016669e-13
-4.557589202e-13
9.16541704e-06
1.66604763e-13
2.269975172e-13
9.165418091e-06
2.14024285e-12
1.849580376e-12
9.165413429e-06
1.325171554e-12
1.693529504e-12
9.165408008e-06
1.648630793e-12
1.968996445e-12
9.165393005e-06
4.49265632e-12
3.213862577e-12
9.165368301e-06
6.283008343e-12
5.900753332e-12
9.16528613e-06
1.906519538e-11
1.843749459e-11
9.165143248e-06
3.512769311e-11
3.6284436e-11
9.164544985e-06
1.484632691e-10
1.489700411e-10
9.163375838e-06
2.904180282e-10
2.913757789e-10
9.156807648e-06
1.642215058e-09
1.64316067e-09
6.64852592e-09
9.16544438e-06
-1.279536408e-12
5.008274763e-13
9.165444035e-06
-7.927134057e-13
1.316827625e-13
9.165443069e-06
-1.083763675e-12
-1.107484563e-13
9.165443532e-06
1.295333527e-12
-2.222308945e-13
9.165442566e-06
5.321760566e-13
6.513223966e-14
9.165440201e-06
8.619198774e-13
4.592707864e-14
9.165437783e-06
2.398271947e-12
5.121286479e-13
9.165428679e-06
5.502088816e-12
1.205682494e-12
9.165419484e-06
9.156588575e-12
4.09432718e-12
9.165389502e-06
2.373611803e-11
1.296967659e-11
9.165355553e-06
2.866189827e-11
2.049743707e-11
9.165242155e-06
1.261511226e-10
6.857995975e-11
9.165171998e-06
1.593824766e-10
1.037274864e-10
9.165264747e-06
8.554862544e-10
3.473677402e-10
3.655102128e-09
9.165409847e-06
7.873893222e-14
1.519787735e-13
9.165408032e-06
1.790919189e-13
1.388568224e-14
9.165410048e-06
-3.343357454e-13
8.283049739e-13
9.16540759e-06
6.3417588e-13
1.210957332e-13
9.16540776e-06
2.018431848e-12
4.606923282e-13
9.165407608e-06
2.788257217e-12
5.1384148e-13
9.165403992e-06
4.168606519e-12
-3.291038631e-13
9.165398471e-06
6.043728838e-12
1.805572388e-12
9.165388566e-06
9.331101099e-12
3.418912274e-12
9.165371292e-06
2.101187846e-11
9.407625051e-12
9.165333e-06
3.021210335e-11
1.691508626e-11
9.165280862e-06
9.106337189e-11
4.344640214e-11
9.165131023e-06