/*--------------------------------*- C++ -*----------------------------------*\
| =========                 |                                                 |
| \\      /  F ield         | OpenFOAM: The Open Source CFD Toolbox           |
|  \\    /   O peration     | Version:  4.x                                   |
|   \\  /    A nd           | Web:      www.OpenFOAM.org                      |
|    \\/     M anipulation  |                                                 |
\*---------------------------------------------------------------------------*/
FoamFile
{
    version     2.0;
    format      ascii;
    class       volScalarField;
    location    "6000";
    object      rhoeps;
}
// * * * * * * * * * * * * * * * * * * * * * * * * * * * * * * * * * * * * * //

dimensions      [1 -3 0 0 0 0 0];

internalField   nonuniform List<scalar> 
1175
(
0.2699630229
0.2699630112
0.2699630171
0.2699630219
0.2699630403
0.269963062
0.2699630583
0.2699630233
0.2699630376
0.2699630248
0.269963061
0.2699630448
0.2699630532
0.2699631197
0.2699632239
0.2699631864
0.2699631869
0.2699631721
0.2699631657
0.2699631625
0.2699631989
0.2699632224
0.2699632214
0.2699631823
0.2699632019
0.2699631938
0.2699632152
0.2699632208
0.2699633588
0.2699635458
0.2699634464
0.2699634592
0.2699634487
0.2699634604
0.2699634431
0.2699634297
0.269963432
0.2699634331
0.2699634443
0.2699633795
0.2699634348
0.2699634524
0.2699635511
0.2699637514
0.269964129
0.2699632089
0.2699632268
0.2699632991
0.2699632688
0.269963195
0.2699632194
0.2699632073
0.2699631969
0.269963196
0.2699632321
0.2699632755
0.2699633275
0.2699634603
0.2699638044
0.2699644441
0.2699632578
0.26996324
0.2699632103
0.2699632205
0.2699632095
0.2699631817
0.2699631865
0.2699631817
0.2699632013
0.269963179
0.2699632055
0.2699632696
0.2699634654
0.2699638916
0.2699647721
0.2699630313
0.2699630484
0.269963056
0.2699630387
0.2699630363
0.2699630583
0.2699630321
0.2699630092
0.2699630187
0.2699630109
0.2699630294
0.2699630901
0.2699632133
0.2699635515
0.2699641666
0.2699635915
0.2699636069
0.2699636218
0.2699636003
0.2699636103
0.2699636124
0.2699636229
0.2699636327
0.2699636598
0.2699636811
0.2699636892
0.2699637208
0.2699637751
0.2699639502
0.2699643074
0.2699637009
0.2699637063
0.2699636869
0.26996367
0.2699636765
0.269963683
0.2699636752
0.2699636285
0.2699636423
0.2699636488
0.2699636544
0.2699636701
0.2699637305
0.269963843
0.2699640179
0.2699631821
0.2699631611
0.2699631723
0.2699631828
0.269963209
0.2699631804
0.2699631875
0.2699631997
0.2699631958
0.2699631902
0.2699631968
0.269963204
0.2699632608
0.2699632816
0.2699633643
0.2699630142
0.2699630239
0.2699630362
0.2699630498
0.2699630503
0.2699630372
0.2699630303
0.2699630119
0.2699629869
0.2699630364
0.2699630431
0.2699630379
0.2699631234
0.2699632449
0.269962858
0.2699628044
0.2699628151
0.26996279
0.2699628227
0.2699627899
0.2699627811
0.2699627816
0.2699627828
0.2699628094
0.2699628602
0.269962922
0.2699630149
0.269963227
0.2699636036
0.2699628591
0.2699628621
0.2699628603
0.2699629112
0.269962908
0.2699628997
0.2699629196
0.2699629694
0.2699629383
0.2699629447
0.2699630275
0.2699630546
0.2699632302
0.2699636976
0.2699645286
0.2699637208
0.2699637319
0.2699637163
0.2699637095
0.2699637105
0.2699637035
0.2699636868
0.2699636808
0.2699636946
0.2699637362
0.2699637433
0.2699638647
0.2699641997
0.2699650425
0.2699667561
0.2699619139
0.2699619059
0.2699618971
0.2699618683
0.269961931
0.2699619437
0.269961934
0.2699619339
0.269961911
0.2699618987
0.2699619449
0.2699621238
0.2699625581
0.26996386
0.2699665804
0.2699629676
0.2699629454
0.2699629618
0.2699629346
0.2699629621
0.2699629553
0.269962972
0.269962953
0.2699629412
0.2699629634
0.2699629664
0.2699630571
0.2699634519
0.2699643067
0.2699660342
0.2699627825
0.2699628394
0.2699628623
0.2699628552
0.2699628842
0.2699628607
0.2699628818
0.2699628681
0.2699628264
0.2699628431
0.2699628796
0.2699629346
0.2699630677
0.2699635082
0.269964368
0.2699628969
0.2699629149
0.2699629175
0.2699629377
0.2699629286
0.2699629394
0.2699629397
0.2699629545
0.2699629566
0.2699629764
0.2699629865
0.2699629963
0.2699630567
0.269963237
0.2699635824
0.2699625299
0.2699624704
0.2699624968
0.2699624859
0.2699624988
0.2699625007
0.2699624994
0.2699624564
0.2699624504
0.2699624438
0.2699624611
0.2699625003
0.269962535
0.269962648
0.2699628419
0.2699633547
0.2699633585
0.2699633512
0.2699633608
0.2699633769
0.2699633989
0.2699634102
0.26996343
0.269963426
0.2699633901
0.2699633663
0.2699634035
0.269963472
0.26996367
0.2699630323
0.2699630131
0.2699630011
0.269963007
0.2699630092
0.2699629982
0.2699630044
0.2699630031
0.269962982
0.2699629923
0.2699630489
0.2699630969
0.2699632291
0.2699636902
0.2699626795
0.2699626887
0.2699626637
0.2699626454
0.2699626191
0.2699626376
0.2699626246
0.269962608
0.2699625905
0.269962589
0.2699626443
0.2699628262
0.2699632683
0.2699643456
0.269966635
0.2699639716
0.2699639256
0.2699639764
0.2699639772
0.2699639887
0.2699639917
0.2699639808
0.26996402
0.269964019
0.2699640582
0.2699641656
0.2699644313
0.2699654301
0.2699682099
0.2699742655
0.269962441
0.269962501
0.2699624713
0.2699624507
0.2699624634
0.2699624875
0.2699624706
0.2699624573
0.2699624853
0.2699625114
0.2699625913
0.2699630371
0.2699646152
0.2699697149
0.2699822401
0.2699638872
0.2699639179
0.2699639296
0.2699639387
0.2699639371
0.2699639419
0.2699639417
0.26996393
0.2699639309
0.2699639361
0.269963991
0.2699643056
0.2699652613
0.2699680601
0.2699740998
0.2699648081
0.2699648006
0.2699647794
0.2699647885
0.2699648153
0.2699648113
0.269964786
0.2699647868
0.2699648252
0.2699648287
0.2699649369
0.2699650599
0.2699654885
0.269966659
0.2699690066
0.2699621199
0.2699621428
0.2699621595
0.2699621055
0.2699620828
0.2699620757
0.2699620687
0.2699621032
0.2699621114
0.2699620989
0.2699621017
0.26996218
0.2699623484
0.2699627851
0.2699636459
0.2699632888
0.269963279
0.269963272
0.2699632788
0.2699632678
0.2699632603
0.2699632941
0.2699633124
0.269963294
0.269963289
0.2699632723
0.2699633137
0.2699634191
0.2699635876
0.2699639438
0.269964076
0.269964104
0.2699641328
0.2699641581
0.269964121
0.2699641098
0.2699641107
0.2699640903
0.2699640946
0.2699641134
0.2699641152
0.269964158
0.2699642989
0.2699646166
0.2699625348
0.2699625472
0.2699625573
0.2699625526
0.2699625424
0.2699625337
0.2699625465
0.2699625459
0.2699625326
0.2699625418
0.2699625952
0.269962721
0.2699630386
0.2699638619
0.2699627541
0.2699627496
0.2699627571
0.2699627777
0.2699627179
0.2699627379
0.2699627089
0.2699626867
0.2699627368
0.2699627465
0.2699628281
0.2699631067
0.2699641231
0.269966925
0.2699604094
0.2699603957
0.2699603527
0.2699603717
0.2699603476
0.2699603286
0.2699603698
0.2699603604
0.2699603511
0.2699603553
0.2699605446
0.2699612216
0.2699638006
0.2699725879
0.2699946634
0.2699630133
0.2699630073
0.2699630113
0.2699630137
0.2699630106
0.2699630346
0.2699630429
0.2699630509
0.2699631146
0.2699631624
0.2699633656
0.2699644871
0.2699694827
0.2699908908
0.2700648254
0.2699647075
0.2699647319
0.2699647035
0.2699646749
0.2699646652
0.2699646474
0.2699646561
0.2699646294
0.2699646499
0.2699647192
0.2699648563
0.2699655311
0.2699680961
0.2699769009
0.2699989635
0.2699621755
0.269962181
0.2699622452
0.2699622777
0.2699623163
0.2699623467
0.2699623353
0.2699623425
0.2699623387
0.2699624342
0.2699625048
0.2699627918
0.2699637539
0.2699665841
0.2699726727
0.2699640739
0.2699640432
0.2699640283
0.2699640064
0.2699639916
0.2699640142
0.2699640491
0.2699640464
0.2699640207
0.2699640452
0.2699640402
0.2699641028
0.2699644214
0.2699652659
0.2699669776
0.269962679
0.2699626413
0.2699626372
0.2699626247
0.269962619
0.2699626407
0.2699626378
0.2699626333
0.2699626096
0.269962625
0.2699626831
0.269962732
0.2699628508
0.2699632107
0.2699638444
0.2699631519
0.269963121
0.2699631444
0.2699631214
0.2699631278
0.2699631112
0.2699630735
0.2699630862
0.2699630509
0.2699630615
0.2699631187
0.269963179
0.2699633464
0.2699638163
0.2699622563
0.269962236
0.2699621875
0.2699621673
0.2699621732
0.269962159
0.2699621039
0.2699620796
0.2699620848
0.2699621208
0.2699621381
0.2699622563
0.2699627335
0.2699640111
0.269963028
0.2699630317
0.2699630226
0.2699630196
0.2699630517
0.269963059
0.2699630659
0.2699630315
0.2699630553
0.2699630958
0.269963184
0.2699635906
0.2699651189
0.2699702357
0.2699627517
0.2699627269
0.269962725
0.2699627159
0.2699626954
0.2699627009
0.2699627122
0.2699627084
0.2699627259
0.2699627801
0.2699630413
0.2699640924
0.2699691124
0.2699905498
0.2699632848
0.2699632983
0.2699632755
0.2699633087
0.2699632978
0.2699632792
0.2699632878
0.2699632742
0.2699633395
0.2699634135
0.2699637534
0.2699658973
0.2699782308
0.2700571331
0.2705643217
0.2699641228
0.2699640603
0.2699640576
0.2699639965
0.2699639908
0.2699639733
0.2699639821
0.2699640067
0.2699640504
0.2699641316
0.2699644119
0.2699655181
0.2699705172
0.2699919424
0.2700658255
0.2699630171
0.2699630246
0.2699630501
0.26996304
0.2699630181
0.2699630332
0.2699630195
0.2699630079
0.2699629846
0.2699630175
0.2699630935
0.2699635204
0.2699651094
0.269970241
0.2699827409
0.2699637412
0.2699638062
0.2699638628
0.2699638772
0.269963863
0.2699638864
0.2699638955
0.2699638979
0.2699639034
0.2699639493
0.2699639464
0.2699641471
0.2699645901
0.2699658863
0.269968597
0.2699632304
0.269963232
0.2699632068
0.269963245
0.2699632429
0.2699632251
0.2699632019
0.2699632516
0.2699632169
0.26996326
0.2699632835
0.2699633435
0.2699635274
0.2699639637
0.2699647721
0.2699618218
0.2699618396
0.2699618182
0.2699618029
0.2699617945
0.2699617744
0.2699617647
0.2699617947
0.2699617882
0.2699617989
0.2699618219
0.2699618851
0.2699620307
0.2699623664
0.2699633061
0.2699632921
0.2699632874
0.2699632541
0.269963281
0.2699633193
0.2699633147
0.2699633629
0.2699633344
0.269963296
0.2699633487
0.2699634609
0.2699637601
0.2699646486
0.2699632701
0.2699633042
0.2699632965
0.2699633431
0.2699633735
0.2699633632
0.2699633933
0.2699633869
0.2699633664
0.2699633663
0.2699634464
0.2699637332
0.2699647192
0.2699675215
0.2699620887
0.2699621138
0.2699621602
0.2699621475
0.2699621415
0.2699621638
0.269962202
0.2699621319
0.2699621541
0.2699622446
0.269962431
0.2699631239
0.269965706
0.269974519
0.2699627333
0.2699627515
0.2699627534
0.2699627838
0.2699627523
0.2699627385
0.2699627394
0.2699627357
0.2699628125
0.2699628644
0.2699631068
0.2699641858
0.2699691389
0.2699905156
0.2699623007
0.269962324
0.2699623081
0.2699623146
0.2699623256
0.2699623261
0.2699623241
0.2699623481
0.2699623617
0.2699623748
0.2699625368
0.2699632073
0.2699657781
0.2699746159
0.2699632764
0.2699632817
0.2699633126
0.2699633179
0.2699632749
0.2699632492
0.269963259
0.2699632723
0.2699632688
0.2699633183
0.2699634037
0.2699636877
0.2699646914
0.2699674484
0.2699735605
0.2699629195
0.269962896
0.2699629142
0.2699629381
0.2699629494
0.2699629695
0.2699629643
0.2699630044
0.2699630026
0.2699630068
0.2699630262
0.2699631325
0.2699634648
0.269964339
0.2699660604
0.2699630858
0.2699631164
0.2699631034
0.2699631133
0.2699631312
0.2699631211
0.2699631371
0.2699631546
0.2699631602
0.2699631379
0.2699631796
0.2699632562
0.2699634431
0.269963771
0.2699644207
0.2699634553
0.2699634692
0.2699634556
0.2699634092
0.2699634222
0.2699634464
0.26996345
0.2699634031
0.2699633846
0.2699633786
0.269963387
0.269963402
0.2699634656
0.2699636895
0.2699623853
0.2699624349
0.2699624631
0.2699624929
0.2699624751
0.2699624196
0.2699624308
0.2699624192
0.2699624315
0.2699624501
0.2699624615
0.2699625404
0.2699627025
0.2699631492
0.2699642579
0.2699642884
0.2699642532
0.2699642228
0.2699642418
0.2699642946
0.2699642934
0.2699642777
0.2699643045
0.2699643743
0.2699644182
0.2699645515
0.2699650055
0.2699661424
0.269962763
0.2699627617
0.2699627646
0.2699627732
0.2699627726
0.2699627681
0.2699627702
0.2699627717
0.2699627589
0.2699627735
0.2699628093
0.2699631151
0.2699640406
0.2699668331
0.2699618675
0.2699618267
0.2699618115
0.2699617979
0.2699617874
0.269961768
0.2699617773
0.2699617607
0.2699617505
0.2699617718
0.2699619125
0.2699622706
0.2699638705
0.2699690323
0.2699633032
0.2699633012
0.2699633045
0.269963323
0.2699633399
0.2699633741
0.2699633799
0.2699633831
0.2699633751
0.2699633807
0.2699634248
0.2699637604
0.2699647501
0.269967546
0.2699634003
0.2699634293
0.269963379
0.2699633635
0.2699633495
0.2699633842
0.2699633875
0.269963392
0.2699633892
0.2699633882
0.269963426
0.2699635609
0.2699640066
0.2699651115
0.2699623955
0.2699624081
0.2699624059
0.2699623733
0.269962376
0.2699623708
0.269962375
0.2699624068
0.26996242
0.2699624482
0.2699624496
0.2699625274
0.2699627023
0.2699631012
0.2699639207
0.2699631653
0.2699631816
0.2699631756
0.2699631971
0.2699631933
0.2699632255
0.2699631781
0.2699631653
0.2699631714
0.2699631488
0.2699631696
0.2699631854
0.2699632588
0.2699634079
0.2699638361
0.2699637111
0.2699637108
0.2699637021
0.2699637
0.2699636792
0.2699636802
0.2699636893
0.2699637033
0.2699637466
0.2699637412
0.2699637151
0.2699637441
0.2699637767
0.2699638593
0.2699638682
0.2699638852
0.269963862
0.2699638903
0.2699638787
0.269963887
0.2699638794
0.2699638599
0.2699638372
0.2699638456
0.2699638498
0.2699638782
0.2699639255
0.2699641174
0.2699619904
0.2699619754
0.2699620172
0.2699620209
0.2699620162
0.2699620234
0.2699620167
0.2699620188
0.269962018
0.2699619883
0.269962019
0.2699621099
0.2699622841
0.2699627262
0.2699625111
0.269962535
0.269962559
0.2699625166
0.2699625206
0.2699625276
0.26996255
0.2699625299
0.2699625445
0.2699625387
0.2699625297
0.2699626145
0.2699630306
0.2699638755
0.2699627523
0.269962719
0.2699627126
0.2699627177
0.2699627125
0.2699627059
0.2699627177
0.269962699
0.2699627004
0.2699626681
0.2699627134
0.2699628039
0.2699632728
0.2699645865
0.2699617519
0.2699617318
0.2699617252
0.2699617312
0.2699617456
0.2699617457
0.2699617589
0.2699618027
0.2699617458
0.2699617423
0.2699617927
0.2699619002
0.269962231
0.2699630709
0.2699642711
0.2699642504
0.2699641859
0.2699642039
0.2699641593
0.2699641375
0.2699641288
0.269964092
0.2699640673
0.2699640439
0.2699640388
0.2699641192
0.2699643186
0.2699647673
0.269963854
0.2699638923
0.2699638625
0.2699638512
0.2699638749
0.2699638484
0.2699638191
0.2699638295
0.2699638238
0.2699638344
0.2699638739
0.2699638662
0.2699639381
0.2699641385
0.2699631485
0.2699631897
0.2699631786
0.2699631609
0.2699631689
0.2699631717
0.2699631958
0.2699631896
0.2699632059
0.2699632002
0.269963202
0.269963225
0.2699632637
0.2699634199
0.269963613
0.269963749
0.269963784
0.2699637781
0.26996375
0.2699637493
0.2699637628
0.2699637737
0.2699637537
0.2699637643
0.2699637547
0.2699637753
0.2699637778
0.2699638092
0.2699638355
0.2699628688
0.2699628267
0.2699627936
0.2699627746
0.269962791
0.2699627816
0.2699628179
0.2699628028
0.269962817
0.2699627911
0.2699628005
0.2699628113
0.2699628627
0.2699629723
0.2699628101
0.2699628454
0.2699628191
0.2699628222
0.2699627886
0.2699627961
0.2699627776
0.2699627861
0.2699627693
0.2699627594
0.2699628011
0.2699628226
0.2699629081
0.2699630889
0.2699628987
0.2699628827
0.2699628783
0.2699628668
0.2699628956
0.2699628961
0.2699629242
0.2699629322
0.2699629681
0.2699629901
0.2699629826
0.2699630232
0.269963126
0.2699634365
0.2699636185
0.2699636469
0.2699636164
0.269963617
0.2699636345
0.2699636342
0.2699636182
0.2699636607
0.2699636419
0.2699636494
0.2699636699
0.269963745
0.2699639013
0.2699643288
0.2699630305
0.2699630097
0.269963023
0.2699630188
0.2699629741
0.2699629961
0.2699630276
0.2699629945
0.2699630412
0.2699630577
0.2699630867
0.2699630781
0.2699632136
0.2699635069
0.2699646234
0.2699646301
0.2699646054
0.2699645772
0.2699645997
0.2699645817
0.2699646032
0.2699646566
0.2699646381
0.269964619
0.2699646077
0.2699646472
0.2699647448
0.2699649492
0.2699631479
0.269963129
0.2699631671
0.2699631397
0.2699631359
0.2699631316
0.2699631194
0.2699631447
0.2699631367
0.2699631562
0.2699631487
0.2699631651
0.2699631734
0.2699632257
0.2699625364
0.2699625237
0.2699625323
0.2699625413
0.2699625575
0.2699625717
0.2699625894
0.2699626013
0.2699626041
0.2699626099
0.2699626171
0.2699626366
0.2699626648
0.2699627113
)
;

boundaryField
{
    top
    {
        type            calculated;
        value           nonuniform List<scalar> 
134
(
0.2699631821
0.2699625299
0.2699632888
0.269962679
0.2699632304
0.2699630858
0.2699631653
0.2699631485
0.2699625364
0.2699631611
0.2699624704
0.269963279
0.2699626413
0.269963232
0.2699631164
0.2699631816
0.2699631897
0.2699625237
0.2699631723
0.2699624968
0.269963272
0.2699626372
0.2699632068
0.2699631034
0.2699631756
0.2699631786
0.2699625323
0.2699631828
0.2699624859
0.2699632788
0.2699626247
0.269963245
0.2699631133
0.2699631971
0.2699631609
0.2699625413
0.269963209
0.2699624988
0.2699632678
0.269962619
0.2699632429
0.2699631312
0.2699631933
0.2699631689
0.2699625575
0.2699631804
0.2699625007
0.2699632603
0.2699626407
0.2699632251
0.2699631211
0.2699632255
0.2699631717
0.2699625717
0.2699631875
0.2699624994
0.2699632941
0.2699626378
0.2699632019
0.2699631371
0.2699631781
0.2699631958
0.2699625894
0.2699631997
0.2699624564
0.2699633124
0.2699626333
0.2699632516
0.2699631546
0.2699631653
0.2699631896
0.2699626013
0.2699631958
0.2699624504
0.269963294
0.2699626096
0.2699632169
0.2699631602
0.2699631714
0.2699632059
0.2699626041
0.2699631902
0.2699624438
0.269963289
0.269962625
0.26996326
0.2699631379
0.2699631488
0.2699632002
0.2699626099
0.2699631968
0.2699624611
0.2699632723
0.2699626831
0.2699632835
0.2699631796
0.2699631696
0.269963202
0.2699626171
0.269963204
0.2699625003
0.2699633137
0.269962732
0.2699633435
0.2699632562
0.2699631854
0.269963225
0.2699626366
0.2699632608
0.269962535
0.2699634191
0.2699628508
0.2699635274
0.2699634431
0.2699632588
0.2699632637
0.2699626648
0.2699632816
0.269962648
0.2699635876
0.2699632107
0.2699639637
0.269963771
0.2699634079
0.2699634199
0.2699627113
0.2699633643
0.2699628419
0.2699639438
0.2699638444
0.2699647721
0.2699644207
0.2699638361
0.269963613
)
;
    }
    bottom
    {
        type            calculated;
        value           nonuniform List<scalar> 
127
(
0.2699630229
0.2699630142
0.2699633547
0.269964076
0.2699631519
0.2699618218
0.2699634553
0.2699637111
0.269963749
0.2699630112
0.2699630239
0.2699633585
0.269964104
0.269963121
0.2699618396
0.2699634692
0.2699637108
0.269963784
0.2699630171
0.2699630362
0.2699633512
0.2699641328
0.2699631444
0.2699618182
0.2699634556
0.2699637021
0.2699637781
0.2699630219
0.2699630498
0.2699633608
0.2699641581
0.2699631214
0.2699618029
0.2699634092
0.2699637
0.26996375
0.2699630403
0.2699630503
0.2699633769
0.269964121
0.2699631278
0.2699617945
0.2699634222
0.2699636792
0.2699637493
0.269963062
0.2699630372
0.2699633989
0.2699641098
0.2699631112
0.2699617744
0.2699634464
0.2699636802
0.2699637628
0.2699630583
0.2699630303
0.2699634102
0.2699641107
0.2699630735
0.2699617647
0.26996345
0.2699636893
0.2699637737
0.2699630233
0.2699630119
0.26996343
0.2699640903
0.2699630862
0.2699617947
0.2699634031
0.2699637033
0.2699637537
0.2699630376
0.2699629869
0.269963426
0.2699640946
0.2699630509
0.2699617882
0.2699633846
0.2699637466
0.2699637643
0.2699630248
0.2699630364
0.2699633901
0.2699641134
0.2699630615
0.2699617989
0.2699633786
0.2699637412
0.2699637547
0.269963061
0.2699630431
0.2699633663
0.2699641152
0.2699631187
0.2699618219
0.269963387
0.2699637151
0.2699637753
0.2699630448
0.2699630379
0.2699634035
0.269964158
0.269963179
0.2699618851
0.269963402
0.2699637441
0.2699637778
0.2699630532
0.2699631234
0.269963472
0.2699642989
0.2699633464
0.2699620307
0.2699634656
0.2699637767
0.2699638092
0.2699631197
0.2699632449
0.26996367
0.2699646166
0.2699638163
0.2699623664
0.2699636895
0.2699638593
0.2699638355
0.2699632239
)
;
    }
    side-walls
    {
        type            calculated;
        value           nonuniform List<scalar> 
261
(
0.2699630229
0.2699631864
0.2699634464
0.2699632089
0.2699632578
0.2699630313
0.2699635915
0.2699637009
0.2699631821
0.2699630112
0.2699631869
0.2699634592
0.2699632268
0.26996324
0.2699630484
0.2699636069
0.2699637063
0.2699631611
0.2699630171
0.2699631721
0.2699634487
0.2699632991
0.2699632103
0.269963056
0.2699636218
0.2699636869
0.2699631723
0.2699630219
0.2699631657
0.2699634604
0.2699632688
0.2699632205
0.2699630387
0.2699636003
0.26996367
0.2699631828
0.2699630403
0.2699631625
0.2699634431
0.269963195
0.2699632095
0.2699630363
0.2699636103
0.2699636765
0.269963209
0.269963062
0.2699631989
0.2699634297
0.2699632194
0.2699631817
0.2699630583
0.2699636124
0.269963683
0.2699631804
0.2699630583
0.2699632224
0.269963432
0.2699632073
0.2699631865
0.2699630321
0.2699636229
0.2699636752
0.2699631875
0.2699630233
0.2699632214
0.2699634331
0.2699631969
0.2699631817
0.2699630092
0.2699636327
0.2699636285
0.2699631997
0.2699630376
0.2699631823
0.2699634443
0.269963196
0.2699632013
0.2699630187
0.2699636598
0.2699636423
0.2699631958
0.2699630248
0.2699632019
0.2699633795
0.2699632321
0.269963179
0.2699630109
0.2699636811
0.2699636488
0.2699631902
0.269963061
0.2699631938
0.2699634348
0.2699632755
0.2699632055
0.2699630294
0.2699636892
0.2699636544
0.2699631968
0.2699630448
0.2699632152
0.2699634524
0.2699633275
0.2699632696
0.2699630901
0.2699637208
0.2699636701
0.269963204
0.2699630532
0.2699632208
0.2699635511
0.2699634603
0.2699634654
0.2699632133
0.2699637751
0.2699637305
0.2699632608
0.2699631197
0.2699633588
0.2699637514
0.2699638044
0.2699638916
0.2699635515
0.2699639502
0.269963843
0.2699632816
0.2699632239
0.2699635458
0.269964129
0.2699644441
0.2699647721
0.2699641666
0.2699643074
0.2699640179
0.2699633643
0.269963749
0.2699628688
0.2699628101
0.2699628987
0.2699636185
0.2699630305
0.2699646234
0.2699631479
0.2699625364
0.269963784
0.2699628267
0.2699628454
0.2699628827
0.2699636469
0.2699630097
0.2699646301
0.269963129
0.2699625237
0.2699637781
0.2699627936
0.2699628191
0.2699628783
0.2699636164
0.269963023
0.2699646054
0.2699631671
0.2699625323
0.26996375
0.2699627746
0.2699628222
0.2699628668
0.269963617
0.2699630188
0.2699645772
0.2699631397
0.2699625413
0.2699637493
0.269962791
0.2699627886
0.2699628956
0.2699636345
0.2699629741
0.2699645997
0.2699631359
0.2699625575
0.2699637628
0.2699627816
0.2699627961
0.2699628961
0.2699636342
0.2699629961
0.2699645817
0.2699631316
0.2699625717
0.2699637737
0.2699628179
0.2699627776
0.2699629242
0.2699636182
0.2699630276
0.2699646032
0.2699631194
0.2699625894
0.2699637537
0.2699628028
0.2699627861
0.2699629322
0.2699636607
0.2699629945
0.2699646566
0.2699631447
0.2699626013
0.2699637643
0.269962817
0.2699627693
0.2699629681
0.2699636419
0.2699630412
0.2699646381
0.2699631367
0.2699626041
0.2699637547
0.2699627911
0.2699627594
0.2699629901
0.2699636494
0.2699630577
0.269964619
0.2699631562
0.2699626099
0.2699637753
0.2699628005
0.2699628011
0.2699629826
0.2699636699
0.2699630867
0.2699646077
0.2699631487
0.2699626171
0.2699637778
0.2699628113
0.2699628226
0.2699630232
0.269963745
0.2699630781
0.2699646472
0.2699631651
0.2699626366
0.2699638092
0.2699628627
0.2699629081
0.269963126
0.2699639013
0.2699632136
0.2699647448
0.2699631734
0.2699626648
0.2699638355
0.2699629723
0.2699630889
0.2699634365
0.2699643288
0.2699635069
0.2699649492
0.2699632257
0.2699627113
)
;
    }
    inlet
    {
        type            calculated;
        value           nonuniform List<scalar> 
81
(
0.2699630229
0.2699631864
0.2699634464
0.2699632089
0.2699632578
0.2699630313
0.2699635915
0.2699637009
0.2699631821
0.2699630142
0.269962858
0.2699628591
0.2699637208
0.2699619139
0.2699629676
0.2699627825
0.2699628969
0.2699625299
0.2699633547
0.2699630323
0.2699626795
0.2699639716
0.269962441
0.2699638872
0.2699648081
0.2699621199
0.2699632888
0.269964076
0.2699625348
0.2699627541
0.2699604094
0.2699630133
0.2699647075
0.2699621755
0.2699640739
0.269962679
0.2699631519
0.2699622563
0.269963028
0.2699627517
0.2699632848
0.2699641228
0.2699630171
0.2699637412
0.2699632304
0.2699618218
0.2699633061
0.2699632701
0.2699620887
0.2699627333
0.2699623007
0.2699632764
0.2699629195
0.2699630858
0.2699634553
0.2699623853
0.2699642579
0.269962763
0.2699618675
0.2699633032
0.2699634003
0.2699623955
0.2699631653
0.2699637111
0.2699638682
0.2699619904
0.2699625111
0.2699627523
0.2699617519
0.2699642711
0.269963854
0.2699631485
0.269963749
0.2699628688
0.2699628101
0.2699628987
0.2699636185
0.2699630305
0.2699646234
0.2699631479
0.2699625364
)
;
    }
    outlet
    {
        type            calculated;
        value           nonuniform 0();
    }
    procBoundary0to1
    {
        type            processor;
        value           nonuniform List<scalar> 
97
(
0.2699634219
0.2699634057
0.2699638492
0.269964707
0.2699654095
0.2699660006
0.2699651742
0.2699648695
0.2699643725
0.2699635621
0.2699634057
0.2699634057
0.2699641789
0.2699645205
0.2699657209
0.2699691048
0.2699697545
0.2699683406
0.269965616
0.2699642096
0.2699631631
0.2699640222
0.2699645205
0.2699645205
0.2699696468
0.26997296
0.2699807645
0.2699914335
0.2699805484
0.2699720109
0.2699648513
0.269964552
0.2699652355
0.2699656323
0.26997296
0.26997296
0.2700092603
0.2700644497
0.270075213
0.2700135844
0.2699791096
0.2699692583
0.2699647864
0.2699646703
0.269966696
0.2699827496
0.2700644497
0.2700644497
0.271607203
0.2700644567
0.270076217
0.2699966578
0.2699919271
0.2699717671
0.2699660119
0.2699629515
0.2699663337
0.2699735919
0.2699966128
0.2700644567
0.2699966578
0.2699966578
0.2699800117
0.2699674448
0.2699684189
0.269965419
0.2699640641
0.2699639902
0.2699684301
0.2699728802
0.2699815059
0.269973611
0.2699674448
0.2699674448
0.2699651609
0.2699644977
0.2699644187
0.2699640368
0.2699645061
0.2699635954
0.269965553
0.2699672341
0.269964761
0.2699656272
0.2699644977
0.2699644977
0.2699639039
0.2699628153
0.269963989
0.2699631493
0.2699634006
0.2699640803
0.2699651803
0.2699641474
0.2699652849
0.2699634292
0.2699628153
)
;
    }
}


// ************************************************************************* //
