/*--------------------------------*- C++ -*----------------------------------*\
| =========                 |                                                 |
| \\      /  F ield         | OpenFOAM: The Open Source CFD Toolbox           |
|  \\    /   O peration     | Version:  4.x                                   |
|   \\  /    A nd           | Web:      www.OpenFOAM.org                      |
|    \\/     M anipulation  |                                                 |
\*---------------------------------------------------------------------------*/
FoamFile
{
    version     2.0;
    format      ascii;
    class       volScalarField;
    location    "6000";
    object      X_CO2;
}
// * * * * * * * * * * * * * * * * * * * * * * * * * * * * * * * * * * * * * //

dimensions      [0 0 0 0 0 0 0];

internalField   nonuniform List<scalar> 
1175
(
0.04000731939
0.04000731939
0.04000731939
0.04000731939
0.04000731941
0.04000731947
0.04000731968
0.04000732033
0.04000732237
0.04000732838
0.04000734519
0.04000738907
0.04000749455
0.04000772409
0.04000816965
0.04000731939
0.04000731939
0.04000731939
0.04000731939
0.04000731942
0.0400073195
0.04000731977
0.04000732067
0.04000732358
0.04000733252
0.04000735855
0.04000742921
0.04000760481
0.04000799518
0.04000875272
0.04000731939
0.04000731939
0.04000731939
0.0400073194
0.04000731943
0.04000731954
0.04000731993
0.04000732128
0.04000732581
0.04000734038
0.04000738484
0.04000751125
0.04000783861
0.04000858737
0.04001004351
0.04000731939
0.04000731939
0.04000731939
0.0400073194
0.04000731944
0.04000731958
0.04000732009
0.04000732192
0.04000732829
0.04000734955
0.04000741715
0.04000761784
0.04000816015
0.04000944282
0.0400119543
0.04000731939
0.04000731939
0.04000731939
0.0400073194
0.04000731944
0.0400073196
0.04000732016
0.04000732223
0.0400073295
0.04000735429
0.04000743497
0.04000768133
0.04000836844
0.04001004378
0.04001336408
0.04000731939
0.04000731939
0.04000731939
0.0400073194
0.04000731944
0.04000731958
0.04000732009
0.04000732192
0.04000732828
0.04000734955
0.04000741714
0.04000761784
0.04000816014
0.0400094428
0.04001195427
0.04000731939
0.04000731939
0.04000731939
0.0400073194
0.04000731943
0.04000731954
0.04000731993
0.04000732128
0.04000732581
0.04000734038
0.04000738484
0.04000751125
0.0400078386
0.04000858734
0.04001004346
0.04000731939
0.04000731939
0.04000731939
0.04000731939
0.04000731942
0.0400073195
0.04000731977
0.04000732067
0.04000732358
0.04000733252
0.04000735855
0.04000742921
0.0400076048
0.04000799516
0.04000875268
0.04000731939
0.04000731939
0.04000731939
0.04000731939
0.04000731941
0.04000731947
0.04000731968
0.04000732033
0.04000732237
0.04000732838
0.04000734519
0.04000738907
0.04000749454
0.04000772408
0.04000816961
0.04000731939
0.04000731939
0.04000731939
0.04000731939
0.04000731942
0.0400073195
0.04000731977
0.04000732067
0.04000732358
0.04000733252
0.04000735855
0.04000742921
0.04000760481
0.04000799519
0.04000731939
0.04000731939
0.04000731939
0.0400073194
0.04000731943
0.04000731953
0.04000731991
0.04000732121
0.04000732563
0.04000733992
0.04000738387
0.0400075099
0.04000783899
0.04000859631
0.04001007029
0.04000731939
0.04000731939
0.04000731939
0.0400073194
0.04000731944
0.04000731959
0.04000732016
0.04000732222
0.04000732958
0.04000735487
0.04000743764
0.04000769075
0.0400083935
0.04001008957
0.04001342346
0.04000731939
0.04000731939
0.04000731939
0.0400073194
0.04000731945
0.04000731965
0.04000732043
0.04000732336
0.0400073343
0.04000737387
0.04000751117
0.04000795896
0.04000928925
0.04001270218
0.04001957349
0.04000731939
0.04000731939
0.04000731939
0.04000731941
0.04000731946
0.04000731968
0.04000732055
0.04000732393
0.0400073368
0.04000738479
0.04000755771
0.04000814942
0.04001001424
0.04001512436
0.04002587923
0.04000731939
0.04000731939
0.04000731939
0.0400073194
0.04000731945
0.04000731965
0.04000732043
0.04000732336
0.0400073343
0.04000737387
0.04000751117
0.04000795895
0.04000928922
0.04001270212
0.04001957335
0.04000731939
0.04000731939
0.04000731939
0.0400073194
0.04000731944
0.04000731959
0.04000732016
0.04000732222
0.04000732958
0.04000735487
0.04000743764
0.04000769074
0.04000839347
0.0400100895
0.0400134233
0.04000731939
0.04000731939
0.04000731939
0.0400073194
0.04000731943
0.04000731953
0.04000731991
0.04000732121
0.04000732563
0.04000733992
0.04000738387
0.04000750989
0.04000783897
0.04000859627
0.04001007017
0.04000731939
0.04000731939
0.04000731939
0.04000731939
0.04000731942
0.0400073195
0.04000731977
0.04000732067
0.04000732358
0.04000733252
0.04000735855
0.04000742921
0.0400076048
0.04000799516
0.04000875268
0.04000731939
0.04000731939
0.04000731939
0.0400073194
0.04000731943
0.04000731954
0.04000731993
0.04000732128
0.04000732581
0.04000734038
0.04000738485
0.04000751125
0.04000783862
0.0400085874
0.04000731939
0.04000731939
0.04000731939
0.0400073194
0.04000731944
0.04000731959
0.04000732016
0.04000732222
0.04000732958
0.04000735487
0.04000743764
0.04000769075
0.04000839351
0.04001008963
0.04000731939
0.04000731939
0.04000731939
0.04000731941
0.04000731946
0.04000731969
0.04000732059
0.04000732406
0.04000733729
0.04000738619
0.04000755959
0.040008137
0.04000988445
0.04001443081
0.04002362256
0.04000731939
0.04000731939
0.04000731939
0.04000731941
0.04000731949
0.0400073198
0.04000732107
0.04000732627
0.04000734721
0.04000743003
0.04000774748
0.04000890395
0.04001277384
0.04002393027
0.0400479831
0.04000731939
0.04000731939
0.04000731939
0.04000731941
0.0400073195
0.04000731985
0.04000732131
0.04000732745
0.04000735299
0.04000745849
0.04000788673
0.04000957027
0.04001579673
0.04003615603
0.04008591344
0.04000731939
0.04000731939
0.04000731939
0.04000731941
0.04000731949
0.0400073198
0.04000732107
0.04000732627
0.04000734721
0.04000743003
0.04000774748
0.04000890392
0.04001277373
0.04002392993
0.04004798228
0.04000731939
0.04000731939
0.04000731939
0.04000731941
0.04000731946
0.04000731969
0.04000732059
0.04000732406
0.04000733728
0.04000738619
0.04000755958
0.04000813697
0.04000988436
0.04001443055
0.04002362188
0.04000731939
0.04000731939
0.04000731939
0.0400073194
0.04000731944
0.04000731959
0.04000732016
0.04000732222
0.04000732958
0.04000735487
0.04000743764
0.04000769074
0.04000839347
0.0400100895
0.0400134233
0.04000731939
0.04000731939
0.04000731939
0.0400073194
0.04000731943
0.04000731954
0.04000731993
0.04000732128
0.04000732581
0.04000734038
0.04000738484
0.04000751125
0.0400078386
0.04000858734
0.04001004347
0.04000731939
0.04000731939
0.04000731939
0.0400073194
0.04000731944
0.04000731958
0.04000732009
0.04000732192
0.04000732829
0.04000734955
0.04000741715
0.04000761785
0.04000816017
0.04000944288
0.04000731939
0.04000731939
0.04000731939
0.0400073194
0.04000731945
0.04000731965
0.04000732043
0.04000732336
0.0400073343
0.04000737387
0.04000751117
0.04000795897
0.0400092893
0.04001270235
0.04000731939
0.04000731939
0.04000731939
0.04000731941
0.04000731949
0.0400073198
0.04000732107
0.04000732627
0.04000734721
0.04000743003
0.04000774749
0.04000890397
0.04001277393
0.04002393069
0.04000731939
0.04000731939
0.04000731939
0.04000731942
0.04000731952
0.04000731996
0.04000732183
0.04000732996
0.04000736513
0.04000751652
0.04000815937
0.04001080762
0.0400210648
0.04005602527
0.04014383844
0.04000731939
0.04000731939
0.04000731939
0.04000731942
0.04000731953
0.04000732003
0.04000732224
0.04000733208
0.04000737663
0.04000758058
0.04000852307
0.04001288899
0.04003279432
0.04011792048
0.04040823333
0.04000731939
0.04000731939
0.04000731939
0.04000731942
0.04000731952
0.04000731996
0.04000732183
0.04000732996
0.04000736513
0.04000751651
0.04000815935
0.04001080751
0.04002106439
0.04005602381
0.04014383403
0.04000731939
0.04000731939
0.04000731939
0.04000731941
0.04000731949
0.0400073198
0.04000732107
0.04000732627
0.04000734721
0.04000743003
0.04000774748
0.04000890392
0.04001277375
0.04002392998
0.04004798234
0.04000731939
0.04000731939
0.04000731939
0.0400073194
0.04000731945
0.04000731965
0.04000732043
0.04000732336
0.0400073343
0.04000737387
0.04000751117
0.04000795895
0.04000928922
0.04001270211
0.04001957332
0.04000731939
0.04000731939
0.04000731939
0.0400073194
0.04000731944
0.04000731958
0.04000732009
0.04000732192
0.04000732828
0.04000734955
0.04000741714
0.04000761784
0.04000816014
0.0400094428
0.04001195426
0.04000731939
0.04000731939
0.04000731939
0.0400073194
0.04000731944
0.0400073196
0.04000732016
0.04000732223
0.0400073295
0.04000735429
0.04000743497
0.04000768134
0.04000836847
0.04001004386
0.04000731939
0.04000731939
0.04000731939
0.04000731941
0.04000731946
0.04000731968
0.04000732055
0.04000732393
0.0400073368
0.04000738479
0.04000755771
0.04000814944
0.04001001431
0.04001512458
0.04000731939
0.04000731939
0.04000731939
0.04000731941
0.0400073195
0.04000731985
0.04000732131
0.04000732745
0.040007353
0.04000745849
0.04000788674
0.04000957031
0.04001579693
0.04003615683
0.04000731939
0.04000731939
0.04000731939
0.04000731942
0.04000731953
0.04000732003
0.04000732224
0.04000733208
0.04000737664
0.04000758058
0.04000852309
0.04001288908
0.04003279483
0.04011792371
0.04000731939
0.04000731939
0.0400073194
0.04000731942
0.04000731955
0.04000732013
0.04000732274
0.04000733488
0.04000739307
0.0400076822
0.0400091881
0.04001750222
0.04006667179
0.04038042376
0.04255646031
0.04000731939
0.04000731939
0.04000731939
0.04000731942
0.04000731953
0.04000732003
0.04000732224
0.04000733208
0.04000737663
0.04000758058
0.04000852306
0.04001288897
0.04003279424
0.04011792026
0.0404082329
0.04000731939
0.04000731939
0.04000731939
0.04000731941
0.0400073195
0.04000731985
0.04000732131
0.04000732745
0.04000735299
0.04000745848
0.04000788673
0.04000957026
0.04001579671
0.04003615598
0.04008591326
0.04000731939
0.04000731939
0.04000731939
0.04000731941
0.04000731946
0.04000731968
0.04000732055
0.04000732393
0.0400073368
0.04000738479
0.04000755771
0.04000814941
0.04001001422
0.04001512432
0.04002587913
0.04000731939
0.04000731939
0.04000731939
0.0400073194
0.04000731944
0.0400073196
0.04000732016
0.04000732223
0.0400073295
0.04000735429
0.04000743497
0.04000768133
0.04000836843
0.04001004377
0.04001336405
0.04000731939
0.04000731939
0.04000731939
0.0400073194
0.04000731944
0.04000731958
0.04000732009
0.04000732192
0.04000732829
0.04000734955
0.04000741715
0.04000761785
0.04000816017
0.04000944287
0.04000731939
0.04000731939
0.04000731939
0.0400073194
0.04000731945
0.04000731965
0.04000732043
0.04000732336
0.0400073343
0.04000737387
0.04000751117
0.04000795897
0.04000928929
0.04001270229
0.04000731939
0.04000731939
0.04000731939
0.04000731941
0.04000731949
0.0400073198
0.04000732107
0.04000732627
0.04000734721
0.04000743003
0.04000774749
0.04000890397
0.04001277391
0.0400239305
0.04000731939
0.04000731939
0.04000731939
0.04000731942
0.04000731952
0.04000731995
0.04000732183
0.04000732996
0.04000736513
0.04000751652
0.04000815937
0.04001080763
0.04002106486
0.04005602552
0.04000731939
0.04000731939
0.04000731939
0.04000731942
0.04000731953
0.04000732003
0.04000732224
0.04000733208
0.04000737663
0.04000758058
0.04000852308
0.04001288908
0.04003279483
0.04011792361
0.04000731939
0.04000731939
0.04000731939
0.04000731942
0.04000731952
0.04000731996
0.04000732183
0.04000732996
0.04000736513
0.04000751651
0.04000815937
0.0400108076
0.04002106476
0.04005602534
0.04000731939
0.04000731939
0.04000731939
0.04000731941
0.04000731949
0.0400073198
0.04000732107
0.04000732627
0.04000734721
0.04000743003
0.04000774748
0.04000890395
0.04001277385
0.04002393031
0.04004798331
0.04000731939
0.04000731939
0.04000731939
0.0400073194
0.04000731945
0.04000731965
0.04000732043
0.04000732336
0.0400073343
0.04000737387
0.04000751117
0.04000795896
0.04000928925
0.0400127022
0.04001957352
0.04000731939
0.04000731939
0.04000731939
0.0400073194
0.04000731944
0.04000731958
0.04000732009
0.04000732192
0.04000732829
0.04000734955
0.04000741715
0.04000761785
0.04000816015
0.04000944282
0.04001195431
0.04000731939
0.04000731939
0.04000731939
0.0400073194
0.04000731943
0.04000731954
0.04000731993
0.04000732128
0.04000732581
0.04000734038
0.04000738485
0.04000751125
0.04000783862
0.04000858739
0.04000731939
0.04000731939
0.04000731939
0.0400073194
0.04000731944
0.04000731959
0.04000732016
0.04000732222
0.04000732958
0.04000735487
0.04000743764
0.04000769075
0.04000839351
0.0400100896
0.04000731939
0.04000731939
0.04000731939
0.04000731941
0.04000731946
0.04000731969
0.04000732059
0.04000732406
0.04000733729
0.04000738619
0.04000755959
0.040008137
0.04000988446
0.0400144308
0.04000731939
0.04000731939
0.04000731939
0.04000731941
0.04000731949
0.0400073198
0.04000732107
0.04000732627
0.04000734721
0.04000743003
0.04000774749
0.04000890398
0.04001277394
0.04002393054
0.04000731939
0.04000731939
0.04000731939
0.04000731941
0.0400073195
0.04000731985
0.04000732131
0.04000732745
0.040007353
0.04000745849
0.04000788674
0.04000957032
0.04001579697
0.04003615687
0.04000731939
0.04000731939
0.04000731939
0.04000731941
0.04000731949
0.0400073198
0.04000732107
0.04000732627
0.04000734721
0.04000743003
0.04000774749
0.04000890397
0.04001277391
0.04002393047
0.04000731939
0.04000731939
0.04000731939
0.04000731941
0.04000731946
0.04000731969
0.04000732059
0.04000732406
0.04000733729
0.04000738619
0.04000755959
0.040008137
0.04000988445
0.04001443083
0.04000731939
0.04000731939
0.04000731939
0.0400073194
0.04000731944
0.04000731959
0.04000732016
0.04000732222
0.04000732958
0.04000735487
0.04000743764
0.04000769075
0.0400083935
0.04001008958
0.0400134235
0.04000731939
0.04000731939
0.04000731939
0.0400073194
0.04000731943
0.04000731954
0.04000731993
0.04000732128
0.04000732581
0.04000734038
0.04000738485
0.04000751125
0.04000783861
0.04000858737
0.04001004352
0.04000731939
0.04000731939
0.04000731939
0.04000731939
0.04000731942
0.0400073195
0.04000731977
0.04000732067
0.04000732358
0.04000733252
0.04000735855
0.04000742921
0.04000760481
0.04000799518
0.04000731939
0.04000731939
0.04000731939
0.0400073194
0.04000731943
0.04000731953
0.04000731991
0.04000732121
0.04000732563
0.04000733992
0.04000738387
0.0400075099
0.04000783899
0.04000859631
0.04000731939
0.04000731939
0.04000731939
0.0400073194
0.04000731944
0.04000731959
0.04000732016
0.04000732222
0.04000732958
0.04000735487
0.04000743764
0.04000769075
0.04000839351
0.0400100896
0.04000731939
0.04000731939
0.04000731939
0.0400073194
0.04000731945
0.04000731965
0.04000732043
0.04000732336
0.0400073343
0.04000737387
0.04000751117
0.04000795897
0.0400092893
0.04001270231
0.04000731939
0.04000731939
0.04000731939
0.04000731941
0.04000731946
0.04000731968
0.04000732055
0.04000732393
0.0400073368
0.04000738479
0.04000755771
0.04000814944
0.04001001431
0.04001512457
0.04000731939
0.04000731939
0.04000731939
0.0400073194
0.04000731945
0.04000731965
0.04000732043
0.04000732336
0.0400073343
0.04000737387
0.04000751117
0.04000795897
0.04000928929
0.0400127023
0.04000731939
0.04000731939
0.04000731939
0.0400073194
0.04000731944
0.04000731959
0.04000732016
0.04000732222
0.04000732958
0.04000735487
0.04000743764
0.04000769075
0.04000839351
0.04001008959
0.04000731939
0.04000731939
0.04000731939
0.0400073194
0.04000731943
0.04000731953
0.04000731991
0.04000732121
0.04000732563
0.04000733992
0.04000738387
0.0400075099
0.04000783899
0.04000859631
0.04000731939
0.04000731939
0.04000731939
0.04000731939
0.04000731942
0.0400073195
0.04000731977
0.04000732067
0.04000732358
0.04000733252
0.04000735855
0.04000742921
0.04000760481
0.04000799518
0.04000875273
0.04000731939
0.04000731939
0.04000731939
0.04000731939
0.04000731941
0.04000731947
0.04000731968
0.04000732033
0.04000732237
0.04000732838
0.04000734519
0.04000738907
0.04000749455
0.04000772409
0.04000731939
0.04000731939
0.04000731939
0.04000731939
0.04000731942
0.0400073195
0.04000731977
0.04000732067
0.04000732358
0.04000733252
0.04000735855
0.04000742921
0.04000760481
0.04000799518
0.04000731939
0.04000731939
0.04000731939
0.0400073194
0.04000731943
0.04000731954
0.04000731993
0.04000732128
0.04000732581
0.04000734038
0.04000738485
0.04000751125
0.04000783862
0.04000858739
0.04000731939
0.04000731939
0.04000731939
0.0400073194
0.04000731944
0.04000731958
0.04000732009
0.04000732192
0.04000732829
0.04000734955
0.04000741715
0.04000761785
0.04000816017
0.04000944287
0.04000731939
0.04000731939
0.04000731939
0.0400073194
0.04000731944
0.0400073196
0.04000732016
0.04000732223
0.0400073295
0.04000735429
0.04000743497
0.04000768134
0.04000836847
0.04001004385
0.04000731939
0.04000731939
0.04000731939
0.0400073194
0.04000731944
0.04000731958
0.04000732009
0.04000732192
0.04000732829
0.04000734955
0.04000741715
0.04000761785
0.04000816017
0.04000944287
0.04000731939
0.04000731939
0.04000731939
0.0400073194
0.04000731943
0.04000731954
0.04000731993
0.04000732128
0.04000732581
0.04000734038
0.04000738485
0.04000751125
0.04000783862
0.04000858738
0.04000731939
0.04000731939
0.04000731939
0.04000731939
0.04000731942
0.0400073195
0.04000731977
0.04000732067
0.04000732358
0.04000733252
0.04000735855
0.04000742921
0.04000760481
0.04000799518
0.04000731939
0.04000731939
0.04000731939
0.04000731939
0.04000731941
0.04000731947
0.04000731968
0.04000732033
0.04000732237
0.04000732838
0.04000734519
0.04000738907
0.04000749455
0.04000772409
)
;

boundaryField
{
    top
    {
        type            calculated;
        value           nonuniform List<scalar> 
134
(
0.04000731939
0.04000731939
0.04000731939
0.04000731939
0.04000731939
0.04000731939
0.04000731939
0.04000731939
0.04000731939
0.04000731939
0.04000731939
0.04000731939
0.04000731939
0.04000731939
0.04000731939
0.04000731939
0.04000731939
0.04000731939
0.04000731939
0.04000731939
0.04000731939
0.04000731939
0.04000731939
0.04000731939
0.04000731939
0.04000731939
0.04000731939
0.04000731939
0.04000731939
0.0400073194
0.0400073194
0.0400073194
0.0400073194
0.0400073194
0.04000731939
0.04000731939
0.04000731941
0.04000731942
0.04000731943
0.04000731944
0.04000731944
0.04000731944
0.04000731943
0.04000731942
0.04000731941
0.04000731947
0.0400073195
0.04000731954
0.04000731958
0.0400073196
0.04000731958
0.04000731954
0.0400073195
0.04000731947
0.04000731968
0.04000731977
0.04000731993
0.04000732009
0.04000732016
0.04000732009
0.04000731993
0.04000731977
0.04000731968
0.04000732033
0.04000732067
0.04000732128
0.04000732192
0.04000732223
0.04000732192
0.04000732128
0.04000732067
0.04000732033
0.04000732237
0.04000732358
0.04000732581
0.04000732828
0.0400073295
0.04000732829
0.04000732581
0.04000732358
0.04000732237
0.04000732838
0.04000733252
0.04000734038
0.04000734955
0.04000735429
0.04000734955
0.04000734038
0.04000733252
0.04000732838
0.04000734519
0.04000735855
0.04000738484
0.04000741714
0.04000743497
0.04000741715
0.04000738485
0.04000735855
0.04000734519
0.04000738907
0.04000742921
0.04000751125
0.04000761784
0.04000768133
0.04000761785
0.04000751125
0.04000742921
0.04000738907
0.04000749454
0.0400076048
0.0400078386
0.04000816014
0.04000836843
0.04000816015
0.04000783861
0.04000760481
0.04000749455
0.04000772408
0.04000799516
0.04000858734
0.0400094428
0.04001004377
0.04000944282
0.04000858737
0.04000799518
0.04000772409
0.04000816961
0.04000875268
0.04001004347
0.04001195426
0.04001336405
0.04001195431
0.04001004352
0.04000875273
)
;
    }
    bottom
    {
        type            calculated;
        value           nonuniform List<scalar> 
127
(
0.04000731939
0.04000731939
0.04000731939
0.04000731939
0.04000731939
0.04000731939
0.04000731939
0.04000731939
0.04000731939
0.04000731939
0.04000731939
0.04000731939
0.04000731939
0.04000731939
0.04000731939
0.04000731939
0.04000731939
0.04000731939
0.04000731939
0.04000731939
0.04000731939
0.04000731939
0.04000731939
0.04000731939
0.04000731939
0.04000731939
0.04000731939
0.04000731939
0.04000731939
0.0400073194
0.0400073194
0.0400073194
0.0400073194
0.0400073194
0.04000731939
0.04000731939
0.04000731941
0.04000731942
0.04000731943
0.04000731944
0.04000731944
0.04000731944
0.04000731943
0.04000731942
0.04000731941
0.04000731947
0.0400073195
0.04000731954
0.04000731958
0.0400073196
0.04000731958
0.04000731954
0.0400073195
0.04000731947
0.04000731968
0.04000731977
0.04000731993
0.04000732009
0.04000732016
0.04000732009
0.04000731993
0.04000731977
0.04000731968
0.04000732033
0.04000732067
0.04000732128
0.04000732192
0.04000732223
0.04000732192
0.04000732128
0.04000732067
0.04000732033
0.04000732237
0.04000732358
0.04000732581
0.04000732829
0.0400073295
0.04000732829
0.04000732581
0.04000732358
0.04000732237
0.04000732838
0.04000733252
0.04000734038
0.04000734955
0.04000735429
0.04000734955
0.04000734038
0.04000733252
0.04000732838
0.04000734519
0.04000735855
0.04000738485
0.04000741715
0.04000743497
0.04000741715
0.04000738485
0.04000735855
0.04000734519
0.04000738907
0.04000742921
0.04000751125
0.04000761785
0.04000768134
0.04000761785
0.04000751125
0.04000742921
0.04000738907
0.04000749455
0.04000760481
0.04000783862
0.04000816017
0.04000836847
0.04000816017
0.04000783862
0.04000760481
0.04000749455
0.04000772409
0.04000799519
0.0400085874
0.04000944288
0.04001004386
0.04000944287
0.04000858739
0.04000799518
0.04000772409
0.04000816965
)
;
    }
    side-walls
    {
        type            calculated;
        value           nonuniform List<scalar> 
261
(
0.04000731939
0.04000731939
0.04000731939
0.04000731939
0.04000731939
0.04000731939
0.04000731939
0.04000731939
0.04000731939
0.04000731939
0.04000731939
0.04000731939
0.04000731939
0.04000731939
0.04000731939
0.04000731939
0.04000731939
0.04000731939
0.04000731939
0.04000731939
0.04000731939
0.04000731939
0.04000731939
0.04000731939
0.04000731939
0.04000731939
0.04000731939
0.04000731939
0.04000731939
0.0400073194
0.0400073194
0.0400073194
0.0400073194
0.0400073194
0.04000731939
0.04000731939
0.04000731941
0.04000731942
0.04000731943
0.04000731944
0.04000731944
0.04000731944
0.04000731943
0.04000731942
0.04000731941
0.04000731947
0.0400073195
0.04000731954
0.04000731958
0.0400073196
0.04000731958
0.04000731954
0.0400073195
0.04000731947
0.04000731968
0.04000731977
0.04000731993
0.04000732009
0.04000732016
0.04000732009
0.04000731993
0.04000731977
0.04000731968
0.04000732033
0.04000732067
0.04000732128
0.04000732192
0.04000732223
0.04000732192
0.04000732128
0.04000732067
0.04000732033
0.04000732237
0.04000732358
0.04000732581
0.04000732829
0.0400073295
0.04000732828
0.04000732581
0.04000732358
0.04000732237
0.04000732838
0.04000733252
0.04000734038
0.04000734955
0.04000735429
0.04000734955
0.04000734038
0.04000733252
0.04000732838
0.04000734519
0.04000735855
0.04000738484
0.04000741715
0.04000743497
0.04000741714
0.04000738484
0.04000735855
0.04000734519
0.04000738907
0.04000742921
0.04000751125
0.04000761784
0.04000768133
0.04000761784
0.04000751125
0.04000742921
0.04000738907
0.04000749455
0.04000760481
0.04000783861
0.04000816015
0.04000836844
0.04000816014
0.0400078386
0.0400076048
0.04000749454
0.04000772409
0.04000799518
0.04000858737
0.04000944282
0.04001004378
0.0400094428
0.04000858734
0.04000799516
0.04000772408
0.04000816965
0.04000875272
0.04001004351
0.0400119543
0.04001336408
0.04001195427
0.04001004346
0.04000875268
0.04000816961
0.04000731939
0.04000731939
0.04000731939
0.04000731939
0.04000731939
0.04000731939
0.04000731939
0.04000731939
0.04000731939
0.04000731939
0.04000731939
0.04000731939
0.04000731939
0.04000731939
0.04000731939
0.04000731939
0.04000731939
0.04000731939
0.04000731939
0.04000731939
0.04000731939
0.04000731939
0.04000731939
0.04000731939
0.04000731939
0.04000731939
0.04000731939
0.04000731939
0.04000731939
0.0400073194
0.0400073194
0.0400073194
0.0400073194
0.0400073194
0.04000731939
0.04000731939
0.04000731941
0.04000731942
0.04000731943
0.04000731944
0.04000731944
0.04000731944
0.04000731943
0.04000731942
0.04000731941
0.04000731947
0.0400073195
0.04000731954
0.04000731958
0.0400073196
0.04000731958
0.04000731954
0.0400073195
0.04000731947
0.04000731968
0.04000731977
0.04000731993
0.04000732009
0.04000732016
0.04000732009
0.04000731993
0.04000731977
0.04000731968
0.04000732033
0.04000732067
0.04000732128
0.04000732192
0.04000732223
0.04000732192
0.04000732128
0.04000732067
0.04000732033
0.04000732237
0.04000732358
0.04000732581
0.04000732829
0.0400073295
0.04000732829
0.04000732581
0.04000732358
0.04000732237
0.04000732838
0.04000733252
0.04000734038
0.04000734955
0.04000735429
0.04000734955
0.04000734038
0.04000733252
0.04000732838
0.04000734519
0.04000735855
0.04000738485
0.04000741715
0.04000743497
0.04000741715
0.04000738485
0.04000735855
0.04000734519
0.04000738907
0.04000742921
0.04000751125
0.04000761785
0.04000768134
0.04000761785
0.04000751125
0.04000742921
0.04000738907
0.04000749455
0.04000760481
0.04000783862
0.04000816017
0.04000836847
0.04000816017
0.04000783862
0.04000760481
0.04000749455
0.04000772409
0.04000799518
0.04000858739
0.04000944287
0.04001004385
0.04000944287
0.04000858738
0.04000799518
0.04000772409
)
;
    }
    inlet
    {
        type            calculated;
        value           nonuniform List<scalar> 
81
(
0.04000731939
0.04000731939
0.04000731939
0.04000731939
0.04000731939
0.04000731939
0.04000731939
0.04000731939
0.04000731939
0.04000731939
0.04000731939
0.04000731939
0.04000731939
0.04000731939
0.04000731939
0.04000731939
0.04000731939
0.04000731939
0.04000731939
0.04000731939
0.04000731939
0.04000731939
0.04000731939
0.04000731939
0.04000731939
0.04000731939
0.04000731939
0.04000731939
0.04000731939
0.04000731939
0.04000731939
0.04000731939
0.04000731939
0.04000731939
0.04000731939
0.04000731939
0.04000731939
0.04000731939
0.04000731939
0.04000731939
0.04000731939
0.04000731939
0.04000731939
0.04000731939
0.04000731939
0.04000731939
0.04000731939
0.04000731939
0.04000731939
0.04000731939
0.04000731939
0.04000731939
0.04000731939
0.04000731939
0.04000731939
0.04000731939
0.04000731939
0.04000731939
0.04000731939
0.04000731939
0.04000731939
0.04000731939
0.04000731939
0.04000731939
0.04000731939
0.04000731939
0.04000731939
0.04000731939
0.04000731939
0.04000731939
0.04000731939
0.04000731939
0.04000731939
0.04000731939
0.04000731939
0.04000731939
0.04000731939
0.04000731939
0.04000731939
0.04000731939
0.04000731939
)
;
    }
    outlet
    {
        type            calculated;
        value           nonuniform 0();
    }
    procBoundary0to1
    {
        type            processor;
        value           nonuniform List<scalar> 
97
(
0.04000893561
0.04000875275
0.04001001825
0.04001238336
0.04001579995
0.04001820005
0.0400157999
0.04001238328
0.04001001818
0.04000893556
0.04000875275
0.04000875275
0.0400124191
0.04001342358
0.04001838319
0.04002881846
0.04003849293
0.04002881826
0.04001838295
0.04001241895
0.04001001819
0.04001004355
0.04001342358
0.04001342358
0.04003572324
0.04004798386
0.0400736722
0.04012252011
0.04007367126
0.04003572244
0.04001838294
0.04001238328
0.04001195438
0.04001957371
0.04004798386
0.04004798386
0.040201933
0.04040823504
0.04044948391
0.04020192958
0.04007367128
0.04002881819
0.04001579986
0.04001336416
0.04002587945
0.04008591411
0.04040823504
0.04040823504
0.04150401851
0.04040823457
0.04044948327
0.0401438357
0.04012251969
0.04003849271
0.04001819997
0.04001195435
0.04001957354
0.04004798296
0.04014383571
0.04040823457
0.0401438357
0.0401438357
0.04007367197
0.04002362238
0.04002881839
0.04001579992
0.04001004351
0.04001342341
0.04002362217
0.040047983
0.04008591404
0.04004798283
0.04002362238
0.04002362238
0.04001838314
0.04001007026
0.04001238335
0.0400087527
0.04001007022
0.04001342342
0.04001957355
0.04002587939
0.04001957352
0.04001342342
0.04001007026
0.04001007026
0.04001001824
0.04000816964
0.04000816962
0.04000875271
0.04001004352
0.04001195434
0.04001336413
0.04001195433
0.0400100435
0.04000875271
0.04000816964
)
;
    }
}


// ************************************************************************* //
