/*--------------------------------*- C++ -*----------------------------------*\
| =========                 |                                                 |
| \\      /  F ield         | OpenFOAM: The Open Source CFD Toolbox           |
|  \\    /   O peration     | Version:  4.x                                   |
|   \\  /    A nd           | Web:      www.OpenFOAM.org                      |
|    \\/     M anipulation  |                                                 |
\*---------------------------------------------------------------------------*/
FoamFile
{
    version     2.0;
    format      ascii;
    class       volScalarField;
    location    "6000";
    object      X_H2O;
}
// * * * * * * * * * * * * * * * * * * * * * * * * * * * * * * * * * * * * * //

dimensions      [0 0 0 0 0 0 0];

internalField   nonuniform List<scalar> 
1175
(
1.504121966e-05
1.504121863e-05
1.504122083e-05
1.504122574e-05
1.504124396e-05
1.504130536e-05
1.50415061e-05
1.504215347e-05
1.504416205e-05
1.505009787e-05
1.506669714e-05
1.511003662e-05
1.521421052e-05
1.544095489e-05
1.588113068e-05
1.504121909e-05
1.50412188e-05
1.504121999e-05
1.504122581e-05
1.504124795e-05
1.504132718e-05
1.504159649e-05
1.504248872e-05
1.50453584e-05
1.505418746e-05
1.50798918e-05
1.51496816e-05
1.532312756e-05
1.570875e-05
1.645718555e-05
1.504121914e-05
1.504122012e-05
1.504122249e-05
1.504123069e-05
1.504126034e-05
1.504136779e-05
1.504175298e-05
1.504308584e-05
1.504755789e-05
1.506195083e-05
1.51058658e-05
1.523071627e-05
1.555408111e-05
1.629377724e-05
1.773248744e-05
1.504121991e-05
1.504122153e-05
1.50412254e-05
1.504123282e-05
1.504126721e-05
1.504140701e-05
1.504191233e-05
1.504372313e-05
1.50500049e-05
1.507100613e-05
1.513776813e-05
1.533600721e-05
1.587171325e-05
1.713891073e-05
1.962042799e-05
1.504122063e-05
1.504122042e-05
1.504122216e-05
1.504123359e-05
1.504127295e-05
1.504142411e-05
1.504198544e-05
1.504402063e-05
1.505120395e-05
1.507568606e-05
1.515537146e-05
1.539872111e-05
1.607747985e-05
1.773264458e-05
2.101338831e-05
1.504121872e-05
1.504122037e-05
1.504122253e-05
1.504123185e-05
1.504126959e-05
1.504140887e-05
1.504191417e-05
1.504372401e-05
1.505000639e-05
1.507100702e-05
1.513776569e-05
1.533600435e-05
1.587170329e-05
1.7138878e-05
1.962034781e-05
1.504121724e-05
1.504121919e-05
1.504122224e-05
1.504122893e-05
1.504125899e-05
1.504136573e-05
1.50417513e-05
1.504308319e-05
1.504755599e-05
1.506195062e-05
1.510586256e-05
1.523071057e-05
1.555406166e-05
1.629372281e-05
1.773236737e-05
1.50412193e-05
1.504121982e-05
1.504122117e-05
1.504122605e-05
1.504124913e-05
1.504132697e-05
1.504159499e-05
1.504248696e-05
1.50453577e-05
1.505418707e-05
1.507989014e-05
1.514967443e-05
1.532311138e-05
1.570870012e-05
1.645707215e-05
1.504121881e-05
1.504121758e-05
1.50412197e-05
1.504122459e-05
1.504124365e-05
1.504130334e-05
1.504150589e-05
1.504215344e-05
1.504416135e-05
1.505009799e-05
1.50666947e-05
1.511003276e-05
1.521419742e-05
1.544091028e-05
1.588102197e-05
1.504121965e-05
1.504122002e-05
1.504122212e-05
1.504122894e-05
1.504125082e-05
1.504132775e-05
1.504159596e-05
1.504248844e-05
1.504535645e-05
1.505418883e-05
1.507989409e-05
1.514968455e-05
1.53231497e-05
1.570882337e-05
1.50412216e-05
1.504122016e-05
1.504122205e-05
1.504122929e-05
1.50412595e-05
1.504136206e-05
1.504173192e-05
1.504302422e-05
1.504737971e-05
1.506149908e-05
1.510490927e-05
1.522939276e-05
1.555448612e-05
1.630271333e-05
1.775919309e-05
1.504121985e-05
1.504121984e-05
1.504122215e-05
1.504123348e-05
1.504127191e-05
1.504142139e-05
1.50419805e-05
1.504402209e-05
1.505128602e-05
1.507626106e-05
1.515801576e-05
1.540804105e-05
1.610229673e-05
1.777804876e-05
2.10724176e-05
1.504121967e-05
1.504122117e-05
1.504122518e-05
1.504123692e-05
1.504128676e-05
1.504148391e-05
1.504224565e-05
1.504514518e-05
1.50559475e-05
1.509503379e-05
1.523064962e-05
1.567299873e-05
1.6987254e-05
2.035938824e-05
2.714940758e-05
1.504121978e-05
1.504122051e-05
1.504122395e-05
1.504123649e-05
1.504129417e-05
1.504151379e-05
1.504237244e-05
1.504570467e-05
1.505841804e-05
1.510581358e-05
1.527662231e-05
1.586115836e-05
1.770353511e-05
2.275264383e-05
3.338040502e-05
1.504121872e-05
1.504121985e-05
1.504122363e-05
1.504123506e-05
1.50412864e-05
1.504148401e-05
1.504224676e-05
1.504514566e-05
1.505594577e-05
1.509503256e-05
1.52306452e-05
1.567298621e-05
1.698721264e-05
2.035925123e-05
2.714905395e-05
1.504121642e-05
1.50412186e-05
1.504122252e-05
1.50412327e-05
1.504127229e-05
1.504142158e-05
1.504197995e-05
1.504401999e-05
1.50512846e-05
1.507625956e-05
1.515800962e-05
1.540802504e-05
1.610224084e-05
1.777786806e-05
2.107197536e-05
1.504121732e-05
1.504121877e-05
1.504122108e-05
1.504122879e-05
1.504125761e-05
1.5041361e-05
1.504173262e-05
1.504302404e-05
1.504737987e-05
1.506149797e-05
1.510490524e-05
1.522937956e-05
1.55544413e-05
1.630256813e-05
1.775880853e-05
1.504121928e-05
1.50412178e-05
1.504122195e-05
1.504122689e-05
1.504125054e-05
1.50413276e-05
1.504159535e-05
1.504248697e-05
1.504535743e-05
1.505418771e-05
1.50798907e-05
1.514967619e-05
1.532311494e-05
1.570870534e-05
1.645708042e-05
1.504121991e-05
1.504121994e-05
1.504122255e-05
1.504123093e-05
1.504126106e-05
1.504136904e-05
1.504175371e-05
1.50430872e-05
1.504755878e-05
1.506195406e-05
1.510586972e-05
1.523073217e-05
1.555413919e-05
1.629396539e-05
1.50412215e-05
1.504122194e-05
1.504122195e-05
1.504123344e-05
1.504127312e-05
1.504142269e-05
1.504198043e-05
1.504402148e-05
1.50512873e-05
1.50762618e-05
1.515802066e-05
1.540806173e-05
1.610237164e-05
1.77783537e-05
1.504122065e-05
1.504122198e-05
1.504122453e-05
1.504123874e-05
1.504129451e-05
1.50415202e-05
1.504240328e-05
1.504583624e-05
1.505889601e-05
1.510719986e-05
1.527848539e-05
1.584891911e-05
1.757543228e-05
2.206783139e-05
3.115184207e-05
1.504122195e-05
1.504122015e-05
1.504122641e-05
1.504124389e-05
1.504131889e-05
1.504162508e-05
1.50428828e-05
1.504801672e-05
1.50687017e-05
1.515050859e-05
1.546410846e-05
1.660663632e-05
2.043023573e-05
3.145429096e-05
5.52246497e-05
1.504122151e-05
1.504122358e-05
1.504122639e-05
1.50412445e-05
1.504132812e-05
1.504167454e-05
1.504312213e-05
1.504917944e-05
1.50744136e-05
1.517861592e-05
1.560167097e-05
1.726494835e-05
2.341701322e-05
4.353477374e-05
9.270713743e-05
1.504121904e-05
1.504122118e-05
1.504122457e-05
1.504124331e-05
1.504131804e-05
1.504162473e-05
1.504288306e-05
1.504801509e-05
1.506870107e-05
1.515050355e-05
1.546409603e-05
1.660659064e-05
2.043004339e-05
3.145355643e-05
5.522249008e-05
1.504121864e-05
1.50412196e-05
1.504122219e-05
1.504123692e-05
1.504129418e-05
1.504151981e-05
1.504240326e-05
1.504583405e-05
1.505889581e-05
1.51071979e-05
1.527847529e-05
1.584887046e-05
1.757523453e-05
2.206710003e-05
3.114965677e-05
1.504121837e-05
1.504122028e-05
1.504122312e-05
1.504123134e-05
1.504127095e-05
1.504142087e-05
1.504197969e-05
1.504402068e-05
1.505128662e-05
1.507626096e-05
1.515801242e-05
1.540803109e-05
1.610225267e-05
1.777788884e-05
2.107198981e-05
1.504121984e-05
1.504121961e-05
1.504122105e-05
1.504122806e-05
1.504125809e-05
1.504136611e-05
1.504175202e-05
1.504308556e-05
1.504755815e-05
1.506195167e-05
1.510586259e-05
1.523071317e-05
1.555407255e-05
1.629373938e-05
1.773238289e-05
1.504122032e-05
1.50412222e-05
1.504122534e-05
1.50412359e-05
1.504127166e-05
1.504140884e-05
1.504191491e-05
1.50437246e-05
1.505000785e-05
1.507101204e-05
1.513777921e-05
1.533604307e-05
1.587183521e-05
1.713927805e-05
1.504122062e-05
1.504122218e-05
1.504122487e-05
1.504123659e-05
1.504128739e-05
1.504148506e-05
1.504224763e-05
1.504514579e-05
1.505594842e-05
1.509503656e-05
1.523066741e-05
1.567306437e-05
1.698749478e-05
2.036024979e-05
1.504122241e-05
1.504122235e-05
1.504122576e-05
1.50412452e-05
1.504131788e-05
1.504162554e-05
1.50428839e-05
1.504801581e-05
1.506870293e-05
1.515051135e-05
1.546412773e-05
1.660672967e-05
2.043066379e-05
3.145629448e-05
1.504122384e-05
1.504122333e-05
1.504122816e-05
1.504125204e-05
1.504135009e-05
1.50417809e-05
1.504363865e-05
1.505166742e-05
1.508639899e-05
1.52359486e-05
1.587105068e-05
1.848759155e-05
2.862291247e-05
6.317153827e-05
0.0001499615446
1.504122091e-05
1.504122145e-05
1.504122687e-05
1.504125241e-05
1.504136527e-05
1.504185749e-05
1.504403317e-05
1.505375803e-05
1.50977662e-05
1.529923656e-05
1.623037593e-05
2.054409235e-05
4.021295091e-05
0.0001243342603
0.0004112438362
1.504121954e-05
1.504122246e-05
1.504122641e-05
1.504124937e-05
1.504134942e-05
1.504177922e-05
1.504363647e-05
1.505166481e-05
1.508639715e-05
1.523594283e-05
1.587101821e-05
1.8487439e-05
2.862215367e-05
6.316792932e-05
0.0001499472039
1.504121796e-05
1.504121908e-05
1.504122527e-05
1.504124283e-05
1.504131793e-05
1.504162428e-05
1.504288327e-05
1.504801523e-05
1.506870142e-05
1.515050917e-05
1.546410688e-05
1.660662515e-05
2.04301407e-05
3.145376645e-05
5.522265961e-05
1.504121935e-05
1.504122e-05
1.504122317e-05
1.504123491e-05
1.504128614e-05
1.504148443e-05
1.504224764e-05
1.504514655e-05
1.505594664e-05
1.509503475e-05
1.523065254e-05
1.567300405e-05
1.698725412e-05
2.035932174e-05
2.714907984e-05
1.504122065e-05
1.504121924e-05
1.504122102e-05
1.504123052e-05
1.504126808e-05
1.504140705e-05
1.50419132e-05
1.504372242e-05
1.50500052e-05
1.5071008e-05
1.51377708e-05
1.533601512e-05
1.587172608e-05
1.71389148e-05
1.962037193e-05
1.504122187e-05
1.50412208e-05
1.504122498e-05
1.504123458e-05
1.504127527e-05
1.504142718e-05
1.504198658e-05
1.504402413e-05
1.505120574e-05
1.50756917e-05
1.515538977e-05
1.539877378e-05
1.607765409e-05
1.773316608e-05
1.504122242e-05
1.504122403e-05
1.504122516e-05
1.50412391e-05
1.504129414e-05
1.504151417e-05
1.504237261e-05
1.504570458e-05
1.505841955e-05
1.510582117e-05
1.52766483e-05
1.586126387e-05
1.770394537e-05
2.275408635e-05
1.504122159e-05
1.504122376e-05
1.50412268e-05
1.504124614e-05
1.504132985e-05
1.504167526e-05
1.504312414e-05
1.504918075e-05
1.507441545e-05
1.517862733e-05
1.560172134e-05
1.726518051e-05
2.341811935e-05
4.353978265e-05
1.504122367e-05
1.504122397e-05
1.504122941e-05
1.504125469e-05
1.504136697e-05
1.504185929e-05
1.504403465e-05
1.505376087e-05
1.50977695e-05
1.529924994e-05
1.623044232e-05
2.054446453e-05
4.021527426e-05
0.0001243497045
1.504122246e-05
1.504122332e-05
1.504122897e-05
1.504125743e-05
1.504138348e-05
1.504194885e-05
1.50445276e-05
1.505652571e-05
1.511400542e-05
1.539964298e-05
1.688750257e-05
2.510271468e-05
7.369109609e-05
0.0003837550837
0.002534340261
1.504122247e-05
1.504122176e-05
1.504122796e-05
1.504125282e-05
1.504136411e-05
1.504185587e-05
1.504403158e-05
1.505375853e-05
1.509776811e-05
1.529924359e-05
1.62304047e-05
2.054422897e-05
4.021357339e-05
0.0001243366137
0.0004112456806
1.504122047e-05
1.50412224e-05
1.504122823e-05
1.504124627e-05
1.504132925e-05
1.504167517e-05
1.504312339e-05
1.504918055e-05
1.507441383e-05
1.517862235e-05
1.560169427e-05
1.726503646e-05
2.341730841e-05
4.35355145e-05
9.270751285e-05
1.504121678e-05
1.504122035e-05
1.504122475e-05
1.5041238e-05
1.504129306e-05
1.504151407e-05
1.504237283e-05
1.504570429e-05
1.505841824e-05
1.510581771e-05
1.527663113e-05
1.586119294e-05
1.770362887e-05
2.275282215e-05
3.33804619e-05
1.504121825e-05
1.504121987e-05
1.504122077e-05
1.50412323e-05
1.50412733e-05
1.504142513e-05
1.504198598e-05
1.504402224e-05
1.50512039e-05
1.507569087e-05
1.515537995e-05
1.539873987e-05
1.607752233e-05
1.77327139e-05
2.101342301e-05
1.504122125e-05
1.504122188e-05
1.504122422e-05
1.504123335e-05
1.504127145e-05
1.504140875e-05
1.504191601e-05
1.504372705e-05
1.50500088e-05
1.507101276e-05
1.513778329e-05
1.533605444e-05
1.58718551e-05
1.713930132e-05
1.504122143e-05
1.504122261e-05
1.50412257e-05
1.504123686e-05
1.504128851e-05
1.504148579e-05
1.504224807e-05
1.504514892e-05
1.505595003e-05
1.509503889e-05
1.523067358e-05
1.567308501e-05
1.698754471e-05
2.036028623e-05
1.504122106e-05
1.504122318e-05
1.504122767e-05
1.504124683e-05
1.504132104e-05
1.504162681e-05
1.504288672e-05
1.504801886e-05
1.506870541e-05
1.515051782e-05
1.546414863e-05
1.660680541e-05
2.043090412e-05
3.145667244e-05
1.504122043e-05
1.504122229e-05
1.504123086e-05
1.504125269e-05
1.504135209e-05
1.504178278e-05
1.50436396e-05
1.505166526e-05
1.508640046e-05
1.523595941e-05
1.587110023e-05
1.848783312e-05
2.862403426e-05
6.31763383e-05
1.504122189e-05
1.504122402e-05
1.504122939e-05
1.50412562e-05
1.504136734e-05
1.504185774e-05
1.504403306e-05
1.50537594e-05
1.509777223e-05
1.52992558e-05
1.623047227e-05
2.054461009e-05
4.021589031e-05
0.0001243517094
1.504121909e-05
1.504122221e-05
1.504122698e-05
1.504125063e-05
1.504135071e-05
1.504178011e-05
1.504363672e-05
1.50516662e-05
1.508639992e-05
1.5235956e-05
1.587108415e-05
1.848774857e-05
2.862361589e-05
6.317479846e-05
1.504121939e-05
1.504122087e-05
1.504122672e-05
1.504124456e-05
1.504131785e-05
1.504162385e-05
1.504288384e-05
1.504801671e-05
1.506870384e-05
1.515051449e-05
1.546413377e-05
1.660673089e-05
2.04305573e-05
3.145522744e-05
5.52272566e-05
1.504121905e-05
1.504121887e-05
1.504122255e-05
1.504123508e-05
1.504128604e-05
1.504148298e-05
1.504224603e-05
1.504514548e-05
1.505594708e-05
1.509503601e-05
1.523066182e-05
1.567303979e-05
1.698736867e-05
2.035965265e-05
2.714981867e-05
1.504121762e-05
1.504121818e-05
1.504122134e-05
1.504123089e-05
1.504126974e-05
1.504140686e-05
1.504191337e-05
1.504372375e-05
1.505000615e-05
1.507100898e-05
1.513777389e-05
1.5336027e-05
1.587176145e-05
1.713900096e-05
1.962053301e-05
1.504122096e-05
1.504122273e-05
1.504122464e-05
1.504123048e-05
1.504126041e-05
1.504136954e-05
1.504175431e-05
1.504308554e-05
1.50475577e-05
1.506195457e-05
1.510587268e-05
1.523074305e-05
1.555415811e-05
1.629397711e-05
1.50412195e-05
1.504122166e-05
1.50412252e-05
1.504123496e-05
1.504127376e-05
1.504142213e-05
1.504198187e-05
1.504402119e-05
1.505128921e-05
1.507626693e-05
1.515803021e-05
1.540808685e-05
1.610243213e-05
1.777840941e-05
1.504122127e-05
1.50412225e-05
1.504122508e-05
1.504123912e-05
1.504129573e-05
1.504152223e-05
1.504240532e-05
1.504583664e-05
1.505889805e-05
1.510720871e-05
1.527850856e-05
1.58489947e-05
1.757566949e-05
2.206845788e-05
1.504122128e-05
1.504122164e-05
1.504122641e-05
1.50412449e-05
1.504131823e-05
1.504162566e-05
1.504288468e-05
1.504801816e-05
1.50687058e-05
1.515052029e-05
1.546415593e-05
1.660683385e-05
2.043097087e-05
3.145674993e-05
1.504122314e-05
1.504122329e-05
1.504122652e-05
1.504124666e-05
1.504132964e-05
1.504167515e-05
1.504312528e-05
1.504918203e-05
1.507441825e-05
1.517863304e-05
1.560174604e-05
1.726526725e-05
2.341837287e-05
4.354011809e-05
1.504122086e-05
1.504122108e-05
1.504122455e-05
1.504124223e-05
1.504131774e-05
1.504162519e-05
1.50428856e-05
1.504801776e-05
1.506870562e-05
1.515051788e-05
1.546414806e-05
1.660680373e-05
2.04308551e-05
3.14563947e-05
1.504122004e-05
1.504122275e-05
1.504122325e-05
1.50412376e-05
1.504129436e-05
1.504151916e-05
1.504240483e-05
1.504583727e-05
1.505889811e-05
1.510720614e-05
1.527850181e-05
1.584897014e-05
1.757558581e-05
2.206830426e-05
1.504121893e-05
1.504121955e-05
1.504122263e-05
1.504123108e-05
1.504127231e-05
1.504142115e-05
1.50419792e-05
1.504402045e-05
1.505128738e-05
1.507626414e-05
1.515802343e-05
1.540806849e-05
1.610236803e-05
1.777821162e-05
2.107279777e-05
1.504121807e-05
1.504121918e-05
1.504122077e-05
1.504122896e-05
1.504125851e-05
1.504136796e-05
1.50417506e-05
1.504308413e-05
1.504755706e-05
1.506195292e-05
1.510586889e-05
1.523072807e-05
1.555411365e-05
1.629384214e-05
1.773258293e-05
1.504122007e-05
1.504122029e-05
1.50412219e-05
1.504122761e-05
1.504124958e-05
1.504132739e-05
1.504159559e-05
1.504248909e-05
1.504536137e-05
1.505419012e-05
1.507989745e-05
1.514969562e-05
1.532316495e-05
1.570883301e-05
1.504121917e-05
1.504122076e-05
1.504122268e-05
1.504123135e-05
1.504125866e-05
1.504136346e-05
1.50417348e-05
1.504302516e-05
1.504738203e-05
1.50615021e-05
1.510491663e-05
1.522941266e-05
1.555453473e-05
1.630281521e-05
1.504121944e-05
1.504121984e-05
1.504122405e-05
1.504123424e-05
1.504127311e-05
1.50414231e-05
1.504198013e-05
1.504402128e-05
1.505128915e-05
1.507626635e-05
1.51580298e-05
1.540809041e-05
1.610244192e-05
1.777841872e-05
1.50412214e-05
1.50412224e-05
1.504122672e-05
1.504123778e-05
1.504128737e-05
1.504148491e-05
1.504224829e-05
1.504514753e-05
1.505595067e-05
1.5095043e-05
1.523067788e-05
1.567309909e-05
1.698758108e-05
2.036031705e-05
1.504122282e-05
1.504122185e-05
1.504122536e-05
1.504123922e-05
1.50412948e-05
1.504151366e-05
1.504237437e-05
1.504570722e-05
1.505842219e-05
1.510582405e-05
1.527665889e-05
1.586129456e-05
1.770401365e-05
2.275412833e-05
1.504122117e-05
1.504122116e-05
1.504122438e-05
1.504123682e-05
1.504128842e-05
1.504148579e-05
1.504224888e-05
1.504514865e-05
1.505594839e-05
1.50950398e-05
1.523067703e-05
1.567309235e-05
1.698755114e-05
2.036023438e-05
1.504122287e-05
1.504122263e-05
1.50412225e-05
1.504123308e-05
1.504127152e-05
1.504142193e-05
1.50419808e-05
1.504402111e-05
1.505128802e-05
1.507626486e-05
1.515802605e-05
1.540808038e-05
1.61024137e-05
1.777836508e-05
1.50412192e-05
1.50412205e-05
1.504122081e-05
1.504122839e-05
1.504125747e-05
1.504136126e-05
1.504173131e-05
1.504302411e-05
1.504738112e-05
1.50615007e-05
1.51049129e-05
1.522940295e-05
1.555451615e-05
1.630279327e-05
1.504121818e-05
1.504121993e-05
1.504122097e-05
1.504122598e-05
1.504124986e-05
1.504132653e-05
1.504159524e-05
1.504248712e-05
1.504535941e-05
1.505418913e-05
1.507989396e-05
1.514968812e-05
1.532314713e-05
1.570879073e-05
1.645727076e-05
1.504122024e-05
1.504122157e-05
1.50412222e-05
1.504122548e-05
1.504124286e-05
1.504130441e-05
1.504150651e-05
1.504215458e-05
1.504416253e-05
1.505010061e-05
1.506670034e-05
1.511004442e-05
1.521422844e-05
1.544098789e-05
1.504122166e-05
1.504122023e-05
1.504122092e-05
1.504122703e-05
1.504124995e-05
1.504132755e-05
1.504159717e-05
1.504248943e-05
1.50453606e-05
1.505418974e-05
1.50798979e-05
1.514969608e-05
1.532316767e-05
1.570883788e-05
1.504122098e-05
1.504122187e-05
1.504122286e-05
1.504123094e-05
1.504126072e-05
1.504136844e-05
1.504175347e-05
1.504308567e-05
1.504755813e-05
1.506195575e-05
1.510587494e-05
1.523074557e-05
1.555416481e-05
1.629398461e-05
1.504122071e-05
1.504122163e-05
1.504122334e-05
1.504123167e-05
1.504126919e-05
1.504140842e-05
1.504191489e-05
1.504372489e-05
1.50500099e-05
1.507101413e-05
1.5137786e-05
1.533606188e-05
1.587186638e-05
1.713930391e-05
1.504122193e-05
1.504122153e-05
1.504122343e-05
1.504123479e-05
1.504127539e-05
1.504142659e-05
1.504198849e-05
1.504402564e-05
1.505120852e-05
1.507569447e-05
1.515539402e-05
1.53987873e-05
1.607767715e-05
1.773316943e-05
1.504122166e-05
1.504122137e-05
1.504122339e-05
1.50412328e-05
1.504126909e-05
1.504140836e-05
1.504191668e-05
1.504372474e-05
1.505000887e-05
1.507101471e-05
1.513778471e-05
1.533605696e-05
1.587185578e-05
1.713927448e-05
1.504122161e-05
1.50412227e-05
1.504122326e-05
1.504123062e-05
1.504126109e-05
1.504136772e-05
1.504175369e-05
1.504308818e-05
1.504755969e-05
1.506195654e-05
1.510587335e-05
1.523074067e-05
1.555415132e-05
1.6293954e-05
1.504121953e-05
1.504121956e-05
1.504122104e-05
1.504122747e-05
1.504124877e-05
1.504132753e-05
1.504159526e-05
1.504248943e-05
1.50453598e-05
1.505419082e-05
1.507989705e-05
1.514969224e-05
1.532315912e-05
1.570882302e-05
1.504121767e-05
1.504121695e-05
1.50412189e-05
1.504122494e-05
1.504124291e-05
1.504130354e-05
1.50415061e-05
1.504215523e-05
1.504416306e-05
1.505010097e-05
1.506669977e-05
1.511004302e-05
1.521422403e-05
1.544098625e-05
)
;

boundaryField
{
    top
    {
        type            calculated;
        value           nonuniform List<scalar> 
134
(
1.504121881e-05
1.504121928e-05
1.504121984e-05
1.504122065e-05
1.504121825e-05
1.504121762e-05
1.504121807e-05
1.504121818e-05
1.504121767e-05
1.504121758e-05
1.50412178e-05
1.504121961e-05
1.504121924e-05
1.504121987e-05
1.504121818e-05
1.504121918e-05
1.504121993e-05
1.504121695e-05
1.50412197e-05
1.504122195e-05
1.504122105e-05
1.504122102e-05
1.504122077e-05
1.504122134e-05
1.504122077e-05
1.504122097e-05
1.50412189e-05
1.504122459e-05
1.504122689e-05
1.504122806e-05
1.504123052e-05
1.50412323e-05
1.504123089e-05
1.504122896e-05
1.504122598e-05
1.504122494e-05
1.504124365e-05
1.504125054e-05
1.504125809e-05
1.504126808e-05
1.50412733e-05
1.504126974e-05
1.504125851e-05
1.504124986e-05
1.504124291e-05
1.504130334e-05
1.50413276e-05
1.504136611e-05
1.504140705e-05
1.504142513e-05
1.504140686e-05
1.504136796e-05
1.504132653e-05
1.504130354e-05
1.504150589e-05
1.504159535e-05
1.504175202e-05
1.50419132e-05
1.504198598e-05
1.504191337e-05
1.50417506e-05
1.504159524e-05
1.50415061e-05
1.504215344e-05
1.504248697e-05
1.504308556e-05
1.504372242e-05
1.504402224e-05
1.504372375e-05
1.504308413e-05
1.504248712e-05
1.504215523e-05
1.504416135e-05
1.504535743e-05
1.504755815e-05
1.50500052e-05
1.50512039e-05
1.505000615e-05
1.504755706e-05
1.504535941e-05
1.504416306e-05
1.505009799e-05
1.505418771e-05
1.506195167e-05
1.5071008e-05
1.507569087e-05
1.507100898e-05
1.506195292e-05
1.505418913e-05
1.505010097e-05
1.50666947e-05
1.50798907e-05
1.510586259e-05
1.51377708e-05
1.515537995e-05
1.513777389e-05
1.510586889e-05
1.507989396e-05
1.506669977e-05
1.511003276e-05
1.514967619e-05
1.523071317e-05
1.533601512e-05
1.539873987e-05
1.5336027e-05
1.523072807e-05
1.514968812e-05
1.511004302e-05
1.521419742e-05
1.532311494e-05
1.555407255e-05
1.587172608e-05
1.607752233e-05
1.587176145e-05
1.555411365e-05
1.532314713e-05
1.521422403e-05
1.544091028e-05
1.570870534e-05
1.629373938e-05
1.71389148e-05
1.77327139e-05
1.713900096e-05
1.629384214e-05
1.570879073e-05
1.544098625e-05
1.588102197e-05
1.645708042e-05
1.773238289e-05
1.962037193e-05
2.101342301e-05
1.962053301e-05
1.773258293e-05
1.645727076e-05
)
;
    }
    bottom
    {
        type            calculated;
        value           nonuniform List<scalar> 
127
(
1.504121966e-05
1.504121965e-05
1.504121991e-05
1.504122032e-05
1.504122187e-05
1.504122125e-05
1.504122096e-05
1.504122007e-05
1.504122024e-05
1.504121863e-05
1.504122002e-05
1.504121994e-05
1.50412222e-05
1.50412208e-05
1.504122188e-05
1.504122273e-05
1.504122029e-05
1.504122157e-05
1.504122083e-05
1.504122212e-05
1.504122255e-05
1.504122534e-05
1.504122498e-05
1.504122422e-05
1.504122464e-05
1.50412219e-05
1.50412222e-05
1.504122574e-05
1.504122894e-05
1.504123093e-05
1.50412359e-05
1.504123458e-05
1.504123335e-05
1.504123048e-05
1.504122761e-05
1.504122548e-05
1.504124396e-05
1.504125082e-05
1.504126106e-05
1.504127166e-05
1.504127527e-05
1.504127145e-05
1.504126041e-05
1.504124958e-05
1.504124286e-05
1.504130536e-05
1.504132775e-05
1.504136904e-05
1.504140884e-05
1.504142718e-05
1.504140875e-05
1.504136954e-05
1.504132739e-05
1.504130441e-05
1.50415061e-05
1.504159596e-05
1.504175371e-05
1.504191491e-05
1.504198658e-05
1.504191601e-05
1.504175431e-05
1.504159559e-05
1.504150651e-05
1.504215347e-05
1.504248844e-05
1.50430872e-05
1.50437246e-05
1.504402413e-05
1.504372705e-05
1.504308554e-05
1.504248909e-05
1.504215458e-05
1.504416205e-05
1.504535645e-05
1.504755878e-05
1.505000785e-05
1.505120574e-05
1.50500088e-05
1.50475577e-05
1.504536137e-05
1.504416253e-05
1.505009787e-05
1.505418883e-05
1.506195406e-05
1.507101204e-05
1.50756917e-05
1.507101276e-05
1.506195457e-05
1.505419012e-05
1.505010061e-05
1.506669714e-05
1.507989409e-05
1.510586972e-05
1.513777921e-05
1.515538977e-05
1.513778329e-05
1.510587268e-05
1.507989745e-05
1.506670034e-05
1.511003662e-05
1.514968455e-05
1.523073217e-05
1.533604307e-05
1.539877378e-05
1.533605444e-05
1.523074305e-05
1.514969562e-05
1.511004442e-05
1.521421052e-05
1.53231497e-05
1.555413919e-05
1.587183521e-05
1.607765409e-05
1.58718551e-05
1.555415811e-05
1.532316495e-05
1.521422844e-05
1.544095489e-05
1.570882337e-05
1.629396539e-05
1.713927805e-05
1.773316608e-05
1.713930132e-05
1.629397711e-05
1.570883301e-05
1.544098789e-05
1.588113068e-05
)
;
    }
    side-walls
    {
        type            calculated;
        value           nonuniform List<scalar> 
261
(
1.504121966e-05
1.504121909e-05
1.504121914e-05
1.504121991e-05
1.504122063e-05
1.504121872e-05
1.504121724e-05
1.50412193e-05
1.504121881e-05
1.504121863e-05
1.50412188e-05
1.504122012e-05
1.504122153e-05
1.504122042e-05
1.504122037e-05
1.504121919e-05
1.504121982e-05
1.504121758e-05
1.504122083e-05
1.504121999e-05
1.504122249e-05
1.50412254e-05
1.504122216e-05
1.504122253e-05
1.504122224e-05
1.504122117e-05
1.50412197e-05
1.504122574e-05
1.504122581e-05
1.504123069e-05
1.504123282e-05
1.504123359e-05
1.504123185e-05
1.504122893e-05
1.504122605e-05
1.504122459e-05
1.504124396e-05
1.504124795e-05
1.504126034e-05
1.504126721e-05
1.504127295e-05
1.504126959e-05
1.504125899e-05
1.504124913e-05
1.504124365e-05
1.504130536e-05
1.504132718e-05
1.504136779e-05
1.504140701e-05
1.504142411e-05
1.504140887e-05
1.504136573e-05
1.504132697e-05
1.504130334e-05
1.50415061e-05
1.504159649e-05
1.504175298e-05
1.504191233e-05
1.504198544e-05
1.504191417e-05
1.50417513e-05
1.504159499e-05
1.504150589e-05
1.504215347e-05
1.504248872e-05
1.504308584e-05
1.504372313e-05
1.504402063e-05
1.504372401e-05
1.504308319e-05
1.504248696e-05
1.504215344e-05
1.504416205e-05
1.50453584e-05
1.504755789e-05
1.50500049e-05
1.505120395e-05
1.505000639e-05
1.504755599e-05
1.50453577e-05
1.504416135e-05
1.505009787e-05
1.505418746e-05
1.506195083e-05
1.507100613e-05
1.507568606e-05
1.507100702e-05
1.506195062e-05
1.505418707e-05
1.505009799e-05
1.506669714e-05
1.50798918e-05
1.51058658e-05
1.513776813e-05
1.515537146e-05
1.513776569e-05
1.510586256e-05
1.507989014e-05
1.50666947e-05
1.511003662e-05
1.51496816e-05
1.523071627e-05
1.533600721e-05
1.539872111e-05
1.533600435e-05
1.523071057e-05
1.514967443e-05
1.511003276e-05
1.521421052e-05
1.532312756e-05
1.555408111e-05
1.587171325e-05
1.607747985e-05
1.587170329e-05
1.555406166e-05
1.532311138e-05
1.521419742e-05
1.544095489e-05
1.570875e-05
1.629377724e-05
1.713891073e-05
1.773264458e-05
1.7138878e-05
1.629372281e-05
1.570870012e-05
1.544091028e-05
1.588113068e-05
1.645718555e-05
1.773248744e-05
1.962042799e-05
2.101338831e-05
1.962034781e-05
1.773236737e-05
1.645707215e-05
1.588102197e-05
1.504122024e-05
1.504122166e-05
1.504122098e-05
1.504122071e-05
1.504122193e-05
1.504122166e-05
1.504122161e-05
1.504121953e-05
1.504121767e-05
1.504122157e-05
1.504122023e-05
1.504122187e-05
1.504122163e-05
1.504122153e-05
1.504122137e-05
1.50412227e-05
1.504121956e-05
1.504121695e-05
1.50412222e-05
1.504122092e-05
1.504122286e-05
1.504122334e-05
1.504122343e-05
1.504122339e-05
1.504122326e-05
1.504122104e-05
1.50412189e-05
1.504122548e-05
1.504122703e-05
1.504123094e-05
1.504123167e-05
1.504123479e-05
1.50412328e-05
1.504123062e-05
1.504122747e-05
1.504122494e-05
1.504124286e-05
1.504124995e-05
1.504126072e-05
1.504126919e-05
1.504127539e-05
1.504126909e-05
1.504126109e-05
1.504124877e-05
1.504124291e-05
1.504130441e-05
1.504132755e-05
1.504136844e-05
1.504140842e-05
1.504142659e-05
1.504140836e-05
1.504136772e-05
1.504132753e-05
1.504130354e-05
1.504150651e-05
1.504159717e-05
1.504175347e-05
1.504191489e-05
1.504198849e-05
1.504191668e-05
1.504175369e-05
1.504159526e-05
1.50415061e-05
1.504215458e-05
1.504248943e-05
1.504308567e-05
1.504372489e-05
1.504402564e-05
1.504372474e-05
1.504308818e-05
1.504248943e-05
1.504215523e-05
1.504416253e-05
1.50453606e-05
1.504755813e-05
1.50500099e-05
1.505120852e-05
1.505000887e-05
1.504755969e-05
1.50453598e-05
1.504416306e-05
1.505010061e-05
1.505418974e-05
1.506195575e-05
1.507101413e-05
1.507569447e-05
1.507101471e-05
1.506195654e-05
1.505419082e-05
1.505010097e-05
1.506670034e-05
1.50798979e-05
1.510587494e-05
1.5137786e-05
1.515539402e-05
1.513778471e-05
1.510587335e-05
1.507989705e-05
1.506669977e-05
1.511004442e-05
1.514969608e-05
1.523074557e-05
1.533606188e-05
1.53987873e-05
1.533605696e-05
1.523074067e-05
1.514969224e-05
1.511004302e-05
1.521422844e-05
1.532316767e-05
1.555416481e-05
1.587186638e-05
1.607767715e-05
1.587185578e-05
1.555415132e-05
1.532315912e-05
1.521422403e-05
1.544098789e-05
1.570883788e-05
1.629398461e-05
1.713930391e-05
1.773316943e-05
1.713927448e-05
1.6293954e-05
1.570882302e-05
1.544098625e-05
)
;
    }
    inlet
    {
        type            calculated;
        value           nonuniform List<scalar> 
81
(
1.504121966e-05
1.504121909e-05
1.504121914e-05
1.504121991e-05
1.504122063e-05
1.504121872e-05
1.504121724e-05
1.50412193e-05
1.504121881e-05
1.504121965e-05
1.50412216e-05
1.504121985e-05
1.504121967e-05
1.504121978e-05
1.504121872e-05
1.504121642e-05
1.504121732e-05
1.504121928e-05
1.504121991e-05
1.50412215e-05
1.504122065e-05
1.504122195e-05
1.504122151e-05
1.504121904e-05
1.504121864e-05
1.504121837e-05
1.504121984e-05
1.504122032e-05
1.504122062e-05
1.504122241e-05
1.504122384e-05
1.504122091e-05
1.504121954e-05
1.504121796e-05
1.504121935e-05
1.504122065e-05
1.504122187e-05
1.504122242e-05
1.504122159e-05
1.504122367e-05
1.504122246e-05
1.504122247e-05
1.504122047e-05
1.504121678e-05
1.504121825e-05
1.504122125e-05
1.504122143e-05
1.504122106e-05
1.504122043e-05
1.504122189e-05
1.504121909e-05
1.504121939e-05
1.504121905e-05
1.504121762e-05
1.504122096e-05
1.50412195e-05
1.504122127e-05
1.504122128e-05
1.504122314e-05
1.504122086e-05
1.504122004e-05
1.504121893e-05
1.504121807e-05
1.504122007e-05
1.504121917e-05
1.504121944e-05
1.50412214e-05
1.504122282e-05
1.504122117e-05
1.504122287e-05
1.50412192e-05
1.504121818e-05
1.504122024e-05
1.504122166e-05
1.504122098e-05
1.504122071e-05
1.504122193e-05
1.504122166e-05
1.504122161e-05
1.504121953e-05
1.504121767e-05
)
;
    }
    outlet
    {
        type            calculated;
        value           nonuniform 0();
    }
    procBoundary0to1
    {
        type            processor;
        value           nonuniform List<scalar> 
97
(
1.663769196e-05
1.645727723e-05
1.770733816e-05
2.004411751e-05
2.341992993e-05
2.579149091e-05
2.341982926e-05
2.004396875e-05
1.77072079e-05
1.663759892e-05
1.645727723e-05
1.645727723e-05