/*--------------------------------*- C++ -*----------------------------------*\
| =========                 |                                                 |
| \\      /  F ield         | OpenFOAM: The Open Source CFD Toolbox           |
|  \\    /   O peration     | Version:  4.x                                   |
|   \\  /    A nd           | Web:      www.OpenFOAM.org                      |
|    \\/     M anipulation  |                                                 |
\*---------------------------------------------------------------------------*/
FoamFile
{
    version     2.0;
    format      ascii;
    class       volScalarField;
    location    "7000";
    object      CO;
}
// * * * * * * * * * * * * * * * * * * * * * * * * * * * * * * * * * * * * * //

dimensions      [0 0 0 0 0 0 0];

internalField   nonuniform List<scalar> 
1175
(
0.3101816124
0.3101816124
0.3101816124
0.3101816124
0.3101816124
0.3101816123
0.3101816121
0.3101816113
0.3101816089
0.3101816019
0.3101815824
0.3101815314
0.3101814087
0.3101811418
0.3101806237
0.3101816124
0.3101816124
0.3101816124
0.3101816124
0.3101816124
0.3101816123
0.3101816119
0.3101816109
0.3101816075
0.3101815971
0.3101815669
0.3101814847
0.3101812805
0.3101808267
0.3101799459
0.3101816124
0.3101816124
0.3101816124
0.3101816124
0.3101816123
0.3101816122
0.3101816118
0.3101816102
0.3101816049
0.310181588
0.3101815363
0.3101813893
0.3101810087
0.3101801383
0.3101784457
0.3101816124
0.3101816124
0.3101816124
0.3101816124
0.3101816123
0.3101816122
0.3101816116
0.3101816094
0.310181602
0.3101815773
0.3101814987
0.3101812654
0.3101806351
0.3101791445
0.3101762264
0.3101816124
0.3101816124
0.3101816124
0.3101816124
0.3101816123
0.3101816121
0.3101816115
0.3101816091
0.3101816006
0.3101815718
0.310181478
0.3101811916
0.3101803932
0.3101784473
0.3101745919
0.3101816124
0.3101816124
0.3101816124
0.3101816124
0.3101816123
0.3101816122
0.3101816116
0.3101816094
0.310181602
0.3101815773
0.3101814987
0.3101812654
0.3101806351
0.3101791445
0.3101762264
0.3101816124
0.3101816124
0.3101816124
0.3101816124
0.3101816123
0.3101816122
0.3101816118
0.3101816102
0.3101816049
0.310181588
0.3101815363
0.3101813893
0.3101810087
0.3101801384
0.3101784458
0.3101816124
0.3101816124
0.3101816124
0.3101816124
0.3101816124
0.3101816123
0.3101816119
0.3101816109
0.3101816075
0.3101815971
0.3101815669
0.3101814847
0.3101812805
0.3101808267
0.310179946
0.3101816124
0.3101816124
0.3101816124
0.3101816124
0.3101816124
0.3101816123
0.3101816121
0.3101816113
0.3101816089
0.3101816019
0.3101815824
0.3101815314
0.3101814087
0.3101811418
0.3101806238
0.3101816124
0.3101816124
0.3101816124
0.3101816124
0.3101816124
0.3101816123
0.3101816119
0.3101816109
0.3101816075
0.3101815971
0.3101815669
0.3101814847
0.3101812805
0.3101808266
0.3101816124
0.3101816124
0.3101816124
0.3101816124
0.3101816123
0.3101816122
0.3101816118
0.3101816103
0.3101816051
0.3101815885
0.3101815374
0.3101813909
0.3101810083
0.3101801279
0.3101784146
0.3101816124
0.3101816124
0.3101816124
0.3101816124
0.3101816123
0.3101816122
0.3101816115
0.3101816091
0.3101816005
0.3101815711
0.3101814749
0.3101811807
0.3101803639
0.3101783933
0.3101745203
0.3101816124
0.3101816124
0.3101816124
0.3101816124
0.3101816123
0.3101816121
0.3101816112
0.3101816078
0.310181595
0.310181549
0.3101813894
0.310180869
0.3101793238
0.310175362
0.3101673895
0.3101816124
0.3101816124
0.3101816124
0.3101816124
0.3101816123
0.310181612
0.310181611
0.3101816071
0.3101815921
0.3101815363
0.3101813354
0.310180648
0.3101784835
0.3101725596
0.3101601056
0.3101816124
0.3101816124
0.3101816124
0.3101816124
0.3101816123
0.3101816121
0.3101816112
0.3101816078
0.310181595
0.310181549
0.3101813894
0.310180869
0.3101793238
0.3101753622
0.3101673899
0.3101816124
0.3101816124
0.3101816124
0.3101816124
0.3101816123
0.3101816122
0.3101816115
0.3101816091
0.3101816005
0.3101815711
0.3101814749
0.3101811807
0.3101803639
0.3101783934
0.3101745207
0.3101816124
0.3101816124
0.3101816124
0.3101816124
0.3101816123
0.3101816122
0.3101816118
0.3101816103
0.3101816051
0.3101815885
0.3101815374
0.3101813909
0.3101810083
0.310180128
0.3101784149
0.3101816124
0.3101816124
0.3101816124
0.3101816124
0.3101816124
0.3101816123
0.3101816119
0.3101816109
0.3101816075
0.3101815971
0.3101815669
0.3101814847
0.3101812805
0.3101808267
0.310179946
0.3101816124
0.3101816124
0.3101816124
0.3101816124
0.3101816123
0.3101816122
0.3101816118
0.3101816102
0.3101816049
0.310181588
0.3101815363
0.3101813893
0.3101810087
0.3101801382
0.3101816124
0.3101816124
0.3101816124
0.3101816124
0.3101816123
0.3101816122
0.3101816115
0.3101816091
0.3101816005
0.3101815711
0.3101814749
0.3101811806
0.3101803639
0.3101783931
0.3101816124
0.3101816124
0.3101816124
0.3101816124
0.3101816123
0.310181612
0.310181611
0.310181607
0.3101815916
0.3101815347
0.3101813331
0.3101806621
0.3101786325
0.3101733555
0.3101626914
0.3101816124
0.3101816124
0.3101816124
0.3101816124
0.3101816123
0.3101816119
0.3101816104
0.3101816044
0.31018158
0.3101814838
0.3101811148
0.3101797718
0.3101752824
0.310162359
0.310134532
0.3101816124
0.3101816124
0.3101816124
0.3101816124
0.3101816123
0.3101816119
0.3101816101
0.310181603
0.3101815733
0.3101814507
0.3101809533
0.3101789999
0.3101717885
0.3101482692
0.3100909401
0.3101816124
0.3101816124
0.3101816124
0.3101816124
0.3101816123
0.3101816119
0.3101816104
0.3101816044
0.31018158
0.3101814838
0.3101811149
0.3101797719
0.3101752827
0.3101623602
0.3101345358
0.3101816124
0.3101816124
0.3101816124
0.3101816124
0.3101816123
0.310181612
0.310181611
0.310181607
0.3101815916
0.3101815347
0.3101813332
0.3101806622
0.3101786327
0.3101733564
0.3101626944
0.3101816124
0.3101816124
0.3101816124
0.3101816124
0.3101816123
0.3101816122
0.3101816115
0.3101816091
0.3101816005
0.3101815711
0.3101814749
0.3101811807
0.3101803639
0.3101783934
0.3101745207
0.3101816124
0.3101816124
0.3101816124
0.3101816124
0.3101816123
0.3101816122
0.3101816118
0.3101816102
0.3101816049
0.310181588
0.3101815363
0.3101813893
0.3101810087
0.3101801384
0.3101784458
0.3101816124
0.3101816124
0.3101816124
0.3101816124
0.3101816123
0.3101816122
0.3101816116
0.3101816094
0.310181602
0.3101815773
0.3101814987
0.3101812654
0.310180635
0.3101791443
0.3101816124
0.3101816124
0.3101816124
0.3101816124
0.3101816123
0.3101816121
0.3101816112
0.3101816078
0.310181595
0.310181549
0.3101813894
0.310180869
0.3101793236
0.3101753613
0.3101816124
0.3101816124
0.3101816124
0.3101816124
0.3101816123
0.3101816119
0.3101816104
0.3101816044
0.31018158
0.3101814838
0.3101811148
0.3101797717
0.3101752819
0.3101623561
0.3101816124
0.3101816124
0.3101816124
0.3101816124
0.3101816122
0.3101816117
0.3101816095
0.3101816001
0.3101815592
0.3101813833
0.3101806367
0.3101775651
0.3101656915
0.3101253303
0.3100242212
0.3101816124
0.3101816124
0.3101816124
0.3101816124
0.3101816122
0.3101816116
0.3101816091
0.3101815976
0.3101815458
0.3101813089
0.3101802154
0.3101751602
0.3101521851
0.3100543299
0.3097220514
0.3101816124
0.3101816124
0.3101816124
0.3101816124
0.3101816122
0.3101816117
0.3101816095
0.3101816001
0.3101815592
0.3101813833
0.3101806367
0.3101775653
0.3101656929
0.3101253373
0.3100242486
0.3101816124
0.3101816124
0.3101816124
0.3101816124
0.3101816123
0.3101816119
0.3101816104
0.3101816044
0.31018158
0.3101814838
0.3101811149
0.3101797718
0.3101752826
0.31016236
0.3101345356
0.3101816124
0.3101816124
0.3101816124
0.3101816124
0.3101816123
0.3101816121
0.3101816112
0.3101816078
0.310181595
0.310181549
0.3101813894
0.310180869
0.3101793238
0.3101753622
0.3101673899
0.3101816124
0.3101816124
0.3101816124
0.3101816124
0.3101816123
0.3101816122
0.3101816116
0.3101816094
0.310181602
0.3101815773
0.3101814987
0.3101812654
0.3101806351
0.3101791445
0.3101762265
0.3101816124
0.3101816124
0.3101816124
0.3101816124
0.3101816123
0.3101816121
0.3101816115
0.3101816091
0.3101816006
0.3101815718
0.310181478
0.3101811916
0.3101803931
0.310178447
0.3101816124
0.3101816124
0.3101816124
0.3101816124
0.3101816123
0.310181612
0.310181611
0.3101816071
0.3101815921
0.3101815363
0.3101813354
0.3101806479
0.3101784832
0.3101725583
0.3101816124
0.3101816124
0.3101816124
0.3101816124
0.3101816123
0.3101816119
0.3101816101
0.310181603
0.3101815733
0.3101814507
0.3101809532
0.3101789996
0.3101717872
0.3101482624
0.3101816124
0.3101816124
0.3101816124
0.3101816123
0.3101816122
0.3101816116
0.3101816091
0.3101815976
0.3101815458
0.3101813089
0.3101802153
0.3101751597
0.3101521811
0.3100543023
0.3101816124
0.3101816124
0.3101816124
0.3101816123
0.3101816122
0.3101816115
0.3101816085
0.3101815944
0.3101815268
0.3101811911
0.3101794466
0.3101698462
0.3101133244
0.3097544792
0.3072818966
0.3101816124
0.3101816124
0.3101816124
0.3101816123
0.3101816122
0.3101816116
0.3101816091
0.3101815976
0.3101815458
0.3101813089
0.3101802154
0.3101751601
0.3101521846
0.310054328
0.3097220479
0.3101816124
0.3101816124
0.3101816124
0.3101816124
0.3101816123
0.3101816119
0.3101816101
0.310181603
0.3101815733
0.3101814507
0.3101809533
0.3101789998
0.3101717883
0.3101482686
0.3100909398
0.3101816124
0.3101816124
0.3101816124
0.3101816124
0.3101816123
0.310181612
0.310181611
0.3101816071
0.3101815921
0.3101815364
0.3101813354
0.310180648
0.3101784834
0.3101725595
0.3101601056
0.3101816124
0.3101816124
0.3101816124
0.3101816124
0.3101816123
0.3101816121
0.3101816115
0.3101816091
0.3101816006
0.3101815718
0.310181478
0.3101811916
0.3101803932
0.3101784473
0.3101745919
0.3101816124
0.3101816124
0.3101816124
0.3101816124
0.3101816123
0.3101816122
0.3101816116
0.3101816094
0.310181602
0.3101815773
0.3101814987
0.3101812654
0.310180635
0.3101791443
0.3101816124
0.3101816124
0.3101816124
0.3101816124
0.3101816123
0.3101816121
0.3101816112
0.3101816078
0.3101815951
0.310181549
0.3101813894
0.310180869
0.3101793236
0.3101753614
0.3101816124
0.3101816124
0.3101816124
0.3101816124
0.3101816123
0.3101816119
0.3101816104
0.3101816044
0.31018158
0.3101814838
0.3101811148
0.3101797717
0.3101752818
0.3101623567
0.3101816124
0.3101816124
0.3101816124
0.3101816124
0.3101816122
0.3101816117
0.3101816095
0.3101816001
0.3101815592
0.3101813833
0.3101806367
0.3101775648
0.3101656903
0.3101253251
0.3101816124
0.3101816124
0.3101816124
0.3101816123
0.3101816122
0.3101816116
0.3101816091
0.3101815976
0.3101815458
0.3101813089
0.3101802153
0.3101751596
0.3101521807
0.3100543017
0.3101816124
0.3101816124
0.3101816124
0.3101816124
0.3101816122
0.3101816117
0.3101816095
0.3101816001
0.3101815592
0.3101813833
0.3101806367
0.3101775649
0.3101656907
0.3101253256
0.3101816124
0.3101816124
0.3101816124
0.3101816124
0.3101816123
0.3101816119
0.3101816104
0.3101816044
0.31018158
0.3101814838
0.3101811148
0.3101797717
0.3101752821
0.310162358
0.3101345283
0.3101816124
0.3101816124
0.3101816124
0.3101816124
0.3101816123
0.3101816121
0.3101816112
0.3101816078
0.310181595
0.310181549
0.3101813894
0.310180869
0.3101793237
0.3101753618
0.3101673891
0.3101816124
0.3101816124
0.3101816124
0.3101816124
0.3101816123
0.3101816122
0.3101816116
0.3101816094
0.310181602
0.3101815773
0.3101814987
0.3101812654
0.310180635
0.3101791445
0.3101762263
0.3101816124
0.3101816124
0.3101816124
0.3101816124
0.3101816123
0.3101816122
0.3101816118
0.3101816102
0.3101816049
0.310181588
0.3101815363
0.3101813893
0.3101810087
0.3101801383
0.3101816124
0.3101816124
0.3101816124
0.3101816124
0.3101816123
0.3101816122
0.3101816115
0.3101816091
0.3101816005
0.3101815711
0.3101814749
0.3101811806
0.3101803638
0.3101783931
0.3101816124
0.3101816124
0.3101816124
0.3101816124
0.3101816123
0.310181612
0.310181611
0.310181607
0.3101815916
0.3101815347
0.3101813331
0.3101806621
0.3101786323
0.3101733553
0.3101816124
0.3101816124
0.3101816124
0.3101816124
0.3101816123
0.3101816119
0.3101816104
0.3101816044
0.31018158
0.3101814838
0.3101811148
0.3101797717
0.3101752817
0.3101623566
0.3101816124
0.3101816124
0.3101816124
0.3101816124
0.3101816123
0.3101816119
0.3101816101
0.310181603
0.3101815733
0.3101814507
0.3101809532
0.3101789995
0.3101717869
0.3101482623
0.3101816124
0.3101816124
0.3101816124
0.3101816124
0.3101816123
0.3101816119
0.3101816104
0.3101816044
0.31018158
0.3101814838
0.3101811148
0.3101797717
0.3101752818
0.310162357
0.3101816124
0.3101816124
0.3101816124
0.3101816124
0.3101816123
0.310181612
0.310181611
0.310181607
0.3101815916
0.3101815347
0.3101813331
0.3101806621
0.3101786324
0.3101733552
0.3101816124
0.3101816124
0.3101816124
0.3101816124
0.3101816123
0.3101816122
0.3101816115
0.3101816091
0.3101816005
0.3101815711
0.3101814749
0.3101811806
0.3101803639
0.3101783932
0.31017452
0.3101816124
0.3101816124
0.3101816124
0.3101816124
0.3101816123
0.3101816122
0.3101816118
0.3101816102
0.3101816049
0.310181588
0.3101815363
0.3101813893
0.3101810087
0.3101801383
0.3101784457
0.3101816124
0.3101816124
0.3101816124
0.3101816124
0.3101816124
0.3101816123
0.3101816119
0.3101816109
0.3101816075
0.3101815971
0.3101815669
0.3101814847
0.3101812805
0.3101808266
0.3101816124
0.3101816124
0.3101816124
0.3101816124
0.3101816123
0.3101816122
0.3101816118
0.3101816103
0.3101816051
0.3101815885
0.3101815374
0.3101813909
0.3101810083
0.3101801279
0.3101816124
0.3101816124
0.3101816124
0.3101816124
0.3101816123
0.3101816122
0.3101816115
0.3101816091
0.3101816005
0.3101815711
0.3101814749
0.3101811806
0.3101803638
0.3101783931
0.3101816124
0.3101816124
0.3101816124
0.3101816124
0.3101816123
0.3101816121
0.3101816112
0.3101816078
0.310181595
0.310181549
0.3101813894
0.310180869
0.3101793236
0.3101753614
0.3101816124
0.3101816124
0.3101816124
0.3101816124
0.3101816123
0.310181612
0.310181611
0.3101816071
0.3101815921
0.3101815363
0.3101813353
0.3101806479
0.3101784831
0.3101725582
0.3101816124
0.3101816124
0.3101816124
0.3101816124
0.3101816123
0.3101816121
0.3101816112
0.3101816078
0.310181595
0.310181549
0.3101813894
0.310180869
0.3101793236
0.3101753615
0.3101816124
0.3101816124
0.3101816124
0.3101816124
0.3101816123
0.3101816122
0.3101816115
0.3101816091
0.3101816005
0.3101815711
0.3101814749
0.3101811806
0.3101803638
0.3101783931
0.3101816124
0.3101816124
0.3101816124
0.3101816124
0.3101816123
0.3101816122
0.3101816118
0.3101816103
0.3101816051
0.3101815885
0.3101815374
0.3101813909
0.3101810083
0.3101801279
0.3101816124
0.3101816124
0.3101816124
0.3101816124
0.3101816124
0.3101816123
0.3101816119
0.3101816109
0.3101816075
0.3101815971
0.3101815669
0.3101814847
0.3101812805
0.3101808266
0.3101799459
0.3101816124
0.3101816124
0.3101816124
0.3101816124
0.3101816124
0.3101816123
0.3101816121
0.3101816113
0.3101816089
0.3101816019
0.3101815824
0.3101815314
0.3101814087
0.3101811418
0.3101816124
0.3101816124
0.3101816124
0.3101816124
0.3101816124
0.3101816123
0.3101816119
0.3101816109
0.3101816075
0.3101815971
0.3101815669
0.3101814847
0.3101812805
0.3101808266
0.3101816124
0.3101816124
0.3101816124
0.3101816124
0.3101816123
0.3101816122
0.3101816118
0.3101816102
0.3101816049
0.310181588
0.3101815363
0.3101813893
0.3101810087
0.3101801383
0.3101816124
0.3101816124
0.3101816124
0.3101816124
0.3101816123
0.3101816122
0.3101816116
0.3101816094
0.310181602
0.3101815773
0.3101814987
0.3101812654
0.310180635
0.3101791443
0.3101816124
0.3101816124
0.3101816124
0.3101816124
0.3101816123
0.3101816121
0.3101816115
0.3101816091
0.3101816006
0.3101815718
0.310181478
0.3101811916
0.3101803931
0.310178447
0.3101816124
0.3101816124
0.3101816124
0.3101816124
0.3101816123
0.3101816122
0.3101816116
0.3101816094
0.310181602
0.3101815773
0.3101814987
0.3101812654
0.310180635
0.3101791444
0.3101816124
0.3101816124
0.3101816124
0.3101816124
0.3101816123
0.3101816122
0.3101816118
0.3101816102
0.3101816049
0.310181588
0.3101815363
0.3101813893
0.3101810087
0.3101801383
0.3101816124
0.3101816124
0.3101816124
0.3101816124
0.3101816124
0.3101816123
0.3101816119
0.3101816109
0.3101816075
0.3101815971
0.3101815669
0.3101814847
0.3101812805
0.3101808266
0.3101816124
0.3101816124
0.3101816124
0.3101816124
0.3101816124
0.3101816123
0.3101816121
0.3101816113
0.3101816089
0.3101816019
0.3101815824
0.3101815314
0.3101814087
0.3101811418
)
;

boundaryField
{
    top
    {
        type            zeroGradient;
    }
    bottom
    {
        type            zeroGradient;
    }
    side-walls
    {
        type            zeroGradient;
    }
    inlet
    {
        type            zeroGradient;
    }
    outlet
    {
        type            zeroGradient;
    }
    procBoundary0to1
    {
        type            processor;
        value           nonuniform List<scalar> 
97
(
0.3101797331
0.3101799459
0.3101784745
0.3101757255
0.3101717564
0.3101689719
0.3101717565
0.3101757256
0.3101784746
0.3101797332
0.3101799459
0.3101799459
0.3101756841
0.3101745198
0.3101687559
0.3101566491
0.3101454564
0.3101566495
0.3101687564
0.3101756844
0.3101784746
0.3101784456
0.3101745198
0.3101745198
0.3101486354
0.3101345258
0.3101047091
0.3100484253
0.3101047125
0.3101486377
0.3101687564
0.3101757256
0.3101762262
0.3101673885
0.3101345258
0.3101345258
0.3099567735
0.3097220144
0.3096729957
0.3099567932
0.3101047126
0.3101566496
0.3101717566
0.3101745916
0.3101601043
0.3100909334
0.3097220144
0.3097220144
0.308471101
0.3097220186
0.3096729979
0.3100242344
0.3100484266
0.3101454568
0.310168972
0.3101762262
0.3101673892
0.3101345323
0.3100242379
0.3097220186
0.3100242344
0.3100242344
0.3101047091
0.310162692
0.310156649
0.3101717564
0.3101784457
0.3101745204
0.3101626933
0.3101345324
0.3100909342
0.3101345332
0.310162692
0.310162692
0.310168756
0.3101784147
0.3101757255
0.3101799459
0.3101784148
0.3101745204
0.3101673892
0.3101601045
0.3101673894
0.3101745203
0.3101784147
0.3101784147
0.3101784745
0.3101806238
0.3101806238
0.3101799459
0.3101784457
0.3101762263
0.3101745917
0.3101762263
0.3101784457
0.3101799459
0.3101806238
)
;
    }
}


// ************************************************************************* //
