/*--------------------------------*- C++ -*----------------------------------*\
| =========                 |                                                 |
| \\      /  F ield         | OpenFOAM: The Open Source CFD Toolbox           |
|  \\    /   O peration     | Version:  4.x                                   |
|   \\  /    A nd           | Web:      www.OpenFOAM.org                      |
|    \\/     M anipulation  |                                                 |
\*---------------------------------------------------------------------------*/
FoamFile
{
    version     2.0;
    format      ascii;
    class       volScalarField;
    location    "7000";
    object      CO2;
}
// * * * * * * * * * * * * * * * * * * * * * * * * * * * * * * * * * * * * * //

dimensions      [0 0 0 0 0 0 0];

internalField   nonuniform List<scalar> 
1175
(
0.06498133894
0.06498133894
0.06498133894
0.06498133894
0.06498133897
0.06498133905
0.06498133931
0.06498134015
0.06498134276
0.06498135047
0.06498137202
0.06498142828
0.06498156348
0.06498185772
0.06498242883
0.06498133894
0.06498133893
0.06498133894
0.06498133894
0.06498133897
0.06498133908
0.06498133942
0.06498134058
0.06498134431
0.06498135578
0.06498138914
0.06498147972
0.06498170481
0.06498220514
0.06498317608
0.06498133894
0.06498133894
0.06498133894
0.06498133895
0.06498133899
0.06498133913
0.06498133963
0.06498134136
0.06498134717
0.06498136585
0.06498142285
0.06498158487
0.06498200442
0.06498296391
0.06498482977
0.06498133894
0.06498133894
0.06498133894
0.06498133895
0.064981339
0.06498133918
0.06498133984
0.06498134219
0.06498135035
0.06498137761
0.06498146425
0.06498172147
0.06498241633
0.06498405936
0.06498727594
0.06498133894
0.06498133894
0.06498133894
0.06498133895
0.06498133901
0.06498133921
0.06498133993
0.06498134258
0.0649813519
0.06498138368
0.06498148709
0.06498180278
0.06498268291
0.06498482779
0.06498907717
0.06498133894
0.06498133894
0.06498133894
0.06498133895
0.064981339
0.06498133918
0.06498133984
0.06498134219
0.06498135034
0.06498137761
0.06498146425
0.06498172146
0.06498241632
0.06498405934
0.06498727589
0.06498133894
0.06498133894
0.06498133894
0.06498133895
0.06498133899
0.06498133913
0.06498133963
0.06498134136
0.06498134716
0.06498136585
0.06498142285
0.06498158487
0.06498200441
0.06498296387
0.06498482967
0.06498133894
0.06498133894
0.06498133894
0.06498133894
0.06498133897
0.06498133908
0.06498133942
0.06498134058
0.06498134431
0.06498135577
0.06498138914
0.06498147972
0.06498170479
0.06498220511
0.06498317601
0.06498133894
0.06498133894
0.06498133894
0.06498133894
0.06498133897
0.06498133905
0.06498133931
0.06498134015
0.06498134276
0.06498135047
0.06498137201
0.06498142827
0.06498156347
0.0649818577
0.06498242879
0.06498133894
0.06498133894
0.06498133894
0.06498133894
0.06498133897
0.06498133908
0.06498133942
0.06498134058
0.06498134431
0.06498135577
0.06498138914
0.06498147972
0.06498170481
0.06498220516
0.06498133893
0.06498133893
0.06498133894
0.06498133895
0.06498133899
0.06498133912
0.0649813396
0.06498134128
0.06498134694
0.06498136526
0.0649814216
0.06498158314
0.06498200489
0.06498297533
0.06498486399
0.06498133894
0.06498133894
0.06498133894
0.06498133895
0.06498133901
0.0649813392
0.06498133993
0.06498134257
0.06498135201
0.06498138442
0.06498149051
0.06498181488
0.0649827152
0.06498488736
0.06498915624
0.06498133894
0.06498133894
0.06498133894
0.06498133896
0.06498133903
0.06498133928
0.06498134027
0.06498134403
0.06498135805
0.06498140878
0.06498158473
0.06498215838
0.0649838616
0.06498822797
0.06499701414
0.06498133894
0.06498133894
0.06498133894
0.06498133896
0.06498133903
0.06498133932
0.06498134043
0.06498134476
0.06498136126
0.06498142276
0.06498164432
0.06498240202
0.06498478761
0.06499131565
0.06500503793
0.06498133894
0.06498133894
0.06498133894
0.06498133896
0.06498133902
0.06498133928
0.06498134027
0.06498134403
0.06498135805
0.06498140878
0.06498158473
0.06498215837
0.06498386157
0.06498822787
0.0649970139
0.06498133894
0.06498133894
0.06498133894
0.06498133895
0.064981339
0.0649813392
0.06498133992
0.06498134257
0.064981352
0.06498138442
0.06498149051
0.06498181486
0.06498271516
0.06498488722
0.06498915588
0.06498133894
0.06498133894
0.06498133894
0.06498133895
0.06498133898
0.06498133912
0.0649813396
0.06498134128
0.06498134693
0.06498136526
0.0649814216
0.06498158313
0.06498200486
0.06498297524
0.06498486373
0.06498133894
0.06498133894
0.06498133894
0.06498133894
0.06498133897
0.06498133907
0.06498133942
0.06498134058
0.06498134431
0.06498135577
0.06498138914
0.06498147971
0.06498170479
0.06498220511
0.06498317599
0.06498133894
0.06498133894
0.06498133894
0.06498133895
0.06498133899
0.06498133913
0.06498133963
0.06498134136
0.06498134717
0.06498136585
0.06498142285
0.06498158487
0.06498200444
0.06498296397
0.06498133894
0.06498133894
0.06498133894
0.06498133896
0.06498133901
0.0649813392
0.06498133992
0.06498134257
0.06498135201
0.06498138442
0.06498149051
0.06498181488
0.06498271523
0.06498488754
0.06498133894
0.06498133894
0.06498133894
0.06498133896
0.06498133904
0.06498133933
0.06498134047
0.06498134493
0.06498136188
0.06498142456
0.06498164677
0.06498238642
0.0649846235
0.06499043909
0.06500219088
0.06498133894
0.06498133894
0.06498133894
0.06498133897
0.06498133906
0.06498133946
0.0649813411
0.06498134776
0.0649813746
0.06498148074
0.06498188739
0.06498336769
0.0649883152
0.06500255462
0.06503321045
0.06498133894
0.06498133894
0.06498133894
0.06498133897
0.06498133908
0.06498133952
0.06498134141
0.06498134927
0.06498138201
0.06498151717
0.06498206548
0.06498421832
0.06499216425
0.06501807191
0.06508120516
0.06498133894
0.06498133894
0.06498133894
0.06498133896
0.06498133906
0.06498133946
0.06498134109
0.06498134776
0.0649813746
0.06498148073
0.06498188738
0.06498336764
0.06498831504
0.06500255395
0.06503320818
0.06498133894
0.06498133894
0.06498133894
0.06498133896
0.06498133903
0.06498133932
0.06498134047
0.06498134493
0.06498136188
0.06498142456
0.06498164676
0.06498238638
0.06498462335
0.06499043848
0.0650021884
0.06498133894
0.06498133894
0.06498133894
0.06498133895
0.064981339
0.0649813392
0.06498133992
0.06498134257
0.064981352
0.06498138442
0.0649814905
0.06498181486
0.06498271516
0.06498488724
0.0649891559
0.06498133894
0.06498133894
0.06498133894
0.06498133895
0.06498133899
0.06498133913
0.06498133963
0.06498134136
0.06498134716
0.06498136585
0.06498142284
0.06498158486
0.0649820044
0.06498296387
0.06498482967
0.06498133894
0.06498133894
0.06498133894
0.06498133896
0.064981339
0.06498133918
0.06498133984
0.06498134219
0.06498135034
0.0649813776
0.06498146425
0.06498172147
0.06498241636
0.06498405949
0.06498133894
0.06498133894
0.06498133894
0.06498133896
0.06498133902
0.06498133928
0.06498134027
0.06498134403
0.06498135805
0.06498140878
0.06498158473
0.0649821584
0.06498386172
0.06498822855
0.06498133894
0.06498133894
0.06498133895
0.06498133897
0.06498133906
0.06498133946
0.0649813411
0.06498134776
0.0649813746
0.06498148074
0.0649818874
0.06498336774
0.06498831553
0.06500255706
0.06498133894
0.06498133894
0.06498133895
0.06498133898
0.06498133911
0.06498133967
0.06498134208
0.0649813525
0.06498139756
0.0649815915
0.06498241436
0.06498579933
0.06499888081
0.0650433342
0.06515466342
0.06498133894
0.06498133894
0.06498133895
0.06498133898
0.06498133913
0.06498133977
0.06498134259
0.06498135521
0.0649814123
0.06498167344
0.06498287863
0.06498844855
0.06501375427
0.06512148928
0.0654871668
0.06498133894
0.06498133894
0.06498133895
0.06498133898
0.06498133911
0.06498133966
0.06498134208
0.0649813525
0.06498139756
0.06498159149
0.06498241433
0.06498579919
0.06499888006
0.06504332988
0.06515464233
0.06498133894
0.06498133894
0.06498133894
0.06498133897
0.06498133906
0.06498133946
0.0649813411
0.06498134776
0.0649813746
0.06498148074
0.06498188738
0.06498336766
0.06498831511
0.06500255415
0.06503320837
0.06498133894
0.06498133894
0.06498133894
0.06498133896
0.06498133902
0.06498133928
0.06498134027
0.06498134403
0.06498135805
0.06498140878
0.06498158472
0.06498215836
0.06498386157
0.0649882279
0.06499701388
0.06498133894
0.06498133894
0.06498133894
0.06498133895
0.064981339
0.06498133918
0.06498133984
0.06498134219
0.06498135034
0.0649813776
0.06498146424
0.06498172146
0.06498241631
0.06498405933
0.06498727586
0.06498133894
0.06498133894
0.06498133894
0.06498133895
0.06498133901
0.0649813392
0.06498133993
0.06498134257
0.0649813519
0.06498138368
0.06498148709
0.06498180279
0.06498268295
0.06498482797
0.06498133894
0.06498133894
0.06498133894
0.06498133896
0.06498133903
0.06498133931
0.06498134043
0.06498134476
0.06498136126
0.06498142276
0.06498164432
0.06498240205
0.06498478778
0.06499131648
0.06498133894
0.06498133894
0.06498133895
0.06498133897
0.06498133908
0.06498133953
0.06498134141
0.06498134927
0.06498138201
0.06498151717
0.0649820655
0.06498421843
0.06499216497
0.06501807635
0.06498133894
0.06498133894
0.06498133895
0.06498133898
0.06498133913
0.06498133977
0.06498134259
0.06498135521
0.0649814123
0.06498167344
0.06498287866
0.06498844881
0.06501375659
0.06512151041
0.06498133894
0.06498133894
0.06498133895
0.06498133899
0.06498133915
0.06498133989
0.06498134323
0.0649813588
0.06498143333
0.06498180323
0.06498372557
0.06499430016
0.06505652764
0.06545139862
0.06817121037
0.06498133894
0.06498133894
0.06498133895
0.06498133898
0.06498133913
0.06498133977
0.06498134259
0.06498135521
0.0649814123
0.06498167344
0.06498287863
0.0649884486
0.06501375456
0.06512149079
0.06548717094
0.06498133894
0.06498133894
0.06498133895
0.06498133897
0.06498133908
0.06498133953
0.06498134141
0.06498134927
0.06498138201
0.06498151717
0.06498206548
0.06498421834
0.06499216436
0.06501807235
0.0650812055
0.06498133894
0.06498133894
0.06498133894
0.06498133896
0.06498133903
0.06498133932
0.06498134043
0.06498134476
0.06498136126
0.06498142276
0.06498164431
0.06498240201
0.06498478762
0.06499131571
0.06500503793
0.06498133894
0.06498133894
0.06498133894
0.06498133895
0.064981339
0.0649813392
0.06498133993
0.06498134257
0.0649813519
0.06498138368
0.06498148708
0.06498180278
0.06498268291
0.0649848278
0.06498907715
0.06498133894
0.06498133894
0.06498133894
0.06498133895
0.064981339
0.06498133918
0.06498133984
0.06498134218
0.06498135034
0.0649813776
0.06498146425
0.06498172147
0.06498241636
0.06498405947
0.06498133894
0.06498133894
0.06498133894
0.06498133896
0.06498133902
0.06498133928
0.06498134027
0.06498134403
0.06498135805
0.06498140878
0.06498158473
0.0649821584
0.0649838617
0.06498822839
0.06498133894
0.06498133894
0.06498133894
0.06498133897
0.06498133906
0.06498133946
0.0649813411
0.06498134776
0.0649813746
0.06498148074
0.0649818874
0.06498336775
0.06498831554
0.0650025562
0.06498133894
0.06498133894
0.06498133895
0.06498133898
0.06498133911
0.06498133967
0.06498134208
0.0649813525
0.06498139756
0.0649815915
0.06498241437
0.06498579943
0.06499888153
0.06504333784
0.06498133894
0.06498133894
0.06498133895
0.06498133898
0.06498133913
0.06498133977
0.06498134259
0.06498135521
0.0649814123
0.06498167344
0.06498287867
0.06498844887
0.06501375686
0.06512151065
0.06498133894
0.06498133894
0.06498133895
0.06498133898
0.06498133911
0.06498133967
0.06498134208
0.06498135249
0.06498139756
0.0649815915
0.06498241437
0.06498579941
0.06499888149
0.06504333903
0.06498133894
0.06498133894
0.06498133895
0.06498133897
0.06498133906
0.06498133946
0.0649813411
0.06498134776
0.0649813746
0.06498148074
0.06498188739
0.06498336772
0.06498831542
0.06500255551
0.06503321458
0.06498133894
0.06498133894
0.06498133894
0.06498133896
0.06498133902
0.06498133928
0.06498134027
0.06498134403
0.06498135805
0.06498140878
0.06498158473
0.06498215838
0.06498386164
0.06498822814
0.06499701451
0.06498133894
0.06498133894
0.06498133894
0.06498133895
0.064981339
0.06498133918
0.06498133984
0.06498134219
0.06498135034
0.0649813776
0.06498146425
0.06498172147
0.06498241633
0.06498405938
0.06498727595
0.06498133894
0.06498133894
0.06498133894
0.06498133895
0.06498133899
0.06498133913
0.06498133962
0.06498134135
0.06498134716
0.06498136585
0.06498142285
0.06498158487
0.06498200443
0.06498296393
0.06498133894
0.06498133894
0.06498133894
0.06498133895
0.064981339
0.0649813392
0.06498133992
0.06498134257
0.064981352
0.06498138442
0.06498149051
0.06498181488
0.06498271522
0.06498488743
0.06498133894
0.06498133894
0.06498133894
0.06498133896
0.06498133903
0.06498133932
0.06498134047
0.06498134493
0.06498136188
0.06498142456
0.06498164677
0.06498238643
0.06498462355
0.06499043921
0.06498133894
0.06498133894
0.06498133894
0.06498133897
0.06498133906
0.06498133946
0.0649813411
0.06498134776
0.0649813746
0.06498148074
0.0649818874
0.06498336776
0.06498831562
0.06500255628
0.06498133894
0.06498133894
0.06498133894
0.06498133897
0.06498133908
0.06498133953
0.06498134141
0.06498134927
0.06498138201
0.06498151718
0.06498206551
0.06498421849
0.06499216523
0.06501807654
0.06498133894
0.06498133894
0.06498133895
0.06498133897
0.06498133906
0.06498133946
0.06498134109
0.06498134776
0.0649813746
0.06498148074
0.0649818874
0.06498336776
0.0649883156
0.06500255619
0.06498133894
0.06498133894
0.06498133894
0.06498133896
0.06498133903
0.06498133932
0.06498134047
0.06498134493
0.06498136188
0.06498142456
0.06498164677
0.06498238643
0.06498462356
0.06499043939
0.06498133894
0.06498133894
0.06498133894
0.06498133895
0.064981339
0.0649813392
0.06498133992
0.06498134257
0.064981352
0.06498138442
0.06498149051
0.06498181487
0.06498271521
0.06498488742
0.0649891565
0.06498133894
0.06498133894
0.06498133894
0.06498133895
0.06498133898
0.06498133913
0.06498133963
0.06498134136
0.06498134716
0.06498136585
0.06498142285
0.06498158487
0.06498200442
0.06498296392
0.06498482976
0.06498133893
0.06498133893
0.06498133894
0.06498133894
0.06498133897
0.06498133907
0.06498133942
0.06498134058
0.06498134431
0.06498135577
0.06498138914
0.06498147972
0.0649817048
0.06498220514
0.06498133893
0.06498133893
0.06498133894
0.06498133895
0.06498133898
0.06498133912
0.0649813396
0.06498134127
0.06498134693
0.06498136526
0.0649814216
0.06498158314
0.06498200489
0.06498297533
0.06498133894
0.06498133893
0.06498133894
0.06498133895
0.064981339
0.0649813392
0.06498133992
0.06498134257
0.064981352
0.06498138442
0.06498149051
0.06498181488
0.06498271523
0.06498488744
0.06498133894
0.06498133894
0.06498133894
0.06498133896
0.06498133902
0.06498133928
0.06498134027
0.06498134403
0.06498135805
0.06498140878
0.06498158473
0.06498215841
0.06498386173
0.06498822843
0.06498133894
0.06498133894
0.06498133894
0.06498133896
0.06498133903
0.06498133931
0.06498134043
0.06498134476
0.06498136126
0.06498142277
0.06498164433
0.06498240207
0.06498478785
0.06499131652
0.06498133894
0.06498133894
0.06498133894
0.06498133896
0.06498133902
0.06498133928
0.06498134027
0.06498134403
0.06498135805
0.06498140878
0.06498158473
0.06498215841
0.06498386172
0.06498822836
0.06498133894
0.06498133894
0.06498133894
0.06498133895
0.064981339
0.0649813392
0.06498133992
0.06498134257
0.064981352
0.06498138442
0.06498149051
0.06498181488
0.06498271522
0.06498488743
0.06498133894
0.06498133893
0.06498133894
0.06498133895
0.06498133898
0.06498133912
0.0649813396
0.06498134128
0.06498134694
0.06498136526
0.0649814216
0.06498158314
0.06498200489
0.06498297533
0.06498133893
0.06498133893
0.06498133894
0.06498133894
0.06498133897
0.06498133907
0.06498133942
0.06498134058
0.06498134431
0.06498135577
0.06498138914
0.06498147972
0.0649817048
0.06498220513
0.06498317603
0.06498133893
0.06498133893
0.06498133894
0.06498133894
0.06498133896
0.06498133904
0.0649813393
0.06498134015
0.06498134276
0.06498135047
0.06498137201
0.06498142827
0.06498156347
0.0649818577
0.06498133893
0.06498133893
0.06498133894
0.06498133894
0.06498133897
0.06498133907
0.06498133942
0.06498134058
0.06498134431
0.06498135577
0.06498138914
0.06498147972
0.06498170481
0.06498220515
0.06498133893
0.06498133893
0.06498133894
0.06498133895
0.06498133899
0.06498133913
0.06498133963
0.06498134136
0.06498134717
0.06498136585
0.06498142285
0.06498158487
0.06498200443
0.06498296395
0.06498133894
0.06498133894
0.06498133894
0.06498133895
0.064981339
0.06498133918
0.06498133984
0.06498134219
0.06498135034
0.06498137761
0.06498146425
0.06498172148
0.06498241637
0.06498405949
0.06498133894
0.06498133894
0.06498133894
0.06498133895
0.064981339
0.0649813392
0.06498133993
0.06498134258
0.0649813519
0.06498138368
0.06498148709
0.0649818028
0.06498268297
0.06498482798
0.06498133894
0.06498133894
0.06498133894
0.06498133895
0.064981339
0.06498133918
0.06498133984
0.06498134219
0.06498135034
0.06498137761
0.06498146425
0.06498172148
0.06498241636
0.06498405945
0.06498133894
0.06498133894
0.06498133894
0.06498133895
0.06498133899
0.06498133913
0.06498133963
0.06498134136
0.06498134717
0.06498136585
0.06498142285
0.06498158487
0.06498200442
0.06498296391
0.06498133893
0.06498133893
0.06498133894
0.06498133894
0.06498133897
0.06498133908
0.06498133942
0.06498134058
0.06498134431
0.06498135577
0.06498138914
0.06498147972
0.0649817048
0.06498220513
0.06498133893
0.06498133893
0.06498133894
0.06498133894
0.06498133897
0.06498133905
0.06498133931
0.06498134015
0.06498134276
0.06498135047
0.06498137201
0.06498142827
0.06498156348
0.06498185771
)
;

boundaryField
{
    top
    {
        type            zeroGradient;
    }
    bottom
    {
        type            zeroGradient;
    }
    side-walls
    {
        type            zeroGradient;
    }
    inlet
    {
        type            zeroGradient;
    }
    outlet
    {
        type            zeroGradient;
    }
    procBoundary0to1
    {
        type            processor;
        value           nonuniform List<scalar> 
97
(
0.06498341066
0.0649831761
0.06498479815
0.06498782842
0.06499220331
0.06499527206
0.06499220325
0.06498782826
0.06498479802
0.06498341061
0.0649831761
0.0649831761
0.064987874
0.06498915666
0.06499551029
0.06500885264
0.06502118402
0.06500885234
0.06499550986
0.06498787372
0.06498479801
0.06498482984
0.06498915666
0.06498915666
0.06501768388
0.06503321623
0.06506607902
0.06512806226
0.06506607653
0.06501768186
0.06499550985
0.06498782826
0.06498727611
0.06499701502
0.06503321623
0.06503321623
0.06522900217
0.06548719482
0.06554136072
0.06522898516
0.06506607648
0.06500885224
0.06499220317
0.06498907739
0.06500503877
0.06508120977
0.06548719482
0.06548719482
0.06686372607
0.06548719111
0.06554136046
0.06515465359
0.06512806138
0.06502118369
0.06499527195
0.06498727604
0.06499701435
0.0650332104
0.06515464951
0.06548719111
0.06515465359
0.06515465359
0.06506608032
0.06500219051
0.06500885279
0.06499220327
0.06498482975
0.06498915607
0.06500218902
0.06503321033
0.06508120914
0.06503320999
0.06500219051
0.06500219051
0.06499551026
0.0649848639
0.06498782836
0.06498317604
0.06498486381
0.06498915608
0.06499701436
0.06500503858
0.06499701422
0.06498915613
0.0649848639
0.0649848639
0.06498479806
0.06498242881
0.06498242879
0.06498317604
0.06498482974
0.06498727601
0.0649890773
0.06498727595
0.06498482968
0.06498317601
0.06498242881
)
;
    }
}


// ************************************************************************* //
