/*--------------------------------*- C++ -*----------------------------------*\
| =========                 |                                                 |
| \\      /  F ield         | OpenFOAM: The Open Source CFD Toolbox           |
|  \\    /   O peration     | Version:  4.x                                   |
|   \\  /    A nd           | Web:      www.OpenFOAM.org                      |
|    \\/     M anipulation  |                                                 |
\*---------------------------------------------------------------------------*/
FoamFile
{
    version     2.0;
    format      ascii;
    class       volScalarField;
    location    "7000";
    object      Cpv;
}
// * * * * * * * * * * * * * * * * * * * * * * * * * * * * * * * * * * * * * //

dimensions      [0 2 -2 -1 0 0 0];

internalField   nonuniform List<scalar> 
1175
(
1277.533181
1277.533186
1277.533189
1277.533192
1277.533194
1277.533196
1277.533214
1277.533194
1277.533201
1277.533199
1277.533195
1277.533186
1277.533169
1277.533139
1277.533079
1277.533294
1277.53328
1277.533278
1277.533257
1277.533271
1277.533247
1277.533252
1277.53327
1277.533279
1277.533278
1277.533296
1277.533306
1277.533289
1277.533264
1277.533143
1277.532608
1277.532615
1277.532588
1277.532599
1277.532598
1277.532604
1277.532613
1277.532613
1277.532637
1277.532619
1277.532619
1277.532606
1277.532567
1277.532459
1277.532273
1277.533023
1277.533017
1277.533012
1277.533014
1277.533042
1277.53301
1277.533008
1277.53301
1277.53301
1277.533003
1277.533016
1277.532973
1277.532891
1277.532716
1277.532375
1277.532987
1277.533004
1277.532988
1277.533026
1277.533039
1277.533021
1277.533035
1277.533043
1277.533036
1277.533037
1277.533014
1277.532974
1277.532893
1277.532666
1277.532218
1277.533326
1277.533323
1277.533296
1277.533308
1277.533338
1277.533343
1277.533354
1277.533341
1277.53334
1277.533348
1277.533335
1277.533308
1277.533242
1277.533065
1277.532721
1277.532891
1277.532902
1277.532903
1277.532887
1277.532877
1277.532875
1277.532855
1277.532889
1277.532874
1277.532885
1277.532871
1277.532855
1277.532829
1277.532743
1277.532556
1277.533011
1277.532999
1277.532983
1277.532977
1277.532971
1277.532968
1277.532983
1277.532988
1277.532963
1277.532972
1277.532965
1277.53297
1277.532904
1277.532855
1277.532773
1277.533059
1277.533062
1277.533038
1277.533046
1277.533044
1277.533048
1277.533037
1277.533048
1277.533058
1277.533051
1277.533064
1277.533079
1277.533064
1277.533042
1277.532974
1277.533591
1277.533595
1277.533579
1277.533581
1277.533582
1277.533583
1277.533587
1277.533608
1277.53358
1277.533584
1277.533541
1277.533503
1277.533502
1277.533444
1277.53318
1277.533187
1277.533193
1277.533186
1277.533185
1277.533176
1277.53319
1277.533186
1277.533189
1277.533186
1277.533173
1277.533143
1277.533117
1277.533004
1277.532803
1277.533682
1277.533695
1277.533694
1277.5337
1277.533706
1277.533694
1277.533715
1277.533701
1277.533689
1277.53368
1277.533684
1277.533654
1277.533598
1277.533362
1277.532911
1277.532971
1277.532945
1277.532926
1277.532948
1277.532915
1277.532951
1277.532966
1277.532948
1277.532958
1277.532966
1277.532928
1277.53286
1277.532674
1277.53219
1277.531224
1277.533867
1277.533853
1277.533842
1277.533838
1277.5338
1277.533796
1277.533763
1277.533743
1277.53377
1277.533743
1277.533741
1277.533654
1277.533387
1277.532657
1277.53115
1277.53351
1277.533524
1277.533543
1277.533529
1277.533511
1277.533507
1277.533524
1277.533524
1277.533549
1277.533551
1277.533523
1277.533467
1277.533279
1277.532787
1277.531825
1277.53313
1277.533124
1277.533125
1277.53308
1277.533077
1277.533095
1277.533119
1277.533105
1277.533086
1277.533069
1277.533047
1277.532992
1277.532922
1277.532679
1277.532217
1277.533304
1277.533349
1277.53335
1277.533356
1277.533344
1277.533335
1277.533332
1277.533347
1277.533363
1277.533361
1277.533356
1277.53333
1277.533282
1277.533192
1277.532962
1277.533598
1277.533602
1277.53362
1277.533607
1277.533615
1277.533633
1277.533593
1277.53357
1277.533558
1277.533565
1277.533534
1277.53352
1277.533462
1277.533383
1277.533294
1277.532959
1277.532959
1277.532976
1277.532962
1277.532978
1277.532988
1277.532988
1277.53296
1277.532976
1277.532977
1277.532963
1277.53295
1277.532906
1277.532787
1277.533181
1277.533181
1277.533182
1277.533169
1277.533171
1277.533167
1277.533174
1277.533174
1277.533182
1277.533205
1277.533193
1277.533164
1277.533021
1277.532767
1277.533556
1277.533554
1277.533558
1277.533557
1277.533548
1277.533545
1277.533578
1277.533607
1277.533593
1277.533582
1277.533551
1277.533467
1277.533214
1277.532564
1277.531308
1277.532841
1277.532829
1277.532829
1277.5328
1277.532812
1277.532812
1277.532816
1277.532814
1277.53282
1277.532793
1277.532715
1277.532535
1277.532002
1277.530411
1277.527088
1277.533724
1277.533726
1277.533708
1277.533698
1277.533723
1277.533705
1277.533718
1277.533747
1277.533724
1277.533745
1277.53369
1277.533444
1277.532559
1277.529729
1277.522767
1277.532598
1277.532577
1277.532546
1277.532542
1277.532547
1277.532534
1277.532532
1277.532528
1277.53253
1277.532525
1277.532477
1277.532331
1277.531798
1277.530218
1277.526845
1277.53198
1277.531971
1277.531976
1277.532012
1277.532007
1277.53202
1277.532032
1277.53203
1277.532032
1277.532012
1277.531962
1277.531895
1277.531651
1277.531014
1277.529708
1277.534037
1277.534028
1277.534026
1277.534011
1277.534012
1277.534005
1277.533975
1277.533987
1277.53399
1277.533998
1277.533972
1277.533916
1277.533824
1277.533564
1277.533104
1277.532887
1277.532874
1277.532877
1277.532876
1277.532891
1277.532888
1277.532897
1277.532906
1277.532877
1277.532872
1277.53287
1277.532862
1277.532804
1277.532685
1277.532452
1277.532308
1277.532313
1277.532307
1277.532298
1277.532291
1277.53231
1277.532339
1277.532339
1277.532319
1277.532303
1277.532312
1277.532283
1277.532191
1277.531995
1277.534028
1277.534033
1277.534006
1277.534016
1277.534016
1277.534018
1277.534019
1277.534043
1277.534026
1277.533996
1277.533977
1277.5339
1277.533709
1277.533221
1277.53383
1277.533811
1277.53381
1277.533787
1277.533805
1277.533842
1277.533853
1277.533834
1277.533841
1277.533811
1277.533782
1277.533649
1277.53312
1277.531588
1277.534979
1277.534968
1277.534962
1277.534956
1277.534939
1277.534915
1277.534901
1277.534905
1277.534906
1277.534883
1277.534797
1277.534433
1277.532999
1277.528093
1277.515882
1277.533267
1277.533276
1277.533268
1277.533255
1277.533245
1277.53326
1277.533288
1277.533283
1277.533292
1277.533275
1277.533124
1277.532484
1277.529686
1277.51781
1277.476864
1277.53191
1277.531935
1277.531944
1277.531963
1277.53198
1277.531952
1277.531932
1277.531954
1277.531942
1277.531939
1277.531855
1277.531489
1277.530043
1277.525177
1277.512921
1277.534034
1277.534036
1277.534027
1277.534047
1277.534038
1277.534037
1277.534057
1277.534044
1277.534058
1277.534033
1277.533935
1277.533773
1277.533254
1277.531702
1277.528356
1277.532657
1277.532674
1277.532655
1277.532639
1277.532635
1277.532672
1277.532674
1277.532654
1277.532634
1277.532633
1277.532602
1277.53254
1277.532346
1277.531899
1277.530915
1277.53359
1277.533605
1277.533614
1277.533607
1277.533608
1277.533594
1277.533595
1277.53355
1277.533556
1277.533547
1277.533535
1277.53351
1277.533456
1277.533269
1277.532937
1277.533099
1277.533084
1277.533102
1277.533088
1277.53309
1277.533064
1277.533085
1277.53304
1277.533032
1277.533006
1277.532999
1277.532944
1277.532858
1277.53262
1277.533765
1277.533758
1277.533777
1277.533802
1277.533791
1277.533785
1277.533768
1277.533791
1277.533797
1277.533809
1277.533813
1277.533725
1277.533445
1277.5327
1277.533427
1277.533447
1277.533426
1277.533403
1277.533433
1277.533434
1277.533449
1277.533405
1277.533402
1277.533379
1277.533302
1277.533055
1277.532184
1277.529335
1277.533443
1277.533444
1277.533453
1277.533463
1277.533454
1277.533456
1277.533451
1277.53342
1277.533423
1277.533384
1277.53327
1277.532694
1277.529911
1277.518036
1277.533271
1277.533286
1277.533279
1277.533285
1277.533283
1277.53329
1277.533295
1277.533291
1277.533293
1277.53327
1277.533018
1277.53184
1277.524989
1277.481187
1276.414391
1277.532874
1277.532867
1277.532879
1277.53289
1277.532918
1277.532943
1277.532931
1277.532951
1277.532956
1277.532925
1277.53279
1277.532209
1277.52945
1277.517527
1277.476561
1277.532655
1277.532671
1277.532658
1277.532682
1277.532667
1277.532657
1277.532661
1277.532667
1277.53268
1277.532657
1277.532612
1277.532404
1277.531561
1277.528738
1277.521763
1277.532643
1277.532636
1277.532615
1277.532622
1277.532617
1277.53261
1277.532615
1277.532637
1277.532626
1277.532632
1277.532604
1277.532513
1277.532257
1277.531555
1277.530064
1277.533112
1277.533103
1277.533126
1277.533116
1277.5331
1277.533115
1277.533137
1277.53314
1277.533142
1277.533116
1277.533112
1277.533061
1277.532951
1277.532716
1277.532277
1277.534197
1277.534211
1277.534233
1277.534198
1277.534214
1277.534193
1277.534179
1277.534179
1277.534187
1277.534192
1277.534172
1277.534113
1277.534011
1277.533862
1277.53334
1277.533332
1277.53331
1277.533309
1277.533302
1277.533288
1277.533278
1277.533268
1277.533267
1277.533258
1277.533215
1277.533131
1277.532922
1277.53247
1277.533128
1277.533121
1277.533127
1277.533149
1277.533176
1277.53319
1277.533194
1277.533181
1277.533199
1277.533198
1277.533151
1277.533
1277.532487
1277.530943
1277.533263
1277.533286
1277.533269
1277.533265
1277.533252
1277.533258
1277.533269
1277.533265
1277.533252
1277.533264
1277.533173
1277.532791
1277.531371
1277.526476
1277.53369
1277.533661
1277.533692
1277.533675
1277.533681
1277.533703
1277.533683
1277.533661
1277.533625
1277.533597
1277.53347
1277.53285
1277.530099
1277.518211
1277.533844
1277.53386
1277.53386
1277.533856
1277.533875
1277.53387
1277.5339
1277.533887
1277.533862
1277.533808
1277.533732
1277.533368
1277.531923
1277.527054
1277.533203
1277.5332
1277.533212
1277.533204
1277.533224
1277.533244
1277.533209
1277.533209
1277.533217
1277.533155
1277.533124
1277.53296
1277.532443
1277.530886
1277.527546
1277.533123
1277.533157
1277.533121
1277.53313
1277.533148
1277.533127
1277.533127
1277.533112
1277.533108
1277.533079
1277.533055
1277.533007
1277.532808
1277.532333
1277.53137
1277.533228
1277.533225
1277.533209
1277.533224
1277.533202
1277.533209
1277.533201
1277.533202
1277.533195
1277.533187
1277.533191
1277.533161
1277.533097
1277.532903
1277.532525
1277.532954
1277.532962
1277.532968
1277.532979
1277.532972
1277.532957
1277.532959
1277.532968
1277.532952
1277.532938
1277.532912
1277.532923
1277.532874
1277.532774
1277.533584
1277.533585
1277.533551
1277.533555
1277.533592
1277.53359
1277.533614
1277.533607
1277.533643
1277.533616
1277.533616
1277.533568
1277.533483
1277.53326
1277.53235
1277.532337
1277.532336
1277.532319
1277.532343
1277.532359
1277.532355
1277.532326
1277.532329
1277.532296
1277.532266
1277.532184
1277.531951
1277.531299
1277.533071
1277.533093
1277.53311
1277.533097
1277.533109
1277.53311
1277.533135
1277.53315
1277.533122
1277.533137
1277.533109
1277.532925
1277.532395
1277.530831
1277.53393
1277.533937
1277.533926
1277.533907
1277.533912
1277.533923
1277.533937
1277.533948
1277.533935
1277.533938
1277.533918
1277.533668
1277.532805
1277.529974
1277.533087
1277.53308
1277.533076
1277.533074
1277.533037
1277.533036
1277.533054
1277.533034
1277.533032
1277.533007
1277.532959
1277.532794
1277.532246
1277.530677
1277.533186
1277.533197
1277.533195
1277.533199
1277.533193
1277.5332
1277.533225
1277.533225
1277.533225
1277.53324
1277.533205
1277.533163
1277.532909
1277.53224
1277.533673
1277.533685
1277.533681
1277.533688
1277.533679
1277.533645
1277.533645
1277.533647
1277.533677
1277.533662
1277.533631
1277.533603
1277.533484
1277.533246
1277.532816
1277.53283
1277.532824
1277.532833
1277.532849
1277.532853
1277.532858
1277.532856
1277.53283
1277.532834
1277.532843
1277.532843
1277.532843
1277.532807
1277.532732
1277.532546
1277.532989
1277.532981
1277.532985
1277.533017
1277.53301
1277.533018
1277.532999
1277.532992
1277.532989
1277.532981
1277.532961
1277.532975
1277.532949
1277.53287
1277.532669
1277.532679
1277.532655
1277.53264
1277.53263
1277.532636
1277.532646
1277.532624
1277.532601
1277.53259
1277.53256
1277.532551
1277.532511
1277.532386
1277.53397
1277.533944
1277.533926
1277.533908
1277.533891
1277.533904
1277.533913
1277.533892
1277.533891
1277.533878
1277.533877
1277.533883
1277.533781
1277.533536
1277.533794
1277.533785
1277.533764
1277.533741
1277.533717
1277.533726
1277.533716
1277.533738
1277.533755
1277.533729
1277.533667
1277.533589
1277.533368
1277.532894
1277.533665
1277.533658
1277.533652
1277.533666
1277.533658
1277.533658
1277.533625
1277.533651
1277.533636
1277.533622
1277.533592
1277.533496
1277.533232
1277.532513
1277.534229
1277.534215
1277.534195
1277.534204
1277.534213
1277.534222
1277.53423
1277.534213
1277.534219
1277.534206
1277.534179
1277.534123
1277.533908
1277.533422
1277.532813
1277.532788
1277.532769
1277.532763
1277.532744
1277.532735
1277.532725
1277.532737
1277.532705
1277.532685
1277.532661
1277.53263
1277.532516
1277.532288
1277.532621
1277.53264
1277.532648
1277.532642
1277.53265
1277.53266
1277.532654
1277.532666
1277.53266
1277.532663
1277.532661
1277.532606
1277.532565
1277.532457
1277.533397
1277.533398
1277.533417
1277.533404
1277.533383
1277.533386
1277.533382
1277.533388
1277.533384
1277.533388
1277.533354
1277.53334
1277.53332
1277.533233
1277.533139
1277.53273
1277.532728
1277.532729
1277.532704
1277.532718
1277.532715
1277.532707
1277.532722
1277.532713
1277.532716
1277.532706
1277.532701
1277.532695
1277.532654
1277.533279
1277.533268
1277.533285
1277.533269
1277.533286
1277.533288
1277.533291
1277.533283
1277.533291
1277.53332
1277.533316
1277.53332
1277.533288
1277.533233
1277.533156
1277.53316
1277.533164
1277.533152
1277.533168
1277.533182
1277.533174
1277.533182
1277.533183
1277.533162
1277.533173
1277.533143
1277.533067
1277.532961
1277.533469
1277.533462
1277.533464
1277.533471
1277.53347
1277.533459
1277.533471
1277.533512
1277.533513
1277.533518
1277.533491
1277.533451
1277.533401
1277.5332
1277.532671
1277.53268
1277.532683
1277.532667
1277.53268
1277.532673
1277.53268
1277.532696
1277.532686
1277.532678
1277.532664
1277.532659
1277.532562
1277.532331
1277.53314
1277.533129
1277.533135
1277.533155
1277.533146
1277.533129
1277.533114
1277.533099
1277.53307
1277.533072
1277.533084
1277.53305
1277.532994
1277.532815
1277.531974
1277.531987
1277.532008
1277.532005
1277.532043
1277.53203
1277.532028
1277.532007
1277.532047
1277.532018
1277.532001
1277.531974
1277.531906
1277.53177
1277.533299
1277.533298
1277.533289
1277.5333
1277.533291
1277.533306
1277.533307
1277.533309
1277.533285
1277.533266
1277.533258
1277.533248
1277.533216
1277.533188
1277.533534
1277.53352
1277.533525
1277.533527
1277.533515
1277.533528
1277.533531
1277.533546
1277.533542
1277.53354
1277.53353
1277.533543
1277.533524
1277.533489
)
;

boundaryField
{
    top
    {
        type            calculated;
        value           nonuniform List<scalar> 
134
(
1277.533059
1277.533598
1277.532887
1277.53359
1277.533112
1277.533228
1277.53283
1277.533397
1277.533534
1277.533062
1277.533602
1277.532874
1277.533605
1277.533103
1277.533225
1277.532824
1277.533398
1277.53352
1277.533038
1277.53362
1277.532877
1277.533614
1277.533126
1277.533209
1277.532833
1277.533417
1277.533525
1277.533046
1277.533607
1277.532876
1277.533607
1277.533116
1277.533224
1277.532849
1277.533404
1277.533527
1277.533044
1277.533615
1277.532891
1277.533608
1277.5331
1277.533202
1277.532853
1277.533383
1277.533515
1277.533048
1277.533633
1277.532888
1277.533594
1277.533115
1277.533209
1277.532858
1277.533386
1277.533528
1277.533037
1277.533593
1277.532897
1277.533595
1277.533137
1277.533201
1277.532856
1277.533382
1277.533531
1277.533048
1277.53357
1277.532906
1277.53355
1277.53314
1277.533202
1277.53283
1277.533388
1277.533546
1277.533058
1277.533558
1277.532877
1277.533556
1277.533142
1277.533195
1277.532834
1277.533384
1277.533542
1277.533051
1277.533565
1277.532872
1277.533547
1277.533116
1277.533187
1277.532843
1277.533388
1277.53354
1277.533064
1277.533534
1277.53287
1277.533535
1277.533112
1277.533191
1277.532843
1277.533354
1277.53353
1277.533079
1277.53352
1277.532862
1277.53351
1277.533061
1277.533161
1277.532843
1277.53334
1277.533543
1277.533064
1277.533462
1277.532804
1277.533456
1277.532951
1277.533097
1277.532807
1277.53332
1277.533524
1277.533042
1277.533383
1277.532685
1277.533269
1277.532716
1277.532903
1277.532732
1277.533233
1277.533489
1277.532974
1277.533294
1277.532452
1277.532937
1277.532277
1277.532525
1277.532546
1277.533139
)
;
    }
    bottom
    {
        type            calculated;
        value           nonuniform List<scalar> 
127
(
1277.533181
1277.533591
1277.532959
1277.532308
1277.533099
1277.534197
1277.532954
1277.532989
1277.53273
1277.533186
1277.533595
1277.532959
1277.532313
1277.533084
1277.534211
1277.532962
1277.532981
1277.532728
1277.533189
1277.533579
1277.532976
1277.532307
1277.533102
1277.534233
1277.532968
1277.532985
1277.532729
1277.533192
1277.533581
1277.532962
1277.532298
1277.533088
1277.534198
1277.532979
1277.533017
1277.532704
1277.533194
1277.533582
1277.532978
1277.532291
1277.53309
1277.534214
1277.532972
1277.53301
1277.532718
1277.533196
1277.533583
1277.532988
1277.53231
1277.533064
1277.534193
1277.532957
1277.533018
1277.532715
1277.533214
1277.533587
1277.532988
1277.532339
1277.533085
1277.534179
1277.532959
1277.532999
1277.532707
1277.533194
1277.533608
1277.53296
1277.532339
1277.53304
1277.534179
1277.532968
1277.532992
1277.532722
1277.533201
1277.53358
1277.532976
1277.532319
1277.533032
1277.534187
1277.532952
1277.532989
1277.532713
1277.533199
1277.533584
1277.532977
1277.532303
1277.533006
1277.534192
1277.532938
1277.532981
1277.532716
1277.533195
1277.533541
1277.532963
1277.532312
1277.532999
1277.534172
1277.532912
1277.532961
1277.532706
1277.533186
1277.533503
1277.53295
1277.532283
1277.532944
1277.534113
1277.532923
1277.532975
1277.532701
1277.533169
1277.533502
1277.532906
1277.532191
1277.532858
1277.534011
1277.532874
1277.532949
1277.532695
1277.533139
1277.533444
1277.532787
1277.531995
1277.53262
1277.533862
1277.532774
1277.53287
1277.532654
1277.533079
)
;
    }
    side-walls
    {
        type            calculated;
        value           nonuniform List<scalar> 
261
(
1277.533181
1277.533294
1277.532608
1277.533023
1277.532987
1277.533326
1277.532891
1277.533011
1277.533059
1277.533186
1277.53328
1277.532615
1277.533017
1277.533004
1277.533323
1277.532902
1277.532999
1277.533062
1277.533189
1277.533278
1277.532588
1277.533012
1277.532988
1277.533296
1277.532903
1277.532983
1277.533038
1277.533192
1277.533257
1277.532599
1277.533014
1277.533026
1277.533308
1277.532887
1277.532977
1277.533046
1277.533194
1277.533271
1277.532598
1277.533042
1277.533039
1277.533338
1277.532877
1277.532971
1277.533044
1277.533196
1277.533247
1277.532604
1277.53301
1277.533021
1277.533343
1277.532875
1277.532968
1277.533048
1277.533214
1277.533252
1277.532613
1277.533008
1277.533035
1277.533354
1277.532855
1277.532983
1277.533037
1277.533194
1277.53327
1277.532613
1277.53301
1277.533043
1277.533341
1277.532889
1277.532988
1277.533048
1277.533201
1277.533279
1277.532637
1277.53301
1277.533036
1277.53334
1277.532874
1277.532963
1277.533058
1277.533199
1277.533278
1277.532619
1277.533003
1277.533037
1277.533348
1277.532885
1277.532972
1277.533051
1277.533195
1277.533296
1277.532619
1277.533016
1277.533014
1277.533335
1277.532871
1277.532965
1277.533064
1277.533186
1277.533306
1277.532606
1277.532973
1277.532974
1277.533308
1277.532855
1277.53297
1277.533079
1277.533169
1277.533289
1277.532567
1277.532891
1277.532893
1277.533242
1277.532829
1277.532904
1277.533064
1277.533139
1277.533264
1277.532459
1277.532716
1277.532666
1277.533065
1277.532743
1277.532855
1277.533042
1277.533079
1277.533143
1277.532273
1277.532375
1277.532218
1277.532721
1277.532556
1277.532773
1277.532974
1277.53273
1277.533279
1277.533156
1277.533469
1277.532671
1277.53314
1277.531974
1277.533299
1277.533534
1277.532728
1277.533268
1277.53316
1277.533462
1277.53268
1277.533129
1277.531987
1277.533298
1277.53352
1277.532729
1277.533285
1277.533164
1277.533464
1277.532683
1277.533135
1277.532008
1277.533289
1277.533525
1277.532704
1277.533269
1277.533152
1277.533471
1277.532667
1277.533155
1277.532005
1277.5333
1277.533527
1277.532718
1277.533286
1277.533168
1277.53347
1277.53268
1277.533146
1277.532043
1277.533291
1277.533515
1277.532715
1277.533288
1277.533182
1277.533459
1277.532673
1277.533129
1277.53203
1277.533306
1277.533528
1277.532707
1277.533291
1277.533174
1277.533471
1277.53268
1277.533114
1277.532028
1277.533307
1277.533531
1277.532722
1277.533283
1277.533182
1277.533512
1277.532696
1277.533099
1277.532007
1277.533309
1277.533546
1277.532713
1277.533291
1277.533183
1277.533513
1277.532686
1277.53307
1277.532047
1277.533285
1277.533542
1277.532716
1277.53332
1277.533162
1277.533518
1277.532678
1277.533072
1277.532018
1277.533266
1277.53354
1277.532706
1277.533316
1277.533173
1277.533491
1277.532664
1277.533084
1277.532001
1277.533258
1277.53353
1277.532701
1277.53332
1277.533143
1277.533451
1277.532659
1277.53305
1277.531974
1277.533248
1277.533543
1277.532695
1277.533288
1277.533067
1277.533401
1277.532562
1277.532994
1277.531906
1277.533216
1277.533524
1277.532654
1277.533233
1277.532961
1277.5332
1277.532331
1277.532815
1277.53177
1277.533188
1277.533489
)
;
    }
    inlet
    {
        type            calculated;
        value           nonuniform List<scalar> 
81
(
1277.533181
1277.533294
1277.532608
1277.533023
1277.532987
1277.533326
1277.532891
1277.533011
1277.533059
1277.533591
1277.53318
1277.533682
1277.532971
1277.533867
1277.53351
1277.53313
1277.533304
1277.533598
1277.532959
1277.533181
1277.533556
1277.532841
1277.533724
1277.532598
1277.53198
1277.534037
1277.532887
1277.532308
1277.534028
1277.53383
1277.534979
1277.533267
1277.53191
1277.534034
1277.532657
1277.53359
1277.533099
1277.533765
1277.533427
1277.533443
1277.533271
1277.532874
1277.532655
1277.532643
1277.533112
1277.534197
1277.53334
1277.533128
1277.533263
1277.53369
1277.533844
1277.533203
1277.533123
1277.533228
1277.532954
1277.533584
1277.53235
1277.533071
1277.53393
1277.533087
1277.533186
1277.533673
1277.53283
1277.532989
1277.532669
1277.53397
1277.533794
1277.533665
1277.534229
1277.532813
1277.532621
1277.533397
1277.53273
1277.533279
1277.533156
1277.533469
1277.532671
1277.53314
1277.531974
1277.533299
1277.533534
)
;
    }
    outlet
    {
        type            calculated;
        value           nonuniform 0();
    }
    procBoundary0to1
    {
        type            processor;
        value           nonuniform List<scalar> 
97
(
1277.53296
1277.533317
1277.532963
1277.531939
1277.531832
1277.53154
1277.532152
1277.532238
1277.532579
1277.532856
1277.533317
1277.533317
1277.532487
1277.532329
1277.532218
1277.529916
1277.529416
1277.530522
1277.53154
1277.532633
1277.533116
1277.53257
1277.532329
1277.532329
1277.529596
1277.528223
1277.523495
1277.517673
1277.523274
1277.528028
1277.532419
1277.532188
1277.531641
1277.532258
1277.528223
1277.528223
1277.50775
1277.4771
1277.471086
1277.504814
1277.524749
1277.5296
1277.532387
1277.532178
1277.531187
1277.522393
1277.4771
1277.4771
1276.557686
1277.477261
1277.470789
1277.514788
1277.516672
1277.52831
1277.531597
1277.533521
1277.531528
1277.527563
1277.514224
1277.477261
1277.514788
1277.514788
1277.52398
1277.530947
1277.530104
1277.531972
1277.532568
1277.532769
1277.530029
1277.527491
1277.523029
1277.527344
1277.530947
1277.530947
1277.532126
1277.532245
1277.532197
1277.532772
1277.532194
1277.53307
1277.531916
1277.530998
1277.53245
1277.531848
1277.532245
1277.532245
1277.53297
1277.533418
1277.532591
1277.533114
1277.532768
1277.532854
1277.531853
1277.532482
1277.531574
1277.533083
1277.533418
)
;
    }
}


// ************************************************************************* //
