/*--------------------------------*- C++ -*----------------------------------*\
| =========                 |                                                 |
| \\      /  F ield         | OpenFOAM: The Open Source CFD Toolbox           |
|  \\    /   O peration     | Version:  4.x                                   |
|   \\  /    A nd           | Web:      www.OpenFOAM.org                      |
|    \\/     M anipulation  |                                                 |
\*---------------------------------------------------------------------------*/
FoamFile
{
    version     2.0;
    format      ascii;
    class       volScalarField;
    location    "7000";
    object      H2O;
}
// * * * * * * * * * * * * * * * * * * * * * * * * * * * * * * * * * * * * * //

dimensions      [0 0 0 0 0 0 0];

internalField   nonuniform List<scalar> 
1175
(
1.000037376e-05
1.000037365e-05
1.000037471e-05
1.000037745e-05
1.000038728e-05
1.000042151e-05
1.000053612e-05
1.00009034e-05
1.000204284e-05
1.000541164e-05
1.001482862e-05
1.00394172e-05
1.009851652e-05
1.02271418e-05
1.047681641e-05
1.000037364e-05
1.000037431e-05
1.000037598e-05
1.000037848e-05
1.00003904e-05
1.00004356e-05
1.000058733e-05
1.00010943e-05
1.000272227e-05
1.00077325e-05
1.002231519e-05
1.006190892e-05
1.016030559e-05
1.037904974e-05
1.08035615e-05
1.000037354e-05
1.000037397e-05
1.000037501e-05
1.000038062e-05
1.000039721e-05
1.000045868e-05
1.000067604e-05
1.000143316e-05
1.000397067e-05
1.00121377e-05
1.003705153e-05
1.010788088e-05
1.029131585e-05
1.071087946e-05
1.152684217e-05
1.000037424e-05
1.000037475e-05
1.000037663e-05
1.00003816e-05
1.000040262e-05
1.000048114e-05
1.000076855e-05
1.000179586e-05
1.000536027e-05
1.001727505e-05
1.005515063e-05
1.016760994e-05
1.047147269e-05
1.119013469e-05
1.259726314e-05
1.000037465e-05
1.000037475e-05
1.000037684e-05
1.000038263e-05
1.000040554e-05
1.000049172e-05
1.000081062e-05
1.000196517e-05
1.000604067e-05
1.001993144e-05
1.00651384e-05
1.020317845e-05
1.058813826e-05
1.152662919e-05
1.3386411e-05
1.000037443e-05
1.000037461e-05
1.000037643e-05
1.000038175e-05
1.000040313e-05
1.000048119e-05
1.000076892e-05
1.000179593e-05
1.000536019e-05
1.001727582e-05
1.005515053e-05
1.016760734e-05
1.047146538e-05
1.119011206e-05
1.259721421e-05
1.000037366e-05
1.000037424e-05
1.000037536e-05
1.000037911e-05
1.000039676e-05
1.000045793e-05
1.000067589e-05
1.00014327e-05
1.000397003e-05
1.001213673e-05
1.00370495e-05
1.010787772e-05
1.02913049e-05
1.071084843e-05
1.152677527e-05
1.00003732e-05
1.000037272e-05
1.000037525e-05
1.000037852e-05
1.000039102e-05
1.000043569e-05
1.000058794e-05
1.000109377e-05
1.000272252e-05
1.000773185e-05
1.002231444e-05
1.006190503e-05
1.016029627e-05
1.037902385e-05
1.080350396e-05
1.000037293e-05
1.000037381e-05
1.000037402e-05
1.000037774e-05
1.000038784e-05
1.000042175e-05
1.000053643e-05
1.000090492e-05
1.000204366e-05
1.000541228e-05
1.001482801e-05
1.003941555e-05
1.009850868e-05
1.022711972e-05
1.047676724e-05
1.000037293e-05
1.000037313e-05
1.000037431e-05
1.000037821e-05
1.000039124e-05
1.000043562e-05
1.000058675e-05
1.000109252e-05
1.000272123e-05
1.000773093e-05
1.002231536e-05
1.006191051e-05
1.016031288e-05
1.03790763e-05
1.000037341e-05
1.000037434e-05
1.000037386e-05
1.000037897e-05
1.000039534e-05
1.000045387e-05
1.000066495e-05
1.000139806e-05
1.000386954e-05
1.001188002e-05
1.003650799e-05
1.010712805e-05
1.029154015e-05
1.071592406e-05
1.154192643e-05
1.00003738e-05
1.000037455e-05
1.000037638e-05
1.000038203e-05
1.000040351e-05
1.000048925e-05
1.000080589e-05
1.000196342e-05
1.000608554e-05
1.00202556e-05
1.006663627e-05
1.020847126e-05
1.060224666e-05
1.155253617e-05
1.342041342e-05
1.000037401e-05
1.000037465e-05
1.000037639e-05
1.000038418e-05
1.000041274e-05
1.000052491e-05
1.000095727e-05
1.000260212e-05
1.000873042e-05
1.00309054e-05
1.010784033e-05
1.035874341e-05
1.110400487e-05
1.301553639e-05
1.686338441e-05
1.000037361e-05
1.000037441e-05
1.000037656e-05
1.00003851e-05
1.000041627e-05
1.000054059e-05
1.000102824e-05
1.000291958e-05
1.001013205e-05
1.003702134e-05
1.013391208e-05
1.046540994e-05
1.150980985e-05
1.437030343e-05
2.038774587e-05
1.000037369e-05
1.00003742e-05
1.000037717e-05
1.000038394e-05
1.000041205e-05
1.000052452e-05
1.00009578e-05
1.000260158e-05
1.000873054e-05
1.003090479e-05
1.010783821e-05
1.035873519e-05
1.110397563e-05
1.301543983e-05
1.686313968e-05
1.00003736e-05
1.000037353e-05
1.000037586e-05
1.000038179e-05
1.00004036e-05
1.000048899e-05
1.000080422e-05
1.00019629e-05
1.000608582e-05
1.002025478e-05
1.006663388e-05
1.020846027e-05
1.060221118e-05
1.155242911e-05
1.342015097e-05
1.000037321e-05
1.000037317e-05
1.000037499e-05
1.000037886e-05
1.000039492e-05
1.000045453e-05
1.000066541e-05
1.000139861e-05
1.000387025e-05
1.001188051e-05
1.003650635e-05
1.010712105e-05
1.029151701e-05
1.07158524e-05
1.154173999e-05
1.000037395e-05
1.000037336e-05
1.000037497e-05
1.000037808e-05
1.000039081e-05
1.000043499e-05
1.000058795e-05
1.000109458e-05
1.000272261e-05
1.000773191e-05
1.002231446e-05
1.006190527e-05
1.016029711e-05
1.03790256e-05
1.080350751e-05
1.000037303e-05
1.00003731e-05
1.000037438e-05
1.000037918e-05
1.0000396e-05
1.000045706e-05
1.000067493e-05
1.000143143e-05
1.000396903e-05
1.001213722e-05
1.003705223e-05
1.010788822e-05
1.029134083e-05
1.071095558e-05
1.00003727e-05
1.000037314e-05
1.00003754e-05
1.000038107e-05
1.000040405e-05
1.000048882e-05
1.000080499e-05
1.000196269e-05
1.000608502e-05
1.002025549e-05
1.006663832e-05
1.020847962e-05
1.06022813e-05
1.155267186e-05
1.000037437e-05
1.000037474e-05
1.00003767e-05
1.000038432e-05
1.000041715e-05
1.00005446e-05
1.000104563e-05
1.000299288e-05
1.001040331e-05
1.003780825e-05
1.013497544e-05
1.045851972e-05
1.143751128e-05
1.398391192e-05
1.913153457e-05
1.000037475e-05
1.000037476e-05
1.000037791e-05
1.000038849e-05
1.000043049e-05
1.000060406e-05
1.000131805e-05
1.000423072e-05
1.001596649e-05
1.006237621e-05
1.024025292e-05
1.08881083e-05
1.305514197e-05
1.929864519e-05
3.275216042e-05
1.000037421e-05
1.000037472e-05
1.00003782e-05
1.000038931e-05
1.000043638e-05
1.000063218e-05
1.000145403e-05
1.000489102e-05
1.001920694e-05
1.007831854e-05
1.031823689e-05
1.126102505e-05
1.474530873e-05
2.612590778e-05
5.390646281e-05
1.000037428e-05
1.000037502e-05
1.000037782e-05
1.000038814e-05
1.000042983e-05
1.000060401e-05
1.000131869e-05
1.000423058e-05
1.00159674e-05
1.006237458e-05
1.024024545e-05
1.088807622e-05
1.305500363e-05
1.929811024e-05
3.275052894e-05
1.000037412e-05
1.000037486e-05
1.00003767e-05
1.000038463e-05
1.000041694e-05
1.000054398e-05
1.00010449e-05
1.000299246e-05
1.001040292e-05
1.003780651e-05
1.013496918e-05
1.045849043e-05
1.143739478e-05
1.398347351e-05
1.913000376e-05
1.000037385e-05
1.000037448e-05
1.000037564e-05
1.000038138e-05
1.000040405e-05
1.000048863e-05
1.000080591e-05
1.00019633e-05
1.000608679e-05
1.002025468e-05
1.006663403e-05
1.020846329e-05
1.060221829e-05
1.155244238e-05
1.342016112e-05
1.000037367e-05
1.000037433e-05
1.000037507e-05
1.000037926e-05
1.000039695e-05
1.000045716e-05
1.000067623e-05
1.000143232e-05
1.000397063e-05
1.001213802e-05
1.00370507e-05
1.010787969e-05
1.029130943e-05
1.07108572e-05
1.152678323e-05
1.000037283e-05
1.000037327e-05
1.000037497e-05
1.000038112e-05
1.000040249e-05
1.000048051e-05
1.000076791e-05
1.000179388e-05
1.000535893e-05
1.001727637e-05
1.005515492e-05
1.016762801e-05
1.047153115e-05
1.119030444e-05
1.000037419e-05
1.000037439e-05
1.000037578e-05
1.000038333e-05
1.000041256e-05
1.000052412e-05
1.000095586e-05
1.000260042e-05
1.000872985e-05
1.003090794e-05
1.010784902e-05
1.035877736e-05
1.110413215e-05
1.301601305e-05
1.000037443e-05
1.000037535e-05
1.000037803e-05
1.000038789e-05
1.000042974e-05
1.000060422e-05
1.000131837e-05
1.000423138e-05
1.001596734e-05
1.006237839e-05
1.024026587e-05
1.08881641e-05
1.305539634e-05
1.93000762e-05
1.000037506e-05
1.000037539e-05
1.000037858e-05
1.000039158e-05
1.000044966e-05
1.000069346e-05
1.000174703e-05
1.000630155e-05
1.002600582e-05
1.011083657e-05
1.047097563e-05
1.195386981e-05
1.769281122e-05
3.723122271e-05
8.625116301e-05
1.000037535e-05
1.000037548e-05
1.000037977e-05
1.000039395e-05
1.000045725e-05
1.000073588e-05
1.000197085e-05
1.000748915e-05
1.003245367e-05
1.014671511e-05
1.067452813e-05
1.311752246e-05
2.424123557e-05
7.172927858e-05
0.0002333421899
1.000037493e-05
1.000037594e-05
1.0000378e-05
1.000039215e-05
1.000044937e-05
1.000069271e-05
1.000174576e-05
1.000629983e-05
1.002600455e-05
1.011083155e-05
1.047095547e-05
1.19537651e-05
1.769226614e-05
3.722848138e-05
8.62386144e-05
1.000037486e-05
1.000037535e-05
1.000037796e-05
1.000038778e-05
1.000042977e-05
1.000060415e-05
1.000131809e-05
1.000422956e-05
1.001596773e-05
1.006237559e-05
1.024025172e-05
1.088809933e-05
1.305507013e-05
1.929825358e-05
3.275059818e-05
1.000037429e-05
1.000037427e-05
1.000037597e-05
1.000038308e-05
1.000041204e-05
1.000052391e-05
1.000095665e-05
1.000260183e-05
1.000873074e-05
1.003090574e-05
1.010784105e-05
1.035874507e-05
1.110400135e-05
1.301548666e-05
1.686314888e-05
1.000037389e-05
1.00003744e-05
1.000037502e-05
1.000038174e-05
1.000040254e-05
1.000048094e-05
1.000076826e-05
1.00017947e-05
1.000536023e-05
1.001727562e-05
1.005515218e-05
1.016761269e-05
1.047147738e-05
1.119013244e-05
1.25972265e-05
1.000037368e-05
1.000037382e-05
1.000037444e-05
1.000038109e-05
1.000040382e-05
1.000048961e-05
1.000080913e-05
1.000196348e-05
1.000603962e-05
1.001993223e-05
1.006514426e-05
1.020320635e-05
1.058822697e-05
1.15268901e-05
1.00003739e-05
1.000037419e-05
1.000037597e-05
1.000038327e-05
1.000041469e-05
1.000053994e-05
1.000102714e-05
1.000291839e-05
1.001013207e-05
1.003702503e-05
1.013392734e-05
1.046547028e-05
1.151004241e-05
1.437119284e-05
1.000037392e-05
1.000037438e-05
1.000037777e-05
1.0000389e-05
1.000043573e-05
1.000063141e-05
1.000145343e-05
1.000489055e-05
1.001920821e-05
1.007832343e-05
1.031826634e-05
1.126117231e-05
1.474603367e-05
2.61296638e-05
1.000037512e-05
1.000037605e-05
1.00003791e-05
1.00003935e-05
1.000045795e-05
1.000073632e-05
1.000197075e-05
1.000748871e-05
1.003245492e-05
1.014672262e-05
1.067457068e-05
1.311778956e-05
2.424296659e-05
7.174219828e-05
1.000037582e-05
1.00003763e-05
1.000038031e-05
1.000039681e-05
1.000046805e-05
1.000078841e-05
1.000225058e-05
1.000905856e-05
1.004166113e-05
1.020360943e-05
1.104645847e-05
1.569370167e-05
4.312647156e-05
0.0002177782497
0.001423764234
1.000037553e-05
1.000037615e-05
1.000037927e-05
1.00003935e-05
1.000045772e-05
1.000073675e-05
1.000197035e-05
1.000748878e-05
1.003245394e-05
1.014671986e-05
1.067454667e-05
1.311761367e-05
2.424163037e-05
7.173054118e-05
0.0002333437194
1.000037487e-05
1.000037531e-05
1.00003776e-05
1.000038898e-05
1.000043563e-05
1.000063247e-05
1.000145395e-05
1.000489088e-05
1.00192073e-05
1.007832093e-05
1.031824948e-05
1.126107749e-05
1.474549218e-05
2.612633354e-05
5.39064173e-05
1.000037387e-05
1.000037463e-05
1.000037656e-05
1.000038522e-05
1.000041638e-05
1.00005399e-05
1.000102876e-05
1.000291962e-05
1.001013307e-05
1.003702344e-05
1.013391766e-05
1.046542872e-05
1.150986608e-05
1.437041557e-05
2.038773763e-05
1.000037384e-05
1.000037403e-05
1.000037606e-05
1.000038184e-05
1.00004056e-05
1.000049148e-05
1.000081e-05
1.000196416e-05
1.000604027e-05
1.001993154e-05
1.006514068e-05
1.020318731e-05
1.0588161e-05
1.152666844e-05
1.338642961e-05
1.000037342e-05
1.000037379e-05
1.000037504e-05
1.000038029e-05
1.000040105e-05
1.000048032e-05
1.000076774e-05
1.000179459e-05
1.000535964e-05
1.001727695e-05
1.005515752e-05
1.016763297e-05
1.047154063e-05
1.11903152e-05
1.000037265e-05
1.000037335e-05
1.000037549e-05
1.000038279e-05
1.000041199e-05
1.000052394e-05
1.000095662e-05
1.00026013e-05
1.000872976e-05
1.00309085e-05
1.010785271e-05
1.03587885e-05
1.110415645e-05
1.301601825e-05
1.000037434e-05
1.000037484e-05
1.000037757e-05
1.00003884e-05
1.000042987e-05
1.000060397e-05
1.000131763e-05
1.000422998e-05
1.001596835e-05
1.006238126e-05
1.024027566e-05
1.088820707e-05
1.305553029e-05
1.930020318e-05
1.000037504e-05
1.00003759e-05
1.000037903e-05
1.000039177e-05
1.000044936e-05
1.000069311e-05
1.000174597e-05
1.000630101e-05
1.002600743e-05
1.011084189e-05
1.047100441e-05
1.195402084e-05
1.769353889e-05
3.723497642e-05
1.00003755e-05
1.000037559e-05
1.000037871e-05
1.000039327e-05
1.000045833e-05
1.00007354e-05
1.000197063e-05
1.000748897e-05
1.003245603e-05
1.014672719e-05
1.06745912e-05
1.311788294e-05
2.424334004e-05
7.174311691e-05
1.000037529e-05
1.000037595e-05
1.000037952e-05
1.000039188e-05
1.000044907e-05
1.000069214e-05
1.00017463e-05
1.0006302e-05
1.002600693e-05
1.011084141e-05
1.047099682e-05
1.195397378e-05
1.769329107e-05
3.723403609e-05
1.000037461e-05
1.000037515e-05
1.000037691e-05
1.000038761e-05
1.000042942e-05
1.000060369e-05
1.000131878e-05
1.000423168e-05
1.001596782e-05
1.00623799e-05
1.024026812e-05
1.08881646e-05
1.30553355e-05
1.929916838e-05
3.275435368e-05
1.000037514e-05
1.000037427e-05
1.000037651e-05
1.000038346e-05
1.000041223e-05
1.00005247e-05
1.00009569e-05
1.000260324e-05
1.000873154e-05
1.003090778e-05
1.010784722e-05
1.035876494e-05
1.110406961e-05
1.301568108e-05
1.686359229e-05
1.000037368e-05
1.000037419e-05
1.000037545e-05
1.000038058e-05
1.000040185e-05
1.000048104e-05
1.000076764e-05
1.000179577e-05
1.000536012e-05
1.001727707e-05
1.005515446e-05
1.01676196e-05
1.047149765e-05
1.119018355e-05
1.259732013e-05
1.000037436e-05
1.00003742e-05
1.00003745e-05
1.000037998e-05
1.000039653e-05
1.000045747e-05
1.000067581e-05
1.000143263e-05
1.00039701e-05
1.001213896e-05
1.00370553e-05
1.01078944e-05
1.029135201e-05
1.071096297e-05
1.00003738e-05
1.000037362e-05
1.00003747e-05
1.00003813e-05
1.000040423e-05
1.000048755e-05
1.0000805e-05
1.000196344e-05
1.000608704e-05
1.002025733e-05
1.006664359e-05
1.020849321e-05
1.060231081e-05
1.155269874e-05
1.000037417e-05
1.00003742e-05
1.000037721e-05
1.000038508e-05
1.000041705e-05
1.000054387e-05
1.000104575e-05
1.000299292e-05
1.001040408e-05
1.00378116e-05
1.013498768e-05
1.045855886e-05
1.143763325e-05
1.398424562e-05
1.000037431e-05
1.000037479e-05
1.000037713e-05
1.000038739e-05
1.000042953e-05
1.000060417e-05
1.000131812e-05
1.000423011e-05
1.001596818e-05
1.006238249e-05
1.024027911e-05
1.088822188e-05
1.305557179e-05
1.930022464e-05
1.000037423e-05
1.000037473e-05
1.000037784e-05
1.000038969e-05
1.000043658e-05
1.000063248e-05
1.000145424e-05
1.000489182e-05
1.001920906e-05
1.007832739e-05
1.031828083e-05
1.126122928e-05
1.474620611e-05
2.612975054e-05
1.000037439e-05
1.000037557e-05
1.000037721e-05
1.00003873e-05
1.000043023e-05
1.000060427e-05
1.00013192e-05
1.000423143e-05
1.001596887e-05
1.006238209e-05
1.024027747e-05
1.088820684e-05
1.305550462e-05
1.929996137e-05
1.00003745e-05
1.000037504e-05
1.000037682e-05
1.000038436e-05
1.000041651e-05
1.000054442e-05
1.000104646e-05
1.00029939e-05
1.00104044e-05
1.003781111e-05
1.013498486e-05
1.045854707e-05
1.143759215e-05
1.398415519e-05
1.000037404e-05
1.000037501e-05
1.000037663e-05
1.000038189e-05
1.000040384e-05
1.000048953e-05
1.000080637e-05
1.000196314e-05
1.000608669e-05
1.002025711e-05
1.006664055e-05
1.020848339e-05
1.06022819e-05
1.155260915e-05
1.34206048e-05
1.000037376e-05
1.000037446e-05
1.000037526e-05
1.00003797e-05
1.00003965e-05
1.000045729e-05
1.000067666e-05
1.000143382e-05
1.000397123e-05
1.001213892e-05
1.003705377e-05
1.010788821e-05
1.029133382e-05
1.071091301e-05
1.152688742e-05
1.000037331e-05
1.000037329e-05
1.00003752e-05
1.000037837e-05
1.000039121e-05
1.000043448e-05
1.000058755e-05
1.000109425e-05
1.000272248e-05
1.000773273e-05
1.002231832e-05
1.006191545e-05
1.016032091e-05
1.037908136e-05
1.000037324e-05
1.000037268e-05
1.000037536e-05
1.000037895e-05
1.000039475e-05
1.000045451e-05
1.000066477e-05
1.000139792e-05
1.000387015e-05
1.001188137e-05
1.003651129e-05
1.010713824e-05
1.029156104e-05
1.071596495e-05
1.00003734e-05
1.000037365e-05
1.000037576e-05
1.000038112e-05
1.000040326e-05
1.000048769e-05
1.000080502e-05
1.000196278e-05
1.000608648e-05
1.002025727e-05
1.00666443e-05
1.020849499e-05
1.060231436e-05
1.155270333e-05
1.000037266e-05
1.00003741e-05
1.000037579e-05
1.000038298e-05
1.000041223e-05
1.000052401e-05
1.000095577e-05
1.000260069e-05
1.000873043e-05
1.003090878e-05
1.010785487e-05
1.035879735e-05
1.110417745e-05
1.301603219e-05
1.000037387e-05
1.000037469e-05
1.000037595e-05
1.000038388e-05
1.000041547e-05
1.000054015e-05
1.000102818e-05
1.000291899e-05
1.00101334e-05
1.003702706e-05
1.01339328e-05
1.046549081e-05
1.151009186e-05
1.43712049e-05
1.000037329e-05
1.000037469e-05
1.000037686e-05
1.000038348e-05
1.000041137e-05
1.00005237e-05
1.000095677e-05
1.000260152e-05
1.000873099e-05
1.003091032e-05
1.010785471e-05
1.035879339e-05
1.110416112e-05
1.301597142e-05
1.000037384e-05
1.000037438e-05
1.000037535e-05
1.000038161e-05
1.000040291e-05
1.000048837e-05
1.000080516e-05
1.0001963e-05
1.000608644e-05
1.002025753e-05
1.006664266e-05
1.020848942e-05
1.060229996e-05
1.155267196e-05
1.000037337e-05
1.000037336e-05
1.000037556e-05
1.000037928e-05
1.00003954e-05
1.000045553e-05
1.000066506e-05
1.00013983e-05
1.000387019e-05
1.001188043e-05
1.003651014e-05
1.010713509e-05
1.02915544e-05
1.071595598e-05
1.000037345e-05
1.000037392e-05
1.000037443e-05
1.000037783e-05
1.000039027e-05
1.000043501e-05
1.000058732e-05
1.000109448e-05
1.000272226e-05
1.000773202e-05
1.002231699e-05
1.006191334e-05
1.016031576e-05
1.037906803e-05
1.080359362e-05
1.000037397e-05
1.000037389e-05
1.000037552e-05
1.000037821e-05
1.000038778e-05
1.00004216e-05
1.000053597e-05
1.000090387e-05
1.000204431e-05
1.000541263e-05
1.001483024e-05
1.003942185e-05
1.009852496e-05
1.022715378e-05
1.0000374e-05
1.000037382e-05
1.000037495e-05
1.000037756e-05
1.000039117e-05
1.000043583e-05
1.000058713e-05
1.000109322e-05
1.000272162e-05
1.000773216e-05
1.002231713e-05
1.006191506e-05
1.016032164e-05
1.037908229e-05
1.00003732e-05
1.00003742e-05
1.000037468e-05
1.000037986e-05
1.000039686e-05
1.000045733e-05
1.000067614e-05
1.000143232e-05
1.000397051e-05
1.001213921e-05
1.003705581e-05
1.010789487e-05
1.029135428e-05
1.071096592e-05
1.000037305e-05
1.00003736e-05
1.000037536e-05
1.00003808e-05
1.000040218e-05
1.000048086e-05
1.000076818e-05
1.000179369e-05
1.000535932e-05
1.001727683e-05
1.005515906e-05
1.01676365e-05
1.04715484e-05
1.119031732e-05
1.000037335e-05
1.000037442e-05
1.000037565e-05
1.000038122e-05
1.000040479e-05
1.000049071e-05
1.00008091e-05
1.000196497e-05
1.000604097e-05
1.001993391e-05
1.006514821e-05
1.020321298e-05
1.058824082e-05
1.152689311e-05
1.000037374e-05
1.000037456e-05
1.000037555e-05
1.000038023e-05
1.000040165e-05
1.000048006e-05
1.000076806e-05
1.000179448e-05
1.000536056e-05
1.001727821e-05
1.005515938e-05
1.016763569e-05
1.047154336e-05
1.119030034e-05
1.000037405e-05
1.000037403e-05
1.000037532e-05
1.000037888e-05
1.000039652e-05
1.000045763e-05
1.000067563e-05
1.000143334e-05
1.000397093e-05
1.001213928e-05
1.003705592e-05
1.010789412e-05
1.029134871e-05
1.071095199e-05
1.00003732e-05
1.000037309e-05
1.000037447e-05
1.000037793e-05
1.000039022e-05
1.000043463e-05
1.000058677e-05
1.000109324e-05
1.000272289e-05
1.000773251e-05
1.00223169e-05
1.006191349e-05
1.016031866e-05
1.037907834e-05
1.000037371e-05
1.000037413e-05
1.000037433e-05
1.00003776e-05
1.000038779e-05
1.000042238e-05
1.000053702e-05
1.000090442e-05
1.000204349e-05
1.000541212e-05
1.00148303e-05
1.003942101e-05
1.009852343e-05
1.02271544e-05
)
;

boundaryField
{
    top
    {
        type            zeroGradient;
    }
    bottom
    {
        type            zeroGradient;
    }
    side-walls
    {
        type            zeroGradient;
    }
    inlet
    {
        type            zeroGradient;
    }
    outlet
    {
        type            zeroGradient;
    }
    procBoundary0to1
    {
        type            processor;
        value           nonuniform List<scalar> 
97
(
1.090599459e-05
1.080359964e-05
1.15126975e-05
1.283799974e-05
1.47521509e-05
1.609607295e-05
1.47520863e-05
1.283790462e-05
1.151261807e-05
1.090593716e-05
1.080359964e-05
1.080359964e-05
1.285807027e-05
1.342067099e-05
1.619955126e-05
2.204316045e-05
2.74543045e-05
2.204289761e-05
1.619925559e-05
1.285789931e-05
1.151262306e-05
1.152692201e-05
1.342067099e-05
1.342067099e-05
2.591055039e-05
3.275536087e-05
4.714157202e-05
7.441604049e-05
4.714018371e-05
2.59095832e-05
1.619926655e-05
1.283791321e-05
1.259743118e-05
1.686391237e-05
3.275536087e-05
3.275536087e-05
0.000118786638
0.0002333691672
0.000256681289
0.0001187813931
4.714027115e-05
2.204289999e-05
1.475209522e-05
1.338665757e-05
2.038850397e-05
5.390973809e-05
0.0002333691672
0.0002333691672
0.000842122
0.0002333668565
0.0002566807469
8.624808288e-05
7.441592044e-05
2.745426978e-05
1.609608094e-05
1.259741955e-05
1.686369641e-05
3.275237857e-05
8.624389361e-05
0.0002333668565
8.624808288e-05
8.624808288e-05
4.714115406e-05
1.913134519e-05
2.204323028e-05
1.475219494e-05
1.152689323e-05
1.342043025e-05
1.913076892e-05
3.27524015e-05
5.390970755e-05
3.275213123e-05
1.913134519e-05
1.913134519e-05
1.6199508e-05
1.15419154e-05
1.283802206e-05
1.08035626e-05
1.154185561e-05
1.342043431e-05
1.686370547e-05
2.038848735e-05
1.686359366e-05
1.342043438e-05
1.15419154e-05
1.15419154e-05
1.15126908e-05
1.047681776e-05
1.047679977e-05
1.080356396e-05
1.152689435e-05
1.259741474e-05
1.338664281e-05
1.259738107e-05
1.15268756e-05
1.080356823e-05
1.047681776e-05
)
;
    }
}


// ************************************************************************* //
