/*--------------------------------*- C++ -*----------------------------------*\
| =========                 |                                                 |
| \\      /  F ield         | OpenFOAM: The Open Source CFD Toolbox           |
|  \\    /   O peration     | Version:  4.x                                   |
|   \\  /    A nd           | Web:      www.OpenFOAM.org                      |
|    \\/     M anipulation  |                                                 |
\*---------------------------------------------------------------------------*/
FoamFile
{
    version     2.0;
    format      ascii;
    class       volScalarField;
    location    "7000";
    object      molarConc;
}
// * * * * * * * * * * * * * * * * * * * * * * * * * * * * * * * * * * * * * //

dimensions      [0 -3 0 0 1 0 0];

internalField   nonuniform List<scalar> 
1175
(
9.963278106
9.963277879
9.963277693
9.963277553
9.963277443
9.963277335
9.96327644
9.963277439
9.963277061
9.963277108
9.96327719
9.963277237
9.963277149
9.963276569
9.963275542
9.963272383
9.963273087
9.963273163
9.963274244
9.963273555
9.963274746
9.963274507
9.963273578
9.963273095
9.963273037
9.963271909
9.963270732
9.96327
9.96326771
9.963266955
9.963307267
9.963306906
9.963308292
9.96330776
9.963307781
9.963307465
9.96330703
9.963307021
9.96330572
9.963306517
9.963306121
9.963305648
9.963304609
9.963303247
9.963299412
9.963286155
9.963286486
9.963286698
9.963286626
9.963285183
9.963286837
9.963286925
9.963286812
9.963286749
9.963286918
9.963285637
9.963285971
9.963285193
9.963282352
9.963276736
9.963287986
9.963287143
9.963287956
9.963286005
9.963285336
9.963286254
9.963285542
9.963285097
9.963285401
9.963285116
9.963285558
9.963285339
9.963283147
9.96327938
9.96327181
9.963270754
9.963270872
9.963272254
9.96327168
9.963270139
9.963269891
9.963269285
9.963269973
9.96326996
9.963269342
9.963269408
9.963268928
9.963267328
9.963264579
9.963259102
9.963292879
9.963292295
9.963292282
9.963293104
9.963293604
9.963293675
9.963294705
9.96329294
9.963293674
9.963292971
9.963293277
9.963292936
9.96329127
9.963288808
9.963285001
9.963286773
9.963287359
9.96328819
9.963288501
9.963288829
9.96328894
9.963288191
9.963287942
9.963289199
9.963288639
9.963288739
9.963287833
9.963289627
9.963288539
9.963285787
9.963284322
9.9632842
9.963285385
9.963285007
9.963285107
9.963284887
9.963285444
9.963284869
9.963284373
9.963284663
9.963283861
9.963282664
9.96328245
9.963281513
9.9632809
9.963257255
9.96325703
9.963257871
9.963257767
9.963257693
9.963257636
9.963257448
9.963256402
9.963257798
9.963257504
9.963259445
9.963260745
9.963259186
9.963258573
9.963278163
9.963277831
9.96327749
9.963277858
9.963277933
9.96327838
9.963277642
9.963277871
9.963277671
9.963277655
9.963277941
9.963278299
9.963276625
9.963275449
9.963272179
9.9632526
9.963251937
9.963252035
9.963251717
9.963251425
9.963251992
9.963250944
9.963251609
9.963252169
9.963252408
9.963251443
9.963250653
9.963247069
9.963243566
9.963235997
9.963288819
9.963290129
9.963291105
9.963289975
9.96329165
9.963289809
9.963289037
9.963289943
9.963289306
9.963288558
9.963289227
9.96328858
9.963285895
9.96327927
9.963265543
9.963243203
9.963243922
9.963244468
9.963244688
9.963246593
9.963246841
9.963248513
9.963249457
9.963247975
9.963248933
9.96324743
9.963246436
9.963242982
9.963233309
9.963211613
9.963261354
9.96326065
9.963259712
9.9632604
9.963261322
9.963261503
9.963260636
9.963260621
9.963259263
9.963258774
9.963258947
9.963257726
9.963255091
9.963248888
9.96323499
9.963280714
9.963281002
9.963280976
9.96328325
9.963283397
9.963282483
9.963281292
9.963281965
9.963282881
9.963283487
9.963283874
9.963284332
9.963281446
9.963278296
9.963271334
9.963271838
9.963269581
9.963269504
9.963269221
9.963269842
9.963270259
9.963270407
9.963269637
9.963268796
9.963268752
9.963268634
9.963268769
9.963268206
9.963265876
9.963264101
9.963256901
9.963256693
9.963255781
9.963256421
9.96325603
9.963255122
9.963257133
9.963258328
9.963258908
9.96325844
9.963259795
9.963259864
9.963261186
9.963261666
9.963259271
9.963289422
9.963289422
9.963288528
9.963289269
9.963288471
9.963287922
9.963287929
9.963289323
9.963288482
9.963288303
9.963288593
9.963288103
9.963287377
9.963286553
9.963278107
9.96327812
9.963278073
9.963278735
9.963278614
9.96327885
9.963278456
9.963278445
9.963277963
9.96327656
9.963276441
9.963275606
9.963276421
9.963273824
9.963259017
9.96325913
9.963258944
9.963258968
9.963259453
9.963259576
9.963257921
9.963256383
9.963257011
9.963257094
9.963257108
9.9632561
9.96325294
9.963244444
9.963224262
9.963295436
9.963296046
9.963296027
9.963297486
9.96329688
9.963296886
9.96329667
9.963296744
9.963296252
9.963296861
9.963297922
9.963296489
9.963288187
9.963267028
9.963216146
9.963250511
9.963250407
9.963251293
9.963251792
9.963250557
9.963251435
9.96325075
9.963249241
9.963250185
9.963248143
9.96324704
9.963244115
9.963232125
9.963189829
9.963089294
9.963307775
9.963308858
9.963310426
9.96331066
9.963310404
9.963311061
9.96331113
9.96331131
9.963310993
9.963310469
9.963310041
9.963306873
9.963298546
9.963276813
9.963228457
9.963339213
9.963339709
9.963339451
9.963337623
9.963337842
9.963337211
9.96333659
9.963336673
9.963336442
9.963336996
9.963337969
9.963336069
9.963332516
9.963323283
9.963305632
9.963234572
9.963235029
9.963235127
9.963235872
9.963235835
9.963236193
9.963237716
9.963237082
9.963236864
9.963236225
9.963236782
9.963237297
9.963235548
9.963233256
9.963226172
9.963293077
9.963293751
9.963293607
9.963293623
9.963292896
9.96329301
9.963292551
9.9632921
9.963293507
9.963293671
9.963293362
9.963292615
9.963292543
9.963291742
9.963290279
9.96332256
9.963322284
9.963322571
9.963323035
9.963323404
9.96332242
9.963320975
9.963320929
9.963321912
9.963322544
9.963321466
9.963321088
9.963320823
9.963319032
9.963235036
9.96323474
9.963236118
9.963235622
9.963235647
9.963235528
9.963235463
9.963234199
9.963234991
9.963236158
9.963235855
9.96323567
9.963233201
9.963226837
9.963245081
9.963246038
9.963246091
9.963247277
9.963246371
9.963244489
9.963243912
9.963244834
9.963244302
9.963245031
9.963243595
9.96323977
9.96323127
9.963207166
9.963186647
9.963187167
9.963187483
9.963187791
9.963188658
9.963189884
9.96319057
9.963190311
9.963189903
9.963189695
9.963188177
9.963182456
9.963161537
9.963091364
9.962910633
9.963273753
9.963273272
9.963273711
9.963274338
9.963274859
9.963274103
9.963272666
9.963272808
9.963271962
9.963270949
9.963269978
9.963262567
9.963222783
9.963048687
9.962481921
9.963342821
9.96334154
9.963341086
9.963340076
9.963339233
9.963340648
9.963341633
9.963340463
9.963340743
9.963339503
9.963337907
9.963332294
9.963311942
9.963239689
9.963060795
9.963234705
9.963234613
9.963235058
9.963234064
9.963234506
9.963234575
9.963233546
9.963234149
9.963233214
9.963233741
9.963235832
9.96323347
9.963224481
9.963201297
9.963151581
9.963304772
9.963303897
9.963304906
9.963305695
9.963305883
9.963303993
9.963303902
9.96330488
9.963305794
9.963305524
9.963305832
9.963304862
9.963302598
9.963294091
9.963281262
9.96325733
9.963256559
9.963256059
9.963256452
9.963256379
9.963257115
9.963257047
9.963259343
9.963258945
9.963259209
9.963259186
9.963258624
9.963256414
9.963254223
9.963248121
9.963282298
9.963283056
9.963282137
9.963282871
9.963282745
9.963284051
9.963282993
9.963285244
9.963285611
9.963286715
9.963286298
9.963286847
9.963284935
9.963281718
9.963248387
9.963248739
9.963247781
9.9632465
9.963247059
9.963247404
9.963248212
9.963247054
9.963246595
9.963245557
9.963243759
9.963242812
9.963240014
9.963231171
9.963265602
9.963264606
9.96326567
9.963266824
9.963265306
9.963265228
9.963264444
9.963266663
9.963266561
9.963266786
9.963266768
9.963263924
9.963251231
9.963210061
9.963264764
9.96326472
9.963264262
9.96326377
9.963264245
9.963264144
9.963264374
9.963265824
9.963265296
9.963265421
9.963262584
9.963251903
9.963211389
9.963037772
9.96327354
9.963272773
9.963273157
9.963272825
9.963272938
9.963272569
9.963272306
9.963272378
9.963271759
9.963270281
9.963269323
9.963253114
9.963152014
9.962514771
9.996932795
9.963293761
9.963294115
9.963293505
9.963292912
9.963291493
9.963290232
9.963290832
9.963289722
9.963289069
9.963288761
9.963287014
9.963276588
9.963234792
9.963063193
9.962497335
9.963304893
9.963304074
9.963304748
9.963303493
9.96330429
9.963304793
9.963304566
9.963304196
9.963303294
9.963303519
9.963301883
9.963297066
9.963282931
9.96324028
9.963140396
9.963305492
9.96330587
9.963306913
9.96330659
9.96330682
9.963307195
9.963306903
9.963305748
9.963306185
9.963305456
9.963305301
9.963304497
9.963300465
9.963289419
9.963266921
9.96328164
9.963282095
9.963280928
9.963281429
9.963282225
9.963281486
9.963280344
9.96328017
9.963280006
9.963281127
9.963280564
9.963280929
9.963280238
9.963276825
9.963268792
9.963226439
9.963225708
9.96322456
9.963226354
9.963225555
9.963226599
9.963227304
9.963227294
9.963226825
9.963226381
9.963226778
9.963227942
9.963228211
9.963224032
9.963270044
9.963270427
9.963271557
9.963271581
9.963271977
9.963272689
9.96327319
9.963273655
9.963273582
9.96327368
9.963274634
9.963274789
9.963273282
9.963265045
9.963280818
9.963281174
9.963280877
9.963279749
9.963278391
9.963277647
9.963277466
9.963278032
9.963276955
9.963276243
9.963275746
9.963272812
9.963263482
9.963240035
9.963273936
9.963272797
9.963273654
9.96327383
9.963274481
9.963274208
9.963273622
9.963273751
9.963274106
9.963272065
9.963270833
9.963266035
9.963244424
9.963173924
9.963252202
9.963253682
9.963252139
9.963252973
9.963252662
9.96325157
9.96325257
9.963253592
9.963255019
9.963254543
9.963252399
9.963243983
9.963201824
9.963028942
9.963244365
9.963243564
9.963243583
9.96324378
9.963242808
9.96324307
9.963241514
9.963242075
9.963243048
9.963244415
9.963242391
9.963236677
9.963216318
9.963144402
9.963277007
9.963277149
9.963276559
9.963276954
9.963275918
9.963274902
9.963276669
9.963276654
9.963276019
9.963278416
9.963277124
9.963274852
9.963265747
9.963242867
9.963192951
9.963281062
9.96327933
9.96328119
9.963280724
9.963279795
9.963280889
9.963280872
9.963281569
9.963281717
9.963282818
9.963282782
9.963281119
9.963279091
9.963272004
9.963258121
9.963275726
9.963275898
9.963276716
9.963275918
9.963277069
9.963276678
9.963277086
9.963277052
9.96327731
9.963277562
9.963276699
9.963276409
9.963274707
9.963272826
9.963269079
9.963289658
9.963289253
9.963288965
9.96328838
9.96328877
9.963289536
9.96328941
9.963288927
9.963289739
9.96329031
9.963291211
9.963289516
9.963289007
9.963287219
9.963257622
9.963257576
9.963259273
9.963259093
9.963257214
9.963257282
9.963256058
9.963256411
9.963254494
9.96325568
9.963254881
9.963255015
9.963252934
9.963248738
9.963320426
9.963321045
9.963321109
9.96332201
9.963320747
9.96331997
9.963320147
9.96332161
9.963321327
9.96332252
9.963322483
9.963321366
9.963317246
9.963308825
9.963283718
9.963282587
9.963281725
9.963282395
9.963281781
9.963281732
9.963280453
9.963279643
9.963280861
9.96327935
9.963277844
9.963276624
9.963268175
9.963245705
9.963239978
9.96323963
9.963240185
9.963241169
9.963240926
9.963240367
9.96323963
9.963239028
9.96323945
9.963238305
9.963235397
9.96323271
9.963219674
9.963177582
9.963282922
9.963283242
9.96328346
9.963283564
9.963285459
9.963285494
9.96328458
9.963285518
9.96328543
9.963285946
9.963285505
9.963283296
9.963275767
9.963253543
9.963277868
9.963277283
9.963277405
9.963277195
9.963277523
9.963277131
9.96327585
9.963275852
9.963275691
9.963274525
9.963274693
9.96327154
9.963268477
9.963260899
9.963253099
9.963252448
9.963252699
9.963252333
9.963252798
9.963254519
9.963254503
9.963254396
9.963252787
9.963253322
9.963254119
9.963253229
9.963252857
9.963249471
9.963240853
9.963295981
9.963296309
9.963295822
9.963294997
9.963294824
9.963294553
9.963294676
9.963295954
9.96329573
9.963295115
9.963294734
9.963293572
9.963292401
9.963289358
9.963285537
9.963287897
9.963288313
9.963288075
9.963286445
9.963286818
9.963286421
9.963287381
9.963287735
9.963287868
9.963288195
9.963288956
9.963287604
9.963287304
9.963287778
9.96330418
9.963303683
9.963304883
9.963305625
9.963306135
9.96330584
9.963305356
9.963306465
9.963307567
9.963308003
9.96330914
9.963308447
9.963307438
9.9633069
9.963237944
9.96323928
9.963240224
9.963241136
9.963241975
9.963241328
9.963240877
9.963241917
9.963241875
9.963242343
9.963241597
9.963238998
9.963237762
9.963234709
9.963246901
9.963247371
9.96324846
9.963249641
9.963250823
9.963250406
9.963250898
9.963249738
9.963248752
9.963249734
9.96325165
9.963251497
9.963250562
9.963243452
9.963253489
9.963253824
9.963254167
9.963253429
9.963253842
9.963253822
9.963255533
9.963254151
9.96325479
9.963255065
9.963255043
9.96325449
9.963250846
9.963240701
9.963224775
9.963225519
9.963226537
9.963226082
9.963225627
9.963225132
9.963224737
9.963225584
9.963225146
9.963225439
9.9632256
9.963224319
9.963223099
9.963216619
9.96329685
9.963298099
9.963299071
9.963299402
9.963300378
9.963300834
9.963301308
9.963300693
9.963302257
9.963303043
9.963303524
9.96330275
9.963302141
9.963298197
9.96330662
9.963305647
9.963305242
9.963305565
9.963305161
9.963304641
9.963304932
9.963304318
9.963304554
9.963304306
9.963304005
9.963305645
9.963304719
9.963303288
9.963267112
9.963267085
9.963266122
9.96326678
9.963267849
9.963267701
9.963267908
9.963267595
9.963267731
9.96326748
9.963268944
9.963269035
9.963268439
9.963269273
9.963267151
9.963301067
9.963301162
9.963301142
9.9633024
9.963301677
9.963301842
9.963302242
9.963301455
9.963301925
9.963301721
9.963302068
9.963301914
9.963301267
9.963301247
9.963273153
9.963273677
9.963272813
9.963273643
9.963272794
9.963272679
9.96327251
9.963272928
9.963272477
9.963270917
9.963270913
9.963270032
9.963270065
9.963269271
9.963279402
9.963279175
9.963278979
9.963279603
9.963278761
9.963278065
9.963278475
9.963278072
9.963277964
9.963278913
9.963277932
9.963278314
9.963279173
9.963277727
9.963263461
9.963263798
9.96326373
9.963263369
9.963263393
9.963263955
9.963263344
9.963261274
9.963261141
9.963260679
9.963261445
9.963261629
9.96325923
9.963257739
9.96330409
9.963303623
9.96330348
9.963304285
9.963303602
9.96330395
9.96330363
9.963302749
9.963303231
9.963303416
9.963303371
9.963301394
9.963300036
9.963296428
9.963280221
9.963280787
9.963280477
9.963279433
9.963279904
9.963280739
9.963281533
9.963282285
9.963283691
9.96328337
9.963282145
9.963282053
9.96327995
9.963277329
9.963339557
9.963338864
9.963337826
9.96333794
9.963336055
9.963336691
9.963336764
9.96333783
9.963335782
9.963337133
9.96333756
9.963337799
9.963338262
9.963338318
9.963272123
9.963272177
9.963272637
9.963272044
9.963272502
9.963271767
9.963271729
9.96327159
9.963272792
9.963273663
9.963273829
9.963273722
9.963273704
9.963271578
9.963260168
9.963260852
9.963260589
9.963260501
9.96326111
9.963260443
9.963260307
9.96325954
9.963259708
9.963259779
9.9632601
9.963259069
9.96325906
9.963258732
)
;

boundaryField
{
    top
    {
        type            calculated;
        value           nonuniform List<scalar> 
134
(
9.963284322
9.963256901
9.963293077
9.96325733
9.96328164
9.963275726
9.963295981
9.963267112
9.963260168
9.9632842
9.963256693
9.963293751
9.963256559
9.963282095
9.963275898
9.963296309
9.963267085
9.963260852
9.963285385
9.963255781
9.963293607
9.963256059
9.963280928
9.963276716
9.963295822
9.963266122
9.963260589
9.963285007
9.963256421
9.963293623
9.963256452
9.963281429
9.963275918
9.963294997
9.96326678
9.963260501
9.963285107
9.96325603
9.963292896
9.963256379
9.963282225
9.963277069
9.963294824
9.963267849
9.96326111
9.963284887
9.963255122
9.96329301
9.963257115
9.963281486
9.963276678
9.963294553
9.963267701
9.963260443
9.963285444
9.963257133
9.963292551
9.963257047
9.963280344
9.963277086
9.963294676
9.963267908
9.963260307
9.963284869
9.963258328
9.9632921
9.963259343
9.96328017
9.963277052
9.963295954
9.963267595
9.96325954
9.963284373
9.963258908
9.963293507
9.963258945
9.963280006
9.96327731
9.96329573
9.963267731
9.963259708
9.963284663
9.96325844
9.963293671
9.963259209
9.963281127
9.963277562
9.963295115
9.96326748
9.963259779
9.963283861
9.963259795
9.963293362
9.963259186
9.963280564
9.963276699
9.963294734
9.963268944
9.9632601
9.963282664
9.963259864
9.963292615
9.963258624
9.963280929
9.963276409
9.963293572
9.963269035
9.963259069
9.96328245
9.963261186
9.963292543
9.963256414
9.963280238
9.963274707
9.963292401
9.963268439
9.96325906
9.963281513
9.963261666
9.963291742
9.963254223
9.963276825
9.963272826
9.963289358
9.963269273
9.963258732
9.9632809
9.963259271
9.963290279
9.963248121
9.963268792
9.963269079
9.963285537
9.963267151
)
;
    }
    bottom
    {
        type            calculated;
        value           nonuniform List<scalar> 
127
(
9.963278106
9.963257255
9.963289422
9.96332256
9.963282298
9.963226439
9.963289658
9.963287897
9.963301067
9.963277879
9.96325703
9.963289422
9.963322284
9.963283056
9.963225708
9.963289253
9.963288313
9.963301162
9.963277693
9.963257871
9.963288528
9.963322571
9.963282137
9.96322456
9.963288965
9.963288075
9.963301142
9.963277553
9.963257767
9.963289269
9.963323035
9.963282871
9.963226354
9.96328838
9.963286445
9.9633024
9.963277443
9.963257693
9.963288471
9.963323404
9.963282745
9.963225555
9.96328877
9.963286818
9.963301677
9.963277335
9.963257636
9.963287922
9.96332242
9.963284051
9.963226599
9.963289536
9.963286421
9.963301842
9.96327644
9.963257448
9.963287929
9.963320975
9.963282993
9.963227304
9.96328941
9.963287381
9.963302242
9.963277439
9.963256402
9.963289323
9.963320929
9.963285244
9.963227294
9.963288927
9.963287735
9.963301455
9.963277061
9.963257798
9.963288482
9.963321912
9.963285611
9.963226825
9.963289739
9.963287868
9.963301925
9.963277108
9.963257504
9.963288303
9.963322544
9.963286715
9.963226381
9.96329031
9.963288195
9.963301721
9.96327719
9.963259445
9.963288593
9.963321466
9.963286298
9.963226778
9.963291211
9.963288956
9.963302068
9.963277237
9.963260745
9.963288103
9.963321088
9.963286847
9.963227942
9.963289516
9.963287604
9.963301914
9.963277149
9.963259186
9.963287377
9.963320823
9.963284935
9.963228211
9.963289007
9.963287304
9.963301267
9.963276569
9.963258573
9.963286553
9.963319032
9.963281718
9.963224032
9.963287219
9.963287778
9.963301247
9.963275542
)
;
    }
    side-walls
    {
        type            calculated;
        value           nonuniform List<scalar> 
261
(
9.963278106
9.963272383
9.963307267
9.963286155
9.963287986
9.963270754
9.963292879
9.963286773
9.963284322
9.963277879
9.963273087
9.963306906
9.963286486
9.963287143
9.963270872
9.963292295
9.963287359
9.9632842
9.963277693
9.963273163
9.963308292
9.963286698
9.963287956
9.963272254
9.963292282
9.96328819
9.963285385
9.963277553
9.963274244
9.96330776
9.963286626
9.963286005
9.96327168
9.963293104
9.963288501
9.963285007
9.963277443
9.963273555
9.963307781
9.963285183
9.963285336
9.963270139
9.963293604
9.963288829
9.963285107
9.963277335
9.963274746
9.963307465
9.963286837
9.963286254
9.963269891
9.963293675
9.96328894
9.963284887
9.96327644
9.963274507
9.96330703
9.963286925
9.963285542
9.963269285
9.963294705
9.963288191
9.963285444
9.963277439
9.963273578
9.963307021
9.963286812
9.963285097
9.963269973
9.96329294
9.963287942
9.963284869
9.963277061
9.963273095
9.96330572
9.963286749
9.963285401
9.96326996
9.963293674
9.963289199
9.963284373
9.963277108
9.963273037
9.963306517
9.963286918
9.963285116
9.963269342
9.963292971
9.963288639
9.963284663
9.96327719
9.963271909
9.963306121
9.963285637
9.963285558
9.963269408
9.963293277
9.963288739
9.963283861
9.963277237
9.963270732
9.963305648
9.963285971
9.963285339
9.963268928
9.963292936
9.963287833
9.963282664
9.963277149
9.96327
9.963304609
9.963285193
9.963283147
9.963267328
9.96329127
9.963289627
9.96328245
9.963276569
9.96326771
9.963303247
9.963282352
9.96327938
9.963264579
9.963288808
9.963288539
9.963281513
9.963275542
9.963266955
9.963299412
9.963276736
9.96327181
9.963259102
9.963285001
9.963285787
9.9632809
9.963301067
9.963273153
9.963279402
9.963263461
9.96330409
9.963280221
9.963339557
9.963272123
9.963260168
9.963301162
9.963273677
9.963279175
9.963263798
9.963303623
9.963280787
9.963338864
9.963272177
9.963260852
9.963301142
9.963272813
9.963278979
9.96326373
9.96330348
9.963280477
9.963337826
9.963272637
9.963260589
9.9633024
9.963273643
9.963279603
9.963263369
9.963304285
9.963279433
9.96333794
9.963272044
9.963260501
9.963301677
9.963272794
9.963278761
9.963263393
9.963303602
9.963279904
9.963336055
9.963272502
9.96326111
9.963301842
9.963272679
9.963278065
9.963263955
9.96330395
9.963280739
9.963336691
9.963271767
9.963260443
9.963302242
9.96327251
9.963278475
9.963263344
9.96330363
9.963281533
9.963336764
9.963271729
9.963260307
9.963301455
9.963272928
9.963278072
9.963261274
9.963302749
9.963282285
9.96333783
9.96327159
9.96325954
9.963301925
9.963272477
9.963277964
9.963261141
9.963303231
9.963283691
9.963335782
9.963272792
9.963259708
9.963301721
9.963270917
9.963278913
9.963260679
9.963303416
9.96328337
9.963337133
9.963273663
9.963259779
9.963302068
9.963270913
9.963277932
9.963261445
9.963303371
9.963282145
9.96333756
9.963273829
9.9632601
9.963301914
9.963270032
9.963278314
9.963261629
9.963301394
9.963282053
9.963337799
9.963273722
9.963259069
9.963301267
9.963270065
9.963279173
9.96325923
9.963300036
9.96327995
9.963338262
9.963273704
9.96325906
9.963301247
9.963269271
9.963277727
9.963257739
9.963296428
9.963277329
9.963338318
9.963271578
9.963258732
)
;
    }
    inlet
    {
        type            calculated;
        value           nonuniform List<scalar> 
81
(
9.963278106
9.963272383
9.963307267
9.963286155
9.963287986
9.963270754
9.963292879
9.963286773
9.963284322
9.963257255
9.963278163
9.9632526
9.963288819
9.963243203
9.963261354
9.963280714
9.963271838
9.963256901
9.963289422
9.963278107
9.963259017
9.963295436
9.963250511
9.963307775
9.963339213
9.963234572
9.963293077
9.96332256
9.963235036
9.963245081
9.963186647
9.963273753
9.963342821
9.963234705
9.963304772
9.96325733
9.963282298
9.963248387
9.963265602
9.963264764
9.96327354
9.963293761
9.963304893
9.963305492
9.96328164
9.963226439
9.963270044
9.963280818
9.963273936
9.963252202
9.963244365
9.963277007
9.963281062
9.963275726
9.963289658
9.963257622
9.963320426
9.963283718
9.963239978
9.963282922
9.963277868
9.963253099
9.963295981
9.963287897
9.96330418
9.963237944
9.963246901
9.963253489
9.963224775
9.96329685
9.96330662
9.963267112
9.963301067
9.963273153
9.963279402
9.963263461
9.96330409
9.963280221
9.963339557
9.963272123
9.963260168
)
;
    }
    outlet
    {
        type            calculated;
        value           nonuniform 0();
    }
    procBoundary0to1
    {
        type            processor;
        value           nonuniform List<scalar> 
97
(
9.963274586
9.963258117
9.963264534
9.963295029
9.963269171
9.963262078
9.963252868
9.963279785
9.963284081
9.963279888
9.963258117
9.963258117
9.963266806
9.963265634
9.963225879
9.963247526
9.963184444
9.963216673
9.963260372
9.963259378
9.963256737
9.963284287
9.963265634
9.963265634
9.963200636
9.963158516
9.963163914
9.963013702
9.963175169
9.963280417
9.963215674
9.963282324
9.963314105
9.963212976
9.963158516
9.963158516
9.962792747
9.96247155
9.96239883
9.962942137
9.96310012
9.963263605
9.963240911
9.96327385
9.963209756
9.963108462
9.96247155
9.96247155
9.999261058
9.962463266
9.962413891
9.962966309
9.963064669
9.963240775
9.963259158
9.963218426
9.963250121
9.963191964
9.962994677
9.962463266
9.962966309
9.962966309
9.963139189
9.963242648
9.96323797
9.963262044
9.963284382
9.963243216
9.963289357
9.963195643
9.963076097
9.963203117
9.963242648
9.963242648
9.963230588
9.963300605
9.963281879
9.963285808
9.963303184
9.963227933
9.963230376
9.963219412
9.963203207
9.963290101
9.963300605
9.963300605
9.963264174
9.963258266
9.963300371
9.9632684
9.963274235
9.963252349
9.963290381
9.963271271
9.963334962
9.963269977
9.963258266
)
;
    }
}


// ************************************************************************* //
