/*--------------------------------*- C++ -*----------------------------------*\
| =========                 |                                                 |
| \\      /  F ield         | OpenFOAM: The Open Source CFD Toolbox           |
|  \\    /   O peration     | Version:  4.x                                   |
|   \\  /    A nd           | Web:      www.OpenFOAM.org                      |
|    \\/     M anipulation  |                                                 |
\*---------------------------------------------------------------------------*/
FoamFile
{
    version     2.0;
    format      ascii;
    class       volScalarField;
    location    "7000";
    object      rhoeps;
}
// * * * * * * * * * * * * * * * * * * * * * * * * * * * * * * * * * * * * * //

dimensions      [1 -3 0 0 0 0 0];

internalField   nonuniform List<scalar> 
1175
(
0.2699631046
0.2699631005
0.269963096
0.2699631007
0.2699630721
0.269963084
0.2699630879
0.2699630975
0.2699630847
0.2699630864
0.2699630965
0.2699631007
0.2699631151
0.2699631702
0.2699632578
0.2699629556
0.2699629721
0.2699630096
0.2699630095
0.2699629813
0.2699630121
0.2699630136
0.2699630112
0.2699629826
0.2699629749
0.2699629594
0.2699629555
0.2699629556
0.2699630152
0.2699631854
0.2699638801
0.2699638903
0.2699638993
0.2699639331
0.2699639239
0.2699639151
0.2699638665
0.2699638878
0.2699638727
0.269963869
0.269963886
0.2699638967
0.2699639653
0.2699641306
0.2699644051
0.2699633323
0.2699633401
0.2699633651
0.2699633344
0.2699633014
0.2699633318
0.269963341
0.2699633633
0.2699633509
0.2699633334
0.26996335
0.2699634053
0.2699635208
0.269963798
0.2699642752
0.2699633674
0.2699633431
0.269963374
0.2699633248
0.2699633142
0.2699633171
0.2699633219
0.2699633183
0.2699633153
0.2699633128
0.2699633511
0.2699633985
0.2699635229
0.2699638709
0.2699645571
0.2699629225
0.269962917
0.2699629569
0.2699629293
0.2699629067
0.2699628747
0.2699628701
0.2699628896
0.2699628832
0.269962889
0.2699629069
0.2699629214
0.269963057
0.2699633042
0.2699638597
0.2699635009
0.2699635079
0.2699635001
0.269963496
0.2699635365
0.2699635389
0.2699635464
0.2699635182
0.2699635038
0.2699635134
0.2699635199
0.2699635714
0.2699636038
0.2699637402
0.2699640225
0.2699633543
0.2699633534
0.269963395
0.2699633911
0.2699633901
0.2699633962
0.2699634125
0.2699633699
0.2699634144
0.2699633886
0.2699633953
0.2699633826
0.2699634839
0.2699635876
0.2699637112
0.2699632745
0.2699632933
0.2699632837
0.2699632944
0.2699632843
0.2699632933
0.2699632923
0.2699633037
0.2699632648
0.2699632809
0.2699632643
0.2699632662
0.2699632635
0.2699633157
0.2699634093
0.2699625245
0.2699625196
0.2699625577
0.2699625718
0.269962576
0.2699625822
0.2699625581
0.2699625168
0.269962547
0.2699625574
0.2699626079
0.2699626531
0.2699626548
0.2699627642
0.2699631208
0.2699631189
0.2699630651
0.269963089
0.2699630841
0.2699630853
0.2699630873
0.2699631143
0.2699630915
0.2699631231
0.2699631319
0.2699631487
0.2699632085
0.2699633831
0.2699636679
0.2699624055
0.2699624174
0.269962435
0.2699623951
0.2699623747
0.2699623805
0.2699623749
0.2699623718
0.2699623762
0.2699624019
0.2699624127
0.2699624796
0.2699625537
0.2699629235
0.2699635985
0.2699634159
0.2699634383
0.2699634498
0.2699634526
0.2699634583
0.269963434
0.2699634021
0.2699634372
0.26996342
0.2699634214
0.2699634771
0.269963575
0.2699638507
0.2699645864
0.2699660147
0.2699621547
0.2699621759
0.2699622007
0.2699622197
0.269962232
0.2699622514
0.2699622831
0.2699623234
0.2699623053
0.2699623267
0.2699623456
0.2699624658
0.2699628728
0.269963955
0.2699662231
0.269962643
0.2699626385
0.269962658
0.2699626369
0.2699626355
0.2699626565
0.2699626624
0.2699626203
0.2699626275
0.2699625895
0.2699626408
0.2699627265
0.2699630248
0.269963763
0.2699652094
0.2699631724
0.2699631792
0.2699631905
0.2699632522
0.2699632434
0.2699632244
0.2699631784
0.2699632102
0.2699632387
0.2699632789
0.2699632934
0.2699633553
0.269963477
0.2699638552
0.2699645733
0.2699629264
0.2699628633
0.2699628699
0.2699628599
0.2699628563
0.2699628823
0.2699628805
0.2699628942
0.2699628668
0.2699628831
0.2699629097
0.2699629112
0.2699630179
0.2699631159
0.2699634514
0.2699625345
0.2699625115
0.2699625231
0.2699625133
0.269962518
0.2699624849
0.2699625392
0.2699625823
0.2699625835
0.2699625729
0.2699626007
0.2699626237
0.2699627148
0.2699628258
0.269962978
0.2699634167
0.2699634101
0.2699633936
0.2699634133
0.2699633825
0.2699633755
0.2699633592
0.2699634035
0.2699633975
0.269963387
0.2699633814
0.2699634199
0.269963468
0.26996364
0.2699630797
0.2699630928
0.2699631223
0.26996312
0.269963137
0.2699631273
0.2699631395
0.2699631172
0.2699630906
0.2699630872
0.2699631074
0.2699631596
0.2699633454
0.2699637243
0.2699625978
0.2699626033
0.2699625876
0.2699625736
0.2699626085
0.2699626036
0.2699625502
0.2699625376
0.2699625624
0.2699625624
0.2699625862
0.2699627301
0.2699630738
0.269964071
0.2699660089
0.2699635838
0.2699635775
0.2699635995
0.2699636415
0.2699636055
0.2699636057
0.2699635941
0.2699636132
0.2699636007
0.2699636381
0.2699637345
0.2699639929
0.2699648486
0.2699672063
0.2699722282
0.2699623708
0.2699623505
0.2699624082
0.2699624005
0.2699623951
0.2699623716
0.2699623406
0.2699623345
0.2699623675
0.2699623708
0.2699624198
0.2699627797
0.2699640808
0.2699683578
0.2699787897
0.2699639169
0.2699639454
0.2699639722
0.2699639968
0.269963978
0.2699639959
0.2699640127
0.2699640002
0.2699640044
0.2699640054
0.2699640629
0.2699642869
0.2699651097
0.2699674771
0.2699725553
0.2699647717
0.2699647895
0.2699647588
0.2699647483
0.2699647208
0.2699647017
0.2699646689
0.2699646781
0.269964695
0.2699647011
0.2699647767
0.2699649022
0.2699652729
0.26996624
0.2699681734
0.2699619274
0.2699619403
0.2699619516
0.2699619364
0.269961962
0.2699619786
0.2699620199
0.2699620058
0.2699620147
0.2699619676
0.26996198
0.2699620872
0.2699622262
0.2699626458
0.2699633343
0.2699635183
0.2699635364
0.2699635119
0.2699635056
0.26996352
0.2699635028
0.2699635155
0.2699634948
0.2699635147
0.2699635285
0.2699635365
0.2699635808
0.2699636148
0.2699638294
0.2699641571
0.269964303
0.2699642924
0.2699643093
0.2699643334
0.2699643482
0.2699643108
0.2699642805
0.2699642566
0.269964285
0.2699643318
0.2699643157
0.2699643679
0.2699645135
0.2699647917
0.2699619592
0.2699619565
0.2699619441
0.2699619486
0.2699619755
0.2699619493
0.2699619395
0.2699619154
0.2699619609
0.2699619967
0.2699620064
0.2699620999
0.269962422
0.2699631426
0.2699622029
0.2699622282
0.269962238
0.269962268
0.269962241
0.2699622179
0.2699621835
0.2699622195
0.2699621929
0.2699622155
0.2699623104
0.2699625106
0.2699632799
0.2699656166
0.2699606403
0.2699606536
0.2699606614
0.2699606625
0.2699606893
0.2699607198
0.2699607583
0.2699607357
0.2699607148
0.2699607594
0.2699609023
0.2699614401
0.269963601
0.2699709381
0.2699892903
0.269962999
0.2699629759
0.2699629876
0.2699630127
0.2699630123
0.269962988
0.2699629597
0.2699629727
0.2699629731
0.2699629888
0.2699632188
0.2699641753
0.2699683561
0.2699861202
0.2700471897
0.2699648635
0.269964817
0.2699647932
0.2699648095
0.2699647949
0.2699647774
0.269964801
0.2699647772
0.269964799
0.2699648001
0.2699649748
0.2699655067
0.2699676799
0.2699749875
0.2699933233
0.2699619136
0.2699619258
0.2699619539
0.2699619274
0.2699619369
0.2699619326
0.2699619091
0.2699618798
0.2699619263
0.2699619302
0.2699620445
0.269962353
0.2699631187
0.2699654434
0.2699704819
0.2699638393
0.2699638017
0.2699638215
0.2699638099
0.2699638471
0.269963811
0.2699638044
0.2699638377
0.2699638674
0.2699638603
0.2699638907
0.2699640013
0.2699643202
0.2699650096
0.2699664658
0.2699625457
0.2699625502
0.2699624942
0.2699625194
0.2699625158
0.2699625356
0.2699625334
0.2699625753
0.2699625833
0.2699625948
0.2699626236
0.2699626549
0.2699627557
0.2699629909
0.2699635322
0.269963243
0.2699632363
0.2699632178
0.2699632335
0.269963231
0.2699632462
0.2699632598
0.2699632701
0.2699633136
0.2699633292
0.2699633373
0.2699634482
0.2699635727
0.2699639206
0.2699623087
0.2699623035
0.2699622991
0.2699622546
0.2699622533
0.269962275
0.2699622761
0.2699622615
0.2699622388
0.2699622505
0.2699622734
0.2699623618
0.269962777
0.2699639071
0.2699627611
0.269962739
0.2699627677
0.2699628067
0.269962781
0.2699627543
0.2699627583
0.2699627689
0.2699628226
0.2699628536
0.2699629609
0.2699632989
0.2699646496
0.2699688984
0.2699627528
0.26996274
0.2699627424
0.2699626995
0.2699627253
0.2699627229
0.2699627497
0.2699627589
0.2699627782
0.2699628235
0.2699630046
0.2699639013
0.2699680396
0.2699858151
0.2699629616
0.2699629531
0.2699630008
0.2699629762
0.2699629804
0.2699629589
0.2699629334
0.2699629347
0.2699629538
0.2699629997
0.2699633789
0.2699651183
0.269975382
0.2700406476
0.2702283018
0.2699635086
0.2699635353
0.2699635348
0.2699635064
0.2699635152
0.2699634673
0.2699634254
0.2699634235
0.2699634363
0.2699634669
0.2699636785
0.2699645649
0.2699687065
0.2699865053
0.270047582
0.2699638114
0.2699638168
0.2699638034
0.269963774
0.2699638003
0.269963836
0.2699638149
0.269963783
0.2699637939
0.2699638194
0.2699638927
0.2699642302
0.2699654898
0.2699697509
0.2699801687
0.2699638583
0.2699638692
0.2699638916
0.2699639044
0.2699639078
0.2699638643
0.2699639029
0.2699638736
0.2699638853
0.269963866
0.2699639004
0.2699640262
0.2699644117
0.2699654968
0.2699677363
0.2699632047
0.2699631962
0.2699632134
0.2699632111
0.2699632337
0.2699632028
0.2699631699
0.2699631418
0.2699631693
0.269963168
0.2699631932
0.2699632694
0.2699634198
0.2699637757
0.2699644644
0.2699617024
0.2699616927
0.2699616717
0.2699616888
0.2699616718
0.2699616914
0.2699617173
0.2699617135
0.269961715
0.269961719
0.2699617356
0.2699618038
0.2699619355
0.2699622304
0.2699628755
0.2699628964
0.2699629266
0.2699629468
0.2699629642
0.2699629763
0.2699629971
0.2699629886
0.2699629787
0.2699630086
0.2699630845
0.2699631938
0.2699634835
0.2699641864
0.2699631961
0.2699631856
0.2699631895
0.2699631841
0.2699631357
0.2699631246
0.2699631015
0.2699630783
0.2699631103
0.2699631133
0.2699631566
0.2699634169
0.2699641917
0.2699665412
0.2699629934
0.2699629838
0.269963009
0.2699629814
0.2699630193
0.2699629995
0.2699629923
0.2699629737
0.269963005
0.269962983
0.2699631157
0.2699636966
0.2699658342
0.2699731621
0.2699624194
0.2699624297
0.2699624174
0.2699624066
0.2699624369
0.2699623746
0.2699624267
0.2699624595
0.2699624998
0.2699625339
0.2699627531
0.2699636558
0.2699678216
0.2699855821
0.2699621894
0.2699621662
0.2699621993
0.2699621821
0.2699621766
0.2699621278
0.2699621263
0.2699621434
0.2699621493
0.2699622174
0.2699623318
0.2699628965
0.2699650981
0.2699724131
0.2699630715
0.269963067
0.2699630418
0.2699630906
0.2699630307
0.2699630228
0.2699630633
0.2699630909
0.2699630694
0.2699631415
0.269963208
0.2699634231
0.2699642296
0.2699665596
0.2699716038
0.2699632188
0.2699631588
0.2699631898
0.2699631596
0.2699631872
0.2699631943
0.2699631764
0.2699632291
0.2699632154
0.2699632395
0.2699632837
0.2699633573
0.2699636387
0.2699643708
0.2699658372
0.2699630255
0.2699630366
0.2699630482
0.2699630333
0.269963041
0.2699630731
0.2699630674
0.2699630826
0.2699630638
0.2699630931
0.2699630984
0.2699631304
0.2699632448
0.2699635246
0.2699640938
0.2699634167
0.2699634043
0.2699633857
0.2699633975
0.2699634096
0.2699633877
0.2699634017
0.2699634042
0.2699634116
0.2699634206
0.2699634635
0.2699634653
0.2699635304
0.2699636842
0.2699625799
0.2699625656
0.2699625791
0.2699625982
0.269962562
0.2699625292
0.2699625283
0.2699625171
0.2699625095
0.2699625088
0.2699625086
0.2699625877
0.2699627238
0.2699630691
0.2699642683
0.269964264
0.2699642854
0.2699643
0.2699642841
0.2699642473
0.2699642376
0.2699642593
0.2699642783
0.2699643169
0.2699643771
0.2699644918
0.2699648153
0.2699658097
0.2699632458
0.2699632263
0.2699632008
0.2699631996
0.2699631863
0.2699632097
0.2699631663
0.2699631547
0.2699631809
0.2699632014
0.2699632289
0.2699634834
0.2699642745
0.2699666416
0.2699620631
0.2699620596
0.2699620919
0.2699621151
0.2699621079
0.2699620954
0.269962068
0.2699620616
0.2699620758
0.2699620676
0.2699621273
0.2699624705
0.2699637788
0.2699680249
0.2699632289
0.2699632694
0.2699632598
0.2699632631
0.2699632988
0.2699633111
0.2699633017
0.269963315
0.2699633285
0.2699633708
0.2699634307
0.269963671
0.2699644961
0.2699668358
0.2699630899
0.2699631043
0.2699630894
0.2699630686
0.2699630822
0.2699630693
0.2699630526
0.2699630684
0.2699630641
0.2699630324
0.2699631064
0.2699631785
0.2699635348
0.2699645308
0.2699624245
0.2699624256
0.2699624398
0.2699624249
0.2699624211
0.2699624743
0.2699624941
0.2699624341
0.26996243
0.2699624603
0.2699624822
0.2699625351
0.2699627408
0.2699630643
0.2699637298
0.2699636004
0.2699636017
0.2699635999
0.269963569
0.2699635481
0.2699635166
0.26996356
0.2699636001
0.2699636016
0.2699635866
0.2699635941
0.2699635858
0.2699636338
0.2699637658
0.2699640614
0.2699633585
0.2699633619
0.269963397
0.2699633475
0.2699633568
0.2699633328
0.269963376
0.2699633846
0.2699633785
0.2699633994
0.269963422
0.2699634084
0.2699634201
0.2699635264
0.269963815
0.2699637949
0.2699638395
0.269963849
0.2699638504
0.269963867
0.2699638405
0.2699638755
0.2699638912
0.2699639284
0.269963955
0.2699639971
0.2699640129
0.2699642049
0.2699620284
0.2699620535
0.2699620897
0.26996211
0.269962087
0.2699620784
0.2699621073
0.2699621133
0.2699621213
0.2699621269
0.2699621493
0.2699621798
0.2699623078
0.2699626979
0.2699622451
0.2699622848
0.2699623145
0.2699623334
0.2699623825
0.2699623725
0.2699623507
0.2699623471
0.2699623426
0.2699623447
0.2699624142
0.2699625616
0.2699628902
0.2699636106
0.2699624507
0.269962459
0.2699624482
0.2699624282
0.2699624332
0.2699624459
0.2699624733
0.2699624394
0.2699624799
0.2699624941
0.2699625278
0.2699627016
0.2699631276
0.2699641728
0.2699616285
0.2699616925
0.269961712
0.2699616937
0.2699616695
0.269961672
0.2699616656
0.2699616597
0.2699616955
0.2699617149
0.2699617341
0.2699618358
0.2699621366
0.2699629018
0.2699636257
0.2699636628
0.2699636568
0.2699637041
0.2699636855
0.26996372
0.2699637348
0.2699637352
0.2699637598
0.269963796
0.2699638337
0.2699638835
0.2699640189
0.2699643875
0.2699638755
0.2699638443
0.2699638702
0.2699638618
0.2699638501
0.2699638554
0.2699638342
0.2699638273
0.2699638205
0.2699638239
0.2699638261
0.2699638959
0.2699639678
0.2699641355
0.2699628008
0.2699627986
0.269962788
0.2699627924
0.2699628147
0.2699628236
0.2699628361
0.2699628272
0.2699628217
0.2699628144
0.2699628671
0.2699629033
0.2699629511
0.2699630396
0.269963199
0.2699637311
0.2699637255
0.2699637456
0.2699637626
0.2699637528
0.2699637479
0.2699637527
0.2699637311
0.2699637603
0.2699637507
0.2699637536
0.269963761
0.2699637935
0.2699638311
0.2699629744
0.2699629838
0.2699629718
0.2699629666
0.2699629933
0.2699629874
0.269962974
0.2699629598
0.2699629367
0.2699629349
0.2699629268
0.2699629262
0.2699629421
0.269963055
0.2699631534
0.2699631503
0.2699631243
0.2699631596
0.2699631431
0.2699631207
0.2699631401
0.2699631173
0.2699631207
0.2699631516
0.2699631425
0.2699631558
0.2699632586
0.2699634399
0.26996272
0.2699627125
0.2699627244
0.2699627106
0.269962703
0.2699627216
0.269962714
0.2699626465
0.2699626493
0.2699626369
0.269962697
0.2699627499
0.2699628552
0.2699631133
0.2699637949
0.2699638147
0.2699638148
0.2699638293
0.2699638321
0.2699638287
0.2699638051
0.2699638117
0.2699638285
0.2699638104
0.2699638155
0.2699638349
0.2699639599
0.269964325
0.2699631849
0.2699631794
0.26996317
0.269963141
0.269963152
0.2699631634
0.2699631937
0.2699632008
0.2699632389
0.2699632491
0.2699632438
0.2699632894
0.2699634197
0.2699636683
0.2699647802
0.269964767
0.2699647298
0.2699646998
0.2699646975
0.2699647059
0.2699646964
0.2699647437
0.2699646982
0.2699647163
0.2699647489
0.2699647982
0.2699648908
0.2699650809
0.2699629293
0.2699629295
0.269962947
0.2699629518
0.2699629524
0.2699629332
0.2699629159
0.2699629242
0.26996297
0.2699629845
0.2699629655
0.2699629911
0.2699630415
0.2699631256
0.2699626289
0.2699626438
0.2699626299
0.2699626394
0.2699626364
0.269962639
0.2699626314
0.2699626209
0.269962606
0.2699626212
0.2699626154
0.2699626136
0.2699626373
0.2699626801
)
;

boundaryField
{
    top
    {
        type            calculated;
        value           nonuniform List<scalar> 
134
(
0.2699632745
0.2699625345
0.2699635183
0.2699625457
0.2699632047
0.2699630255
0.2699636004
0.2699628008
0.2699626289
0.2699632933
0.2699625115
0.2699635364
0.2699625502
0.2699631962
0.2699630366
0.2699636017
0.2699627986
0.2699626438
0.2699632837
0.2699625231
0.2699635119
0.2699624942
0.2699632134
0.2699630482
0.2699635999
0.269962788
0.2699626299
0.2699632944
0.2699625133
0.2699635056
0.2699625194
0.2699632111
0.2699630333
0.269963569
0.2699627924
0.2699626394
0.2699632843
0.269962518
0.26996352
0.2699625158
0.2699632337
0.269963041
0.2699635481
0.2699628147
0.2699626364
0.2699632933
0.2699624849
0.2699635028
0.2699625356
0.2699632028
0.2699630731
0.2699635166
0.2699628236
0.269962639
0.2699632923
0.2699625392
0.2699635155
0.2699625334
0.2699631699
0.2699630674
0.26996356
0.2699628361
0.2699626314
0.2699633037
0.2699625823
0.2699634948
0.2699625753
0.2699631418
0.2699630826
0.2699636001
0.2699628272
0.2699626209
0.2699632648
0.2699625835
0.2699635147
0.2699625833
0.2699631693
0.2699630638
0.2699636016
0.2699628217
0.269962606
0.2699632809
0.2699625729
0.2699635285
0.2699625948
0.269963168
0.2699630931
0.2699635866
0.2699628144
0.2699626212
0.2699632643
0.2699626007
0.2699635365
0.2699626236
0.2699631932
0.2699630984
0.2699635941
0.2699628671
0.2699626154
0.2699632662
0.2699626237
0.2699635808
0.2699626549
0.2699632694
0.2699631304
0.2699635858
0.2699629033
0.2699626136
0.2699632635
0.2699627148
0.2699636148
0.2699627557
0.2699634198
0.2699632448
0.2699636338
0.2699629511
0.2699626373
0.2699633157
0.2699628258
0.2699638294
0.2699629909
0.2699637757
0.2699635246
0.2699637658
0.2699630396
0.2699626801
0.2699634093
0.269962978
0.2699641571
0.2699635322
0.2699644644
0.2699640938
0.2699640614
0.269963199
)
;
    }
    bottom
    {
        type            calculated;
        value           nonuniform List<scalar> 
127
(
0.2699631046
0.2699625245
0.2699634167
0.269964303
0.269963243
0.2699617024
0.2699634167
0.2699633585
0.2699637311
0.2699631005
0.2699625196
0.2699634101
0.2699642924
0.2699632363
0.2699616927
0.2699634043
0.2699633619
0.2699637255
0.269963096
0.2699625577
0.2699633936
0.2699643093
0.2699632178
0.2699616717
0.2699633857
0.269963397
0.2699637456
0.2699631007
0.2699625718
0.2699634133
0.2699643334
0.2699632335
0.2699616888
0.2699633975
0.2699633475
0.2699637626
0.2699630721
0.269962576
0.2699633825
0.2699643482
0.269963231
0.2699616718
0.2699634096
0.2699633568
0.2699637528
0.269963084
0.2699625822
0.2699633755
0.2699643108
0.2699632462
0.2699616914
0.2699633877
0.2699633328
0.2699637479
0.2699630879
0.2699625581
0.2699633592
0.2699642805
0.2699632598
0.2699617173
0.2699634017
0.269963376
0.2699637527
0.2699630975
0.2699625168
0.2699634035
0.2699642566
0.2699632701
0.2699617135
0.2699634042
0.2699633846
0.2699637311
0.2699630847
0.269962547
0.2699633975
0.269964285
0.2699633136
0.269961715
0.2699634116
0.2699633785
0.2699637603
0.2699630864
0.2699625574
0.269963387
0.2699643318
0.2699633292
0.269961719
0.2699634206
0.2699633994
0.2699637507
0.2699630965
0.2699626079
0.2699633814
0.2699643157
0.2699633373
0.2699617356
0.2699634635
0.269963422
0.2699637536
0.2699631007
0.2699626531
0.2699634199
0.2699643679
0.2699634482
0.2699618038
0.2699634653
0.2699634084
0.269963761
0.2699631151
0.2699626548
0.269963468
0.2699645135
0.2699635727
0.2699619355
0.2699635304
0.2699634201
0.2699637935
0.2699631702
0.2699627642
0.26996364
0.2699647917
0.2699639206
0.2699622304
0.2699636842
0.2699635264
0.2699638311
0.2699632578
)
;
    }
    side-walls
    {
        type            calculated;
        value           nonuniform List<scalar> 
261
(
0.2699631046
0.2699629556
0.2699638801
0.2699633323
0.2699633674
0.2699629225
0.2699635009
0.2699633543
0.2699632745
0.2699631005
0.2699629721
0.2699638903
0.2699633401
0.2699633431
0.269962917
0.2699635079
0.2699633534
0.2699632933
0.269963096
0.2699630096
0.2699638993
0.2699633651
0.269963374
0.2699629569
0.2699635001
0.269963395
0.2699632837
0.2699631007
0.2699630095
0.2699639331
0.2699633344
0.2699633248
0.2699629293
0.269963496
0.2699633911
0.2699632944
0.2699630721
0.2699629813
0.2699639239
0.2699633014
0.2699633142
0.2699629067
0.2699635365
0.2699633901
0.2699632843
0.269963084
0.2699630121
0.2699639151
0.2699633318
0.2699633171
0.2699628747
0.2699635389
0.2699633962
0.2699632933
0.2699630879
0.2699630136
0.2699638665
0.269963341
0.2699633219
0.2699628701
0.2699635464
0.2699634125
0.2699632923
0.2699630975
0.2699630112
0.2699638878
0.2699633633
0.2699633183
0.2699628896
0.2699635182
0.2699633699
0.2699633037
0.2699630847
0.2699629826
0.2699638727
0.2699633509
0.2699633153
0.2699628832
0.2699635038
0.2699634144
0.2699632648
0.2699630864
0.2699629749
0.269963869
0.2699633334
0.2699633128
0.269962889
0.2699635134
0.2699633886
0.2699632809
0.2699630965
0.2699629594
0.269963886
0.26996335
0.2699633511
0.2699629069
0.2699635199
0.2699633953
0.2699632643
0.2699631007
0.2699629555
0.2699638967
0.2699634053
0.2699633985
0.2699629214
0.2699635714
0.2699633826
0.2699632662
0.2699631151
0.2699629556
0.2699639653
0.2699635208
0.2699635229
0.269963057
0.2699636038
0.2699634839
0.2699632635
0.2699631702
0.2699630152
0.2699641306
0.269963798
0.2699638709
0.2699633042
0.2699637402
0.2699635876
0.2699633157
0.2699632578
0.2699631854
0.2699644051
0.2699642752
0.2699645571
0.2699638597
0.2699640225
0.2699637112
0.2699634093
0.2699637311
0.2699629744
0.2699631534
0.26996272
0.2699637949
0.2699631849
0.2699647802
0.2699629293
0.2699626289
0.2699637255
0.2699629838
0.2699631503
0.2699627125
0.2699638147
0.2699631794
0.269964767
0.2699629295
0.2699626438
0.2699637456
0.2699629718
0.2699631243
0.2699627244
0.2699638148
0.26996317
0.2699647298
0.269962947
0.2699626299
0.2699637626
0.2699629666
0.2699631596
0.2699627106
0.2699638293
0.269963141
0.2699646998
0.2699629518
0.2699626394
0.2699637528
0.2699629933
0.2699631431
0.269962703
0.2699638321
0.269963152
0.2699646975
0.2699629524
0.2699626364
0.2699637479
0.2699629874
0.2699631207
0.2699627216
0.2699638287
0.2699631634
0.2699647059
0.2699629332
0.269962639
0.2699637527
0.269962974
0.2699631401
0.269962714
0.2699638051
0.2699631937
0.2699646964
0.2699629159
0.2699626314
0.2699637311
0.2699629598
0.2699631173
0.2699626465
0.2699638117
0.2699632008
0.2699647437
0.2699629242
0.2699626209
0.2699637603
0.2699629367
0.2699631207
0.2699626493
0.2699638285
0.2699632389
0.2699646982
0.26996297
0.269962606
0.2699637507
0.2699629349
0.2699631516
0.2699626369
0.2699638104
0.2699632491
0.2699647163
0.2699629845
0.2699626212
0.2699637536
0.2699629268
0.2699631425
0.269962697
0.2699638155
0.2699632438
0.2699647489
0.2699629655
0.2699626154
0.269963761
0.2699629262
0.2699631558
0.2699627499
0.2699638349
0.2699632894
0.2699647982
0.2699629911
0.2699626136
0.2699637935
0.2699629421
0.2699632586
0.2699628552
0.2699639599
0.2699634197
0.2699648908
0.2699630415
0.2699626373
0.2699638311
0.269963055
0.2699634399
0.2699631133
0.269964325
0.2699636683
0.2699650809
0.2699631256
0.2699626801
)
;
    }
    inlet
    {
        type            calculated;
        value           nonuniform List<scalar> 
81
(
0.2699631046
0.2699629556
0.2699638801
0.2699633323
0.2699633674
0.2699629225
0.2699635009
0.2699633543
0.2699632745
0.2699625245
0.2699631208
0.2699624055
0.2699634159
0.2699621547
0.269962643
0.2699631724
0.2699629264
0.2699625345
0.2699634167
0.2699630797
0.2699625978
0.2699635838
0.2699623708
0.2699639169
0.2699647717
0.2699619274
0.2699635183
0.269964303
0.2699619592
0.2699622029
0.2699606403
0.269962999
0.2699648635
0.2699619136
0.2699638393
0.2699625457
0.269963243
0.2699623087
0.2699627611
0.2699627528
0.2699629616
0.2699635086
0.2699638114
0.2699638583
0.2699632047
0.2699617024
0.2699628755
0.2699631961
0.2699629934
0.2699624194
0.2699621894
0.2699630715
0.2699632188
0.2699630255
0.2699634167
0.2699625799
0.2699642683
0.2699632458
0.2699620631
0.2699632289
0.2699630899
0.2699624245
0.2699636004
0.2699633585
0.269963815
0.2699620284
0.2699622451
0.2699624507
0.2699616285
0.2699636257
0.2699638755
0.2699628008
0.2699637311
0.2699629744
0.2699631534
0.26996272
0.2699637949
0.2699631849
0.2699647802
0.2699629293
0.2699626289
)
;
    }
    outlet
    {
        type            calculated;
        value           nonuniform 0();
    }
    procBoundary0to1
    {
        type            processor;
        value           nonuniform List<scalar> 
97
(
0.2699634354
0.2699629434
0.2699634606
0.2699648912
0.2699651221
0.2699655721
0.2699646692
0.2699644813
0.2699639869
0.2699635617
0.2699629434
0.2699629434
0.2699641561
0.2699644047
0.2699646481
0.2699679848
0.2699688676
0.2699671501
0.2699655514
0.2699639595
0.2699632275
0.2699640193
0.2699644047
0.2699644047
0.2699685783
0.269970648
0.2699776441
0.2699865077
0.2699779516
0.2699707133
0.2699643451
0.2699645922
0.269965324
0.2699646036
0.269970648
0.269970648
0.2700015211
0.2700468882
0.2700560969
0.2700055891
0.2699759181
0.2699684197
0.2699643529
0.2699645905
0.2699661938
0.2699793355
0.2700468882
0.2700468882
0.2713326331
0.2700466725
0.2700564926
0.2699907763
0.2699878912
0.2699703927
0.2699654865
0.2699627245
0.2699656476
0.2699715624
0.2699915411
0.2700466725
0.2699907763
0.2699907763
0.2699769726
0.2699664788
0.269967747
0.2699649246
0.2699640068
0.2699637867
0.2699677633
0.2699716732
0.2699784386
0.2699718596
0.2699664788
0.2699664788
0.2699647461
0.269964438
0.2699645525
0.2699637124
0.269964532
0.2699633918
0.2699650714
0.2699664287
0.2699643416
0.2699650702
0.269964438
0.269964438
0.2699634601
0.2699627925
0.2699639256
0.2699632222
0.2699637477
0.2699636426
0.2699650551
0.2699641814
0.2699653743
0.269963264
0.2699627925
)
;
    }
}


// ************************************************************************* //
