/*--------------------------------*- C++ -*----------------------------------*\
| =========                 |                                                 |
| \\      /  F ield         | OpenFOAM: The Open Source CFD Toolbox           |
|  \\    /   O peration     | Version:  4.x                                   |
|   \\  /    A nd           | Web:      www.OpenFOAM.org                      |
|    \\/     M anipulation  |                                                 |
\*---------------------------------------------------------------------------*/
FoamFile
{
    version     2.0;
    format      ascii;
    class       volScalarField;
    location    "7000";
    object      T;
}
// * * * * * * * * * * * * * * * * * * * * * * * * * * * * * * * * * * * * * //

dimensions      [0 0 0 1 0 0 0];

internalField   nonuniform List<scalar> 
1175
(
1223.150201
1223.150219
1223.15024
1223.150219
1223.150348
1223.150294
1223.150277
1223.150234
1223.150295
1223.150294
1223.150269
1223.150303
1223.150365
1223.150392
1223.150533
1223.150876
1223.150801
1223.150631
1223.150632
1223.15076
1223.15062
1223.150613
1223.150625
1223.150758
1223.150804
1223.150906
1223.151009
1223.15122
1223.151421
1223.151564
1223.146687
1223.146641
1223.1466
1223.146447
1223.146489
1223.146529
1223.146749
1223.146654
1223.146728
1223.146763
1223.14674
1223.146844
1223.146928
1223.147082
1223.147596
1223.149169
1223.149134
1223.149021
1223.14916
1223.149309
1223.149172
1223.14913
1223.149032
1223.149095
1223.149201
1223.149207
1223.149198
1223.14933
1223.149621
1223.150489
1223.14901
1223.14912
1223.14898
1223.149203
1223.149251
1223.149238
1223.149217
1223.149236
1223.149258
1223.1493
1223.149224
1223.149306
1223.149572
1223.150015
1223.15091
1223.151026
1223.151051
1223.15087
1223.150995
1223.151097
1223.151243
1223.151264
1223.151178
1223.151214
1223.151214
1223.151214
1223.151391
1223.151431
1223.151859
1223.152371
1223.148405
1223.148373
1223.148409
1223.148427
1223.148244
1223.148233
1223.1482
1223.148329
1223.1484
1223.148374
1223.148398
1223.148317
1223.148566
1223.148851
1223.149329
1223.149069
1223.149074
1223.148885
1223.148903
1223.148907
1223.14888
1223.148806
1223.149
1223.148802
1223.14893
1223.148931
1223.149074
1223.148827
1223.148828
1223.149182
1223.149431
1223.149346
1223.149389
1223.149341
1223.149387
1223.149346
1223.149351
1223.1493
1223.149479
1223.149413
1223.149508
1223.149553
1223.149692
1223.149733
1223.149846
1223.152829
1223.152852
1223.152679
1223.152615
1223.152596
1223.152568
1223.152677
1223.152865
1223.152732
1223.152696
1223.152499
1223.152379
1223.152583
1223.152558
1223.150128
1223.150136
1223.15038
1223.150272
1223.150294
1223.150289
1223.15028
1223.150159
1223.150268
1223.150142
1223.150155
1223.150231
1223.150357
1223.15048
1223.150968
1223.153368
1223.153314
1223.153235
1223.153416
1223.153508
1223.153482
1223.153508
1223.153524
1223.153513
1223.153428
1223.153479
1223.153481
1223.153993
1223.154364
1223.155326
1223.14879
1223.148689
1223.148637
1223.148624
1223.148599
1223.148708
1223.148854
1223.148699
1223.14879
1223.148831
1223.148744
1223.148841
1223.149197
1223.149978
1223.151787
1223.154505
1223.154408
1223.154296
1223.15421
1223.154154
1223.154067
1223.153924
1223.153746
1223.153843
1223.153804
1223.153927
1223.154096
1223.154501
1223.155752
1223.158418
1223.152292
1223.152313
1223.152224
1223.15232
1223.152326
1223.152232
1223.152205
1223.1524
1223.152381
1223.1526
1223.152534
1223.152686
1223.152939
1223.153709
1223.155436
1223.149894
1223.149863
1223.149812
1223.149532
1223.149572
1223.149658
1223.149867
1223.149726
1223.149606
1223.149454
1223.149488
1223.149513
1223.14981
1223.150142
1223.15091
1223.151008
1223.151294
1223.151264
1223.15131
1223.151326
1223.151208
1223.151217
1223.151156
1223.151286
1223.151229
1223.151162
1223.151307
1223.151221
1223.15169
1223.151949
1223.152784
1223.152888
1223.152836
1223.15288
1223.152859
1223.153009
1223.152763
1223.152569
1223.152567
1223.152626
1223.152531
1223.152512
1223.152311
1223.152279
1223.152504
1223.148787
1223.148817
1223.148891
1223.148802
1223.148942
1223.148974
1223.149048
1223.148849
1223.148881
1223.148947
1223.149026
1223.149004
1223.149181
1223.149305
1223.150314
1223.150254
1223.150121
1223.150131
1223.150054
1223.150098
1223.150044
1223.150147
1223.150277
1223.150323
1223.150331
1223.1504
1223.150406
1223.150735
1223.152497
1223.152472
1223.152543
1223.152607
1223.152449
1223.152471
1223.152714
1223.152775
1223.152679
1223.152738
1223.15284
1223.152884
1223.153434
1223.154397
1223.156693
1223.14803
1223.148058
1223.147958
1223.147768
1223.147931
1223.147931
1223.147985
1223.147905
1223.147987
1223.147917
1223.147863
1223.148088
1223.148874
1223.151622
1223.157794
1223.153525
1223.153618
1223.153356
1223.153391
1223.153415
1223.153522
1223.153664
1223.1537
1223.153581
1223.153693
1223.153988
1223.154387
1223.155987
1223.161068
1223.173463
1223.146521
1223.146391
1223.14627
1223.146159
1223.146244
1223.146163
1223.146089
1223.146151
1223.146158
1223.146253
1223.146375
1223.146755
1223.147691
1223.150395
1223.156311
1223.142648
1223.142567
1223.142706
1223.142753
1223.142878
1223.142965
1223.143115
1223.143077
1223.143017
1223.143048
1223.142915
1223.143043
1223.143471
1223.14457
1223.146885
1223.155535
1223.155476
1223.155425
1223.155494
1223.155378
1223.155303
1223.155116
1223.155183
1223.155151
1223.155395
1223.155439
1223.155259
1223.155477
1223.155622
1223.156523
1223.148326
1223.148244
1223.148355
1223.148384
1223.148319
1223.148397
1223.14834
1223.148435
1223.148351
1223.148305
1223.148323
1223.148275
1223.148516
1223.148447
1223.148719
1223.144771
1223.144819
1223.144742
1223.144633
1223.144566
1223.144736
1223.144874
1223.144984
1223.144863
1223.144677
1223.144832
1223.144837
1223.144832
1223.145119
1223.15539
1223.155403
1223.155459
1223.155438
1223.155317
1223.155436
1223.155481
1223.155594
1223.155401
1223.155286
1223.155408
1223.155525
1223.15567
1223.15652
1223.154286
1223.154172
1223.154127
1223.153991
1223.154114
1223.154219
1223.154376
1223.154219
1223.154365
1223.154363
1223.154316
1223.154804
1223.155982
1223.158825
1223.161366
1223.161306
1223.161271
1223.161265
1223.161144
1223.161007
1223.160834
1223.160947
1223.161084
1223.161064
1223.161192
1223.161947
1223.164498
1223.173236
1223.195323
1223.150679
1223.150784
1223.150731
1223.150617
1223.150619
1223.15073
1223.150861
1223.150814
1223.150866
1223.15104
1223.151135
1223.152056
1223.157014
1223.178439
1223.248234
1223.142232
1223.142442
1223.14255
1223.142476
1223.142543
1223.142622
1223.142518
1223.142636
1223.142579
1223.142757
1223.142741
1223.143522
1223.146017
1223.154887
1223.17704
1223.155597
1223.155542
1223.155414
1223.155534
1223.155492
1223.155511
1223.155619
1223.155758
1223.155573
1223.155655
1223.15552
1223.155518
1223.156712
1223.159609
1223.165705
1223.146872
1223.147042
1223.146953
1223.147005
1223.146837
1223.147
1223.147032
1223.146884
1223.146763
1223.146843
1223.146871
1223.14691
1223.14707
1223.14806
1223.149743
1223.152733
1223.152713
1223.152967
1223.152852
1223.152869
1223.152779
1223.15279
1223.152602
1223.152573
1223.152547
1223.152498
1223.152599
1223.152796
1223.153278
1223.153855
1223.149574
1223.149604
1223.149688
1223.149617
1223.149628
1223.14956
1223.149499
1223.149454
1223.149266
1223.149226
1223.149286
1223.149081
1223.149346
1223.14979
1223.153807
1223.15383
1223.15385
1223.154052
1223.154058
1223.15396
1223.153956
1223.154026
1223.154144
1223.15415
1223.154254
1223.154568
1223.154935
1223.15597
1223.151757
1223.151857
1223.151727
1223.15155
1223.151667
1223.151788
1223.151772
1223.151732
1223.151519
1223.151506
1223.151536
1223.152034
1223.15341
1223.158621
1223.151795
1223.151853
1223.151842
1223.152036
1223.15192
1223.151931
1223.151812
1223.151783
1223.151749
1223.15179
1223.152105
1223.153297
1223.158449
1223.179832
1223.150849
1223.150887
1223.150671
1223.150782
1223.150764
1223.150862
1223.15098
1223.150989
1223.150973
1223.151114
1223.151209
1223.153314
1223.165677
1223.24427
1219.036687
1223.14837
1223.14825
1223.148252
1223.14838
1223.148341
1223.148558
1223.148751
1223.148771
1223.148767
1223.148874
1223.149052
1223.15029
1223.155426
1223.176695
1223.246459
1223.146999
1223.146974
1223.147035
1223.147168
1223.147049
1223.146887
1223.146985
1223.147137
1223.147118
1223.14713
1223.147314
1223.147815
1223.149603
1223.154757
1223.167216
1223.146786
1223.146737
1223.146635
1223.146577
1223.146562
1223.146759
1223.146585
1223.146722
1223.146685
1223.14683
1223.146883
1223.147027
1223.147528
1223.148767
1223.151562
1223.149747
1223.149786
1223.149708
1223.149718
1223.149616
1223.149756
1223.149906
1223.150036
1223.14992
1223.149956
1223.149939
1223.149891
1223.150039
1223.150447
1223.15133
1223.156554
1223.156598
1223.156693
1223.156615
1223.156693
1223.156604
1223.156487
1223.156507
1223.156508
1223.156515
1223.156521
1223.156455
1223.156512
1223.156724
1223.151239
1223.151144
1223.151007
1223.150916
1223.150837
1223.150783
1223.150689
1223.150731
1223.150789
1223.150702
1223.150523
1223.150568
1223.15086
1223.151791
1223.149786
1223.149834
1223.149816
1223.14984
1223.15006
1223.150111
1223.150217
1223.150328
1223.150209
1223.150295
1223.150482
1223.150697
1223.151851
1223.154636
1223.150704
1223.150748
1223.150634
1223.150759
1223.150588
1223.150678
1223.150713
1223.150807
1223.150707
1223.150989
1223.151164
1223.151723
1223.15438
1223.16316
1223.153305
1223.153259
1223.153314
1223.153364
1223.153226
1223.153509
1223.153276
1223.153139
1223.15301
1223.153102
1223.153245
1223.154409
1223.159437
1223.180888
1223.154348
1223.154453
1223.154303
1223.15438
1223.154406
1223.154627
1223.154636
1223.154569
1223.154584
1223.154459
1223.154715
1223.155348
1223.157715
1223.166555
1223.150351
1223.150371
1223.150485
1223.150264
1223.150536
1223.150572
1223.15039
1223.150271
1223.150394
1223.150167
1223.150249
1223.150669
1223.151679
1223.154552
1223.160625
1223.149683
1223.149955
1223.149815
1223.149952
1223.149827
1223.149795
1223.149877
1223.149642
1223.149717
1223.149655
1223.149621
1223.149828
1223.150157
1223.150955
1223.152592
1223.150559
1223.150509
1223.150456
1223.150524
1223.150489
1223.150344
1223.15037
1223.150303
1223.150396
1223.150289
1223.150347
1223.150444
1223.15058
1223.15086
1223.15131
1223.148787
1223.148843
1223.148927
1223.148874
1223.148819
1223.148918
1223.148856
1223.148845
1223.148818
1223.148794
1223.148654
1223.148798
1223.148898
1223.149105
1223.152578
1223.152643
1223.152582
1223.152495
1223.152659
1223.152808
1223.152813
1223.152866
1223.152909
1223.152943
1223.153044
1223.152991
1223.153222
1223.153704
1223.144928
1223.144948
1223.144851
1223.144785
1223.144857
1223.145024
1223.145069
1223.144975
1223.144905
1223.144789
1223.144725
1223.144902
1223.145544
1223.146519
1223.149561
1223.149649
1223.149765
1223.14977
1223.149831
1223.149725
1223.149923
1223.149982
1223.149889
1223.149896
1223.150154
1223.150396
1223.151475
1223.154181
1223.15492
1223.154935
1223.154789
1223.154684
1223.154717
1223.154774
1223.1549
1223.154936
1223.154903
1223.155067
1223.155313
1223.155787
1223.157355
1223.162579
1223.149638
1223.149454
1223.149498
1223.149483
1223.149321
1223.149265
1223.14931
1223.149256
1223.14922
1223.149128
1223.14924
1223.149546
1223.150471
1223.153301
1223.150267
1223.150202
1223.15027
1223.150364
1223.150302
1223.150361
1223.150438
1223.150371
1223.150406
1223.150609
1223.150482
1223.150853
1223.151346
1223.152314
1223.153282
1223.153277
1223.153213
1223.153281
1223.153298
1223.153057
1223.152968
1223.153242
1223.15327
1223.153163
1223.153164
1223.153229
1223.153145
1223.153726
1223.154732
1223.147955
1223.147949
1223.147957
1223.148096
1223.148192
1223.148334
1223.148138
1223.147958
1223.147957
1223.148042
1223.148062
1223.148252
1223.14843
1223.148735
1223.149153
1223.14905
1223.149035
1223.148876
1223.1491
1223.149058
1223.149167
1223.148971
1223.148934
1223.148965
1223.148881
1223.14881
1223.148957
1223.149116
1223.149105
1223.146982
1223.147073
1223.146871
1223.146828
1223.146822
1223.146747
1223.146867
1223.14671
1223.146644
1223.146493
1223.146426
1223.146387
1223.146713
1223.146756
1223.155077
1223.154963
1223.154799
1223.154707
1223.154811
1223.15485
1223.15472
1223.154695
1223.154668
1223.154673
1223.154672
1223.154839
1223.155107
1223.155386
1223.154095
1223.153915
1223.153781
1223.153695
1223.153472
1223.153518
1223.153618
1223.153638
1223.153671
1223.15371
1223.15356
1223.153433
1223.153549
1223.154399
1223.153164
1223.153126
1223.153175
1223.153265
1223.153243
1223.153185
1223.153063
1223.15322
1223.153052
1223.153046
1223.153102
1223.153028
1223.153346
1223.154766
1223.156889
1223.156599
1223.15651
1223.156593
1223.156703
1223.156692
1223.156722
1223.156752
1223.156603
1223.156563
1223.156642
1223.156721
1223.156963
1223.157611
1223.14784
1223.147672
1223.147699
1223.147485
1223.147569
1223.147413
1223.147346
1223.147347
1223.147244
1223.147111
1223.14704
1223.14712
1223.147354
1223.14773
1223.146708
1223.146849
1223.146732
1223.14677
1223.146823
1223.146799
1223.146896
1223.146929
1223.146965
1223.146967
1223.14701
1223.146846
1223.146917
1223.147071
1223.151577
1223.151587
1223.151635
1223.151616
1223.151514
1223.151474
1223.151418
1223.151459
1223.151487
1223.151531
1223.151324
1223.151245
1223.151241
1223.151311
1223.151503
1223.147362
1223.147387
1223.147297
1223.14722
1223.147264
1223.147286
1223.147265
1223.147363
1223.147233
1223.147284
1223.147291
1223.147311
1223.147291
1223.147398
1223.150791
1223.150748
1223.150803
1223.150826
1223.150705
1223.150732
1223.150793
1223.150859
1223.150967
1223.150986
1223.151054
1223.151142
1223.151282
1223.151241
1223.14998
1223.149994
1223.150112
1223.149952
1223.150026
1223.150128
1223.15004
1223.150146
1223.150136
1223.150013
1223.150108
1223.1502
1223.15013
1223.150212
1223.151943
1223.151977
1223.151923
1223.151986
1223.15202
1223.151936
1223.151971
1223.152279
1223.152275
1223.152356
1223.152166
1223.152168
1223.152345
1223.152723
1223.147073
1223.146983
1223.146983
1223.146917
1223.146905
1223.14692
1223.147028
1223.147001
1223.146933
1223.147045
1223.147119
1223.147329
1223.147591
1223.147958
1223.149837
1223.149862
1223.149905
1223.150036
1223.149986
1223.149935
1223.149798
1223.149768
1223.149603
1223.149582
1223.149688
1223.149724
1223.149788
1223.150209
1223.142609
1223.142669
1223.142838
1223.142973
1223.142984
1223.142946
1223.142989
1223.142777
1223.142988
1223.142924
1223.14283
1223.142759
1223.142734
1223.142777
1223.150995
1223.150994
1223.150915
1223.150893
1223.150891
1223.150977
1223.151056
1223.15102
1223.150816
1223.150761
1223.150878
1223.150848
1223.150831
1223.150921
1223.152356
1223.152289
1223.152351
1223.152309
1223.152322
1223.152311
1223.152345
1223.152394
1223.152463
1223.152402
1223.152448
1223.15251
1223.152529
1223.152612
)
;

boundaryField
{
    top
    {
        type            zeroGradient;
    }
    bottom
    {
        type            zeroGradient;
    }
    side-walls
    {
        type            zeroGradient;
    }
    inlet
    {
        type            zeroGradient;
    }
    outlet
    {
        type            zeroGradient;
    }
    procBoundary0to1
    {
        type            processor;
        value           nonuniform List<scalar> 
97
(
1223.150652
1223.152661
1223.151844
1223.148217
1223.151292
1223.152145
1223.153344
1223.150074
1223.14946
1223.15008
1223.152661
1223.152661
1223.15159
1223.151674
1223.156555
1223.154013
1223.161649
1223.157795
1223.152462
1223.152481
1223.152901
1223.149344
1223.151674
1223.151674
1223.159647
1223.164957
1223.16423
1223.182648
1223.162836
1223.149973
1223.157928
1223.149571
1223.145737
1223.158181
1223.164957
1223.164957
1223.20997
1223.249607
1223.258512
1223.191529
1223.172048
1223.152043
1223.154777
1223.150758
1223.158552
1223.170993
1223.249607
1223.249607
1218.753067
1223.250583
1223.256719
1223.188584
1223.176379
1223.154739
1223.152533
1223.157515
1223.153451
1223.16081
1223.185118
1223.250583
1223.188584
1223.188584
1223.167274
1223.154564
1223.155091
1223.152187
1223.1494
1223.154474
1223.148743
1223.160308
1223.175056
1223.159464
1223.154564
1223.154564
1223.156111
1223.147479
1223.149751
1223.149177
1223.147053
1223.156263
1223.156062
1223.157487
1223.159368
1223.148658
1223.147479
1223.147479
1223.151847
1223.152641
1223.147507
1223.151398
1223.150574
1223.153355
1223.148653
1223.150914
1223.143204
1223.151208
1223.152641
)
;
    }
}


// ************************************************************************* //
