/*--------------------------------*- C++ -*----------------------------------*\
| =========                 |                                                 |
| \\      /  F ield         | OpenFOAM: The Open Source CFD Toolbox           |
|  \\    /   O peration     | Version:  4.x                                   |
|   \\  /    A nd           | Web:      www.OpenFOAM.org                      |
|    \\/     M anipulation  |                                                 |
\*---------------------------------------------------------------------------*/
FoamFile
{
    version     2.0;
    format      ascii;
    class       volVectorField;
    location    "7000";
    object      U;
}
// * * * * * * * * * * * * * * * * * * * * * * * * * * * * * * * * * * * * * //

dimensions      [0 1 -1 0 0 0 0];

internalField   nonuniform List<vector> 
1175
(
(0.01099999989 2.424156506e-09 7.810394819e-11)
(0.01100000236 1.860925236e-09 -2.428844355e-10)
(0.01100000033 1.921390977e-09 -3.982887666e-10)
(0.01100000031 -2.105632812e-09 8.900266489e-10)
(0.01100000247 -1.626671866e-09 -6.318013732e-10)
(0.01100000422 -1.083600211e-09 1.051240351e-09)
(0.01100000515 -1.383588524e-09 -7.546763197e-10)
(0.01100000747 -2.710372681e-09 -1.90481822e-09)
(0.01100001842 -2.765008833e-09 -5.087707091e-09)
(0.01100002805 -2.8185408e-09 -7.053927719e-09)
(0.01100004139 -5.856957871e-09 -7.49716852e-09)
(0.01100006195 -6.532425476e-09 -9.040730083e-09)
(0.0110001055 -1.225655631e-08 -1.291710305e-08)
(0.01100013967 -1.146471879e-08 -1.306895319e-08)
(0.01100020661 -2.160150401e-08 -2.119051824e-08)
(0.01100000002 -3.791003205e-10 -2.802252603e-10)
(0.01100000002 5.10392374e-10 -1.345380141e-09)
(0.01099999961 -6.620762503e-10 -2.310281065e-09)
(0.01099999851 8.644045459e-10 -2.102091915e-09)
(0.01100000079 -1.034021057e-09 -1.39591135e-09)
(0.01100000116 -6.563065463e-10 -1.115429588e-10)
(0.01100000406 -3.041605493e-09 -1.755395487e-09)
(0.01100000486 -4.204524145e-09 -1.70215968e-09)
(0.01100001496 -5.702108364e-09 -1.248379919e-09)
(0.01100002051 -9.180511349e-09 -3.836116979e-09)
(0.01100003879 -1.508695047e-08 -6.766724265e-09)
(0.0110000551 -2.305020803e-08 -1.126659264e-08)
(0.01100009809 -3.703100166e-08 -1.2849774e-08)
(0.01100012635 -3.966060586e-08 -1.342413443e-08)
(0.01100020562 -7.864058209e-08 -3.108783848e-08)
(0.0110000009 1.275367632e-09 -4.991711718e-10)
(0.01100000109 2.050590708e-09 -2.488677795e-10)
(0.01100000105 5.580945327e-10 1.135165905e-09)
(0.01099999956 1.484587791e-09 -1.051382345e-10)
(0.01099999807 2.653940178e-10 -1.809034391e-09)
(0.01099999956 -3.196078321e-10 -2.896216058e-09)
(0.01100000324 -3.060680105e-09 1.102183186e-09)
(0.01100000192 -5.567192606e-09 -3.067775459e-09)
(0.01100000994 -6.890222313e-09 -5.945808901e-09)
(0.01100001337 -1.289051802e-08 -6.130269017e-09)
(0.0110000265 -1.874783503e-08 -9.984778049e-09)
(0.01100003564 -2.796362876e-08 -1.440743844e-08)
(0.01100008259 -4.12032549e-08 -2.043812706e-08)
(0.01100009288 -4.341816988e-08 -2.480037193e-08)
(0.01100020044 -9.632359293e-08 -6.552714023e-08)
(0.0110000005 1.665125694e-10 -4.651294474e-10)
(0.01099999907 3.476178746e-11 1.869409728e-09)
(0.01099999707 5.08576434e-10 -2.784668e-10)
(0.01100000085 -1.171016793e-09 -2.013443016e-09)
(0.01099999851 -8.022060049e-10 -1.296715811e-09)
(0.01100000084 -2.11787358e-09 -9.614089823e-10)
(0.01100000206 -9.887219723e-10 -4.272514343e-10)
(0.01100000024 -1.730580074e-09 -3.026006745e-09)
(0.01100000423 -3.727351511e-09 -3.659613579e-09)
(0.01100001141 -1.011346596e-08 -6.904012548e-09)
(0.01100002066 -1.637760403e-08 -8.181913253e-09)
(0.01100002699 -2.849914522e-08 -1.616114332e-08)
(0.01100007665 -5.018534662e-08 -2.332070776e-08)
(0.01100006668 -6.874236716e-08 -2.542618044e-08)
(0.01100021141 -1.492582452e-07 -8.568894915e-08)
(0.01099999994 -9.389937966e-10 -1.765486986e-09)
(0.01100000231 -1.496444613e-09 -1.710067485e-10)
(0.01099999765 -2.210725343e-09 1.702955451e-10)
(0.01099999999 -2.665528863e-09 -1.341808648e-09)
(0.01099999767 -9.583388269e-10 -9.102617091e-10)
(0.01099999909 1.356790161e-10 -2.304473645e-09)
(0.01100000055 1.189468993e-09 -2.706078525e-09)
(0.01099999714 9.695084173e-10 -5.796161467e-09)
(0.01099999973 2.027578317e-09 -5.065529719e-09)
(0.01100000103 2.153984172e-09 -8.364447922e-09)
(0.01100000571 1.202750139e-09 -1.48681196e-08)
(0.01099999772 2.099270314e-09 -3.013644142e-08)
(0.01100003673 9.032033052e-10 -4.371476506e-08)
(0.01099999402 5.939856102e-10 -7.225635231e-08)
(0.01100021823 2.308483607e-09 -2.098983732e-07)
(0.01100000069 -5.512100758e-10 -6.833430154e-10)
(0.01100000027 -9.826858936e-11 2.058240136e-10)
(0.0109999969 8.402658776e-10 4.9018962e-10)
(0.01099999861 8.38418107e-10 8.750032931e-10)
(0.01100000044 2.370245951e-09 1.428110828e-11)
(0.01100000142 1.494948662e-09 -1.024428683e-09)
(0.01100000122 2.449071815e-09 7.071656998e-10)
(0.0110000008 5.091228734e-09 -3.485337496e-09)
(0.01100000564 6.448653401e-09 -5.509761603e-09)
(0.01100000708 1.286477653e-08 -7.711194284e-09)
(0.01100001959 1.861906585e-08 -8.282297778e-09)
(0.01100002872 3.068225152e-08 -1.651542744e-08)
(0.01100007481 5.314139815e-08 -2.104412927e-08)
(0.01100007163 6.95863182e-08 -2.471683823e-08)
(0.01100020767 1.51153485e-07 -8.524109938e-08)
(0.01099999956 -2.78016345e-10 -3.886395356e-10)
(0.01100000068 -1.40082493e-09 1.465868113e-10)
(0.01100000015 -3.640086248e-11 2.997799254e-10)
(0.01100000193 8.975615405e-10 5.240576253e-10)
(0.01099999937 9.298062255e-10 -4.799335683e-10)
(0.01100000163 2.179562925e-09 -1.664340683e-09)
(0.01100000212 3.436972788e-09 -2.13769155e-09)
(0.01100000515 5.410002109e-09 -3.647586795e-09)
(0.0110000087 7.179554201e-09 -1.777175239e-09)
(0.01100001441 1.165238365e-08 -4.530491458e-09)
(0.01100002712 1.850869623e-08 -7.305793265e-09)
(0.01100003511 2.795813128e-08 -1.395448684e-08)
(0.01100007929 4.109027463e-08 -2.133367771e-08)
(0.0110000915 4.453199945e-08 -2.297655901e-08)
(0.01100020001 9.528114394e-08 -6.408899464e-08)
(0.01099999917 3.583464744e-10 3.349987451e-10)
(0.01100000073 1.800755137e-09 2.589322666e-09)
(0.0110000001 1.887745765e-09 -2.079648346e-11)
(0.01100000092 9.478708987e-10 -3.061602226e-09)
(0.01100000153 1.135768703e-10 -1.644597104e-09)
(0.01100000112 1.601754413e-09 4.084018295e-10)
(0.01100000345 2.052882052e-09 -5.685469575e-10)
(0.01100000853 3.852460547e-09 -1.782992252e-09)
(0.01100001443 8.075549089e-09 -2.273016578e-09)
(0.01100002019 1.114963586e-08 -2.679093747e-09)
(0.01100003633 1.703937733e-08 -4.129872244e-09)
(0.0110000563 2.263718568e-08 -8.066356528e-09)
(0.01100009569 3.721550756e-08 -1.586414745e-08)
(0.01100012335 4.075016256e-08 -1.320411715e-08)
(0.01100020513 7.799967224e-08 -3.069623213e-08)
(0.01100000092 2.35065489e-10 7.554274015e-10)
(0.01100000103 7.07458498e-10 -3.893242416e-09)
(0.01100000082 1.055194378e-10 -4.496365088e-09)
(0.01100000045 3.96637538e-10 -2.264411718e-09)
(0.01100000054 1.152552146e-09 1.592679722e-09)
(0.01100000445 -1.991123778e-10 -4.439350605e-10)
(0.01100000533 -2.455578717e-10 1.822547233e-09)
(0.01100000933 2.782189064e-09 -6.505557791e-10)
(0.01100001756 1.563541604e-09 -3.252587714e-09)
(0.01100002308 2.561877708e-09 -2.682561779e-10)
(0.01100004384 6.116881671e-09 -5.727071463e-09)
(0.01100006099 9.244008454e-09 -7.765304991e-09)
(0.01100010306 1.210656327e-08 -1.398001369e-08)
(0.01100013769 1.083570777e-08 -1.267180209e-08)
(0.01100020651 2.166679323e-08 -2.083003429e-08)
(0.01100000027 8.546476182e-10 5.826335256e-10)
(0.01100000185 3.366396121e-09 -2.209727798e-10)
(0.01100000072 4.427552721e-10 3.380893698e-10)
(0.01099999971 -1.469342398e-09 -1.358031138e-10)
(0.01100000051 -2.391072335e-09 3.782631055e-10)
(0.01100000021 -1.47020716e-09 -2.421889405e-10)
(0.01100000277 -2.420530845e-09 -2.036525709e-09)
(0.0110000091 -1.098900989e-09 -4.387349369e-09)
(0.01100001751 -2.591044377e-09 -5.00423147e-09)
(0.0110000228 -3.906879439e-09 -9.826831423e-09)
(0.0110000373 -4.563968509e-09 -1.711743939e-08)
(0.01100005458 -8.925878709e-09 -2.317522507e-08)
(0.01100009956 -1.424499032e-08 -3.761226912e-08)
(0.0110001266 -1.230803044e-08 -4.144479164e-08)
(0.01099999953 6.939586258e-11 -1.110816757e-09)
(0.01099999782 9.973120089e-10 -2.402048161e-09)
(0.01099999966 1.652187371e-11 -7.030954498e-10)
(0.01100000114 -1.238762181e-10 1.550682461e-10)
(0.01100000142 -8.009571893e-10 -1.099014617e-09)
(0.0110000019 -2.199395727e-09 -1.46083169e-09)
(0.01100000604 -1.610865196e-09 -2.835772717e-10)
(0.01100000517 -3.31093295e-09 -3.627311461e-09)
(0.01100001111 -7.473063891e-09 -6.660389614e-09)
(0.01100001677 -1.308006966e-08 -1.123651346e-08)
(0.01100003185 -1.652315373e-08 -1.855268591e-08)
(0.01100004444 -2.767865766e-08 -2.987560762e-08)
(0.01100009241 -4.689435802e-08 -4.967549173e-08)
(0.01100010502 -5.190443731e-08 -5.568932174e-08)
(0.01100020723 -1.212851727e-07 -1.215738072e-07)
(0.01100000254 5.465938752e-10 -1.996024268e-10)
(0.01100000111 5.901009954e-10 4.654208864e-10)
(0.01099999857 2.151200622e-09 -1.079448595e-09)
(0.01099999779 1.684348466e-09 -3.097928511e-09)
(0.01099999992 5.772668607e-10 -1.68944938e-09)
(0.01100000181 -1.081310152e-09 -3.706264871e-10)
(0.0110000008 -2.538804679e-09 -1.699478675e-09)
(0.01100000161 -6.937279975e-09 -3.846834996e-09)
(0.01100000528 -9.280805937e-09 -7.492878808e-09)
(0.01100000662 -1.334539121e-08 -1.413730976e-08)
(0.01100001806 -2.105341939e-08 -2.452049926e-08)
(0.01100001876 -3.393538433e-08 -4.421842986e-08)
(0.01100006468 -4.82550138e-08 -7.319129356e-08)
(0.01100004884 -5.592780132e-08 -9.961193273e-08)
(0.01100020165 -1.535607444e-07 -2.593306798e-07)
(0.01100000064 -3.658439357e-11 -9.343729202e-10)
(0.01099999959 -4.580821433e-10 -4.655833585e-10)
(0.01100000057 -6.418990556e-10 -3.017134746e-10)
(0.01099999872 1.298706989e-11 -1.436523149e-09)
(0.01099999739 -4.105171132e-11 -1.478770818e-09)
(0.01100000224 -1.949576382e-09 -1.338194521e-09)
(0.01099999907 -2.610682767e-09 -2.433722295e-09)
(0.01099999622 -5.463774643e-09 -5.887738866e-09)
(0.01100000117 -5.219301313e-09 -7.796711961e-09)
(0.01100000503 -1.375234592e-08 -1.552067628e-08)
(0.01100000754 -2.040966811e-08 -2.451752149e-08)
(0.01100001369 -4.355297307e-08 -5.494194036e-08)
(0.01100005655 -7.320967234e-08 -7.916338724e-08)
(0.01100001278 -1.159026998e-07 -1.283122838e-07)
(0.01100020761 -2.986673337e-07 -3.919379191e-07)
(0.01100000164 -1.671323675e-10 -1.273904706e-09)
(0.01100000185 -6.767959062e-10 -7.510370659e-10)
(0.01100000066 7.969284599e-10 -3.629421302e-10)
(0.01099999791 -1.33712122e-09 -1.659852709e-09)
(0.01099999756 -2.702154373e-10 -1.945959269e-09)
(0.01100000008 5.791650798e-10 -2.304493842e-09)
(0.01099999651 -4.283809777e-10 -2.914932008e-09)
(0.01099999735 6.708526754e-10 -7.214235217e-09)
(0.01099999201 3.415196882e-10 -9.827889731e-09)
(0.01099999079 5.127941637e-10 -2.154131535e-08)
(0.01099998621 -2.672659679e-10 -3.445105435e-08)
(0.01099996587 1.505902801e-09 -9.468284776e-08)
(0.01099997455 7.4792643e-10 -1.532319485e-07)
(0.01099984463 1.995910404e-09 -3.265735874e-07)
(0.0110002291 -9.909031014e-11 -9.527522711e-07)
(0.01099999973 -3.34198296e-10 -1.954113763e-10)
(0.01100000278 -6.197747737e-10 -9.12248483e-10)
(0.01099999789 -7.917672803e-10 -1.218718534e-09)
(0.01099999788 -2.809056933e-10 -4.087786701e-10)
(0.01099999833 9.497702875e-10 -1.650850948e-09)
(0.01099999922 9.326666136e-10 -1.891595297e-09)
(0.0109999989 2.934523701e-09 -2.521313521e-09)
(0.01099999969 5.659536894e-09 -5.42565943e-09)
(0.011 8.352555505e-09 -7.464535122e-09)
(0.01100000236 1.433606425e-08 -1.734914302e-08)
(0.01100000886 2.179239558e-08 -2.532888028e-08)
(0.01100001555 4.351323701e-08 -5.456730544e-08)
(0.01100005504 7.501193656e-08 -7.998157931e-08)
(0.01100001386 1.172697076e-07 -1.291071271e-07)
(0.01100020341 3.010295576e-07 -3.918903753e-07)
(0.01100000036 -6.080441721e-10 -9.04763067e-10)
(0.011000002 -2.055672845e-10 -1.637756995e-10)
(0.01100000179 -6.358512474e-10 -1.718632044e-09)
(0.01099999868 2.4555576e-10 -2.377241124e-11)
(0.01099999853 8.026769808e-10 -1.653273067e-09)
(0.01100000177 3.026583718e-09 -2.010103742e-09)
(0.01100000365 4.117617747e-09 -3.69225628e-09)
(0.01100000205 7.258016934e-09 -7.39841342e-09)
(0.01100000341 9.608815784e-09 -6.471463932e-09)
(0.01100000664 1.673909408e-08 -1.45358147e-08)
(0.01100001627 2.175021789e-08 -2.442138787e-08)
(0.0110000205 3.444719414e-08 -4.411294919e-08)
(0.01100006442 4.988808487e-08 -7.486366667e-08)
(0.01100004736 5.639146552e-08 -9.912130259e-08)
(0.01100019856 1.543443519e-07 -2.578467798e-07)
(0.01100000022 -5.185177565e-10 -1.262780259e-09)
(0.01100000301 -5.381226372e-10 -2.690651409e-10)
(0.01100000045 1.367320786e-09 -8.645783256e-10)
(0.01100000125 4.785306895e-10 -3.168796215e-09)
(0.01100000208 1.448043429e-09 -3.140359658e-09)
(0.01100000242 8.720010574e-10 -2.35744942e-09)
(0.01100000367 2.450298001e-09 -2.039463837e-09)
(0.01100000491 3.193092001e-09 -3.963543624e-09)
(0.0110000113 6.898641014e-09 -5.175667573e-09)
(0.01100001582 1.074067487e-08 -1.148163849e-08)
(0.01100002849 1.837851704e-08 -1.758511686e-08)
(0.01100004263 2.858836024e-08 -2.90977762e-08)
(0.01100008734 4.560336667e-08 -4.939416501e-08)
(0.01100010519 5.059335965e-08 -5.42616331e-08)
(0.01100020429 1.217296351e-07 -1.229863678e-07)
(0.01100000019 1.599001683e-09 -9.483935377e-10)
(0.01100000168 1.516842533e-09 4.855543252e-10)
(0.01099999975 2.348547209e-10 -1.202030074e-09)
(0.0110000011 -4.61056357e-10 -2.520946497e-09)
(0.01100000204 1.284997175e-09 -2.719154715e-09)
(0.0110000033 1.141560344e-09 -2.150118712e-09)
(0.01100000563 5.700301129e-10 -7.41094965e-10)
(0.01100000519 2.980713638e-09 -3.597624899e-09)
(0.01100001194 2.104691638e-09 -6.572065835e-09)
(0.01100002 2.795836431e-09 -9.541897632e-09)
(0.0110000389 4.657706889e-09 -1.445710573e-08)
(0.01100005336 9.157612489e-09 -2.255550241e-08)
(0.01100009665 1.296574374e-08 -3.74767709e-08)
(0.01100012457 1.300844614e-08 -4.116528872e-08)
(0.01100020317 3.128954456e-08 -7.930459962e-08)
(0.01099999986 -1.184283356e-09 5.180482003e-10)
(0.01100000114 -1.171450456e-09 2.121930948e-09)
(0.01100000134 -9.582288161e-10 1.491111124e-09)
(0.01099999915 -3.748511506e-09 8.25123951e-10)
(0.01100000204 -1.920723075e-09 1.094788665e-10)
(0.01100000112 -2.107466671e-10 -1.069147116e-09)
(0.01100000219 -2.78506055e-09 1.060154367e-11)
(0.01100000445 -1.197245058e-10 -3.044277359e-09)
(0.01100001005 -1.82614811e-09 -8.425367032e-09)
(0.01100001404 -5.382416738e-09 -1.410074103e-08)
(0.01100002608 -4.621335413e-09 -1.821235752e-08)
(0.01100003693 -9.196168664e-09 -2.852964973e-08)
(0.01100008028 -2.209487538e-08 -4.342640333e-08)
(0.01100009648 -2.216998364e-08 -4.344784387e-08)
(0.01099999917 2.745217456e-10 7.981058375e-10)
(0.01100000153 -3.103179665e-10 6.208922342e-10)
(0.0109999998 -3.591929388e-10 -5.692570006e-10)
(0.01100000029 -6.088668629e-10 -5.492064815e-10)
(0.01100000018 -2.026864561e-09 1.563289434e-10)
(0.01099999961 -2.374854201e-09 -1.10003149e-09)
(0.01100000167 -4.28510734e-09 -3.498415204e-09)
(0.01100000151 -5.883823628e-09 -5.910583869e-09)
(0.01100000509 -7.13582612e-09 -7.426653213e-09)
(0.01100000684 -1.438217192e-08 -1.549381988e-08)
(0.01100001651 -2.323131503e-08 -2.016188543e-08)
(0.01100002056 -4.263069665e-08 -3.400333422e-08)
(0.01100006094 -7.16669249e-08 -5.167605143e-08)
(0.0110000497 -9.700405823e-08 -5.795323522e-08)
(0.01100000084 1.828226458e-09 2.178697614e-10)
(0.01099999954 1.714327879e-09 -2.812306137e-09)
(0.01099999958 8.264985797e-10 -1.726907983e-09)
(0.01100000062 6.599945635e-10 2.235372291e-11)
(0.01099999994 -5.53433692e-10 -6.036158314e-10)
(0.01100000024 -2.22405683e-09 -2.45126418e-09)
(0.0109999983 -3.349759312e-09 -4.409664707e-09)
(0.01099999949 -5.632858403e-09 -7.281852866e-09)
(0.01099999587 -9.613740624e-09 -8.321164774e-09)
(0.01099999337 -2.027456354e-08 -2.005115649e-08)
(0.01099999317 -2.746325523e-08 -2.542439844e-08)
(0.01099998 -5.553378206e-08 -5.611223331e-08)
(0.01100000607 -7.288502292e-08 -7.70070912e-08)
(0.01099992121 -1.185200694e-07 -1.202886494e-07)
(0.01100017999 -3.686679788e-07 -3.725883989e-07)
(0.01100000008 -8.871158545e-10 -8.670687361e-10)
(0.01100000043 1.385820855e-10 -1.675996069e-09)
(0.01099999973 -4.543439886e-10 -2.130466252e-09)
(0.01099999845 -6.450152313e-11 -2.915819016e-09)
(0.01099999749 -9.180488346e-10 -2.561812038e-09)
(0.01099999987 -1.882883026e-09 -2.377750989e-09)
(0.01099999605 -3.379480988e-09 -2.368202301e-09)
(0.01099999602 -4.838760052e-09 -6.818573718e-09)
(0.01099999043 -7.950180535e-09 -9.997468658e-09)
(0.01099998929 -1.867493787e-08 -2.356596778e-08)
(0.01099997702 -2.884155111e-08 -2.331165349e-08)
(0.0109999737 -8.11849063e-08 -6.609528856e-08)
(0.01099996025 -1.327456497e-07 -4.873156078e-08)
(0.01099983571 -2.983779229e-07 -1.448761613e-07)
(0.01100008725 -8.584477997e-07 -5.308407665e-07)
(0.01100000056 -1.257063115e-09 1.226853387e-10)
(0.01100000236 -1.180940889e-09 -9.157629695e-10)
(0.01099999949 -3.062471211e-10 -2.578794734e-09)
(0.0109999974 -5.110274147e-10 -2.949302693e-09)
(0.01099999633 -3.4314622e-11 -1.124535256e-09)
(0.01099999672 -1.55088783e-09 -1.901062074e-09)
(0.0109999948 4.723045043e-10 -3.125646523e-09)
(0.01099999503 4.419150651e-10 -6.714429023e-09)
(0.01099997853 2.300064777e-10 -1.240294739e-08)
(0.01099997043 9.382698653e-10 -3.20179044e-08)
(0.01099992346 1.862075651e-09 -3.848569716e-08)
(0.01099987776 1.677496653e-09 -1.399525567e-07)
(0.01099972471 4.847258256e-10 -1.543308855e-07)
(0.01099935063 6.911975179e-10 -6.104699293e-07)
(0.01099992267 2.14946532e-09 -1.827671094e-06)
(0.01100000137 -8.23169754e-11 -5.111922184e-10)
(0.01100000036 4.365176812e-12 -1.783175835e-09)
(0.01100000004 1.039044856e-10 -1.691747979e-09)
(0.01099999782 1.269015497e-09 -1.362819311e-09)
(0.0109999979 7.044038064e-10 -4.99775556e-10)
(0.01099999948 1.857032721e-09 -2.259083768e-09)
(0.01099999667 3.569277491e-09 -3.960748031e-09)
(0.01099999521 4.41776084e-09 -7.10996475e-09)
(0.01099998921 9.049323718e-09 -1.031245288e-08)
(0.0109999892 1.972355615e-08 -2.100477464e-08)
(0.01099997876 3.037654485e-08 -2.156544565e-08)
(0.01099997355 8.323407489e-08 -6.529972652e-08)
(0.01099996043 1.334713509e-07 -4.936035163e-08)
(0.01099983564 2.996251679e-07 -1.426125167e-07)
(0.01100008513 8.586119727e-07 -5.320152081e-07)
(0.01099999976 1.1377042e-09 4.637736924e-11)
(0.01099999853 7.551114071e-10 -1.621540655e-09)
(0.01100000108 -5.707766109e-11 4.756402032e-10)
(0.01100000132 -2.825390539e-10 -6.925144103e-10)
(0.01099999756 1.648988201e-09 -1.029681541e-09)
(0.0109999997 2.705488731e-09 -2.027715768e-09)
(0.01099999957 3.560434799e-09 -2.5503458e-09)
(0.01100000007 7.242504587e-09 -6.51184595e-09)
(0.01099999671 1.209344886e-08 -8.873799234e-09)
(0.01099999417 2.015564303e-08 -1.826883022e-08)
(0.01099999318 2.675154499e-08 -2.426509239e-08)
(0.01099997956 5.418942225e-08 -5.192393958e-08)
(0.01100000625 7.357628532e-08 -7.473417256e-08)
(0.01099992003 1.199915074e-07 -1.206148315e-07)
(0.01100017846 3.733026043e-07 -3.740970737e-07)
(0.01100000037 1.350071517e-10 2.136708295e-10)
(0.01100000118 6.517455269e-10 -8.296591321e-10)
(0.0109999993 2.246101174e-09 -1.015003526e-09)
(0.0110000016 -1.406805621e-10 1.114655632e-10)
(0.01100000122 1.444384997e-09 -2.635142073e-10)
(0.01100000119 1.708231359e-09 -1.848712894e-09)
(0.01100000018 2.839312504e-09 -3.824384241e-09)
(0.01100000325 6.778616508e-09 -4.944301137e-09)
(0.01100000332 8.30892016e-09 -9.341583251e-09)
(0.0110000066 1.667010266e-08 -1.481331756e-08)
(0.01100001684 2.416609777e-08 -2.220679557e-08)
(0.01100001791 4.477381301e-08 -3.311671472e-08)
(0.01100006378 7.459153005e-08 -4.951682925e-08)
(0.01100004751 9.75886406e-08 -5.701291726e-08)
(0.01100020213 2.575062057e-07 -1.551679544e-07)
(0.01100000087 1.780086201e-10 5.8887891e-11)
(0.01099999927 1.085949336e-09 -2.782564869e-10)
(0.01099999926 -1.146412591e-09 -2.263948808e-09)
(0.01100000136 -9.429002524e-10 -1.651985682e-09)
(0.01100000235 -7.105831514e-10 -7.10130613e-10)
(0.01100000284 -4.914274426e-10 -3.015585055e-09)
(0.01100000445 1.729001618e-09 -3.515692428e-09)
(0.01100000285 1.620390369e-09 -5.999179069e-09)
(0.01100000847 1.170774661e-09 -8.320616876e-09)
(0.01100001248 3.85708657e-09 -1.182878528e-08)
(0.011000027 8.088369661e-09 -1.877161154e-08)
(0.01100003387 1.501579722e-08 -2.513791922e-08)
(0.01100008062 2.110513904e-08 -4.058278288e-08)
(0.01100009105 2.410882179e-08 -4.350899379e-08)
(0.01100020069 6.284724937e-08 -9.646811314e-08)
(0.01100000098 1.234020104e-09 3.813593983e-10)
(0.01100000211 -1.126671234e-09 -5.175801603e-10)
(0.01100000005 -2.24173859e-09 -5.748460247e-10)
(0.01099999953 -2.172946377e-10 3.140883171e-11)
(0.01099999953 -2.342460697e-10 -4.154279285e-10)
(0.0110000016 -9.959733506e-10 -2.481740366e-09)
(0.01099999893 -4.246070329e-09 -1.014026287e-09)
(0.01100000249 -2.507018429e-09 -4.202167775e-09)
(0.01100000545 -2.119878279e-09 -5.946728174e-09)
(0.01100000906 -5.643871112e-09 -1.078111309e-08)
(0.01100002341 -6.884167483e-09 -1.462587856e-08)
(0.01100002848 -1.5804042e-08 -2.969433297e-08)
(0.01100007227 -2.018472455e-08 -5.16958674e-08)
(0.01100007178 -2.357693401e-08 -6.81042122e-08)
(0.01099999896 2.881638614e-10 -1.00765418e-10)
(0.01099999929 -4.518474233e-10 1.664670791e-10)
(0.01099999919 -5.016579984e-10 3.807436683e-10)
(0.01100000072 3.662669806e-10 -4.551791929e-10)
(0.01099999887 -6.654217783e-10 -7.66035015e-10)
(0.01099999898 -2.482312143e-09 -7.637578431e-10)
(0.01099999913 -3.895637709e-09 -2.602607302e-09)
(0.01100000141 -6.170329838e-09 -4.035227964e-09)
(0.01100000131 -7.317553712e-09 -6.531151236e-09)
(0.01100000246 -1.741622046e-08 -1.227029574e-08)
(0.011000009 -2.528701915e-08 -1.987104745e-08)
(0.01100001362 -5.37112904e-08 -4.489706979e-08)
(0.01100005342 -7.828533812e-08 -7.444592877e-08)
(0.01100001521 -1.282900854e-07 -1.153496827e-07)
(0.01100000061 4.141053949e-12 -2.05411942e-10)
(0.01100000023 -8.776649497e-11 -2.198652663e-10)
(0.01099999943 -1.108720078e-09 -2.128221842e-10)
(0.01099999816 -5.038037147e-10 5.136834856e-10)
(0.01099999851 -1.586446037e-09 9.444137919e-10)
(0.01099999722 -2.328345361e-09 -1.525159775e-09)
(0.010999994 -1.537556481e-09 -2.400324908e-09)
(0.01099999587 -7.490420734e-09 -5.312609249e-09)
(0.01099999105 -1.008938911e-08 -8.241550846e-09)
(0.01099998804 -2.323416232e-08 -1.759213814e-08)
(0.0109999771 -2.254317681e-08 -2.979528144e-08)
(0.01099997088 -6.488259801e-08 -8.151367825e-08)
(0.01099995995 -4.649961636e-08 -1.32865126e-07)
(0.01099983801 -1.430438725e-07 -2.999188922e-07)
(0.01100000056 -1.792725013e-10 9.233164876e-11)
(0.01099999984 -5.488204358e-11 2.410439258e-10)
(0.01099999861 6.756405994e-10 2.218327645e-10)
(0.010999999 -6.709224741e-10 -4.510107004e-10)
(0.01099999744 -1.169595017e-09 -1.325563992e-10)
(0.01099999739 -1.717800306e-09 -8.606949422e-10)
(0.01099999091 -2.123262614e-09 -3.312590879e-09)
(0.01099999196 -5.276486671e-09 -5.08568558e-09)
(0.01099998204 -1.039873479e-08 -9.333655248e-09)
(0.01099998869 -2.434483014e-08 -2.593698924e-08)
(0.01099995775 -3.462706538e-08 -3.563036302e-08)
(0.01100000165 -1.277809384e-07 -1.28385184e-07)
(0.01099987689 -1.527642372e-07 -1.543156337e-07)
(0.01099991203 -6.054138339e-07 -6.064625246e-07)
(0.01099926879 -1.754935234e-06 -1.758206796e-06)
(0.01100000208 -1.074041887e-10 -8.769042159e-10)
(0.01100000172 1.30517193e-10 -7.058173745e-10)
(0.01099999854 -1.887216346e-10 -7.34062772e-10)
(0.0109999972 1.26854797e-09 -1.036952387e-09)
(0.01099999721 8.197659165e-10 -1.143999099e-09)
(0.01099999795 -1.00620364e-09 -1.486989655e-09)
(0.01099999191 -1.12991796e-09 -2.288565589e-09)
(0.01099998752 1.594239259e-10 -8.248095864e-09)
(0.01099996669 2.497000327e-09 -1.312556899e-08)
(0.0109999639 1.757896298e-09 -4.133667096e-08)
(0.01099986356 9.607340884e-10 -6.272953599e-08)
(0.01099986669 1.185363547e-09 -2.875792142e-07)
(0.01099928787 1.828896776e-09 -4.403682585e-07)
(0.0109990883 1.352519172e-09 -2.663631181e-06)
(0.0109967086 2.421247576e-10 -8.344936213e-06)
(0.01099999981 -3.188077772e-10 5.007031199e-10)
(0.01100000137 -7.774869488e-10 5.424254823e-10)
(0.01100000147 1.006844027e-09 -2.737264163e-10)
(0.01100000022 7.878076882e-10 1.03675594e-11)
(0.01099999666 1.451387345e-09 -3.384407949e-10)
(0.01099999854 2.43090916e-09 -5.178861976e-10)
(0.01099999274 4.403211899e-09 -2.180575816e-09)
(0.01099999637 6.260638757e-09 -6.924684829e-09)
(0.01099998423 1.055446589e-08 -9.028457656e-09)
(0.01099999262 2.72523769e-08 -2.578834511e-08)
(0.01099995789 3.68950566e-08 -3.534187909e-08)
(0.01100000075 1.301077926e-07 -1.297307059e-07)
(0.01099987609 1.540596851e-07 -1.54156339e-07)
(0.01099991074 6.068150714e-07 -6.070021186e-07)
(0.01099926818 1.756749009e-06 -1.756422435e-06)
(0.01099999972 4.898643137e-10 -5.723574788e-10)
(0.0110000014 3.418356367e-10 -2.404900946e-10)
(0.01099999996 -7.031894604e-10 -1.60561038e-11)
(0.0110000016 -9.481547249e-10 -1.74013947e-09)
(0.01099999774 2.800564686e-10 -1.366213693e-09)
(0.01100000017 2.460059074e-09 -8.241494018e-10)
(0.01099999522 3.42708004e-09 -2.252877796e-09)
(0.01099999867 9.831494192e-09 -3.829151578e-09)
(0.0109999887 1.079899184e-08 -7.620003896e-09)
(0.01099999052 2.363212782e-08 -1.894445433e-08)
(0.01099997626 2.219543497e-08 -3.035482415e-08)
(0.0109999701 6.580676652e-08 -8.414032584e-08)
(0.01099995891 4.735387145e-08 -1.34246873e-07)
(0.010999838 1.429831379e-07 -3.008863913e-07)
(0.01100008349 5.30259326e-07 -8.595074597e-07)
(0.01099999988 1.113751039e-10 8.08826986e-10)
(0.01100000204 9.239962804e-10 -5.62891112e-10)
(0.0109999988 1.820894545e-09 1.114539983e-09)
(0.01100000274 8.494545983e-10 1.352396757e-09)
(0.01100000025 2.170089675e-10 -5.609598548e-10)
(0.01100000058 1.84286091e-09 -1.925382204e-09)
(0.01100000174 2.258909273e-09 -2.242173968e-09)
(0.01100000035 4.942212297e-09 -3.701765396e-09)
(0.01099999839 8.226379591e-09 -5.855722463e-09)
(0.01100000194 1.693935889e-08 -1.287280082e-08)
(0.01100000876 2.474995998e-08 -2.092822819e-08)
(0.01100001187 5.51439605e-08 -4.614254716e-08)
(0.01100005351 7.974918314e-08 -7.399423978e-08)
(0.01100001462 1.26943948e-07 -1.18013675e-07)
(0.01100020528 3.906211163e-07 -3.015318655e-07)
(0.01100000087 -5.213647218e-10 -2.339532119e-10)
(0.01099999922 1.852952326e-09 -2.488634741e-10)
(0.0110000014 6.684689795e-10 1.461634204e-09)
(0.01100000077 1.124179553e-09 1.361849597e-09)
(0.01099999942 4.144779184e-10 4.509224954e-11)
(0.01100000077 -5.654065681e-10 7.761708174e-10)
(0.01100000327 8.372567603e-10 -1.311122237e-09)
(0.01100000152 4.833146812e-10 -3.390616041e-09)
(0.01100000728 2.274846075e-09 -5.449900486e-09)
(0.01100000933 5.550291198e-09 -8.741034274e-09)
(0.01100002094 8.785589517e-09 -1.705007884e-08)
(0.01100002803 1.629149679e-08 -3.26503207e-08)
(0.01100007007 2.249154701e-08 -5.215933745e-08)
(0.01100007192 2.549151982e-08 -7.051671152e-08)
(0.01100020848 8.590510396e-08 -1.489409712e-07)
(0.01099999906 1.301945628e-09 7.280930114e-10)
(0.01100000286 3.717399946e-10 7.568282824e-10)
(0.0110000007 -5.390482838e-10 2.028298139e-10)
(0.01099999947 -1.491308826e-10 -4.532994377e-10)
(0.01099999794 -1.108925557e-09 -1.131389153e-09)
(0.01099999961 1.010864621e-11 -8.96801509e-10)
(0.01100000014 -2.902383638e-09 -1.851191537e-09)
(0.01099999989 1.240987944e-10 -1.593198955e-10)
(0.01100000038 -4.442639198e-09 -5.569574021e-11)
(0.01100000212 -8.006729885e-09 3.406251936e-10)
(0.01100000736 -1.025645714e-08 -8.456434691e-10)
(0.01099999626 -2.471345186e-08 1.077651247e-09)
(0.0110000367 -4.266810445e-08 -1.564239894e-09)
(0.0109999944 -6.835081791e-08 -5.351111943e-10)
(0.01100000026 -6.870774136e-10 -1.574569413e-09)
(0.01100000186 -5.11712304e-10 -1.057465482e-09)
(0.01099999884 -1.888632291e-09 2.171440651e-10)
(0.01099999933 -1.584551234e-09 1.122415125e-09)
(0.01099999761 -8.598859985e-10 1.408914072e-09)
(0.01099999767 -1.931370086e-09 -5.591190906e-10)
(0.01099999835 -3.601147693e-09 4.261353221e-10)
(0.01099999742 -7.104829039e-09 -1.154896111e-10)
(0.01099999393 -9.371626165e-09 -9.087388723e-10)
(0.01099999185 -2.421395534e-08 2.905283967e-10)
(0.0109999819 -3.70558245e-08 4.268400854e-11)
(0.01099996539 -9.533370971e-08 -5.37819392e-10)
(0.01099997584 -1.512438211e-07 1.445359014e-09)
(0.01099984453 -3.250202529e-07 2.520741693e-10)
(0.0109999998 1.948327626e-10 1.678894373e-10)
(0.01100000188 -9.628950115e-11 -1.046217816e-09)
(0.01099999913 -1.005312362e-09 -5.487656037e-10)
(0.01099999956 -2.126082542e-09 1.027928448e-09)
(0.01099999717 -6.814251939e-10 8.461122295e-10)
(0.01099999824 -1.457575326e-09 7.624148766e-10)
(0.01099999137 -1.244218827e-09 9.451006215e-10)
(0.01099999293 -9.359638573e-09 -9.512432046e-10)
(0.01099997736 -1.243144869e-08 -1.033900267e-09)
(0.01099997002 -3.316874747e-08 -1.337361383e-09)
(0.01099992415 -3.889719812e-08 -8.545376716e-10)
(0.01099988037 -1.375390822e-07 -4.853613317e-10)
(0.01099972386 -1.532684227e-07 9.147299483e-10)
(0.01099935222 -6.102027972e-07 1.017101809e-10)
(0.01099999922 -1.218997143e-09 -4.967233446e-10)
(0.01100000139 3.139196827e-10 -7.108845794e-10)
(0.01099999796 2.805007211e-10 -5.324631292e-10)
(0.01099999976 6.391656976e-10 4.122049056e-10)
(0.01099999671 -1.609209092e-09 1.94613959e-09)
(0.01099999751 -2.789706896e-10 -9.193783386e-10)
(0.0109999891 -3.54234594e-09 1.493699143e-11)
(0.01099998737 -7.748411402e-09 -1.888159265e-09)
(0.0109999653 -1.161259495e-08 4.313385926e-10)
(0.01099996091 -3.999632749e-08 1.019720672e-09)
(0.0109998648 -6.055841495e-08 4.857042988e-10)
(0.01099986934 -2.85814841e-07 -6.619078809e-10)
(0.01099928856 -4.39233354e-07 -8.45416318e-10)
(0.01099908768 -2.663040098e-06 2.034303167e-10)
(0.01100000011 2.088664943e-09 1.667363283e-09)
(0.011000001 -4.103257209e-10 7.029475565e-10)
(0.01099999882 1.461244647e-09 5.209026135e-10)
(0.01099999904 2.293402663e-10 6.334391597e-10)