/*--------------------------------*- C++ -*----------------------------------*\
| =========                 |                                                 |
| \\      /  F ield         | OpenFOAM: The Open Source CFD Toolbox           |
|  \\    /   O peration     | Version:  4.x                                   |
|   \\  /    A nd           | Web:      www.OpenFOAM.org                      |
|    \\/     M anipulation  |                                                 |
\*---------------------------------------------------------------------------*/
FoamFile
{
    version     2.0;
    format      ascii;
    class       volScalarField;
    location    "7000";
    object      X_H2O;
}
// * * * * * * * * * * * * * * * * * * * * * * * * * * * * * * * * * * * * * //

dimensions      [0 0 0 0 0 0 0];

internalField   nonuniform List<scalar> 
1175
(
1.504125676e-05
1.5041257e-05
1.504125821e-05
1.504126251e-05
1.504127736e-05
1.504132859e-05
1.504150035e-05
1.504205369e-05
1.504376759e-05
1.50488351e-05
1.506300139e-05
1.509999173e-05
1.518889807e-05
1.538239484e-05
1.575798061e-05
1.504125646e-05
1.504125694e-05
1.504125866e-05
1.504126352e-05
1.504128247e-05
1.504134944e-05
1.504157858e-05
1.504234066e-05
1.504479026e-05
1.505232644e-05
1.50742642e-05
1.513382626e-05
1.528185031e-05
1.561092164e-05
1.624952849e-05
1.504125725e-05
1.504125804e-05
1.504125998e-05
1.504126679e-05
1.504129201e-05
1.504138445e-05
1.504171286e-05
1.504285057e-05
1.504666725e-05
1.505895394e-05
1.509643245e-05
1.520298534e-05
1.547894134e-05
1.611013191e-05
1.733764103e-05
1.504125736e-05
1.504125844e-05
1.504126093e-05
1.504126921e-05
1.504130057e-05
1.504141896e-05
1.504185111e-05
1.504339574e-05
1.504875792e-05
1.50666832e-05
1.512366116e-05
1.529284278e-05
1.574998058e-05
1.683117854e-05
1.89481116e-05
1.504125838e-05
1.504125913e-05
1.50412613e-05
1.504127005e-05
1.504130448e-05
1.504143437e-05
1.50419139e-05
1.504365141e-05
1.504978167e-05
1.507067829e-05
1.513868644e-05
1.534635593e-05
1.592551627e-05
1.733750545e-05
2.013556919e-05
1.504125763e-05
1.504125826e-05
1.504126085e-05
1.504126937e-05
1.504130076e-05
1.504141909e-05
1.504185092e-05
1.50433955e-05
1.50487579e-05
1.506668315e-05
1.512366053e-05
1.529283901e-05
1.574996719e-05
1.683114047e-05
1.894803089e-05
1.50412565e-05
1.504125662e-05
1.504125877e-05
1.504126602e-05
1.504129163e-05
1.504138435e-05
1.504171249e-05
1.504284995e-05
1.504666739e-05
1.505895355e-05
1.509643098e-05
1.520298041e-05
1.547892395e-05
1.611008326e-05
1.733753783e-05
1.504125606e-05
1.504125632e-05
1.50412582e-05
1.504126381e-05
1.504128283e-05
1.504135023e-05
1.50415792e-05
1.504234096e-05
1.504479053e-05
1.505232599e-05
1.507426324e-05
1.513382191e-05
1.528183587e-05
1.561088097e-05
1.624944295e-05
1.504125618e-05
1.504125639e-05
1.504125787e-05
1.504126267e-05
1.504127759e-05
1.504132943e-05
1.504150196e-05
1.504205542e-05
1.504376937e-05
1.504883637e-05
1.506300105e-05
1.509998817e-05
1.518888626e-05
1.538236212e-05
1.575791189e-05
1.504125568e-05
1.504125608e-05
1.504125779e-05
1.504126327e-05
1.504128225e-05
1.504134864e-05
1.50415768e-05
1.504233849e-05
1.504478817e-05
1.505232496e-05
1.507426444e-05
1.513382981e-05
1.528186254e-05
1.561095512e-05
1.504125612e-05
1.504125654e-05
1.504125811e-05
1.504126475e-05
1.504128922e-05
1.504137835e-05
1.504169507e-05
1.504279733e-05
1.504651547e-05
1.50585654e-05
1.509561404e-05
1.52018538e-05
1.547928074e-05
1.611772404e-05
1.736030433e-05
1.504125737e-05
1.504125797e-05
1.504126031e-05
1.504126912e-05
1.504130302e-05
1.504143046e-05
1.504190695e-05
1.504364838e-05
1.504985001e-05
1.507116609e-05
1.514094033e-05
1.535431494e-05
1.594673052e-05
1.73764333e-05
2.018658055e-05
1.504125695e-05
1.504125807e-05
1.504126088e-05
1.504127215e-05
1.504131564e-05
1.504148388e-05
1.504213457e-05
1.504460937e-05
1.505382799e-05
1.508718792e-05
1.520292872e-05
1.558040199e-05
1.670168481e-05
1.957785332e-05
2.536743944e-05
1.504125712e-05
1.504125833e-05
1.504126147e-05
1.504127361e-05
1.504132116e-05
1.504150851e-05
1.504224254e-05
1.504508707e-05
1.505593763e-05
1.509638942e-05
1.524215533e-05
1.574090326e-05
1.731236989e-05
2.161682825e-05
3.067186877e-05
1.504125708e-05
1.504125778e-05
1.504126066e-05
1.504127194e-05
1.504131514e-05
1.504148399e-05
1.504213439e-05
1.504460893e-05
1.505382783e-05
1.508718741e-05
1.520292529e-05
1.55803881e-05
1.670163239e-05
1.957768212e-05
2.536703955e-05
1.504125724e-05
1.504125756e-05
1.504125981e-05
1.504126888e-05
1.504130248e-05
1.504143024e-05
1.504190594e-05
1.504364748e-05
1.50498502e-05
1.507116564e-05
1.514093603e-05
1.53542988e-05
1.594667322e-05
1.73762621e-05
2.01861939e-05
1.5041257e-05
1.504125694e-05
1.504125861e-05
1.504126526e-05
1.504128952e-05
1.504137872e-05
1.504169574e-05
1.504279799e-05
1.504651613e-05
1.505856531e-05
1.509561199e-05
1.520184366e-05
1.547924335e-05
1.611761598e-05
1.736006284e-05
1.504125721e-05
1.504125712e-05
1.504125819e-05
1.50412634e-05
1.504128186e-05
1.504134861e-05
1.504157825e-05
1.504234053e-05
1.504479039e-05
1.505232637e-05
1.507426344e-05
1.513382241e-05
1.528183772e-05
1.561088512e-05
1.62494485e-05
1.504125626e-05
1.504125662e-05
1.504125833e-05
1.504126549e-05
1.504129042e-05
1.50413828e-05
1.504171056e-05
1.504284831e-05
1.504666572e-05
1.505895299e-05
1.509643415e-05
1.520299717e-05
1.547898056e-05
1.611023076e-05
1.504125625e-05
1.504125666e-05
1.504125887e-05
1.504126788e-05
1.5041302e-05
1.50414297e-05
1.504190573e-05
1.50436469e-05
1.504984902e-05
1.507116603e-05
1.514094315e-05
1.535432871e-05
1.594678093e-05
1.737659276e-05
1.504125791e-05
1.50412584e-05
1.504126142e-05
1.504127376e-05
1.504132203e-05
1.504151342e-05
1.5042268e-05
1.504519699e-05
1.505634496e-05
1.509757262e-05
1.524375312e-05
1.573051787e-05
1.720348077e-05
2.103493583e-05
2.877989958e-05
1.504125789e-05
1.504125875e-05
1.504126262e-05
1.504127823e-05
1.504134208e-05
1.504160386e-05
1.504267826e-05
1.504705886e-05
1.506471496e-05
1.513453326e-05
1.54021469e-05
1.637691183e-05
1.963777499e-05
2.903375919e-05
4.928045991e-05
1.504125764e-05
1.504125858e-05
1.504126291e-05
1.504128005e-05
1.504135099e-05
1.504164649e-05
1.504288275e-05
1.50480529e-05
1.506958949e-05
1.515851922e-05
1.551949167e-05
1.693813302e-05
2.218176701e-05
3.931103069e-05
8.112520319e-05
1.50412578e-05
1.504125885e-05
1.504126256e-05
1.504127781e-05
1.504134119e-05
1.504160332e-05
1.504267827e-05
1.504705882e-05
1.506471466e-05
1.513453077e-05
1.540213444e-05
1.637685422e-05
1.963752392e-05
2.903281895e-05
4.927796438e-05
1.504125747e-05
1.504125835e-05
1.504126149e-05
1.504127326e-05
1.504132128e-05
1.504151342e-05
1.504226775e-05
1.504519696e-05
1.505634492e-05
1.509757038e-05
1.524374159e-05
1.573046883e-05
1.720328719e-05
2.10342678e-05
2.877808599e-05
1.504125761e-05
1.504125783e-05
1.504126002e-05
1.504126869e-05
1.504130244e-05
1.504143049e-05
1.504190649e-05
1.504364813e-05
1.504985025e-05
1.507116567e-05
1.514093741e-05
1.535430262e-05
1.594668323e-05
1.737628121e-05
2.018621501e-05
1.50412572e-05
1.504125748e-05
1.504125921e-05
1.504126592e-05
1.504129113e-05
1.504138357e-05
1.504171184e-05
1.504284966e-05
1.50466674e-05
1.505895401e-05
1.509643186e-05
1.520298281e-05
1.547893062e-05
1.611009563e-05
1.733755166e-05
1.504125588e-05
1.504125644e-05
1.504125899e-05
1.504126776e-05
1.504129949e-05
1.504141748e-05
1.504184909e-05
1.504339373e-05
1.504875682e-05
1.506668399e-05
1.512366814e-05
1.529287065e-05
1.575006768e-05
1.683139408e-05
1.504125644e-05
1.504125717e-05
1.50412601e-05
1.504127123e-05
1.504131468e-05
1.504148304e-05
1.504213351e-05
1.504460753e-05
1.505382757e-05
1.508719091e-05
1.520294164e-05
1.558045397e-05
1.670186899e-05
1.957840824e-05
1.504125829e-05
1.504125875e-05
1.504126234e-05
1.504127826e-05
1.504134179e-05
1.504160328e-05
1.504267782e-05
1.504705892e-05
1.506471609e-05
1.513453772e-05
1.540216516e-05
1.637699267e-05
1.963813006e-05
2.903528844e-05
1.504125859e-05
1.504125922e-05
1.504126389e-05
1.504128391e-05
1.504136977e-05
1.504173758e-05
1.504332202e-05
1.505017428e-05
1.507981812e-05
1.520744458e-05
1.574931282e-05
1.798076899e-05
2.661801687e-05
5.602766468e-05
0.0001298136447
1.504125911e-05
1.50412601e-05
1.504126525e-05
1.504128733e-05
1.50413831e-05
1.504180259e-05
1.504365905e-05
1.505196067e-05
1.508951871e-05
1.526143272e-05
1.605565338e-05
1.973231195e-05
3.647593008e-05
0.0001079644582
0.0003513014278
1.504125922e-05
1.504125978e-05
1.504126416e-05
1.504128409e-05
1.504136945e-05
1.504173673e-05
1.504332117e-05
1.505017335e-05
1.507981612e-05
1.520743682e-05
1.574927672e-05
1.798057955e-05
2.661704169e-05
5.602327462e-05
0.0001297993139
1.504125893e-05
1.504125949e-05
1.5041263e-05
1.504127799e-05
1.504134163e-05
1.504160342e-05
1.504267764e-05
1.504705855e-05
1.506471495e-05
1.513453217e-05
1.540214225e-05
1.637688173e-05
1.963760557e-05
2.903300274e-05
4.927816576e-05
1.504125793e-05
1.50412581e-05
1.504126092e-05
1.504127204e-05
1.504131502e-05
1.504148317e-05
1.504213371e-05
1.504460864e-05
1.505382803e-05
1.508718817e-05
1.52029292e-05
1.558040086e-05
1.670166445e-05
1.957774272e-05
2.536708642e-05
1.504125707e-05
1.504125733e-05
1.504125951e-05
1.50412681e-05
1.50413001e-05
1.504141824e-05
1.504185037e-05
1.504339565e-05
1.504875836e-05
1.50666841e-05
1.5123663e-05
1.529284656e-05
1.57499845e-05
1.683117019e-05
1.894805911e-05
1.504125614e-05
1.50412567e-05
1.504125865e-05
1.504126747e-05
1.504130196e-05
1.504143193e-05
1.504191151e-05
1.504364912e-05
1.504978044e-05
1.50706796e-05
1.51386969e-05
1.534639857e-05
1.592564866e-05
1.733783409e-05
1.504125726e-05
1.504125747e-05
1.504126017e-05
1.504127166e-05
1.504131936e-05
1.504150678e-05
1.504224067e-05
1.504508537e-05
1.505593736e-05
1.509639351e-05
1.52421767e-05
1.57409942e-05
1.731270772e-05
2.161785112e-05
1.504125833e-05
1.504125892e-05
1.5041263e-05
1.504127989e-05
1.504134997e-05
1.504164487e-05
1.504288111e-05
1.504805216e-05
1.506959031e-05
1.515852727e-05
1.551953558e-05
1.693835261e-05
2.218279852e-05
3.931508417e-05
1.504125974e-05
1.504126031e-05
1.504126499e-05
1.504128684e-05
1.504138295e-05
1.504180263e-05
1.504365927e-05
1.505196099e-05
1.508952098e-05
1.526144399e-05
1.605571736e-05
1.973271321e-05
3.647841863e-05
0.000107978535
1.504126011e-05
1.504126086e-05
1.504126625e-05
1.504129062e-05
1.504139845e-05
1.504188128e-05
1.504408143e-05
1.505432311e-05
1.510337325e-05
1.534705162e-05
1.661546467e-05
2.361033569e-05
6.490549598e-05
0.000327863507
0.002147456826
1.504125988e-05
1.504126081e-05
1.504126541e-05
1.504128725e-05
1.504138273e-05
1.504180212e-05
1.504365882e-05
1.505196068e-05
1.508951938e-05
1.526143658e-05
1.605567059e-05
1.973238751e-05
3.647622932e-05
0.0001079654234
0.0003513028734
1.504125918e-05
1.504125987e-05
1.504126335e-05
1.504127982e-05
1.504135019e-05
1.504164569e-05
1.504288244e-05
1.50480532e-05
1.506958991e-05
1.515852229e-05
1.551950587e-05
1.693818632e-05
2.218193993e-05
3.93114483e-05
8.112552525e-05
1.504125798e-05
1.504125846e-05
1.504126155e-05
1.504127331e-05
1.504132076e-05
1.504150817e-05
1.504224189e-05
1.504508668e-05
1.50559381e-05
1.509639175e-05
1.52421629e-05
1.574092686e-05
1.731243354e-05
2.161695549e-05
3.067196842e-05
1.504125743e-05
1.504125829e-05
1.504126046e-05
1.504126947e-05
1.504130395e-05
1.504143366e-05
1.504191283e-05
1.504365038e-05
1.504978115e-05
1.507067912e-05
1.513869032e-05
1.534636812e-05
1.592554582e-05
1.733755853e-05
2.013562077e-05
1.504125646e-05
1.504125682e-05
1.504125871e-05
1.504126695e-05
1.504129861e-05
1.504141731e-05
1.504184983e-05
1.504339432e-05
1.504875764e-05
1.506668526e-05
1.512367146e-05
1.52928782e-05
1.575008222e-05
1.68314082e-05
1.504125618e-05
1.50412569e-05
1.504125973e-05
1.504127064e-05
1.504131374e-05
1.504148228e-05
1.504213307e-05
1.504460794e-05
1.505382837e-05
1.508719208e-05
1.520294625e-05
1.558046845e-05
1.670189953e-05
1.957840196e-05
1.504125807e-05
1.504125898e-05
1.504126298e-05
1.504127816e-05
1.504134123e-05
1.504160284e-05
1.504267726e-05
1.504705887e-05
1.506471607e-05
1.513453998e-05
1.540217844e-05
1.637704704e-05
1.96382878e-05
2.903526019e-05
1.504125917e-05
1.504125974e-05
1.504126464e-05
1.504128464e-05
1.504137024e-05
1.50417371e-05
1.504332122e-05
1.505017407e-05
1.507981954e-05
1.520745196e-05
1.574935116e-05
1.798096274e-05
2.661888936e-05
5.603044651e-05
1.504125888e-05
1.504125983e-05
1.504126449e-05
1.504128665e-05
1.504138243e-05
1.504180216e-05
1.504365889e-05
1.505196126e-05
1.508952206e-05
1.526144855e-05
1.605573677e-05
1.973279272e-05
3.647869263e-05
0.0001079790039
1.504125974e-05
1.504126031e-05
1.504126449e-05
1.504128425e-05
1.504136949e-05
1.504173667e-05
1.504332102e-05
1.505017446e-05
1.507981973e-05
1.520745065e-05
1.574933759e-05
1.798087865e-05
2.661848096e-05
5.602945746e-05
1.504125857e-05
1.504125952e-05
1.504126298e-05
1.504127806e-05
1.504134143e-05
1.504160327e-05
1.50426784e-05
1.504705986e-05
1.506471641e-05
1.513453831e-05
1.540216558e-05
1.63769807e-05
1.963800872e-05
2.903437669e-05
4.928192895e-05
1.504125793e-05
1.504125846e-05
1.504126096e-05
1.504127155e-05
1.504131516e-05
1.504148398e-05
1.504213469e-05
1.504460969e-05
1.505382932e-05
1.508719169e-05
1.520293868e-05
1.558043233e-05
1.670177025e-05
1.957805423e-05
2.53677458e-05
1.504125707e-05
1.504125739e-05
1.50412594e-05
1.504126793e-05
1.504129961e-05
1.504141803e-05
1.504185073e-05
1.504339611e-05
1.504875903e-05
1.506668524e-05
1.512366691e-05
1.529285733e-05
1.575001603e-05
1.683125016e-05
1.894821028e-05
1.504125671e-05
1.504125709e-05
1.504125873e-05
1.504126562e-05
1.504129093e-05
1.504138319e-05
1.504171147e-05
1.504284963e-05
1.504666804e-05
1.505895622e-05
1.509643889e-05
1.52030056e-05
1.547899496e-05
1.611023984e-05
1.504125629e-05
1.504125685e-05
1.504125926e-05
1.504126814e-05
1.504130182e-05
1.504142943e-05
1.504190548e-05
1.504364765e-05
1.504985095e-05
1.507116937e-05
1.514095084e-05
1.535434785e-05
1.594682088e-05
1.737661829e-05
1.504125818e-05
1.50412586e-05
1.504126139e-05
1.50412735e-05
1.504132125e-05
1.504151257e-05
1.504226716e-05
1.504519733e-05
1.505634642e-05
1.509757717e-05
1.524376863e-05
1.573057197e-05
1.72036399e-05
2.103523272e-05
1.504125841e-05
1.50412589e-05
1.504126239e-05
1.504127788e-05
1.504134145e-05
1.50416032e-05
1.504267739e-05
1.504705886e-05
1.506471721e-05
1.51345417e-05
1.540218403e-05
1.637706585e-05
1.963834202e-05
2.903532229e-05
1.504125803e-05
1.5041259e-05
1.504126273e-05
1.504128e-05
1.504135075e-05
1.504164601e-05
1.504288243e-05
1.504805333e-05
1.506959243e-05
1.515853201e-05
1.551955242e-05
1.693841494e-05
2.218299302e-05
3.931529278e-05
1.504125855e-05
1.504125947e-05
1.504126273e-05
1.504127787e-05
1.504134157e-05
1.504160329e-05
1.50426778e-05
1.504705948e-05
1.50647169e-05
1.513454074e-05
1.540217915e-05
1.637704215e-05
1.963824537e-05
2.903502132e-05
1.504125824e-05
1.504125905e-05
1.504126159e-05
1.504127346e-05
1.504132178e-05
1.504151329e-05
1.5042268e-05
1.50451978e-05
1.505634632e-05
1.509757597e-05
1.524376395e-05
1.57305526e-05
1.720357902e-05
2.103515571e-05
1.504125759e-05
1.50412579e-05
1.504126001e-05
1.504126887e-05
1.504130269e-05
1.504143082e-05
1.504190714e-05
1.504364873e-05
1.504985074e-05
1.507116834e-05
1.514094645e-05
1.535433326e-05
1.594677878e-05
1.73765356e-05
2.018675487e-05
1.50412574e-05
1.504125779e-05
1.504125939e-05
1.504126572e-05
1.504129097e-05
1.504138376e-05
1.504171231e-05
1.504285063e-05
1.504666842e-05
1.505895584e-05
1.509643672e-05
1.520299615e-05
1.547896713e-05
1.611018273e-05
1.733771131e-05
1.504125645e-05
1.504125679e-05
1.504125863e-05
1.504126397e-05
1.504128263e-05
1.504134906e-05
1.504157796e-05
1.504234055e-05
1.504479114e-05
1.505232806e-05
1.507426872e-05
1.51338366e-05
1.528187416e-05
1.561096162e-05
1.504125576e-05
1.50412562e-05
1.504125841e-05
1.504126523e-05
1.504128955e-05
1.504137808e-05
1.504169476e-05
1.504279759e-05
1.504651664e-05
1.505856797e-05
1.509562038e-05
1.520186864e-05
1.54793126e-05
1.611776937e-05
1.504125592e-05
1.504125656e-05
1.504125945e-05
1.504126894e-05
1.504130246e-05
1.504142942e-05
1.504190555e-05
1.504364766e-05
1.504985074e-05
1.507116946e-05
1.514095135e-05
1.535434989e-05
1.594682672e-05
1.73766262e-05
1.504125643e-05
1.504125688e-05
1.504125987e-05
1.5041271e-05
1.504131438e-05
1.504148291e-05
1.504213326e-05
1.504460752e-05
1.505382825e-05
1.508719316e-05
1.520295017e-05
1.558047962e-05
1.670192619e-05
1.957843164e-05
1.504125693e-05
1.504125769e-05
1.504126046e-05
1.504127223e-05
1.504131962e-05
1.504150689e-05
1.504224113e-05
1.504508592e-05
1.505593859e-05
1.509639657e-05
1.52421853e-05
1.5741018e-05
1.731276617e-05
2.161789972e-05
1.504125713e-05
1.504125828e-05
1.504126079e-05
1.504127108e-05
1.504131403e-05
1.50414825e-05
1.504213336e-05
1.504460836e-05
1.505382905e-05
1.508719376e-05
1.520294953e-05
1.558047392e-05
1.670190448e-05
1.957835916e-05
1.50412568e-05
1.504125757e-05
1.504125929e-05
1.50412675e-05
1.504130108e-05
1.504142901e-05
1.504190557e-05
1.504364749e-05
1.504985036e-05
1.507116904e-05
1.514094926e-05
1.535434275e-05
1.59468072e-05
1.737659072e-05
1.504125654e-05
1.504125706e-05
1.504125867e-05
1.504126528e-05
1.504128961e-05
1.504137864e-05
1.504169552e-05
1.5042798e-05
1.504651678e-05
1.505856751e-05
1.50956186e-05
1.520186382e-05
1.547930141e-05
1.611776012e-05
1.504125725e-05
1.50412574e-05
1.50412586e-05
1.504126391e-05
1.50412826e-05
1.504134959e-05
1.504157819e-05
1.504234014e-05
1.504479023e-05
1.505232728e-05
1.507426747e-05
1.513383351e-05
1.528186611e-05
1.561094929e-05
1.624956516e-05
1.504125738e-05
1.504125779e-05
1.504125906e-05
1.504126317e-05
1.504127784e-05
1.504132971e-05
1.50415016e-05
1.504205494e-05
1.504376919e-05
1.504883683e-05
1.506300434e-05
1.509999805e-05
1.51889099e-05
1.538240906e-05
1.504125721e-05
1.504125744e-05
1.504125868e-05
1.504126374e-05
1.504128216e-05
1.504134873e-05
1.504157746e-05
1.504233948e-05
1.504478977e-05
1.505232657e-05
1.507426705e-05
1.513383624e-05
1.528187547e-05
1.561096323e-05
1.504125669e-05
1.504125715e-05
1.504125932e-05
1.504126658e-05
1.504129139e-05
1.504138309e-05
1.504171137e-05
1.504284904e-05
1.504666658e-05
1.505895477e-05
1.5096438e-05
1.52030067e-05
1.547899907e-05
1.611024463e-05
1.504125649e-05
1.504125684e-05
1.504125926e-05
1.504126797e-05
1.504129932e-05
1.504141782e-05
1.504185e-05
1.504339382e-05
1.50487568e-05
1.506668524e-05
1.512367279e-05
1.52928826e-05
1.575009116e-05
1.683141512e-05
1.504125692e-05
1.504125766e-05
1.504125968e-05
1.504126857e-05
1.504130271e-05
1.50414322e-05
1.50419121e-05
1.504364982e-05
1.504978142e-05
1.507068177e-05
1.513870126e-05
1.534640732e-05
1.592566637e-05
1.733784526e-05
1.504125705e-05
1.504125783e-05
1.504125944e-05
1.504126714e-05
1.504129862e-05
1.504141719e-05
1.504185019e-05
1.504339525e-05
1.504875866e-05
1.506668684e-05
1.512367361e-05
1.529288107e-05
1.575008373e-05
1.683139235e-05
1.504125691e-05
1.504125733e-05
1.504125845e-05
1.504126525e-05
1.504129069e-05
1.504138342e-05
1.504171208e-05
1.504284994e-05
1.504666761e-05
1.505895613e-05
1.509643885e-05
1.520300432e-05
1.547899045e-05
1.611022607e-05
1.504125657e-05
1.504125696e-05
1.504125825e-05
1.504126336e-05
1.504128238e-05
1.50413492e-05
1.504157776e-05
1.504233986e-05
1.504479014e-05
1.505232761e-05
1.507426816e-05
1.513383519e-05
1.528187119e-05
1.561095868e-05
1.504125685e-05
1.504125742e-05
1.504125868e-05
1.50412627e-05
1.504127781e-05
1.504132963e-05
1.504150159e-05
1.504205482e-05
1.504376889e-05
1.5048837e-05
1.506300445e-05
1.509999694e-05
1.518890806e-05
1.538241087e-05
)
;

boundaryField
{
    top
    {
        type            calculated;
        value           nonuniform List<scalar> 
134
(
1.504125618e-05
1.504125721e-05
1.50412572e-05
1.504125707e-05
1.504125743e-05
1.504125707e-05
1.50412574e-05
1.504125725e-05
1.504125685e-05
1.504125639e-05
1.504125712e-05
1.504125748e-05
1.504125733e-05
1.504125829e-05
1.504125739e-05
1.504125779e-05
1.50412574e-05
1.504125742e-05
1.504125787e-05
1.504125819e-05
1.504125921e-05
1.504125951e-05
1.504126046e-05
1.50412594e-05
1.504125939e-05
1.50412586e-05
1.504125868e-05
1.504126267e-05
1.50412634e-05
1.504126592e-05
1.50412681e-05
1.504126947e-05
1.504126793e-05
1.504126572e-05
1.504126391e-05
1.50412627e-05
1.504127759e-05
1.504128186e-05
1.504129113e-05
1.50413001e-05
1.504130395e-05
1.504129961e-05
1.504129097e-05
1.50412826e-05
1.504127781e-05
1.504132943e-05
1.504134861e-05
1.504138357e-05
1.504141824e-05
1.504143366e-05
1.504141803e-05
1.504138376e-05
1.504134959e-05
1.504132963e-05
1.504150196e-05
1.504157825e-05
1.504171184e-05
1.504185037e-05
1.504191283e-05
1.504185073e-05
1.504171231e-05
1.504157819e-05
1.504150159e-05
1.504205542e-05
1.504234053e-05
1.504284966e-05
1.504339565e-05
1.504365038e-05
1.504339611e-05
1.504285063e-05
1.504234014e-05
1.504205482e-05
1.504376937e-05
1.504479039e-05
1.50466674e-05
1.504875836e-05
1.504978115e-05
1.504875903e-05
1.504666842e-05
1.504479023e-05
1.504376889e-05
1.504883637e-05
1.505232637e-05
1.505895401e-05
1.50666841e-05
1.507067912e-05
1.506668524e-05
1.505895584e-05
1.505232728e-05
1.5048837e-05
1.506300105e-05
1.507426344e-05
1.509643186e-05
1.5123663e-05
1.513869032e-05
1.512366691e-05
1.509643672e-05
1.507426747e-05
1.506300445e-05
1.509998817e-05
1.513382241e-05
1.520298281e-05
1.529284656e-05
1.534636812e-05
1.529285733e-05
1.520299615e-05
1.513383351e-05
1.509999694e-05
1.518888626e-05
1.528183772e-05
1.547893062e-05
1.57499845e-05
1.592554582e-05
1.575001603e-05
1.547896713e-05
1.528186611e-05
1.518890806e-05
1.538236212e-05
1.561088512e-05
1.611009563e-05
1.683117019e-05
1.733755853e-05
1.683125016e-05
1.611018273e-05
1.561094929e-05
1.538241087e-05
1.575791189e-05
1.62494485e-05
1.733755166e-05
1.894805911e-05
2.013562077e-05
1.894821028e-05
1.733771131e-05
1.624956516e-05
)
;
    }
    bottom
    {
        type            calculated;
        value           nonuniform List<scalar> 
127
(
1.504125676e-05
1.504125568e-05
1.504125626e-05
1.504125588e-05
1.504125614e-05
1.504125646e-05
1.504125671e-05
1.504125645e-05
1.504125738e-05
1.5041257e-05
1.504125608e-05
1.504125662e-05
1.504125644e-05
1.50412567e-05
1.504125682e-05
1.504125709e-05
1.504125679e-05
1.504125779e-05
1.504125821e-05
1.504125779e-05
1.504125833e-05
1.504125899e-05
1.504125865e-05
1.504125871e-05
1.504125873e-05
1.504125863e-05
1.504125906e-05
1.504126251e-05
1.504126327e-05
1.504126549e-05
1.504126776e-05
1.504126747e-05
1.504126695e-05
1.504126562e-05
1.504126397e-05
1.504126317e-05
1.504127736e-05
1.504128225e-05
1.504129042e-05
1.504129949e-05
1.504130196e-05
1.504129861e-05
1.504129093e-05
1.504128263e-05
1.504127784e-05
1.504132859e-05
1.504134864e-05
1.50413828e-05
1.504141748e-05
1.504143193e-05
1.504141731e-05
1.504138319e-05
1.504134906e-05
1.504132971e-05
1.504150035e-05
1.50415768e-05
1.504171056e-05
1.504184909e-05
1.504191151e-05
1.504184983e-05
1.504171147e-05
1.504157796e-05
1.50415016e-05
1.504205369e-05
1.504233849e-05
1.504284831e-05
1.504339373e-05
1.504364912e-05
1.504339432e-05
1.504284963e-05
1.504234055e-05
1.504205494e-05
1.504376759e-05
1.504478817e-05
1.504666572e-05
1.504875682e-05
1.504978044e-05
1.504875764e-05
1.504666804e-05
1.504479114e-05
1.504376919e-05
1.50488351e-05
1.505232496e-05
1.505895299e-05
1.506668399e-05
1.50706796e-05
1.506668526e-05
1.505895622e-05
1.505232806e-05
1.504883683e-05
1.506300139e-05
1.507426444e-05
1.509643415e-05
1.512366814e-05
1.51386969e-05
1.512367146e-05
1.509643889e-05
1.507426872e-05
1.506300434e-05
1.509999173e-05
1.513382981e-05
1.520299717e-05
1.529287065e-05
1.534639857e-05
1.52928782e-05
1.52030056e-05
1.51338366e-05
1.509999805e-05
1.518889807e-05
1.528186254e-05
1.547898056e-05
1.575006768e-05
1.592564866e-05
1.575008222e-05
1.547899496e-05
1.528187416e-05
1.51889099e-05
1.538239484e-05
1.561095512e-05
1.611023076e-05
1.683139408e-05
1.733783409e-05
1.68314082e-05
1.611023984e-05
1.561096162e-05
1.538240906e-05
1.575798061e-05
)
;
    }
    side-walls
    {
        type            calculated;
        value           nonuniform List<scalar> 
261
(
1.504125676e-05
1.504125646e-05
1.504125725e-05
1.504125736e-05
1.504125838e-05
1.504125763e-05
1.50412565e-05
1.504125606e-05
1.504125618e-05
1.5041257e-05
1.504125694e-05
1.504125804e-05
1.504125844e-05
1.504125913e-05
1.504125826e-05
1.504125662e-05
1.504125632e-05
1.504125639e-05
1.504125821e-05
1.504125866e-05
1.504125998e-05
1.504126093e-05
1.50412613e-05
1.504126085e-05
1.504125877e-05
1.50412582e-05
1.504125787e-05
1.504126251e-05
1.504126352e-05
1.504126679e-05
1.504126921e-05
1.504127005e-05
1.504126937e-05
1.504126602e-05
1.504126381e-05
1.504126267e-05
1.504127736e-05
1.504128247e-05
1.504129201e-05
1.504130057e-05
1.504130448e-05
1.504130076e-05
1.504129163e-05
1.504128283e-05
1.504127759e-05
1.504132859e-05
1.504134944e-05
1.504138445e-05
1.504141896e-05
1.504143437e-05
1.504141909e-05
1.504138435e-05
1.504135023e-05
1.504132943e-05
1.504150035e-05
1.504157858e-05
1.504171286e-05
1.504185111e-05
1.50419139e-05
1.504185092e-05
1.504171249e-05
1.50415792e-05
1.504150196e-05
1.504205369e-05
1.504234066e-05
1.504285057e-05
1.504339574e-05
1.504365141e-05
1.50433955e-05
1.504284995e-05
1.504234096e-05
1.504205542e-05
1.504376759e-05
1.504479026e-05
1.504666725e-05
1.504875792e-05
1.504978167e-05
1.50487579e-05
1.504666739e-05
1.504479053e-05
1.504376937e-05
1.50488351e-05
1.505232644e-05
1.505895394e-05
1.50666832e-05
1.507067829e-05
1.506668315e-05
1.505895355e-05
1.505232599e-05
1.504883637e-05
1.506300139e-05
1.50742642e-05
1.509643245e-05
1.512366116e-05
1.513868644e-05
1.512366053e-05
1.509643098e-05
1.507426324e-05
1.506300105e-05
1.509999173e-05
1.513382626e-05
1.520298534e-05
1.529284278e-05
1.534635593e-05
1.529283901e-05
1.520298041e-05
1.513382191e-05
1.509998817e-05
1.518889807e-05
1.528185031e-05
1.547894134e-05
1.574998058e-05
1.592551627e-05
1.574996719e-05
1.547892395e-05
1.528183587e-05
1.518888626e-05
1.538239484e-05
1.561092164e-05
1.611013191e-05
1.683117854e-05
1.733750545e-05
1.683114047e-05
1.611008326e-05
1.561088097e-05
1.538236212e-05
1.575798061e-05
1.624952849e-05
1.733764103e-05
1.89481116e-05
2.013556919e-05
1.894803089e-05
1.733753783e-05
1.624944295e-05
1.575791189e-05
1.504125738e-05
1.504125721e-05
1.504125669e-05
1.504125649e-05
1.504125692e-05
1.504125705e-05
1.504125691e-05
1.504125657e-05
1.504125685e-05
1.504125779e-05
1.504125744e-05
1.504125715e-05
1.504125684e-05
1.504125766e-05
1.504125783e-05
1.504125733e-05
1.504125696e-05
1.504125742e-05
1.504125906e-05
1.504125868e-05
1.504125932e-05
1.504125926e-05
1.504125968e-05
1.504125944e-05
1.504125845e-05
1.504125825e-05
1.504125868e-05
1.504126317e-05
1.504126374e-05
1.504126658e-05
1.504126797e-05
1.504126857e-05
1.504126714e-05
1.504126525e-05
1.504126336e-05
1.50412627e-05
1.504127784e-05
1.504128216e-05
1.504129139e-05
1.504129932e-05
1.504130271e-05
1.504129862e-05
1.504129069e-05
1.504128238e-05
1.504127781e-05
1.504132971e-05
1.504134873e-05
1.504138309e-05
1.504141782e-05
1.50414322e-05
1.504141719e-05
1.504138342e-05
1.50413492e-05
1.504132963e-05
1.50415016e-05
1.504157746e-05
1.504171137e-05
1.504185e-05
1.50419121e-05
1.504185019e-05
1.504171208e-05
1.504157776e-05
1.504150159e-05
1.504205494e-05
1.504233948e-05
1.504284904e-05
1.504339382e-05
1.504364982e-05
1.504339525e-05
1.504284994e-05
1.504233986e-05
1.504205482e-05
1.504376919e-05
1.504478977e-05
1.504666658e-05
1.50487568e-05
1.504978142e-05
1.504875866e-05
1.504666761e-05
1.504479014e-05
1.504376889e-05
1.504883683e-05
1.505232657e-05
1.505895477e-05
1.506668524e-05
1.507068177e-05
1.506668684e-05
1.505895613e-05
1.505232761e-05
1.5048837e-05
1.506300434e-05
1.507426705e-05
1.5096438e-05
1.512367279e-05
1.513870126e-05
1.512367361e-05
1.509643885e-05
1.507426816e-05
1.506300445e-05
1.509999805e-05
1.513383624e-05
1.52030067e-05
1.52928826e-05
1.534640732e-05
1.529288107e-05
1.520300432e-05
1.513383519e-05
1.509999694e-05
1.51889099e-05
1.528187547e-05
1.547899907e-05
1.575009116e-05
1.592566637e-05
1.575008373e-05
1.547899045e-05
1.528187119e-05
1.518890806e-05
1.538240906e-05
1.561096323e-05
1.611024463e-05
1.683141512e-05
1.733784526e-05
1.683139235e-05
1.611022607e-05
1.561095868e-05
1.538241087e-05
)
;
    }
    inlet
    {
        type            calculated;
        value           nonuniform List<scalar> 
81
(
1.504125676e-05
1.504125646e-05
1.504125725e-05
1.504125736e-05
1.504125838e-05
1.504125763e-05
1.50412565e-05
1.504125606e-05
1.504125618e-05
1.504125568e-05
1.504125612e-05
1.504125737e-05
1.504125695e-05
1.504125712e-05
1.504125708e-05
1.504125724e-05
1.5041257e-05
1.504125721e-05
1.504125626e-05
1.504125625e-05
1.504125791e-05
1.504125789e-05
1.504125764e-05
1.50412578e-05
1.504125747e-05
1.504125761e-05
1.50412572e-05
1.504125588e-05
1.504125644e-05
1.504125829e-05
1.504125859e-05
1.504125911e-05
1.504125922e-05
1.504125893e-05
1.504125793e-05
1.504125707e-05
1.504125614e-05
1.504125726e-05
1.504125833e-05
1.504125974e-05
1.504126011e-05
1.504125988e-05
1.504125918e-05
1.504125798e-05
1.504125743e-05
1.504125646e-05
1.504125618e-05
1.504125807e-05
1.504125917e-05
1.504125888e-05
1.504125974e-05
1.504125857e-05
1.504125793e-05
1.504125707e-05
1.504125671e-05
1.504125629e-05
1.504125818e-05
1.504125841e-05
1.504125803e-05
1.504125855e-05
1.504125824e-05
1.504125759e-05
1.50412574e-05
1.504125645e-05
1.504125576e-05
1.504125592e-05
1.504125643e-05
1.504125693e-05
1.504125713e-05
1.50412568e-05
1.504125654e-05
1.504125725e-05
1.504125738e-05
1.504125721e-05
1.504125669e-05
1.504125649e-05
1.504125692e-05
1.504125705e-05
1.504125691e-05
1.504125657e-05
1.504125685e-05
)
;
    }
    outlet
    {
        type            calculated;
        value           nonuniform 0();
    }
    procBoundary0to1
    {
        type            processor;
        value           nonuniform List<scalar> 
97
(
1.640361874e-05
1.624957716e-05
1.731631821e-05
1.931010986e-05
2.218993693e-05
2.421209433e-05
2.218982743e-05
1.9309958e-05
1.731619414e-05
1.640352788e-05
1.624957716e-05