/*--------------------------------*- C++ -*----------------------------------*\
| =========                 |                                                 |
| \\      /  F ield         | OpenFOAM: The Open Source CFD Toolbox           |
|  \\    /   O peration     | Version:  4.x                                   |
|   \\  /    A nd           | Web:      www.OpenFOAM.org                      |
|    \\/     M anipulation  |                                                 |
\*---------------------------------------------------------------------------*/
FoamFile
{
    version     2.0;
    format      ascii;
    class       volScalarField;
    location    "2000";
    object      CO;
}
// * * * * * * * * * * * * * * * * * * * * * * * * * * * * * * * * * * * * * //

dimensions      [0 0 0 0 0 0 0];

internalField   nonuniform List<scalar> 
1175
(
0.3719638846
0.3719638844
0.3719638844
0.3719638845
0.3719638847
0.3719638843
0.3719638837
0.3719638815
0.371963874
0.3719638519
0.3719637881
0.3719636192
0.3719632059
0.3719622915
0.3719604892
0.3719638846
0.3719638849
0.3719638847
0.3719638846
0.3719638844
0.3719638843
0.3719638834
0.3719638801
0.3719638693
0.3719638356
0.3719637353
0.3719634583
0.371962757
0.3719611713
0.3719580451
0.3719638844
0.3719638844
0.3719638847
0.3719638848
0.3719638848
0.3719638842
0.3719638828
0.3719638779
0.3719638607
0.3719638049
0.3719636307
0.3719631261
0.3719617945
0.3719586951
0.3719525683
0.3719638844
0.3719638844
0.3719638847
0.3719638846
0.3719638848
0.3719638842
0.3719638822
0.3719638755
0.3719638514
0.3719637687
0.3719635003
0.3719626882
0.3719604513
0.3719550622
0.371944332
0.3719638845
0.3719638846
0.3719638847
0.3719638848
0.3719638846
0.3719638841
0.3719638817
0.3719638741
0.3719638463
0.3719637495
0.3719634277
0.3719624236
0.3719595663
0.3719524643
0.3719381415
0.3719638845
0.3719638845
0.3719638845
0.3719638846
0.3719638846
0.371963884
0.3719638819
0.3719638754
0.3719638513
0.3719637685
0.3719635006
0.3719626883
0.3719604509
0.371955062
0.3719443323
0.3719638846
0.3719638846
0.3719638846
0.3719638846
0.3719638843
0.371963884
0.3719638823
0.3719638778
0.3719638606
0.3719638048
0.3719636307
0.371963126
0.3719617944
0.371958695
0.3719525685
0.3719638847
0.3719638843
0.3719638845
0.3719638845
0.3719638845
0.3719638842
0.3719638833
0.3719638799
0.3719638691
0.3719638356
0.3719637353
0.371963458
0.3719627571
0.3719611718
0.3719580457
0.3719638846
0.3719638846
0.3719638846
0.3719638846
0.3719638847
0.3719638843
0.3719638835
0.3719638811
0.3719638737
0.3719638515
0.3719637879
0.371963619
0.3719632059
0.3719622915
0.3719604895
0.3719638845
0.3719638846
0.3719638845
0.3719638846
0.3719638844
0.371963884
0.3719638833
0.3719638802
0.3719638693
0.3719638356
0.3719637354
0.3719634585
0.3719627571
0.3719611713
0.3719638844
0.3719638844
0.3719638847
0.3719638845
0.3719638842
0.3719638841
0.3719638827
0.3719638782
0.3719638613
0.3719638064
0.3719636341
0.3719631296
0.3719617871
0.3719586429
0.3719524219
0.3719638847
0.3719638844
0.3719638842
0.3719638843
0.3719638845
0.371963884
0.3719638819
0.3719638742
0.3719638459
0.3719637468
0.3719634159
0.3719623831
0.3719594598
0.3719522745
0.3719379098
0.3719638844
0.3719638844
0.3719638846
0.3719638845
0.3719638845
0.3719638837
0.3719638807
0.3719638697
0.3719638272
0.3719636701
0.371963113
0.3719612587
0.3719556383
0.3719409436
0.3719108281
0.3719638842
0.3719638845
0.3719638846
0.3719638846
0.3719638846
0.3719638837
0.3719638803
0.3719638673
0.3719638172
0.3719636254
0.3719629186
0.3719604462
0.3719524885
0.3719302378
0.3718825055
0.3719638843
0.3719638844
0.3719638842
0.3719638847
0.3719638842
0.3719638835
0.3719638808
0.3719638695
0.3719638273
0.3719636699
0.3719631133
0.3719612586
0.3719556384
0.3719409435
0.3719108294
0.3719638843
0.3719638842
0.3719638846
0.3719638846
0.371963884
0.3719638836
0.3719638815
0.3719638738
0.3719638458
0.3719637467
0.3719634159
0.371962383
0.3719594599
0.371952275
0.3719379111
0.3719638842
0.3719638843
0.3719638846
0.3719638845
0.3719638844
0.3719638839
0.3719638825
0.3719638778
0.3719638612
0.3719638062
0.371963634
0.3719631294
0.3719617871
0.3719586429
0.3719524231
0.3719638844
0.3719638844
0.3719638845
0.3719638842
0.3719638843
0.3719638841
0.3719638833
0.3719638801
0.3719638694
0.3719638353
0.3719637353
0.3719634583
0.3719627573
0.3719611713
0.3719580455
0.3719638845
0.3719638845
0.3719638845
0.3719638846
0.3719638843
0.371963884
0.3719638826
0.3719638774
0.3719638608
0.3719638047
0.3719636308
0.3719631263
0.3719617947
0.3719586941
0.3719638844
0.3719638842
0.3719638844
0.3719638845
0.3719638844
0.3719638838
0.3719638817
0.3719638739
0.3719638458
0.371963747
0.3719634159
0.3719623831
0.3719594598
0.3719522731
0.3719638845
0.3719638846
0.3719638846
0.3719638845
0.3719638843
0.3719638833
0.3719638801
0.3719638668
0.3719638152
0.37196362
0.371962913
0.3719605104
0.3719530953
0.3719334404
0.3718929907
0.3719638844
0.3719638843
0.3719638846
0.3719638846
0.3719638842
0.3719638831
0.3719638783
0.3719638583
0.3719637752
0.3719634398
0.3719621259
0.3719572377
0.3719405493
0.3718915079
0.3717837884
0.3719638844
0.3719638845
0.3719638843
0.3719638843
0.371963884
0.371963883
0.3719638775
0.3719638536
0.3719637519
0.3719633211
0.3719615321
0.3719543414
0.3719271765
0.371836529
0.3716104688
0.3719638846
0.3719638844
0.3719638845
0.3719638843
0.3719638842
0.3719638828
0.3719638782
0.3719638581
0.3719637751
0.3719634396
0.3719621257
0.3719572376
0.3719405497
0.3718915103
0.3717837959
0.3719638844
0.3719638845
0.3719638844
0.3719638842
0.3719638842
0.3719638833
0.3719638799
0.3719638666
0.371963815
0.3719636198
0.371962913
0.3719605104
0.3719530959
0.3719334429
0.3718929987
0.3719638845
0.3719638845
0.3719638845
0.3719638843
0.3719638843
0.3719638838
0.3719638816
0.371963874
0.3719638456
0.3719637466
0.3719634159
0.3719623833
0.37195946
0.3719522749
0.3719379111
0.3719638845
0.3719638846
0.3719638843
0.3719638845
0.3719638843
0.3719638839
0.3719638826
0.3719638776
0.3719638607
0.3719638049
0.3719636306
0.371963126
0.3719617944
0.3719586947
0.3719525686
0.3719638843
0.3719638844
0.3719638845
0.3719638846
0.3719638846
0.3719638838
0.3719638821
0.3719638754
0.3719638513
0.3719637685
0.3719635004
0.3719626884
0.3719604509
0.3719550608
0.3719638846
0.3719638845
0.3719638844
0.3719638847
0.3719638845
0.3719638839
0.3719638808
0.3719638697
0.3719638273
0.3719636701
0.3719631133
0.3719612585
0.3719556376
0.37194094
0.3719638845
0.3719638844
0.3719638845
0.3719638842
0.371963884
0.3719638832
0.3719638783
0.3719638581
0.3719637755
0.37196344
0.3719621259
0.3719572376
0.3719405477
0.3718914994
0.3719638845
0.3719638846
0.3719638849
0.3719638845
0.3719638839
0.3719638825
0.3719638751
0.3719638434
0.3719637021
0.3719630795
0.3719603746
0.3719489914
0.3719039979
0.371747651
0.3713473756
0.3719638845
0.3719638847
0.3719638847
0.3719638843
0.3719638841
0.3719638822
0.3719638738
0.3719638348
0.3719636541
0.3719628071
0.3719587979
0.3719397998
0.3718513134
0.3714652919
0.3701230934
0.3719638846
0.3719638845
0.3719638842
0.3719638842
0.3719638839
0.3719638821
0.3719638751
0.3719638433
0.371963702
0.3719630791
0.3719603747
0.3719489917
0.3719039999
0.3717476637
0.3713474327
0.3719638842
0.3719638845
0.3719638842
0.3719638842
0.3719638842
0.3719638828
0.3719638781
0.371963858
0.3719637753
0.3719634398
0.3719621257
0.3719572373
0.371940549
0.3718915093
0.371783795
0.3719638847
0.3719638847
0.3719638846
0.3719638846
0.3719638845
0.3719638838
0.3719638809
0.3719638695
0.3719638272
0.3719636699
0.3719631134
0.3719612589
0.3719556385
0.3719409437
0.371910829
0.3719638847
0.3719638849
0.3719638847
0.3719638847
0.3719638845
0.371963884
0.3719638821
0.3719638751
0.371963851
0.3719637684
0.3719635003
0.3719626882
0.3719604511
0.3719550618
0.371944332
0.3719638843
0.3719638844
0.3719638846
0.3719638845
0.3719638843
0.3719638837
0.3719638815
0.371963874
0.3719638464
0.3719637493
0.3719634275
0.3719624236
0.3719595658
0.3719524626
0.3719638844
0.3719638845
0.3719638846
0.3719638844
0.3719638841
0.3719638833
0.3719638803
0.3719638675
0.3719638172
0.3719636255
0.3719629188
0.3719604462
0.3719524871
0.3719302327
0.3719638847
0.3719638844
0.3719638844
0.3719638843
0.371963884
0.3719638828
0.3719638775
0.3719638532
0.3719637515
0.3719633212
0.3719615319
0.3719543407
0.3719271721
0.3718365085
0.3719638843
0.3719638847
0.3719638848
0.3719638846
0.3719638839
0.3719638822
0.3719638738
0.3719638348
0.3719636543
0.371962807
0.3719587975
0.371939798
0.3718513035
0.3714652258
0.3719638846
0.3719638845
0.3719638846
0.3719638843
0.3719638837
0.3719638817
0.3719638715
0.3719638234
0.3719635851
0.37196237
0.3719558788
0.3719191635
0.3716971862
0.3702532572
0.360082976
0.3719638846
0.3719638846
0.3719638842
0.3719638844
0.3719638836
0.3719638821
0.3719638738
0.3719638348
0.3719636542
0.3719628069
0.3719587977
0.3719397989
0.37185131
0.3714652802
0.3701230801
0.3719638844
0.3719638843
0.3719638845
0.3719638844
0.371963884
0.3719638826
0.3719638771
0.3719638531
0.3719637515
0.3719633209
0.3719615318
0.3719543411
0.3719271749
0.3718365251
0.3716104648
0.3719638845
0.3719638845
0.3719638844
0.3719638844
0.3719638845
0.3719638835
0.3719638801
0.3719638672
0.371963817
0.3719636255
0.3719629185
0.3719604461
0.3719524883
0.3719302372
0.3718825045
0.3719638847
0.3719638846
0.3719638846
0.3719638845
0.3719638843
0.3719638837
0.3719638818
0.3719638738
0.3719638459
0.3719637494
0.3719634274
0.3719624238
0.3719595661
0.3719524641
0.3719381414
0.3719638845
0.3719638846
0.3719638846
0.3719638847
0.3719638846
0.3719638841
0.3719638821
0.3719638751
0.3719638511
0.3719637687
0.3719635006
0.3719626884
0.3719604505
0.3719550606
0.3719638846
0.3719638848
0.3719638846
0.3719638846
0.3719638843
0.3719638837
0.3719638805
0.3719638696
0.3719638273
0.3719636701
0.3719631134
0.3719612585
0.3719556373
0.37194094
0.3719638843
0.3719638844
0.3719638843
0.3719638845
0.3719638842
0.3719638828
0.3719638783
0.3719638582
0.3719637755
0.3719634399
0.3719621259
0.3719572371
0.3719405464
0.371891498
0.3719638846
0.3719638846
0.3719638844
0.3719638844
0.3719638838
0.3719638822
0.371963875
0.3719638431
0.3719637018
0.3719630791
0.3719603742
0.3719489901
0.3719039929
0.3717476313
0.3719638845
0.3719638846
0.3719638844
0.3719638842
0.3719638837
0.371963882
0.3719638736
0.3719638348
0.3719636543
0.3719628069
0.3719587975
0.3719397976
0.3718513009
0.3714652182
0.3719638844
0.3719638845
0.3719638845
0.3719638844
0.371963884
0.3719638824
0.371963875
0.3719638432
0.371963702
0.3719630792
0.3719603742
0.3719489904
0.3719039941
0.3717476359
0.3719638841
0.3719638843
0.371963884
0.3719638841
0.371963884
0.3719638827
0.3719638781
0.371963858
0.3719637751
0.3719634397
0.3719621256
0.3719572372
0.3719405477
0.3718915033
0.3717837762
0.3719638841
0.3719638843
0.3719638844
0.3719638841
0.3719638842
0.3719638834
0.3719638805
0.3719638695
0.3719638271
0.37196367
0.3719631131
0.3719612584
0.3719556376
0.371940942
0.371910826
0.3719638841
0.3719638841
0.3719638842
0.3719638842
0.3719638843
0.3719638838
0.3719638818
0.3719638749
0.3719638509
0.3719637682
0.3719635003
0.3719626883
0.3719604508
0.3719550614
0.3719443316
0.3719638848
0.3719638848
0.3719638847
0.3719638849
0.3719638847
0.3719638843
0.3719638828
0.3719638779
0.3719638608
0.3719638048
0.3719636307
0.3719631262
0.3719617941
0.371958694
0.3719638845
0.3719638846
0.3719638848
0.3719638848
0.3719638846
0.3719638838
0.3719638818
0.3719638741
0.3719638459
0.3719637467
0.371963416
0.371962383
0.3719594592
0.3719522729
0.3719638845
0.3719638845
0.3719638846
0.3719638847
0.3719638845
0.3719638835
0.3719638802
0.3719638668
0.3719638153
0.37196362
0.3719629133
0.3719605101
0.3719530941
0.3719334375
0.3719638844
0.3719638846
0.3719638844
0.3719638843
0.3719638842
0.3719638828
0.3719638782
0.371963858
0.371963775
0.3719634392
0.3719621254
0.3719572369
0.3719405463
0.3718914978
0.3719638846
0.3719638845
0.3719638845
0.3719638843
0.3719638841
0.3719638827
0.3719638774
0.3719638533
0.3719637513
0.3719633207
0.3719615317
0.3719543401
0.3719271707
0.3718365071
0.3719638845
0.3719638846
0.3719638841
0.3719638841
0.3719638838
0.371963883
0.3719638781
0.3719638578
0.3719637751
0.3719634395
0.3719621254
0.3719572367
0.3719405465
0.371891499
0.3719638842
0.3719638841
0.3719638841
0.3719638843
0.3719638839
0.3719638833
0.37196388
0.3719638668
0.3719638151
0.37196362
0.371962913
0.3719605099
0.3719530942
0.3719334378
0.3719638841
0.371963884
0.3719638841
0.371963884
0.3719638838
0.3719638833
0.3719638813
0.3719638737
0.3719638455
0.3719637464
0.3719634154
0.3719623826
0.3719594594
0.3719522736
0.3719379077
0.3719638841
0.3719638841
0.3719638842
0.3719638842
0.3719638843
0.3719638839
0.3719638823
0.3719638774
0.3719638603
0.3719638045
0.3719636305
0.3719631258
0.3719617942
0.3719586945
0.3719525676
0.3719638851
0.3719638853
0.3719638846
0.3719638849
0.3719638847
0.3719638843
0.3719638835
0.3719638802
0.3719638693
0.3719638356
0.3719637355
0.3719634582
0.3719627567
0.3719611708
0.3719638848
0.3719638844
0.3719638847
0.3719638849
0.3719638846
0.3719638842
0.3719638829
0.3719638782
0.3719638612
0.3719638062
0.3719636338
0.3719631295
0.371961787
0.371958642
0.3719638844
0.3719638843
0.3719638847
0.3719638844
0.3719638844
0.371963884
0.3719638818
0.3719638741
0.3719638459
0.3719637468
0.3719634156
0.3719623827
0.3719594589
0.3719522728
0.3719638846
0.3719638845
0.3719638844
0.3719638844
0.3719638842
0.3719638837
0.3719638808
0.3719638697
0.3719638269
0.3719636699
0.3719631132
0.3719612582
0.371955637
0.3719409394
0.3719638845
0.3719638845
0.3719638845
0.3719638841
0.371963884
0.3719638832
0.3719638799
0.3719638669
0.371963817
0.3719636253
0.3719629184
0.3719604457
0.3719524865
0.3719302318
0.3719638843
0.3719638842
0.3719638844
0.3719638844
0.371963884
0.3719638834
0.3719638804
0.3719638693
0.3719638264
0.3719636694
0.3719631125
0.3719612579
0.3719556371
0.3719409399
0.3719638841
0.371963884
0.3719638841
0.3719638841
0.3719638839
0.3719638833
0.3719638814
0.3719638738
0.3719638457
0.3719637466
0.3719634156
0.3719623826
0.371959459
0.3719522728
0.3719638841
0.3719638841
0.3719638843
0.3719638841
0.371963884
0.3719638837
0.3719638827
0.3719638776
0.3719638612
0.3719638062
0.3719636335
0.371963129
0.3719617869
0.371958642
0.3719638844
0.3719638842
0.371963884
0.3719638842
0.3719638842
0.3719638837
0.3719638828
0.3719638795
0.3719638688
0.3719638352
0.3719637351
0.3719634581
0.3719627567
0.3719611709
0.3719580446
0.3719638849
0.3719638846
0.3719638851
0.3719638848
0.3719638847
0.3719638843
0.3719638837
0.3719638813
0.371963874
0.3719638517
0.371963788
0.3719636192
0.3719632059
0.3719622913
0.3719638846
0.3719638846
0.3719638847
0.3719638846
0.3719638845
0.3719638842
0.3719638834
0.3719638801
0.3719638694
0.3719638355
0.3719637353
0.3719634581
0.371962757
0.371961171
0.3719638844
0.3719638845
0.3719638847
0.3719638846
0.3719638847
0.3719638842
0.3719638827
0.3719638776
0.3719638607
0.3719638047
0.3719636307
0.371963126
0.371961794
0.3719586936
0.3719638845
0.3719638844
0.3719638846
0.3719638846
0.3719638844
0.3719638838
0.3719638818
0.3719638751
0.3719638512
0.3719637683
0.3719635002
0.3719626879
0.3719604505
0.3719550603
0.3719638842
0.3719638843
0.3719638843
0.3719638843
0.3719638841
0.3719638835
0.3719638815
0.3719638736
0.3719638461
0.3719637493
0.3719634273
0.3719624231
0.3719595655
0.3719524622
0.3719638843
0.3719638842
0.3719638841
0.3719638841
0.3719638842
0.3719638837
0.3719638818
0.3719638748
0.3719638511
0.3719637681
0.3719635002
0.3719626879
0.3719604502
0.3719550604
0.3719638842
0.3719638841
0.3719638839
0.371963884
0.371963884
0.3719638837
0.3719638823
0.3719638773
0.3719638603
0.3719638042
0.3719636302
0.3719631257
0.371961794
0.3719586936
0.3719638841
0.3719638842
0.371963884
0.371963884
0.371963884
0.3719638839
0.3719638828
0.3719638796
0.3719638688
0.371963835
0.371963735
0.3719634581
0.3719627568
0.3719611707
0.3719638841
0.371963884
0.3719638839
0.3719638838
0.3719638838
0.3719638836
0.3719638831
0.3719638807
0.3719638734
0.3719638511
0.3719637876
0.3719636186
0.3719632055
0.3719622908
)
;

boundaryField
{
    top
    {
        type            zeroGradient;
    }
    bottom
    {
        type            zeroGradient;
    }
    side-walls
    {
        type            zeroGradient;
    }
    inlet
    {
        type            zeroGradient;
    }
    outlet
    {
        type            zeroGradient;
    }
    procBoundary0to1
    {
        type            processor;
        value           nonuniform List<scalar> 
97
(
0.3719573472
0.371958045
0.3719527499
0.3719425859
0.3719276736
0.3719170088
0.3719276738
0.3719425861
0.3719527504
0.3719573474
0.371958045
0.371958045
0.3719423715
0.3719379078
0.3719162311
0.3718697114
0.3718257454
0.3718697127
0.3719162325
0.3719423723
0.3719527506
0.3719525679
0.3719379078
0.3719379078
0.3718389119
0.3717837727
0.3716667164
0.3714408234
0.3716667225
0.3718389171
0.3719162323
0.371942586
0.3719443311
0.3719108245
0.3717837727
0.3717837727
0.3710757365
0.3701229086
0.3699144215
0.3710757619
0.3716667215
0.3718697122
0.3719276735
0.37193814
0.3718824998
0.3716104396
0.3701229086
0.3701229086
0.3649021811
0.3701229141
0.3699144199
0.371347381
0.3714408206
0.3718257448
0.3719170086
0.371944331
0.3719108258
0.3717837832
0.3713473889
0.3701229141
0.371347381
0.371347381
0.3716667153
0.3718929904
0.3718697101
0.371927673
0.3719525678
0.3719379095
0.371892994
0.3717837831
0.3716104403
0.3717837838
0.3718929904
0.3718929904
0.3719162308
0.3719524214
0.3719425852
0.371958045
0.3719524226
0.3719379094
0.3719108258
0.3718824998
0.3719108261
0.3719379091
0.3719524214
0.3719524214
0.3719527499
0.3719604886
0.3719604892
0.3719580451
0.3719525678
0.3719443312
0.3719381402
0.3719443311
0.371952568
0.3719580449
0.3719604886
)
;
    }
}


// ************************************************************************* //
