/*--------------------------------*- C++ -*----------------------------------*\
| =========                 |                                                 |
| \\      /  F ield         | OpenFOAM: The Open Source CFD Toolbox           |
|  \\    /   O peration     | Version:  4.x                                   |
|   \\  /    A nd           | Web:      www.OpenFOAM.org                      |
|    \\/     M anipulation  |                                                 |
\*---------------------------------------------------------------------------*/
FoamFile
{
    version     2.0;
    format      ascii;
    class       volScalarField;
    location    "2000";
    object      CO2;
}
// * * * * * * * * * * * * * * * * * * * * * * * * * * * * * * * * * * * * * //

dimensions      [0 0 0 0 0 0 0];

internalField   nonuniform List<scalar> 
1175
(
0.006506718802
0.006506719247
0.006506719344
0.006506718848
0.006506718369
0.006506719165
0.006506719581
0.006506722422
0.006506732235
0.006506760416
0.006506843414
0.006507061891
0.00650759657
0.006508779222
0.006511110928
0.006506718634
0.006506717944
0.00650671835
0.00650671854
0.006506719018
0.006506719092
0.006506720025
0.006506724258
0.006506738282
0.006506781958
0.006506911784
0.006507269969
0.006508177288
0.006510228365
0.006514272511
0.00650671922
0.006506719204
0.006506718414
0.006506718153
0.006506718019
0.006506719056
0.00650672085
0.006506727214
0.006506749623
0.006506821716
0.006507047075
0.006507699545
0.006509421776
0.006513430277
0.00652135624
0.006506719296
0.00650671915
0.006506718483
0.006506718676
0.006506718019
0.006506718922
0.006506721533
0.00650673005
0.006506761158
0.006506868213
0.006507215877
0.006508266162
0.006511158531
0.006518128361
0.006532008025
0.006506719009
0.006506718583
0.006506718337
0.006506717975
0.006506718372
0.006506719095
0.006506722585
0.00650673221
0.006506768141
0.006506893333
0.006507309429
0.006508608029
0.006512303332
0.00652148838
0.006540013481
0.006506718923
0.006506718961
0.00650671891
0.006506718625
0.006506718474
0.006506719448
0.006506722433
0.006506730496
0.006506761432
0.006506868707
0.006507215077
0.006508265871
0.006511159795
0.00651812898
0.006532007337
0.006506718559
0.006506718744
0.006506718624
0.006506718661
0.006506719412
0.006506719695
0.006506722111
0.006506727442
0.006506749728
0.006506821952
0.006507046976
0.00650769988
0.006509422253
0.006513430711
0.00652135571
0.006506718463
0.006506719505
0.006506718822
0.006506718835
0.00650671886
0.006506719196
0.00650672043
0.006506724924
0.006506738956
0.006506782062
0.006506911802
0.006507270756
0.00650817694
0.006510227182
0.006514271245
0.00650671875
0.006506718686
0.006506718784
0.006506718696
0.006506718421
0.006506719143
0.006506720164
0.006506723448
0.006506732947
0.006506761535
0.00650684396
0.006507062218
0.006507596501
0.006508779424
0.006511110203
0.006506719014
0.006506718809
0.006506718853
0.006506718631
0.00650671907
0.006506719652
0.006506720236
0.006506724053
0.006506738458
0.006506781991
0.00650691151
0.006507269371
0.006508176846
0.006510228224
0.006506719319
0.006506719133
0.006506718288
0.006506718782
0.006506719454
0.006506719365
0.006506721163
0.006506726581
0.006506748768
0.006506819693
0.006507042442
0.006507694847
0.006509431466
0.006513498038
0.006521546091
0.00650671849
0.006506719193
0.006506719658
0.006506719353
0.006506718636
0.006506719162
0.006506721999
0.006506731926
0.006506768772
0.006506896941
0.006507324734
0.006508660464
0.006512441091
0.006521734261
0.006540314419
0.006506719309
0.006506719201
0.006506718794
0.00650671881
0.006506718689
0.00650671964
0.006506723753
0.006506737919
0.0065067929
0.006506996091
0.006507716996
0.006510114629
0.006517383062
0.006536386216
0.006575336127
0.006506719715
0.006506718838
0.006506718715
0.00650671872
0.006506718323
0.006506719607
0.006506724143
0.006506741166
0.00650680572
0.006507053758
0.006507967846
0.006511165229
0.006521455725
0.006550229046
0.006611958448
0.006506719484
0.006506719174
0.006506719718
0.006506718431
0.006506719408
0.006506720276
0.006506723646
0.006506738311
0.006506792565
0.006506996563
0.006507716115
0.006510114933
0.006517382707
0.00653638673
0.006575333627
0.006506719368
0.006506719872
0.00650671879
0.00650671872
0.006506719962
0.006506720302
0.006506723061
0.006506732938
0.006506769095
0.006506897363
0.00650732479
0.006508660765
0.006512440873
0.006521733248
0.006540311816
0.006506719692
0.006506719548
0.006506718651
0.006506718963
0.00650671894
0.006506719764
0.00650672181
0.006506727672
0.006506749136
0.006506820401
0.00650704278
0.006507695405
0.00650943148
0.006513498243
0.006521543853
0.006506719207
0.006506719324
0.00650671905
0.006506719654
0.00650671939
0.006506719376
0.006506720351
0.006506724461
0.006506738232
0.006506782759
0.006506911852
0.006507270016
0.006508176538
0.006510228406
0.006514271608
0.006506718899
0.006506718829
0.006506719057
0.006506718712
0.006506719231
0.006506719563
0.006506721476
0.006506728474
0.006506749336
0.006506822062
0.006507046787
0.006507699014
0.006509421188
0.006513432741
0.00650671923
0.006506719641
0.006506719184
0.00650671889
0.006506718867
0.006506719787
0.006506722484
0.006506732694
0.006506768834
0.006506896427
0.00650732477
0.006508660584
0.006512441122
0.006521737425
0.006506719065
0.006506718662
0.006506718548
0.006506718837
0.006506719195
0.006506720618
0.006506724507
0.006506741733
0.006506808566
0.006507060886
0.006507975357
0.006511082216
0.006520671672
0.006546090942
0.006598409828
0.006506719333
0.006506719388
0.006506718637
0.00650671847
0.006506719305
0.006506720499
0.006506726927
0.006506752546
0.006506860298
0.006507293952
0.006508992951
0.006515314038
0.006536893789
0.006600311684
0.00673961843
0.006506719245
0.006506718866
0.006506719336
0.006506719359
0.006506719827
0.006506720626
0.006506727522
0.006506758577
0.006506889904
0.006507447209
0.006509760562
0.00651905872
0.006554184031
0.006671394813
0.006963710546
0.006506718806
0.006506719113
0.006506719041
0.006506719317
0.006506719395
0.006506721377
0.006506727105
0.006506752974
0.006506860625
0.006507294479
0.006508993553
0.006515314413
0.006536893138
0.006600306625
0.006739602661
0.006506719259
0.006506719068
0.006506719325
0.006506719752
0.006506719376
0.006506720556
0.00650672515
0.006506742435
0.00650680902
0.006507061551
0.006507975366
0.006511082137
0.006520670388
0.006546085663
0.006598392361
0.006506718942
0.006506718918
0.006506718926
0.006506719318
0.006506719197
0.006506719925
0.006506722959
0.006506732585
0.006506769624
0.006506897645
0.006507324878
0.006508659927
0.006512440647
0.006521733462
0.006540311698
0.006506718822
0.00650671874
0.006506719483
0.006506718974
0.006506719383
0.006506719957
0.006506721315
0.006506727847
0.006506749535
0.006506821679
0.006507047321
0.006507699859
0.006509422074
0.006513431363
0.006521355523
0.006506719572
0.006506719169
0.006506718864
0.006506718574
0.006506718449
0.006506719817
0.006506721915
0.006506730371
0.006506761512
0.006506868884
0.006507215468
0.006508265448
0.006511159366
0.006518131736
0.006506718655
0.006506718851
0.006506719089
0.0065067184
0.006506718648
0.006506719195
0.006506723566
0.00650673794
0.006506792752
0.006506996039
0.006507716178
0.006510114944
0.006517384339
0.006536394482
0.00650671884
0.006506719102
0.006506718936
0.006506719518
0.006506719753
0.006506720346
0.006506726902
0.006506752993
0.006506859571
0.00650729344
0.00650899295
0.006515314164
0.006536897442
0.00660033062
0.00650671886
0.006506718592
0.006506717864
0.006506718743
0.00650671981
0.006506721415
0.006506731196
0.006506771983
0.006506954775
0.006507759458
0.006511257581
0.006525976858
0.006584156407
0.00678632703
0.007303950375
0.006506718994
0.006506718528
0.006506718332
0.006506719197
0.006506719414
0.006506721822
0.00650673264
0.006506783091
0.006507016925
0.006508111987
0.006513296038
0.006537860696
0.006652270681
0.007151377208
0.008886777227
0.006506718658
0.006506718982
0.006506719625
0.006506719471
0.006506719859
0.006506722429
0.006506731216
0.006506772203
0.006506954882
0.006507760522
0.006511257338
0.006525976127
0.006584152449
0.0067863006
0.007303827399
0.006506719673
0.006506719018
0.006506719599
0.006506719643
0.006506719194
0.006506721396
0.006506727367
0.006506753353
0.006506859938
0.006507294003
0.006508993462
0.006515314942
0.0065368947
0.006600308623
0.006739603842
0.006506718528
0.006506718383
0.006506718686
0.006506718616
0.006506718633
0.006506719624
0.00650672328
0.006506738455
0.006506792929
0.006506996597
0.006507715935
0.006510114108
0.006517382492
0.006536386051
0.006575334277
0.006506718488
0.006506717775
0.006506718523
0.006506718408
0.006506718731
0.006506719328
0.006506721865
0.006506731123
0.006506762104
0.006506869161
0.006507215755
0.006508266154
0.006511159152
0.006518129567
0.006532008129
0.006506719407
0.006506719243
0.006506718638
0.006506719012
0.006506719113
0.00650672011
0.006506723125
0.006506732487
0.006506767902
0.006506893798
0.006507309783
0.006508607938
0.00651230435
0.006521492097
0.006506719109
0.006506718859
0.006506718777
0.006506719185
0.006506719673
0.006506720757
0.006506724274
0.006506740671
0.006506805877
0.006507053672
0.006507967223
0.006511164941
0.006521458749
0.006550240739
0.006506718534
0.006506719085
0.006506719232
0.006506719227
0.006506719823
0.00650672117
0.006506727688
0.006506759541
0.006506891019
0.00650744701
0.006509760919
0.006519060133
0.006554193768
0.006671441582
0.006506719398
0.006506718531
0.006506718187
0.006506718534
0.006506719757
0.006506721878
0.006506732592
0.006506783049
0.006507016503
0.006508112316
0.006513297083
0.006537864747
0.006652292652
0.007151523269
0.006506718729
0.006506718896
0.006506718665
0.006506719204
0.006506720198
0.006506722561
0.006506735892
0.006506797675
0.006507106142
0.006508677763
0.006517070637
0.006564542237
0.006851541862
0.008718380164
0.0218671397
0.006506718734
0.006506718643
0.006506719747
0.006506718982
0.006506720683
0.006506722084
0.006506732615
0.006506783089
0.006507016696
0.006508112488
0.006513296718
0.00653786275
0.006652278725
0.007151404708
0.008886804893
0.006506719303
0.006506719576
0.006506718858
0.006506719067
0.00650671984
0.006506721695
0.006506728822
0.006506759915
0.006506890961
0.006507447598
0.006509761266
0.006519059426
0.006554187476
0.006671403548
0.006963718462
0.006506718865
0.006506719069
0.006506719191
0.006506719055
0.006506718519
0.006506720225
0.006506724866
0.006506741401
0.006506806426
0.006507053716
0.006507968034
0.006511165338
0.006521456033
0.006550230347
0.006611960238
0.006506718522
0.006506718711
0.006506718774
0.006506718833
0.006506719349
0.006506720155
0.006506722354
0.006506732987
0.006506769272
0.00650689369
0.006507310095
0.006508607585
0.0065123037
0.006521488666
0.00654001334
0.006506719061
0.006506718802
0.006506718584
0.00650671846
0.006506718473
0.006506719224
0.006506721825
0.006506731244
0.006506762012
0.006506868247
0.006507215144
0.006508265442
0.006511160458
0.006518132289
0.006506718781
0.006506718254
0.006506718535
0.006506718689
0.006506719074
0.006506719894
0.006506724325
0.006506738053
0.006506792643
0.006506995976
0.006507715762
0.006510114909
0.006517385244
0.006536394699
0.006506719464
0.006506719133
0.006506719506
0.006506718877
0.006506719277
0.006506721426
0.006506726834
0.006506752756
0.006506859584
0.006507293757
0.006508993012
0.006515315326
0.00653690082
0.006600334942
0.006506718811
0.006506718548
0.006506719277
0.00650671912
0.006506720066
0.006506722111
0.00650673164
0.006506772766
0.006506955511
0.006507760707
0.006511258417
0.006525979873
0.006584168374
0.006786374752
0.006506718911
0.006506718575
0.00650671915
0.00650671949
0.006506720463
0.006506722418
0.00650673313
0.006506783192
0.006507016427
0.006508112509
0.006513297171
0.006537865595
0.006652299095
0.007151543221
0.006506719275
0.006506718841
0.006506719041
0.006506719001
0.006506719678
0.006506721627
0.006506731388
0.006506772396
0.006506954895
0.006507760212
0.00651125843
0.006525979247
0.006584165524
0.006786362835
0.006506720034
0.006506719527
0.006506720337
0.006506719804
0.006506719855
0.006506721728
0.006506727382
0.006506753335
0.006506860632
0.00650729426
0.006508993623
0.006515315241
0.006536897607
0.006600322223
0.006739646438
0.006506720128
0.006506719554
0.006506719119
0.006506719845
0.006506719324
0.006506720657
0.006506724365
0.006506738372
0.006506793187
0.00650699638
0.006507716489
0.00651011532
0.006517384727
0.006536389797
0.006575340687
0.006506720138
0.006506720041
0.006506719675
0.006506719678
0.006506719326
0.006506719855
0.006506722541
0.006506731829
0.00650676262
0.006506869599
0.006507215915
0.006508265709
0.006511159857
0.006518130311
0.006532008653
0.00650671824
0.006506718158
0.006506718345
0.006506717931
0.006506718263
0.006506718872
0.006506720756
0.006506727111
0.006506749429
0.006506821818
0.006507047148
0.006507699354
0.006509422919
0.006513433061
0.00650671885
0.00650671859
0.006506718173
0.006506718167
0.006506718339
0.006506719779
0.006506722246
0.006506732248
0.006506768821
0.006506897138
0.00650732444
0.006508660866
0.006512442481
0.006521738107
0.006506718905
0.006506718987
0.00650671862
0.006506718212
0.006506718601
0.006506720109
0.006506724435
0.006506741835
0.006506808277
0.006507061126
0.006507974588
0.006511082921
0.006520674472
0.0065460982
0.006506719287
0.006506718797
0.006506719299
0.006506719278
0.006506719201
0.006506721515
0.00650672707
0.006506753246
0.006506860868
0.006507295697
0.00650899416
0.006515315737
0.006536900863
0.006600335508
0.006506718805
0.00650671883
0.006506718996
0.006506719371
0.006506719588
0.006506721497
0.006506727924
0.006506759292
0.006506891542
0.006507448303
0.006509761475
0.006519061653
0.006554197271
0.006671445423
0.006506718976
0.006506718737
0.006506720055
0.006506719806
0.00650672038
0.00650672096
0.006506727436
0.006506753795
0.006506860462
0.006507294855
0.006508994316
0.006515316286
0.006536900536
0.006600332535
0.006506719632
0.006506719921
0.006506720028
0.006506719473
0.006506720118
0.006506720639
0.006506724747
0.006506741843
0.00650680871
0.006507061115
0.006507975431
0.006511083502
0.00652067426
0.006546097006
0.006506720078
0.006506720199
0.006506720053
0.006506720169
0.006506720625
0.006506721234
0.006506723611
0.006506733159
0.006506769796
0.006506898022
0.006507326055
0.006508661716
0.006512442223
0.00652173629
0.006540319235
0.006506719981
0.006506720107
0.006506719829
0.0065067197
0.006506719393
0.006506719898
0.006506722205
0.006506728515
0.006506750605
0.006506822784
0.006507047656
0.006507700307
0.006509422572
0.006513431773
0.006521357677
0.006506717378
0.006506716947
0.006506718546
0.006506717799
0.00650671815
0.006506718895
0.006506719719
0.006506724197
0.006506738342
0.00650678194
0.006506911425
0.006507270367
0.006508178109
0.006510229533
0.006506718244
0.006506719109
0.006506718375
0.006506717962
0.0065067186
0.006506718979
0.006506720713
0.00650672666
0.00650674909
0.006506820348
0.006507043151
0.006507695126
0.006509431844
0.006513500258
0.006506719153
0.006506719431
0.006506718359
0.006506719114
0.006506719004
0.006506719268
0.006506722262
0.006506732322
0.006506768784
0.006506896877
0.006507325663
0.006508661493
0.006512443501
0.006521738337
0.006506718675
0.00650671899
0.006506719141
0.006506719052
0.00650671936
0.006506719775
0.006506723681
0.006506737921
0.006506793663
0.006506996548
0.006507716356
0.006510115735
0.00651738614
0.006536396287
0.006506718971
0.006506719021
0.006506718984
0.006506719828
0.006506719837
0.006506720887
0.00650672537
0.006506742227
0.006506806405
0.006507054211
0.006507968229
0.006511166489
0.006521460195
0.006550243057
0.006506719556
0.006506719688
0.006506719268
0.006506719228
0.006506720003
0.006506720635
0.006506724562
0.006506739032
0.006506794984
0.006506997978
0.006507718097
0.006510116505
0.00651738581
0.00653639513
0.006506719903
0.006506720349
0.006506719952
0.00650672009
0.006506720186
0.006506721278
0.00650672332
0.006506733106
0.006506769156
0.006506897645
0.006507325585
0.006508661771
0.006512443162
0.006521738201
0.006506720147
0.006506719941
0.006506719582
0.006506719996
0.006506720058
0.006506720307
0.006506721309
0.006506728273
0.00650674913
0.006506820229
0.006507043994
0.006507696482
0.006509432111
0.006513500149
0.006506719297
0.006506719743
0.006506720325
0.00650671973
0.006506719735
0.006506720458
0.00650672154
0.006506725948
0.006506739651
0.006506782998
0.006506912411
0.006507270544
0.006508177921
0.006510229148
0.006514273739
0.00650671799
0.006506718581
0.006506717475
0.006506718089
0.006506718393
0.006506719157
0.006506719585
0.006506722925
0.006506732141
0.006506760984
0.006506843665
0.006507061805
0.006507596553
0.006508779822
0.006506718589
0.006506718566
0.006506718337
0.006506718578
0.006506718864
0.006506719182
0.006506720088
0.00650672441
0.006506738174
0.006506782137
0.006506911918
0.006507270434
0.006508177122
0.006510228887
0.006506719106
0.006506718826
0.006506718378
0.006506718705
0.006506718297
0.006506719166
0.006506721072
0.006506727977
0.006506749594
0.006506821999
0.006507046924
0.006507699876
0.006509423215
0.006513434138
0.00650671895
0.006506719159
0.006506718579
0.00650671862
0.006506718982
0.006506719949
0.006506722728
0.006506731257
0.006506761815
0.006506869281
0.006507216166
0.006508266939
0.006511160591
0.006518133057
0.006506719836
0.006506719432
0.006506719453
0.006506719413
0.006506719847
0.006506720687
0.006506723218
0.006506733465
0.006506768853
0.00650689391
0.006507310501
0.006508609355
0.006512305276
0.006521493117
0.006506719353
0.006506719818
0.006506719889
0.006506719985
0.006506719421
0.006506720242
0.006506722748
0.006506731868
0.006506762094
0.006506869977
0.006507216225
0.006508266905
0.006511161275
0.006518132795
0.006506719711
0.006506719894
0.006506720586
0.006506720185
0.006506720036
0.006506720431
0.006506722046
0.006506728622
0.006506750584
0.006506823463
0.006507048262
0.006507700553
0.006509423252
0.006513434023
0.006506719943
0.00650671976
0.006506720292
0.006506720367
0.006506720172
0.006506719986
0.006506721677
0.006506725761
0.006506739633
0.006506783616
0.006506912815
0.006507270587
0.006508177642
0.00651022974
0.0065067199
0.006506720274
0.006506720683
0.00650672076
0.006506720669
0.006506720944
0.00650672121
0.006506724369
0.006506733886
0.006506762643
0.006506844674
0.006507063426
0.006507597598
0.006508781044
)
;

boundaryField
{
    top
    {
        type            zeroGradient;
    }
    bottom
    {
        type            zeroGradient;
    }
    side-walls
    {
        type            zeroGradient;
    }
    inlet
    {
        type            zeroGradient;
    }
    outlet
    {
        type            zeroGradient;
    }
    procBoundary0to1
    {
        type            processor;
        value           nonuniform List<scalar> 
97
(
0.006515175629
0.006514272689
0.006521122362
0.006534267862
0.00655355491
0.006567347121
0.006553554589
0.00653426782
0.006521121411
0.006515175264
0.006514272689
0.006514272689
0.006534545844
0.006540318813
0.006568354442
0.006628516142
0.006685370276
0.006628513694
0.00656835184
0.006534544545
0.006521120753
0.006521356834
0.006540318813
0.006540318813
0.006668350559
0.006739653717
0.006891030912
0.007183126646
0.006891018648
0.006668340431
0.006568352224
0.006534268002
0.006532009905
0.006575343974
0.006739653717
0.006739653717
0.007655250219
0.008887242408
0.009156867521
0.007655200715
0.006891020517
0.006628514538
0.006553555296
0.006540016889
0.006611971421
0.00696378051
0.008887242408
0.008887242408
0.01563777625
0.008887231012
0.009156871068
0.007303951959
0.007183132688
0.006685371427
0.006567347538
0.006532010212
0.006575341739
0.006739632112
0.007303934896
0.008887231012
0.007303951959
0.007303951959
0.006891032825
0.006598410862
0.006628518851
0.006553556273
0.006521357321
0.006540315305
0.006598403377
0.006739632542
0.006963780389
0.006739631076
0.006598410862
0.006598410862
0.00656835525
0.006521547481
0.006534269718
0.006514272928
0.006521544777
0.006540315819
0.0065753419
0.006611972172
0.006575341224
0.006540316328
0.006521547481
0.006521547481
0.006521122449
0.00651111252
0.006511111115
0.006514272677
0.006521357364
0.006532009999
0.006540016377
0.006532010263
0.006521356801
0.006514273205
0.00651111252
)
;
    }
}


// ************************************************************************* //
