/*--------------------------------*- C++ -*----------------------------------*\
| =========                 |                                                 |
| \\      /  F ield         | OpenFOAM: The Open Source CFD Toolbox           |
|  \\    /   O peration     | Version:  4.x                                   |
|   \\  /    A nd           | Web:      www.OpenFOAM.org                      |
|    \\/     M anipulation  |                                                 |
\*---------------------------------------------------------------------------*/
FoamFile
{
    version     2.0;
    format      ascii;
    class       volScalarField;
    location    "2000";
    object      molarConc;
}
// * * * * * * * * * * * * * * * * * * * * * * * * * * * * * * * * * * * * * //

dimensions      [0 -3 0 0 1 0 0];

internalField   nonuniform List<scalar> 
1175
(
9.963276724
9.963276864
9.963277028
9.963276702
9.963276299
9.963276255
9.96327599
9.963275805
9.963275852
9.963276931
9.963277508
9.963276685
9.963277506
9.963277794
9.963277557
9.963277113
9.963276484
9.96327772
9.963276949
9.96327688
9.963277207
9.963276793
9.963276136
9.963277331
9.963276958
9.963276603
9.963276191
9.96327581
9.963276107
9.963275392
9.963272325
9.963271925
9.963271788
9.963271023
9.963270798
9.963270761
9.963270112
9.963270978
9.963270957
9.963269623
9.963270604
9.963269859
9.963268247
9.963268488
9.963268386
9.96328455
9.963285524
9.963284281
9.963284811
9.963283753
9.963283778
9.963283407
9.963281783
9.963283605
9.963284013
9.963284449
9.963286025
9.963285642
9.963286683
9.963287759
9.963278111
9.963278239
9.963277368
9.963277104
9.963278613
9.963277227
9.963278129
9.963278485
9.963277666
9.963278827
9.963279068
9.963278475
9.963279195
9.963278386
9.963278102
9.963247642
9.963246912
9.963246908
9.963247711
9.963246188
9.9632467
9.963247217
9.96324672
9.963246325
9.963246622
9.963245664
9.96324556
9.963246634
9.963245699
9.963246824
9.963292668
9.963293407
9.963293261
9.963293115
9.96329295
9.963293549
9.963293534
9.963292471
9.96329213
9.963290814
9.963289671
9.963290009
9.963289411
9.963288447
9.963288496
9.963271179
9.963272145
9.96327159
9.963272254
9.963271384
9.963271629
9.963272704
9.963272461
9.963272199
9.963271721
9.963271795
9.963271207
9.96327213
9.963272761
9.963273419
9.963255099
9.963255315
9.96325503
9.963255418
9.963255381
9.963256404
9.963257016
9.963257074
9.963256675
9.963256908
9.9632572
9.963256447
9.96325569
9.963254894
9.963254099
9.963291334
9.963291898
9.963292055
9.963291613
9.963291758
9.963290845
9.96329028
9.963289635
9.963291026
9.963291248
9.96328997
9.963289738
9.963289784
9.963289714
9.963272411
9.963271641
9.963270552
9.963270632
9.963271141
9.963271582
9.963270964
9.963271034
9.963271323
9.963271041
9.963270834
9.963270366
9.963268612
9.963268281
9.96326818
9.963272747
9.963271964
9.963272386
9.963271388
9.963271116
9.96327195
9.963272367
9.963272285
9.96327271
9.963273478
9.963273193
9.963274839
9.963274899
9.963273839
9.963274193
9.963283757
9.963284199
9.963282832
9.963282467
9.963281598
9.963280761
9.963280712
9.963281653
9.963283612
9.963283339
9.963283991
9.963282957
9.963282154
9.963280506
9.963280907
9.963274101
9.963271388
9.963272202
9.963271858
9.963270797
9.963270163
9.963268734
9.963268031
9.963268647
9.963267434
9.963268392
9.963268567
9.963268672
9.963269214
9.963269324
9.963307181
9.963307238
9.963305891
9.963303776
9.963304704
9.963304392
9.963305107
9.963305065
9.963304693
9.963304376
9.963303733
9.96330442
9.963304163
9.963302821
9.963301721
9.963264821
9.963265569
9.963265348
9.963264702
9.963266176
9.963265545
9.963264602
9.963265018
9.963264885
9.963265067
9.963264196
9.963265015
9.963266511
9.963266558
9.963265013
9.963305332
9.963304715
9.963303604
9.963303194
9.963303897
9.963304803
9.963304943
9.963304878
9.963305622
9.963306341
9.963306828
9.963305924
9.96330623
9.963305577
9.963305826
9.963266099
9.96326612
9.963265786
9.963265592
9.963265401
9.963265639
9.96326518
9.963265509
9.963264907
9.963266115
9.96326588
9.963265875
9.96326441
9.963264062
9.963262982
9.963280878
9.963280383
9.963280387
9.963280262
9.963281127
9.963281265
9.963280097
9.963280132
9.963279789
9.963277414
9.963276837
9.963276794
9.963276166
9.963276222
9.963255018
9.963254933
9.963253446
9.963253581
9.963253427
9.963253502
9.963254467
9.963255598
9.963255452
9.963258042
9.963258506
9.963260783
9.963260026
9.963260863
9.963291812
9.963291512
9.963292098
9.963293131
9.963293363
9.963295213
9.963294572
9.963292897
9.963293346
9.963293154
9.963292926
9.963292089
9.963290627
9.963290911
9.963291812
9.96330954
9.963310112
9.963310748
9.963309439
9.963309945
9.963309958
9.963310032
9.963309335
9.963308841
9.963308374
9.963309665
9.96330983
9.963309595
9.96330917
9.96330784
9.963288709
9.963289
9.963288842
9.963289118
9.963290111
9.963288622
9.963288001
9.963287885
9.963287928
9.963288257
9.963289141
9.963289129
9.963289501
9.963289744
9.963289711
9.963286605
9.963286233
9.963286656
9.963286597
9.96328718
9.963287532
9.963286495
9.963287194
9.963287017
9.963286175
9.963287043
9.963287124
9.96328727
9.963287997
9.963288551
9.963290564
9.963290362
9.963289943
9.963290037
9.96328953
9.963289823
9.96329067
9.963291206
9.963292402
9.963292546
9.963292377
9.963291575
9.963290182
9.96329085
9.96329207
9.963256974
9.963257124
9.96325798
9.96325836
9.963258347
9.963257367
9.963258145
9.963257763
9.963258952
9.963259455
9.963258025
9.963256826
9.963257436
9.963258416
9.963258975
9.963293496
9.963294399
9.963294688
9.963294831
9.9632951
9.963295552
9.963294352
9.963294849
9.963294053
9.963293165
9.963292744
9.963292803
9.963293622
9.963295373
9.963294899
9.963274876
9.963275233
9.963275481
9.96327438
9.963273924
9.963275199
9.963274636
9.963273883
9.963274372
9.963275548
9.963273648
9.963273444
9.963274676
9.963274321
9.963260198
9.963260301
9.963261033
9.963260873
9.963261201
9.963262146
9.963261915
9.96326223
9.963262246
9.96326077
9.963260336
9.963260836
9.963260153
9.963260507
9.96328991
9.96328923
9.963289243
9.963288637
9.963288294
9.963287344
9.963287678
9.96328668
9.963286855
9.963287333
9.963286719
9.963286637
9.963286205
9.963286845
9.963264064
9.963264637
9.963264708
9.9632643
9.963265501
9.963265786
9.963265631
9.963265666
9.963266693
9.963267221
9.963267275
9.96326594
9.963265844
9.963264861
9.963263048
9.963295367
9.963295369
9.963295306
9.963295653
9.963295196
9.96329506
9.96329424
9.963293442
9.963294465
9.963293802
9.963293802
9.963293467
9.963292586
9.963290933
9.963398896
9.96328124
9.963281144
9.963282212
9.963283402
9.96328318
9.963281735
9.96328315
9.963282374
9.963282283
9.963282609
9.963280521
9.963281179
9.963282915
9.96328237
9.963279637
9.963250761
9.963249462
9.963249398
9.963248168
9.963248234
9.963248925
9.963247221
9.963247778
9.963247312
9.963247787
9.963248377
9.96324865
9.963248475
9.963248929
9.963248806
9.963296757
9.963296186
9.96329694
9.963297806
9.963296783
9.963297166
9.963296784
9.96329741
9.963298289
9.96329957
9.963299492
9.963300793
9.963301268
9.963299973
9.963299147
9.963278676
9.963279045
9.963279012
9.96327862
9.963278708
9.963278957
9.963278955
9.963278914
9.963278994
9.963279691
9.963279824
9.963281374
9.963281169
9.963282679
9.963282787
9.963284239
9.963283607
9.963283763
9.963283996
9.963284716
9.96328537
9.96328494
9.963284119
9.963283468
9.963283716
9.963283144
9.963283162
9.963283409
9.96328436
9.963285908
9.963286168
9.963284963
9.963284734
9.963284522
9.96328438
9.963283952
9.963283066
9.963283347
9.963282319
9.963281632
9.963282055
9.963282164
9.963281696
9.963277817
9.963278219
9.963278569
9.963279418
9.963279333
9.963278001
9.963278623
9.963279637
9.963279495
9.963279265
9.963278899
9.963278442
9.963279131
9.963279528
9.963279533
9.963278367
9.963278664
9.963279164
9.963278563
9.963278091
9.963278736
9.963279884
9.963280313
9.963278814
9.963280657
9.963280387
9.963279737
9.963277872
9.96324972
9.963248615
9.963249822
9.963249271
9.963249376
9.963248095
9.963247891
9.963246218
9.963245786
9.96324718
9.963246316
9.963245937
9.963245219
9.963240281
10.04920842
9.963258953
9.963258498
9.963258165
9.963257724
9.963259387
9.963258884
9.963258872
9.963258722
9.963259337
9.963260377
9.963260367
9.963259797
9.963258738
9.963257001
9.963364791
9.963269318
9.963266851
9.963267298
9.963268924
9.963266632
9.963266742
9.963267633
9.963266792
9.963265817
9.963264605
9.963264727
9.963263104
9.963264133
9.963264452
9.963262913
9.963291703
9.963292327
9.963291568
9.963290725
9.963291149
9.963290462
9.963292021
9.963292089
9.963292184
9.963291623
9.963290903
9.963289606
9.963288965
9.963288665
9.963288031
9.963280644
9.963280373
9.96328077
9.963283321
9.963284126
9.963284703
9.963284741
9.963285123
9.96328575
9.963284736
9.96328419
9.96328324
9.9632845
9.963283993
9.963284245
9.963273881
9.963273908
9.963272957
9.963273501
9.96327252
9.963271436
9.963270799
9.963271355
9.963270739
9.963270339
9.963268861
9.963268951
9.963268226
9.963267737
9.963286303
9.963286492
9.963286991
9.963286556
9.963286374
9.963286367
9.96328515
9.963284697
9.963283789
9.963284276
9.963284382
9.963285202
9.963285776
9.963286866
9.963266255
9.963266461
9.963267339
9.963266156
9.96326761
9.963267618
9.96326887
9.96326782
9.963268521
9.963268593
9.963269779
9.9632704
9.963268568
9.963269379
9.96328745
9.963287153
9.96328577
9.963286239
9.963286387
9.963287345
9.963286431
9.963286603
9.963286685
9.963287407
9.963286551
9.963286987
9.963287002
9.963285611
9.96326983
9.963270079
9.963270043
9.963270739
9.963271245
9.963272201
9.96327225
9.963271082
9.963271452
9.963271071
9.96327148
9.963273264
9.963273721
9.96327191
9.963269704
9.963267619
9.963269228
9.963268302
9.96326792
9.963266939
9.963267817
9.963267083
9.963267946
9.963268642
9.963268584
9.963268835
9.963268007
9.963268966
9.963295883
9.963295638
9.963295329
9.963296005
9.963295693
9.963296508
9.963296694
9.963297104
9.963297019
9.9632969
9.963296952
9.963295498
9.963294549
9.963294765
9.963294988
9.963273213
9.963273871
9.963274335
9.963273984
9.963273601
9.963274489
9.963274186
9.96327214
9.96327132
9.963270469
9.96327095
9.963272027
9.963273074
9.963273075
9.963272725
9.963268252
9.963267911
9.96326814
9.963267897
9.96326703
9.963267154
9.963265975
9.963267079
9.963266805
9.963268357
9.963267665
9.963267268
9.963267734
9.963267057
9.963265727
9.963267113
9.963266608
9.96326673
9.963267412
9.963266411
9.963266774
9.963267138
9.963267386
9.963268378
9.963266621
9.963267269
9.963266736
9.963267976
9.963269179
9.963268463
9.963268343
9.963267481
9.96326706
9.963267706
9.963269318
9.963269318
9.963269273
9.96326846
9.963269251
9.963269206
9.963270085
9.963269847
9.963267832
9.963275989
9.963276458
9.963276772
9.963273872
9.963275216
9.963275735
9.963274759
9.963276787
9.963276849
9.963277647
9.963277173
9.963277207
9.963277732
9.963277293
9.963269785
9.963268905
9.963268436
9.963269716
9.963269242
9.963269632
9.963268586
9.963268964
9.963268249
9.963268927
9.963268139
9.963268559
9.963268116
9.963267099
9.963278149
9.963279044
9.963278611
9.963278597
9.963279317
9.963280037
9.963280336
9.963280512
9.963279859
9.963280049
9.96327899
9.963279504
9.963279956
9.963279335
9.963277013
9.963278362
9.963280787
9.963281519
9.963281192
9.96328117
9.963281735
9.963280533
9.963280589
9.963281016
9.963281749
9.96328183
9.963282934
9.96328316
9.963258458
9.96325774
9.963257071
9.963256824
9.963256334
9.963256423
9.963257335
9.96325702
9.963257681
9.963260073
9.963259198
9.963260695
9.963260791
9.963261414
9.963300011
9.963300938
9.963300771
9.963299562
9.963299489
9.963299002
9.963298894
9.963299622
9.963300704
9.963300785
9.963299936
9.963300112
9.963298702
9.963298676
9.963298392
9.963277137
9.963276731
9.963275659
9.963276159
9.963275774
9.963274946
9.963274807
9.963274243
9.963275134
9.963274475
9.963273839
9.963274221
9.963273368
9.963272208
9.963272422
9.963279925
9.96328025
9.96328112
9.963278961
9.963280373
9.963281234
9.963280086
9.963281178
9.963281967
9.963281497
9.963283185
9.963283626
9.963284889
9.963284359
9.963287197
9.96328755
9.963286994
9.963285906
9.963286888
9.963287288
9.963287054
9.963286234
9.963287247
9.963287187
9.963286357
9.963286122
9.963286069
9.963286546
9.963277092
9.96327756
9.963276899
9.963276725
9.963274459
9.963274466
9.963274393
9.963273573
9.963273724
9.963274638
9.963274132
9.963275119
9.963276749
9.963277253
9.963291251
9.963291457
9.963290368
9.963290825
9.963291241
9.963291789
9.96329129
9.96329154
9.963291897
9.963290936
9.963291658
9.963291102
9.963290269
9.963290588
9.963257888
9.963257789
9.963258022
9.963258845
9.963258234
9.963257413
9.963258511
9.96325997
9.963259934
9.963259116
9.963259265
9.963260609
9.963261453
9.963261735
9.96330594
9.963306392
9.963305358
9.963305011
9.963304548
9.963306452
9.963306768
9.963306262
9.963306888
9.963307618
9.963306924
9.963306027
9.963304676
9.963305657
9.963272702
9.963273864
9.963272682
9.963272393
9.963271145
9.963271628
9.963270611
9.963269233
9.963268713
9.963267527
9.9632672
9.963267101
9.963267171
9.963267843
9.963268542
9.963267741
9.963267696
9.963267455
9.963266989
9.963268412
9.963268292
9.963266771
9.9632667
9.963265762
9.963265706
9.963265181
9.963266046
9.963265653
9.96326149
9.963262138
9.963261978
9.963261391
9.963260686
9.963260132
9.963260963
9.963261662
9.963261454
9.963261187
9.963261053
9.963259455
9.963260537
9.963260182
9.963261441
9.963262586
9.963261873
9.96326139
9.963261697
9.963262265
9.963262576
9.963262511
9.963262645
9.963261816
9.963261419
9.963262004
9.963260667
9.963261299
9.963260845
9.96326753
9.963268157
9.963268145
9.963269568
9.963269943
9.963270928
9.963271624
9.963271777
9.963272631
9.96327197
9.963271886
9.963272267
9.963272265
9.96327212
9.963268737
9.963268001
9.963267371
9.963267789
9.963267645
9.963268058
9.963268628
9.963269529
9.963270017
9.963270403
9.963269692
9.963269424
9.963269919
9.963271265
9.963284138
9.963284343
9.963284833
9.963283993
9.963284027
9.963284168
9.963284379
9.963282943
9.963281352
9.963281795
9.963280229
9.963280498
9.963280353
9.963280742
9.963305718
9.96330564
9.963305344
9.963305717
9.963305801
9.963307008
9.963306323
9.963306064
9.963307005
9.963307063
9.963307895
9.963309219
9.963308286
9.963307145
9.963293564
9.963292992
9.963293598
9.963293043
9.96329257
9.963292278
9.963293311
9.963294538
9.963293862
9.963294582
9.96329407
9.963294801
9.963295209
9.963294979
9.963290496
9.96329028
9.96329133
9.963291484
9.963290586
9.963290925
9.963291015
9.963290264
9.963290133
9.963290408
9.96328979
9.963289635
9.963289073
9.963287767
9.963297643
9.963297497
9.963297824
9.963297454
9.963297596
9.963297683
9.96329792
9.963296961
9.963296836
9.96329617
9.96329693
9.963295666
9.963295
9.96329606
9.963285715
9.963286304
9.963286702
9.963287128
9.963286632
9.96328593
9.96328581
9.963285987
9.963285865
9.963285492
9.963285404
9.963284307
9.96328395
9.963284386
)
;

boundaryField
{
    top
    {
        type            calculated;
        value           nonuniform List<scalar> 
134
(
9.963255099
9.963266099
9.963293496
9.963278676
9.963280644
9.963268252
9.963277137
9.96326149
9.963285715
9.963255315
9.96326612
9.963294399
9.963279045
9.963280373
9.963267911
9.963276731
9.963262138
9.963286304
9.96325503
9.963265786
9.963294688
9.963279012
9.96328077
9.96326814
9.963275659
9.963261978
9.963286702
9.963255418
9.963265592
9.963294831
9.96327862
9.963283321
9.963267897
9.963276159
9.963261391
9.963287128
9.963255381
9.963265401
9.9632951
9.963278708
9.963284126
9.96326703
9.963275774
9.963260686
9.963286632
9.963256404
9.963265639
9.963295552
9.963278957
9.963284703
9.963267154
9.963274946
9.963260132
9.96328593
9.963257016
9.96326518
9.963294352
9.963278955
9.963284741
9.963265975
9.963274807
9.963260963
9.96328581
9.963257074
9.963265509
9.963294849
9.963278914
9.963285123
9.963267079
9.963274243
9.963261662
9.963285987
9.963256675
9.963264907
9.963294053
9.963278994
9.96328575
9.963266805
9.963275134
9.963261454
9.963285865
9.963256908
9.963266115
9.963293165
9.963279691
9.963284736
9.963268357
9.963274475
9.963261187
9.963285492
9.9632572
9.96326588
9.963292744
9.963279824
9.96328419
9.963267665
9.963273839
9.963261053
9.963285404
9.963256447
9.963265875
9.963292803
9.963281374
9.96328324
9.963267268
9.963274221
9.963259455
9.963284307
9.96325569
9.96326441
9.963293622
9.963281169
9.9632845
9.963267734
9.963273368
9.963260537
9.96328395
9.963254894
9.963264062
9.963295373
9.963282679
9.963283993
9.963267057
9.963272208
9.963260182
9.963284386
9.963254099
9.963262982
9.963294899
9.963282787
9.963284245
9.963265727
9.963272422
9.963261441
)
;
    }
    bottom
    {
        type            calculated;
        value           nonuniform List<scalar> 
127
(
9.963276724
9.963291334
9.963280878
9.963274876
9.963284239
9.963273881
9.963267113
9.963279925
9.963262586
9.963276864
9.963291898
9.963280383
9.963275233
9.963283607
9.963273908
9.963266608
9.96328025
9.963261873
9.963277028
9.963292055
9.963280387
9.963275481
9.963283763
9.963272957
9.96326673
9.96328112
9.96326139
9.963276702
9.963291613
9.963280262
9.96327438
9.963283996
9.963273501
9.963267412
9.963278961
9.963261697
9.963276299
9.963291758
9.963281127
9.963273924
9.963284716
9.96327252
9.963266411
9.963280373
9.963262265
9.963276255
9.963290845
9.963281265
9.963275199
9.96328537
9.963271436
9.963266774
9.963281234
9.963262576
9.96327599
9.96329028
9.963280097
9.963274636
9.96328494
9.963270799
9.963267138
9.963280086
9.963262511
9.963275805
9.963289635
9.963280132
9.963273883
9.963284119
9.963271355
9.963267386
9.963281178
9.963262645
9.963275852
9.963291026
9.963279789
9.963274372
9.963283468
9.963270739
9.963268378
9.963281967
9.963261816
9.963276931
9.963291248
9.963277414
9.963275548
9.963283716
9.963270339
9.963266621
9.963281497
9.963261419
9.963277508
9.96328997
9.963276837
9.963273648
9.963283144
9.963268861
9.963267269
9.963283185
9.963262004
9.963276685
9.963289738
9.963276794
9.963273444
9.963283162
9.963268951
9.963266736
9.963283626
9.963260667
9.963277506
9.963289784
9.963276166
9.963274676
9.963283409
9.963268226
9.963267976
9.963284889
9.963261299
9.963277794
9.963289714
9.963276222
9.963274321
9.96328436
9.963267737
9.963269179
9.963284359
9.963260845
9.963277557
)
;
    }
    side-walls
    {
        type            calculated;
        value           nonuniform List<scalar> 
261
(
9.963276724
9.963277113
9.963272325
9.96328455
9.963278111
9.963247642
9.963292668
9.963271179
9.963255099
9.963276864
9.963276484
9.963271925
9.963285524
9.963278239
9.963246912
9.963293407
9.963272145
9.963255315
9.963277028
9.96327772
9.963271788
9.963284281
9.963277368
9.963246908
9.963293261
9.96327159
9.96325503
9.963276702
9.963276949
9.963271023
9.963284811
9.963277104
9.963247711
9.963293115
9.963272254
9.963255418
9.963276299
9.96327688
9.963270798
9.963283753
9.963278613
9.963246188
9.96329295
9.963271384
9.963255381
9.963276255
9.963277207
9.963270761
9.963283778
9.963277227
9.9632467
9.963293549
9.963271629
9.963256404
9.96327599
9.963276793
9.963270112
9.963283407
9.963278129
9.963247217
9.963293534
9.963272704
9.963257016
9.963275805
9.963276136
9.963270978
9.963281783
9.963278485
9.96324672
9.963292471
9.963272461
9.963257074
9.963275852
9.963277331
9.963270957
9.963283605
9.963277666
9.963246325
9.96329213
9.963272199
9.963256675
9.963276931
9.963276958
9.963269623
9.963284013
9.963278827
9.963246622
9.963290814
9.963271721
9.963256908
9.963277508
9.963276603
9.963270604
9.963284449
9.963279068
9.963245664
9.963289671
9.963271795
9.9632572
9.963276685
9.963276191
9.963269859
9.963286025
9.963278475
9.96324556
9.963290009
9.963271207
9.963256447
9.963277506
9.96327581
9.963268247
9.963285642
9.963279195
9.963246634
9.963289411
9.96327213
9.96325569
9.963277794
9.963276107
9.963268488
9.963286683
9.963278386
9.963245699
9.963288447
9.963272761
9.963254894
9.963277557
9.963275392
9.963268386
9.963287759
9.963278102
9.963246824
9.963288496
9.963273419
9.963254099
9.963262586
9.96326753
9.963268737
9.963284138
9.963305718
9.963293564
9.963290496
9.963297643
9.963285715
9.963261873
9.963268157
9.963268001
9.963284343
9.96330564
9.963292992
9.96329028
9.963297497
9.963286304
9.96326139
9.963268145
9.963267371
9.963284833
9.963305344
9.963293598
9.96329133
9.963297824
9.963286702
9.963261697
9.963269568
9.963267789
9.963283993
9.963305717
9.963293043
9.963291484
9.963297454
9.963287128
9.963262265
9.963269943
9.963267645
9.963284027
9.963305801
9.96329257
9.963290586
9.963297596
9.963286632
9.963262576
9.963270928
9.963268058
9.963284168
9.963307008
9.963292278
9.963290925
9.963297683
9.96328593
9.963262511
9.963271624
9.963268628
9.963284379
9.963306323
9.963293311
9.963291015
9.96329792
9.96328581
9.963262645
9.963271777
9.963269529
9.963282943
9.963306064
9.963294538
9.963290264
9.963296961
9.963285987
9.963261816
9.963272631
9.963270017
9.963281352
9.963307005
9.963293862
9.963290133
9.963296836
9.963285865
9.963261419
9.96327197
9.963270403
9.963281795
9.963307063
9.963294582
9.963290408
9.96329617
9.963285492
9.963262004
9.963271886
9.963269692
9.963280229
9.963307895
9.96329407
9.96328979
9.96329693
9.963285404
9.963260667
9.963272267
9.963269424
9.963280498
9.963309219
9.963294801
9.963289635
9.963295666
9.963284307
9.963261299
9.963272265
9.963269919
9.963280353
9.963308286
9.963295209
9.963289073
9.963295
9.96328395
9.963260845
9.96327212
9.963271265
9.963280742
9.963307145
9.963294979
9.963287767
9.96329606
9.963284386
)
;
    }
    inlet
    {
        type            calculated;
        value           nonuniform List<scalar> 
81
(
9.963276724
9.963277113
9.963272325
9.96328455
9.963278111
9.963247642
9.963292668
9.963271179
9.963255099
9.963291334
9.963272411
9.963272747
9.963283757
9.963274101
9.963307181
9.963264821
9.963305332
9.963266099
9.963280878
9.963255018
9.963291812
9.96330954
9.963288709
9.963286605
9.963290564
9.963256974
9.963293496
9.963274876
9.963260198
9.96328991
9.963264064
9.963295367
9.96328124
9.963250761
9.963296757
9.963278676
9.963284239
9.963285908
9.963277817
9.963279533
9.96324972
9.963258953
9.963269318
9.963291703
9.963280644
9.963273881
9.963286303
9.963266255
9.96328745
9.96326983
9.963269704
9.963295883
9.963273213
9.963268252
9.963267113
9.963268463
9.963275989
9.963269785
9.963278149
9.963277013
9.963258458
9.963300011
9.963277137
9.963279925
9.963287197
9.963277092
9.963291251
9.963257888
9.96330594
9.963272702
9.963268542
9.96326149
9.963262586
9.96326753
9.963268737
9.963284138
9.963305718
9.963293564
9.963290496
9.963297643
9.963285715
)
;
    }
    outlet
    {
        type            calculated;
        value           nonuniform 0();
    }
    procBoundary0to1
    {
        type            processor;
        value           nonuniform List<scalar> 
97
(
9.963277692
9.963288724
9.963275361
9.963266922
9.963287867
9.963278079
9.963246005
9.963287521
9.963274269
9.963253621
9.963288724
9.963288724
9.963268374
9.963260084
9.963274205
9.963279764
9.963269276
9.963300025
9.963264906
9.963305722
9.963263193
9.963275419
9.963260084
9.963260084
9.96329025
9.963287675
9.963308562
9.963287521
9.963288104
9.963291677
9.963258878
9.963295744
9.963275986
9.963260946
9.963287675
9.963287675
9.963263098
9.963383339
9.963398556
9.963279548
9.963245152
9.963297845
9.963281235
9.963284022
9.963283571
9.963278716
9.963383339
9.963383339
10.04927425
9.963381173
9.963366472
9.963266546
9.963262458
9.963287766
9.963285408
9.963269705
9.963286508
9.963270189
9.963284623
9.963381173
9.963266546
9.963266546
9.963293509
9.963260365
9.963273276
9.963266486
9.963268589
9.963269073
9.963276531
9.96326742
9.96327955
9.963282863
9.963260365
9.963260365
9.963297359
9.963266425
9.963271316
9.963285903
9.963284862
9.963276841
9.96328881
9.96326268
9.963303773
9.963266278
9.963266425
9.963266425
9.963261068
9.963282814
9.963260628
9.963272363
9.963270511
9.9632806
9.963308009
9.963293658
9.963288339
9.963295127
9.963282814
)
;
    }
}


// ************************************************************************* //
