/*--------------------------------*- C++ -*----------------------------------*\
| =========                 |                                                 |
| \\      /  F ield         | OpenFOAM: The Open Source CFD Toolbox           |
|  \\    /   O peration     | Version:  4.x                                   |
|   \\  /    A nd           | Web:      www.OpenFOAM.org                      |
|    \\/     M anipulation  |                                                 |
\*---------------------------------------------------------------------------*/
FoamFile
{
    version     2.0;
    format      ascii;
    class       volScalarField;
    location    "2000";
    object      N2;
}
// * * * * * * * * * * * * * * * * * * * * * * * * * * * * * * * * * * * * * //

dimensions      [0 0 0 0 0 0 0];

internalField   nonuniform List<scalar> 
1175
(
0.6215293966
0.6215293964
0.6215293963
0.6215293966
0.621529397
0.6215293966
0.6215293967
0.6215293961
0.6215293938
0.6215293876
0.6215293685
0.6215293189
0.6215291976
0.6215289292
0.6215283999
0.6215293967
0.6215293972
0.6215293969
0.6215293968
0.6215293966
0.6215293967
0.6215293966
0.6215293956
0.6215293924
0.6215293824
0.6215293529
0.6215292717
0.6215290657
0.6215286004
0.6215276824
0.6215293964
0.6215293964
0.6215293969
0.6215293971
0.6215293972
0.6215293968
0.6215293964
0.6215293949
0.6215293897
0.6215293734
0.6215293222
0.6215291743
0.6215287837
0.6215278746
0.6215260755
0.6215293963
0.6215293964
0.6215293968
0.6215293967
0.6215293972
0.6215293969
0.6215293962
0.6215293944
0.6215293874
0.6215293631
0.6215292838
0.6215290457
0.6215283901
0.6215268094
0.62152366
0.6215293965
0.6215293968
0.6215293969
0.6215293972
0.621529397
0.6215293968
0.6215293957
0.6215293937
0.6215293855
0.6215293571
0.6215292629
0.6215289683
0.6215281304
0.6215260474
0.621521845
0.6215293966
0.6215293965
0.6215293966
0.6215293968
0.6215293969
0.6215293966
0.6215293957
0.6215293941
0.6215293873
0.6215293628
0.6215292843
0.6215290458
0.6215283893
0.621526809
0.6215236604
0.6215293968
0.6215293967
0.6215293968
0.6215293967
0.6215293963
0.6215293964
0.6215293956
0.6215293948
0.6215293896
0.6215293733
0.6215293223
0.6215291741
0.6215287834
0.6215278743
0.6215260757
0.6215293969
0.6215293962
0.6215293966
0.6215293966
0.6215293967
0.6215293966
0.6215293963
0.6215293952
0.621529392
0.6215293824
0.6215293529
0.6215292712
0.6215290659
0.6215286011
0.6215276831
0.6215293967
0.6215293967
0.6215293967
0.6215293967
0.6215293969
0.6215293966
0.6215293963
0.6215293955
0.6215293933
0.6215293869
0.6215293681
0.6215293187
0.6215291976
0.6215289291
0.6215284003
0.6215293965
0.6215293966
0.6215293966
0.6215293968
0.6215293965
0.6215293963
0.6215293964
0.6215293957
0.6215293923
0.6215293824
0.621529353
0.6215292721
0.621529066
0.6215286005
0.6215293963
0.6215293964
0.621529397
0.6215293967
0.6215293963
0.6215293965
0.6215293961
0.6215293952
0.6215293899
0.6215293739
0.6215293235
0.6215291755
0.6215287814
0.6215278591
0.621526032
0.6215293968
0.6215293964
0.6215293961
0.6215293963
0.6215293968
0.6215293968
0.6215293961
0.6215293939
0.6215293854
0.6215293562
0.6215292593
0.6215289564
0.6215280991
0.6215259913
0.6215217758
0.6215293963
0.6215293964
0.6215293967
0.6215293967
0.6215293968
0.6215293966
0.6215293955
0.6215293924
0.6215293799
0.6215293338
0.62152917
0.6215286267
0.6215269787
0.6215226702
0.6215138357
0.6215293961
0.6215293966
0.6215293967
0.6215293967
0.6215293971
0.6215293967
0.6215293955
0.6215293915
0.6215293771
0.6215293208
0.6215291136
0.6215283886
0.6215260558
0.6215195331
0.6215055361
0.6215293962
0.6215293964
0.6215293961
0.6215293969
0.6215293964
0.6215293962
0.6215293956
0.6215293922
0.6215293801
0.6215293335
0.6215291706
0.6215286265
0.6215269788
0.6215226698
0.621513837
0.6215293963
0.621529396
0.6215293967
0.6215293967
0.621529396
0.6215293961
0.6215293954
0.6215293932
0.6215293852
0.621529356
0.6215292593
0.6215289562
0.6215280992
0.6215259918
0.6215217771
0.6215293961
0.6215293962
0.6215293967
0.6215293966
0.6215293966
0.6215293963
0.6215293957
0.6215293945
0.6215293897
0.6215293734
0.6215293233
0.6215291752
0.6215287814
0.6215278588
0.6215260331
0.6215293964
0.6215293963
0.6215293965
0.6215293961
0.6215293963
0.6215293965
0.6215293964
0.6215293955
0.6215293924
0.6215293819
0.6215293528
0.6215292717
0.6215290662
0.6215286003
0.6215276829
0.6215293966
0.6215293966
0.6215293965
0.6215293967
0.6215293964
0.6215293964
0.621529396
0.6215293941
0.6215293899
0.6215293732
0.6215293224
0.6215291747
0.6215287841
0.6215278732
0.6215293964
0.6215293961
0.6215293964
0.6215293966
0.6215293967
0.6215293964
0.6215293958
0.6215293934
0.6215293853
0.6215293566
0.6215292593
0.6215289563
0.6215280991
0.6215259895
0.6215293965
0.6215293967
0.6215293968
0.6215293967
0.6215293965
0.6215293961
0.6215293954
0.6215293914
0.6215293762
0.6215293191
0.6215291116
0.6215284074
0.6215262331
0.6215204687
0.6215085995
0.6215293963
0.6215293963
0.6215293968
0.6215293969
0.6215293965
0.6215293964
0.6215293948
0.6215293892
0.6215293645
0.6215292662
0.6215288811
0.6215274483
0.6215225569
0.6215081804
0.6214765932
0.6215293964
0.6215293966
0.6215293963
0.6215293963
0.6215293962
0.6215293964
0.6215293949
0.6215293878
0.6215293582
0.6215292317
0.6215287073
0.6215265999
0.6215186395
0.6214920762
0.6214258207
0.6215293966
0.6215293964
0.6215293965
0.6215293964
0.6215293965
0.6215293958
0.6215293947
0.6215293889
0.6215293643
0.6215292659
0.6215288808
0.621527448
0.6215225571
0.621508183
0.6214766015
0.6215293964
0.6215293965
0.6215293963
0.6215293961
0.6215293964
0.6215293961
0.621529395
0.621529391
0.621529376
0.6215293187
0.6215291116
0.6215284074
0.6215262338
0.6215204715
0.6215086089
0.6215293966
0.6215293966
0.6215293966
0.6215293963
0.6215293965
0.6215293963
0.6215293955
0.6215293935
0.6215293848
0.6215293558
0.6215292592
0.6215289567
0.6215280993
0.6215259917
0.6215217772
0.6215293966
0.6215293967
0.6215293962
0.6215293966
0.6215293963
0.6215293962
0.6215293961
0.6215293945
0.6215293897
0.6215293735
0.6215293221
0.6215291741
0.6215287835
0.6215278739
0.6215260759
0.6215293962
0.6215293964
0.6215293966
0.6215293968
0.621529397
0.6215293964
0.621529396
0.6215293942
0.6215293872
0.6215293626
0.6215292841
0.6215290461
0.6215283897
0.6215268075
0.6215293967
0.6215293966
0.6215293965
0.6215293969
0.6215293969
0.6215293969
0.6215293956
0.6215293924
0.62152938
0.6215293338
0.6215291706
0.6215286265
0.621526978
0.6215226656
0.6215293966
0.6215293965
0.6215293966
0.6215293962
0.6215293962
0.6215293964
0.6215293948
0.6215293889
0.621529365
0.6215292665
0.6215288812
0.6215274483
0.6215225549
0.62150817
0.6215293966
0.6215293968
0.6215293972
0.6215293967
0.6215293963
0.6215293961
0.6215293937
0.6215293846
0.6215293432
0.621529161
0.6215283679
0.6215250318
0.6215118457
0.6214660219
0.621348674
0.6215293965
0.6215293968
0.621529397
0.6215293965
0.6215293965
0.621529396
0.6215293936
0.6215293821
0.621529329
0.6215290809
0.621527906
0.6215223395
0.6214964159
0.6213833309
0.6209901293
0.6215293967
0.6215293965
0.6215293961
0.6215293963
0.6215293962
0.6215293955
0.6215293937
0.6215293845
0.6215293431
0.6215291603
0.621528368
0.6215250321
0.6215118476
0.6214660357
0.6213487399
0.6215293961
0.6215293965
0.6215293962
0.6215293962
0.6215293966
0.6215293958
0.6215293945
0.6215293886
0.6215293647
0.6215292662
0.6215288808
0.6215274477
0.6215225563
0.621508182
0.6214766011
0.6215293968
0.6215293969
0.6215293967
0.6215293968
0.6215293969
0.6215293966
0.6215293958
0.6215293921
0.6215293799
0.6215293335
0.6215291707
0.621528627
0.621526979
0.6215226703
0.6215138368
0.6215293968
0.6215293973
0.6215293968
0.6215293969
0.6215293968
0.6215293967
0.621529396
0.6215293938
0.6215293868
0.6215293625
0.6215292839
0.6215290457
0.6215283898
0.6215268087
0.6215236599
0.6215293963
0.6215293964
0.6215293968
0.6215293965
0.6215293965
0.6215293962
0.6215293954
0.6215293935
0.6215293857
0.6215293569
0.6215292627
0.6215289684
0.6215281298
0.6215260453
0.6215293965
0.6215293966
0.6215293967
0.6215293964
0.6215293962
0.621529396
0.6215293954
0.6215293918
0.621529377
0.6215293209
0.621529114
0.6215283888
0.6215260542
0.6215195266
0.6215293968
0.6215293965
0.6215293964
0.6215293964
0.6215293962
0.621529396
0.6215293948
0.6215293872
0.6215293575
0.6215292318
0.6215287072
0.6215265991
0.6215186341
0.6214920499
0.6215293963
0.6215293968
0.621529397
0.6215293969
0.6215293963
0.621529396
0.6215293936
0.6215293821
0.6215293292
0.6215290807
0.6215279054
0.6215223373
0.6214964039
0.6213832509
0.6215293967
0.6215293966
0.6215293967
0.6215293965
0.6215293961
0.6215293957
0.6215293926
0.6215293789
0.6215293088
0.6215289523
0.6215270505
0.6215162942
0.6214512719
0.6210283627
0.6180498843
0.6215293967
0.6215293967
0.6215293961
0.6215293966
0.6215293957
0.6215293958
0.6215293936
0.6215293821
0.6215293291
0.6215290806
0.6215279056
0.6215223383
0.6214964113
0.6213833151
0.620990115
0.6215293963
0.6215293962
0.6215293966
0.6215293965
0.6215293962
0.6215293957
0.6215293941
0.621529387
0.6215293575
0.6215292315
0.6215287069
0.6215265995
0.6215186376
0.6214920714
0.6214258168
0.6215293966
0.6215293965
0.6215293964
0.6215293965
0.621529397
0.6215293963
0.6215293951
0.6215293914
0.6215293766
0.6215293208
0.6215291134
0.6215283885
0.6215260557
0.6215195325
0.6215055352
0.6215293968
0.6215293967
0.6215293967
0.6215293966
0.6215293964
0.6215293962
0.6215293959
0.6215293932
0.6215293848
0.6215293569
0.6215292625
0.6215289686
0.6215281302
0.6215260472
0.6215218452
0.6215293965
0.6215293966
0.6215293968
0.6215293969
0.6215293969
0.6215293967
0.6215293961
0.6215293937
0.6215293869
0.621529363
0.6215292843
0.6215290461
0.621528389
0.6215268071
0.6215293967
0.621529397
0.6215293968
0.6215293967
0.6215293966
0.6215293965
0.6215293952
0.6215293923
0.6215293801
0.6215293339
0.6215291708
0.6215286266
0.6215269774
0.6215226653
0.6215293962
0.6215293964
0.6215293962
0.6215293966
0.6215293965
0.6215293958
0.6215293949
0.621529389
0.621529365
0.6215292663
0.6215288811
0.6215274476
0.6215225528
0.621508167
0.6215293966
0.6215293968
0.6215293964
0.6215293965
0.6215293961
0.6215293957
0.6215293934
0.6215293841
0.6215293427
0.6215291602
0.6215283674
0.62152503
0.6215118388
0.6214659939
0.6215293966
0.6215293968
0.6215293964
0.6215293963
0.6215293959
0.6215293956
0.6215293933
0.621529382
0.6215293293
0.6215290806
0.6215279054
0.6215223368
0.6214964
0.6213832386
0.6215293963
0.6215293966
0.6215293965
0.6215293966
0.6215293963
0.621529396
0.6215293936
0.6215293844
0.6215293431
0.6215291606
0.6215283674
0.6215250304
0.6215118404
0.6214660013
0.6215293959
0.6215293962
0.6215293957
0.6215293961
0.6215293962
0.6215293956
0.6215293945
0.6215293887
0.6215293643
0.621529266
0.6215288807
0.6215274476
0.6215225547
0.6215081745
0.6214765774
0.6215293958
0.6215293962
0.6215293965
0.621529396
0.6215293964
0.621529396
0.6215293951
0.6215293921
0.6215293797
0.6215293336
0.6215291704
0.6215286263
0.6215269777
0.6215226682
0.6215138333
0.6215293958
0.6215293959
0.6215293961
0.6215293961
0.6215293964
0.6215293963
0.6215293956
0.6215293933
0.6215293865
0.6215293622
0.6215292838
0.621529046
0.6215283893
0.6215268083
0.6215236597
0.621529397
0.621529397
0.6215293969
0.6215293972
0.6215293971
0.6215293969
0.6215293964
0.621529395
0.6215293898
0.6215293734
0.6215293222
0.6215291745
0.621528783
0.621527873
0.6215293966
0.6215293968
0.621529397
0.6215293971
0.621529397
0.6215293964
0.6215293959
0.6215293937
0.6215293853
0.6215293561
0.6215292595
0.6215289562
0.6215280983
0.621525989
0.6215293966
0.6215293965
0.6215293968
0.621529397
0.6215293969
0.6215293964
0.6215293954
0.6215293914
0.6215293764
0.6215293189
0.6215291121
0.621528407
0.6215262314
0.6215204643
0.6215293963
0.6215293966
0.6215293963
0.6215293964
0.6215293966
0.6215293957
0.6215293947
0.6215293887
0.6215293642
0.6215292651
0.6215288804
0.6215274473
0.6215225528
0.6215081667
0.6215293966
0.6215293966
0.6215293965
0.6215293963
0.6215293964
0.6215293958
0.6215293947
0.6215293874
0.6215293572
0.621529231
0.6215287068
0.6215265982
0.621518632
0.6214920475
0.6215293965
0.6215293967
0.6215293959
0.6215293961
0.6215293958
0.6215293961
0.6215293945
0.6215293884
0.6215293644
0.6215292657
0.6215288803
0.621527447
0.621522553
0.6215081685
0.6215293961
0.6215293959
0.6215293959
0.6215293963
0.621529396
0.6215293961
0.6215293952
0.6215293914
0.6215293762
0.6215293189
0.6215291116
0.6215284066
0.6215262316
0.6215204652
0.6215293958
0.6215293958
0.6215293959
0.6215293958
0.6215293956
0.6215293955
0.6215293951
0.6215293931
0.6215293847
0.6215293556
0.6215292585
0.6215289556
0.6215280984
0.6215259901
0.621521773
0.6215293959
0.6215293958
0.621529396
0.6215293961
0.6215293963
0.6215293962
0.6215293955
0.6215293941
0.6215293891
0.6215293728
0.6215293219
0.6215291739
0.6215287832
0.6215278737
0.6215260747
0.6215293975
0.6215293978
0.6215293968
0.6215293973
0.6215293971
0.6215293968
0.6215293968
0.6215293956
0.6215293923
0.6215293825
0.6215293531
0.6215292715
0.6215290652
0.6215285997
0.621529397
0.6215293964
0.6215293969
0.6215293972
0.6215293968
0.6215293968
0.6215293964
0.6215293952
0.6215293897
0.6215293735
0.621529323
0.6215291753
0.6215287812
0.6215278577
0.6215293964
0.6215293962
0.6215293969
0.6215293965
0.6215293966
0.6215293967
0.6215293959
0.6215293936
0.6215293853
0.6215293563
0.6215292588
0.6215289558
0.6215280976
0.6215259889
0.6215293967
0.6215293965
0.6215293964
0.6215293965
0.6215293964
0.6215293965
0.6215293956
0.6215293924
0.6215293794
0.6215293335
0.6215291705
0.621528626
0.6215269769
0.6215226643
0.6215293965
0.6215293965
0.6215293965
0.621529396
0.6215293961
0.6215293959
0.6215293948
0.6215293908
0.6215293766
0.6215293205
0.6215291133
0.6215283879
0.6215260533
0.6215195251
0.6215293962
0.6215293961
0.6215293964
0.6215293964
0.621529396
0.621529396
0.621529395
0.6215293917
0.6215293786
0.6215293326
0.6215291694
0.6215286256
0.6215269771
0.621522665
0.621529396
0.6215293957
0.6215293959
0.6215293959
0.6215293959
0.6215293955
0.6215293953
0.6215293931
0.6215293851
0.6215293558
0.6215292588
0.6215289556
0.6215280979
0.621525989
0.6215293958
0.6215293959
0.6215293962
0.6215293959
0.6215293959
0.621529396
0.621529396
0.6215293942
0.6215293897
0.6215293735
0.6215293225
0.6215291745
0.621528781
0.6215278578
0.6215293963
0.6215293961
0.6215293957
0.6215293961
0.6215293961
0.6215293958
0.6215293956
0.6215293945
0.6215293915
0.6215293818
0.6215293525
0.6215292713
0.6215290654
0.6215285999
0.6215276817
0.6215293971
0.6215293968
0.6215293975
0.6215293971
0.6215293969
0.6215293966
0.6215293967
0.6215293958
0.6215293938
0.6215293873
0.6215293683
0.621529319
0.6215291976
0.6215289289
0.6215293968
0.6215293968
0.6215293969
0.6215293968
0.6215293967
0.6215293966
0.6215293965
0.6215293955
0.6215293924
0.6215293823
0.6215293528
0.6215292714
0.6215290659
0.6215286001
0.6215293965
0.6215293966
0.6215293969
0.6215293967
0.621529397
0.6215293967
0.6215293962
0.6215293945
0.6215293897
0.6215293733
0.6215293223
0.6215291741
0.6215287828
0.6215278723
0.6215293965
0.6215293964
0.6215293968
0.6215293968
0.6215293966
0.6215293963
0.6215293955
0.6215293937
0.621529387
0.6215293624
0.6215292837
0.6215290452
0.6215283889
0.6215268066
0.621529396
0.6215293962
0.6215293962
0.6215293963
0.6215293961
0.6215293958
0.6215293953
0.6215293929
0.6215293851
0.6215293568
0.6215292622
0.6215289676
0.6215281293
0.6215260446
0.6215293963
0.621529396
0.621529396
0.6215293959
0.6215293963
0.6215293961
0.6215293955
0.6215293933
0.6215293869
0.621529362
0.6215292836
0.6215290452
0.6215283885
0.6215268068
0.6215293961
0.621529396
0.6215293955
0.6215293958
0.6215293959
0.6215293959
0.6215293956
0.6215293941
0.6215293891
0.6215293723
0.6215293215
0.6215291737
0.6215287828
0.6215278723
0.6215293959
0.621529396
0.6215293957
0.6215293957
0.6215293958
0.6215293961
0.6215293955
0.6215293947
0.6215293915
0.6215293814
0.6215293522
0.6215292713
0.6215290655
0.6215285995
0.621529396
0.6215293957
0.6215293955
0.6215293954
0.6215293955
0.6215293955
0.6215293957
0.6215293949
0.6215293927
0.6215293863
0.6215293677
0.621529318
0.6215291969
0.6215289281
)
;

boundaryField
{
    top
    {
        type            zeroGradient;
    }
    bottom
    {
        type            zeroGradient;
    }
    side-walls
    {
        type            zeroGradient;
    }
    inlet
    {
        type            zeroGradient;
    }
    outlet
    {
        type            zeroGradient;
    }
    procBoundary0to1
    {
        type            processor;
        value           nonuniform List<scalar> 
97
(
0.6215274772
0.6215276823
0.6215261277
0.6215231462
0.6215187715
0.6215156441
0.6215187716
0.6215231461
0.6215261282
0.6215274773
0.6215276823
0.6215276823
0.6215230826
0.6215217734
0.6215154144
0.6215017725
0.6214888844
0.6215017736
0.6215154157
0.6215230831
0.6215261286
0.6215260753
0.6215217734
0.6215217734
0.6214927375
0.6214765736
0.6214422527
0.6213760499
0.6214422588
0.6214927424
0.6215154154
0.621523146
0.621523659
0.6215138315
0.6214765736
0.6214765736
0.6212690133
0.620989849
0.620928711
0.6212690374
0.621442258
0.6215017732
0.6215187712
0.6215218432
0.6215055287
0.6214257798
0.620989849
0.620989849
0.6194600427
0.6209898548
0.6209287091
0.621348667
0.6213760467
0.6214888838
0.6215156438
0.6215236587
0.6215138325
0.6214765847
0.6213486762
0.6209898548
0.621348667
0.621348667
0.6214422519
0.6215085987
0.621501771
0.6215187707
0.6215260748
0.6215217752
0.6215086026
0.6214765843
0.6214257793
0.6214765851
0.6215085987
0.6215085987
0.621515414
0.6215260311
0.6215231451
0.6215276821
0.6215260326
0.6215217748
0.6215138323
0.6215055281
0.6215138326
0.6215217746
0.6215260311
0.6215260311
0.6215261277
0.6215283989
0.6215283997
0.6215276822
0.6215260748
0.6215236588
0.6215218434
0.6215236586
0.6215260752
0.6215276819
0.6215283989
)
;
    }
}


// ************************************************************************* //
