/*--------------------------------*- C++ -*----------------------------------*\
| =========                 |                                                 |
| \\      /  F ield         | OpenFOAM: The Open Source CFD Toolbox           |
|  \\    /   O peration     | Version:  4.x                                   |
|   \\  /    A nd           | Web:      www.OpenFOAM.org                      |
|    \\/     M anipulation  |                                                 |
\*---------------------------------------------------------------------------*/
FoamFile
{
    version     2.0;
    format      ascii;
    class       surfaceScalarField;
    location    "2000";
    object      phi;
}
// * * * * * * * * * * * * * * * * * * * * * * * * * * * * * * * * * * * * * //

dimensions      [1 0 -1 0 0 0 0];

internalField   nonuniform List<scalar> 
3175
(
9.497828853e-06
-7.452055246e-13
9.700554198e-13
9.497829151e-06
-2.074377738e-12
-5.887456464e-14
9.497828462e-06
-1.782857535e-12
-4.554461623e-13
9.497828871e-06
-9.716632409e-13
1.904403051e-12
9.497826879e-06
-1.264681004e-13
1.825120703e-12
9.49782675e-06
-5.482204488e-13
2.757996756e-12
9.497827992e-06
-4.147921986e-13
2.400331434e-12
9.497827301e-06
-1.958674195e-13
1.201729815e-12
9.497827941e-06
-5.043566096e-13
5.234711917e-13
9.497831168e-06
1.031617908e-12
2.831162885e-12
9.497838444e-06
-2.886201708e-12
-1.393390986e-12
9.497843454e-06
-4.881202778e-12
-3.938981677e-12
9.49787996e-06
-1.873826973e-11
-1.761812987e-11
9.497907118e-06
-1.286250413e-11
-1.231754435e-11
-6.217687101e-11
9.497829183e-06
2.778103796e-13
1.340079828e-12
9.497831576e-06
1.729766129e-12
6.709878694e-13
9.497831148e-06
1.415122177e-12
1.274089822e-12
9.497829823e-06
5.119246199e-13
3.862869763e-13
9.497827107e-06
1.226949614e-13
9.221627421e-13
9.497827613e-06
-8.760595781e-14
6.667716421e-13
9.497828838e-06
-5.626591927e-13
8.404974189e-14
9.497826825e-06
-1.510780556e-12
2.452440661e-13
9.497827314e-06
-1.359449142e-12
1.991646964e-12
9.497827295e-06
-1.205741877e-13
1.727694504e-12
9.49783084e-06
-4.602929487e-12
-1.254982654e-12
9.497833944e-06
-6.95676878e-12
-1.836946135e-12
9.497868439e-06
-3.373335853e-11
-1.936754137e-11
9.497889631e-06
-2.658672837e-11
-1.095243289e-11
-1.25668607e-10
-9.912569681e-11
9.49782478e-06
-1.065578461e-12
-7.351902218e-13
9.497825179e-06
-1.036198385e-13
5.496541187e-13
9.4978261e-06
4.219363608e-13
9.060978856e-13
9.497824477e-06
5.53848861e-13
1.44756195e-12
9.497822709e-06
-1.100154965e-12
1.945917693e-12
9.497820647e-06
-1.324302487e-12
1.736778794e-14
9.497822149e-06
-1.462600476e-12
1.475046555e-12
9.497821513e-06
-2.121808479e-13
2.079976165e-12
9.497820801e-06
-2.313721243e-13
2.741617554e-12
9.497816661e-06
-1.377832564e-12
2.476899321e-12
9.497813129e-06
-3.759151794e-12
-1.060277709e-13
9.49780978e-06
-2.592063964e-12
1.105864057e-12
9.497833895e-06
-2.92603245e-11
-2.58652878e-11
9.497838621e-06
-1.845709787e-11
-8.894229789e-12
-1.5614433e-10
-2.13184169e-10
9.497836998e-06
-5.424000628e-13
4.563706747e-13
9.497837683e-06
4.655861541e-13
2.015410834e-13
9.497838601e-06
-1.047524126e-12
-1.94377714e-14
9.497835301e-06
-1.980503161e-12
-1.874498242e-12
9.497834937e-06
-1.392774767e-12
4.488506143e-15
9.49783463e-06
1.059664125e-13
6.807451661e-13
9.497834631e-06
8.097436002e-13
2.689813172e-12
9.497832589e-06
-6.722038726e-13
3.169377551e-12
9.49783504e-06
4.185756887e-13
3.603775612e-12
9.497831166e-06
1.308457601e-13
3.758742374e-12
9.497824874e-06
-4.523181443e-12
5.560312937e-12
9.497822116e-06
-7.816116227e-12
6.170027079e-12
9.497838654e-06
-2.929136898e-11
-1.570241752e-11
9.497842763e-06
-2.793078337e-11
4.890689971e-12
-1.466313932e-10
-3.305811765e-10
9.497832098e-06
-2.875186042e-13
1.013395148e-12
9.497831628e-06
-2.828794757e-13
2.401136871e-13
9.497830509e-06
8.243735826e-13
-3.801200553e-14
9.497830067e-06
1.32796797e-12
-8.253919983e-13
9.497831275e-06
2.534161898e-13
5.925759053e-13
9.497829258e-06
-5.658911249e-13
9.375885606e-13
9.497828396e-06
-1.19262594e-12
2.466783392e-12
9.497828275e-06
-1.518550894e-12
3.219234195e-12
9.497825393e-06
-9.521609708e-13
2.640899039e-12
9.497819078e-06
4.622804339e-13
4.140101189e-12
9.497803395e-06
3.169023489e-12
6.469096857e-12
9.497783744e-06
5.885870999e-12
9.852602204e-12
9.497762193e-06
2.795075499e-11
-3.688860867e-11
9.497709788e-06
2.739341499e-11
-6.646396986e-12
1.457295743e-10
-8.212349916e-10
9.497803476e-06
-4.503625933e-13
7.941365329e-13
9.49780219e-06
-1.733540879e-13
-3.661538631e-13
9.497802015e-06
9.782859613e-14
1.61345582e-13
9.497799096e-06
-1.677909986e-14
-8.29452734e-13
9.49779936e-06
5.223234454e-13
-1.149685217e-12
9.497799165e-06
-4.847762304e-13
4.43999103e-13
9.497798886e-06
3.370020497e-13
1.270485079e-12
9.497798791e-06
-1.789673546e-12
1.962334869e-12
9.497799045e-06
-1.702465664e-12
1.938962985e-12
9.497794471e-06
-1.514763101e-12
3.16752348e-12
9.497788283e-06
3.728007133e-12
4.735633101e-12
9.497784286e-06
3.99882593e-12
7.463546647e-12
9.497797615e-06
3.048764237e-11
-1.520225656e-11
9.497804263e-06
1.885446305e-11
5.356175378e-12
1.548076225e-10
-3.311541103e-10
9.497847424e-06
-7.721680403e-13
-2.322190419e-13
9.497845663e-06
-8.31554774e-13
1.712846096e-13
9.497846625e-06
-1.27018947e-12
2.118230046e-13
9.497842487e-06
-1.473682454e-12
-5.864486908e-13
9.497841012e-06
5.914904156e-13
-6.115652618e-13
9.49784178e-06
6.94862234e-13
-7.382016208e-13
9.497840867e-06
-3.487103884e-13
-1.928666196e-13
9.497841739e-06
1.210520378e-12
1.963941153e-12
9.497841476e-06
2.729425388e-12
2.817798791e-12
9.49783639e-06
7.663869725e-13
2.325734216e-12
9.49783283e-06
4.621383829e-12
-2.023789498e-13
9.497829331e-06
7.270002303e-12
6.322487089e-13
9.497851232e-06
3.322598984e-11
-2.818658487e-11
9.497857156e-06
2.426192066e-11
-1.129769909e-11
1.233990117e-10
-2.144318767e-10
9.497826466e-06
4.104868793e-13
-7.38953294e-14
9.497824214e-06
-4.571821735e-13
-1.893684135e-14
9.497825647e-06
5.788913139e-13
-9.151479486e-13
9.497823732e-06
7.885768486e-13
-1.668268226e-13
9.497820985e-06
-1.636226505e-13
-2.258566521e-13
9.49782207e-06
-7.004852118e-13
5.581495535e-13
9.49782379e-06
1.023199561e-13
1.309552449e-12
9.49782374e-06
-2.671750541e-13
2.141621742e-12
9.497823001e-06
4.627218212e-14
-9.686970638e-13
9.497823309e-06
5.493996587e-13
1.535626286e-12
9.497827539e-06
4.602228398e-12
1.906986079e-13
9.497830043e-06
2.129554397e-12
-3.609259532e-12
9.497863751e-06
1.665189294e-11
-2.202761042e-11
9.497886075e-06
1.281467191e-11
-1.09679342e-11
6.240978197e-11
-9.94315027e-11
9.497810084e-06
5.016503363e-13
9.497809823e-06
-1.123511393e-12
9.497809797e-06
-1.906296869e-12
9.497807532e-06
2.214463694e-13
9.497807449e-06
1.081368535e-12
9.497807636e-06
1.607999227e-12
9.497808397e-06
1.288101326e-12
9.497809957e-06
1.831698467e-12
9.497809654e-06
-1.625631723e-12
9.497811631e-06
3.485931827e-13
9.497814628e-06
-2.716491332e-12
9.49782237e-06
-3.301705228e-12
9.497857914e-06
-1.978853556e-11
9.497884244e-06
-1.444131669e-11
-6.202320344e-11
9.497842312e-06
-5.761207304e-13
-7.99056866e-13
9.497843884e-06
-3.614869303e-13
-7.959472512e-13
9.497844605e-06
2.483093727e-13
-1.137238063e-14
9.49784321e-06
-5.299049749e-13
-1.576275053e-13
9.497843061e-06
3.526119665e-14
1.431451746e-12
9.49783956e-06
-1.869128727e-12
-5.161136333e-13
9.497840162e-06
-2.03053856e-12
1.990654289e-13
9.497841566e-06
-3.915662926e-13
1.281857426e-12
9.49784029e-06
-6.321615103e-14
5.864881438e-13
9.497840791e-06
-1.073071898e-12
7.094235619e-14
9.497843662e-06
-3.242090698e-12
-4.602927253e-12
9.497848717e-06
-2.27689006e-12
-7.522206778e-12
9.497880764e-06
-2.037770671e-11
-3.536123977e-11
-1.049194342e-11
-2.463251556e-11
9.497822619e-06
-1.457503121e-12
-7.167917458e-13
9.497825216e-06
1.470993956e-12
3.626749158e-13
9.497824546e-06
1.350879085e-12
1.136498928e-12
9.49782362e-06
1.030199592e-12
1.077701643e-12
9.497822086e-06
1.041901742e-12
5.51551093e-13
9.497821548e-06
8.523162548e-13
1.006890551e-12
9.497824102e-06
3.046060603e-13
2.422466769e-12
9.497823915e-06
1.201925672e-13
1.260482596e-12
9.497820693e-06
-7.269728997e-13
1.45041029e-12
9.497820457e-06
7.547467744e-13
2.064339616e-12
9.497820237e-06
-2.839045746e-12
-1.921575674e-12
9.497823795e-06
-2.776183169e-12
-3.366324023e-12
9.497848047e-06
-3.56427566e-11
-3.784162436e-11
9.49786627e-06
-1.975366129e-11
-1.955479892e-11
-2.078226333e-10
9.497827086e-06
-2.550940136e-13
4.283349153e-13
9.497825803e-06
-6.705615321e-13
7.144994182e-13
9.497824029e-06
-7.049142049e-13
5.953802255e-13
9.497823653e-06
-8.461470187e-13
-7.650759903e-13
9.497822405e-06
-1.558091844e-12
-6.657753871e-13
9.497823771e-06
-1.644296635e-13
1.092462715e-12
9.49782607e-06
7.439926371e-13
3.148136967e-12
9.497824961e-06
1.074838403e-12
1.185775349e-12
9.497820716e-06
4.264645015e-13
2.414464851e-12
9.497818089e-06
6.53628044e-13
2.488115289e-12
9.497813412e-06
5.895127164e-13
1.852944712e-12
9.497807996e-06
1.434099769e-12
4.304249372e-13
9.497815647e-06
-2.958413751e-11
-4.31897474e-11
9.497814384e-06
-1.022603427e-11
-2.041723044e-11
-2.965468185e-10
-4.869542572e-10
9.497835487e-06
2.366129633e-14
8.787349413e-13
9.497837279e-06
1.079243437e-12
3.661222912e-12
9.497835906e-06
-5.545347282e-13
2.814725889e-13
9.497835468e-06
-7.586822704e-13
1.755630407e-14
9.497832754e-06
-8.767709332e-13
4.970354322e-13
9.497832692e-06
3.925155655e-13
7.945986819e-13
9.497833351e-06
3.368703102e-13
1.639440633e-12
9.497832833e-06
-3.273607564e-13
9.690901772e-13
9.497833288e-06
-1.140522199e-12
5.578057408e-12
9.49783192e-06
-2.634288407e-13
7.905177678e-12
9.497822207e-06
-3.487917781e-12
1.484474992e-11
9.497821247e-06
-5.133021472e-12
1.267662999e-11
9.497811214e-06
-3.953681793e-11
7.49127612e-14
9.497847724e-06
-3.787133858e-11
-2.02116933e-12
-3.021941577e-10
-8.090054049e-10
9.497825707e-06
-1.286219457e-12
1.117363647e-12
9.497824542e-06
-7.041193961e-13
3.571629963e-13
9.497824112e-06
4.52130231e-14
8.910281489e-13
9.497825989e-06
1.647671815e-12
7.409038803e-13
9.497824898e-06
-1.903590026e-12
2.223415176e-12
9.497822627e-06
-2.089653086e-12
1.786495652e-12
9.497820838e-06
-3.070630866e-12
1.954244041e-12
9.497818149e-06
-3.400591369e-12
3.42882466e-12
9.497817193e-06
-2.097627003e-12
7.432921364e-12
9.497812283e-06
-1.186010689e-12
1.07511383e-11
9.49778962e-06
8.124364631e-13
2.214556132e-11
9.49776458e-06
4.296203569e-12
2.80026755e-11
9.497666754e-06
3.645856153e-11
-1.414689853e-11
9.497595291e-06
3.696886049e-11
-5.624669796e-12
3.011195731e-10
-2.381164267e-09
9.497859146e-06
-8.650759851e-13
1.139672202e-12
9.497859064e-06
3.808384997e-13
-1.169485774e-13
9.497855791e-06
-2.290985081e-13
-3.686554603e-13
9.497854142e-06
-6.38631307e-13
-5.627975369e-13
9.497856185e-06
5.817914835e-13
1.664017211e-12
9.497853685e-06
-2.015438854e-12
2.209809606e-12
9.497855491e-06
-6.204145519e-13
3.806435231e-12
9.497854904e-06
-8.248826437e-13
5.110732201e-12
9.497855686e-06
-1.43351123e-12
7.546543375e-12
9.497850771e-06
-2.849504957e-12
7.781307245e-12
9.49784474e-06
-2.263871427e-14
1.682787021e-11
9.497841099e-06
-3.142466861e-12
1.451530385e-11
9.497832337e-06
2.801720799e-11
1.512620139e-12
9.497864296e-06
7.581299643e-12
-2.742789076e-12
2.952491792e-10
-8.110287217e-10
9.497820523e-06
-7.102249912e-13
2.299399433e-12
9.497819016e-06
-1.190327665e-12
1.029273906e-13
9.497818273e-06
-1.298890096e-12
-1.04253115e-12
9.497817689e-06
5.125045108e-14
1.330771467e-12
9.497815386e-06
9.767096626e-13
7.623268226e-13
9.497815984e-06
1.039761414e-12
1.39035396e-12
9.497815488e-06
1.621587102e-13
2.373698527e-12
9.497814961e-06
-1.15606295e-13
1.922226017e-12
9.497815236e-06
-7.739798487e-13
2.616436793e-12
9.497810972e-06
-1.065489215e-12
3.534545164e-12
9.497803547e-06
3.319898066e-12
2.88148161e-12
9.4977981e-06
2.286208284e-12
2.902474107e-12
9.497807561e-06
3.533234989e-11
-4.05236775e-11
9.497806044e-06
1.886288538e-11
-2.120869589e-11
2.065866432e-10
-4.871255454e-10
9.497858341e-06
6.088200004e-13
1.026858896e-12
9.497856444e-06
-6.769788998e-13
-1.415008025e-12
9.497856656e-06
2.881116221e-13
-2.028845516e-13
9.497854844e-06
1.336904112e-12
1.591697661e-13
9.497853241e-06
-2.838799365e-14
-7.346155081e-13
9.497853001e-06
6.074112017e-13
1.535937722e-13
9.497854195e-06
-1.134301136e-12
1.660099125e-12
9.49785312e-06
-1.543480962e-12
1.457232441e-12
9.497854438e-06
-4.885758204e-13
2.136274046e-12
9.497854025e-06
-1.276026228e-12
2.064970427e-12
9.497853112e-06
1.654904809e-12
-1.666754406e-12
9.497857617e-06
2.410565224e-12
-1.755626712e-12
9.49788406e-06
2.034549768e-11
-3.429382098e-11
9.497900067e-06
9.380287196e-12
-1.988649455e-11
9.987044182e-11
-2.066174368e-10
9.497819177e-06
-7.954870168e-13
9.497820481e-06
-1.591336921e-12
9.497820738e-06
3.119783126e-13
9.497816666e-06
-1.150118535e-12
9.49781563e-06
1.095325858e-13
9.497813709e-06
2.357126044e-13
9.497816571e-06
9.213711739e-13
9.497816147e-06
1.395750996e-12
9.49781682e-06
1.060825292e-13
9.497818068e-06
-1.038640384e-12
9.497819875e-06
-6.05108316e-12
9.49782407e-06
-5.562569592e-12
9.49785653e-06
-3.273916081e-11
9.497877579e-06
-2.488086036e-11
-1.249024224e-10
9.49783232e-06
-1.102505161e-13
-1.931098099e-13
9.497834449e-06
1.672090465e-14
7.649203364e-13
9.497832602e-06
4.141271234e-13
-6.618925649e-13
9.497833104e-06
-2.433591321e-13
-9.926635123e-13
9.497832676e-06
-3.928884028e-13
-1.16423578e-12
9.497830714e-06
-5.320768004e-13
-1.93556713e-12
9.49783042e-06
-1.137917489e-12
1.224617691e-13
9.497829963e-06
-4.433685413e-13
5.480486969e-14
9.497827235e-06
1.594693204e-12
-7.671789169e-13
9.497821659e-06
5.097250389e-13
-1.337956827e-12
9.497818733e-06
-1.10726073e-12
-3.620129774e-12
9.497815719e-06
1.991488923e-12
-2.654579307e-12
9.497843758e-06
-2.679883451e-11
-2.828250249e-11
-1.10038209e-11
-1.896023907e-11
9.497807056e-06
-8.355987645e-14
1.260064376e-13
9.49780854e-06
5.548695914e-13
1.092667055e-12
9.497807278e-06
4.356044328e-13
-5.028726325e-14
9.497806159e-06
-1.703465283e-12
-1.205425373e-13
9.497804997e-06
-1.517164368e-12
8.076144396e-14
9.497806192e-06
9.090068923e-13
6.319415881e-13
9.497807363e-06
1.071073476e-12
1.423477985e-12
9.497806822e-06
-2.845265608e-13
1.017389771e-12
9.497806474e-06
1.318143255e-12
6.638840873e-13
9.497803496e-06
2.009697873e-12
1.51194522e-12
9.4977976e-06
6.660766744e-13
-7.481573975e-14
9.49779255e-06
1.592473077e-12
1.705347106e-12
9.497802894e-06
-4.148459748e-11
-2.884831531e-11
-2.075286333e-11
-9.805823465e-12
9.497844206e-06
1.402021405e-12
1.039427814e-12
9.497845475e-06
1.570973401e-12
7.296232899e-13
9.497843854e-06
-8.278370988e-13
-1.336562819e-13
9.497845067e-06
-1.984393598e-13
8.923639625e-13
9.497844349e-06
-1.476157188e-12
9.925055203e-13
9.497845136e-06
-1.126201761e-12
1.877887886e-12
9.497844305e-06
-1.495404861e-13
1.720892182e-12
9.497845181e-06
5.490701732e-13
3.824228149e-12
9.497839509e-06
2.328616718e-12
4.434903873e-12
9.497835297e-06
5.893553352e-12
5.483002858e-12
9.497820336e-06
1.042387242e-11
9.722373828e-12
9.497798446e-06
1.236661058e-11
1.157677847e-11
9.497765168e-06
-2.375804726e-11
-2.462407556e-11
9.497719713e-06
1.494676171e-12
3.22971946e-12
-8.280706536e-10
9.497862032e-06
-1.699147455e-13
1.269349812e-12
9.49785895e-06
-1.984650407e-12
-8.523427341e-13
9.497861054e-06
3.839228357e-14
6.873101453e-14
9.49786136e-06
4.418491302e-13
2.021011249e-12
9.497861303e-06
1.301594412e-13
2.347937846e-12
9.497861638e-06
1.465878761e-12
2.8717061e-12
9.49786042e-06
1.075665557e-12
4.137290013e-12
9.497862762e-06
1.138457175e-12
5.204756101e-12
9.497860481e-06
4.081623425e-14
9.051540567e-12
9.497858802e-06
1.611211514e-12
1.105803488e-11
9.497851656e-06
2.144133733e-13
3.12352811e-11
9.497844858e-06
3.834945697e-13
3.563128747e-11
9.497796703e-06
-5.386258139e-11
7.696425155e-11
9.497819505e-06
-6.341629218e-11
4.686914193e-11
-9.021068716e-10
-1.637516941e-09
9.497840442e-06
-1.416986852e-12
-6.310113643e-14
9.497841148e-06
-5.979838337e-13
1.311238106e-12
9.497839286e-06
-5.029882466e-13
9.942738928e-13
9.497841897e-06
3.346560631e-13
1.778306245e-12
9.497841892e-06
-1.558150521e-12
2.155316839e-12
9.497841974e-06
-7.41369088e-13
1.92608091e-12
9.497842228e-06
-1.041406764e-12
3.672708083e-12
9.497841805e-06
-1.059373557e-12
4.513888403e-12
9.497842949e-06
-1.024504483e-12
1.184218066e-11
9.497840112e-06
-1.910288429e-12
1.828639092e-11
9.497816528e-06
-2.280730805e-12
5.169554656e-11
9.497766672e-06
-4.079444398e-13
8.483113521e-11
9.497512308e-06
5.277506804e-11
1.263225521e-10
9.497097441e-06
6.255886224e-11
2.815570124e-10
8.998217608e-10
-6.409140099e-09
9.497838495e-06
-6.852721018e-14
-5.615809771e-14
9.497838951e-06
5.163388833e-13
5.06642417e-13
9.497837424e-06
-8.764510269e-13
5.093823958e-13
9.497838151e-06
7.658768641e-13
2.146983443e-13
9.497839599e-06
3.240569562e-13
1.723215596e-12
9.497838485e-06
-7.756462429e-13
2.571216342e-12
9.497840211e-06
-1.749876878e-12
3.283267161e-12
9.497838833e-06
-3.868315183e-12
3.261761361e-12
9.497839685e-06
-5.65657321e-12
6.881509689e-12
9.497837579e-06
-5.591969736e-12
1.098978114e-11
9.497831501e-06
-9.292782229e-12
3.245283774e-11
9.497820985e-06
-1.367917982e-11
3.33452812e-11
9.497775451e-06
2.402444022e-11
7.795402356e-11
9.497797276e-06
-3.309205987e-12
4.68736641e-11
8.290879955e-10
-1.635518098e-09
9.497842712e-06
-1.582094282e-12
-4.670586989e-13
9.497841188e-06
-3.251835793e-12
-3.497822177e-13
9.497843168e-06
-1.029709196e-12
5.938115461e-13
9.49783962e-06
-1.575174618e-12
-7.537687621e-13
9.497839078e-06
-6.031225279e-13
5.92671164e-13
9.497842237e-06
-6.86574829e-13
1.315617482e-12
9.497841455e-06
-2.762183971e-13
1.016606765e-12
9.497839283e-06
-8.311046527e-13
2.333164768e-12
9.497840209e-06
-1.315041155e-12
3.637282091e-12
9.497834079e-06
-3.662572199e-12
3.201350572e-12
9.497819913e-06
-1.03381249e-12
8.56562465e-12
9.497800018e-06
-1.158728682e-12
1.313433407e-11
9.497763857e-06
4.133548093e-11
-2.381154673e-11
9.497718134e-06
2.028546221e-11
3.391363901e-12
4.862952355e-10
-8.297767698e-10
9.497809074e-06
-4.42623826e-13
-2.987137778e-14
9.497812705e-06
3.490855635e-13
-2.609006088e-14
9.497812292e-06
1.089666986e-12
-1.15926811e-13
9.497811408e-06
-6.668688989e-13
-4.671568802e-13
9.497810328e-06
-1.573219537e-13
-1.121568829e-12
9.497810039e-06
2.193506775e-13
-7.674269901e-13
9.497808195e-06
-2.093935487e-12
-9.853791693e-13
9.497808056e-06
-1.556877255e-12
1.110748797e-12
9.497808345e-06
-1.829526192e-12
4.069158595e-13
9.497805133e-06
-4.248472909e-12
1.481454076e-12
9.497796249e-06
-2.158310922e-12
-1.195712773e-12
9.497790648e-06
-9.782646554e-13
5.892936756e-13
9.497799626e-06
2.640914476e-11
-3.033076272e-11
9.497799315e-06
9.93209344e-12
-9.633996636e-12
2.137481618e-10
-2.971351403e-10
9.497845655e-06
-2.218769894e-13
9.497847935e-06
-4.212708737e-13
9.497844829e-06
-2.103930021e-12
9.497845676e-06
-1.907724363e-12
9.497845701e-06
-2.98771513e-13
9.49784373e-06
-2.004097749e-13
9.497843604e-06
3.835315948e-13
9.497842657e-06
8.154012155e-13
9.4978394e-06
7.015327892e-14
9.497839945e-06
1.204580703e-12
9.497836315e-06
-2.981509731e-12
9.497831193e-06
-2.870290437e-12
9.497856866e-06
-2.927557012e-11
9.497863047e-06
-1.718308259e-11
-1.54365716e-10
9.497826679e-06
5.658117437e-14
-2.565204367e-13
9.497828439e-06
2.310288503e-13
9.690655944e-13
9.497828275e-06
8.775060263e-13
2.299283845e-12
9.497826885e-06
1.950572738e-12
-1.192346722e-13
9.497827311e-06
1.62933749e-12
-4.689518921e-13
9.497827472e-06
1.509825883e-12
8.698231833e-13
9.497826453e-06
1.015681242e-12
-1.095468392e-12
9.497823954e-06
9.658234469e-13
-2.171247516e-12
9.49782376e-06
1.480944437e-12
-1.246778971e-12
9.497820846e-06
3.004271714e-12
-1.522629441e-12
9.497814444e-06
3.994592713e-12
-5.023339789e-12
9.497811327e-06
5.91742311e-12
-6.664745923e-12
9.497826811e-06
-1.590124944e-11
-3.018909404e-11
3.988251393e-12
-2.958653022e-11
9.497814546e-06
3.415165209e-13
2.386783841e-13
9.497814716e-06
9.973689102e-13
-1.363086632e-13
9.497814569e-06
-3.990281021e-15
3.678685081e-13
9.497815042e-06
1.659049154e-13
1.147597896e-12
9.497814393e-06
4.347627446e-13
4.616813964e-13
9.497815523e-06
1.436630633e-12
7.763938521e-13
9.497814037e-06
1.465333027e-12
1.257149496e-12
9.49781342e-06
2.827923099e-12
5.852930567e-13
9.497812176e-06
5.767643453e-12
1.222690812e-12
9.497808987e-06
6.790720241e-12
1.037560389e-12
9.497802343e-06
1.461100758e-11
-2.636756633e-12
9.497800096e-06
1.264427175e-11
-4.578654833e-12
9.497791951e-06
5.344960465e-13
-3.789846986e-11
-8.329591982e-14
-3.906659531e-11
9.497842006e-06
1.028672612e-12
6.057389405e-13
9.497841014e-06
-6.39616878e-13
-2.390174271e-13
9.49784036e-06
1.84581637e-13
1.153365283e-12
9.497840188e-06
5.111095649e-14
5.641461899e-13
9.49783957e-06
-7.37192249e-13
4.063871082e-13
9.497840178e-06
1.228306721e-12
1.630420216e-12
9.497840112e-06
2.067351407e-12
1.370984961e-12
9.497839564e-06
2.397661654e-12
1.499625684e-12
9.497840295e-06
6.854196123e-12
1.594074918e-12
9.497838633e-06
1.054492386e-11
2.458288797e-12
9.49783121e-06
3.169122113e-11
1.258771295e-12
9.497822376e-06
3.608962731e-11
1.466472387e-12
9.497777513e-06
7.775585991e-11
-5.338610785e-11
4.527329288e-11
-6.628509235e-11
9.497815791e-06
-1.056177122e-12
-1.659392564e-12
9.497819078e-06
9.786357321e-14
-3.011484864e-14
9.497819114e-06
7.922783756e-13
1.19831935e-12
9.497818765e-06
3.857125348e-13
9.376091908e-13
9.497819757e-06
5.938228215e-13
2.150493488e-13
9.497820055e-06
-3.158529984e-13
1.34100722e-12
9.497820576e-06
-9.107349171e-13
2.290962275e-12
9.497824826e-06
1.952111977e-13
2.098055722e-12
9.497834155e-06
3.35955682e-12
4.342071717e-12
9.497843741e-06
5.604748213e-12
7.528891215e-12
9.497876897e-06
1.591540088e-11
1.702355738e-11
9.497907844e-06
1.811042994e-11
1.995707516e-11
9.498056071e-06
5.424390498e-12
7.26406329e-12
9.498440263e-06
-1.461709354e-10
-1.452373121e-10
-1.81281998e-09
9.497847228e-06
-8.355455501e-13
-1.720262289e-12
9.497848847e-06
-1.622871019e-12
-3.942542619e-13
9.49784742e-06
6.17037326e-14
-1.631560346e-13
9.497848844e-06
-8.715486237e-13
1.705845643e-13
9.497847421e-06
-1.590988251e-12
1.322243508e-13
9.497849831e-06
-1.168564394e-12
6.756920068e-13
9.497850014e-06
-1.428708326e-12
2.482190565e-12
9.49785535e-06
-1.489774417e-12
3.485316118e-12
9.497866861e-06
-5.14355853e-12
7.982402867e-12
9.497886305e-06
-6.629906332e-12
1.590234335e-11
9.497934095e-06
-1.77002093e-11
3.48069571e-11
9.497956945e-06
-2.034517025e-11
1.017824471e-10
9.497937328e-06
-5.396841699e-12
1.583713237e-10
9.49733732e-06
1.448077321e-10
5.927881107e-10
1.812063138e-09
-1.250554226e-08
9.497833914e-06
-5.675762146e-13
-7.675992797e-14
9.497835467e-06
-9.37128774e-13
-3.548658771e-14
9.497832948e-06
-1.963311602e-12
3.03756587e-13
9.497836096e-06
2.937181885e-13
3.509156562e-13
9.497834797e-06
-5.078885519e-13
4.014729015e-13
9.497834945e-06
-2.451474333e-12
7.865568019e-13
9.497836629e-06
-2.849624974e-12
1.444923756e-12
9.497839329e-06
-4.745759817e-12
1.9027754e-12
9.497849965e-06
-8.710357827e-12
5.295723819e-12
9.497858102e-06
-1.305118816e-11
5.829092946e-12
9.497889892e-06
-3.280781865e-11
1.515984667e-11
9.497924074e-06
-3.496259526e-11
2.018543609e-11
9.498069604e-06
-7.752155677e-11
6.936755887e-12
9.498453538e-06
-4.790340579e-11
-1.450571077e-10
1.633895072e-09
-1.812096019e-09
9.497804308e-06
-1.814009921e-12
-9.564273542e-13
9.497803273e-06
-2.604778648e-12
7.610860392e-13
9.49780413e-06
-1.771450289e-12
8.776734056e-13
9.497801243e-06
-1.473955596e-12
-7.416106946e-13
9.49780091e-06
-1.708269515e-12
3.1570901e-13
9.497801352e-06
-2.808069305e-12
1.367125972e-12
9.497800461e-06
-2.570655604e-12
2.198085213e-12
9.497799707e-06
-2.21127928e-12
2.845750135e-12
9.497803482e-06
-5.698529949e-12
3.083245565e-12
9.497804807e-06
-6.352913017e-12
4.069087526e-12
9.497794571e-06
-1.622390287e-11
8.877022847e-13
9.497784936e-06
-1.549212348e-11
1.777503012e-12
9.497737699e-06
-3.420940673e-12
-5.38097652e-11
9.497759466e-06
-5.563949128e-14
-6.41245469e-11
8.087515292e-10
-9.005991741e-10
9.497847006e-06
-7.485120732e-13
-1.640016264e-13
9.497848679e-06
-4.531528599e-13
9.525730076e-13
9.497850572e-06
-1.805495351e-13
1.46025171e-12
9.497848566e-06
-9.618196144e-13
3.62606912e-13
9.497847954e-06
1.710211431e-13
-6.454744452e-14
9.497850396e-06
1.087414833e-12
-2.759517371e-14
9.497848949e-06
-3.550109348e-13
1.693715883e-14
9.497846921e-06
-1.747966367e-12
2.689122973e-13
9.497848896e-06
-2.475756285e-12
2.112864286e-12
9.497847895e-06
-4.207105017e-12
1.015243463e-12
9.497839714e-06
-5.599988394e-12
-3.294939925e-12
9.497839527e-06
-5.23122737e-12
-4.25246987e-12
9.497831931e-06
1.674028514e-11
-3.61594307e-11
9.497865399e-06
-2.971891488e-12
-3.723735442e-11
3.34032493e-10
-3.02164827e-10
9.497832297e-06
1.107866479e-13
9.497833512e-06
1.246275101e-12
9.497832269e-06
1.630698261e-12
9.497831355e-06
9.701498737e-13
9.497830576e-06
3.250798373e-13
9.497830123e-06
-1.504953045e-12
9.497830137e-06
-1.066350167e-13
9.497828275e-06
-2.023593469e-14
9.497826257e-06
1.85614447e-12
9.497827435e-06
8.987070554e-13
9.497821064e-06
-3.715203543e-12
9.497816709e-06
-6.390806385e-12
9.497833472e-06
-2.837753829e-11
9.497838554e-06
-2.762945269e-11
-1.456725398e-10
9.497836128e-06
7.48873556e-13
8.512907075e-13
9.497836943e-06
5.391681129e-13
-4.652558767e-13
9.497834944e-06
-4.604653717e-13
-2.11156014e-12
9.497835783e-06
1.543641963e-12
-1.070378804e-13
9.497836563e-06
2.391513947e-12
-1.179846279e-12
9.497833562e-06
2.50522713e-12
-1.482477442e-12
9.497834336e-06
3.027614871e-12
-8.851834022e-13
9.497833038e-06
3.447471545e-12
-1.221671627e-12
9.497830614e-06
4.878854802e-12
-7.930737669e-14
9.49782308e-06
5.220662059e-12
-1.680729884e-12
9.497807943e-06
6.670486424e-12
1.228801339e-12
9.497787456e-06
1.080079226e-11
4.002084089e-12
9.497768001e-06
-3.667248157e-11
2.795877415e-11
-6.882526465e-12
2.87824797e-11
9.49783807e-06
7.531675243e-13
-3.196560387e-14
9.497837058e-06
3.385749052e-13
-7.399595341e-13
9.497838234e-06
8.599689616e-13
5.262253814e-14
9.497837087e-06
4.06267933e-14
-5.651820168e-13
9.497835385e-06
4.461650154e-13
-1.80979308e-12
9.497835263e-06
2.099189285e-12
-1.69774628e-12
9.497834375e-06
3.229404927e-12
-1.349485119e-12
9.497834941e-06
4.875754367e-12
-1.462429667e-13
9.497829896e-06
7.833890675e-12
-1.14922686e-13
9.49782431e-06
1.015177184e-11
-1.390713607e-12
9.49780459e-06
2.242760051e-11
2.624131669e-12
9.497778351e-06
2.801227822e-11
4.099226742e-12
9.497680036e-06
-1.40886931e-11
3.808490307e-11
-5.328083894e-12
3.916811388e-11
9.497830596e-06
-7.442378782e-13
-1.053548498e-13
9.497829635e-06
3.004031975e-13
-9.889610561e-13
9.497832125e-06
4.009887431e-13
-5.220582518e-13
9.497832547e-06
6.189138796e-13
-1.005032043e-12
9.497830965e-06
2.144780839e-13
-2.176554011e-12
9.497831767e-06
8.612449381e-13
-7.913805973e-13
9.497833093e-06
3.213448877e-12
-1.342249685e-12
9.497832292e-06
3.682179065e-12
-6.988816787e-13
9.49783216e-06
1.042517123e-11
-1.790579655e-12
9.497830396e-06
1.858448364e-11
-2.184151604e-12
9.497807169e-06
5.196241013e-11
-1.601871552e-12
9.497756135e-06
8.577297797e-11
-2.045687478e-12
9.49750311e-06
1.286255581e-10
5.306929041e-11
2.82729805e-10
6.445650064e-11
9.497831005e-06
-6.666986105e-13
-9.598696964e-13
9.497833013e-06
5.363909691e-13
-4.067186175e-13
9.497832303e-06
-1.140442226e-13
4.93537784e-14
9.497832101e-06
3.358464738e-13
-1.242658579e-12
9.497832577e-06
9.341360497e-13
5.711699158e-14
9.497833816e-06
-1.055448007e-13
-1.332937163e-12
9.497835295e-06
2.120545917e-13
-2.388259675e-12
9.497841839e-06
1.485124341e-12
-1.967517014e-12
9.497853936e-06
6.466533759e-12
-2.256281567e-12
9.497869998e-06
1.394350616e-11
-5.78867236e-12
9.497920287e-06
3.405975963e-11
-1.587052227e-11
9.497942746e-06
1.000489212e-10
-2.076093061e-11
9.497924222e-06
1.564169737e-10
-6.235770182e-12
5.911713719e-10
1.459157868e-10
9.49780406e-06
-4.268795562e-13
-5.375098656e-13
9.497802736e-06
-9.796078543e-13
-6.26670798e-13
9.497804235e-06
3.728701016e-13
3.916522952e-13
9.497804709e-06
-8.743767392e-13
1.436333644e-13
9.497804363e-06
-1.822121573e-12
3.88729839e-13
9.497806029e-06
-1.905774965e-12
-9.890436372e-13
9.497808219e-06
-3.468290794e-12
-3.215947028e-12
9.497817762e-06
-3.625328329e-12
-3.070142885e-12
9.497839436e-06
-7.195391868e-12
-5.727876617e-12
9.497893623e-06
-1.575751116e-11
-1.375526641e-11
9.498035424e-06
-3.631552766e-11
-3.482181187e-11
9.498439346e-06
-1.023084806e-10
-1.025840743e-10
9.499071453e-06
-1.569424523e-10
-1.569207895e-10
9.501451528e-06
-5.931649322e-10
-5.909828076e-10
1.250639473e-08
9.497812696e-06
-9.848292144e-13
-7.462885831e-13
9.49781362e-06
-1.140395093e-12
-1.982535631e-13
9.497810833e-06
-1.353051119e-12
-8.431428236e-13
9.497812257e-06
-1.573999535e-12
-2.12459527e-13
9.497812826e-06
-1.054106679e-12
-1.022255065e-13
9.497814395e-06
-2.538339351e-12
-1.406872395e-12
9.49781751e-06
-2.805543381e-12
-8.621702861e-13
9.497822561e-06
-5.112825562e-12
7.17915206e-14
9.497834874e-06
-1.24777493e-11
-3.289540672e-12
9.4978536e-06
-1.828435455e-11
-6.360304621e-12
9.497901459e-06
-5.107113834e-11
-1.475313766e-11
9.497923101e-06
-8.389564965e-11
-1.86093656e-11
9.497903454e-06
-1.280426352e-10
-5.948399053e-12
9.497306012e-06
-2.8304827e-10
1.461025312e-10
6.406219969e-09
9.497821383e-06
-8.427750924e-13
-7.352082335e-13
9.497820013e-06
-1.662603079e-12
-9.162547929e-13
9.497821357e-06
-8.038258138e-13
9.2896564e-13
9.497820889e-06
-8.660831332e-13
5.366027218e-13
9.497818436e-06
-2.174739487e-12
-6.620306424e-13
9.497820826e-06
-3.120301566e-12
5.729111363e-13
9.497819584e-06
-4.287786003e-12
6.717366204e-13
9.49781883e-06
-5.429988006e-12
6.554293239e-13
9.497821119e-06
-7.054736462e-12
7.817201472e-13
9.497817331e-06
-1.133709749e-11
-1.146818897e-12
9.49779416e-06
-2.36586577e-11
-9.822866088e-14
9.497740665e-06
-2.9616086e-11
-6.499567821e-14
9.49748781e-06
1.376351342e-11
5.40495631e-11
9.497072338e-06
5.310478027e-12
6.561751959e-11
2.37893927e-09
9.030985007e-10