/*--------------------------------*- C++ -*----------------------------------*\
| =========                 |                                                 |
| \\      /  F ield         | OpenFOAM: The Open Source CFD Toolbox           |
|  \\    /   O peration     | Version:  4.x                                   |
|   \\  /    A nd           | Web:      www.OpenFOAM.org                      |
|    \\/     M anipulation  |                                                 |
\*---------------------------------------------------------------------------*/
FoamFile
{
    version     2.0;
    format      ascii;
    class       volScalarField;
    location    "2000";
    object      rhoeps;
}
// * * * * * * * * * * * * * * * * * * * * * * * * * * * * * * * * * * * * * //

dimensions      [1 -3 0 0 0 0 0];

internalField   nonuniform List<scalar> 
1175
(
0.279754254
0.2797542729
0.2797542805
0.2797542699
0.2797542366
0.2797542544
0.279754234
0.2797542274
0.2797542436
0.2797542258
0.2797542745
0.2797542987
0.2797543714
0.2797544877
0.2797547203
0.2797542602
0.2797542237
0.2797542505
0.2797542491
0.2797542736
0.2797542665
0.2797542614
0.2797542587
0.2797542625
0.2797542667
0.2797542914
0.2797543089
0.2797544011
0.2797546003
0.2797550028
0.2797541307
0.2797541328
0.2797540908
0.2797540741
0.2797540614
0.2797540902
0.2797540832
0.2797540861
0.279754107
0.2797540814
0.2797541112
0.2797541562
0.2797543111
0.2797546859
0.2797555282
0.2797544919
0.2797544965
0.2797544705
0.2797544825
0.2797544366
0.2797544311
0.2797544364
0.2797544122
0.2797544218
0.2797544477
0.2797545382
0.279754671
0.2797549388
0.279755658
0.2797571344
0.27975428
0.2797542727
0.2797542629
0.2797542502
0.2797542804
0.2797542771
0.2797543177
0.279754311
0.2797543007
0.2797543241
0.2797543614
0.2797545017
0.279754885
0.2797558323
0.2797577164
0.2797534325
0.2797534375
0.27975343
0.2797534245
0.2797534042
0.2797534083
0.2797534435
0.2797534097
0.2797533994
0.2797534213
0.2797534289
0.2797535425
0.2797538719
0.2797545526
0.2797559767
0.2797547026
0.2797547064
0.2797547065
0.2797547052
0.2797547305
0.2797547215
0.279754745
0.2797546855
0.2797546828
0.2797546576
0.2797546587
0.279754724
0.2797549073
0.2797552878
0.2797561044
0.2797540798
0.2797541424
0.2797541103
0.2797541062
0.2797541055
0.2797540974
0.279754109
0.2797541299
0.2797541261
0.2797541041
0.2797541283
0.2797541907
0.2797542663
0.2797544664
0.2797549142
0.2797536559
0.2797536469
0.279753653
0.2797536488
0.2797536456
0.279753675
0.2797536881
0.2797537054
0.2797537079
0.2797537003
0.2797537185
0.2797537197
0.2797537583
0.2797538743
0.2797540618
0.2797546731
0.2797546703
0.2797546768
0.2797546621
0.27975467
0.279754673
0.2797546397
0.2797546184
0.2797546513
0.2797546568
0.2797546601
0.2797546729
0.279754775
0.2797549674
0.2797541419
0.2797541263
0.2797540703
0.279754087
0.2797541117
0.2797540924
0.2797540972
0.2797540751
0.2797540992
0.2797541025
0.2797541159
0.2797541671
0.2797543467
0.2797546982
0.2797555356
0.2797541189
0.2797541499
0.2797541797
0.2797541609
0.2797541073
0.279754102
0.2797541218
0.279754125
0.2797541431
0.2797541695
0.2797542046
0.2797543748
0.2797547754
0.2797557378
0.2797576139
0.2797544704
0.2797544573
0.2797544298
0.2797544095
0.2797543934
0.279754392
0.2797544012
0.2797544097
0.2797544374
0.2797544677
0.2797545703
0.2797547753
0.2797555243
0.2797573965
0.2797613731
0.2797541936
0.2797541331
0.2797541235
0.2797541173
0.27975407
0.2797540688
0.2797540529
0.2797540376
0.2797540348
0.2797540475
0.2797541441
0.2797544796
0.2797555454
0.2797584802
0.2797647699
0.2797551176
0.2797550993
0.2797551147
0.2797550331
0.2797550639
0.2797550543
0.2797550365
0.2797550495
0.2797550148
0.2797550676
0.2797551019
0.2797553759
0.2797560866
0.279758033
0.279761957
0.2797539282
0.279753956
0.2797539079
0.2797538999
0.2797539503
0.2797539245
0.2797539254
0.2797539194
0.2797539115
0.2797539449
0.2797539719
0.2797541385
0.2797545342
0.2797554927
0.2797573687
0.2797550555
0.2797550394
0.2797549993
0.2797549995
0.2797549978
0.2797550286
0.2797550529
0.2797550446
0.2797550679
0.2797550966
0.2797551007
0.2797551826
0.2797553592
0.2797557695
0.279756606
0.2797539437
0.2797539534
0.2797539366
0.2797539691
0.2797539483
0.2797539383
0.279753923
0.2797539121
0.2797539034
0.2797539594
0.2797539647
0.2797539917
0.2797540452
0.2797542799
0.2797546515
0.2797543581
0.2797543591
0.2797543696
0.2797543618
0.2797543913
0.2797543801
0.2797543789
0.2797543924
0.279754324
0.2797543195
0.2797543096
0.2797543467
0.2797544899
0.2797549344
0.2797536414
0.2797536641
0.2797536328
0.279753616
0.2797536013
0.279753618
0.2797536454
0.2797536815
0.2797536935
0.2797537254
0.2797538052
0.2797539752
0.2797543389
0.2797553356
0.2797546843
0.2797546643
0.2797546684
0.2797547095
0.2797547352
0.2797547674
0.2797547396
0.2797547278
0.2797547322
0.2797547492
0.2797548516
0.2797551515
0.2797561053
0.2797586698
0.2797640008
0.2797551901
0.2797552025
0.2797551854
0.2797551619
0.2797551787
0.2797551681
0.2797551785
0.2797551577
0.2797551821
0.2797552252
0.2797554039
0.2797560612
0.2797582411
0.279764724
0.2797788842
0.2797545973
0.2797545863
0.2797546046
0.2797546072
0.2797546234
0.279754581
0.2797545664
0.2797545876
0.2797545837
0.2797546663
0.2797549108
0.2797558877
0.2797594544
0.2797714163
0.2798011957
0.2797545068
0.27975452
0.279754511
0.2797545283
0.2797545288
0.2797545658
0.2797545402
0.2797545342
0.279754556
0.2797546023
0.2797547831
0.2797554358
0.2797576209
0.2797640928
0.2797783251
0.2797546396
0.2797546345
0.2797546468
0.2797546517
0.2797546088
0.2797546139
0.2797546407
0.2797546815
0.2797547083
0.2797547395
0.2797548212
0.2797551204
0.2797560765
0.2797586619
0.2797640163
0.2797536812
0.2797536969
0.2797537073
0.2797537411
0.2797537408
0.2797537402
0.2797537571
0.2797537303
0.2797537729
0.2797537911
0.2797537923
0.2797538864
0.2797542839
0.2797552722
0.2797571662
0.2797547455
0.2797547387
0.2797547723
0.2797547499
0.2797547661
0.2797547747
0.2797547508
0.2797547586
0.2797547371
0.279754719
0.2797547549
0.2797548168
0.2797550112
0.279755458
0.2797562631
0.2797542257
0.2797542178
0.2797542078
0.2797541845
0.2797541663
0.2797542065
0.2797541837
0.2797541698
0.2797541685
0.2797542175
0.2797542437
0.2797543238
0.2797546351
0.2797553513
0.2797537797
0.2797537957
0.2797538268
0.2797538008
0.2797538089
0.2797538083
0.2797538407
0.2797538369
0.2797538402
0.2797538412
0.2797539084
0.2797541562
0.2797548768
0.2797568371
0.2797546158
0.2797546212
0.2797545995
0.2797546115
0.2797546006
0.2797545392
0.2797545486
0.2797545575
0.2797545401
0.279754601
0.2797547799
0.27975539
0.2797575866
0.2797641004
0.2797539128
0.279753915
0.279753877
0.2797539074
0.2797539561
0.2797539489
0.2797539701
0.2797539623
0.2797539988
0.2797540638
0.2797544483
0.2797559277
0.2797618192
0.2797824054
0.2798351471
0.2797547812
0.2797547693
0.2797547666
0.279754797
0.2797547609
0.2797547599
0.2797547406
0.2797547469
0.2797547877
0.279754872
0.2797553996
0.2797578984
0.279769529
0.2798203923
0.2800004896
0.2797543588
0.2797543761
0.2797544192
0.2797544278
0.279754423
0.2797544437
0.2797544422
0.2797544273
0.2797544336
0.2797545222
0.2797548359
0.2797563345
0.279762296
0.2797829159
0.2798356223
0.2797535117
0.2797534724
0.2797534951
0.279753479
0.2797534486
0.2797534769
0.2797534494
0.2797534439
0.2797534253
0.2797534879
0.2797536821
0.2797543665
0.2797565666
0.279762989
0.2797771784
0.2797548212
0.2797548142
0.2797548259
0.2797548337
0.2797548174
0.2797548174
0.2797547989
0.2797548494
0.2797548578
0.2797549293
0.2797549789
0.2797552429
0.2797560002
0.2797579095
0.279761898
0.2797543259
0.2797542981
0.2797543178
0.2797543116
0.2797543122
0.2797543072
0.2797543147
0.2797543256
0.2797543153
0.2797543508
0.2797543936
0.2797545319
0.27975481
0.2797555524
0.2797569875
0.2797544791
0.2797544669
0.2797544461
0.2797544685
0.2797544676
0.2797544743
0.2797544951
0.2797544724
0.279754444
0.2797544833
0.2797545174
0.2797546353
0.2797550232
0.2797559651
0.2797545184
0.2797545009
0.2797544765
0.2797544781
0.2797544791
0.2797544875
0.2797544583
0.2797544353
0.2797544525
0.2797544545
0.2797545089
0.2797548283
0.2797559188
0.2797588191
0.2797542723
0.279754294
0.2797543063
0.2797543109
0.2797543224
0.2797543098
0.2797542862
0.2797543495
0.2797543545
0.2797543673
0.2797546221
0.2797555545
0.279759147
0.2797711274
0.2797543543
0.2797543134
0.2797542936
0.2797543107
0.2797543321
0.2797543246
0.2797543214
0.2797543457
0.2797543708
0.2797544817
0.2797550337
0.2797575571
0.2797691698
0.279820025
0.279753471
0.2797534808
0.2797534801
0.2797534892
0.2797535001
0.2797534554
0.2797534512
0.2797534019
0.2797534396
0.2797536367
0.2797544651
0.279759301
0.2797885343
0.2799788467
0.2824553018
0.2797537317
0.2797537195
0.2797537616
0.2797537204
0.2797537895
0.2797537588
0.2797537434
0.2797537569
0.2797537907
0.2797539304
0.2797544663
0.2797569647
0.2797685891
0.2798194391
0.2799995301
0.2797540194
0.279754018
0.2797539797
0.2797539941
0.2797539966
0.2797539919
0.279753983
0.2797539894
0.2797539533
0.2797539748
0.2797542078
0.2797551216
0.2797587089
0.2797706685
0.2798004514
0.2797546749
0.2797546865
0.2797546781
0.2797546589
0.2797546163
0.2797546434
0.2797546797
0.2797546825
0.2797546905
0.2797546903
0.2797547862
0.2797550927
0.2797561041
0.2797590136
0.2797653155
0.2797543644
0.2797543701
0.279754381
0.2797544107
0.279754449
0.2797544702
0.2797544542
0.2797544945
0.2797545299
0.2797545009
0.2797545349
0.2797546151
0.2797550284
0.2797559683
0.2797578516
0.2797541771
0.2797541708
0.279754153
0.279754144
0.2797541261
0.27975411
0.279754096
0.2797541218
0.2797540948
0.2797540597
0.2797540818
0.2797541666
0.2797544753
0.2797551629
0.2797545291
0.2797545071
0.2797545317
0.2797545417
0.279754539
0.2797545217
0.2797545301
0.2797544913
0.2797544632
0.2797545007
0.279754566
0.2797548346
0.2797556053
0.2797575481
0.2797539897
0.279753976
0.279753995
0.2797539636
0.2797539804
0.2797540274
0.2797540185
0.2797540211
0.2797540174
0.2797540961
0.2797542745
0.2797549315
0.2797571266
0.2797635973
0.2797545429
0.279754531
0.2797545449
0.2797545353
0.2797545373
0.279754532
0.2797545451
0.2797545643
0.2797545737
0.2797546535
0.2797550092
0.279756511
0.2797624268
0.2797830105
0.2797540446
0.2797540368
0.2797540727
0.2797540983
0.2797541265
0.2797541224
0.2797541208
0.279754102
0.2797541183
0.2797542489
0.2797547899
0.2797573072
0.2797690034
0.2798198452
0.279754055
0.2797540224
0.2797540237
0.2797540077
0.2797539977
0.2797539795
0.2797540135
0.2797540091
0.2797540239
0.2797541037
0.2797544777
0.2797559952
0.2797619266
0.279782551
0.2797548141
0.279754788
0.2797548227
0.279754803
0.2797547898
0.2797548273
0.2797548149
0.2797548315
0.2797548497
0.2797548913
0.2797550563
0.2797556632
0.2797578345
0.2797643144
0.2797785122
0.2797541775
0.2797541579
0.2797541424
0.2797541793
0.2797541481
0.2797541722
0.2797541735
0.2797541336
0.2797541081
0.2797541192
0.2797541895
0.2797544768
0.2797552691
0.2797571784
0.2797611394
0.2797540298
0.2797540325
0.2797540306
0.2797540264
0.2797539958
0.279753977
0.2797539757
0.2797540075
0.2797539961
0.2797540305
0.279754054
0.2797541302
0.2797544396
0.2797551515
0.2797565238
0.2797539826
0.2797539765
0.2797539794
0.2797539706
0.2797539631
0.2797539694
0.279753981
0.2797539787
0.2797540003
0.2797540027
0.2797540487
0.2797540785
0.279754298
0.2797547197
0.2797540362
0.2797540115
0.2797539869
0.2797539946
0.279753993
0.2797540473
0.2797540444
0.2797540338
0.2797540388
0.2797540661
0.2797540835
0.2797542535
0.279754628
0.2797555778
0.2797542186
0.2797542408
0.2797542325
0.2797541935
0.2797542009
0.2797542117
0.2797542128
0.2797542504
0.2797542554
0.2797543093
0.2797543577
0.2797546956
0.2797556873
0.2797582877
0.2797540656
0.2797540287
0.2797540395
0.2797540473
0.2797540229
0.2797540602
0.2797540248
0.2797540179
0.2797540433
0.2797541401
0.2797542816
0.2797548831
0.2797570748
0.2797635612
0.2797543049
0.279754317
0.2797543223
0.2797543173
0.2797543251
0.2797543461
0.279754326
0.2797543494
0.2797543816
0.2797544198
0.2797546187
0.279755566
0.2797591738
0.2797711412
0.2797542791
0.2797542789
0.2797543702
0.2797543804
0.2797544093
0.2797543693
0.2797543773
0.2797543888
0.2797543678
0.2797544481
0.2797546368
0.279755284
0.2797574778
0.2797639612
0.2797537218
0.2797537245
0.2797537178
0.2797536923
0.2797537147
0.2797536877
0.2797536828
0.2797536886
0.2797537248
0.2797537811
0.2797538759
0.2797542393
0.279755235
0.2797578222
0.2797549131
0.2797549407
0.279754927
0.2797549073
0.2797549171
0.2797549137
0.2797548924
0.2797548934
0.2797549286
0.2797549537
0.279754991
0.2797551135
0.2797554514
0.2797563942
0.2797582895
0.279754271
0.2797542667
0.2797542353
0.2797542251
0.2797542027
0.2797541877
0.2797542085
0.2797541929
0.2797542067
0.2797542044
0.2797542093
0.2797542697
0.2797544259
0.2797548069
0.2797556368
0.279754324
0.2797543
0.2797543878
0.279754343
0.2797543475
0.2797543656
0.2797543465
0.2797543666
0.2797543965
0.2797544043
0.2797544348
0.2797545103
0.2797546438
0.2797548501
0.2797545443
0.2797545838
0.2797545474
0.2797545119
0.2797545549
0.2797545535
0.2797545446
0.2797545196
0.2797545655
0.2797545783
0.2797545744
0.279754602
0.2797547781
0.2797551989
0.2797542856
0.2797543013
0.2797542454
0.2797542688
0.2797542186
0.279754183
0.2797541906
0.2797541786
0.2797541715
0.2797541873
0.2797542648
0.2797544207
0.2797548393
0.2797557814
0.2797546474
0.2797546616
0.2797546594
0.2797546429
0.2797546566
0.2797546431
0.2797546447
0.2797546463
0.2797546999
0.2797546836
0.2797547248
0.2797549838
0.2797557309
0.2797576937
0.2797537218
0.2797537239
0.2797537186
0.2797537634
0.2797537459
0.2797537272
0.2797537512
0.2797537802
0.2797537565
0.27975379
0.2797538921
0.2797542529
0.2797553346
0.2797582786
0.2797550747
0.279755081
0.2797550548
0.2797550521
0.2797550734
0.2797550699
0.279755092
0.2797550894
0.279755161
0.2797551734
0.2797552367
0.2797554498
0.2797561444
0.279758086
0.2797541477
0.2797541705
0.2797541392
0.2797541274
0.2797540994
0.2797541207
0.2797540821
0.2797540423
0.2797540098
0.2797540275
0.2797540512
0.2797541981
0.2797545829
0.2797555376
0.2797540441
0.2797540105
0.2797539874
0.2797540097
0.2797540028
0.2797540087
0.2797539723
0.2797539917
0.2797539542
0.2797539495
0.2797540094
0.2797540662
0.2797542041
0.2797546317
0.2797537968
0.2797538156
0.2797538497
0.2797538122
0.2797538062
0.2797538133
0.279753813
0.2797538322
0.2797538244
0.2797538191
0.2797538234
0.279753843
0.2797539619
0.2797541631
0.2797545789
0.2797538372
0.279753862
0.2797538072
0.2797538344
0.2797538503
0.2797538716
0.2797538471
0.2797538652
0.2797538386
0.2797538276
0.2797538539
0.2797538436
0.2797538938
0.2797540157
0.2797540194
0.2797540239
0.2797540177
0.2797540483
0.2797540708
0.2797540822
0.2797540863
0.2797541003
0.2797541049
0.279754119
0.2797541447
0.2797541988
0.2797542722
0.2797544775
0.2797540372
0.2797540092
0.2797539904
0.2797540132
0.279753989
0.2797540127
0.2797540185
0.2797540507
0.2797540568
0.2797540763
0.2797540781
0.2797541387
0.279754341
0.2797547819
0.2797544732
0.279754486
0.279754468
0.2797544603
0.2797544614
0.2797544641
0.2797544757
0.2797544388
0.2797543808
0.279754404
0.2797544311
0.279754541
0.2797548064
0.2797555331
0.2797550796
0.2797550586
0.2797550557
0.2797550585
0.2797550854
0.2797551039
0.2797550943
0.2797551089
0.2797551191
0.2797551261
0.2797551899
0.2797553401
0.2797556948
0.2797566336
0.2797547077
0.2797547335
0.279754739
0.2797547356
0.2797546932
0.2797547029
0.2797547139
0.2797547508
0.279754707
0.2797547731
0.279754783
0.2797549114
0.2797552327
0.2797559316
0.2797546366
0.2797546393
0.2797546796
0.2797546642
0.2797546477
0.2797546456
0.2797546262
0.2797546376
0.279754634
0.2797546629
0.2797546619
0.2797547029
0.279754874
0.2797552935
0.2797548286
0.2797548251
0.2797548541
0.279754862
0.2797548553
0.2797548268
0.2797548438
0.2797548224
0.2797548209
0.2797548391
0.2797548405
0.2797548394
0.2797549188
0.2797551388
0.2797544933
0.2797545114
0.2797545253
0.2797545372
0.2797545313
0.2797545308
0.2797545033
0.2797545094
0.2797545121
0.2797545006
0.2797544988
0.2797545263
0.2797545534
0.2797546821
)
;

boundaryField
{
    top
    {
        type            calculated;
        value           nonuniform List<scalar> 
134
(
0.2797536559
0.2797539437
0.2797547455
0.2797543259
0.2797543644
0.2797540298
0.279754271
0.2797537968
0.2797544933
0.2797536469
0.2797539534
0.2797547387
0.2797542981
0.2797543701
0.2797540325
0.2797542667
0.2797538156
0.2797545114
0.279753653
0.2797539366
0.2797547723
0.2797543178
0.279754381
0.2797540306
0.2797542353
0.2797538497
0.2797545253
0.2797536488
0.2797539691
0.2797547499
0.2797543116
0.2797544107
0.2797540264
0.2797542251
0.2797538122
0.2797545372
0.2797536456
0.2797539483
0.2797547661
0.2797543122
0.279754449
0.2797539958
0.2797542027
0.2797538062
0.2797545313
0.279753675
0.2797539383
0.2797547747
0.2797543072
0.2797544702
0.279753977
0.2797541877
0.2797538133
0.2797545308
0.2797536881
0.279753923
0.2797547508
0.2797543147
0.2797544542
0.2797539757
0.2797542085
0.279753813
0.2797545033
0.2797537054
0.2797539121
0.2797547586
0.2797543256
0.2797544945
0.2797540075
0.2797541929
0.2797538322
0.2797545094
0.2797537079
0.2797539034
0.2797547371
0.2797543153
0.2797545299
0.2797539961
0.2797542067
0.2797538244
0.2797545121
0.2797537003
0.2797539594
0.279754719
0.2797543508
0.2797545009
0.2797540305
0.2797542044
0.2797538191
0.2797545006
0.2797537185
0.2797539647
0.2797547549
0.2797543936
0.2797545349
0.279754054
0.2797542093
0.2797538234
0.2797544988
0.2797537197
0.2797539917
0.2797548168
0.2797545319
0.2797546151
0.2797541302
0.2797542697
0.279753843
0.2797545263
0.2797537583
0.2797540452
0.2797550112
0.27975481
0.2797550284
0.2797544396
0.2797544259
0.2797539619
0.2797545534
0.2797538743
0.2797542799
0.279755458
0.2797555524
0.2797559683
0.2797551515
0.2797548069
0.2797541631
0.2797546821
0.2797540618
0.2797546515
0.2797562631
0.2797569875
0.2797578516
0.2797565238
0.2797556368
0.2797545789
)
;
    }
    bottom
    {
        type            calculated;
        value           nonuniform List<scalar> 
127
(
0.279754254
0.2797546731
0.2797543581
0.2797542257
0.2797544791
0.2797541771
0.2797539826
0.279754324
0.2797538372
0.2797542729
0.2797546703
0.2797543591
0.2797542178
0.2797544669
0.2797541708
0.2797539765
0.2797543
0.279753862
0.2797542805
0.2797546768
0.2797543696
0.2797542078
0.2797544461
0.279754153
0.2797539794
0.2797543878
0.2797538072
0.2797542699
0.2797546621
0.2797543618
0.2797541845
0.2797544685
0.279754144
0.2797539706
0.279754343
0.2797538344
0.2797542366
0.27975467
0.2797543913
0.2797541663
0.2797544676
0.2797541261
0.2797539631
0.2797543475
0.2797538503
0.2797542544
0.279754673
0.2797543801
0.2797542065
0.2797544743
0.27975411
0.2797539694
0.2797543656
0.2797538716
0.279754234
0.2797546397
0.2797543789
0.2797541837
0.2797544951
0.279754096
0.279753981
0.2797543465
0.2797538471
0.2797542274
0.2797546184
0.2797543924
0.2797541698
0.2797544724
0.2797541218
0.2797539787
0.2797543666
0.2797538652
0.2797542436
0.2797546513
0.279754324
0.2797541685
0.279754444
0.2797540948
0.2797540003
0.2797543965
0.2797538386
0.2797542258
0.2797546568
0.2797543195
0.2797542175
0.2797544833
0.2797540597
0.2797540027
0.2797544043
0.2797538276
0.2797542745
0.2797546601
0.2797543096
0.2797542437
0.2797545174
0.2797540818
0.2797540487
0.2797544348
0.2797538539
0.2797542987
0.2797546729
0.2797543467
0.2797543238
0.2797546353
0.2797541666
0.2797540785
0.2797545103
0.2797538436
0.2797543714
0.279754775
0.2797544899
0.2797546351
0.2797550232
0.2797544753
0.279754298
0.2797546438
0.2797538938
0.2797544877
0.2797549674
0.2797549344
0.2797553513
0.2797559651
0.2797551629
0.2797547197
0.2797548501
0.2797540157
0.2797547203
)
;
    }
    side-walls
    {
        type            calculated;
        value           nonuniform List<scalar> 
261
(
0.279754254
0.2797542602
0.2797541307
0.2797544919
0.27975428
0.2797534325
0.2797547026
0.2797540798
0.2797536559
0.2797542729
0.2797542237
0.2797541328
0.2797544965
0.2797542727
0.2797534375
0.2797547064
0.2797541424
0.2797536469
0.2797542805
0.2797542505
0.2797540908
0.2797544705
0.2797542629
0.27975343
0.2797547065
0.2797541103
0.279753653
0.2797542699
0.2797542491
0.2797540741
0.2797544825
0.2797542502
0.2797534245
0.2797547052
0.2797541062
0.2797536488
0.2797542366
0.2797542736
0.2797540614
0.2797544366
0.2797542804
0.2797534042
0.2797547305
0.2797541055
0.2797536456
0.2797542544
0.2797542665
0.2797540902
0.2797544311
0.2797542771
0.2797534083
0.2797547215
0.2797540974
0.279753675
0.279754234
0.2797542614
0.2797540832
0.2797544364
0.2797543177
0.2797534435
0.279754745
0.279754109
0.2797536881
0.2797542274
0.2797542587
0.2797540861
0.2797544122
0.279754311
0.2797534097
0.2797546855
0.2797541299
0.2797537054
0.2797542436
0.2797542625
0.279754107
0.2797544218
0.2797543007
0.2797533994
0.2797546828
0.2797541261
0.2797537079
0.2797542258
0.2797542667
0.2797540814
0.2797544477
0.2797543241
0.2797534213
0.2797546576
0.2797541041
0.2797537003
0.2797542745
0.2797542914
0.2797541112
0.2797545382
0.2797543614
0.2797534289
0.2797546587
0.2797541283
0.2797537185
0.2797542987
0.2797543089
0.2797541562
0.279754671
0.2797545017
0.2797535425
0.279754724
0.2797541907
0.2797537197
0.2797543714
0.2797544011
0.2797543111
0.2797549388
0.279754885
0.2797538719
0.2797549073
0.2797542663
0.2797537583
0.2797544877
0.2797546003
0.2797546859
0.279755658
0.2797558323
0.2797545526
0.2797552878
0.2797544664
0.2797538743
0.2797547203
0.2797550028
0.2797555282
0.2797571344
0.2797577164
0.2797559767
0.2797561044
0.2797549142
0.2797540618
0.2797538372
0.2797540194
0.2797540372
0.2797544732
0.2797550796
0.2797547077
0.2797546366
0.2797548286
0.2797544933
0.279753862
0.2797540239
0.2797540092
0.279754486
0.2797550586
0.2797547335
0.2797546393
0.2797548251
0.2797545114
0.2797538072
0.2797540177
0.2797539904
0.279754468
0.2797550557
0.279754739
0.2797546796
0.2797548541
0.2797545253
0.2797538344
0.2797540483
0.2797540132
0.2797544603
0.2797550585
0.2797547356
0.2797546642
0.279754862
0.2797545372
0.2797538503
0.2797540708
0.279753989
0.2797544614
0.2797550854
0.2797546932
0.2797546477
0.2797548553
0.2797545313
0.2797538716
0.2797540822
0.2797540127
0.2797544641
0.2797551039
0.2797547029
0.2797546456
0.2797548268
0.2797545308
0.2797538471
0.2797540863
0.2797540185
0.2797544757
0.2797550943
0.2797547139
0.2797546262
0.2797548438
0.2797545033
0.2797538652
0.2797541003
0.2797540507
0.2797544388
0.2797551089
0.2797547508
0.2797546376
0.2797548224
0.2797545094
0.2797538386
0.2797541049
0.2797540568
0.2797543808
0.2797551191
0.279754707
0.279754634
0.2797548209
0.2797545121
0.2797538276
0.279754119
0.2797540763
0.279754404
0.2797551261
0.2797547731
0.2797546629
0.2797548391
0.2797545006
0.2797538539
0.2797541447
0.2797540781
0.2797544311
0.2797551899
0.279754783
0.2797546619
0.2797548405
0.2797544988
0.2797538436
0.2797541988
0.2797541387
0.279754541
0.2797553401
0.2797549114
0.2797547029
0.2797548394
0.2797545263
0.2797538938
0.2797542722
0.279754341
0.2797548064
0.2797556948
0.2797552327
0.279754874
0.2797549188
0.2797545534
0.2797540157
0.2797544775
0.2797547819
0.2797555331
0.2797566336
0.2797559316
0.2797552935
0.2797551388
0.2797546821
)
;
    }
    inlet
    {
        type            calculated;
        value           nonuniform List<scalar> 
81
(
0.279754254
0.2797542602
0.2797541307
0.2797544919
0.27975428
0.2797534325
0.2797547026
0.2797540798
0.2797536559
0.2797546731
0.2797541419
0.2797541189
0.2797544704
0.2797541936
0.2797551176
0.2797539282
0.2797550555
0.2797539437
0.2797543581
0.2797536414
0.2797546843
0.2797551901
0.2797545973
0.2797545068
0.2797546396
0.2797536812
0.2797547455
0.2797542257
0.2797537797
0.2797546158
0.2797539128
0.2797547812
0.2797543588
0.2797535117
0.2797548212
0.2797543259
0.2797544791
0.2797545184
0.2797542723
0.2797543543
0.279753471
0.2797537317
0.2797540194
0.2797546749
0.2797543644
0.2797541771
0.2797545291
0.2797539897
0.2797545429
0.2797540446
0.279754055
0.2797548141
0.2797541775
0.2797540298
0.2797539826
0.2797540362
0.2797542186
0.2797540656
0.2797543049
0.2797542791
0.2797537218
0.2797549131
0.279754271
0.279754324
0.2797545443
0.2797542856
0.2797546474
0.2797537218
0.2797550747
0.2797541477
0.2797540441
0.2797537968
0.2797538372
0.2797540194
0.2797540372
0.2797544732
0.2797550796
0.2797547077
0.2797546366
0.2797548286
0.2797544933
)
;
    }
    outlet
    {
        type            calculated;
        value           nonuniform 0();
    }
    procBoundary0to1
    {
        type            processor;
        value           nonuniform List<scalar> 
97
(
0.2797551488
0.2797553735
0.2797556828
0.2797567661
0.2797593257
0.2797605049
0.2797581746
0.2797573752
0.2797556508
0.2797544815
0.2797553735
0.2797553735
0.2797568529
0.2797572183
0.2797604702
0.2797667745
0.2797722344
0.2797673361
0.2797602055
0.279757925
0.2797553224
0.2797557061
0.2797572183
0.2797572183
0.2797711501
0.279778274
0.27979432
0.2798235048
0.279793773
0.2797711524
0.2797600333
0.279757567
0.2797567958
0.2797607956
0.279778274
0.279778274
0.2798710165
0.2800001263
0.280028095
0.2798714433
0.2797925981
0.2797673067
0.279759166
0.2797578776
0.2797651688
0.2798009052
0.2800001263
0.2800001263
0.2831104954
0.2800000445
0.2800271545
0.2798352709
0.2798227917
0.2797727563
0.2797606707
0.2797566147
0.2797615263
0.2797778014
0.2798357433
0.2800000445
0.2798352709
0.2798352709
0.2797938946
0.2797631338
0.2797665573
0.2797587261
0.2797555291
0.279757434
0.2797636128
0.2797777535
0.2798009325
0.279778172
0.2797631338
0.2797631338
0.2797611201
0.2797554919
0.2797569001
0.2797552628
0.2797559962
0.2797576738
0.2797616031
0.2797645879
0.2797620263
0.2797573855
0.2797554919
0.2797554919
0.2797552683
0.2797548848
0.2797542378
0.2797549084
0.2797555602
0.2797569361
0.2797585066
0.2797573339
0.2797560668
0.2797555342
0.2797548848
)
;
    }
}


// ************************************************************************* //
