/*--------------------------------*- C++ -*----------------------------------*\
| =========                 |                                                 |
| \\      /  F ield         | OpenFOAM: The Open Source CFD Toolbox           |
|  \\    /   O peration     | Version:  4.x                                   |
|   \\  /    A nd           | Web:      www.OpenFOAM.org                      |
|    \\/     M anipulation  |                                                 |
\*---------------------------------------------------------------------------*/
FoamFile
{
    version     2.0;
    format      ascii;
    class       volScalarField;
    location    "2000";
    object      T;
}
// * * * * * * * * * * * * * * * * * * * * * * * * * * * * * * * * * * * * * //

dimensions      [0 0 0 1 0 0 0];

internalField   nonuniform List<scalar> 
1175
(
1223.150358
1223.150276
1223.150242
1223.150288
1223.150434
1223.150356
1223.150446
1223.150476
1223.150409
1223.1505
1223.150324
1223.150316
1223.150236
1223.150255
1223.150277
1223.150331
1223.15049
1223.150373
1223.15038
1223.150273
1223.150303
1223.150326
1223.15034
1223.15033
1223.150331
1223.150281
1223.150364
1223.150365
1223.150408
1223.150451
1223.150898
1223.150888
1223.151071
1223.151144
1223.1512
1223.151074
1223.151106
1223.151096
1223.151015
1223.151159
1223.151129
1223.151223
1223.151313
1223.151461
1223.151312
1223.149318
1223.149298
1223.149411
1223.149359
1223.149559
1223.149584
1223.149562
1223.149671
1223.149644
1223.149578
1223.149337
1223.149225
1223.149343
1223.149305
1223.149037
1223.150244
1223.150276
1223.150319
1223.150374
1223.150243
1223.150257
1223.150081
1223.150115
1223.150176
1223.150129
1223.150152
1223.150117
1223.150089
1223.150041
1223.15006
1223.15395
1223.153928
1223.153961
1223.153985
1223.154074
1223.154056
1223.153903
1223.154055
1223.154114
1223.154066
1223.154187
1223.154159
1223.154008
1223.154138
1223.154098
1223.148396
1223.14838
1223.148379
1223.148386
1223.148275
1223.148314
1223.148213
1223.148475
1223.148497
1223.14864
1223.148735
1223.148741
1223.148707
1223.14883
1223.148792
1223.15112
1223.150846
1223.150987
1223.151004
1223.151007
1223.151043
1223.150993
1223.150903
1223.150926
1223.151042
1223.150994
1223.150881
1223.150954
1223.150993
1223.150838
1223.152973
1223.153012
1223.152986
1223.153004
1223.153018
1223.15289
1223.152833
1223.152759
1223.152752
1223.152798
1223.152755
1223.152847
1223.152916
1223.152937
1223.153156
1223.148526
1223.148538
1223.14851
1223.148574
1223.148539
1223.148526
1223.148672
1223.148767
1223.14863
1223.148625
1223.148668
1223.148772
1223.14873
1223.148803
1223.150848
1223.150917
1223.151161
1223.151088
1223.150981
1223.151065
1223.151045
1223.151144
1223.151048
1223.151066
1223.151106
1223.151173
1223.151162
1223.151438
1223.151364
1223.150949
1223.150813
1223.150684
1223.150765
1223.150999
1223.151023
1223.150938
1223.150928
1223.150865
1223.150807
1223.150844
1223.150695
1223.150629
1223.150563
1223.150643
1223.149412
1223.149469
1223.14959
1223.149678
1223.149749
1223.149755
1223.149717
1223.149686
1223.149589
1223.149547
1223.14942
1223.149593
1223.149558
1223.149842
1223.149818
1223.150623
1223.150887
1223.150928
1223.150956
1223.151162
1223.151168
1223.15124
1223.151314
1223.151355
1223.15141
1223.151395
1223.151354
1223.15128
1223.151275
1223.151291
1223.146583
1223.146663
1223.146595
1223.146952
1223.146817
1223.14686
1223.146939
1223.146889
1223.147064
1223.146925
1223.147096
1223.146967
1223.147099
1223.14706
1223.147264
1223.151783
1223.151662
1223.151871
1223.151906
1223.151687
1223.1518
1223.151797
1223.151828
1223.151878
1223.151789
1223.151861
1223.151729
1223.151684
1223.151635
1223.151714
1223.146854
1223.146924
1223.1471
1223.147099
1223.147106
1223.146972
1223.146866
1223.146906
1223.146813
1223.146719
1223.1468
1223.146733
1223.146735
1223.146754
1223.146683
1223.151715
1223.151673
1223.151746
1223.151604
1223.151695
1223.151739
1223.151806
1223.151855
1223.1519
1223.151675
1223.151709
1223.151751
1223.151921
1223.151809
1223.151987
1223.149903
1223.149899
1223.149853
1223.149887
1223.149758
1223.149807
1223.149813
1223.149757
1223.150066
1223.150118
1223.150261
1223.15039
1223.150531
1223.150376
1223.153037
1223.152938
1223.153075
1223.153148
1223.153212
1223.153139
1223.153021
1223.152867
1223.152831
1223.152748
1223.152591
1223.152443
1223.152538
1223.152323
1223.148477
1223.148564
1223.148546
1223.148367
1223.148254
1223.148114
1223.148238
1223.148297
1223.148307
1223.148345
1223.148305
1223.148379
1223.148483
1223.148601
1223.148614
1223.146266
1223.146211
1223.146286
1223.146388
1223.146315
1223.146362
1223.14632
1223.146422
1223.146364
1223.146368
1223.146344
1223.146288
1223.146376
1223.1463
1223.14649
1223.148857
1223.148905
1223.148825
1223.148814
1223.148743
1223.148929
1223.148996
1223.148917
1223.148993
1223.14888
1223.148842
1223.148715
1223.148778
1223.148727
1223.14885
1223.149253
1223.149195
1223.149235
1223.149159
1223.149157
1223.148996
1223.149111
1223.149148
1223.149101
1223.149092
1223.149059
1223.149022
1223.149087
1223.149058
1223.148927
1223.148673
1223.148694
1223.148641
1223.14862
1223.148807
1223.148785
1223.14867
1223.1485
1223.148412
1223.148388
1223.148438
1223.148515
1223.148609
1223.148633
1223.148539
1223.152863
1223.152794
1223.152748
1223.152601
1223.152602
1223.152605
1223.152533
1223.152654
1223.152484
1223.152462
1223.152647
1223.152831
1223.152778
1223.152599
1223.152599
1223.148209
1223.148239
1223.148092
1223.14819
1223.148119
1223.148082
1223.148187
1223.148156
1223.14826
1223.148371
1223.148315
1223.148335
1223.148252
1223.148086
1223.148098
1223.150482
1223.150517
1223.15056
1223.150662
1223.150742
1223.150566
1223.150667
1223.150731
1223.150751
1223.150584
1223.150625
1223.150742
1223.150671
1223.150648
1223.152432
1223.152362
1223.152226
1223.152339
1223.152304
1223.152307
1223.152167
1223.15219
1223.1522
1223.152286
1223.152314
1223.152299
1223.152389
1223.152292
1223.148776
1223.148753
1223.148848
1223.148796
1223.148843
1223.149112
1223.149074
1223.149046
1223.14917
1223.149097
1223.149072
1223.149223
1223.149239
1223.149035
1223.15185
1223.15184
1223.152006
1223.151874
1223.151661
1223.151693
1223.151605
1223.151657
1223.151579
1223.151654
1223.151532
1223.151625
1223.151799
1223.151917
1223.152132
1223.148053
1223.148105
1223.148117
1223.147984
1223.148142
1223.148147
1223.148237
1223.148232
1223.148158
1223.148277
1223.148281
1223.148305
1223.148453
1223.148601
1223.135569
1223.1499
1223.149824
1223.149636
1223.149599
1223.14962
1223.14953
1223.149541
1223.149624
1223.149678
1223.14965
1223.149837
1223.149846
1223.149712
1223.149674
1223.15
1223.153604
1223.153776
1223.153677
1223.153747
1223.15388
1223.153757
1223.15388
1223.153915
1223.154044
1223.153964
1223.153873
1223.153698
1223.153698
1223.153884
1223.153941
1223.147878
1223.147908
1223.147858
1223.147824
1223.147895
1223.147895
1223.147978
1223.147763
1223.147751
1223.14753
1223.147633
1223.147548
1223.147477
1223.147599
1223.147522
1223.150044
1223.150165
1223.150079
1223.150106
1223.150104
1223.150126
1223.150094
1223.15005
1223.150109
1223.150002
1223.149969
1223.149833
1223.149906
1223.149768
1223.149679
1223.149374
1223.149428
1223.149518
1223.14942
1223.149424
1223.149396
1223.149306
1223.149409
1223.149549
1223.149433
1223.14947
1223.149533
1223.149484
1223.149462
1223.149202
1223.149278
1223.149385
1223.149378
1223.149374
1223.149338
1223.149467
1223.149575
1223.149529
1223.149631
1223.1498
1223.149829
1223.14965
1223.149798
1223.150278
1223.150183
1223.15013
1223.15011
1223.15006
1223.150115
1223.150221
1223.149959
1223.149996
1223.150187
1223.150105
1223.150173
1223.150127
1223.150011
1223.14992
1223.150098
1223.150185
1223.15011
1223.150017
1223.150051
1223.150069
1223.149986
1223.14998
1223.149984
1223.149881
1223.149799
1223.150034
1223.150272
1223.153782
1223.153739
1223.153742
1223.153702
1223.153655
1223.153852
1223.153876
1223.154119
1223.154092
1223.15393
1223.154049
1223.154066
1223.154195
1223.154994
1212.693917
1223.152642
1223.152695
1223.152511
1223.152691
1223.15239
1223.152525
1223.152597
1223.15256
1223.152517
1223.152394
1223.152362
1223.152389
1223.152566
1223.15278
1223.139773
1223.151384
1223.15139
1223.151557
1223.151495
1223.151484
1223.151505
1223.151547
1223.151533
1223.15175
1223.151904
1223.151916
1223.152065
1223.152039
1223.152
1223.152107
1223.148518
1223.148467
1223.148504
1223.148588
1223.148774
1223.148656
1223.1485
1223.148495
1223.148489
1223.1486
1223.148588
1223.148673
1223.148838
1223.148943
1223.148906
1223.149875
1223.149851
1223.149803
1223.149673
1223.149506
1223.149413
1223.149484
1223.149313
1223.149174
1223.149357
1223.149393
1223.149621
1223.149462
1223.149446
1223.149469
1223.150694
1223.150722
1223.1508
1223.150839
1223.150917
1223.150988
1223.15105
1223.150942
1223.151073
1223.151274
1223.151332
1223.15143
1223.151371
1223.151471
1223.149155
1223.149251
1223.149144
1223.1491
1223.149112
1223.149188
1223.149154
1223.149329
1223.149476
1223.149403
1223.149438
1223.149334
1223.149204
1223.149183
1223.151514
1223.151574
1223.151491
1223.151628
1223.151555
1223.15135
1223.151391
1223.151392
1223.151455
1223.151305
1223.151282
1223.151228
1223.151252
1223.151236
1223.149095
1223.149147
1223.149087
1223.149128
1223.14912
1223.149144
1223.149091
1223.149026
1223.149066
1223.149076
1223.14908
1223.149076
1223.149148
1223.149293
1223.151274
1223.151308
1223.151151
1223.151039
1223.150917
1223.150935
1223.150947
1223.151051
1223.151084
1223.151002
1223.150947
1223.150892
1223.150764
1223.151067
1223.151228
1223.151371
1223.151365
1223.151435
1223.151479
1223.15156
1223.151415
1223.151453
1223.15147
1223.151479
1223.151403
1223.15133
1223.151333
1223.151297
1223.14791
1223.148024
1223.147872
1223.147958
1223.148016
1223.147853
1223.14791
1223.147849
1223.147817
1223.147828
1223.147864
1223.148028
1223.148155
1223.148095
1223.148129
1223.150693
1223.150779
1223.150846
1223.150685
1223.150822
1223.150717
1223.150712
1223.150893
1223.151029
1223.151071
1223.151085
1223.150898
1223.150674
1223.150798
1223.150841
1223.151339
1223.151327
1223.151335
1223.151354
1223.151487
1223.15157
1223.151577
1223.151441
1223.151505
1223.151403
1223.151454
1223.151589
1223.151526
1223.15152
1223.151707
1223.151545
1223.151571
1223.151559
1223.151597
1223.15163
1223.151602
1223.151553
1223.151565
1223.151481
1223.151503
1223.151402
1223.151563
1223.151371
1223.151315
1223.15131
1223.151418
1223.151526
1223.151492
1223.151499
1223.151262
1223.151276
1223.151327
1223.151321
1223.151259
1223.151373
1223.151226
1223.151274
1223.151265
1223.150513
1223.150416
1223.150452
1223.150622
1223.15059
1223.150544
1223.150541
1223.150384
1223.150392
1223.150269
1223.150465
1223.150373
1223.150312
1223.150275
1223.151182
1223.151343
1223.151296
1223.151262
1223.151369
1223.151207
1223.151364
1223.151406
1223.151343
1223.151113
1223.151252
1223.151439
1223.151478
1223.151395
1223.150136
1223.150083
1223.15006
1223.150082
1223.150047
1223.149957
1223.150047
1223.149959
1223.149877
1223.149958
1223.15012
1223.150123
1223.150011
1223.149952
1223.150248
1223.150249
1223.149851
1223.149806
1223.14968
1223.149855
1223.149823
1223.149784
1223.149924
1223.149766
1223.149699
1223.149687
1223.149716
1223.149645
1223.152685
1223.152674
1223.152703
1223.152814
1223.152717
1223.152835
1223.152858
1223.15284
1223.152712
1223.152578
1223.152571
1223.152368
1223.15229
1223.152309
1223.147477
1223.147356
1223.147416
1223.147502
1223.14746
1223.147475
1223.147569
1223.147569
1223.147431
1223.147379
1223.147407
1223.147466
1223.147674
1223.147695
1223.147691
1223.150284
1223.150303
1223.15044
1223.150485
1223.150583
1223.150648
1223.150559
1223.150629
1223.150579
1223.150621
1223.1507
1223.150727
1223.150812
1223.150933
1223.150837
1223.150052
1223.150156
1223.149773
1223.149968
1223.149949
1223.14987
1223.149954
1223.149868
1223.149744
1223.149729
1223.149653
1223.149483
1223.149304
1223.149317
1223.149089
1223.148916
1223.149075
1223.14923
1223.149042
1223.149049
1223.149089
1223.1492
1223.14901
1223.148986
1223.149102
1223.149272
1223.149276
1223.14925
1223.15022
1223.150152
1223.150395
1223.150294
1223.150513
1223.150669
1223.150637
1223.150694
1223.150741
1223.150729
1223.150582
1223.150495
1223.150351
1223.150375
1223.148638
1223.148576
1223.148586
1223.148658
1223.148598
1223.148657
1223.148652
1223.148651
1223.148442
1223.148604
1223.148744
1223.148681
1223.148656
1223.148547
1223.152685
1223.152676
1223.152699
1223.152504
1223.15258
1223.152662
1223.152559
1223.15244
1223.152572
1223.152536
1223.152497
1223.152346
1223.152204
1223.152162
1223.14677
1223.146743
1223.146857
1223.146869
1223.146776
1223.146792
1223.146697
1223.146715
1223.146427
1223.146463
1223.146507
1223.146644
1223.146847
1223.146832
1223.150823
1223.150724
1223.150861
1223.150912
1223.151035
1223.150942
1223.151112
1223.15129
1223.151448
1223.151428
1223.151515
1223.151468
1223.151472
1223.151441
1223.151277
1223.151423
1223.151524
1223.151427
1223.151457
1223.151431
1223.151591
1223.151509
1223.151682
1223.151735
1223.151572
1223.151615
1223.151786
1223.15173
1223.152357
1223.152276
1223.152126
1223.15229
1223.152316
1223.152286
1223.152288
1223.152205
1223.152246
1223.152288
1223.152327
1223.152401
1223.152286
1223.15232
1223.152305
1223.15218
1223.152072
1223.152311
1223.152192
1223.152123
1223.15203
1223.152137
1223.15206
1223.15218
1223.152241
1223.152163
1223.152305
1223.152324
1223.152319
1223.151384
1223.151364
1223.151391
1223.151257
1223.151159
1223.151109
1223.151092
1223.151033
1223.151019
1223.150977
1223.150922
1223.150845
1223.150929
1223.150946
1223.151306
1223.151429
1223.15151
1223.151411
1223.151516
1223.151413
1223.151389
1223.151251
1223.151234
1223.151181
1223.151273
1223.151299
1223.151183
1223.151043
1223.1494
1223.149344
1223.149422
1223.149456
1223.149452
1223.14944
1223.14939
1223.149556
1223.149823
1223.149769
1223.149805
1223.149793
1223.149923
1223.149853
1223.146749
1223.146841
1223.146853
1223.146841
1223.146723
1223.146643
1223.146686
1223.146627
1223.146598
1223.146623
1223.14653
1223.146452
1223.146549
1223.14654
1223.148375
1223.148262
1223.148238
1223.148253
1223.148438
1223.148396
1223.148349
1223.148192
1223.148397
1223.148156
1223.148267
1223.148174
1223.148059
1223.148111
1223.148686
1223.148674
1223.148498
1223.148565
1223.148637
1223.148647
1223.148732
1223.148685
1223.148711
1223.148617
1223.148722
1223.148833
1223.148853
1223.148807
1223.147846
1223.147862
1223.147735
1223.147701
1223.14773
1223.147854
1223.14778
1223.147876
1223.147889
1223.147829
1223.14788
1223.148045
1223.148102
1223.148055
1223.149313
1223.149233
1223.149173
1223.149121
1223.149146
1223.149149
1223.149269
1223.149244
1223.149236
1223.1493
1223.149344
1223.149321
1223.149441
1223.149405
)
;

boundaryField
{
    top
    {
        type            zeroGradient;
    }
    bottom
    {
        type            zeroGradient;
    }
    side-walls
    {
        type            zeroGradient;
    }
    inlet
    {
        type            zeroGradient;
    }
    outlet
    {
        type            zeroGradient;
    }
    procBoundary0to1
    {
        type            processor;
        value           nonuniform List<scalar> 
97
(
1223.150215
1223.148831
1223.150531
1223.151654
1223.14906
1223.150052
1223.154093
1223.148991
1223.150671
1223.153133
1223.148831
1223.148831
1223.151399
1223.152374
1223.150653
1223.149907
1223.15138
1223.147451
1223.151809
1223.146711
1223.152106
1223.150534
1223.152374
1223.152374
1223.148534
1223.149174
1223.146506
1223.149151
1223.148892
1223.148519
1223.152562
1223.148153
1223.150518
1223.152346
1223.149174
1223.149174
1223.152
1223.137364
1223.135483
1223.150113
1223.154029
1223.14758
1223.149759
1223.149357
1223.149553
1223.150151
1223.137364
1223.137364
1212.685267
1223.137716
1223.139593
1223.151591
1223.152271
1223.149099
1223.149328
1223.15131
1223.14915
1223.15123
1223.149519
1223.137716
1223.151591
1223.151591
1223.148367
1223.152405
1223.150858
1223.151682
1223.151308
1223.15143
1223.150308
1223.151439
1223.150031
1223.149609
1223.152405
1223.152405
1223.147812
1223.151556
1223.151069
1223.149314
1223.14935
1223.150382
1223.148815
1223.152093
1223.146964
1223.151642
1223.151556
1223.151556
1223.152344
1223.149559
1223.152387
1223.150864
1223.151172
1223.149905
1223.146607
1223.148166
1223.148957
1223.148128
1223.149559
)
;
    }
}


// ************************************************************************* //
