/*--------------------------------*- C++ -*----------------------------------*\
| =========                 |                                                 |
| \\      /  F ield         | OpenFOAM: The Open Source CFD Toolbox           |
|  \\    /   O peration     | Version:  4.x                                   |
|   \\  /    A nd           | Web:      www.OpenFOAM.org                      |
|    \\/     M anipulation  |                                                 |
\*---------------------------------------------------------------------------*/
FoamFile
{
    version     2.0;
    format      ascii;
    class       volVectorField;
    location    "2000";
    object      U;
}
// * * * * * * * * * * * * * * * * * * * * * * * * * * * * * * * * * * * * * //

dimensions      [0 1 -1 0 0 0 0];

internalField   nonuniform List<vector> 
1175
(
(0.01100000017 -3.809596817e-10 1.287592678e-09)
(0.01099999805 -5.974299754e-10 -3.466884706e-10)
(0.01099999957 -1.537275014e-09 -4.260074151e-10)
(0.0109999997 -2.939776646e-09 1.862978578e-09)
(0.01099999922 -1.045544549e-09 5.012236553e-10)
(0.01099999673 -1.317954616e-09 2.775078994e-09)
(0.01099999925 2.03379151e-10 2.971213014e-09)
(0.01099999778 -5.928928492e-10 1.383771891e-09)
(0.01099999776 8.052120642e-11 -7.591776798e-10)
(0.01099999692 2.474009043e-09 2.612075059e-10)
(0.01100000792 -6.471845203e-10 -1.010628819e-09)
(0.01100000305 -3.127103892e-09 -3.209084309e-09)
(0.01100003507 -1.147347072e-08 -1.089532308e-08)
(0.01100005287 -6.92716368e-09 -6.634676646e-09)
(0.01100012516 -3.610175174e-08 -3.635906662e-08)
(0.0109999993 -3.416705614e-10 1.139506101e-09)
(0.01100000099 -7.990809135e-10 -1.009951995e-09)
(0.01100000079 -2.792648585e-10 -8.793486184e-10)
(0.0110000023 5.0844114e-10 8.038406352e-10)
(0.01099999794 7.309047822e-10 -3.09338108e-11)
(0.01099999806 1.321868834e-10 1.887554209e-10)
(0.01099999898 -1.043254312e-09 -2.150582927e-10)
(0.01099999667 -8.336848543e-10 6.20849753e-10)
(0.0109999988 -1.143223445e-09 1.668136817e-09)
(0.01099999362 -8.559785221e-11 -2.216743623e-10)
(0.01100000401 -5.402025077e-09 -1.724376075e-09)
(0.01099998902 -8.45450867e-09 -1.384237633e-09)
(0.01100002949 -3.701675741e-08 -1.218561453e-08)
(0.01100002394 -2.976978909e-08 -4.864991932e-09)
(0.01100010708 -1.270478064e-07 -5.382257385e-08)
(0.01100000015 -6.309741349e-10 -4.586806423e-10)
(0.01099999779 5.771025551e-10 9.547701769e-10)
(0.01100000167 2.284409385e-09 1.0898181e-09)
(0.01100000187 3.810042469e-10 3.168254431e-09)
(0.01100000039 -1.557018135e-09 2.502225747e-09)
(0.01099999735 -1.289421642e-09 -1.004309064e-09)
(0.0109999973 -9.116930635e-10 3.462610027e-09)
(0.01099999705 -1.217361933e-09 -2.511767842e-11)
(0.01099999666 -1.662691331e-09 -8.099739737e-10)
(0.0109999902 -2.143785471e-10 2.21977436e-09)
(0.01099999891 -4.726144646e-09 -2.712374771e-09)
(0.01099996511 -4.882870379e-09 -1.414089327e-09)
(0.01100000718 -3.800724117e-08 -1.368824778e-08)
(0.01099995388 -2.446414819e-08 -4.508995835e-09)
(0.01100005938 -1.647684634e-07 -1.114958949e-07)
(0.01099999982 -1.12169357e-09 7.316874052e-10)
(0.01100000077 1.23574535e-09 1.044934762e-09)
(0.01100000171 -2.953944823e-10 -4.089903319e-10)
(0.01099999876 -1.344499391e-10 -2.595351244e-09)
(0.01099999932 -7.958851473e-10 -1.901605065e-10)
(0.01099999834 6.415917826e-10 1.34679224e-09)
(0.01099999969 -8.020681707e-11 2.249869119e-09)
(0.01099999677 -5.771674639e-11 2.170825877e-09)
(0.01099999973 3.398662607e-10 3.079964492e-09)
(0.01099999007 -7.587126546e-10 3.253722232e-09)
(0.01099999737 -7.444075117e-09 3.324117228e-09)
(0.01099995454 -7.585759434e-09 3.891020277e-09)
(0.01100000406 -4.926269789e-08 -1.129490732e-08)
(0.01099989665 -4.045381508e-08 6.108155874e-09)
(0.01100004316 -2.663298941e-07 -1.597653528e-07)
(0.01100000069 -7.601852934e-10 -7.279986563e-11)
(0.01100000051 -1.016695105e-09 7.867813627e-10)
(0.0110000017 1.440767147e-10 -7.54444714e-11)
(0.0109999994 -1.01457407e-09 1.176664452e-09)
(0.0110000007 -9.615749022e-10 6.68977771e-10)
(0.01099999995 -1.125152973e-09 -1.252133703e-09)
(0.01099999842 -1.299328436e-09 1.187896268e-09)
(0.01099999628 -2.361851511e-09 -1.316822272e-10)
(0.0109999973 -2.37772452e-10 1.509559301e-09)
(0.01099998343 -6.022297964e-10 3.856790926e-09)
(0.01099999089 -7.780599604e-10 2.570377197e-09)
(0.01099992186 -1.65649626e-09 3.517556477e-09)
(0.0109999643 -1.943303323e-10 -2.66071869e-08)
(0.0109997321 2.307699923e-10 -6.920041652e-09)
(0.01099995509 8.425903545e-11 -3.931415032e-07)
(0.01100000086 3.443301155e-10 3.391857252e-10)
(0.01100000208 5.050068895e-10 -5.840360792e-10)
(0.01099999996 7.755178919e-10 8.568463325e-10)
(0.01099999914 9.243296061e-10 5.099757975e-11)
(0.01099999867 4.606840437e-10 -1.358757929e-10)
(0.01099999782 -1.222009463e-09 6.221924375e-10)
(0.01099999684 -3.443524853e-10 2.227336066e-09)
(0.01099999782 -8.398928508e-10 1.530237948e-09)
(0.01099999932 -1.554853163e-09 1.311561391e-09)
(0.01099998954 6.586388233e-11 3.663358957e-09)
(0.01100000028 5.844446248e-09 2.178020547e-09)
(0.01099995648 7.441125791e-09 3.948056369e-09)
(0.01100000107 4.821593412e-08 -1.041282444e-08)
(0.010999895 3.980801602e-08 4.997393542e-09)
(0.0110000428 2.644950482e-07 -1.588933211e-07)
(0.01100000052 -1.165323204e-09 2.592734177e-10)
(0.01100000325 -9.362910686e-10 4.930010849e-10)
(0.01099999999 -1.471405679e-09 -3.883857537e-10)
(0.01099999993 -1.15815607e-09 -8.789656125e-10)
(0.01099999542 1.393911123e-09 -1.249280241e-09)
(0.01099999626 7.631260179e-10 -4.591347462e-10)
(0.01099999538 5.141466091e-11 -1.682271289e-09)
(0.01099999531 -1.157816451e-09 2.292759723e-09)
(0.01100000048 -3.380937425e-11 2.320195422e-09)
(0.0109999896 -5.617323919e-11 2.961093183e-09)
(0.01099999865 5.885279678e-09 -8.171273956e-10)
(0.01099996631 7.588117861e-09 2.176661037e-10)
(0.01100000543 3.796625936e-08 -1.781356305e-08)
(0.01099995155 2.234154611e-08 -5.474724424e-09)
(0.01100005852 1.621682397e-07 -1.11682008e-07)
(0.01100000191 -4.56290212e-10 1.55886696e-10)
(0.01100000043 -1.1657298e-12 1.091578235e-09)
(0.01099999962 -1.731582522e-10 -4.251150364e-10)
(0.01100000059 -2.45483613e-10 -1.27338932e-09)
(0.01099999681 -3.06515673e-10 -1.182354544e-09)
(0.01099999654 3.893639055e-10 7.901997866e-10)
(0.01099999785 2.030950162e-11 8.436745917e-10)
(0.01099999608 7.753747952e-10 9.074199972e-10)
(0.01099999799 2.106796528e-09 -7.225424086e-10)
(0.0109999959 1.023586271e-09 2.079055475e-09)
(0.01100000455 5.612245099e-09 3.252884001e-10)
(0.01099998839 5.781349528e-09 -9.4666837e-10)
(0.01100002857 3.637164952e-08 -1.533604322e-08)
(0.01100002318 2.913954782e-08 -5.528267709e-09)
(0.01100010572 1.260930151e-07 -5.412038505e-08)
(0.01100000109 3.461751794e-10 -3.756277009e-11)
(0.01100000079 -1.136259244e-09 -2.911516208e-09)
(0.01100000068 4.959526919e-10 -4.44453796e-09)
(0.01099999966 2.029236909e-09 2.474951592e-09)
(0.0109999966 1.030806224e-09 2.692498612e-09)
(0.01099999667 1.166947799e-10 2.494506705e-09)
(0.01099999733 4.124024015e-10 2.049235812e-09)
(0.01099999633 -1.305645033e-10 5.163937276e-10)
(0.01100000086 1.388486483e-09 -1.743447062e-09)
(0.01099999661 5.214149509e-10 2.583522761e-09)
(0.01100000633 3.396758397e-09 -1.742931492e-09)
(0.01099999864 1.779499514e-09 -1.506645527e-09)
(0.0110000363 1.012320675e-08 -1.447380966e-08)
(0.01100005108 8.000751e-09 -8.803461889e-09)
(0.01100012399 3.593570125e-08 -3.533139096e-08)
(0.01099999933 -1.2829435e-09 -2.941051948e-10)
(0.01099999771 1.483478182e-09 2.002142698e-10)
(0.0110000009 3.196039436e-10 -7.070949975e-10)
(0.01100000041 -3.484117507e-10 1.195232519e-09)
(0.01100000011 -4.274266512e-10 1.584673047e-09)
(0.01099999692 -9.750914591e-10 1.275421035e-09)
(0.01099999807 -2.333649954e-09 1.320817364e-09)
(0.01099999729 -4.120404044e-10 1.235773912e-09)
(0.01099999902 -4.901929619e-10 -1.510720984e-09)
(0.0109999935 7.427971958e-10 1.694655773e-09)
(0.01100000393 -2.911164635e-09 -5.075005635e-09)
(0.01099999026 -4.768975189e-10 -8.469246578e-09)
(0.01100002999 -1.190229436e-08 -3.744102626e-08)
(0.01100002177 -5.413710711e-09 -2.794530705e-08)
(0.01099999909 1.490761042e-10 -3.677151576e-10)
(0.01099999868 8.552754226e-11 4.165715547e-10)
(0.01100000166 1.621614703e-09 1.580804499e-09)
(0.0110000001 3.670486395e-10 8.908613337e-10)
(0.01099999793 5.151538387e-10 9.881954595e-10)
(0.01099999601 -8.090529248e-10 3.387395165e-10)
(0.01099999991 1.344010811e-10 1.349910568e-09)
(0.01099999777 -1.644305974e-10 9.150373648e-10)
(0.01099999989 5.250035186e-10 1.771342433e-09)
(0.01099999111 -9.441415682e-10 2.051652388e-09)
(0.011000002 -4.551497745e-09 -2.7213441e-09)
(0.01099998033 -5.702276582e-09 -5.037386719e-09)
(0.01100002131 -4.26151043e-08 -4.228696243e-08)
(0.0109999783 -2.49201379e-08 -2.56887688e-08)
(0.01100008359 -2.027662382e-07 -2.047503693e-07)
(0.01100000291 -1.71354385e-09 -2.390328615e-10)
(0.01100000164 3.856811128e-10 4.127137604e-10)
(0.01099999951 6.078707533e-10 1.164461899e-09)
(0.01099999816 1.388737236e-10 4.466689056e-10)
(0.01099999726 1.988222134e-11 1.015570173e-09)
(0.0109999982 1.522951435e-10 8.418976278e-10)
(0.01099999996 -9.669609907e-11 1.880096242e-09)
(0.01099999838 6.690781827e-10 2.731536629e-09)
(0.0109999996 -7.910318687e-10 3.825503461e-09)
(0.01099998589 1.176005867e-09 1.693304921e-09)
(0.0109999964 3.678313681e-10 -1.500956584e-10)
(0.01099995107 9.548814192e-10 -4.768922847e-10)
(0.01099999374 -3.546773911e-08 -5.611395239e-08)
(0.01099985665 -1.085500999e-08 -2.83435642e-08)
(0.01100000706 -2.761153362e-07 -4.493057715e-07)
(0.01099999964 8.778165295e-10 1.042551474e-10)
(0.01100000002 -7.169839546e-10 3.365074979e-09)
(0.01099999967 -9.889505527e-11 5.527162372e-10)
(0.01099999994 -9.070153761e-10 -3.470512205e-10)
(0.0110000012 -1.01666422e-09 2.013274867e-10)
(0.01099999789 9.81226017e-10 1.080490385e-09)
(0.01099999965 1.021928881e-09 2.51533293e-09)
(0.01099999693 8.736448507e-10 1.935994266e-09)
(0.01100000129 4.117826819e-10 5.296064713e-09)
(0.01099998994 1.272634365e-09 6.097637508e-09)
(0.01099999822 -2.809780139e-09 9.583614642e-09)
(0.01099994534 -2.941452719e-09 9.079823169e-09)
(0.01099998615 -5.95287394e-08 -3.498480076e-08)
(0.01099976843 -4.081468526e-08 -7.22346285e-09)
(0.01099996459 -5.560690405e-07 -7.155988433e-07)
(0.0109999994 -8.189504786e-10 1.152563261e-09)
(0.01099999934 2.135572385e-10 -1.894032662e-10)
(0.01099999905 -1.493657504e-10 9.066193674e-10)
(0.01099999993 5.62097782e-10 1.639394579e-10)
(0.01100000167 -1.679156884e-09 6.132054175e-10)
(0.01100000138 -1.856178119e-09 2.042153577e-09)
(0.01099999866 -2.240941414e-09 2.28877444e-09)
(0.0109999974 -3.333956126e-09 4.349010843e-09)
(0.0109999997 -2.221185415e-09 6.192097233e-09)
(0.01099998524 -1.105538808e-09 8.911714475e-09)
(0.01099999145 -1.651224563e-09 1.279041931e-08)
(0.01099989783 4.44239563e-11 1.840954425e-08)
(0.01099992249 -1.634503389e-10 -7.21420126e-08)
(0.01099940672 -1.055056638e-09 -3.154636131e-08)
(0.01099974495 7.855710067e-11 -1.785320234e-06)
(0.01099999963 -1.760837956e-09 1.950857848e-10)
(0.01100000235 -8.339667356e-10 -3.269180642e-10)
(0.01099999783 -8.695113321e-10 -4.554311129e-10)
(0.01100000003 1.430474492e-10 -5.855187276e-10)
(0.01099999769 -5.884295516e-10 -4.616927844e-10)
(0.01099999775 -2.005675382e-09 1.216089508e-09)
(0.01099999868 -1.593136818e-09 2.592904873e-09)
(0.01099999783 -2.04115345e-09 4.071969813e-09)
(0.01100000146 -2.175010623e-09 6.68730796e-09)
(0.01099998884 -2.565251759e-09 5.554095082e-09)
(0.011000001 8.952456116e-10 9.795813424e-09)
(0.01099994479 2.561868505e-10 1.143197355e-08)
(0.01099998654 5.507674695e-08 -3.388885172e-08)
(0.01099976685 3.810788527e-08 -7.820628592e-09)
(0.01099996234 5.54265455e-07 -7.174842023e-07)
(0.01100000118 -5.924581664e-10 8.055281234e-10)
(0.0109999994 -4.812738593e-10 -2.589484261e-10)
(0.01100000086 -6.262048159e-10 -1.036392403e-11)
(0.011000001 -8.061527482e-10 9.354784298e-10)
(0.01099999463 2.876422933e-10 -8.014477309e-11)
(0.01099999709 -9.51416819e-10 8.717603687e-10)
(0.01099999655 4.961206375e-11 1.188907293e-09)
(0.01099999622 -9.368110895e-10 1.077788182e-09)
(0.01099999787 -2.31716097e-09 4.292495872e-09)
(0.01099998864 -3.187035912e-09 2.633009581e-09)
(0.01099999613 1.31115873e-09 -4.200293294e-10)
(0.01099994927 -1.286133849e-09 -9.847964763e-11)
(0.01099999365 3.499229373e-08 -5.513043042e-08)
(0.01099985742 9.141408084e-09 -3.015541126e-08)
(0.01100000634 2.727349628e-07 -4.495771068e-07)
(0.01100000023 -8.644114423e-10 4.815383654e-10)
(0.01100000039 -2.174097854e-10 -2.050896563e-09)
(0.01100000207 -1.062693844e-09 -7.203128834e-10)
(0.01100000138 -1.977067571e-10 1.111464467e-10)
(0.01099999688 3.940837948e-10 -3.052990343e-10)
(0.0109999964 1.790006416e-09 -5.194099156e-10)
(0.01099999634 -9.83160584e-10 8.852860658e-10)
(0.01099999669 -1.613531976e-09 1.760276634e-09)
(0.01099999813 3.915743422e-10 7.673359607e-10)
(0.01099999025 -3.895389783e-10 1.549336631e-09)
(0.01100000283 4.274426525e-09 -2.305657786e-09)
(0.01099997692 4.711241717e-09 -5.166729791e-09)
(0.01100002137 4.128916198e-08 -4.01246192e-08)
(0.01099997778 2.544560219e-08 -2.638741614e-08)
(0.01100008178 2.050249571e-07 -2.038891879e-07)
(0.01099999998 9.482709574e-10 1.542526879e-10)
(0.01100000015 -1.274759529e-09 -6.587381314e-10)
(0.01100000218 6.616584618e-10 -1.07321048e-09)
(0.01099999828 2.200339799e-09 3.387199017e-10)
(0.01099999667 6.666544014e-10 1.177783282e-11)
(0.01099999512 4.412921344e-10 9.576524054e-10)
(0.0109999969 4.238684248e-10 7.851983752e-10)
(0.01099999649 3.624354906e-11 1.407722363e-09)
(0.01100000014 6.556284561e-10 -2.122815014e-09)
(0.01099999271 -1.269547567e-09 -5.848891109e-10)
(0.01100000501 9.606264951e-10 -5.776560301e-09)
(0.01099998794 8.882785278e-10 -7.6469486e-09)
(0.01100003096 1.282556736e-08 -3.591012049e-08)
(0.0110000231 5.180622233e-09 -2.976475954e-08)
(0.01100010582 5.407669746e-08 -1.266749638e-07)
(0.01099999947 -3.546857452e-10 -2.630406462e-10)
(0.01100000053 3.730346544e-10 2.743650624e-10)
(0.01099999946 7.95415611e-11 -2.604767718e-10)
(0.01099999944 -1.832501e-09 -4.560298833e-10)
(0.0109999998 -5.421571812e-10 -2.860990886e-10)
(0.01099999756 1.798486663e-09 -1.428094916e-09)
(0.01099999755 -2.155586925e-09 1.137152761e-10)
(0.01099999366 4.683820759e-10 6.299046933e-10)
(0.01099999977 3.054576831e-09 7.071156301e-10)
(0.01099998808 1.237671441e-11 -1.518159667e-09)
(0.01099999547 6.314594277e-10 -4.861063561e-09)
(0.01099996512 2.984157711e-09 -6.274870309e-09)
(0.01100001063 -1.830329123e-08 -3.937016535e-08)
(0.01099995155 -4.175025094e-09 -2.426568158e-08)
(0.01099999902 8.039404995e-11 8.471421085e-10)
(0.01099999914 5.943101367e-10 1.411473602e-09)
(0.01099999962 9.50766597e-10 8.35449781e-10)
(0.01099999864 -8.300615725e-10 4.533662571e-10)
(0.01099999756 -1.361055676e-09 1.104133516e-09)
(0.0109999984 -8.595123127e-10 1.755063067e-09)
(0.01099999891 -4.833505267e-10 2.928718557e-09)
(0.01099999638 -2.883060334e-11 1.809677137e-09)
(0.01099999823 1.324101112e-09 1.837134987e-09)
(0.01099998826 5.356451881e-10 2.878599367e-09)
(0.01099999467 -2.577266783e-09 -1.442480403e-09)
(0.01099994724 5.30215821e-10 6.732723373e-10)
(0.01099999491 -5.437665044e-08 -3.715227019e-08)
(0.01099985642 -2.938701251e-08 -1.113424436e-08)
(0.01099999974 8.430813556e-10 9.945897965e-10)
(0.01100000098 1.300652178e-09 1.159266445e-09)
(0.01100000144 -9.983884606e-10 1.11163816e-10)
(0.01099999873 -1.659759444e-09 -1.013112304e-09)
(0.01099999864 -8.708900155e-10 7.221428817e-10)
(0.01099999779 -6.744841213e-11 1.464795427e-09)
(0.01099999936 -4.040424597e-11 2.866933039e-09)
(0.01099999741 1.434392681e-10 2.995782311e-09)
(0.01099999886 2.572165175e-09 4.958665436e-09)
(0.01099998415 6.21249446e-09 6.965210118e-09)
(0.01099999172 1.071367844e-08 9.902332405e-09)
(0.01099991383 1.052782798e-08 9.569625279e-09)
(0.01099994045 -2.816095344e-08 -3.066579571e-08)
(0.01099959175 -3.835887456e-09 -3.735393054e-09)
(0.01099979358 -6.818027818e-07 -6.885239374e-07)
(0.01099999976 3.822722183e-10 1.151660639e-09)
(0.01099999786 -9.919447577e-10 3.957305105e-10)
(0.01099999915 7.018059097e-11 -5.806043192e-11)
(0.01100000045 4.459384745e-10 1.522090632e-09)
(0.01099999864 -1.259028696e-09 2.886727734e-09)
(0.01100000066 -6.045744418e-11 2.336634003e-09)
(0.01099999928 1.210962592e-09 3.92941057e-09)
(0.01100000051 1.633825205e-09 5.720569731e-09)
(0.01100000405 2.706675262e-09 1.043302475e-08)
(0.01099999319 5.672797116e-09 1.428971033e-08)
(0.01099999754 7.711480831e-09 3.372540928e-08)
(0.01099992638 1.242171609e-08 3.192027591e-08)
(0.01099989936 -6.787118413e-08 6.900898236e-08)
(0.01099940242 -3.96583626e-08 2.605214733e-08)
(0.0109994369 -1.624439098e-06 -1.068059451e-06)
(0.0109999991 -1.626271956e-09 6.970371642e-10)
(0.01099999946 -1.066069249e-09 1.798111225e-09)
(0.01099999838 2.5335217e-11 8.989265585e-10)
(0.01099999923 6.533347351e-10 1.268112431e-09)
(0.01099999881 -4.742538083e-10 3.170195981e-09)
(0.01100000094 5.189378924e-10 3.63709123e-09)
(0.01100000248 5.394329303e-10 4.219051531e-09)
(0.01100000008 9.929134855e-10 6.033040726e-09)
(0.01100000607 -8.569132528e-10 1.394611007e-08)
(0.01099999232 8.393633733e-11 1.968748917e-08)
(0.01099999466 -1.842651374e-10 5.238528864e-08)
(0.01099985727 2.571832717e-10 6.329165379e-08)
(0.0109997616 -1.132006123e-09 9.567229516e-08)
(0.01099841531 1.613072266e-10 6.428143476e-09)
(0.01099822393 -8.317897707e-10 -3.709848065e-06)
(0.01100000031 -4.575841566e-10 5.78651472e-10)
(0.01100000009 -9.361564866e-10 9.617070103e-10)
(0.0109999991 6.026619348e-11 -4.617442099e-10)
(0.01099999944 1.104998436e-09 -8.146621509e-10)
(0.01099999927 -9.339140644e-10 1.927627152e-09)
(0.01099999872 -1.026403042e-09 3.664824275e-09)
(0.01100000138 -1.998980248e-09 5.849005257e-09)
(0.01099999875 -4.554267993e-09 6.483527709e-09)
(0.01100000154 -3.543434406e-09 1.013384736e-08)
(0.01099999428 -6.688021186e-09 1.359935007e-08)
(0.01099999651 -9.809781342e-09 3.669883566e-08)
(0.01099992629 -1.41283021e-08 3.054288958e-08)
(0.01099989598 6.670963466e-08 7.015311273e-08)
(0.01099940278 3.576242397e-08 2.691115694e-08)
(0.01099943336 1.623197019e-06 -1.067403252e-06)
(0.0109999998 -1.355441961e-09 5.907613197e-10)
(0.01099999944 -7.620981008e-10 -4.10723461e-10)
(0.01099999906 -1.62392478e-09 9.062334122e-11)
(0.01099999966 -5.365603298e-10 1.126160936e-10)
(0.01099999694 -3.16973931e-10 1.771113688e-09)
(0.01099999797 -6.977035712e-10 3.10179947e-09)
(0.01099999877 -1.223165993e-09 3.174003469e-09)
(0.01099999665 -1.264363581e-09 4.424633555e-09)
(0.01099999755 -6.518572889e-09 4.27403886e-09)
(0.01099998339 -6.812968888e-09 5.234826478e-09)
(0.0109999916 -8.578596072e-09 9.851571515e-09)
(0.01099991297 -1.013296345e-08 1.246182163e-08)
(0.01099994391 2.926527975e-08 -2.676470258e-08)
(0.01099958937 3.11436931e-09 -2.761291695e-09)
(0.01099979545 6.852699093e-07 -6.866220792e-07)
(0.01099999952 -1.340265459e-09 6.317220125e-10)
(0.01099999968 -3.111564425e-09 -6.470134983e-10)
(0.01100000014 -1.658012392e-09 -5.045652164e-10)
(0.01099999947 -2.045330308e-09 4.904732462e-10)
(0.01099999912 -5.216803637e-11 -6.998674316e-10)
(0.01099999924 -1.010425492e-09 3.870342598e-10)
(0.01099999656 -1.521147155e-09 9.821419245e-10)
(0.01099999473 -1.934706634e-09 1.865168882e-09)
(0.01099999912 -1.072947501e-09 3.416134432e-09)
(0.01099998537 -4.150620878e-09 2.662354524e-09)
(0.01099999679 3.497695041e-10 -1.635431451e-09)
(0.01099995061 -1.548548317e-10 1.210167104e-09)
(0.01099999438 5.372382338e-08 -3.54246075e-08)
(0.01099985548 2.976816929e-08 -1.126073059e-08)
(0.01100000837 4.490694786e-07 -2.757989797e-07)
(0.01099999868 2.734723709e-11 -1.534420088e-09)
(0.01100000223 -1.206338793e-10 -1.784808533e-09)
(0.01100000031 1.722086748e-09 -2.212651912e-10)
(0.01099999712 -5.395181331e-10 -2.62383787e-09)
(0.01099999806 -3.392323788e-10 6.448974415e-10)
(0.01099999732 2.326954624e-10 -1.791383734e-10)
(0.01099999758 -2.159278648e-09 1.31499177e-09)
(0.01099999379 -1.746560596e-09 1.87267593e-09)
(0.01099999772 -2.360895683e-09 1.240049091e-10)
(0.0109999896 -2.435263086e-09 2.635867977e-10)
(0.01099999877 -1.941158067e-09 -5.499647253e-09)
(0.0109999666 -6.195631314e-10 -4.868702678e-09)
(0.01100000592 1.726647233e-08 -3.77928744e-08)
(0.01099995086 3.787954333e-09 -2.344828172e-08)
(0.01100005813 1.106809138e-07 -1.628718288e-07)
(0.01099999847 -7.865475383e-11 8.206380571e-11)
(0.01099999777 -1.310671761e-09 1.628678532e-09)
(0.01100000061 3.815670627e-10 8.764856709e-10)
(0.01100000021 2.553180394e-09 -4.980797462e-10)
(0.01100000028 9.790527729e-10 -1.555853119e-10)
(0.01099999818 1.876957693e-09 -9.325826823e-10)
(0.01099999985 1.81929103e-09 -7.483225883e-10)
(0.01099999629 3.034958174e-10 -3.014705914e-10)
(0.01099999935 6.946818999e-11 -1.100243e-09)
(0.0109999883 9.589182769e-10 -1.029188237e-10)
(0.0109999979 2.080865537e-09 -6.579117111e-09)
(0.01099995567 5.404575949e-09 -6.349296137e-09)
(0.01100000465 -9.805184489e-09 -4.772980466e-08)
(0.01099989508 6.260060679e-09 -4.096479159e-08)
(0.01100000031 -8.003797055e-11 -5.336500058e-10)
(0.01100000021 5.484627187e-10 6.901114288e-10)
(0.01099999978 2.725073795e-10 -3.48137801e-11)
(0.01100000017 1.709856697e-09 3.781028246e-10)
(0.01099999976 1.545503731e-09 2.253903771e-11)
(0.01099999962 1.481630958e-09 3.316492022e-10)
(0.01099999947 5.155358059e-10 -4.107608842e-12)
(0.01099999693 2.099377357e-09 5.158680391e-10)
(0.0109999995 4.732806516e-09 1.151532141e-09)
(0.01099998949 6.51541261e-09 2.219960281e-09)
(0.01099999895 9.386356621e-09 -1.315268411e-09)
(0.01099994493 7.877122372e-09 -1.264884815e-09)
(0.01099998813 -3.450093333e-08 -5.663059645e-08)
(0.01099976698 -7.357804854e-09 -3.969571859e-08)
(0.01100000025 6.196001827e-10 9.712075961e-10)
(0.01099999911 -5.35460072e-10 2.447199323e-10)
(0.01099999987 -4.880547368e-10 4.820573925e-10)
(0.01099999825 -3.713550486e-10 7.648735202e-10)
(0.01099999933 -4.638564361e-10 4.101228048e-10)
(0.01100000035 1.88693856e-09 2.590332611e-09)
(0.01099999954 2.924440591e-09 2.649093623e-09)
(0.01099999869 3.804840609e-09 4.359032555e-09)
(0.01100000379 9.205257085e-09 3.60656028e-09)
(0.01099999261 1.151056554e-08 5.544556363e-09)
(0.01099999811 3.334123931e-08 8.834698375e-09)
(0.0109999282 3.211682197e-08 1.100369888e-08)
(0.01099990083 6.89484616e-08 -6.75210629e-08)
(0.01099940149 2.689353122e-08 -3.832192325e-08)
(0.01099999885 -6.331943876e-10 -8.765700141e-10)
(0.01099999798 7.552434202e-11 -2.535423351e-10)
(0.01100000144 9.472767441e-10 2.343730483e-11)
(0.0110000024 4.985149509e-10 8.320050876e-10)
(0.01099999975 8.925281386e-10 2.807242111e-10)
(0.01100000094 1.168962325e-09 2.648408743e-09)
(0.01100000143 1.087552273e-09 3.998650896e-09)
(0.01100000325 3.291661279e-09 4.143107754e-09)
(0.01100000802 8.773025686e-09 9.206667161e-09)
(0.01100001893 1.246139016e-08 1.353039552e-08)
(0.01100001116 3.820140724e-08 3.873993867e-08)
(0.01100003599 4.77966712e-08 4.849871138e-08)
(0.01099973812 6.659423019e-08 6.641562253e-08)
(0.01099954319 -2.85403269e-08 -2.681399761e-08)
(0.01099748656 -3.579849476e-06 -3.5804581e-06)
(0.01100000169 -5.530063154e-10 -3.428516631e-10)
(0.01099999989 -7.577934806e-10 -7.849151971e-11)
(0.01100000165 1.023830134e-09 2.37738908e-10)
(0.0109999993 -4.64645256e-10 1.407903081e-09)
(0.01100000086 -1.677884429e-09 2.295269533e-09)
(0.01100000112 -6.177852143e-10 3.323169888e-10)
(0.01100000441 -1.810757831e-09 3.890160163e-09)
(0.01100000612 -1.263385433e-09 4.58017816e-09)
(0.01100001395 -2.060650246e-09 1.294528066e-08)
(0.01100002773 3.512921375e-10 2.601362981e-08)
(0.0110000273 -1.690747969e-09 6.923556679e-08)
(0.01100002806 -8.885542347e-10 1.639088137e-07)
(0.01099938942 2.800240547e-10 2.127409792e-07)
(0.01099786944 4.747173627e-10 9.576415352e-07)
(0.01098948701 2.185063507e-10 -1.717673809e-05)
(0.01100000123 -1.726823228e-09 -2.071927453e-10)
(0.01100000096 -6.057722464e-10 9.314662538e-11)
(0.01099999861 -1.590443047e-09 5.976707492e-10)
(0.01099999802 -1.292437004e-09 1.143189779e-09)
(0.01100000062 -7.37723353e-10 1.742694039e-09)
(0.01099999895 -2.803985653e-09 9.838696407e-10)
(0.01100000002 -2.258222642e-09 1.496941165e-09)
(0.01100000313 -4.08888657e-09 3.277262628e-09)
(0.01100000937 -9.502267969e-09 8.632498855e-09)
(0.01100001882 -1.489196261e-08 1.291959408e-08)
(0.01100001173 -3.956915359e-08 3.859006887e-08)
(0.01100003618 -4.962542404e-08 4.727396712e-08)
(0.01099973659 -6.482298242e-08 6.773392756e-08)
(0.01099954105 2.461076155e-08 -2.745605475e-08)
(0.01099748452 3.577214292e-06 -3.579017628e-06)
(0.01099999907 -7.075960103e-10 -6.213918576e-10)
(0.01100000138 -2.034594474e-09 1.083110761e-09)
(0.010999999 -2.265976409e-09 4.60975308e-10)
(0.0109999994 1.716908816e-10 -8.565534144e-10)
(0.01099999807 -1.040356027e-09 6.291361078e-10)
(0.01099999804 -3.398300271e-09 8.914458133e-10)
(0.01100000018 -4.934626526e-09 2.132444156e-09)
(0.01099999711 -5.764243902e-09 3.025912851e-09)
(0.01100000109 -1.093451325e-08 4.569532327e-09)
(0.01099999618 -1.387600862e-08 5.198161406e-09)
(0.01099999931 -3.526605412e-08 8.064730201e-09)
(0.010999928 -3.15983873e-08 1.270670365e-08)
(0.01099989489 -7.270856216e-08 -6.847517053e-08)
(0.01099940145 -2.940478123e-08 -3.889395553e-08)
(0.01099943529 1.064453652e-06 -1.624079046e-06)
(0.0110000002 -1.433726976e-09 4.25326392e-10)
(0.01099999976 -2.286361446e-09 7.877235229e-10)
(0.01100000059 -3.92987319e-10 6.273908168e-10)
(0.01100000117 -2.090511238e-09 -1.241467684e-09)
(0.01099999781 -1.255797388e-09 -1.267997385e-09)
(0.01100000045 -7.083032364e-10 -5.480856718e-10)
(0.01100000108 -8.440505537e-10 1.660527186e-10)
(0.01099999491 -1.38307252e-09 1.103882838e-09)
(0.01100000169 -3.757371318e-09 9.903293333e-10)
(0.01099998856 -5.632389942e-09 1.434593339e-09)
(0.01099999948 -8.800381416e-09 -1.85388266e-09)
(0.01099994574 -1.033847859e-08 -2.521291115e-09)
(0.01099998732 3.323897883e-08 -5.752076248e-08)
(0.01099977056 8.288665434e-09 -4.027297225e-08)
(0.01099996601 7.185784515e-07 -5.562026351e-07)
(0.01100000028 -6.402062664e-10 4.499706284e-10)
(0.01100000117 -6.925223735e-10 1.816226289e-10)
(0.01100000061 -5.620066557e-11 -1.034674254e-10)
(0.01100000087 1.088460074e-10 7.166033837e-10)
(0.01099999789 -3.622926712e-10 1.273233377e-10)
(0.01099999891 -1.724983553e-10 -8.745703151e-10)
(0.01099999983 -3.917866723e-11 7.705580881e-10)
(0.01099999379 -7.029562708e-10 3.480407616e-10)
(0.01099999742 -2.402048518e-09 2.121173186e-09)
(0.01099998842 -2.366093664e-09 4.705564095e-10)
(0.01099999907 -3.808342186e-09 -5.120042244e-09)
(0.01099995496 -3.266028701e-09 -6.413560099e-09)
(0.01100000306 1.090524864e-08 -4.688917137e-08)
(0.01099989593 -4.648807503e-09 -3.718980924e-08)
(0.01100004379 1.611814822e-07 -2.647616672e-07)
(0.01099999977 6.811453406e-10 1.116440198e-10)
(0.01099999934 -4.810125065e-10 -5.411921468e-10)
(0.01100000125 -1.733630484e-09 1.263524092e-10)
(0.01099999872 1.77074019e-09 -7.378429785e-10)
(0.01099999887 6.728863054e-10 -1.950397406e-09)
(0.01099999784 2.796467431e-09 -1.236759887e-09)
(0.01099999632 2.550779567e-09 -2.532198124e-09)
(0.01099999558 4.629311411e-09 -3.20066322e-09)
(0.01099999852 3.684077474e-09 -1.425358883e-09)
(0.01099998273 4.083445943e-09 -4.048248527e-09)
(0.01099998813 5.063262612e-09 -2.695280789e-09)
(0.0109999222 6.753278919e-09 -1.544011355e-09)
(0.01099996555 -2.515478874e-08 -9.50797197e-10)
(0.01099973187 -3.801727795e-09 -1.756125138e-10)
(0.01099999939 5.72418906e-10 -3.908386321e-12)
(0.01099999864 -6.459412828e-10 -1.440472912e-09)
(0.01100000138 7.801253987e-10 7.444123034e-10)
(0.01099999965 -5.772177306e-10 -7.114700805e-10)
(0.01099999921 2.410898382e-09 -9.310318993e-10)
(0.0109999982 3.038571705e-09 2.6295385e-10)
(0.01099999768 2.862752119e-09 6.634157885e-10)
(0.0109999987 4.091508672e-09 9.402814217e-10)
(0.01099999815 6.719317109e-09 7.590345713e-10)
(0.0109999838 7.581569369e-09 -3.587363165e-10)
(0.01099999206 1.247148962e-08 4.121108052e-10)
(0.01099989819 1.847206904e-08 -6.641778216e-10)
(0.01099992423 -7.304307372e-08 3.97458859e-10)
(0.01099940633 -3.165242883e-08 -8.279375824e-10)
(0.01100000083 1.700196863e-10 1.046982065e-09)
(0.01099999757 1.488281745e-09 -8.393706909e-10)
(0.01099999988 1.153768333e-09 1.256031797e-09)
(0.0109999999 6.782933222e-10 4.330435147e-10)
(0.01100000001 -3.751422232e-10 -1.661802855e-09)
(0.01099999872 1.978374005e-09 -7.662134975e-11)
(0.01100000288 4.554813896e-09 -7.808308197e-10)
(0.0109999989 6.290639878e-09 -1.136166953e-10)
(0.01100000059 1.215373299e-08 1.537110435e-10)
(0.01099999163 1.952647585e-08 5.714076014e-10)
(0.01099999644 5.206895219e-08 -2.518151849e-10)
(0.01099985691 6.417880072e-08 -1.558820774e-10)
(0.0109997622 9.599821663e-08 -5.02484942e-10)
(0.01099841617 8.403421487e-09 -1.524218444e-09)
(0.01099999789 5.512176555e-10 -1.190178182e-09)
(0.01100000046 1.727440414e-09 -5.415043956e-10)
(0.0110000013 -1.561494828e-10 1.826493527e-09)
(0.01100000123 8.615007732e-10 3.693063367e-10)
(0.01100000186 1.114361948e-09 9.744208685e-10)
(0.01100000139 1.643151204e-10 7.102128462e-11)
(0.01100000356 2.102932026e-09 8.785507886e-10)
(0.01100000496 3.795986797e-09 4.597831436e-10)
(0.01100001466 1.316615663e-08 2.830598556e-09)
(0.01100002832 2.619619459e-08 1.189767361e-09)
(0.0110000242 6.929022179e-08 1.164536631e-10)
(0.01100002601 1.633080226e-07 -8.154675097e-11)
(0.01099939014 2.147508179e-07 3.044802375e-10)
(0.0109978684 9.572482809e-07 6.597407319e-10)
(0.01099999976 -1.899804585e-09 -1.875335447e-09)
(0.0109999997 -1.31870201e-09 -6.967531838e-10)
(0.0110000008 1.209407675e-09 4.87711365e-10)
(0.01100000034 1.796726172e-10 -5.776376618e-11)
(0.01100000027 -8.47437923e-10 -1.148229903e-10)
(0.01100000293 -1.35264723e-09 7.31874599e-10)
(0.01100000478 -2.295490993e-09 -5.943214239e-10)
(0.01100001188 -1.026897085e-09 1.005715007e-09)
(0.01100002814 -1.60354963e-09 2.286287441e-09)