/*--------------------------------*- C++ -*----------------------------------*\
| =========                 |                                                 |
| \\      /  F ield         | OpenFOAM: The Open Source CFD Toolbox           |
|  \\    /   O peration     | Version:  4.x                                   |
|   \\  /    A nd           | Web:      www.OpenFOAM.org                      |
|    \\/     M anipulation  |                                                 |
\*---------------------------------------------------------------------------*/
FoamFile
{
    version     2.0;
    format      ascii;
    class       volScalarField;
    location    "2000";
    object      X_CO2;
}
// * * * * * * * * * * * * * * * * * * * * * * * * * * * * * * * * * * * * * //

dimensions      [0 0 0 0 0 0 0];

internalField   nonuniform List<scalar> 
1175
(
0.004151310131
0.004151310128
0.004151310167
0.004151310187
0.00415130982
0.004151310164
0.004151310812
0.00415131242
0.004151318854
0.004151337034
0.004151390098
0.004151529612
0.004151871383
0.004152627943
0.004154119948
0.004151309916
0.004151309942
0.004151310253
0.004151310005
0.004151310246
0.004151310381
0.004151310833
0.004151313437
0.0041513226
0.00415135061
0.004151433602
0.004151662638
0.004152242693
0.004153554827
0.004156142193
0.004151310381
0.004151310365
0.004151309777
0.004151309778
0.004151309695
0.004151310208
0.004151311211
0.004151315628
0.004151329869
0.004151375596
0.0041515202
0.004151937573
0.004153038911
0.004155603509
0.004160673323
0.00415131038
0.004151310248
0.004151309783
0.004151309873
0.004151309645
0.004151310329
0.0041513124
0.004151317205
0.004151337483
0.004151405695
0.004151627737
0.004152299722
0.004154150309
0.004158608711
0.004167487429
0.004151310273
0.004151309987
0.004151309746
0.004151309796
0.00415131001
0.004151310405
0.004151312474
0.004151318733
0.004151341604
0.004151421791
0.004151687854
0.004152518665
0.004154882466
0.004160757645
0.0041726079
0.004151310225
0.004151310216
0.004151309877
0.004151310238
0.004151309896
0.004151310391
0.004151312428
0.004151317371
0.004151337358
0.004151405856
0.00415162745
0.004152299698
0.004154150958
0.004158609135
0.004167486881
0.004151309985
0.004151310328
0.004151310236
0.004151309867
0.004151310374
0.004151310675
0.004151312379
0.00415131594
0.004151330215
0.004151376333
0.004151520291
0.004151937621
0.004153039124
0.004155603746
0.00416067295
0.004151310007
0.004151310583
0.004151310237
0.004151310076
0.004151310223
0.004151310417
0.004151311503
0.004151314018
0.004151322774
0.004151350586
0.004151433707
0.004151662913
0.004152242631
0.004153554498
0.004156141212
0.004151310073
0.004151310221
0.004151310053
0.004151309885
0.004151309877
0.004151310392
0.004151311369
0.004151313125
0.004151319183
0.00415133773
0.004151390202
0.004151529858
0.004151871511
0.004152628254
0.004154119459
0.004151310058
0.004151310245
0.004151310163
0.004151309978
0.004151310397
0.004151310292
0.00415131095
0.004151313618
0.004151322569
0.004151350543
0.004151432974
0.004151662449
0.004152242741
0.004153554851
0.00415131019
0.004151310227
0.004151309689
0.004151310087
0.004151310418
0.004151310585
0.004151311643
0.004151315622
0.004151329072
0.004151374845
0.004151517061
0.004151934727
0.00415304514
0.004155646771
0.00416079472
0.004151309958
0.004151310081
0.004151310399
0.004151310055
0.004151309828
0.004151310265
0.004151312421
0.004151318883
0.00415134209
0.004151423888
0.004151697713
0.004152552038
0.004154970728
0.004160915161
0.004172800732
0.004151310503
0.004151310386
0.00415131024
0.004151310042
0.004151310231
0.004151310988
0.004151312875
0.004151322082
0.004151357467
0.004151487654
0.004151948571
0.004153482391
0.004158131608
0.00417028806
0.004195204209
0.00415131063
0.004151310178
0.004151310289
0.004151310294
0.004151309954
0.004151310792
0.004151313272
0.004151323906
0.004151365906
0.004151524384
0.004152109115
0.004154154185
0.004160737223
0.004179143148
0.00421863223
0.004151310548
0.004151310525
0.004151310243
0.004151309857
0.004151310425
0.004151310875
0.004151313405
0.004151322776
0.004151357759
0.0041514878
0.004151948196
0.004153482512
0.004158131563
0.004170287856
0.004195202833
0.004151310596
0.004151310586
0.004151310065
0.004151310369
0.004151310783
0.004151311027
0.004151312946
0.004151319107
0.004151342285
0.004151423997
0.004151697614
0.004152552034
0.004154970616
0.004160914749
0.004172799047
0.004151310714
0.004151310532
0.004151310179
0.004151310157
0.004151310143
0.004151310824
0.004151311942
0.004151315492
0.004151329478
0.004151375052
0.004151517642
0.004151934783
0.004153045312
0.004155646609
0.00416079324
0.004151310322
0.004151310432
0.004151310337
0.004151310629
0.004151310208
0.00415131046
0.004151311165
0.004151313907
0.004151322714
0.004151351052
0.004151433827
0.004151662782
0.004152242813
0.004153555114
0.004156141389
0.004151310318
0.004151310084
0.004151310026
0.004151310125
0.00415131031
0.004151310584
0.004151311707
0.004151316039
0.0041513297
0.004151375866
0.00415151976
0.004151937185
0.004153039093
0.004155604604
0.004151310331
0.004151310699
0.004151310072
0.00415130983
0.004151310126
0.004151310772
0.004151312586
0.004151318769
0.004151341895
0.004151423511
0.004151697528
0.004152552144
0.004154970789
0.00416091698
0.004151310195
0.004151310021
0.00415131004
0.004151310259
0.004151310442
0.004151311052
0.004151313683
0.004151324791
0.004151367562
0.004151528765
0.004152113893
0.00415410163
0.004160235372
0.004176495997
0.004209964654
0.004151310272
0.00415131007
0.004151310176
0.004151309788
0.004151310536
0.004151311435
0.004151315549
0.004151331857
0.00415140031
0.004151677961
0.00415276502
0.004156808453
0.00417061263
0.004211181173
0.004300303034
0.004151310366
0.004151310228
0.004151310253
0.004151310291
0.004151310621
0.004151311292
0.004151315803
0.00415133581
0.004151419778
0.004151776078
0.004153255683
0.004159203649
0.004181672892
0.004256655825
0.004443685983
0.004151310362
0.004151310361
0.004151310252
0.004151310605
0.004151310608
0.004151311683
0.004151315446
0.004151332035
0.004151400621
0.004151678178
0.004152765249
0.00415680835
0.004170612104
0.004211178316
0.004300293362
0.004151310352
0.004151310232
0.004151310508
0.004151310669
0.004151310587
0.004151311236
0.004151314013
0.004151325342
0.004151368204
0.004151529187
0.004152113955
0.004154101338
0.00416023441
0.004176492409
0.004209953839
0.004151310253
0.004151310508
0.004151310301
0.004151310344
0.004151310274
0.004151310795
0.004151312455
0.004151318878
0.004151342719
0.004151424727
0.004151697851
0.004152551795
0.004154970358
0.004160914981
0.004172799204
0.004151310119
0.004151309838
0.004151310265
0.004151310186
0.004151310548
0.00415131075
0.004151311639
0.004151315858
0.004151329692
0.004151376192
0.00415152022
0.004151937519
0.004153039242
0.004155604141
0.004160672895
0.004151310403
0.004151310395
0.004151310351
0.004151310057
0.004151310158
0.004151310928
0.004151312185
0.004151317669
0.004151337466
0.004151406195
0.004151627717
0.004152299239
0.004154150834
0.004158610474
0.004151310143
0.004151310369
0.004151310163
0.004151310077
0.004151310057
0.004151310807
0.004151313283
0.004151322406
0.004151357678
0.004151487347
0.00415194834
0.004153482737
0.004158132553
0.004170293307
0.004151310294
0.004151310255
0.004151310141
0.00415131031
0.004151310585
0.004151311098
0.004151315178
0.004151331972
0.004151400152
0.004151677631
0.004152764945
0.004156808426
0.00417061486
0.004211193593
0.004151309695
0.00415131004
0.004151309708
0.004151310083
0.004151310824
0.004151311819
0.004151317735
0.00415134418
0.004151460821
0.004151976202
0.004154213643
0.004163629126
0.0042008468
0.00433018715
0.004661429108
0.004151309939
0.004151310085
0.004151309942
0.004151310251
0.004151310295
0.004151312332
0.004151319006
0.004151351275
0.00415150101
0.004152201374
0.004155517594
0.00417123098
0.004244421239
0.00456377981
0.005675100142
0.004151310082
0.004151310301
0.00415131054
0.004151310608
0.00415131059
0.004151312003
0.004151317964
0.004151344265
0.004151461427
0.004151976431
0.004154213146
0.004163628884
0.004200844309
0.004330170117
0.004661350358
0.004151310624
0.00415131025
0.004151310848
0.004151310433
0.004151310416
0.004151311567
0.004151315485
0.004151332268
0.004151400439
0.004151677955
0.004152764998
0.004156808699
0.004170613004
0.004211179557
0.004300294264
0.004151309942
0.004151310036
0.004151309917
0.004151310255
0.004151310163
0.004151310937
0.004151312944
0.004151322674
0.004151357814
0.00415148794
0.004151948097
0.004153482354
0.004158131707
0.004170288
0.004195202876
0.004151309742
0.004151309613
0.004151309909
0.004151310025
0.004151309968
0.004151310507
0.004151312345
0.004151317926
0.004151337799
0.004151406443
0.004151627929
0.004152299886
0.004154150616
0.004158609453
0.00416748743
0.004151310571
0.004151310322
0.004151309993
0.00415131053
0.004151310711
0.004151310877
0.004151312861
0.004151319033
0.004151341499
0.004151421733
0.004151688051
0.004152518643
0.004154883103
0.00416076038
0.004151310065
0.004151309889
0.004151310103
0.004151310281
0.004151310294
0.004151311067
0.004151313538
0.004151324019
0.004151365887
0.004151524229
0.004152108709
0.004154154107
0.004160738836
0.004179150917
0.004151309892
0.004151310031
0.004151310271
0.004151310442
0.004151310771
0.004151311491
0.004151315737
0.004151336177
0.004151419955
0.004151776085
0.00415325606
0.004159204509
0.004181679263
0.004256685731
0.004151310599
0.004151310067
0.004151309556
0.004151310166
0.004151310362
0.004151311886
0.004151318846
0.004151351349
0.004151500721
0.00415220121
0.00415551808
0.004171233499
0.004244435109
0.004563873468
0.004151310292
0.004151310021
0.004151310178
0.004151310203
0.00415131093
0.004151312323
0.004151320955
0.004151360633
0.004151557631
0.004152562892
0.004157931659
0.0041882989
0.004371913172
0.005567198351
0.01403232856
0.00415131035
0.004151309965
0.004151310457
0.004151310636
0.004151311122
0.004151311965
0.004151318945
0.004151351331
0.004151500682
0.004152202092
0.004155518326
0.004171232635
0.004244426248
0.004563797322
0.005675117739
0.004151310797
0.004151310423
0.004151310238
0.004151310364
0.004151310636
0.004151311861
0.004151316416
0.004151336334
0.004151420445
0.004151776385
0.00415325639
0.00415920417
0.004181675282
0.004256661643
0.004443691204
0.004151310171
0.00415131036
0.004151310151
0.004151310203
0.004151310184
0.004151311355
0.004151314223
0.004151324681
0.004151366288
0.004151524634
0.004152109387
0.004154154404
0.004160737398
0.004179144217
0.004218632817
0.00415130996
0.004151309834
0.004151310173
0.004151310448
0.004151310638
0.004151311027
0.004151312261
0.004151319269
0.004151342262
0.00415142201
0.004151688186
0.004152518452
0.004154882832
0.004160758108
0.004172608074
0.004151310045
0.0041513101
0.004151310002
0.004151310045
0.00415131007
0.004151310192
0.004151312051
0.004151318207
0.004151337717
0.004151406083
0.004151627827
0.004152299787
0.004154151235
0.004158611101
0.004151310194
0.004151310009
0.004151310118
0.004151310182
0.004151310396
0.004151311039
0.00415131329
0.004151322621
0.004151357066
0.004151487532
0.004151947779
0.004153482261
0.004158133153
0.00417029349
0.004151310261
0.00415131014
0.004151310554
0.00415131008
0.004151310603
0.004151311347
0.004151315294
0.004151331793
0.00415140011
0.004151677852
0.004152764851
0.004156809511
0.004170616787
0.00421119625
0.004151310185
0.00415131017
0.004151310194
0.004151310624
0.004151310794
0.004151312173
0.004151318282
0.004151344496
0.004151461301
0.004151976599
0.004154214238
0.004163631054
0.004200854415
0.004330217836
0.004151310292
0.004151310214
0.00415131021
0.004151310333
0.004151310783
0.004151312393
0.004151319307
0.004151351155
0.004151500794
0.004152201592
0.004155518163
0.0041712344
0.0042444396
0.004563886407
0.004151310403
0.004151310048
0.00415131018
0.004151310355
0.004151310562
0.004151311845
0.004151318079
0.004151344204
0.004151461274
0.004151976338
0.004154213903
0.004163630955
0.00420085223
0.00433021007
0.004151310874
0.004151310606
0.004151311029
0.004151310813
0.004151310695
0.004151312026
0.00415131569
0.004151332317
0.004151400602
0.004151678241
0.00415276534
0.004156809232
0.004170615119
0.004211188101
0.004300321281
0.004151310964
0.004151310691
0.004151310519
0.004151310764
0.00415131051
0.004151311511
0.004151313645
0.004151322596
0.004151357587
0.004151487465
0.004151948415
0.004153482757
0.004158132574
0.004170290086
0.004195207291
0.004151310627
0.004151310784
0.004151310739
0.004151310474
0.004151310597
0.004151310933
0.00415131245
0.004151318434
0.004151338158
0.004151406579
0.004151628
0.004152299712
0.004154150832
0.004158609672
0.00416748752
0.004151309797
0.004151309785
0.004151309676
0.004151309675
0.004151309526
0.00415131049
0.004151311539
0.004151315571
0.004151329847
0.004151375755
0.00415152023
0.004151937273
0.004153039504
0.004155605161
0.004151309868
0.004151309842
0.004151309529
0.004151309841
0.004151309868
0.004151310865
0.00415131232
0.004151318695
0.004151342042
0.004151424041
0.004151697646
0.00415255274
0.004154971672
0.004160917897
0.004151310054
0.004151310319
0.004151310187
0.004151309433
0.004151309996
0.004151310682
0.004151313745
0.004151324742
0.004151367054
0.004151528815
0.004152113479
0.004154101748
0.00416023732
0.004176500427
0.004151310413
0.004151310389
0.004151310207
0.004151310418
0.004151310436
0.004151311767
0.004151315328
0.004151332034
0.004151400969
0.004151678714
0.004152765595
0.004156809379
0.004170617343
0.004211196376
0.004151310079
0.004151310451
0.004151310181
0.004151310237
0.00415131058
0.00415131151
0.004151315947
0.004151336208
0.004151420596
0.004151776889
0.004153256585
0.004159205854
0.004181681548
0.004256687993
0.004151310035
0.00415131005
0.004151310731
0.004151310627
0.004151311131
0.004151311657
0.004151315701
0.004151332322
0.004151400767
0.004151678402
0.004152765419
0.004156809797
0.004170616936
0.004211194895
0.004151310715
0.004151310674
0.004151310933
0.004151310688
0.004151311052
0.004151311705
0.004151314191
0.004151324805
0.0041513674
0.004151529223
0.004152113979
0.0041541022
0.004160237176
0.004176499757
0.004151310771
0.004151311195
0.004151310782
0.004151310945
0.004151311328
0.00415131165
0.004151312938
0.004151319371
0.004151342811
0.004151424698
0.004151698495
0.004152552877
0.004154971243
0.004160916912
0.00417280391
0.004151310768
0.004151311051
0.00415131083
0.004151310624
0.004151310738
0.004151310882
0.004151312351
0.004151316505
0.004151330643
0.004151376733
0.004151520558
0.004151938067
0.004153039696
0.004155604236
0.004160674249
0.00415130935
0.004151309286
0.004151310216
0.004151309698
0.004151309911
0.004151310428
0.004151310917
0.004151313855
0.004151322798
0.004151350177
0.004151433626
0.004151662739
0.00415224362
0.004153555821
0.004151309732
0.0041513099
0.004151309522
0.004151309627
0.00415131008
0.004151310514
0.004151311516
0.004151315132
0.004151329439
0.004151374984
0.00415151727
0.004151934932
0.004153045825
0.004155648028
0.004151310236
0.004151310505
0.00415130986
0.004151310073
0.004151309849
0.004151310673
0.004151312303
0.004151318634
0.004151342182
0.004151424309
0.004151697996
0.004152552715
0.004154971815
0.004160918055
0.00415130989
0.004151310208
0.004151310284
0.004151310307
0.004151310656
0.00415131108
0.004151313293
0.004151322558
0.004151357956
0.004151487784
0.004151948627
0.004153483162
0.004158133534
0.004170294059
0.004151310239
0.004151310395
0.004151310246
0.004151310597
0.004151310655
0.004151311256
0.004151314108
0.004151324827
0.004151366111
0.004151524782
0.004152109586
0.004154155596
0.004160740024
0.004179152221
0.004151310808
0.004151310685
0.004151310584
0.004151310452
0.004151310527
0.004151311264
0.004151313815
0.004151322971
0.004151358447
0.004151488616
0.004151949121
0.004153483405
0.004158133548
0.004170293564
0.004151310916
0.004151311035
0.004151310989
0.00415131116
0.004151310788
0.004151311655
0.00415131323
0.00415131918
0.004151342415
0.004151424624
0.004151698272
0.004152552972
0.004154971858
0.004160918032
0.004151310957
0.004151310712
0.004151310738
0.004151310802
0.004151310632
0.004151311137
0.004151311923
0.004151316079
0.004151329551
0.004151374722
0.004151518101
0.004151935263
0.004153045871
0.004155648427
0.00415131068
0.004151311094
0.004151310999
0.004151310814
0.004151310703
0.00415131087
0.004151311889
0.004151314705
0.00415132372
0.004151351383
0.004151433807
0.004151663041
0.004152243433
0.004153555717
0.004156143034
0.004151309727
0.004151309945
0.004151309415
0.004151309612
0.004151309994
0.004151310278
0.004151310443
0.004151312874
0.004151318737
0.004151336988
0.004151389737
0.004151529423
0.004151871666
0.004152628705
0.004151309744
0.00415130982
0.004151309681
0.004151310034
0.004151310091
0.004151310422
0.004151311224
0.004151313724
0.004151322714
0.004151350684
0.004151433723
0.004151663085
0.004152243167
0.004153555409
0.004151310356
0.004151309866
0.004151309988
0.004151310105
0.004151309815
0.004151310395
0.004151311739
0.004151315915
0.004151330032
0.004151376281
0.004151520139
0.004151937746
0.004153040044
0.004155605879
0.004151310174
0.004151310199
0.004151309999
0.004151310068
0.004151310413
0.004151310883
0.004151312561
0.004151318244
0.004151337804
0.00415140642
0.00415162825
0.004152300348
0.004154151536
0.004158611518
0.004151310731
0.004151310686
0.004151310428
0.004151310359
0.004151310606
0.004151311198
0.004151312889
0.004151319237
0.004151342431
0.004151422007
0.004151688515
0.004152519558
0.004154883418
0.004160760804
0.004151310537
0.004151310592
0.004151310689
0.004151310739
0.00415131056
0.004151310919
0.004151312507
0.004151318389
0.004151337874
0.004151407027
0.004151628356
0.004152300368
0.004154151817
0.004158611167
0.00415131079
0.004151310911
0.004151311263
0.004151311176
0.0041513109
0.004151311207
0.004151312192
0.004151316675
0.004151330506
0.00415137689
0.004151520567
0.004151938123
0.004153040126
0.004155605146
0.004151310801
0.004151310804
0.004151310903
0.004151310964
0.004151310657
0.004151310817
0.004151312
0.004151314719
0.004151323419
0.004151351432
0.004151434195
0.004151663082
0.004152243186
0.00415355603
0.004151310909
0.0041513112
0.004151311365
0.004151311572
0.004151311277
0.004151311443
0.004151311633
0.004151313629
0.004151319997
0.004151338023
0.004151390781
0.004151530499
0.004151872222
0.004152629171
)
;

boundaryField
{
    top
    {
        type            calculated;
        value           nonuniform List<scalar> 
134
(
0.004151310073
0.004151310322
0.004151310119
0.004151309742
0.00415130996
0.004151310627
0.004151310768
0.00415131068
0.004151310909
0.004151310221
0.004151310432
0.004151309838
0.004151309613
0.004151309834
0.004151310784
0.004151311051
0.004151311094
0.0041513112
0.004151310053
0.004151310337
0.004151310265
0.004151309909
0.004151310173
0.004151310739
0.00415131083
0.004151310999
0.004151311365
0.004151309885
0.004151310629
0.004151310186
0.004151310025
0.004151310448
0.004151310474
0.004151310624
0.004151310814
0.004151311572
0.004151309877
0.004151310208
0.004151310548
0.004151309968
0.004151310638
0.004151310597
0.004151310738
0.004151310703
0.004151311277
0.004151310392
0.00415131046
0.00415131075
0.004151310507
0.004151311027
0.004151310933
0.004151310882
0.00415131087
0.004151311443
0.004151311369
0.004151311165
0.004151311639
0.004151312345
0.004151312261
0.00415131245
0.004151312351
0.004151311889
0.004151311633
0.004151313125
0.004151313907
0.004151315858
0.004151317926
0.004151319269
0.004151318434
0.004151316505
0.004151314705
0.004151313629
0.004151319183
0.004151322714
0.004151329692
0.004151337799
0.004151342262
0.004151338158
0.004151330643
0.00415132372
0.004151319997
0.00415133773
0.004151351052
0.004151376192
0.004151406443
0.00415142201
0.004151406579
0.004151376733
0.004151351383
0.004151338023
0.004151390202
0.004151433827
0.00415152022
0.004151627929
0.004151688186
0.004151628
0.004151520558
0.004151433807
0.004151390781
0.004151529858
0.004151662782
0.004151937519
0.004152299886
0.004152518452
0.004152299712
0.004151938067
0.004151663041
0.004151530499
0.004151871511
0.004152242813
0.004153039242
0.004154150616
0.004154882832
0.004154150832
0.004153039696
0.004152243433
0.004151872222
0.004152628254
0.004153555114
0.004155604141
0.004158609453
0.004160758108
0.004158609672
0.004155604236
0.004153555717
0.004152629171
0.004154119459
0.004156141389
0.004160672895
0.00416748743
0.004172608074
0.00416748752
0.004160674249
0.004156143034
)
;
    }
    bottom
    {
        type            calculated;
        value           nonuniform List<scalar> 
127
(
0.004151310131
0.004151310058
0.004151310318
0.004151310403
0.004151310571
0.004151310045
0.004151309797
0.00415130935
0.004151309727
0.004151310128
0.004151310245
0.004151310084
0.004151310395
0.004151310322
0.0041513101
0.004151309785
0.004151309286
0.004151309945
0.004151310167
0.004151310163
0.004151310026
0.004151310351
0.004151309993
0.004151310002
0.004151309676
0.004151310216
0.004151309415
0.004151310187
0.004151309978
0.004151310125
0.004151310057
0.00415131053
0.004151310045
0.004151309675
0.004151309698
0.004151309612
0.00415130982
0.004151310397
0.00415131031
0.004151310158
0.004151310711
0.00415131007
0.004151309526
0.004151309911
0.004151309994
0.004151310164
0.004151310292
0.004151310584
0.004151310928
0.004151310877
0.004151310192
0.00415131049
0.004151310428
0.004151310278
0.004151310812
0.00415131095
0.004151311707
0.004151312185
0.004151312861
0.004151312051
0.004151311539
0.004151310917
0.004151310443
0.00415131242
0.004151313618
0.004151316039
0.004151317669
0.004151319033
0.004151318207
0.004151315571
0.004151313855
0.004151312874
0.004151318854
0.004151322569
0.0041513297
0.004151337466
0.004151341499
0.004151337717
0.004151329847
0.004151322798
0.004151318737
0.004151337034
0.004151350543
0.004151375866
0.004151406195
0.004151421733
0.004151406083
0.004151375755
0.004151350177
0.004151336988
0.004151390098
0.004151432974
0.00415151976
0.004151627717
0.004151688051
0.004151627827
0.00415152023
0.004151433626
0.004151389737
0.004151529612
0.004151662449
0.004151937185
0.004152299239
0.004152518643
0.004152299787
0.004151937273
0.004151662739
0.004151529423
0.004151871383
0.004152242741
0.004153039093
0.004154150834
0.004154883103
0.004154151235
0.004153039504
0.00415224362
0.004151871666
0.004152627943
0.004153554851
0.004155604604
0.004158610474
0.00416076038
0.004158611101
0.004155605161
0.004153555821
0.004152628705
0.004154119948
)
;
    }
    side-walls
    {
        type            calculated;
        value           nonuniform List<scalar> 
261
(
0.004151310131
0.004151309916
0.004151310381
0.00415131038
0.004151310273
0.004151310225
0.004151309985
0.004151310007
0.004151310073
0.004151310128
0.004151309942
0.004151310365
0.004151310248
0.004151309987
0.004151310216
0.004151310328
0.004151310583
0.004151310221
0.004151310167
0.004151310253
0.004151309777
0.004151309783
0.004151309746
0.004151309877
0.004151310236
0.004151310237
0.004151310053
0.004151310187
0.004151310005
0.004151309778
0.004151309873
0.004151309796
0.004151310238
0.004151309867
0.004151310076
0.004151309885
0.00415130982
0.004151310246
0.004151309695
0.004151309645
0.00415131001
0.004151309896
0.004151310374
0.004151310223
0.004151309877
0.004151310164
0.004151310381
0.004151310208
0.004151310329
0.004151310405
0.004151310391
0.004151310675
0.004151310417
0.004151310392
0.004151310812
0.004151310833
0.004151311211
0.0041513124
0.004151312474
0.004151312428
0.004151312379
0.004151311503
0.004151311369
0.00415131242
0.004151313437
0.004151315628
0.004151317205
0.004151318733
0.004151317371
0.00415131594
0.004151314018
0.004151313125
0.004151318854
0.0041513226
0.004151329869
0.004151337483
0.004151341604
0.004151337358
0.004151330215
0.004151322774
0.004151319183
0.004151337034
0.00415135061
0.004151375596
0.004151405695
0.004151421791
0.004151405856
0.004151376333
0.004151350586
0.00415133773
0.004151390098
0.004151433602
0.0041515202
0.004151627737
0.004151687854
0.00415162745
0.004151520291
0.004151433707
0.004151390202
0.004151529612
0.004151662638
0.004151937573
0.004152299722
0.004152518665
0.004152299698
0.004151937621
0.004151662913
0.004151529858
0.004151871383
0.004152242693
0.004153038911
0.004154150309
0.004154882466
0.004154150958
0.004153039124
0.004152242631
0.004151871511
0.004152627943
0.004153554827
0.004155603509
0.004158608711
0.004160757645
0.004158609135
0.004155603746
0.004153554498
0.004152628254
0.004154119948
0.004156142193
0.004160673323
0.004167487429
0.0041726079
0.004167486881
0.00416067295
0.004156141212
0.004154119459
0.004151309727
0.004151309744
0.004151310356
0.004151310174
0.004151310731
0.004151310537
0.00415131079
0.004151310801
0.004151310909
0.004151309945
0.00415130982
0.004151309866
0.004151310199
0.004151310686
0.004151310592
0.004151310911
0.004151310804
0.0041513112
0.004151309415
0.004151309681
0.004151309988
0.004151309999
0.004151310428
0.004151310689
0.004151311263
0.004151310903
0.004151311365
0.004151309612
0.004151310034
0.004151310105
0.004151310068
0.004151310359
0.004151310739
0.004151311176
0.004151310964
0.004151311572
0.004151309994
0.004151310091
0.004151309815
0.004151310413
0.004151310606
0.00415131056
0.0041513109
0.004151310657
0.004151311277
0.004151310278
0.004151310422
0.004151310395
0.004151310883
0.004151311198
0.004151310919
0.004151311207
0.004151310817
0.004151311443
0.004151310443
0.004151311224
0.004151311739
0.004151312561
0.004151312889
0.004151312507
0.004151312192
0.004151312
0.004151311633
0.004151312874
0.004151313724
0.004151315915
0.004151318244
0.004151319237
0.004151318389
0.004151316675
0.004151314719
0.004151313629
0.004151318737
0.004151322714
0.004151330032
0.004151337804
0.004151342431
0.004151337874
0.004151330506
0.004151323419
0.004151319997
0.004151336988
0.004151350684
0.004151376281
0.00415140642
0.004151422007
0.004151407027
0.00415137689
0.004151351432
0.004151338023
0.004151389737
0.004151433723
0.004151520139
0.00415162825
0.004151688515
0.004151628356
0.004151520567
0.004151434195
0.004151390781
0.004151529423
0.004151663085
0.004151937746
0.004152300348
0.004152519558
0.004152300368
0.004151938123
0.004151663082
0.004151530499
0.004151871666
0.004152243167
0.004153040044
0.004154151536
0.004154883418
0.004154151817
0.004153040126
0.004152243186
0.004151872222
0.004152628705
0.004153555409
0.004155605879
0.004158611518
0.004160760804
0.004158611167
0.004155605146
0.00415355603
0.004152629171
)
;
    }
    inlet
    {
        type            calculated;
        value           nonuniform List<scalar> 
81
(
0.004151310131
0.004151309916
0.004151310381
0.00415131038
0.004151310273
0.004151310225
0.004151309985
0.004151310007
0.004151310073
0.004151310058
0.00415131019
0.004151309958
0.004151310503
0.00415131063
0.004151310548
0.004151310596
0.004151310714
0.004151310322
0.004151310318
0.004151310331
0.004151310195
0.004151310272
0.004151310366
0.004151310362
0.004151310352
0.004151310253
0.004151310119
0.004151310403
0.004151310143
0.004151310294
0.004151309695
0.004151309939
0.004151310082
0.004151310624
0.004151309942
0.004151309742
0.004151310571
0.004151310065
0.004151309892
0.004151310599
0.004151310292
0.00415131035
0.004151310797
0.004151310171
0.00415130996
0.004151310045
0.004151310194
0.004151310261
0.004151310185
0.004151310292
0.004151310403
0.004151310874
0.004151310964
0.004151310627
0.004151309797
0.004151309868
0.004151310054
0.004151310413
0.004151310079
0.004151310035
0.004151310715
0.004151310771
0.004151310768
0.00415130935
0.004151309732
0.004151310236
0.00415130989
0.004151310239
0.004151310808
0.004151310916
0.004151310957
0.00415131068
0.004151309727
0.004151309744
0.004151310356
0.004151310174
0.004151310731
0.004151310537
0.00415131079
0.004151310801
0.004151310909
)
;
    }
    outlet
    {
        type            calculated;
        value           nonuniform 0();
    }
    procBoundary0to1
    {
        type            processor;
        value           nonuniform List<scalar> 
97
(
0.004156719746
0.004156141846
0.004160523654
0.004168932794
0.004181270996
0.004190093465
0.004181270259
0.004168932874
0.004160523085
0.004156719419
0.004156141846
0.004156141846
0.004169110915
0.004172803694
0.004190737806
0.004229224482
0.004265597041
0.004229222493
0.004190736168
0.004169109761
0.004160522937
0.004160673813
0.004172803694
0.004172803694
0.004254708331
0.004300326326
0.004397180447
0.004584099704
0.004397172643
0.004254701937
0.004190736264
0.004168933177
0.004167488466
0.004195209232
0.004300326326
0.004300326326
0.004886307306
0.005675397849
0.005848187931
0.004886275277
0.004397173565
0.004229223493
0.004181270675
0.004172610304
0.004218640533
0.004443730931
0.005675397849
0.005675397849
0.01001174366
0.005675390799
0.005848190455
0.004661429686
0.004584103631
0.004265597686
0.004190093974
0.004167488512
0.004195208091
0.004300312084
0.004661419163
0.005675390799
0.004661429686
0.004661429686
0.004397181599
0.004209965405
0.004229226571
0.004181271468
0.004160673975
0.004172801018
0.004209960504
0.004300312189
0.004443730944
0.004300311427
0.004209965405
0.004209965405
0.00419073853
0.004160795398
0.004168933982
0.004156142231
0.004160794086
0.004172801327
0.004195207803
0.00421864104
0.0041952075
0.004172802033
0.004160795398
0.004160795398
0.004160523959
0.00415412078
0.004154119589
0.004156142205
0.004160674235
0.004167488582
0.004172610126
0.004167488209
0.004160673864
0.004156142651
0.00415412078
)
;
    }
}


// ************************************************************************* //
