/*--------------------------------*- C++ -*----------------------------------*\
| =========                 |                                                 |
| \\      /  F ield         | OpenFOAM: The Open Source CFD Toolbox           |
|  \\    /   O peration     | Version:  4.x                                   |
|   \\  /    A nd           | Web:      www.OpenFOAM.org                      |
|    \\/     M anipulation  |                                                 |
\*---------------------------------------------------------------------------*/
FoamFile
{
    version     2.0;
    format      ascii;
    class       volScalarField;
    location    "2000";
    object      X_CO;
}
// * * * * * * * * * * * * * * * * * * * * * * * * * * * * * * * * * * * * * //

dimensions      [0 0 0 0 0 0 0];

internalField   nonuniform List<scalar> 
1175
(
0.3728740617
0.3728740617
0.3728740616
0.3728740616
0.3728740617
0.3728740615
0.3728740609
0.3728740591
0.3728740528
0.3728740345
0.3728739818
0.3728738422
0.3728735005
0.3728727445
0.372871254
0.3728740617
0.3728740617
0.3728740616
0.3728740617
0.3728740616
0.3728740614
0.3728740607
0.372874058
0.372874049
0.3728740211
0.3728739383
0.3728737092
0.3728731294
0.3728718182
0.3728692331
0.3728740616
0.3728740616
0.3728740618
0.3728740618
0.3728740618
0.3728740614
0.3728740603
0.372874056
0.3728740419
0.3728739959
0.3728738517
0.3728734344
0.3728723335
0.3728697703
0.3728647042
0.3728740616
0.3728740616
0.3728740618
0.3728740617
0.3728740618
0.3728740612
0.3728740595
0.3728740542
0.3728740341
0.3728739658
0.3728737441
0.3728730724
0.3728712225
0.3728667662
0.3728578933
0.3728740616
0.3728740617
0.3728740618
0.3728740618
0.3728740616
0.3728740612
0.3728740593
0.372874053
0.3728740301
0.37287395
0.3728736838
0.3728728535
0.3728704907
0.372864618
0.3728527742
0.3728740616
0.3728740616
0.3728740617
0.3728740616
0.3728740617
0.3728740612
0.3728740595
0.3728740541
0.3728740341
0.3728739658
0.3728737442
0.3728730725
0.3728712223
0.372866766
0.3728578935
0.3728740617
0.3728740616
0.3728740616
0.3728740617
0.3728740615
0.3728740612
0.3728740598
0.3728740559
0.3728740418
0.3728739956
0.3728738517
0.3728734344
0.3728723334
0.3728697703
0.3728647045
0.3728740617
0.3728740615
0.3728740616
0.3728740617
0.3728740616
0.3728740614
0.3728740605
0.3728740578
0.372874049
0.3728740211
0.3728739382
0.3728737091
0.3728731294
0.3728718183
0.3728692335
0.3728740617
0.3728740616
0.3728740617
0.3728740617
0.3728740617
0.3728740614
0.3728740607
0.3728740588
0.3728740527
0.3728740342
0.3728739817
0.3728738421
0.3728735005
0.3728727444
0.3728712542
0.3728740617
0.3728740616
0.3728740616
0.3728740617
0.3728740615
0.3728740614
0.3728740607
0.372874058
0.3728740491
0.3728740211
0.3728739385
0.3728737093
0.3728731294
0.3728718181
0.3728740616
0.3728740616
0.3728740618
0.3728740617
0.3728740615
0.3728740612
0.3728740601
0.3728740562
0.3728740425
0.372873997
0.3728738545
0.3728734373
0.3728723273
0.3728697272
0.3728645834
0.3728740617
0.3728740617
0.3728740616
0.3728740617
0.3728740617
0.3728740612
0.3728740594
0.3728740529
0.3728740297
0.3728739478
0.3728736741
0.3728728201
0.3728704027
0.372864461
0.3728525827
0.3728740615
0.3728740616
0.3728740616
0.3728740617
0.3728740615
0.3728740608
0.3728740587
0.3728740494
0.3728740142
0.3728738843
0.3728734237
0.3728718902
0.3728672426
0.3728550907
0.3728301871
0.3728740615
0.3728740616
0.3728740616
0.3728740616
0.3728740616
0.3728740609
0.3728740583
0.3728740476
0.3728740059
0.3728738474
0.3728732629
0.3728712184
0.3728646377
0.3728462374
0.372806764
0.3728740615
0.3728740615
0.3728740616
0.3728740617
0.3728740614
0.3728740609
0.3728740585
0.3728740492
0.3728740141
0.3728738842
0.3728734238
0.3728718902
0.3728672427
0.372855091
0.3728301879
0.3728740615
0.3728740615
0.3728740617
0.3728740615
0.3728740613
0.3728740609
0.3728740592
0.3728740528
0.3728740296
0.3728739478
0.3728736742
0.3728728201
0.3728704027
0.3728644613
0.3728525836
0.3728740614
0.3728740615
0.3728740616
0.3728740616
0.3728740616
0.3728740611
0.37287406
0.3728740562
0.3728740424
0.3728739969
0.3728738543
0.3728734373
0.3728723273
0.3728697274
0.3728645842
0.3728740616
0.3728740615
0.3728740616
0.3728740615
0.3728740616
0.3728740613
0.3728740606
0.3728740579
0.372874049
0.372874021
0.3728739382
0.3728737092
0.3728731294
0.3728718181
0.3728692334
0.3728740616
0.3728740617
0.3728740617
0.3728740616
0.3728740615
0.3728740612
0.3728740601
0.3728740559
0.372874042
0.3728739958
0.3728738519
0.3728734346
0.3728723334
0.3728697698
0.3728740616
0.3728740614
0.3728740617
0.3728740617
0.3728740616
0.372874061
0.3728740593
0.372874053
0.3728740297
0.372873948
0.3728736742
0.3728728201
0.3728704026
0.3728644601
0.3728740616
0.3728740617
0.3728740617
0.3728740616
0.3728740614
0.3728740607
0.372874058
0.372874047
0.3728740043
0.372873843
0.3728732583
0.3728712713
0.3728651397
0.3728488862
0.3728154367
0.3728740616
0.3728740617
0.3728740616
0.3728740617
0.3728740613
0.3728740604
0.3728740564
0.3728740399
0.3728739714
0.3728736939
0.3728726073
0.372868565
0.3728547645
0.3728142084
0.3727251215
0.3728740616
0.3728740616
0.3728740616
0.3728740616
0.3728740613
0.3728740603
0.3728740558
0.3728740359
0.3728739518
0.3728735957
0.3728721163
0.3728661699
0.3728437053
0.3727687381
0.3725817556
0.3728740616
0.3728740616
0.3728740616
0.3728740614
0.3728740613
0.3728740603
0.3728740564
0.3728740398
0.3728739712
0.3728736939
0.3728726072
0.3728685651
0.3728547648
0.37281421
0.3727251268
0.3728740616
0.3728740616
0.3728740615
0.3728740614
0.3728740613
0.3728740607
0.3728740579
0.3728740468
0.3728740041
0.3728738428
0.3728732583
0.3728712715
0.3728651401
0.3728488881
0.3728154423
0.3728740616
0.3728740615
0.3728740616
0.3728740616
0.3728740615
0.372874061
0.3728740593
0.3728740529
0.3728740294
0.3728739475
0.3728736741
0.3728728202
0.3728704028
0.3728644612
0.3728525835
0.3728740617
0.3728740618
0.3728740616
0.3728740616
0.3728740614
0.3728740612
0.3728740601
0.372874056
0.372874042
0.3728739956
0.3728738517
0.3728734345
0.3728723334
0.3728697701
0.3728647045
0.3728740616
0.3728740616
0.3728740616
0.3728740617
0.3728740616
0.372874061
0.3728740596
0.372874054
0.3728740341
0.3728739656
0.3728737441
0.3728730726
0.3728712222
0.3728667653
0.3728740617
0.3728740616
0.3728740616
0.3728740616
0.3728740616
0.3728740609
0.3728740585
0.3728740493
0.3728740142
0.3728738844
0.3728734238
0.3728718901
0.3728672421
0.3728550883
0.3728740616
0.3728740616
0.3728740616
0.3728740615
0.3728740613
0.3728740605
0.3728740565
0.3728740398
0.3728739714
0.3728736941
0.3728726073
0.3728685649
0.3728547634
0.3728142024
0.3728740618
0.3728740617
0.3728740618
0.3728740616
0.3728740612
0.3728740599
0.372874054
0.3728740276
0.3728739109
0.3728733957
0.372871159
0.3728617457
0.3728245368
0.3726952295
0.3723640968
0.3728740617
0.3728740617
0.3728740617
0.3728740616
0.3728740613
0.3728740596
0.3728740527
0.3728740205
0.3728738711
0.3728731707
0.3728698552
0.3728541444
0.3727809646
0.3724616459
0.3713504683
0.3728740617
0.3728740616
0.3728740615
0.3728740614
0.3728740612
0.3728740599
0.3728740539
0.3728740276
0.3728739106
0.3728733957
0.3728711592
0.3728617459
0.3728245383
0.3726952387
0.3723641374
0.3728740615
0.3728740616
0.3728740614
0.3728740615
0.3728740614
0.3728740603
0.3728740564
0.3728740397
0.3728739713
0.3728736939
0.3728726073
0.3728685649
0.3728547644
0.3728142093
0.372725126
0.3728740617
0.3728740617
0.3728740617
0.3728740616
0.3728740615
0.3728740609
0.3728740586
0.3728740492
0.3728740141
0.3728738842
0.3728734238
0.3728718902
0.3728672426
0.3728550908
0.3728301877
0.3728740618
0.3728740619
0.3728740617
0.3728740617
0.3728740616
0.3728740612
0.3728740595
0.3728740539
0.372874034
0.3728739655
0.372873744
0.3728730724
0.3728712224
0.3728667659
0.3728578933
0.3728740615
0.3728740616
0.3728740617
0.3728740615
0.3728740613
0.372874061
0.3728740592
0.3728740529
0.3728740301
0.37287395
0.3728736838
0.3728728535
0.3728704904
0.3728646167
0.3728740617
0.3728740617
0.3728740617
0.3728740616
0.3728740615
0.3728740608
0.3728740582
0.3728740476
0.3728740059
0.3728738474
0.372873263
0.3728712184
0.3728646368
0.3728462337
0.3728740617
0.3728740617
0.3728740616
0.3728740615
0.3728740612
0.3728740603
0.3728740558
0.3728740358
0.3728739518
0.3728735957
0.3728721162
0.3728661695
0.3728437022
0.3727687239
0.3728740615
0.3728740617
0.3728740619
0.3728740616
0.3728740613
0.3728740598
0.3728740528
0.3728740205
0.3728738712
0.3728731707
0.372869855
0.3728541432
0.3727809577
0.3724615993
0.3728740616
0.3728740617
0.3728740616
0.3728740616
0.372874061
0.3728740594
0.3728740509
0.3728740111
0.3728738141
0.3728728094
0.3728674414
0.3728370784
0.3726534828
0.3714582774
0.3629934985
0.3728740616
0.3728740617
0.3728740615
0.3728740614
0.372874061
0.3728740597
0.3728740527
0.3728740205
0.3728738712
0.3728731704
0.3728698549
0.3728541436
0.3727809623
0.3724616379
0.3713504587
0.3728740614
0.3728740615
0.3728740616
0.3728740615
0.3728740613
0.3728740601
0.3728740556
0.3728740358
0.3728739516
0.3728735956
0.3728721161
0.3728661697
0.3728437042
0.3727687353
0.3725817526
0.3728740616
0.3728740616
0.3728740616
0.3728740616
0.3728740615
0.3728740606
0.3728740579
0.3728740473
0.3728740058
0.3728738473
0.3728732627
0.3728712183
0.3728646375
0.3728462368
0.3728067635
0.3728740617
0.3728740618
0.3728740616
0.3728740615
0.3728740614
0.3728740609
0.3728740594
0.3728740528
0.3728740298
0.3728739499
0.3728736837
0.3728728536
0.3728704906
0.3728646178
0.3728527741
0.3728740617
0.3728740617
0.3728740617
0.3728740617
0.3728740616
0.3728740613
0.3728740596
0.3728740538
0.372874034
0.3728739657
0.372873744
0.3728730724
0.3728712221
0.3728667651
0.3728740616
0.3728740617
0.3728740617
0.3728740616
0.3728740614
0.3728740608
0.3728740585
0.3728740492
0.3728740144
0.3728738843
0.372873424
0.3728718902
0.3728672419
0.3728550883
0.3728740616
0.3728740617
0.3728740615
0.3728740616
0.3728740613
0.3728740604
0.3728740565
0.3728740399
0.3728739714
0.372873694
0.3728726073
0.3728685645
0.3728547626
0.3728142016
0.3728740616
0.3728740616
0.3728740616
0.3728740614
0.3728740612
0.3728740598
0.3728740538
0.3728740275
0.3728739107
0.3728733956
0.3728711588
0.3728617448
0.3728245335
0.3726952161
0.3728740616
0.3728740616
0.3728740616
0.3728740615
0.3728740611
0.3728740596
0.3728740526
0.3728740205
0.3728738711
0.3728731706
0.3728698549
0.3728541428
0.3727809559
0.3724615944
0.3728740616
0.3728740617
0.3728740616
0.3728740615
0.3728740612
0.3728740599
0.3728740539
0.3728740276
0.3728739107
0.3728733957
0.3728711589
0.3728617449
0.3728245344
0.3726952192
0.3728740614
0.3728740615
0.3728740613
0.3728740614
0.3728740613
0.3728740602
0.3728740563
0.3728740397
0.3728739712
0.3728736938
0.3728726071
0.3728685646
0.3728547633
0.3728142052
0.372725113
0.3728740613
0.3728740614
0.3728740615
0.3728740614
0.3728740614
0.3728740606
0.3728740584
0.3728740493
0.3728740142
0.3728738843
0.3728734237
0.3728718901
0.3728672422
0.3728550898
0.3728301855
0.3728740615
0.3728740614
0.3728740614
0.3728740615
0.3728740614
0.372874061
0.3728740595
0.3728740537
0.3728740338
0.3728739655
0.372873744
0.3728730724
0.3728712223
0.3728667658
0.3728578931
0.3728740618
0.3728740618
0.3728740618
0.3728740618
0.3728740618
0.3728740613
0.3728740601
0.3728740561
0.3728740419
0.3728739958
0.3728738517
0.3728734345
0.3728723332
0.3728697696
0.3728740618
0.3728740618
0.3728740619
0.3728740617
0.3728740617
0.372874061
0.3728740594
0.372874053
0.3728740297
0.3728739478
0.3728736742
0.3728728198
0.3728704022
0.3728644599
0.3728740617
0.3728740616
0.3728740616
0.3728740619
0.3728740616
0.3728740609
0.372874058
0.372874047
0.3728740045
0.372873843
0.3728732584
0.3728712712
0.3728651388
0.3728488844
0.3728740616
0.3728740616
0.3728740616
0.3728740615
0.3728740614
0.3728740603
0.3728740564
0.3728740398
0.3728739711
0.3728736936
0.372872607
0.3728685645
0.3728547623
0.3728142016
0.3728740617
0.3728740615
0.3728740616
0.3728740616
0.3728740613
0.3728740603
0.3728740557
0.3728740358
0.3728739515
0.3728735954
0.372872116
0.3728661689
0.3728437013
0.3727687231
0.3728740617
0.3728740617
0.3728740614
0.3728740614
0.3728740611
0.3728740603
0.3728740563
0.3728740397
0.3728739712
0.3728736938
0.3728726071
0.3728685644
0.3728547625
0.3728142022
0.3728740614
0.3728740615
0.3728740613
0.3728740614
0.3728740612
0.3728740605
0.3728740578
0.372874047
0.3728740044
0.3728738428
0.3728732582
0.3728712711
0.3728651389
0.3728488845
0.3728740614
0.3728740613
0.3728740614
0.3728740613
0.3728740611
0.3728740607
0.3728740592
0.3728740527
0.3728740294
0.3728739475
0.3728736738
0.3728728198
0.3728704024
0.3728644603
0.3728525812
0.3728740614
0.3728740613
0.3728740614
0.3728740615
0.3728740614
0.3728740611
0.3728740598
0.3728740557
0.3728740416
0.3728739954
0.3728738516
0.3728734343
0.3728723332
0.37286977
0.3728647038
0.372874062
0.372874062
0.3728740616
0.3728740618
0.3728740617
0.3728740614
0.3728740607
0.3728740579
0.372874049
0.3728740213
0.3728739383
0.3728737092
0.3728731291
0.3728718178
0.3728740618
0.3728740617
0.3728740619
0.3728740618
0.3728740616
0.3728740613
0.3728740602
0.3728740563
0.3728740424
0.3728739969
0.3728738544
0.3728734372
0.3728723271
0.3728697267
0.3728740616
0.3728740615
0.3728740618
0.3728740617
0.3728740617
0.3728740611
0.3728740594
0.372874053
0.3728740296
0.3728739477
0.372873674
0.3728728199
0.3728704022
0.3728644598
0.3728740617
0.3728740616
0.3728740616
0.3728740616
0.3728740613
0.3728740608
0.3728740585
0.3728740493
0.3728740141
0.3728738842
0.3728734236
0.3728718899
0.3728672417
0.3728550881
0.3728740616
0.3728740616
0.3728740616
0.3728740615
0.3728740613
0.3728740607
0.3728740579
0.3728740473
0.3728740058
0.3728738472
0.3728732627
0.3728712178
0.3728646363
0.3728462332
0.3728740614
0.3728740614
0.3728740615
0.3728740615
0.3728740614
0.3728740607
0.3728740583
0.3728740491
0.3728740139
0.3728738839
0.3728734235
0.3728718898
0.3728672417
0.3728550883
0.3728740614
0.3728740613
0.3728740613
0.3728740612
0.3728740613
0.3728740607
0.3728740591
0.3728740528
0.3728740295
0.3728739476
0.3728736739
0.3728728198
0.3728704022
0.3728644598
0.3728740613
0.3728740614
0.3728740614
0.3728740614
0.3728740614
0.372874061
0.37287406
0.372874056
0.3728740424
0.372873997
0.3728738541
0.3728734371
0.372872327
0.3728697265
0.3728740615
0.3728740613
0.3728740613
0.3728740614
0.3728740614
0.3728740612
0.3728740603
0.3728740576
0.3728740486
0.3728740208
0.3728739382
0.3728737091
0.3728731291
0.3728718178
0.3728692327
0.3728740618
0.3728740617
0.3728740619
0.3728740618
0.3728740617
0.3728740615
0.372874061
0.3728740589
0.3728740529
0.3728740345
0.3728739819
0.3728738422
0.3728735004
0.3728727442
0.3728740618
0.3728740618
0.3728740618
0.3728740617
0.3728740616
0.3728740614
0.3728740606
0.3728740579
0.372874049
0.3728740211
0.3728739382
0.372873709
0.3728731292
0.3728718179
0.3728740616
0.3728740618
0.3728740617
0.3728740617
0.3728740617
0.3728740613
0.3728740601
0.3728740559
0.3728740418
0.3728739956
0.3728738517
0.3728734344
0.372872333
0.3728697693
0.3728740616
0.3728740616
0.3728740617
0.3728740617
0.3728740615
0.372874061
0.3728740594
0.3728740538
0.372874034
0.3728739655
0.3728737439
0.3728730722
0.372871222
0.372866765
0.3728740614
0.3728740614
0.3728740615
0.3728740615
0.3728740614
0.3728740609
0.3728740592
0.3728740528
0.3728740298
0.3728739499
0.3728736836
0.3728728532
0.3728704903
0.3728646166
0.3728740615
0.3728740615
0.3728740614
0.3728740614
0.3728740614
0.372874061
0.3728740595
0.3728740537
0.3728740339
0.3728739653
0.3728737438
0.3728730722
0.3728712219
0.3728667651
0.3728740614
0.3728740614
0.3728740612
0.3728740612
0.3728740613
0.372874061
0.3728740599
0.3728740556
0.3728740417
0.3728739954
0.3728738516
0.3728734342
0.372872333
0.3728697696
0.3728740614
0.3728740614
0.3728740614
0.3728740613
0.3728740614
0.3728740612
0.3728740603
0.3728740576
0.3728740487
0.3728740208
0.372873938
0.372873709
0.3728731292
0.3728718177
0.3728740614
0.3728740613
0.3728740612
0.3728740611
0.3728740612
0.372874061
0.3728740606
0.3728740586
0.3728740524
0.3728740341
0.3728739815
0.3728738418
0.3728735002
0.372872744
)
;

boundaryField
{
    top
    {
        type            calculated;
        value           nonuniform List<scalar> 
134
(
0.3728740617
0.3728740616
0.3728740617
0.3728740618
0.3728740617
0.3728740615
0.3728740614
0.3728740615
0.3728740614
0.3728740616
0.3728740615
0.3728740618
0.3728740619
0.3728740618
0.3728740614
0.3728740613
0.3728740613
0.3728740613
0.3728740617
0.3728740616
0.3728740616
0.3728740617
0.3728740616
0.3728740614
0.3728740614
0.3728740613
0.3728740612
0.3728740617
0.3728740615
0.3728740616
0.3728740617
0.3728740615
0.3728740615
0.3728740615
0.3728740614
0.3728740611
0.3728740617
0.3728740616
0.3728740614
0.3728740616
0.3728740614
0.3728740614
0.3728740614
0.3728740614
0.3728740612
0.3728740614
0.3728740613
0.3728740612
0.3728740612
0.3728740609
0.372874061
0.3728740611
0.3728740612
0.372874061
0.3728740607
0.3728740606
0.3728740601
0.3728740595
0.3728740594
0.3728740595
0.3728740598
0.3728740603
0.3728740606
0.3728740588
0.3728740579
0.372874056
0.3728740539
0.3728740528
0.3728740537
0.3728740557
0.3728740576
0.3728740586
0.3728740527
0.372874049
0.372874042
0.372874034
0.3728740298
0.3728740338
0.3728740416
0.3728740486
0.3728740524
0.3728740342
0.372874021
0.3728739956
0.3728739655
0.3728739499
0.3728739655
0.3728739954
0.3728740208
0.3728740341
0.3728739817
0.3728739382
0.3728738517
0.372873744
0.3728736837
0.372873744
0.3728738516
0.3728739382
0.3728739815
0.3728738421
0.3728737092
0.3728734345
0.3728730724
0.3728728536
0.3728730724
0.3728734343
0.3728737091
0.3728738418
0.3728735005
0.3728731294
0.3728723334
0.3728712224
0.3728704906
0.3728712223
0.3728723332
0.3728731291
0.3728735002
0.3728727444
0.3728718181
0.3728697701
0.3728667659
0.3728646178
0.3728667658
0.37286977
0.3728718178
0.372872744
0.3728712542
0.3728692334
0.3728647045
0.3728578933
0.3728527741
0.3728578931
0.3728647038
0.3728692327
)
;
    }
    bottom
    {
        type            calculated;
        value           nonuniform List<scalar> 
127
(
0.3728740617
0.3728740617
0.3728740616
0.3728740616
0.3728740615
0.3728740617
0.3728740618
0.372874062
0.3728740618
0.3728740617
0.3728740616
0.3728740617
0.3728740616
0.3728740616
0.3728740617
0.3728740618
0.372874062
0.3728740617
0.3728740616
0.3728740616
0.3728740617
0.3728740616
0.3728740617
0.3728740617
0.3728740618
0.3728740616
0.3728740619
0.3728740616
0.3728740617
0.3728740616
0.3728740617
0.3728740615
0.3728740617
0.3728740618
0.3728740618
0.3728740618
0.3728740617
0.3728740615
0.3728740615
0.3728740616
0.3728740613
0.3728740616
0.3728740618
0.3728740617
0.3728740617
0.3728740615
0.3728740614
0.3728740612
0.372874061
0.372874061
0.3728740613
0.3728740613
0.3728740614
0.3728740615
0.3728740609
0.3728740607
0.3728740601
0.3728740596
0.3728740592
0.3728740596
0.3728740601
0.3728740607
0.372874061
0.3728740591
0.372874058
0.3728740559
0.372874054
0.3728740529
0.3728740538
0.3728740561
0.3728740579
0.3728740589
0.3728740528
0.3728740491
0.372874042
0.3728740341
0.3728740301
0.372874034
0.3728740419
0.372874049
0.3728740529
0.3728740345
0.3728740211
0.3728739958
0.3728739656
0.37287395
0.3728739657
0.3728739958
0.3728740213
0.3728740345
0.3728739818
0.3728739385
0.3728738519
0.3728737441
0.3728736838
0.372873744
0.3728738517
0.3728739383
0.3728739819
0.3728738422
0.3728737093
0.3728734346
0.3728730726
0.3728728535
0.3728730724
0.3728734345
0.3728737092
0.3728738422
0.3728735005
0.3728731294
0.3728723334
0.3728712222
0.3728704904
0.3728712221
0.3728723332
0.3728731291
0.3728735004
0.3728727445
0.3728718181
0.3728697698
0.3728667653
0.3728646167
0.3728667651
0.3728697696
0.3728718178
0.3728727442
0.372871254
)
;
    }
    side-walls
    {
        type            calculated;
        value           nonuniform List<scalar> 
261
(
0.3728740617
0.3728740617
0.3728740616
0.3728740616
0.3728740616
0.3728740616
0.3728740617
0.3728740617
0.3728740617
0.3728740617
0.3728740617
0.3728740616
0.3728740616
0.3728740617
0.3728740616
0.3728740616
0.3728740615
0.3728740616
0.3728740616
0.3728740616
0.3728740618
0.3728740618
0.3728740618
0.3728740617
0.3728740616
0.3728740616
0.3728740617
0.3728740616
0.3728740617
0.3728740618
0.3728740617
0.3728740618
0.3728740616
0.3728740617
0.3728740617
0.3728740617
0.3728740617
0.3728740616
0.3728740618
0.3728740618
0.3728740616
0.3728740617
0.3728740615
0.3728740616
0.3728740617
0.3728740615
0.3728740614
0.3728740614
0.3728740612
0.3728740612
0.3728740612
0.3728740612
0.3728740614
0.3728740614
0.3728740609
0.3728740607
0.3728740603
0.3728740595
0.3728740593
0.3728740595
0.3728740598
0.3728740605
0.3728740607
0.3728740591
0.372874058
0.372874056
0.3728740542
0.372874053
0.3728740541
0.3728740559
0.3728740578
0.3728740588
0.3728740528
0.372874049
0.3728740419
0.3728740341
0.3728740301
0.3728740341
0.3728740418
0.372874049
0.3728740527
0.3728740345
0.3728740211
0.3728739959
0.3728739658
0.37287395
0.3728739658
0.3728739956
0.3728740211
0.3728740342
0.3728739818
0.3728739383
0.3728738517
0.3728737441
0.3728736838
0.3728737442
0.3728738517
0.3728739382
0.3728739817
0.3728738422
0.3728737092
0.3728734344
0.3728730724
0.3728728535
0.3728730725
0.3728734344
0.3728737091
0.3728738421
0.3728735005
0.3728731294
0.3728723335
0.3728712225
0.3728704907
0.3728712223
0.3728723334
0.3728731294
0.3728735005
0.3728727445
0.3728718182
0.3728697703
0.3728667662
0.372864618
0.372866766
0.3728697703
0.3728718183
0.3728727444
0.372871254
0.3728692331
0.3728647042
0.3728578933
0.3728527742
0.3728578935
0.3728647045
0.3728692335
0.3728712542
0.3728740618
0.3728740618
0.3728740616
0.3728740616
0.3728740614
0.3728740615
0.3728740614
0.3728740614
0.3728740614
0.3728740617
0.3728740618
0.3728740618
0.3728740616
0.3728740614
0.3728740615
0.3728740614
0.3728740614
0.3728740613
0.3728740619
0.3728740618
0.3728740617
0.3728740617
0.3728740615
0.3728740614
0.3728740612
0.3728740614
0.3728740612
0.3728740618
0.3728740617
0.3728740617
0.3728740617
0.3728740615
0.3728740614
0.3728740612
0.3728740613
0.3728740611
0.3728740617
0.3728740616
0.3728740617
0.3728740615
0.3728740614
0.3728740614
0.3728740613
0.3728740614
0.3728740612
0.3728740615
0.3728740614
0.3728740613
0.372874061
0.3728740609
0.372874061
0.372874061
0.3728740612
0.372874061
0.372874061
0.3728740606
0.3728740601
0.3728740594
0.3728740592
0.3728740595
0.3728740599
0.3728740603
0.3728740606
0.3728740589
0.3728740579
0.3728740559
0.3728740538
0.3728740528
0.3728740537
0.3728740556
0.3728740576
0.3728740586
0.3728740529
0.372874049
0.3728740418
0.372874034
0.3728740298
0.3728740339
0.3728740417
0.3728740487
0.3728740524
0.3728740345
0.3728740211
0.3728739956
0.3728739655
0.3728739499
0.3728739653
0.3728739954
0.3728740208
0.3728740341
0.3728739819
0.3728739382
0.3728738517
0.3728737439
0.3728736836
0.3728737438
0.3728738516
0.372873938
0.3728739815
0.3728738422
0.372873709
0.3728734344
0.3728730722
0.3728728532
0.3728730722
0.3728734342
0.372873709
0.3728738418
0.3728735004
0.3728731292
0.372872333
0.372871222
0.3728704903
0.3728712219
0.372872333
0.3728731292
0.3728735002
0.3728727442
0.3728718179
0.3728697693
0.372866765
0.3728646166
0.3728667651
0.3728697696
0.3728718177
0.372872744
)
;
    }
    inlet
    {
        type            calculated;
        value           nonuniform List<scalar> 
81
(
0.3728740617
0.3728740617
0.3728740616
0.3728740616
0.3728740616
0.3728740616
0.3728740617
0.3728740617
0.3728740617
0.3728740617
0.3728740616
0.3728740617
0.3728740615
0.3728740615
0.3728740615
0.3728740615
0.3728740614
0.3728740616
0.3728740616
0.3728740616
0.3728740616
0.3728740616
0.3728740616
0.3728740616
0.3728740616
0.3728740616
0.3728740617
0.3728740616
0.3728740617
0.3728740616
0.3728740618
0.3728740617
0.3728740617
0.3728740615
0.3728740617
0.3728740618
0.3728740615
0.3728740617
0.3728740617
0.3728740615
0.3728740616
0.3728740616
0.3728740614
0.3728740616
0.3728740617
0.3728740617
0.3728740616
0.3728740616
0.3728740616
0.3728740616
0.3728740616
0.3728740614
0.3728740613
0.3728740615
0.3728740618
0.3728740618
0.3728740617
0.3728740616
0.3728740617
0.3728740617
0.3728740614
0.3728740614
0.3728740614
0.372874062
0.3728740618
0.3728740616
0.3728740617
0.3728740616
0.3728740614
0.3728740614
0.3728740613
0.3728740615
0.3728740618
0.3728740618
0.3728740616
0.3728740616
0.3728740614
0.3728740615
0.3728740614
0.3728740614
0.3728740614
)
;
    }
    outlet
    {
        type            calculated;
        value           nonuniform 0();
    }
    procBoundary0to1
    {
        type            processor;
        value           nonuniform List<scalar> 
97
(
0.3728686561
0.3728692331
0.3728648546
0.3728564497
0.372844118
0.3728352989
0.3728441184
0.3728564498
0.372864855
0.3728686563
0.3728692331
0.3728692331
0.3728562724
0.3728525812
0.372834656
0.372796185
0.3727598236
0.3727961861
0.372834657
0.3728562731
0.372864855
0.3728647039
0.3728525812
0.3728525812
0.3727707138
0.3727251103
0.3726282908
0.3724414163
0.3726282953
0.3727707177
0.3728346569
0.3728564497
0.3728578927
0.3728301845
0.3727251103
0.3727251103
0.372139312
0.3713503458
0.3711776253
0.372139331
0.3726282946
0.3727961856
0.3728441182
0.3728527731
0.3728067601
0.3725817358
0.3713503458
0.3713503458
0.3670148503
0.3713503499
0.371177624
0.3723641026
0.3724414143
0.3727598232
0.3728352987
0.3728578927
0.3728301854
0.3727251181
0.372364108
0.3713503499
0.3723641026
0.3723641026
0.37262829
0.3728154365
0.372796184
0.3728441178
0.372864704
0.3728525827
0.3728154392
0.3727251181
0.3725817364
0.3727251186
0.3728154365
0.3728154365
0.3728346556
0.3728645831
0.3728564492
0.3728692331
0.3728645838
0.3728525826
0.3728301855
0.3728067601
0.3728301857
0.3728525822
0.3728645831
0.3728645831
0.3728648545
0.3728712536
0.3728712541
0.3728692331
0.3728647039
0.3728578928
0.3728527732
0.3728578929
0.372864704
0.3728692329
0.3728712536
)
;
    }
}


// ************************************************************************* //
