FoamFile
{
    version     2.0;
    format      ascii;
    class       Cloud<passiveParticle>;
    location    0;
    object      positions;
}
1
(
( 0.75 0.25 0.25 ) 604 
)
