/*--------------------------------*- C++ -*----------------------------------*\
| =========                 |                                                 |
| \\      /  F ield         | OpenFOAM: The Open Source CFD Toolbox           |
|  \\    /   O peration     | Version:  4.x                                   |
|   \\  /    A nd           | Web:      www.OpenFOAM.org                      |
|    \\/     M anipulation  |                                                 |
\*---------------------------------------------------------------------------*/
FoamFile
{
    version     2.0;
    format      ascii;
    class       volScalarField;
    location    "5000";
    object      CO;
}
// * * * * * * * * * * * * * * * * * * * * * * * * * * * * * * * * * * * * * //

dimensions      [0 0 0 0 0 0 0];

internalField   nonuniform List<scalar> 
1174
(
0.3999960443
0.3999930914
0.399988921
0.3999834807
0.3999768282
0.3999691106
0.3999605335
0.3999513308
0.3999417397
0.3999319833
0.3999222679
0.3999128127
0.3999040055
0.3998970846
0.3999932692
0.3999885332
0.3999822258
0.3999744933
0.3999656022
0.3999558759
0.3999456422
0.3999351997
0.3999248002
0.399914644
0.3999048892
0.3998956888
0.3998873363
0.3998808885
0.3999871366
0.3999787604
0.3999683961
0.3999566284
0.3999440898
0.3999313485
0.3999188538
0.3999069258
0.3998957677
0.3998854898
0.3998761388
0.3998677427
0.3998604355
0.3998549635
0.3999781464
0.3999651281
0.3999501832
0.3999344054
0.399918706
0.3999037393
0.3998899141
0.3998774406
0.3998663848
0.3998567174
0.3998483548
0.399841202
0.399835247
0.3998309362
0.3999717235
0.3999561553
0.3999391736
0.3999219753
0.3999054259
0.399890078
0.3998762321
0.3998640035
0.3998533821
0.3998442792
0.3998365647
0.399830104
0.3998248352
0.3998210848
0.3999781466
0.3999651284
0.3999501836
0.3999344058
0.3999187065
0.3999037399
0.3998899149
0.3998774415
0.3998663858
0.3998567185
0.399848356
0.3998412034
0.3998352485
0.3998309377
0.3999871368
0.3999787607
0.3999683965
0.3999566289
0.3999440905
0.3999313493
0.3999188549
0.3999069271
0.3998957693
0.3998854916
0.3998761408
0.3998677449
0.3998604378
0.399854966
0.3999932694
0.3999885335
0.3999822262
0.3999744938
0.3999656029
0.3999558767
0.3999456432
0.3999352011
0.3999248018
0.3999146459
0.3999048915
0.3998956913
0.3998873391
0.3998808916
0.3999960445
0.3999930916
0.3999889212
0.399983481
0.3999768286
0.3999691112
0.3999605343
0.399951332
0.3999417411
0.3999319851
0.39992227
0.3999128152
0.3999040083
0.3998970878
0.3999964663
0.3999932693
0.3999885333
0.399982226
0.3999744935
0.3999656024
0.399955876
0.3999456423
0.3999351999
0.3999248004
0.3999146441
0.3999048894
0.399895689
0.3998873364
0.3998808887
0.3999870091
0.3999786879
0.399968541
0.3999571787
0.3999452135
0.3999331614
0.3999214063
0.3999102043
0.3998997069
0.3998899884
0.3998810759
0.3998729927
0.3998658813
0.399860508
0.3999712518
0.3999550746
0.3999374924
0.3999199938
0.3999035983
0.3998888612
0.399875984
0.3998649391
0.3998555737
0.3998476816
0.3998410495
0.3998354931
0.3998309259
0.3998276401
0.3999432322
0.3999163217
0.3998907361
0.3998683895
0.3998499494
0.3998353262
0.3998240637
0.399815585
0.3998093239
0.3998047832
0.3998015522
0.3997993047
0.3997977939
0.3997968886
0.39991678
0.3998843942
0.3998569602
0.3998351982
0.3998186762
0.399806553
0.3997979337
0.3997920159
0.3997881333
0.399785756
0.399784472
0.3997839611
0.3997839587
0.3997841837
0.3999432329
0.3999163226
0.3998907371
0.3998683907
0.3998499507
0.3998353277
0.3998240653
0.3998155867
0.3998093257
0.399804785
0.3998015541
0.3997993066
0.3997977959
0.3997968906
0.3999712525
0.3999550755
0.3999374934
0.399919995
0.3999035997
0.3998888629
0.3998759859
0.3998649413
0.3998555762
0.3998476843
0.3998410524
0.3998354961
0.399830929
0.3998276433
0.3999870096
0.3999786884
0.3999685416
0.3999571794
0.3999452145
0.3999331627
0.3999214079
0.3999102063
0.3998997092
0.399889991
0.3998810788
0.3998729959
0.3998658848
0.3998605118
0.3999932694
0.3999885335
0.3999822263
0.3999744939
0.399965603
0.399955877
0.3999456436
0.3999352015
0.3999248024
0.3999146466
0.3999048922
0.3998956922
0.3998873401
0.3998808927
0.3999931587
0.3999871369
0.3999787607
0.3999683964
0.3999566287
0.3999440902
0.3999313488
0.3999188542
0.3999069262
0.3998957681
0.3998854902
0.3998761392
0.3998677431
0.3998604358
0.3998549638
0.3999843142
0.3999712521
0.3999550749
0.3999374927
0.399919994
0.3999035985
0.3998888615
0.3998759842
0.3998649393
0.399855574
0.3998476819
0.3998410497
0.3998354933
0.3998309261
0.3998276403
0.3999246799
0.3998905344
0.3998596192
0.3998342738
0.3998149799
0.3998011796
0.3997918906
0.3997860693
0.3997827853
0.3997812821
0.3997809778
0.399781435
0.3997823031
0.3997831806
0.3998210397
0.3997633464
0.3997235572
0.3997000658
0.3996890243
0.3996865527
0.3996895197
0.3996956563
0.3997034233
0.3997118257
0.3997202419
0.3997282733
0.3997355409
0.399741108
0.3996852194
0.399627795
0.3996031355
0.3995987884
0.3996058533
0.399618724
0.3996340767
0.3996500197
0.3996655211
0.3996800523
0.399693368
0.3997053471
0.399715767
0.3997235604
0.3998210434
0.39976335
0.3997235607
0.3997000693
0.3996890277
0.3996865561
0.399689523
0.3996956595
0.3997034264
0.3997118287
0.3997202448
0.3997282762
0.3997355437
0.3997411108
0.3999246823
0.3998905366
0.3998596216
0.3998342766
0.3998149831
0.3998011831
0.3997918945
0.3997860733
0.3997827894
0.3997812864
0.3997809822
0.3997814394
0.3997823076
0.3997831851
0.3999712525
0.3999550756
0.3999374937
0.3999199955
0.3999036005
0.3998888639
0.3998759871
0.3998649427
0.3998555777
0.399847686
0.3998410541
0.3998354979
0.399830931
0.3998276453
0.3999871368
0.3999787608
0.3999683967
0.3999566294
0.3999440913
0.3999313504
0.3999188562
0.3999069288
0.3998957712
0.3998854938
0.3998761433
0.3998677476
0.3998604407
0.3998549692
0.3999881882
0.3999781469
0.3999651288
0.3999501839
0.3999344061
0.3999187067
0.3999037401
0.3998899149
0.3998774414
0.3998663856
0.3998567181
0.3998483555
0.3998412027
0.3998352477
0.3998309369
0.3999679868
0.3999432332
0.3999163228
0.3998907372
0.3998683906
0.3998499504
0.3998353272
0.3998240647
0.3998155859
0.3998093247
0.399804784
0.3998015529
0.3997993053
0.3997977945
0.3997968892
0.3998914412
0.3998210418
0.3997633482
0.3997235587
0.399700067
0.3996890253
0.3996865536
0.3996895204
0.3996956569
0.3997034239
0.3997118261
0.3997202423
0.3997282737
0.3997355412
0.3997411083
0.399465574
0.3993928261
0.3993807064
0.3994014643
0.3994369172
0.3994767943
0.3995158842
0.3995518599
0.3995839177
0.3996120002
0.39963637
0.3996573475
0.3996749732
0.3996878493
0.398767654
0.3988583818
0.3989981559
0.3991322991
0.399246348
0.3993394196
0.3994145144
0.3994751831
0.399524526
0.3995650016
0.3995984784
0.3996262937
0.3996490763
0.3996654518
0.399465586
0.3993928348
0.3993807139
0.3994014712
0.3994369234
0.3994768
0.3995158895
0.3995518648
0.3995839223
0.3996120044
0.399636374
0.3996573512
0.3996749768
0.3996878528
0.3998210433
0.3997633511
0.3997235628
0.3997000721
0.3996890311
0.3996865597
0.3996895268
0.3996956633
0.3997034302
0.3997118324
0.3997202484
0.3997282796
0.3997355471
0.3997411141
0.3999432329
0.3999163232
0.3998907384
0.3998683927
0.3998499534
0.3998353309
0.399824069
0.3998155908
0.39980933
0.3998047896
0.3998015588
0.3997993114
0.3997978007
0.3997968955
0.3999781466
0.3999651286
0.3999501842
0.399934407
0.3999187082
0.3999037423
0.3998899178
0.399877445
0.3998663898
0.3998567229
0.3998483608
0.3998412085
0.3998352539
0.3998309435
0.3999844566
0.3999717242
0.3999561562
0.3999391746
0.3999219763
0.3999054269
0.3998900791
0.3998762332
0.3998640046
0.3998533832
0.3998442802
0.3998365657
0.399830105
0.3998248362
0.3998210857
0.3999509335
0.3999167814
0.3998843959
0.3998569619
0.3998351999
0.3998186779
0.3998065545
0.3997979352
0.3997920172
0.3997881345
0.3997857572
0.3997844731
0.3997839621
0.3997839596
0.3997841847
0.3997871585
0.399685222
0.3996277979
0.3996031382
0.3995987908
0.3996058553
0.3996187257
0.3996340783
0.3996500211
0.3996655223
0.3996800534
0.3996933689
0.3997053479
0.3997157678
0.3997235612
0.3988920079
0.3987676628
0.3988583876
0.39899816
0.3991323022
0.3992463504
0.3993394216
0.3994145159
0.3994751844
0.3995245271
0.3995650026
0.3995984793
0.3996262945
0.399649077
0.3996654523
0.3957604764
0.3972881349
0.3981350074
0.3986311967
0.398938702
0.3991399301
0.3992783946
0.3993779903
0.3994523771
0.3995096846
0.3995549324
0.3995912575
0.3996202811
0.3996408218
0.3987676533
0.3988583928
0.3989981688
0.3991323115
0.3992463591
0.3993394295
0.399414523
0.3994751907
0.3995245328
0.3995650078
0.3995984841
0.3996262989
0.3996490812
0.3996654563
0.3996852189
0.3996277992
0.3996031426
0.399598797
0.3996058626
0.3996187335
0.3996340861
0.3996500288
0.3996655298
0.3996800607
0.399693376
0.3997053548
0.3997157744
0.3997235677
0.3999167801
0.3998843958
0.3998569633
0.3998352026
0.3998186817
0.3998065593
0.3997979406
0.3997920231
0.3997881408
0.3997857638
0.3997844799
0.399783969
0.3997839666
0.3997841918
0.3999717235
0.3999561558
0.3999391748
0.3999219773
0.3999054289
0.3998900819
0.3998762368
0.399864009
0.3998533882
0.3998442858
0.3998365719
0.3998301116
0.3998248432
0.3998210931
0.3999881882
0.3999781471
0.3999651291
0.3999501843
0.3999344067
0.3999187075
0.399903741
0.3998899159
0.3998774426
0.399866387
0.3998567197
0.3998483571
0.3998412045
0.3998352496
0.3998309388
0.3999679873
0.3999432341
0.399916324
0.3998907387
0.3998683923
0.3998499523
0.3998353293
0.3998240669
0.3998155882
0.3998093271
0.3998047864
0.3998015554
0.3997993079
0.3997977971
0.3997968918
0.3998914458
0.3998210464
0.3997633531
0.3997235638
0.3997000721
0.3996890303
0.3996865584
0.3996895251
0.3996956614
0.3997034282
0.3997118303
0.3997202463
0.3997282775
0.3997355449
0.399741112
0.3996286955
0.399465594
0.3993928415
0.3993807194
0.3994014755
0.399436927
0.3994768029
0.3995158919
0.3995518669
0.3995839241
0.399612006
0.3996363753
0.3996573524
0.3996749779
0.3996878538
0.3988920087
0.3987676655
0.3988584006
0.3989981743
0.3991323156
0.3992463622
0.3993394319
0.399414525
0.3994751924
0.3995245342
0.3995650089
0.3995984851
0.3996262998
0.3996490819
0.399665457
0.399628693
0.3994655952
0.3993928457
0.3993807251
0.399401482
0.3994369336
0.3994768093
0.399515898
0.3995518725
0.3995839293
0.399612011
0.3996363799
0.3996573568
0.399674982
0.3996878578
0.3998210403
0.3997633518
0.3997235657
0.3997000762
0.3996890358
0.3996865647
0.3996895318
0.3996956683
0.399703435
0.3997118371
0.3997202529
0.399728284
0.3997355513
0.3997411183
0.3999432319
0.399916323
0.399890739
0.399868394
0.3998499553
0.3998353332
0.3998240716
0.3998155936
0.399809333
0.3998047926
0.3998015619
0.3997993145
0.3997978039
0.3997968987
0.3999781463
0.3999651285
0.3999501844
0.3999344075
0.3999187091
0.3999037434
0.3998899193
0.3998774467
0.3998663918
0.3998567251
0.3998483631
0.3998412109
0.3998352564
0.3998309461
0.3999931588
0.3999871372
0.3999787612
0.3999683971
0.3999566297
0.3999440914
0.3999313503
0.3999188559
0.3999069282
0.3998957704
0.3998854928
0.399876142
0.3998677461
0.399860439
0.3998549672
0.399984315
0.3999712533
0.3999550764
0.3999374945
0.3999199962
0.399903601
0.3998888643
0.3998759873
0.3998649427
0.3998555776
0.3998476857
0.3998410537
0.3998354974
0.3998309303
0.3998276446
0.3999572352
0.3999246841
0.3998905387
0.3998596237
0.3998342788
0.3998149852
0.3998011851
0.3997918964
0.3997860752
0.3997827912
0.399781288
0.3997809837
0.3997814408
0.3997823089
0.3997831864
0.3998914459
0.3998210473
0.3997633551
0.3997235667
0.3997000756
0.3996890342
0.3996865624
0.3996895292
0.3996956655
0.3997034322
0.3997118342
0.39972025
0.3997282811
0.3997355484
0.3997411154
0.3997871587
0.3996852258
0.3996278051
0.3996031474
0.399598801
0.3996058659
0.3996187362
0.3996340883
0.3996500307
0.3996655315
0.3996800621
0.3996933773
0.3997053559
0.3997157754
0.3997235686
0.3998914462
0.3998210482
0.3997633569
0.3997235692
0.3997000787
0.3996890377
0.3996865662
0.399689533
0.3996956693
0.399703436
0.3997118378
0.3997202536
0.3997282846
0.3997355518
0.3997411188
0.3999572338
0.3999246831
0.3998905387
0.399859625
0.3998342812
0.3998149885
0.3998011892
0.3997919009
0.39978608
0.3997827963
0.3997812932
0.399780989
0.3997814461
0.3997823143
0.3997831918
0.3999712518
0.3999550757
0.3999374946
0.3999199971
0.3999036028
0.3998888669
0.3998759906
0.3998649466
0.399855582
0.3998476905
0.3998410589
0.3998355029
0.3998309361
0.3998276506
0.3999871365
0.3999787607
0.399968397
0.39995663
0.3999440924
0.399931352
0.3999188583
0.3999069313
0.3998957741
0.3998854971
0.3998761469
0.3998677515
0.3998604449
0.3998549736
0.3999964665
0.3999932696
0.3999885338
0.3999822266
0.3999744943
0.3999656035
0.3999558774
0.3999456441
0.3999352019
0.3999248027
0.3999146469
0.3999048925
0.3998956924
0.3998873402
0.3998808927
0.3999930718
0.39998701
0.3999786889
0.3999685423
0.3999571803
0.3999452154
0.3999331637
0.399921409
0.3999102074
0.3998997104
0.3998899923
0.3998810801
0.3998729971
0.399865886
0.399860513
0.399984315
0.3999712534
0.3999550767
0.399937495
0.3999199969
0.399903602
0.3998888654
0.3998759887
0.3998649442
0.3998555792
0.3998476874
0.3998410556
0.3998354994
0.3998309323
0.3998276467
0.3999679874
0.3999432346
0.3999163252
0.3998907406
0.3998683949
0.3998499556
0.3998353331
0.3998240711
0.3998155927
0.3998093319
0.3998047913
0.3998015604
0.3997993129
0.3997978022
0.3997968969
0.3999509337
0.3999167828
0.3998843987
0.3998569662
0.3998352054
0.3998186842
0.3998065616
0.3997979428
0.3997920251
0.3997881426
0.3997857654
0.3997844814
0.3997839704
0.399783968
0.399784193
0.3999679876
0.399943235
0.3999163259
0.3998907416
0.3998683963
0.3998499573
0.399835335
0.3998240732
0.399815595
0.3998093343
0.3998047938
0.399801563
0.3997993155
0.3997978048
0.3997968996
0.399984315
0.3999712534
0.399955077
0.3999374958
0.3999199983
0.3999036038
0.3998888678
0.3998759914
0.3998649474
0.3998555827
0.3998476911
0.3998410595
0.3998355035
0.3998309366
0.3998276511
0.3999930715
0.3999870097
0.3999786888
0.3999685425
0.3999571809
0.3999452166
0.3999331654
0.3999214112
0.3999102102
0.3998997136
0.3998899959
0.3998810841
0.3998730015
0.3998658907
0.399860518
0.3999932692
0.3999885335
0.3999822266
0.3999744946
0.3999656041
0.3999558785
0.3999456457
0.3999352041
0.3999248055
0.3999146502
0.3999048964
0.3998956968
0.399887345
0.399880898
0.3999979433
0.3999960447
0.3999930918
0.3999889215
0.3999834814
0.3999768291
0.3999691118
0.399960535
0.3999513327
0.399941742
0.399931986
0.399922271
0.3999128163
0.3999040094
0.3998970889
0.3999964665
0.3999932696
0.3999885338
0.3999822267
0.3999744944
0.3999656037
0.3999558777
0.3999456444
0.3999352025
0.3999248034
0.3999146476
0.3999048933
0.3998956934
0.3998873412
0.3998808939
0.3999931588
0.3999871373
0.3999787614
0.3999683975
0.3999566303
0.3999440923
0.3999313515
0.3999188574
0.39990693
0.3998957725
0.3998854951
0.3998761446
0.3998677489
0.3998604421
0.3998549705
0.3999881883
0.3999781474
0.3999651297
0.3999501855
0.3999344085
0.3999187098
0.3999037439
0.3998899195
0.3998774467
0.3998663915
0.3998567246
0.3998483624
0.39984121
0.3998352554
0.3998309449
0.3999844567
0.3999717247
0.3999561574
0.3999391766
0.3999219792
0.3999054308
0.3998900838
0.3998762387
0.3998640108
0.39985339
0.3998442875
0.3998365734
0.3998301131
0.3998248446
0.3998210945
0.3999881884
0.3999781476
0.39996513
0.399950186
0.3999344092
0.3999187108
0.3999037451
0.3998899209
0.3998774482
0.3998663932
0.3998567265
0.3998483644
0.3998412121
0.3998352576
0.3998309472
0.3999931589
0.3999871374
0.3999787616
0.399968398
0.3999566311
0.3999440934
0.399931353
0.3999188593
0.3999069322
0.3998957751
0.399885498
0.3998761477
0.3998677523
0.3998604456
0.3998549743
0.3999964665
0.3999932696
0.3999885338
0.3999822269
0.3999744949
0.3999656045
0.3999558788
0.399945646
0.3999352044
0.3999248058
0.3999146504
0.3999048966
0.399895697
0.3998873453
0.3998808983
0.3999979432
0.3999960445
0.3999930918
0.3999889216
0.3999834815
0.3999768296
0.3999691125
0.3999605362
0.3999513344
0.3999417441
0.3999319886
0.3999222742
0.39991282
0.3999040136
0.3998970937
)
;

boundaryField
{
    top
    {
        type            zeroGradient;
    }
    bottom
    {
        type            zeroGradient;
    }
    side-walls
    {
        type            zeroGradient;
    }
    inlet
    {
        type            zeroGradient;
    }
    outlet
    {
        type            zeroGradient;
    }
    procBoundary1to0
    {
        type            processor;
        value           nonuniform List<scalar> 
97
(
0.3999979432
0.3999979432
0.3999964665
0.3999931589
0.3999881886
0.3999844572
0.3999881888
0.3999931591
0.3999964667
0.3999979434
0.3999983561
0.3999930715
0.3999930715
0.3999930715
0.399984315
0.3999679881
0.3999509357
0.3999679888
0.3999843157
0.3999930721
0.3999964667
0.3999968586
0.3999929802
0.3999572336
0.3999572336
0.3999572336
0.3998914473
0.3997871708
0.3998914513
0.3999572372
0.3999843157
0.3999931591
0.3999946634
0.3999861391
0.3999563107
0.3996286894
0.3996286894
0.3996286894
0.3988920878
0.3996287149
0.3998914512
0.3999679887
0.3999881887
0.3999930951
0.3999796811
0.3999231613
0.3996993463
0.3928503616
0.3928503616
0.3928503616
0.3988920824
0.3988920824
0.3997871696
0.3999509356
0.3999844571
0.3999946634
0.3999861391
0.3999563101
0.3998695617
0.3996993424
0.3998695641
0.3998914431
0.3998914431
0.3998914431
0.3999679875
0.3999881885
0.3999968586
0.3999929801
0.39998161
0.3999563101
0.3999231609
0.3999563106
0.3999816102
0.3999843143
0.3999843143
0.3999843143
0.3999931588
0.3999983561
0.3999968275
0.3999929801
0.3999861391
0.3999796811
0.3999861392
0.3999929802
0.3999968276
0.3999964664
0.3999964664
0.3999964664
0.3999990337
0.3999983561
0.3999968586
0.3999946634
0.3999930951
0.3999946634
0.3999968586
0.3999983561
0.3999990337
)
;
    }
}


// ************************************************************************* //
