/*--------------------------------*- C++ -*----------------------------------*\
| =========                 |                                                 |
| \\      /  F ield         | OpenFOAM: The Open Source CFD Toolbox           |
|  \\    /   O peration     | Version:  4.x                                   |
|   \\  /    A nd           | Web:      www.OpenFOAM.org                      |
|    \\/     M anipulation  |                                                 |
\*---------------------------------------------------------------------------*/
FoamFile
{
    version     2.0;
    format      ascii;
    class       volScalarField;
    location    "5000";
    object      CO2;
}
// * * * * * * * * * * * * * * * * * * * * * * * * * * * * * * * * * * * * * //

dimensions      [0 0 0 0 0 0 0];

internalField   nonuniform List<scalar> 
1174
(
5.061790938e-06
8.839767115e-06
1.41754781e-05
2.113600433e-05
2.964742426e-05
3.952181228e-05
5.049603271e-05
6.227079948e-05
7.454296764e-05
8.702687595e-05
9.945868483e-05
0.0001115577592
0.000122828081
0.0001316846025
8.612362765e-06
1.467151508e-05
2.274105459e-05
3.263409478e-05
4.400956945e-05
5.64539699e-05
6.954775603e-05
8.290895453e-05
9.621561893e-05
0.0001092112968
0.0001216936427
0.0001334670855
0.0001441558568
0.0001524071681
1.645812804e-05
2.71742354e-05
4.043391881e-05
5.548933729e-05
7.153121701e-05
8.783303533e-05
0.0001038196545
0.0001190816899
0.0001333591478
0.0001465108879
0.0001584771355
0.0001692218972
0.0001785736641
0.0001855768231
2.795929485e-05
4.461384809e-05
6.373353748e-05
8.391919916e-05
0.0001040050847
0.0001231540472
0.0001408431596
0.0001568034637
0.0001709504327
0.0001833215286
0.0001940236177
0.000203177994
0.0002108000005
0.000216317836
3.617574031e-05
5.609223999e-05
7.781757642e-05
9.982059319e-05
0.0001209939052
0.0001406306609
0.0001583464873
0.0001739935857
0.0001875850035
0.0001992341037
0.0002091071179
0.0002173762427
0.0002241203912
0.000228921382
2.79589961e-05
4.461340039e-05
6.373292115e-05
8.391836404e-05
0.0001040040017
0.0001231527055
0.0001408415263
0.0001568015398
0.0001709482069
0.0001833190312
0.0001940208865
0.0002031750493
0.0002107968422
0.0002163144597
1.645770268e-05
2.717367152e-05
4.043316758e-05
5.548832379e-05
7.152986305e-05
8.783127432e-05
0.0001038174128
0.0001190789598
0.0001333558886
0.0001465071193
0.0001584728553
0.0001692171845
0.000178568506
0.0001855712672
8.611953563e-06
1.467102103e-05
2.274042108e-05
3.263323203e-05
4.400838077e-05
5.645236337e-05
6.954563511e-05
8.290625953e-05
9.621229104e-05
0.0001092072954
0.0001216889777
0.000133461755
0.0001441499011
0.0001524006303
5.06150198e-06
8.839463001e-06
1.41750984e-05
2.11354643e-05
2.964662639e-05
3.952064287e-05
5.049437571e-05
6.226855857e-05
7.454004464e-05
8.702321671e-05
9.945423918e-05
0.0001115524762
0.0001228219499
0.0001316776053
4.52179245e-06
8.61206229e-06
1.467121702e-05
2.274074756e-05
3.263377442e-05
4.400923343e-05
5.645362787e-05
6.954740532e-05
8.290859046e-05
9.621524797e-05
0.0001092109363
0.0001216932797
0.0001334667267
0.0001441555284
0.0001524068608
1.66212887e-05
2.726693617e-05
4.024841019e-05
5.478520095e-05
7.009360035e-05
8.551363123e-05
0.0001005541506
0.0001148873139
0.0001283195215
0.0001407556086
0.0001521608255
0.0001625053361
0.0001716064899
0.0001784832621
3.677999769e-05
5.747547287e-05
7.996892076e-05
0.0001023559897
0.0001233324732
0.0001421878103
0.0001586644129
0.0001727972602
0.0001847818006
0.0001948818638
0.0002033702046
0.0002104824809
0.0002163290892
0.0002205355502
7.262424763e-05
0.0001070502956
0.0001397824191
0.0001683717616
0.0001919644608
0.0002106748153
0.0002250863118
0.0002359369039
0.0002439508262
0.0002497639505
0.0002539015947
0.0002567811869
0.0002587179467
0.0002598791661
0.0001064615667
0.0001478918484
0.0001829888577
0.0002108308308
0.0002319702528
0.0002474829935
0.0002585135214
0.000266088456
0.0002710598061
0.000274105495
0.0002757526349
0.0002764106038
0.0002764178565
0.0002761329819
7.262289592e-05
0.0001070486499
0.0001397804821
0.0001683694942
0.000191961823
0.0002106718476
0.0002250830406
0.0002359333734
0.0002439470301
0.0002497599948
0.0002538974907
0.0002567769414
0.000258713591
0.000259874645
3.677859467e-05
5.747393987e-05
7.996710834e-05
0.0001023537206
0.0001233296662
0.0001421843772
0.0001586603839
0.0001727925991
0.0001847765721
0.0001948761251
0.0002033640072
0.0002104758999
0.0002163221569
0.0002205282935
1.66204388e-05
2.726612398e-05
4.024741009e-05
5.478381487e-05
7.009166495e-05
8.551105902e-05
0.0001005508631
0.0001148832385
0.0001283146674
0.0001407499944
0.0001521544687
0.0001624982797
0.0001715987772
0.000178474999
8.611983768e-06
1.46710201e-05
2.274035587e-05
3.263306161e-05
4.400805355e-05
5.645183807e-05
6.954488577e-05
8.290525181e-05
9.621103536e-05
0.0001092057813
0.000121687197
0.0001334597174
0.0001441475838
0.0001523979921
8.753463708e-06
1.645743e-05
2.717349266e-05
4.0433149e-05
5.548854634e-05
7.15304135e-05
8.783222394e-05
0.0001038188278
0.0001190808664
0.0001333583289
0.0001465100815
0.0001584763379
0.0001692211166
0.000178572926
0.0001855761142
2.006888655e-05
3.677908898e-05
5.747471232e-05
7.99682403e-05
0.0001023553571
0.0001233318778
0.000142187236
0.0001586638546
0.0001727967337
0.0001847812705
0.0001948813214
0.0002033697016
0.0002104819634
0.00021632861
0.0002205350959
9.635858941e-05
0.0001400393533
0.0001795891914
0.0002120148104
0.0002367000186
0.0002543580293
0.0002662452424
0.0002736966465
0.0002779023177
0.0002798298219
0.0002802236558
0.0002796432003
0.0002785366908
0.0002774171612
0.0002289371761
0.0003027408044
0.000353643284
0.0003836987297
0.0003978286275
0.0004009959184
0.0003972059548
0.0003893612035
0.0003794305492
0.0003686869647
0.0003579253997
0.0003476557869
0.0003383628967
0.0003312441329
0.0004026715818
0.0004761329752
0.0005076839137
0.0005132517228
0.00050422125
0.0004877635916
0.0004681303655
0.0004477415913
0.0004279173721
0.0004093336956
0.000392304683
0.0003769852095
0.0003636597643
0.0003536929953
0.0002289306938
0.0003027344446
0.0003536369037
0.0003836921436
0.0003978218316
0.0004009890578
0.0003971990478
0.0003893543707
0.0003794238313
0.0003686803017
0.0003579188151
0.0003476493743
0.0003383566249
0.0003312377885
9.635417074e-05
0.0001400354092
0.0001795847873
0.0002120095018
0.0002366936968
0.0002543507908
0.0002662372386
0.0002736880632
0.0002778932973
0.000279820466
0.0002802140173
0.0002796334496
0.0002785268388
0.0002774071423
3.677860659e-05
5.747368409e-05
7.996645299e-05
0.0001023525939
0.0001233280105
0.0001421822322
0.0001586577677
0.000172789593
0.0001847732029
0.0001948724687
0.0002033601334
0.000210471794
0.0002163178683
0.0002205238685
1.645773347e-05
2.717352114e-05
4.043269284e-05
5.548737828e-05
7.152832931e-05
8.78290832e-05
0.0001038145386
0.0001190753931
0.0001333516696
0.0001465022772
0.0001584674281
0.0001692112106
0.0001785620428
0.0001855642547
1.511222009e-05
2.795807256e-05
4.461244814e-05
6.373201948e-05
8.391760731e-05
0.0001040034343
0.0001231523816
0.0001408414855
0.0001568018136
0.0001709488196
0.0001833199627
0.0001940220902
0.0002031765409
0.0002107985628
0.0002163164404
4.095565193e-05
7.262191343e-05
0.0001070479402
0.0001397801359
0.0001683695746
0.0001919623454
0.0002106728163
0.0002250844292
0.000235935122
0.0002439491566
0.0002497623896
0.0002539001329
0.00025677978
0.0002587166305
0.0002598778679
0.0001388774947
0.0002289324967
0.0003027370957
0.0003536402438
0.0003836962185
0.0003978264791
0.0004009941138
0.000397204392
0.0003893598692
0.0003794293646
0.0003686859271
0.0003579244708
0.0003476549186
0.0003383620644
0.0003312433329
0.0006836456334
0.0007767057712
0.000792216196
0.0007656713238
0.0007203285652
0.0006693255273
0.0006193284971
0.0005733143573
0.000532311339
0.0004963930136
0.0004652235531
0.0004383930515
0.0004158496644
0.0003993809183
0.001576371733
0.00146033304
0.001281555481
0.00110997719
0.0009640996623
0.0008450534067
0.0007490008814
0.000671400482
0.0006082869531
0.0005565156221
0.0005136965729
0.0004781191712
0.0004489790726
0.0004280338035
0.0006836238504
0.0007766897682
0.0007922017295
0.0007656574174
0.0007203152681
0.0006693130186
0.0006193166892
0.0005733033308
0.0005323010145
0.0004963833008
0.0004652143726
0.0004383843929
0.0004158413598
0.000399372846
0.0002289309368
0.0003027324161
0.000353632562
0.0003836860854
0.0003978146533
0.0004009811197
0.0003971907858
0.0003893459751
0.0003794154787
0.0003686721034
0.0003579108253
0.000347641528
0.0003383489662
0.000331230291
7.262308368e-05
0.0001070476506
0.0001397779239
0.0001683652921
0.0001919561168
0.0002106648112
0.0002250749479
0.0002359244481
0.0002439374934
0.0002497499246
0.0002538870744
0.000256766262
0.0002587027231
0.0002598635693
2.795912876e-05
4.46130057e-05
6.373165471e-05
8.391595822e-05
0.0001040003071
0.0001231476404
0.0001408351521
0.0001567939019
0.0001709394495
0.0001833092796
0.0001940102366
0.000203163624
0.0002107847008
0.000216301601
1.988595878e-05
3.617428481e-05
5.609049369e-05
7.78155974e-05
9.981845614e-05
0.0001209916853
0.0001406283636
0.0001583441725
0.0001739912828
0.0001875827095
0.0001992318538
0.0002091049298
0.0002173741506
0.0002241183292
0.0002289193519
6.277002589e-05
0.0001064584441
0.0001478884535
0.0001829853938
0.0002108274045
0.0002319669571
0.0002474798497
0.0002585105472
0.0002660856912
0.0002710571841
0.0002741030118
0.000275750331
0.0002764084505
0.0002764157869
0.0002761309641
0.0002722685185
0.0004026648926
0.0004761264709
0.0005076780352
0.0005132466744
0.0005042168849
0.0004877597641
0.0004681270162
0.0004477386404
0.0004279146847
0.0004093313787
0.0003923026435
0.0003769833328
0.0003636580459
0.0003536913824
0.001417290747
0.001576351295
0.00146032027
0.00128154668
0.001109970719
0.0009640948274
0.0008450494827
0.0007489977098
0.0006713979003
0.0006082847772
0.0005565137137
0.0005136948624
0.0004781177167
0.0004489778213
0.0004280328177
0.005422894797
0.003468865371
0.002385630123
0.001750953828
0.001357622872
0.001100231443
0.000923121084
0.0007957278429
0.0007005797085
0.0006272778632
0.000569401754
0.0005229388042
0.0004858153622
0.0004595419621
0.001576372908
0.001460312086
0.001281528868
0.001109950724
0.0009640755604
0.0008450317335
0.0007489816347
0.0006713834403
0.000608271661
0.000556501735
0.0005136838062
0.0004781074384
0.0004489680954
0.0004280234693
0.0004026729611
0.0004761247502
0.000507669096
0.0005132332276
0.0005042009046
0.0004877425897
0.0004681095486
0.0004477213257
0.0004278977075
0.0004093148215
0.0003922865917
0.0003769678025
0.000363642975
0.0003536765611
0.0001064618445
0.0001478890297
0.000182982706
0.0002108216921
0.0002319586621
0.0002474694287
0.000258498537
0.0002660724537
0.0002710430721
0.0002740882322
0.0002757350292
0.0002763928339
0.000276399937
0.0002761148823
3.61759589e-05
5.60914007e-05
7.78151567e-05
9.981628633e-05
0.0001209875857
0.0001406223212
0.0001583362486
0.000173981632
0.0001875714938
0.0001992192557
0.0002090911171
0.0002173592953
0.000224102567
0.0002289026656
1.51121718e-05
2.795779873e-05
4.461189649e-05
6.373115386e-05
8.391637714e-05
0.0001040018454
0.0001231504138
0.0001408391612
0.0001567991004
0.0001709457629
0.0001833165804
0.0001940184447
0.0002031726498
0.0002107944442
0.0002163121233
4.095471672e-05
7.262022022e-05
0.0001070455866
0.0001397771732
0.0001683660897
0.0001919584162
0.0002106684781
0.0002250797543
0.0002359301942
0.0002439439903
0.0002497570427
0.0002538946928
0.000256774242
0.0002587110105
0.0002598721758
0.0001388683708
0.0002289237595
0.0003027275283
0.000353630305
0.0003836860551
0.00039781631
0.000400984085
0.0003971945875
0.0003893503328
0.0003794201192
0.0003686769436
0.0003579157774
0.0003476465122
0.0003383539555
0.0003312353497
0.0004749701587
0.0006836057211
0.0007766751463
0.0007921900073
0.0007656481092
0.0007203077549
0.0006693067735
0.0006193115944
0.0005732989634
0.0005322972714
0.0004963801018
0.0004652115367
0.0004383818705
0.000415839059
0.000399370726
0.001417287872
0.001576345529
0.001460294899
0.001281517244
0.001109942216
0.0009640691557
0.0008450268556
0.0007489778025
0.0006713802349
0.0006082689689
0.0005564995118
0.0005136818862
0.0004781057484
0.0004489666972
0.0004280221427
0.0004749760263
0.0006836043369
0.0007766669746
0.0007921777198
0.0007656338768
0.0007202929728
0.0006692923253
0.0006192977865
0.0005732860522
0.0005322851393
0.0004963686736
0.000465200898
0.000438371865
0.0004158296183
0.0003993616025
0.0002289364405
0.0003027301926
0.0003536258303
0.0003836767349
0.0003978038848
0.0004009697793
0.0003971792912
0.0003893346753
0.000379404464
0.0003686614642
0.0003579005302
0.0003476316662
0.0003383393676
0.0003312209267
7.26249814e-05
0.0001070477862
0.0001397762801
0.0001683621486
0.000191951768
0.0002106595621
0.0002250690402
0.0002359180683
0.000243930769
0.0002497430352
0.0002538800327
0.0002567591441
0.0002586955909
0.0002598563429
2.795970315e-05
4.461318328e-05
6.373120134e-05
8.391476718e-05
0.0001039983555
0.000123144968
0.0001408317959
0.0001567899677
0.0001709349847
0.000183304384
0.0001940049825
0.0002031580773
0.0002107789131
0.0002162955847
8.753227054e-06
1.645686114e-05
2.717253915e-05
4.043175402e-05
5.54866484e-05
7.152795631e-05
8.782916641e-05
0.0001038151654
0.0001190765846
0.0001333534303
0.0001465045962
0.0001584703078
0.0001692146109
0.0001785659544
0.0001855687235
2.006726694e-05
3.677691207e-05
5.747183794e-05
7.996467751e-05
0.0001023510571
0.0001233268163
0.0001421814381
0.0001586574102
0.0001727896355
0.0001847736315
0.0001948731975
0.0002033611339
0.0002104731063
0.0002163194339
0.0002205256091
5.470963938e-05
9.635014825e-05
0.000140030889
0.0001795800407
0.0002120047201
0.0002366890674
0.000254346397
0.0002662330746
0.0002736840942
0.0002778895554
0.0002798169335
0.0002802106912
0.0002796302973
0.0002785238496
0.0002774042729
0.0001388683439
0.0002289219743
0.0003027234986
0.0003536242945
0.000383678619
0.0003978079219
0.0004009751669
0.0003971855075
0.0003893412545
0.0003794112119
0.0003686682962
0.0003579073548
0.0003476383796
0.0003383460385
0.0003312275312
0.0002722683293
0.0004026578079
0.0004761119752
0.0005076586146
0.0005132247084
0.0005041939629
0.000487736866
0.0004681046768
0.0004477171381
0.000427894179
0.0004093117537
0.0003922838601
0.0003769654002
0.0003636408055
0.0003536744501
0.0001388678169
0.0002289200768
0.0003027196091
0.000353618519
0.0003836714469
0.0003977998293
0.0004009666168
0.0003971767168
0.0003893324596
0.0003794025259
0.0003686598452
0.0003578991132
0.0003476303824
0.0003383382485
0.0003312198501
5.471258212e-05
9.635228724e-05
0.0001400307124
0.0001795771621
0.0002119993512
0.0002366815804
0.0002543372564
0.0002662227627
0.0002736730115
0.0002778779511
0.0002798050132
0.0002801985951
0.0002796181207
0.0002785116035
0.000277391923
3.677995982e-05
5.747336983e-05
7.996441724e-05
0.0001023488701
0.0001233227243
0.0001421755484
0.0001586498924
0.0001727807319
0.0001847635402
0.0001948621278
0.0002033492502
0.0002104605052
0.0002163062453
0.0002205119063
1.645836084e-05
2.71736673e-05
4.043208452e-05
5.548583268e-05
7.152573842e-05
8.782540282e-05
0.0001038098104
0.0001190696455
0.0001333449692
0.0001464947399
0.0001584591571
0.0001692022629
0.0001785525096
0.0001855542178
4.521436145e-06
8.611475971e-06
1.46703376e-05
2.273951418e-05
3.263210073e-05
4.400702341e-05
5.645079402e-05
6.954387288e-05
8.290432519e-05
9.621021053e-05
0.0001092051034
0.0001216866816
0.0001334594024
0.0001441474773
0.0001523981693
8.864539601e-06
1.661955276e-05
2.726492193e-05
4.024590555e-05
5.478204277e-05
7.008965896e-05
8.550884299e-05
0.0001005484781
0.0001148807615
0.0001283121067
0.000140747351
0.0001521518054
0.0001624956044
0.0001715961039
0.0001784723085
2.00672708e-05
3.677674052e-05
5.747133795e-05
7.996372675e-05
0.0001023495848
0.0001233248165
0.0001421789484
0.0001586544391
0.0001727862716
0.0001847699419
0.0001948692442
0.0002033569633
0.0002104687023
0.0002163148778
0.0002205209113
4.095468155e-05
7.261929662e-05
0.0001070432461
0.0001397731994
0.000168360482
0.0001919513606
0.0002106602241
0.0002250705556
0.0002359202949
0.0002439335424
0.0002497462355
0.0002538835827
0.0002567629885
0.0002586996352
0.0002598605836
6.276978529e-05
0.0001064558709
0.0001478827298
0.0001829765344
0.0002108158516
0.0002319532191
0.000247464468
0.0002584939937
0.0002660682939
0.0002710392868
0.000274084754
0.0002757318459
0.0002763898872
0.0002763971663
0.0002761122064
4.095430423e-05
7.26184657e-05
0.00010704173
0.0001397708736
0.0001683573734
0.00019194754
0.000210655823
0.0002250656751
0.0002359150374
0.0002439280491
0.000249740526
0.0002538777641
0.0002567570686
0.0002586936288
0.0002598545044
2.006740231e-05
3.677669003e-05
5.747061479e-05
7.996199572e-05
0.0001023466731
0.000123320703
0.0001421737084
0.0001586482306
0.0001727792097
0.000184762163
0.000194860883
0.0002033481086
0.0002104594283
0.0002163052713
0.0002205109762
8.865118908e-06
1.662015167e-05
2.726514365e-05
4.024541472e-05
5.478059407e-05
7.008710193e-05
8.550510277e-05
0.0001005435628
0.0001148746863
0.0001283049411
0.0001407391998
0.0001521427271
0.0001624856779
0.0001715854289
0.0001784609763
8.612326021e-06
1.467092666e-05
2.273964936e-05
3.263155576e-05
4.400559689e-05
5.644831203e-05
6.954022107e-05
8.289941266e-05
9.620401788e-05
0.0001091976301
0.0001216779647
0.0001334494688
0.0001441363956
0.0001523860142
2.632024928e-06
5.061188063e-06
8.838998243e-06
1.417445355e-05
2.113462084e-05
2.964556999e-05
3.951937491e-05
5.049290186e-05
6.226688468e-05
7.453819889e-05
8.702121481e-05
9.94520881e-05
0.000111550218
0.0001228196174
0.000131675207
4.521450202e-06
8.611472201e-06
1.467028677e-05
2.273937649e-05
3.26318322e-05
4.400658472e-05
5.64501519e-05
6.954299611e-05
8.290318347e-05
9.620882495e-05
0.0001092034578
0.000121684787
0.0001334572443
0.0001441450441
0.0001523954161
8.753242684e-06
1.645675849e-05
2.717218617e-05
4.043100723e-05
5.54853766e-05
7.152605728e-05
8.782660619e-05
0.000103811893
0.0001190726299
0.0001333488277
0.0001464993801
0.0001584645372
0.0001692083307
0.0001785591895
0.000185561438
1.511212356e-05
2.795733493e-05
4.461067174e-05
6.372885906e-05
8.391283001e-05
0.000103996928
0.0001231441266
0.0001408315623
0.0001567903199
0.0001709359082
0.0001833058007
0.0001940068733
0.0002031603736
0.0002107815765
0.0002162985733
1.988583969e-05
3.617334049e-05
5.608816947e-05
7.78114932e-05
9.981237316e-05
0.0001209835612
0.0001406183166
0.000158332308
0.0001739777943
0.0001875678279
0.0001992157554
0.0002090878256
0.0002173561585
0.0002240995831
0.0002288997703
1.511193904e-05
2.795695648e-05
4.460998397e-05
6.372776159e-05
8.391124645e-05
0.0001039948411
0.000123141541
0.0001408284833
0.0001567868064
0.0001709320092
0.0001833015752
0.0001940023532
0.0002031556102
0.0002107765766
0.0002162933656
8.753150334e-06
1.645653461e-05
2.717165754e-05
4.042998852e-05
5.548369853e-05
7.152362277e-05
8.782333703e-05
0.0001038078096
0.0001190677339
0.000133343157
0.0001464930317
0.0001584575331
0.0001692007471
0.0001785510951
0.0001855528762
4.521505898e-06
8.61152945e-06
1.467019427e-05
2.273894812e-05
3.263087194e-05
4.400492749e-05
5.644765731e-05
6.953958129e-05
8.28988042e-05
9.620344691e-05
0.0001091970855
0.0001216774467
0.0001334489834
0.0001441359359
0.0001523855547
2.632193466e-06
5.06141814e-06
8.839166909e-06
1.417440651e-05
2.113417933e-05
2.964454697e-05
3.951759334e-05
5.049020893e-05
6.226314866e-05
7.453333836e-05
8.701516412e-05
9.944483895e-05
0.0001115417616
0.0001228099628
0.0001316644144
)
;

boundaryField
{
    top
    {
        type            zeroGradient;
    }
    bottom
    {
        type            zeroGradient;
    }
    side-walls
    {
        type            zeroGradient;
    }
    inlet
    {
        type            zeroGradient;
    }
    outlet
    {
        type            zeroGradient;
    }
    procBoundary1to0
    {
        type            processor;
        value           nonuniform List<scalar> 
97
(
2.632204254e-06
2.632204254e-06
4.521484334e-06
8.752965326e-06
1.511129731e-05
1.988454278e-05
1.511105225e-05
8.752616688e-06
4.521122737e-06
2.631849596e-06
2.103828117e-06
8.865182045e-06
8.865182045e-06
8.865182045e-06
2.006720157e-05
4.095273845e-05
6.276490406e-05
4.095150611e-05
2.006577663e-05
8.863912177e-06
4.521138967e-06
4.019693202e-06
8.981377206e-06
5.471279468e-05
5.471279468e-05
5.471279468e-05
0.0001388640582
0.0002722404936
0.0001388563862
5.470532846e-05
2.006579559e-05
8.752639013e-06
6.828078439e-06
1.773305526e-05
5.58902981e-05
0.0004749777434
0.0004749777434
0.0004749777434
0.001417102919
0.0004749261657
0.0001388566941
4.095168676e-05
1.511115145e-05
8.834408709e-06
2.59944386e-05
9.829472291e-05
0.000384582465
0.009144527878
0.009144527878
0.009144527878
0.001417113376
0.001417113376
0.0002722430184
6.276531944e-05
1.988473159e-05
6.828162698e-06
1.773328869e-05
5.589195305e-05
0.0001668598895
0.0003845913091
0.0001668544196
0.0001388738549
0.0001388738549
0.0001388738549
4.095431788e-05
1.51117065e-05
4.019738085e-06
8.981587087e-06
2.352733823e-05
5.589205885e-05
9.829584876e-05
5.58909275e-05
2.352675345e-05
2.006865639e-05
2.006865639e-05
2.006865639e-05
8.753318702e-06
2.103872486e-06
4.05944412e-06
8.98159797e-06
1.773331454e-05
2.599451526e-05
1.773301443e-05
8.981395976e-06
4.059358179e-06
4.521770071e-06
4.521770071e-06
4.521770071e-06
1.236852345e-06
2.103879288e-06
4.019750566e-06
6.828153084e-06
8.834394131e-06
6.828040555e-06
4.01965671e-06
2.103842159e-06
1.236842655e-06
)
;
    }
}


// ************************************************************************* //
