/*--------------------------------*- C++ -*----------------------------------*\
| =========                 |                                                 |
| \\      /  F ield         | OpenFOAM: The Open Source CFD Toolbox           |
|  \\    /   O peration     | Version:  4.x                                   |
|   \\  /    A nd           | Web:      www.OpenFOAM.org                      |
|    \\/     M anipulation  |                                                 |
\*---------------------------------------------------------------------------*/
FoamFile
{
    version     2.0;
    format      ascii;
    class       volScalarField;
    location    "5000";
    object      Cpv;
}
// * * * * * * * * * * * * * * * * * * * * * * * * * * * * * * * * * * * * * //

dimensions      [0 2 -2 -1 0 0 0];

internalField   nonuniform List<scalar> 
1174
(
1210.460106
1210.460342
1210.460671
1210.461101
1210.461624
1210.462241
1210.462924
1210.463663
1210.46443
1210.465225
1210.466005
1210.466766
1210.467485
1210.46805
1210.461063
1210.461454
1210.461951
1210.462583
1210.463312
1210.464107
1210.464927
1210.46578
1210.466633
1210.467455
1210.468255
1210.468978
1210.469659
1210.470171
1210.460887
1210.461588
1210.462449
1210.463403
1210.464452
1210.4655
1210.466509
1210.467475
1210.468374
1210.469221
1210.469982
1210.470674
1210.471265
1210.471716
1210.461364
1210.462408
1210.463594
1210.464876
1210.466167
1210.467387
1210.468519
1210.46952
1210.470407
1210.471201
1210.47189
1210.472452
1210.47294
1210.4733
1210.461809
1210.463066
1210.464429
1210.465806
1210.46712
1210.468356
1210.469489
1210.470498
1210.471355
1210.472096
1210.472728
1210.473268
1210.473704
1210.47399
1210.461546
1210.462602
1210.463826
1210.465109
1210.46639
1210.467585
1210.468715
1210.469709
1210.470601
1210.471361
1210.472041
1210.472611
1210.473089
1210.47345
1210.461147
1210.461842
1210.46269
1210.463626
1210.464633
1210.465657
1210.466681
1210.46766
1210.468566
1210.469402
1210.470145
1210.470824
1210.471417
1210.47185
1210.459883
1210.460261
1210.460794
1210.461416
1210.462137
1210.462926
1210.463753
1210.464567
1210.465431
1210.466272
1210.467061
1210.467813
1210.468479
1210.469001
1210.459937
1210.460197
1210.460526
1210.460953
1210.461477
1210.462097
1210.462781
1210.463542
1210.464333
1210.465101
1210.465877
1210.46666
1210.467375
1210.467953
1210.460097
1210.460344
1210.460748
1210.461238
1210.461847
1210.462566
1210.463378
1210.464214
1210.46506
1210.465907
1210.466723
1210.467512
1210.468256
1210.468902
1210.469432
1210.460034
1210.460708
1210.461524
1210.462456
1210.463422
1210.464409
1210.465348
1210.466256
1210.467129
1210.467899
1210.468625
1210.469283
1210.469872
1210.470311
1210.461856
1210.463155
1210.464596
1210.465985
1210.467291
1210.468471
1210.46953
1210.470417
1210.471169
1210.471802
1210.472335
1210.472795
1210.473184
1210.47345
1210.463938
1210.466113
1210.46819
1210.469993
1210.471457
1210.472648
1210.473558
1210.474246
1210.47474
1210.475101
1210.475385
1210.475594
1210.475725
1210.475798
1210.467591
1210.470204
1210.472449
1210.474212
1210.475561
1210.476556
1210.477239
1210.477716
1210.478033
1210.47822
1210.478324
1210.478363
1210.478315
1210.478311
1210.464398
1210.466579
1210.468642
1210.470456
1210.471957
1210.473129
1210.474028
1210.474729
1210.475244
1210.4756
1210.475843
1210.476033
1210.476155
1210.476215
1210.461895
1210.463216
1210.464636
1210.466077
1210.467393
1210.46857
1210.469607
1210.470486
1210.471258
1210.47189
1210.472397
1210.472885
1210.473261
1210.473501
1210.461054
1210.461723
1210.462547
1210.46347
1210.464428
1210.465394
1210.466306
1210.46723
1210.468103
1210.468885
1210.469618
1210.470285
1210.470849
1210.471287
1210.460442
1210.460812
1210.461307
1210.46194
1210.462676
1210.463445
1210.464282
1210.465137
1210.465971
1210.466783
1210.467568
1210.468312
1210.468994
1210.469501
1210.460373
1210.460855
1210.461545
1210.462395
1210.46336
1210.464368
1210.46539
1210.466394
1210.467383
1210.468283
1210.469123
1210.469881
1210.470556
1210.471146
1210.471571
1210.461897
1210.462959
1210.464267
1210.465703
1210.467108
1210.468428
1210.469614
1210.470663
1210.471548
1210.472301
1210.472953
1210.47349
1210.473905
1210.474286
1210.474576
1210.465867
1210.468642
1210.471137
1210.473166
1210.474747
1210.475868
1210.47661
1210.477088
1210.47737
1210.477515
1210.477533
1210.47751
1210.477454
1210.477382
1210.475018
1210.479685
1210.482911
1210.484804
1210.485708
1210.485923
1210.485671
1210.485199
1210.484564
1210.483869
1210.483193
1210.482519
1210.481933
1210.481466
1210.485794
1210.490467
1210.492465
1210.492818
1210.492227
1210.491152
1210.489943
1210.488652
1210.487395
1210.486231
1210.485167
1210.484197
1210.483395
1210.482761
1210.474224
1210.478884
1210.482093
1210.484018
1210.484926
1210.485106
1210.484868
1210.484366
1210.483733
1210.483046
1210.482375
1210.481689
1210.481104
1210.480646
1210.466518
1210.469291
1210.471772
1210.473808
1210.475378
1210.476498
1210.477242
1210.477679
1210.477951
1210.478064
1210.478097
1210.478046
1210.477984
1210.477939
1210.461538
1210.462848
1210.464262
1210.465658
1210.466978
1210.468181
1210.469236
1210.47014
1210.470899
1210.471543
1210.47206
1210.4725
1210.47285
1210.473141
1210.460689
1210.461381
1210.462219
1210.463162
1210.464165
1210.4652
1210.466217
1210.467177
1210.468091
1210.468919
1210.469695
1210.470368
1210.470952
1210.471417
1210.460511
1210.461309
1210.462371
1210.463587
1210.464853
1210.466111
1210.467354
1210.468474
1210.469474
1210.47036
1210.47114
1210.471824
1210.472415
1210.47288
1210.473246
1210.462174
1210.464202
1210.466373
1210.46846
1210.470263
1210.471754
1210.472946
1210.473856
1210.474528
1210.475024
1210.475405
1210.47565
1210.47584
1210.47597
1210.476044
1210.468398
1210.47409
1210.478755
1210.481947
1210.483852
1210.484776
1210.484955
1210.484722
1210.484229
1210.483586
1210.482927
1210.482216
1210.481587
1210.481013
1210.480547
1210.503925
1210.50979
1210.510772
1210.509079
1210.506211
1210.502976
1210.499814
1210.496909
1210.494322
1210.492037
1210.490071
1210.488385
1210.486951
1210.485936
1210.558227
1210.55092
1210.539581
1210.528698
1210.519474
1210.51197
1210.505889
1210.501011
1210.497005
1210.493721
1210.490991
1210.488762
1210.486892
1210.485592
1210.502694
1210.508595
1210.509591
1210.507935
1210.50507
1210.501825
1210.498679
1210.495747
1210.493129
1210.490857
1210.488869
1210.487174
1210.485744
1210.484694
1210.473962
1210.478628
1210.481891
1210.483769
1210.484628
1210.484838
1210.484558
1210.484077
1210.483468
1210.48278
1210.482121
1210.481486
1210.480893
1210.480458
1210.464921
1210.467114
1210.469196
1210.47101
1210.472502
1210.4737
1210.474642
1210.475316
1210.475819
1210.476194
1210.476459
1210.476647
1210.476777
1210.476813
1210.461444
1210.462504
1210.46371
1210.464986
1210.466249
1210.46746
1210.468565
1210.469573
1210.470486
1210.471266
1210.471954
1210.472535
1210.473011
1210.473368
1210.461052
1210.462077
1210.463316
1210.464705
1210.466092
1210.467403
1210.468648
1210.469768
1210.470747
1210.471628
1210.472365
1210.47297
1210.473514
1210.473957
1210.474265
1210.464032
1210.466785
1210.469406
1210.47162
1210.473369
1210.474694
1210.475682
1210.476375
1210.476851
1210.477159
1210.477369
1210.477458
1210.477498
1210.477493
1210.477484
1210.477174
1210.485442
1210.490101
1210.492101
1210.492427
1210.491841
1210.49084
1210.489589
1210.488332
1210.487056
1210.485905
1210.484823
1210.48385
1210.482983
1210.482362
1210.548695
1210.558763
1210.551398
1210.540123
1210.529251
1210.520015
1210.512493
1210.50645
1210.501532
1210.49752
1210.49426
1210.491558
1210.489304
1210.48744
1210.48611
1209.871717
1209.747729
1209.678663
1209.637903
1209.612365
1209.595372
1209.583451
1209.574661
1209.567928
1209.562557
1209.55815
1209.554477
1209.551387
1209.549
1210.558589
1210.551239
1210.539915
1210.529053
1210.519815
1210.512275
1210.50619
1210.501247
1210.497225
1210.493944
1210.491252
1210.488995
1210.487162
1210.485835
1210.485641
1210.490288
1210.492284
1210.492641
1210.492072
1210.49103
1210.489802
1210.488499
1210.487255
1210.486076
1210.484976
1210.484029
1210.483177
1210.482519
1210.466264
1210.468867
1210.471096
1210.472864
1210.474206
1210.4752
1210.475927
1210.476393
1210.476732
1210.476935
1210.47705
1210.477096
1210.477064
1210.476994
1210.461902
1210.463165
1210.464542
1210.465917
1210.467227
1210.468453
1210.469586
1210.470577
1210.471444
1210.472181
1210.472803
1210.473331
1210.473768
1210.47409
1210.461451
1210.462266
1210.463319
1210.464526
1210.465824
1210.467091
1210.468286
1210.469385
1210.470391
1210.471272
1210.472052
1210.47275
1210.473328
1210.473832
1210.474177
1210.462479
1210.464482
1210.466669
1210.46874
1210.470515
1210.471989
1210.473191
1210.474099
1210.474785
1210.475302
1210.475675
1210.47593
1210.476092
1210.476224
1210.476315
1210.468975
1210.474672
1210.479341
1210.482569
1210.484494
1210.485391
1210.485581
1210.485354
1210.484849
1210.484203
1210.483536
1210.482844
1210.482187
1210.481589
1210.481143
1210.489266
1210.502438
1210.508323
1210.509332
1210.507659
1210.504789
1210.501567
1210.498407
1210.495494
1210.49291
1210.490642
1210.488679
1210.486987
1210.485573
1210.484554
1210.549295
1210.559355
1210.55198
1210.540645
1210.529803
1210.520563
1210.513016
1210.506931
1210.502024
1210.498029
1210.494741
1210.492038
1210.489788
1210.487929
1210.486638
1210.489215
1210.502402
1210.508302
1210.509303
1210.507639
1210.50478
1210.501539
1210.498423
1210.495524
1210.492959
1210.490683
1210.488734
1210.487046
1210.485617
1210.4846
1210.474392
1210.47907
1210.482305
1210.484205
1210.485112
1210.485329
1210.485089
1210.484578
1210.483937
1210.483252
1210.48258
1210.481949
1210.481362
1210.480865
1210.46471
1210.466885
1210.468935
1210.470753
1210.47224
1210.47343
1210.474347
1210.475015
1210.475525
1210.475864
1210.476138
1210.476317
1210.47644
1210.47654
1210.461448
1210.462507
1210.463714
1210.465006
1210.466257
1210.467478
1210.468595
1210.469611
1210.470524
1210.471307
1210.471978
1210.47254
1210.473029
1210.473364
1210.460094
1210.460559
1210.461232
1210.462094
1210.463059
1210.464094
1210.465136
1210.466157
1210.467138
1210.468027
1210.468858
1210.469607
1210.470285
1210.470858
1210.471302
1210.460774
1210.461827
1210.463117
1210.464534
1210.465943
1210.467276
1210.468447
1210.469486
1210.470357
1210.471145
1210.471786
1210.472319
1210.47277
1210.47315
1210.473409
1210.463761
1210.466381
1210.469147
1210.471652
1210.47372
1210.475289
1210.476386
1210.477136
1210.47761
1210.47787
1210.477975
1210.47799
1210.477939
1210.477837
1210.477789
1210.468669
1210.474377
1210.479036
1210.482261
1210.484147
1210.485061
1210.485271
1210.485041
1210.484537
1210.48392
1210.48323
1210.482567
1210.481926
1210.481333
1210.480885
1210.476991
1210.485229
1210.489858
1210.49185
1210.492229
1210.491672
1210.490622
1210.48936
1210.48809
1210.486834
1210.485661
1210.484568
1210.483594
1210.482758
1210.482144
1210.468764
1210.474493
1210.479178
1210.482389
1210.484259
1210.48517
1210.485332
1210.485115
1210.484613
1210.483972
1210.483266
1210.482569
1210.481912
1210.481325
1210.48088
1210.463305
1210.465936
1210.468673
1210.471153
1210.473145
1210.474723
1210.47585
1210.476591
1210.477064
1210.477337
1210.477454
1210.477471
1210.47745
1210.477405
1210.477355
1210.462401
1210.463735
1210.465177
1210.466614
1210.467919
1210.469127
1210.470202
1210.471099
1210.471887
1210.472525
1210.473078
1210.473518
1210.473886
1210.474144
1210.460677
1210.461364
1210.46219
1210.463153
1210.464152
1210.465217
1210.466209
1210.467164
1210.468075
1210.4689
1210.469647
1210.47033
1210.470909
1210.471377
1210.460084
1210.460327
1210.460701
1210.461207
1210.461827
1210.462543
1210.463362
1210.464188
1210.465043
1210.465895
1210.466724
1210.467514
1210.468258
1210.468929
1210.469472
1210.460348
1210.460848
1210.461531
1210.462344
1210.463247
1210.464207
1210.465165
1210.466124
1210.467023
1210.467858
1210.468659
1210.469385
1210.470032
1210.470585
1210.471
1210.460888
1210.461942
1210.463291
1210.46471
1210.466102
1210.46746
1210.468628
1210.46969
1210.470575
1210.471323
1210.471965
1210.472505
1210.472991
1210.473354
1210.473637
1210.462524
1210.464529
1210.466718
1210.468768
1210.47059
1210.472082
1210.473249
1210.474164
1210.474829
1210.475348
1210.475711
1210.475998
1210.476185
1210.476309
1210.476399
1210.463345
1210.466101
1210.468723
1210.470942
1210.472701
1210.47404
1210.475039
1210.475733
1210.476229
1210.476542
1210.476729
1210.476852
1210.47686
1210.476886
1210.476906
1210.462475
1210.46448
1210.466648
1210.468735
1210.47053
1210.472021
1210.473207
1210.474108
1210.474798
1210.475306
1210.475671
1210.475936
1210.476131
1210.476265
1210.476335
1210.459744
1210.460815
1210.462133
1210.463564
1210.465011
1210.466328
1210.467552
1210.46858
1210.469494
1210.470231
1210.470859
1210.471391
1210.471838
1210.472177
1210.472435
1210.459098
1210.459569
1210.460246
1210.461061
1210.461995
1210.462948
1210.463928
1210.464893
1210.465802
1210.466664
1210.467451
1210.468194
1210.468849
1210.46943
1210.469897
1210.460111
1210.460478
1210.46101
1210.461639
1210.462356
1210.463132
1210.463964
1210.464812
1210.465643
1210.466458
1210.467234
1210.467986
1210.468674
1210.469191
1210.459481
1210.459652
1210.459888
1210.460221
1210.460647
1210.4612
1210.461831
1210.462537
1210.463286
1210.464056
1210.464846
1210.465618
1210.466367
1210.467067
1210.467631
1210.46034
1210.460578
1210.46094
1210.461446
1210.462074
1210.462789
1210.46358
1210.464405
1210.465243
1210.466101
1210.46692
1210.467706
1210.468447
1210.469149
1210.469685
1210.46064
1210.461128
1210.461797
1210.46264
1210.4636
1210.464608
1210.465623
1210.466636
1210.467584
1210.468483
1210.469322
1210.470075
1210.470756
1210.471335
1210.471789
1210.460642
1210.461472
1210.462503
1210.463743
1210.464997
1210.466263
1210.467465
1210.468587
1210.469608
1210.470491
1210.471272
1210.471961
1210.472558
1210.47304
1210.473375
1210.460478
1210.461511
1210.462765
1210.464158
1210.465556
1210.466892
1210.468135
1210.469242
1210.470239
1210.471089
1210.471834
1210.472451
1210.472998
1210.47344
1210.473748
1210.460385
1210.46117
1210.462221
1210.46343
1210.464718
1210.465995
1210.467228
1210.468348
1210.469353
1210.470247
1210.47101
1210.471666
1210.472272
1210.47276
1210.473122
1210.460315
1210.460798
1210.461493
1210.462325
1210.463257
1210.464291
1210.465321
1210.466316
1210.467287
1210.46819
1210.468982
1210.469749
1210.470417
1210.47104
1210.471495
1210.460372
1210.460654
1210.461015
1210.461516
1210.462139
1210.462829
1210.463655
1210.464475
1210.465316
1210.466141
1210.466969
1210.467749
1210.468492
1210.469185
1210.469691
1210.459814
1210.459968
1210.460228
1210.460566
1210.461003
1210.461539
1210.462154
1210.462836
1210.463597
1210.464379
1210.465178
1210.465967
1210.466729
1210.467454
1210.468025
)
;

boundaryField
{
    top
    {
        type            calculated;
        value           nonuniform List<scalar> 
127
(
1210.459814
1210.459937
1210.460442
1210.460689
1210.461444
1210.461902
1210.461448
1210.460677
1210.460111
1210.459968
1210.460197
1210.460812
1210.461381
1210.462504
1210.463165
1210.462507
1210.461364
1210.460478
1210.460228
1210.460526
1210.461307
1210.462219
1210.46371
1210.464542
1210.463714
1210.46219
1210.46101
1210.460566
1210.460953
1210.46194
1210.463162
1210.464986
1210.465917
1210.465006
1210.463153
1210.461639
1210.461003
1210.461477
1210.462676
1210.464165
1210.466249
1210.467227
1210.466257
1210.464152
1210.462356
1210.461539
1210.462097
1210.463445
1210.4652
1210.46746
1210.468453
1210.467478
1210.465217
1210.463132
1210.462154
1210.462781
1210.464282
1210.466217
1210.468565
1210.469586
1210.468595
1210.466209
1210.463964
1210.462836
1210.463542
1210.465137
1210.467177
1210.469573
1210.470577
1210.469611
1210.467164
1210.464812
1210.463597
1210.464333
1210.465971
1210.468091
1210.470486
1210.471444
1210.470524
1210.468075
1210.465643
1210.464379
1210.465101
1210.466783
1210.468919
1210.471266
1210.472181
1210.471307
1210.4689
1210.466458
1210.465178
1210.465877
1210.467568
1210.469695
1210.471954
1210.472803
1210.471978
1210.469647
1210.467234
1210.465967
1210.46666
1210.468312
1210.470368
1210.472535
1210.473331
1210.47254
1210.47033
1210.467986
1210.466729
1210.467375
1210.468994
1210.470952
1210.473011
1210.473768
1210.473029
1210.470909
1210.468674
1210.467454
1210.467953
1210.469501
1210.471417
1210.473368
1210.47409
1210.473364
1210.471377
1210.469191
1210.468025
)
;
    }
    bottom
    {
        type            calculated;
        value           nonuniform List<scalar> 
134
(
1210.460097
1210.460373
1210.460511
1210.461052
1210.461451
1210.460094
1210.460084
1210.459481
1210.460106
1210.460344
1210.460855
1210.461309
1210.462077
1210.462266
1210.460559
1210.460327
1210.459652
1210.460342
1210.460748
1210.461545
1210.462371
1210.463316
1210.463319
1210.461232
1210.460701
1210.459888
1210.460671
1210.461238
1210.462395
1210.463587
1210.464705
1210.464526
1210.462094
1210.461207
1210.460221
1210.461101
1210.461847
1210.46336
1210.464853
1210.466092
1210.465824
1210.463059
1210.461827
1210.460647
1210.461624
1210.462566
1210.464368
1210.466111
1210.467403
1210.467091
1210.464094
1210.462543
1210.4612
1210.462241
1210.463378
1210.46539
1210.467354
1210.468648
1210.468286
1210.465136
1210.463362
1210.461831
1210.462924
1210.464214
1210.466394
1210.468474
1210.469768
1210.469385
1210.466157
1210.464188
1210.462537
1210.463663
1210.46506
1210.467383
1210.469474
1210.470747
1210.470391
1210.467138
1210.465043
1210.463286
1210.46443
1210.465907
1210.468283
1210.47036
1210.471628
1210.471272
1210.468027
1210.465895
1210.464056
1210.465225
1210.466723
1210.469123
1210.47114
1210.472365
1210.472052
1210.468858
1210.466724
1210.464846
1210.466005
1210.467512
1210.469881
1210.471824
1210.47297
1210.47275
1210.469607
1210.467514
1210.465618
1210.466766
1210.468256
1210.470556
1210.472415
1210.473514
1210.473328
1210.470285
1210.468258
1210.466367
1210.467485
1210.468902
1210.471146
1210.47288
1210.473957
1210.473832
1210.470858
1210.468929
1210.467067
1210.46805
1210.469432
1210.471571
1210.473246
1210.474265
1210.474177
1210.471302
1210.469472
1210.467631
)
;
    }
    side-walls
    {
        type            calculated;
        value           nonuniform List<scalar> 
261
(
1210.460106
1210.461063
1210.460887
1210.461364
1210.461809
1210.461546
1210.461147
1210.459883
1210.459937
1210.460342
1210.461454
1210.461588
1210.462408
1210.463066
1210.462602
1210.461842
1210.460261
1210.460197
1210.460671
1210.461951
1210.462449
1210.463594
1210.464429
1210.463826
1210.46269
1210.460794
1210.460526
1210.461101
1210.462583
1210.463403
1210.464876
1210.465806
1210.465109
1210.463626
1210.461416
1210.460953
1210.461624
1210.463312
1210.464452
1210.466167
1210.46712
1210.46639
1210.464633
1210.462137
1210.461477
1210.462241
1210.464107
1210.4655
1210.467387
1210.468356
1210.467585
1210.465657
1210.462926
1210.462097
1210.462924
1210.464927
1210.466509
1210.468519
1210.469489
1210.468715
1210.466681
1210.463753
1210.462781
1210.463663
1210.46578
1210.467475
1210.46952
1210.470498
1210.469709
1210.46766
1210.464567
1210.463542
1210.46443
1210.466633
1210.468374
1210.470407
1210.471355
1210.470601
1210.468566
1210.465431
1210.464333
1210.465225
1210.467455
1210.469221
1210.471201
1210.472096
1210.471361
1210.469402
1210.466272
1210.465101
1210.466005
1210.468255
1210.469982
1210.47189
1210.472728
1210.472041
1210.470145
1210.467061
1210.465877
1210.466766
1210.468978
1210.470674
1210.472452
1210.473268
1210.472611
1210.470824
1210.467813
1210.46666
1210.467485
1210.469659
1210.471265
1210.47294
1210.473704
1210.473089
1210.471417
1210.468479
1210.467375
1210.46805
1210.470171
1210.471716
1210.4733
1210.47399
1210.47345
1210.47185
1210.469001
1210.467953
1210.459481
1210.46034
1210.46064
1210.460642
1210.460478
1210.460385
1210.460315
1210.460372
1210.459814
1210.459652
1210.460578
1210.461128
1210.461472
1210.461511
1210.46117
1210.460798
1210.460654
1210.459968
1210.459888
1210.46094
1210.461797
1210.462503
1210.462765
1210.462221
1210.461493
1210.461015
1210.460228
1210.460221
1210.461446
1210.46264
1210.463743
1210.464158
1210.46343
1210.462325
1210.461516
1210.460566
1210.460647
1210.462074
1210.4636
1210.464997
1210.465556
1210.464718
1210.463257
1210.462139
1210.461003
1210.4612
1210.462789
1210.464608
1210.466263
1210.466892
1210.465995
1210.464291
1210.462829
1210.461539
1210.461831
1210.46358
1210.465623
1210.467465
1210.468135
1210.467228
1210.465321
1210.463655
1210.462154
1210.462537
1210.464405
1210.466636
1210.468587
1210.469242
1210.468348
1210.466316
1210.464475
1210.462836
1210.463286
1210.465243
1210.467584
1210.469608
1210.470239
1210.469353
1210.467287
1210.465316
1210.463597
1210.464056
1210.466101
1210.468483
1210.470491
1210.471089
1210.470247
1210.46819
1210.466141
1210.464379
1210.464846
1210.46692
1210.469322
1210.471272
1210.471834
1210.47101
1210.468982
1210.466969
1210.465178
1210.465618
1210.467706
1210.470075
1210.471961
1210.472451
1210.471666
1210.469749
1210.467749
1210.465967
1210.466367
1210.468447
1210.470756
1210.472558
1210.472998
1210.472272
1210.470417
1210.468492
1210.466729
1210.467067
1210.469149
1210.471335
1210.47304
1210.47344
1210.47276
1210.47104
1210.469185
1210.467454
1210.467631
1210.469685
1210.471789
1210.473375
1210.473748
1210.473122
1210.471495
1210.469691
1210.468025
)
;
    }
    inlet
    {
        type            calculated;
        value           nonuniform 0();
    }
    outlet
    {
        type            calculated;
        value           nonuniform List<scalar> 
81
(
1210.46805
1210.470171
1210.471716
1210.4733
1210.47399
1210.47345
1210.47185
1210.469001
1210.467953
1210.469432
1210.470311
1210.47345
1210.475798
1210.478311
1210.476215
1210.473501
1210.471287
1210.469501
1210.471571
1210.474576
1210.477382
1210.481466
1210.482761
1210.480646
1210.477939
1210.473141
1210.471417
1210.473246
1210.476044
1210.480547
1210.485936
1210.485592
1210.484694
1210.480458
1210.476813
1210.473368
1210.474265
1210.477484
1210.482362
1210.48611
1209.549
1210.485835
1210.482519
1210.476994
1210.47409
1210.474177
1210.476315
1210.481143
1210.484554
1210.486638
1210.4846
1210.480865
1210.47654
1210.473364
1210.471302
1210.473409
1210.477789
1210.480885
1210.482144
1210.48088
1210.477355
1210.474144
1210.471377
1210.469472
1210.471
1210.473637
1210.476399
1210.476906
1210.476335
1210.472435
1210.469897
1210.469191
1210.467631
1210.469685
1210.471789
1210.473375
1210.473748
1210.473122
1210.471495
1210.469691
1210.468025
)
;
    }
    procBoundary1to0
    {
        type            processor;
        value           nonuniform List<scalar> 
97
(
1210.459961
1210.459961
1210.460806
1210.460399
1210.46056
1210.460752
1210.460741
1210.460644
1210.459617
1210.459785
1210.459945
1210.459546
1210.459546
1210.459546
1210.460792
1210.461931
1210.464833
1210.462402
1210.460847
1210.460572
1210.460183
1210.460088
1210.461188
1210.463224
1210.463224
1210.463224
1210.469305
1210.477552
1210.468517
1210.463882
1210.460455
1210.460214
1210.459969
1210.46071
1210.463174
1210.490721
1210.490721
1210.490721
1210.548151
1210.489481
1210.468279
1210.46292
1210.460623
1210.460356
1210.461702
1210.466158
1210.484074
1210.106208
1210.106208
1210.106208
1210.548524
1210.548524
1210.477367
1210.4635
1210.46089
1210.460914
1210.461024
1210.463725
1210.469776
1210.484675
1210.469732
1210.468665
1210.468665
1210.468665
1210.46269
1210.460633
1210.45982
1210.460071
1210.461735
1210.463424
1210.465954
1210.463494
1210.461329
1210.461351
1210.461351
1210.461351
1210.460218
1210.459909
1210.460014
1210.460193
1210.461054
1210.460987
1210.460982
1210.459072
1210.458797
1210.45985
1210.45985
1210.45985
1210.459378
1210.460198
1210.460335
1210.460102
1210.459816
1210.459886
1210.459993
1210.46023
1210.459733
)
;
    }
}


// ************************************************************************* //
