/*--------------------------------*- C++ -*----------------------------------*\
| =========                 |                                                 |
| \\      /  F ield         | OpenFOAM: The Open Source CFD Toolbox           |
|  \\    /   O peration     | Version:  4.x                                   |
|   \\  /    A nd           | Web:      www.OpenFOAM.org                      |
|    \\/     M anipulation  |                                                 |
\*---------------------------------------------------------------------------*/
FoamFile
{
    version     2.0;
    format      ascii;
    class       surfaceScalarField;
    location    "5000";
    object      phi;
}
// * * * * * * * * * * * * * * * * * * * * * * * * * * * * * * * * * * * * * //

dimensions      [1 0 -1 0 0 0 0];

internalField   nonuniform List<scalar> 
3172
(
9.475527956e-06
-2.070965779e-11
-2.078967955e-11
9.475567003e-06
-2.00517865e-11
-1.940268318e-11
9.475595425e-06
-1.479416828e-11
-1.473829361e-11
9.475620549e-06
-1.015173226e-11
-7.617225182e-12
9.47563289e-06
-6.81026057e-12
-6.581022407e-12
9.475641421e-06
-2.86357661e-12
-3.340125997e-12
9.475642917e-06
-1.026911847e-12
-2.744949671e-12
9.475645072e-06
2.502746335e-13
-7.994928402e-13
9.475644725e-06
6.675054626e-13
2.557693897e-12
9.475642149e-06
1.748860723e-12
3.723636216e-12
9.475635625e-06
3.35321043e-12
3.91446877e-12
9.475628668e-06
3.072130299e-12
2.985757128e-12
9.475619411e-06
4.793987241e-12
4.063267771e-12
3.481044553e-12
4.132237555e-12
9.475504631e-06
-3.757128498e-11
-2.618323485e-11
9.475543276e-06
-3.493721951e-11
-2.616103081e-11
9.475570975e-06
-2.477781332e-11
-1.771384923e-11
9.475587993e-06
-1.498241554e-11
-1.06399806e-11
9.475597061e-06
-1.014889435e-11
-6.188052373e-12
9.475599446e-06
-6.024016647e-12
-1.887304255e-12
9.475597542e-06
-3.233359453e-12
-5.817289086e-13
9.475593864e-06
3.723494539e-14
1.460161668e-12
9.47559326e-06
3.134343458e-12
4.991567132e-12
9.475588253e-06
3.276912992e-12
3.131010142e-12
9.475582054e-06
5.099610489e-12
3.750927232e-12
9.475575145e-06
6.036047965e-12
3.946401164e-12
9.475569841e-06
6.714693275e-12
5.66715387e-12
7.155721125e-12
5.678903842e-12
9.475572091e-06
-3.551075538e-11
-4.813618711e-11
9.475611455e-06
-3.358083342e-11
-4.470096076e-11
9.47563264e-06
-2.007637504e-11
-2.547904722e-11
9.475636559e-06
-1.249496961e-11
-1.2519615e-11
9.475634145e-06
-8.982216394e-12
-2.56430313e-12
9.475628364e-06
-2.306680065e-12
2.476874701e-12
9.475621523e-06
1.466651818e-13
3.797076209e-12
9.475616298e-06
1.656510106e-12
5.167755806e-12
9.475611504e-06
1.940477252e-12
4.763557937e-12
9.475605494e-06
3.723661423e-12
6.61995821e-12
9.475600483e-06
5.790494043e-12
4.782607073e-12
9.475593146e-06
5.298659001e-12
4.464011613e-12
9.475590728e-06
6.054424902e-12
7.120610793e-12
6.582935923e-12
5.22667336e-12
9.475611147e-06
-2.386505828e-11
-3.226611197e-11
9.475645777e-06
-1.676848572e-11
-4.787458658e-11
9.475656201e-06
-9.087235647e-12
-2.177556632e-11
9.47565338e-06
-4.512500853e-12
-5.130781246e-12
9.475649003e-06
-2.952407344e-12
3.580364904e-12
9.475636294e-06
-2.956567613e-12
7.86535271e-12
9.475627957e-06
-1.144225724e-12
9.150194538e-12
9.475619852e-06
-1.543281772e-14
1.045477062e-11
9.475616024e-06
1.344538032e-12
9.338136087e-12
9.475612469e-06
8.546682373e-13
8.091031592e-12
9.475608632e-06
5.454072718e-13
5.750740921e-12
9.475603291e-06
6.004028931e-13
4.767884431e-12
9.475602127e-06
2.406128271e-12
7.928337687e-12
8.978846109e-13
5.999978061e-12
9.475673017e-06
2.336829873e-11
-5.566246032e-11
9.475682263e-06
1.674898382e-11
-4.604271212e-11
9.475674599e-06
8.024285875e-12
-1.277362634e-11
9.47566344e-06
4.312411363e-12
5.178810828e-12
9.475653305e-06
3.129383154e-12
1.036378212e-11
9.475641712e-06
2.349773149e-12
1.312193283e-11
9.475632119e-06
1.102416185e-12
1.1438927e-11
9.47562361e-06
2.231662675e-12
1.062744538e-11
9.475616865e-06
1.684353281e-12
8.425208307e-12
9.475616021e-06
-4.32080072e-13
7.875918103e-12
9.475611452e-06
-3.323019114e-12
5.720481831e-12
9.475606905e-06
-2.394696429e-12
5.184130792e-12
9.475603801e-06
-1.843345743e-12
7.442726228e-12
-1.691634807e-12
6.400308683e-12
9.475601394e-06
3.634742726e-11
-3.245455624e-11
9.475633049e-06
3.210279982e-11
-4.955554837e-11
9.475644437e-06
1.911151034e-11
-2.317345141e-11
9.47564329e-06
9.851811528e-12
-5.22253607e-12
9.4756368e-06
6.669090799e-12
4.095239139e-12
9.475625196e-06
1.789737558e-12
7.497432799e-12
9.47561889e-06
1.124330235e-12
9.149510761e-12
9.475613513e-06
-7.880301748e-13
9.59508652e-12
9.475604442e-06
-3.044550108e-12
8.234369121e-12
9.475602805e-06
-1.991209637e-12
8.288229325e-12
9.475601234e-06
-3.341854493e-12
7.751810264e-12
9.475597452e-06
-3.096094354e-12
7.067243335e-12
9.475593111e-06
-5.088651284e-12
7.999727885e-12
-4.100450571e-12
7.384804991e-12
9.475557258e-06
3.526743592e-11
-4.795752564e-11
9.475597577e-06
3.269441475e-11
-4.503416864e-11
9.475618857e-06
2.496757245e-11
-2.330520299e-11
9.475626721e-06
1.615169616e-11
-1.03105303e-11
9.475624578e-06
8.015995521e-12
-4.018960606e-12
9.475620509e-06
2.986331451e-12
2.170528112e-12
9.475612121e-06
-8.479802906e-13
5.101580764e-12
9.475605142e-06
-2.037485686e-12
4.77182752e-12
9.475600366e-06
-2.385150968e-12
5.506310365e-12
9.475595107e-06
-3.417347158e-12
4.716355249e-12
9.475592416e-06
-4.217004425e-12
6.896227376e-12
9.475587301e-06
-5.589799006e-12
5.953272907e-12
9.475581595e-06
-6.494987656e-12
7.141985694e-12
-5.883363779e-12
6.970183802e-12
9.475562254e-06
1.99805997e-11
-2.333475273e-11
9.47560506e-06
1.948918621e-11
-2.510103047e-11
9.475630933e-06
1.423469603e-11
-1.846661112e-11
9.475647834e-06
9.555537186e-12
-1.070310223e-11
9.475657684e-06
6.940342274e-12
-5.861327903e-12
9.47566194e-06
4.318247726e-12
-1.064359853e-12
9.475662133e-06
1.544151524e-12
2.36841721e-12
9.475659537e-06
-4.15757474e-13
2.69438386e-12
9.475654728e-06
-3.305018593e-12
3.868923853e-12
9.475649296e-06
-3.268145361e-12
4.374683754e-12
9.47564314e-06
-3.144580788e-12
4.959497636e-12
9.475637622e-06
-3.547840392e-12
5.25721099e-12
9.475628797e-06
-5.325938882e-12
5.048037804e-12
-3.768105118e-12
5.950322214e-12
9.475533663e-06
-1.943784047e-11
9.475574884e-06
-1.980350265e-11
9.475602214e-06
-1.686017899e-11
9.475626128e-06
-9.236271971e-12
9.475640295e-06
-5.870075597e-12
9.475649232e-06
-2.839401512e-12
9.475653135e-06
1.459294776e-12
9.475652247e-06
1.071282385e-12
9.475650673e-06
3.523257012e-12
9.47564665e-06
3.206475082e-12
9.475641216e-06
4.07846474e-12
9.475634677e-06
5.093295178e-12
9.475626969e-06
5.50870877e-12
6.132219233e-12
9.475502127e-06
-7.444797533e-11
9.475541693e-06
-2.498347151e-11
-3.61076513e-11
9.475580174e-06
-2.604044209e-11
-3.506587558e-11
9.475609869e-06
-1.740525043e-11
-2.394250965e-11
9.47562647e-06
-1.162996184e-11
-1.588116743e-11
9.475636403e-06
-5.957417463e-12
-8.662727655e-12
9.475635368e-06
-1.698248463e-12
-4.754990541e-12
9.475636429e-06
2.094394777e-12
-1.308775279e-12
9.475635499e-06
3.205775511e-12
1.49066182e-12
9.475631618e-06
3.992868633e-12
3.115273235e-12
9.475625947e-06
3.660497997e-12
4.259801794e-12
9.47561941e-06
4.533312312e-12
6.614034951e-12
9.475615323e-06
5.787998694e-12
5.18214902e-12
9.475607105e-06
7.968142813e-12
6.794303347e-12
5.428774878e-12
6.596110295e-12
9.475608233e-06
-3.992862294e-11
-4.127849051e-11
9.475642764e-06
-4.529733172e-11
-4.530668837e-11
9.47566456e-06
-2.877246533e-11
-2.837627873e-11
9.475674159e-06
-1.5415771e-11
-1.618726395e-11
9.475674488e-06
-6.668531229e-12
-8.114584405e-12
9.475671962e-06
-1.242201772e-12
-9.898566022e-13
9.475667879e-06
1.665203091e-12
1.617402453e-12
9.475665055e-06
4.141973882e-12
4.569813281e-12
9.475658957e-06
3.982983297e-12
4.881649686e-12
9.475656347e-06
6.957225793e-12
5.771910993e-12
9.475651459e-06
7.315944959e-12
7.699741537e-12
9.475646893e-06
7.629333668e-12
6.201432259e-12
9.475639316e-06
8.903333005e-12
7.51144343e-12
8.275950821e-12
7.556408007e-12
9.475634887e-06
-3.493429093e-11
-8.068026482e-11
9.475657375e-06
-3.890681339e-11
-7.371149805e-11
9.475660646e-06
-1.887080178e-11
-3.381322539e-11
9.475652864e-06
-7.387233451e-12
-1.071578165e-11
9.475641655e-06
-2.24656153e-12
1.004799875e-12
9.475631359e-06
2.230465162e-12
7.767215145e-12
9.475625241e-06
5.135172446e-12
1.236196066e-11
9.475619812e-06
6.667513612e-12
1.155527112e-11
9.475618786e-06
6.981451489e-12
1.110107232e-11
9.475615526e-06
5.722472223e-12
8.658136844e-12
9.475612803e-06
5.835039244e-12
9.006843132e-12
9.475610788e-06
5.313599431e-12
8.34115642e-12
9.475608016e-06
6.365662161e-12
9.828802674e-12
7.034009388e-12
9.308881693e-12
9.47566455e-06
-9.836884234e-12
-1.12973232e-11
9.475667763e-06
-1.698279401e-11
-7.613480939e-11
9.475656305e-06
-8.49143608e-12
-2.306605202e-11
9.475640315e-06
-1.060388593e-12
7.111970532e-12
9.475626496e-06
8.817321925e-13
1.655687123e-11
9.475615139e-06
1.092814289e-12
1.943810478e-11
9.475611803e-06
1.611485141e-12
1.9345173e-11
9.475608658e-06
1.620249641e-12
1.55467132e-11
9.475609458e-06
1.878068369e-12
1.36540106e-11
9.475611491e-06
2.119306661e-12
1.062006353e-11
9.475611306e-06
2.52596263e-12
8.416555624e-12
9.475612039e-06
2.426677212e-12
6.815202276e-12
9.475611299e-06
2.869523864e-12
1.031761671e-11
2.256114721e-12
1.018059558e-11
9.475676822e-06
7.997052575e-12
6.138206009e-11
9.475618731e-06
1.451355984e-11
-1.944806912e-11
9.475580462e-06
4.462125018e-12
1.486387269e-11
9.475550261e-06
8.140038081e-13
3.260067091e-11
9.475535911e-06
-2.007623306e-13
2.896426799e-11
9.475524987e-06
-2.091037673e-12
2.365694314e-11
9.475523879e-06
-2.23005447e-12
1.967917362e-11
9.475522396e-06
-1.337173365e-12
1.544352849e-11
9.475523705e-06
2.162845191e-13
1.314412191e-11
9.475527266e-06
-1.376039232e-13
9.674617277e-12
9.475528422e-06
-2.481584331e-12
6.080443595e-12
9.475531957e-06
-2.485463303e-12
5.022457145e-12
9.475534336e-06
-2.421611472e-12
9.79183209e-12
-1.310790579e-12
9.834350674e-12
9.47563878e-06
3.471738944e-11
-1.071461359e-11
9.475644034e-06
4.017756685e-11
-7.552358626e-11
9.47563318e-06
2.060885466e-11
-2.161809737e-11
9.475615533e-06
6.48513164e-12
7.000678401e-12
9.475600991e-06
-1.235280305e-12
1.591347644e-11
9.475590664e-06
-3.2470425e-12
1.961139508e-11
9.475587064e-06
-4.084601349e-12
1.85281125e-11
9.47558321e-06
-6.188187427e-12
1.523837588e-11
9.475582753e-06
-6.580952455e-12
1.2712732e-11
9.475584014e-06
-6.508629303e-12
9.641087911e-12
9.475587313e-06
-5.101199869e-12
8.463715298e-12
9.475589866e-06
-4.147606361e-12
6.834100353e-12
9.475589643e-06
-6.812891219e-12
1.12135051e-11
-6.292412948e-12
1.085429047e-11
9.475629165e-06
4.082133177e-11
-7.89065926e-11
9.475653889e-06
4.457073179e-11
-7.285846426e-11
9.47565459e-06
2.864721368e-11
-3.305182368e-11
9.4756469e-06
1.668811505e-11
-8.90033648e-12
9.475635926e-06
7.446042299e-12
1.685122705e-12
9.475625579e-06
4.108198927e-13
8.755089885e-12
9.47561873e-06
-2.796870293e-12
9.957713674e-12
9.475614511e-06
-3.885268442e-12
9.893742324e-12
9.475611111e-06
-4.191466644e-12
9.582343403e-12
9.475611922e-06
-4.863271898e-12
9.907332045e-12
9.475610414e-06
-5.845743587e-12
9.722185649e-12
9.475606652e-06
-6.981379412e-12
7.969878174e-12
9.475604986e-06
-8.985211765e-12
1.020947438e-11
-7.070765924e-12
1.023904742e-11
9.475551113e-06
2.478754771e-11
-4.171478919e-11
9.475589772e-06
2.538143081e-11
-4.466290387e-11
9.475611151e-06
1.641484563e-11
-2.775202138e-11
9.475620927e-06
1.132380266e-11
-1.449560106e-11
9.475621955e-06
6.875612321e-12
-7.365890161e-12
9.475619931e-06
2.145200805e-12
-9.898905902e-13
9.475618238e-06
-1.942923338e-13
3.981040235e-12
9.475614393e-06
-2.096919113e-12
5.254020763e-12
9.475608527e-06
-3.510507939e-12
5.295355245e-12
9.4756034e-06
-4.364399295e-12
5.912842616e-12
9.475598577e-06
-3.895163174e-12
7.16107099e-12
9.475593824e-06
-4.452046315e-12
6.935267991e-12
9.475592058e-06
-4.64855724e-12
8.61867097e-12
-3.607817935e-12
7.566111842e-12
9.475534829e-06
-3.635990745e-11
9.475576767e-06
-3.425374447e-11
9.475606113e-06
-2.200522774e-11
9.475621418e-06
-1.400920759e-11
9.475629045e-06
-9.964781057e-12
9.475634537e-06
-4.923937115e-12
9.475631511e-06
-9.853443187e-13
9.475630703e-06
3.498868311e-13
9.475625874e-06
2.639490546e-12
9.475623174e-06
4.293268171e-12
9.47561811e-06
4.35621859e-12
9.475610073e-06
5.271336952e-12
9.475606396e-06
6.342796991e-12
5.109030056e-12
9.475532131e-06
-1.288215559e-10
-9.252625197e-11
9.475573011e-06
-4.771352264e-11
-3.498935369e-11
9.475613644e-06
-4.37578802e-11
-3.355296076e-11
9.475632122e-06
-2.440494005e-11
-1.960126881e-11
9.475639737e-06
-1.084192343e-11
-1.037809614e-11
9.475638931e-06
-4.006841254e-12
-7.680789078e-12
9.475633021e-06
2.54358751e-12
-2.611025594e-12
9.47562818e-06
5.337119695e-12
1.202713509e-12
9.475621405e-06
6.447575373e-12
2.632698555e-12
9.475615307e-06
6.750871383e-12
3.740420517e-12
9.475610801e-06
5.48262525e-12
4.67245756e-12
9.475603359e-06
6.443524993e-12
2.722438156e-12
9.475600564e-06
7.50781106e-12
5.995151405e-12
9.4755952e-06
8.773860379e-12
5.358296457e-12
7.221077644e-12
5.416528263e-12
9.475551973e-06
-1.793908146e-10
9.475575966e-06
-7.884005592e-11
-3.476086163e-11
9.475597621e-06
-7.250013788e-11
-4.01710771e-11
9.475599807e-06
-3.469503277e-11
-1.962415811e-11
9.475592968e-06
-1.056260819e-11
-7.668387075e-12
9.475582613e-06
1.552266509e-12
-2.32477591e-12
9.475570632e-06
8.019820343e-12
1.237713684e-12
9.475566123e-06
1.278986154e-11
5.793599243e-12
9.475560814e-06
1.218103247e-11
6.500198235e-12
9.475557174e-06
1.04900602e-11
7.361837092e-12
9.475556959e-06
1.010600399e-11
7.622901052e-12
9.475551558e-06
9.259111235e-12
4.466497397e-12
9.475554042e-06
9.513139511e-12
5.96900582e-12
9.475548976e-06
1.067848398e-11
7.062381987e-12
1.022322431e-11
6.368167559e-12
9.475724853e-06
-6.070643028e-11
-6.280002136e-11
9.475690595e-06
-5.784621961e-11
-6.038853561e-11
9.475647582e-06
-1.078910173e-11
-1.254752109e-11
9.475611768e-06
8.205208439e-12
6.496322814e-12
9.475588252e-06
1.332887937e-11
1.207331819e-11
9.475576585e-06
1.460763533e-11
1.326411228e-11
9.475571778e-06
1.280525645e-11
1.247566039e-11
9.47557251e-06
1.186523803e-11
1.23065863e-11
9.475577137e-06
1.024730942e-11
9.98316587e-12
9.475581836e-06
6.364037644e-12
7.970181298e-12
9.475581783e-06
4.744613658e-12
6.769836808e-12
9.47558571e-06
5.24122836e-12
5.911912895e-12
9.475591287e-06
7.54181085e-12
7.434587283e-12
7.360756411e-12
7.454601014e-12
9.475675838e-06
1.840942849e-11
1.373153062e-10
9.475591194e-06
-1.230196321e-11
-4.120625651e-11
9.475533456e-06
4.809986619e-12
1.912978829e-11
9.475502533e-06
1.059857953e-11
3.756357263e-11
9.475491394e-06
7.136536365e-12
3.098297972e-11
9.475492939e-06
4.439411428e-12
2.417012784e-11
9.475502186e-06
4.390196734e-12
2.026954589e-11
9.475512183e-06
2.777052812e-12
1.409649037e-11
9.475522358e-06
3.775636719e-12
1.037549793e-11
9.475534009e-06
3.18504107e-12
8.771059037e-12
9.475542146e-06
1.597238358e-12
7.361472502e-12
9.475550721e-06
1.629475354e-12
7.181578245e-12
9.475559282e-06
3.867780425e-12
9.091693738e-12
3.059063479e-12
9.475872309e-12
9.475860359e-06
-1.950782354e-11
6.975890214e-10
9.475599522e-06
1.041847461e-11
2.141189827e-10
9.475508866e-06
-6.081377715e-12
1.179078647e-10
9.475482249e-06
-9.824918643e-12
8.374649179e-11
9.475486258e-06
-8.236166394e-12
4.596304092e-11
9.475497757e-06
-5.589876839e-12
2.648420033e-11
9.475512048e-06
-4.60060374e-12
1.63508873e-11
9.475525859e-06
-3.472482543e-12
1.101857475e-11
9.475536236e-06
-2.735981472e-12
5.667093877e-12
9.475546951e-06
-1.904781844e-12
4.854541213e-12
9.475557284e-06
-1.225271893e-12
5.195669076e-12
9.475566621e-06
-1.812762854e-12
6.633900963e-12
9.475571568e-06
-2.071122255e-12
8.833723947e-12
-1.635988375e-12
7.911661221e-12
9.475716499e-06
6.158159289e-11
1.386791622e-10
9.475635016e-06
5.913661279e-11
-3.98017997e-11
9.475576424e-06
1.323193815e-11
2.078619753e-11
9.475543026e-06
-7.230147448e-12
3.872963653e-11
9.475533856e-06
-1.382954049e-11
3.248818515e-11
9.475535174e-06
-1.512480811e-11
2.385433046e-11
9.475545928e-06
-1.292537121e-11
1.923553068e-11
9.475555081e-06
-1.159484656e-11
1.422689226e-11
9.475566123e-06
-1.01044161e-11
1.003138146e-11
9.475576998e-06
-6.862850544e-12
8.653756528e-12
9.475584546e-06
-4.781360839e-12
6.784704679e-12
9.475596051e-06
-3.763664538e-12
7.489654012e-12
9.475602949e-06
-8.775292837e-12
8.091583765e-12
-6.590654103e-12
7.495477549e-12
9.475686831e-06
7.868360331e-11
-6.231274026e-11
9.475659032e-06
7.367912264e-11
-5.928728183e-11
9.475612897e-06
3.412472742e-11
-1.219589002e-11
9.475577275e-06
1.039664784e-11
7.699770911e-12
9.475556221e-06
-1.345096233e-12
1.345019218e-11
9.475543437e-06
-7.788614569e-12
1.296468247e-11
9.475541105e-06
-9.470185359e-12
1.265152902e-11
9.475542144e-06
-8.707846083e-12
1.131926274e-11
9.475545984e-06
-8.166116915e-12
9.962811462e-12
9.475550194e-06
-7.672838923e-12
8.847589183e-12
9.475553186e-06
-7.539614527e-12
7.869176599e-12
9.47555793e-06
-7.694557873e-12
6.692022937e-12
9.475560896e-06
-1.118021498e-11
8.80225576e-12
-9.143506763e-12
6.189389214e-12
9.475649246e-06
4.799781781e-11
-3.345566427e-11
9.475675559e-06
4.436949448e-11
-3.79121669e-11
9.475676525e-06
2.503383681e-11
-1.880469112e-11
9.475667207e-06
1.099747613e-11
-6.721126735e-12
9.475657989e-06
2.975890575e-12
5.718944676e-13
9.475647437e-06
-1.707909006e-12
2.548709986e-12
9.475638086e-06
-5.037959058e-12
4.930881296e-12
9.4756345e-06
-6.608899597e-12
5.717134803e-12
9.475630792e-06
-6.136034394e-12
6.216687674e-12
9.47562902e-06
-5.825392257e-12
5.595079096e-12
9.475625193e-06
-7.913392369e-12
4.575728661e-12
9.475624615e-06
-6.464917779e-12
5.423487406e-12
9.475625641e-06
-7.659894979e-12
7.949134432e-12
-5.690785451e-12
5.461664307e-12
9.475582625e-06
-3.305493466e-11
9.475623437e-06
-2.998505588e-11
9.475642068e-06
-1.882870432e-11
9.475647702e-06
-1.265881154e-11
9.475649576e-06
-4.717010909e-12
9.475644704e-06
-1.70267886e-12
9.475637399e-06
8.439651503e-13
9.475632292e-06
3.207475326e-12
9.475625847e-06
2.792234858e-12
9.475620731e-06
3.305026463e-12
9.475615884e-06
5.024070558e-12
9.475609949e-06
5.095227072e-12
9.475605884e-06
5.696537218e-12
4.965157136e-12
9.475590755e-06
-1.967731992e-10
-9.103448977e-11
9.475611322e-06
-3.324188176e-11
-2.521876708e-11
9.475646999e-06
-4.828916506e-11
-1.852215024e-11
9.475656138e-06
-2.204750541e-11
-1.110882546e-11
9.475654769e-06
-5.850695599e-12
-6.159900593e-12
9.475650979e-06
4.855013607e-12
-1.177205612e-12
9.475639992e-06
7.919664112e-12
-2.394132362e-13
9.475631276e-06
9.689878043e-12
1.571234314e-12
9.475624105e-06
1.069816812e-11
2.499389752e-12
9.475617571e-06
8.855850576e-12
9.769343325e-13
9.47561232e-06
6.528358587e-12
4.080998819e-13
9.475610078e-06
7.230564638e-12
2.931860812e-14
9.475605757e-06
6.236766229e-12
2.58488858e-13
9.475604426e-06
8.75581434e-12
3.447410035e-12
7.088671865e-12
1.677855633e-12
9.475691711e-06
-4.723038408e-10
-1.827639157e-10
9.475648505e-06
-1.11404651e-11
-1.304628277e-11
9.475653683e-06
-7.538983657e-11
-1.8974863e-11
9.475639737e-06
-2.393479164e-11
-8.717834302e-12
9.475625158e-06
6.070439478e-12
-9.273589217e-13
9.475610926e-06
1.663958008e-11
1.171629233e-12
9.475601017e-06
1.970894188e-11
2.507058973e-12
9.475596714e-06
1.886246447e-11
2.786185467e-12
9.475595097e-06
1.704348581e-11
2.893204832e-12
9.475592268e-06
1.240704457e-11
1.727288851e-12
9.475594922e-06
1.028751464e-11
2.318588627e-12
9.475596647e-06
1.068957197e-11
7.082681206e-13
9.475599069e-06
1.011984536e-11
1.909214922e-12
9.475600011e-06
1.136536722e-11
2.678430847e-12
1.10892055e-11
1.59515263e-12
9.475953058e-06
-5.484500165e-10
9.475722949e-06
1.382468504e-10
1.666003628e-11
9.475641574e-06
-3.911087407e-11
-1.434211823e-11
9.475582793e-06
2.110644937e-11
4.730641305e-12
9.475552082e-06
3.844710042e-11
1.143124501e-11
9.475540166e-06
3.276613457e-11
8.997299677e-12
9.475543402e-06
2.656980968e-11
7.457145071e-12
9.475553114e-06
1.998459347e-11
4.263075781e-12
9.475562042e-06
1.30291902e-11
2.831471396e-12
9.475572575e-06
9.995452553e-12
2.57084676e-12
9.475585302e-06
7.517000912e-12
2.089461562e-12
9.475591554e-06
6.060878507e-12
1.563585481e-12
9.475598651e-06
6.119006817e-12
3.620591854e-13
9.475608224e-06
9.353399297e-12
1.95889057e-12
9.308126919e-12
1.898937681e-12
9.475349916e-06
4.253529678e-10
4.234098738e-10
9.475338042e-06
-3.282750498e-11
-3.353111296e-11
9.475352739e-06
1.235869255e-11
1.357042852e-11
9.475382825e-06
2.332186384e-11
2.462473957e-11
9.475418824e-06
1.194236433e-11
1.273849655e-11
9.475454751e-06
6.764387162e-12
8.126650905e-12
9.4754829e-06
2.826638699e-12
4.238218074e-12
9.475505994e-06
3.535475937e-12
2.555548389e-12
9.475523111e-06
2.024674298e-12
2.086795197e-12
9.475537053e-06
1.751430876e-12
2.16908472e-12
9.47554719e-06
1.1839322e-12
1.872024554e-12
9.475556406e-06
2.214390151e-12
1.443900345e-12
9.475568766e-06
3.308337466e-12
1.73102526e-12
2.059024749e-12
1.96354176e-12
9.475322306e-06
-4.263226717e-10
3.105748015e-09
9.475306319e-06
3.151011345e-11
1.685000032e-10
9.475412409e-06
-1.283916083e-11
4.472108926e-11
9.475497614e-06
-2.265106878e-11
4.686409488e-11
9.47555698e-06
-1.236319204e-11
1.553669731e-11
9.475594221e-06
-9.500504735e-12
3.02201455e-12
9.475625483e-06
-4.056406898e-12
8.670023667e-13
9.475640953e-06
-3.201738035e-12
-4.78894157e-13
9.475654719e-06
-7.032560328e-13
1.236177565e-12
9.475664327e-06
-3.559570348e-13
2.202824321e-13
9.475674139e-06
-1.45725759e-12
1.965525314e-12
9.475680369e-06
-2.572752348e-12
1.790795551e-13
9.475693836e-06
-2.613366702e-12
1.670934775e-12
-2.454032594e-12
1.49406775e-12
9.47541177e-06
-1.398531678e-10
4.252426588e-10
9.475400417e-06
3.961029522e-11
-3.212303846e-11
9.475416294e-06
-1.90877524e-11
1.324939812e-11
9.475442919e-06
-3.839193015e-11
2.508322751e-11
9.475479158e-06
-3.234259806e-11
1.45136279e-11
9.475515691e-06
-2.507947359e-11
9.87543483e-12
9.475544163e-06
-2.02832814e-11
5.61905779e-12
9.475567634e-06
-1.497601519e-11
4.184244709e-12
9.475585312e-06
-1.054630751e-11
2.587861101e-12
9.475597877e-06
-7.830215242e-12
1.44195371e-12
9.47561147e-06
-5.128322878e-12
3.304228825e-12
9.475621175e-06
-6.271688468e-12
7.573765865e-13
9.475633486e-06
-8.901604642e-12
2.072685351e-12
-8.494442128e-12
4.008653046e-12
9.475729841e-06
1.335010912e-11
1.798848321e-11
9.475647797e-06
7.801478833e-11
-1.256415124e-11
9.475586491e-06
2.327784108e-11
5.099778417e-12
9.475556974e-06
-5.615002763e-12
1.154784054e-11
9.475546243e-06
-1.514358696e-11
1.019645686e-11
9.475551004e-06
-1.885231349e-11
8.014185963e-12
9.475561144e-06
-1.741981035e-11
6.568192684e-12
9.475570214e-06
-1.470757445e-11
6.050996367e-12
9.475580962e-06
-1.13901618e-11
4.53688825e-12
9.475589341e-06
-1.023742278e-11
2.073635283e-12
9.475596537e-06
-9.009106775e-12
1.224072619e-12
9.475605755e-06
-7.526671932e-12
2.300858175e-12
9.475611106e-06
-1.097956556e-11
1.775849281e-12
-1.074045189e-11
2.711490401e-12
9.475610467e-06
3.368127243e-11
-1.147074199e-11
9.475615228e-06
4.88865147e-11
-1.529420437e-11
9.475601929e-06
2.205272091e-11
-6.426246731e-12
9.475583967e-06
3.930554168e-12
-7.101721242e-14
9.475569055e-06
-3.3028776e-12
2.522516186e-12
9.475561349e-06
-7.91949374e-12
2.335345628e-12
9.475554661e-06
-8.844653042e-12
2.419988976e-12
9.475552015e-06
-9.232134573e-12
2.5461032e-12
9.475550561e-06
-1.058754466e-11
1.063140306e-12
9.475554664e-06
-8.257568102e-12
1.758661241e-12
9.475554023e-06
-7.419475524e-12
1.58561764e-12
9.475556397e-06
-6.271498616e-12
1.334196928e-12
9.475559508e-06
-8.828762478e-12
2.913020151e-12
-6.52541051e-12
4.061190225e-12
9.475604874e-06
-2.456213551e-11
9.475639206e-06
-1.738802278e-11
9.475648714e-06
-8.8767094e-12
9.475649839e-06
-2.646758226e-12
9.475641655e-06
-5.662725743e-13
9.475634878e-06
5.315990115e-13
9.475625433e-06
2.662626722e-12
9.475617572e-06
1.647818552e-12
9.475612437e-06
1.547321239e-12
9.475608489e-06
2.246761259e-12
9.475602739e-06
4.902282181e-13
9.475598715e-06
8.66934586e-13
9.475598431e-06
2.927828453e-12
3.720331275e-12
9.475651084e-06
-5.04525909e-10
8.897490404e-11
9.475653625e-06
-5.765837939e-11
2.28840514e-11
9.475669414e-06
-4.683443044e-11
1.70165704e-11
9.475661995e-06
-1.106608716e-11
7.794728043e-12
9.475648754e-06
6.726118328e-12
2.352347646e-12
9.475636954e-06
1.132062461e-11
6.392297392e-13
9.475627584e-06
1.27238426e-11
-5.638386648e-13
9.47561545e-06
1.174361622e-11
8.949504933e-13
9.475608577e-06
1.149736933e-11
-5.435784032e-13
9.475602589e-06
8.621186182e-12
-2.756519371e-13
9.475598538e-06
8.052603195e-12
-9.397522303e-13
9.475595801e-06
7.017685748e-12
-1.375200867e-12
9.475594866e-06
6.567055156e-12
-1.798245537e-12
9.475589614e-06
8.394908035e-12
-3.704188642e-12
7.52132047e-12
-1.873730975e-12
9.475856579e-06
-1.44536174e-09
1.806971437e-10
9.475718458e-06
6.290073035e-11
1.105114316e-11
9.475662472e-06
-1.866447845e-11
1.650363468e-11
9.475622271e-06
1.477804007e-11
7.217166739e-12
9.475594017e-06
3.276230136e-11
-5.389058746e-13
9.475577922e-06
2.931727766e-11
-1.549434917e-12
9.475570742e-06
2.538583255e-11
-3.209182888e-12
9.475568067e-06
1.921256167e-11
-1.306691549e-12
9.475566512e-06
1.519635128e-11
-1.442786302e-12
9.475568134e-06
1.121538913e-11
-4.764164776e-13
9.475569862e-06
8.946521045e-12
-2.941258536e-12
9.475572656e-06
9.658321171e-12
-1.57784851e-12
9.475575444e-06
8.029646757e-12
-2.735717265e-12
9.475577646e-06
1.034436191e-11
-3.370409373e-12
1.177587714e-11
-1.978116752e-12
9.476475603e-06
-3.928207162e-09
5.465252728e-10
9.475876773e-06
6.974777155e-10
-1.969356299e-11
9.475621093e-06
2.16646612e-10
1.263871909e-11
9.475528827e-06
1.200256234e-10
-4.808938481e-12
9.475500776e-06
8.52000855e-11
-1.141401482e-11
9.475501763e-06
4.585631042e-11
-9.644429056e-12
9.475512741e-06
2.655668544e-11
-7.111547515e-12
9.475530229e-06
1.730648659e-11
-3.68314882e-12
9.475542936e-06
1.024457911e-11
-1.97856171e-12
9.475556535e-06
7.606931081e-12
-1.510190357e-12
9.475566085e-06
5.446837393e-12
-1.372863064e-12
9.475572727e-06
4.596263288e-12
-2.629625223e-12
9.475582338e-06
5.053890092e-12
-2.490084299e-12
9.475592414e-06
9.387494224e-12
-3.264912816e-12
8.026395601e-12
-4.05015104e-12
9.476847122e-06
1.031845652e-09
9.475294305e-06
3.107970438e-09
-4.253350893e-10
9.475278273e-06
1.68656317e-10
3.177496299e-11
9.475382492e-06
4.372782749e-11
-1.446831072e-11
9.475466388e-06
4.549685246e-11
-2.577351698e-11
9.475527521e-06
1.436590792e-11
-1.361334868e-11
9.475567761e-06
1.658408671e-12
-9.52151146e-12
9.475594932e-06
-2.917069729e-13
-4.063890341e-12
9.475614508e-06
1.766664879e-13
-1.269658948e-12
9.475627503e-06
1.144793589e-12
-8.061010457e-13
9.47563785e-06
-5.814131544e-13
-3.723548532e-13
9.475644873e-06
1.21163284e-12
-9.846876976e-13
9.475653431e-06
1.277240618e-12
-2.556000968e-12
9.475663957e-06
2.584546225e-12
-3.179361873e-12
2.368597792e-12
-3.550402098e-12
9.523201147e-06
-3.105846073e-09
-3.1078313e-09
9.523921894e-06
-1.691498769e-10
-1.685990291e-10
9.524141643e-06
-4.53523246e-11
-4.476970403e-11
9.5243663e-06
-4.553483611e-11
-4.705349566e-11
9.524467486e-06
-1.389957018e-11
-1.393060112e-11
9.524525748e-06
-2.473057944e-12
-2.063526863e-12
9.524568137e-06
-1.188080628e-13
-2.708706508e-13
9.524604405e-06
9.987794406e-13
7.002603793e-13
9.524639175e-06
5.309066504e-13
1.167749801e-13
9.524681225e-06
1.142602029e-12
2.354867453e-12
9.524720628e-06
3.374359228e-13
-1.229219072e-12
9.524764293e-06
-1.21042869e-12
-1.410161438e-12
9.524814741e-06
-2.310023753e-12
-1.965405019e-12
-1.100776962e-12
-9.84409541e-13
9.475303783e-06
-6.991747698e-10
-4.250752839e-10
9.475288916e-06
-2.163827797e-10
3.371286893e-11
9.475394354e-06
-1.185641835e-10
-1.226489471e-11
9.475478052e-06
-8.456327282e-11
-2.303206732e-11
9.475537532e-06
-4.649107711e-11
-1.356171155e-11
9.475580022e-06
-2.740618835e-11
-7.564006843e-12
9.47561008e-06
-1.629563545e-11
-4.206414492e-12
9.475628351e-06
-1.042951469e-11
-2.196288641e-12
9.475641211e-06
-6.800904836e-12
-2.015490415e-12
9.475652187e-06
-5.909701604e-12
-1.166671558e-12
9.475658683e-06
-6.070105776e-12
-2.016340314e-12
9.475668718e-06
-3.547058504e-12
-1.124075217e-12
9.475680865e-06
-8.250982864e-12
-2.014283422e-12
-8.562467628e-12
-2.566334963e-12
9.475865801e-06
-6.098041791e-11
-1.739609571e-11
9.475610497e-06
2.230861864e-11
1.33016902e-11
9.475515779e-06
-1.437030995e-11
-4.827382623e-12
9.475488552e-06
-3.284195458e-11
-1.131501275e-11
9.475490867e-06
-2.907463682e-11
-8.13601337e-12
9.475504343e-06
-2.520619746e-11
-5.748823703e-12
9.475518393e-06
-2.045415112e-11
-4.43849779e-12
9.475531293e-06
-1.631622108e-11
-3.957208929e-12
9.475544308e-06
-1.278543096e-11
-2.084102058e-12
9.475556593e-06
-8.949499841e-12
-1.088931224e-12
9.475566208e-06
-7.56259528e-12
-2.229743989e-12
9.475573172e-06
-7.292965658e-12
-2.0781719e-12
9.475583794e-06
-9.862220855e-12
-2.652321535e-12
-8.89590962e-12
-3.074645156e-12
9.475745423e-06
5.717809706e-11
1.103781989e-11
9.475686968e-06
4.558476329e-11
1.683353851e-11
9.475648569e-06
1.130923274e-11
7.611131117e-12
9.475619512e-06
-6.092491113e-12
1.057847291e-12
9.475602181e-06
-9.653589813e-12
-9.075419275e-13
9.475594852e-06
-1.138445614e-11
2.036120608e-13
9.475592388e-06
-9.578591152e-12
-1.201981052e-12
9.4755891e-06
-8.972604958e-12
-1.738270362e-12
9.475591133e-06
-8.702257515e-12
-2.739077339e-13
9.475593401e-06
-7.561812923e-12
-1.295225793e-12
9.475594635e-06
-6.522000412e-12
-2.243839731e-12
9.475598864e-06
-5.917964907e-12
-2.630731521e-12
9.475603076e-06
-7.747617982e-12
-2.693078758e-12
-5.790900844e-12
-2.812098318e-12
9.475664482e-06
2.534402054e-11
9.4756758e-06
1.929034252e-11
9.47566951e-06
9.758395153e-12
9.475659157e-06
4.913289098e-12
9.475643994e-06
1.692689237e-12
9.475637189e-06
2.39814032e-12
9.475622999e-06
-1.58074503e-12
9.475615777e-06
-7.356459411e-14
9.475612237e-06
4.122980377e-13
9.475608586e-06
-5.974544464e-13
9.47560544e-06
-1.747338718e-12
9.475602277e-06
-1.320471055e-12
9.47560072e-06
-2.407324177e-12