/*--------------------------------*- C++ -*----------------------------------*\
| =========                 |                                                 |
| \\      /  F ield         | OpenFOAM: The Open Source CFD Toolbox           |
|  \\    /   O peration     | Version:  4.x                                   |
|   \\  /    A nd           | Web:      www.OpenFOAM.org                      |
|    \\/     M anipulation  |                                                 |
\*---------------------------------------------------------------------------*/
FoamFile
{
    version     2.0;
    format      ascii;
    class       volScalarField;
    location    "5000";
    object      rho;
}
// * * * * * * * * * * * * * * * * * * * * * * * * * * * * * * * * * * * * * //

dimensions      [1 -3 0 0 0 0 0];

internalField   nonuniform List<scalar> 
1174
(
0.2790921989
0.2790926116
0.2790931546
0.2790938735
0.2790947675
0.2790957735
0.2790969016
0.2790981051
0.2790993682
0.2791006158
0.2791018914
0.2791031344
0.2791042619
0.2791051724
0.2790914347
0.2790920549
0.2790928801
0.279093889
0.2790950487
0.2790962637
0.279097602
0.2790989654
0.2791003003
0.279101627
0.2791028699
0.2791040616
0.2791051493
0.279105978
0.2790933034
0.2790943158
0.2790956119
0.2790971406
0.2790987496
0.279100367
0.2791020051
0.2791035349
0.2791049853
0.2791062869
0.2791075189
0.2791085676
0.2791095074
0.2791101866
0.2790947946
0.2790965479
0.2790984935
0.2791005343
0.2791025695
0.2791044858
0.2791062672
0.2791079038
0.279109338
0.2791105967
0.2791116537
0.2791125674
0.2791133543
0.2791138959
0.2790957772
0.2790978099
0.2791000277
0.2791022726
0.2791044175
0.2791064416
0.2791082265
0.2791097881
0.2791111816
0.2791123599
0.2791133438
0.2791141522
0.2791148401
0.279115339
0.2790945362
0.2790962302
0.2790981616
0.2791001733
0.2791022102
0.2791041823
0.2791059751
0.2791076219
0.2791090305
0.2791103071
0.2791113977
0.279112326
0.2791131269
0.2791136527
0.2790928739
0.2790939465
0.2790952536
0.279096817
0.2790984611
0.2791001215
0.2791017088
0.2791032648
0.2791046895
0.2791060094
0.2791072226
0.2791083621
0.2791092881
0.2791099982
0.2790932697
0.2790938928
0.2790946796
0.2790956617
0.2790968253
0.2790980838
0.2790994078
0.2791008321
0.279102156
0.2791034345
0.2791047016
0.2791058819
0.2791069928
0.2791078072
0.2790924854
0.2790928467
0.2790933916
0.2790940904
0.279094999
0.2790960006
0.2790971124
0.2790983146
0.2790995296
0.2791008033
0.2791020957
0.2791032967
0.2791044177
0.2791053147
0.2790920913
0.27909256
0.2790931457
0.2790939662
0.2790949993
0.2790961567
0.2790974008
0.2790987214
0.2791000577
0.2791013686
0.2791027388
0.2791039939
0.2791051755
0.2791063122
0.2791071581
0.2790946167
0.2790957084
0.2790970459
0.2790985265
0.2791000803
0.2791016134
0.2791031042
0.2791045691
0.2791059238
0.2791071894
0.2791083452
0.2791093852
0.2791102875
0.2791109552
0.2790958391
0.2790979229
0.2791001958
0.2791025011
0.2791046409
0.2791065849
0.2791082066
0.2791096518
0.2791108942
0.2791119373
0.2791128022
0.2791135281
0.27911408
0.2791144876
0.2790997411
0.2791032493
0.2791065388
0.2791094428
0.2791118846
0.2791137912
0.2791152529
0.2791163467
0.2791171756
0.2791177532
0.2791181398
0.2791184334
0.279118601
0.2791187311
0.279100829
0.2791050559
0.2791085922
0.2791113923
0.2791135255
0.2791150951
0.2791162175
0.2791169804
0.2791174837
0.2791178154
0.279117981
0.2791180331
0.2791181016
0.2791180857
0.2790990152
0.2791025129
0.2791058369
0.279108739
0.2791111368
0.2791130341
0.279114505
0.2791156289
0.2791164087
0.2791170226
0.2791174543
0.2791177522
0.2791179413
0.2791180499
0.279095754
0.279097854
0.2791001138
0.279102362
0.2791045445
0.2791064676
0.2791081696
0.2791095424
0.279110753
0.2791117924
0.2791126623
0.2791133862
0.2791139585
0.2791143936
0.2790930697
0.2790941486
0.2790954602
0.2790969233
0.2790984634
0.2791000832
0.2791016435
0.2791030587
0.2791044209
0.2791056915
0.2791068144
0.2791078592
0.2791087672
0.2791094888
0.2790923897
0.2790930054
0.2790938563
0.2790948829
0.2790960177
0.2790972629
0.2790985919
0.2790999469
0.2791013134
0.2791026267
0.2791038998
0.2791051015
0.2791062041
0.279107056
0.279092548
0.2790933319
0.279094391
0.2790957217
0.2790972561
0.2790988782
0.2791005323
0.2791021488
0.2791036786
0.2791051378
0.2791064612
0.2791076865
0.2791087451
0.2791097319
0.2791104439
0.2790924306
0.279094117
0.2790962514
0.2790984929
0.2791007757
0.279102901
0.2791048346
0.2791064674
0.2791079397
0.2791091537
0.2791101628
0.2791110662
0.2791117704
0.2791123658
0.2791127816
0.2791014687
0.2791059025
0.2791099184
0.2791132386
0.2791157275
0.2791175113
0.2791187198
0.2791194529
0.2791198446
0.2791200283
0.279120105
0.2791200066
0.2791198879
0.2791197339
0.2791137844
0.2791212682
0.279126407
0.2791294421
0.2791308877
0.2791311887
0.2791308029
0.2791299889
0.2791289767
0.2791278948
0.2791268455
0.2791258189
0.2791248794
0.2791241676
0.2791317086
0.2791391213
0.2791423397
0.2791428722
0.2791419652
0.2791403474
0.2791383424
0.2791362729
0.2791342912
0.2791323422
0.2791305865
0.2791290233
0.2791276398
0.2791266406
0.2791149926
0.2791224679
0.2791276597
0.2791306778
0.2791320801
0.2791324171
0.2791320315
0.2791312478
0.2791302785
0.2791291597
0.2791280682
0.279127075
0.2791261682
0.2791254051
0.2791005104
0.2791049156
0.2791089513
0.2791122553
0.2791147449
0.2791165325
0.2791177492
0.2791185348
0.2791189709
0.2791191661
0.2791192159
0.2791191653
0.2791190625
0.2791189134
0.2790963248
0.2790984037
0.279100682
0.2791029785
0.2791051227
0.2791070476
0.2791087089
0.2791101124
0.2791113021
0.2791123462
0.2791132574
0.2791139956
0.2791145708
0.279114995
0.2790935684
0.2790946558
0.2790959991
0.2790975472
0.2790991671
0.2791008192
0.2791024281
0.2791039863
0.2791054486
0.2791067724
0.2791079438
0.2791090448
0.2791099968
0.2791106922
0.2790935967
0.2790949093
0.2790965971
0.2790985289
0.2791005934
0.2791026134
0.2791045436
0.2791063131
0.2791079649
0.2791094122
0.2791106752
0.2791117368
0.2791126812
0.2791134335
0.279113983
0.2790961785
0.2790993557
0.279102834
0.2791061421
0.2791090418
0.2791114165
0.2791133183
0.2791147878
0.2791158997
0.2791167452
0.279117345
0.2791177434
0.2791180237
0.2791182254
0.2791183207
0.2791060472
0.2791152061
0.2791226893
0.2791278543
0.2791309209
0.2791323295
0.2791326663
0.2791322738
0.2791314754
0.2791304579
0.2791293812
0.2791283289
0.2791272643
0.2791262762
0.2791255623
0.2791596524
0.2791691327
0.2791707186
0.2791680535
0.2791634486
0.2791582678
0.2791531998
0.2791485247
0.2791443536
0.2791407457
0.2791375945
0.2791348363
0.2791325702
0.2791308653
0.2792535544
0.279241751
0.2792236077
0.2792062519
0.2791914525
0.2791793905
0.2791696263
0.2791617082
0.2791553182
0.2791500835
0.2791457767
0.2791421531
0.2791392113
0.2791370035
0.279161557
0.2791709779
0.2791725146
0.2791697732
0.279165174
0.2791600367
0.2791549435
0.2791503005
0.2791461552
0.2791425418
0.2791393856
0.2791366844
0.2791343894
0.279132732
0.2791153721
0.2791228673
0.279127975
0.2791310447
0.2791325347
0.2791328488
0.2791324725
0.2791316707
0.2791306836
0.2791295772
0.2791284763
0.279127407
0.2791264696
0.2791257415
0.2790982116
0.2791016921
0.2791050142
0.2791078973
0.279110304
0.2791121551
0.2791135908
0.2791147109
0.2791155282
0.2791160776
0.2791164987
0.2791167709
0.2791169769
0.2791170983
0.279094708
0.2790963756
0.2790983207
0.279100351
0.2791024284
0.2791043523
0.2791061914
0.2791077875
0.2791092006
0.2791104856
0.2791115455
0.2791124646
0.2791132331
0.2791137965
0.2790937053
0.2790953828
0.2790973977
0.2790995879
0.2791018335
0.2791040396
0.2791059997
0.2791077933
0.2791093838
0.2791107411
0.2791119342
0.2791129432
0.2791137909
0.2791144435
0.2791149118
0.2790976454
0.2791020573
0.2791062884
0.2791098714
0.2791126856
0.2791148585
0.2791164185
0.2791175279
0.2791183305
0.2791188132
0.2791191145
0.2791193143
0.2791193927
0.2791193974
0.279119326
0.2791190672
0.2791322369
0.2791396773
0.2791428821
0.2791434635
0.2791425653
0.279140864
0.279138846
0.2791367645
0.2791347536
0.2791328677
0.2791311533
0.2791295878
0.2791282598
0.2791272698
0.2792366044
0.2792527115
0.2792409981
0.2792228248
0.2792054332
0.2791906455
0.279178552
0.2791687717
0.279160899
0.2791545091
0.2791492214
0.27914487
0.2791412912
0.2791383768
0.2791362956
0.2810789572
0.2808804457
0.2807710231
0.2807074332
0.2806684351
0.2806433368
0.2806264907
0.2806146631
0.280606131
0.2805998175
0.2805950909
0.2805914751
0.2805888595
0.2805873347
0.2792530398
0.2792412524
0.2792231185
0.2792057318
0.2791909635
0.2791788836
0.2791691417
0.2791613309
0.2791549641
0.279149726
0.2791453686
0.2791417787
0.2791387884
0.2791366811
0.2791319518
0.2791393866
0.2791425838
0.2791431547
0.2791422119
0.2791405231
0.27913855
0.2791365124
0.2791344811
0.2791325803
0.2791308955
0.2791293144
0.2791279689
0.2791269906
0.2791029006
0.2791071031
0.2791106544
0.2791134855
0.2791156429
0.2791171385
0.2791182281
0.2791189946
0.2791194991
0.2791197811
0.2791199176
0.2791200163
0.2791200528
0.2791200811
0.2790956386
0.2790976355
0.2790998416
0.2791021084
0.2791042809
0.2791062878
0.2791080817
0.279109683
0.2791110498
0.2791122276
0.2791132099
0.2791140647
0.2791147295
0.279115216
0.2790921579
0.2790934393
0.2790951192
0.279097086
0.2790990888
0.2791011377
0.2791031036
0.2791049369
0.2791065513
0.2791080002
0.2791092588
0.2791103119
0.2791112421
0.2791119786
0.2791125427
0.279095702
0.2790989061
0.2791024094
0.2791056983
0.2791086262
0.2791110615
0.2791129529
0.2791144014
0.2791155123
0.2791163288
0.2791168995
0.2791173397
0.2791176185
0.2791178115
0.2791179421
0.2791051607
0.27911431
0.2791217866
0.279126936
0.2791299443
0.2791313465
0.2791316917
0.279131317
0.2791305308
0.2791295274
0.2791284159
0.2791273573
0.279126294
0.2791253648
0.279124668
0.2791407253
0.2791619304
0.2791713778
0.2791729157
0.2791702163
0.2791656083
0.2791604264
0.2791553728
0.2791506804
0.2791465029
0.2791428995
0.2791397213
0.2791369819
0.2791346565
0.2791329825
0.2792356598
0.2792518377
0.2792401203
0.2792220034
0.2792045645
0.2791897822
0.2791777318
0.2791680042
0.2791601383
0.2791537392
0.2791485224
0.2791441513
0.2791405323
0.2791376159
0.279135467
0.2791408258
0.279161973
0.2791714072
0.2791729574
0.279170249
0.2791656301
0.2791604604
0.2791553676
0.2791506752
0.279146448
0.2791427624
0.2791396025
0.2791368695
0.2791345802
0.2791329
0.2791147388
0.2791221956
0.2791273345
0.2791303591
0.2791317883
0.2791320917
0.2791316701
0.2791309303
0.2791299631
0.2791288664
0.2791277374
0.2791267072
0.2791257092
0.279125051
0.2790985459
0.2791020687
0.2791053896
0.2791082917
0.2791106841
0.2791125494
0.2791140326
0.2791151603
0.2791159619
0.279116596
0.2791169991
0.2791172861
0.2791175175
0.2791175651
0.2790946963
0.2790963869
0.2790983293
0.2791003539
0.2791024248
0.279104364
0.2791061447
0.2791077634
0.2791091492
0.2791104263
0.2791114899
0.2791124336
0.2791132125
0.279113784
0.2790929656
0.279093803
0.2790948672
0.2790961776
0.2790976924
0.2790993073
0.2791009339
0.2791025671
0.2791040926
0.2791055141
0.2791068336
0.2791080647
0.2791091745
0.2791101513
0.2791108516
0.2790941857
0.2790958725
0.2790979944
0.2791002843
0.2791025541
0.2791046801
0.2791066102
0.2791083328
0.2791097665
0.2791109895
0.2791119794
0.2791128327
0.2791135743
0.2791141497
0.2791145746
0.279096478
0.2791007195
0.2791051461
0.279109135
0.2791123743
0.2791148841
0.2791167178
0.279117939
0.2791186717
0.2791190903
0.2791192866
0.2791193518
0.279119337
0.279119261
0.2791191255
0.2791056061
0.2791147336
0.2791222267
0.2791273803
0.2791304442
0.2791318573
0.2791321552
0.2791317734
0.2791309587
0.2791299515
0.2791288788
0.2791277782
0.2791267254
0.2791257867
0.2791250531
0.279119361
0.2791325868
0.2791400642
0.2791432541
0.2791438009
0.2791428686
0.279141187
0.2791391853
0.2791371169
0.2791351388
0.279133232
0.2791315175
0.2791299831
0.279128647
0.2791275726
0.2791054945
0.2791145957
0.2791220373
0.279127204
0.2791302979
0.2791317041
0.2791320698
0.2791316718
0.2791308745
0.2791298744
0.2791288561
0.2791277808
0.2791267432
0.2791257915
0.2791250666
0.2790971376
0.2791014032
0.2791058347
0.2791099009
0.2791132602
0.2791157591
0.279117535
0.2791187598
0.279119508
0.2791199463
0.2791201168
0.2791201575
0.2791200877
0.2791199386
0.2791198037
0.2790949507
0.2790970527
0.2790992851
0.2791015434
0.279103692
0.2791055859
0.2791072042
0.2791086088
0.2791098087
0.2791108181
0.2791116634
0.2791123825
0.2791129703
0.2791134242
0.2790935862
0.2790946826
0.2790960244
0.2790975734
0.2790991806
0.279100795
0.2791024695
0.2791040152
0.2791054338
0.2791067903
0.2791080274
0.2791091181
0.2791100598
0.2791107332
0.2790921593
0.2790925848
0.2790931964
0.2790940083
0.2790950286
0.2790961789
0.2790974216
0.2790987244
0.2791000992
0.2791014072
0.2791027189
0.2791039756
0.2791052001
0.2791062924
0.279107098
0.279092612
0.2790933673
0.2790944343
0.2790957522
0.2790972663
0.2790988314
0.2791004115
0.2791019047
0.2791034035
0.2791047869
0.279106009
0.2791071842
0.279108239
0.2791091741
0.2791098986
0.2790939912
0.2790956674
0.2790977608
0.2791000216
0.2791023007
0.2791044006
0.279106344
0.2791079927
0.2791094086
0.2791106555
0.2791116718
0.2791125379
0.2791132314
0.2791138147
0.2791142122
0.2790956219
0.2790988266
0.2791023108
0.2791056364
0.2791085236
0.2791109383
0.2791128344
0.2791142942
0.2791154589
0.2791162347
0.2791168152
0.279117204
0.279117499
0.2791177125
0.2791177844
0.2790987069
0.2791031381
0.2791073381
0.2791109055
0.279113722
0.2791158593
0.2791174037
0.2791185201
0.2791192863
0.2791198151
0.2791200999
0.2791202473
0.2791203387
0.2791203332
0.2791202538
0.2790957273
0.2790989266
0.2791024239
0.2791057076
0.2791086289
0.2791110337
0.2791129403
0.2791143777
0.2791154912
0.2791163038
0.2791168651
0.2791172753
0.2791175786
0.2791177587
0.2791178549
0.2790957396
0.2790974303
0.2790995225
0.2791018076
0.2791040206
0.2791060934
0.2791080029
0.2791096978
0.2791111015
0.2791123435
0.2791133884
0.2791142766
0.279114962
0.2791155946
0.2791160344
0.2790945044
0.2790953279
0.2790964147
0.2790977296
0.2790992104
0.2791007448
0.2791022843
0.2791037965
0.2791052526
0.2791066033
0.2791078671
0.279109021
0.2791100438
0.2791109559
0.2791116317
0.2790929248
0.2790935586
0.2790943435
0.2790953226
0.2790964884
0.2790977506
0.2790990952
0.2791004492
0.2791017934
0.2791031218
0.2791043969
0.2791055925
0.2791066537
0.2791075166
0.2790927033
0.2790929231
0.2790933209
0.2790938648
0.2790945677
0.2790954332
0.2790964225
0.2790975088
0.2790986859
0.2790999354
0.2791012182
0.2791024741
0.2791037033
0.279104882
0.2791057935
0.2790917558
0.2790921812
0.2790928152
0.2790936405
0.2790946659
0.2790958318
0.2790971051
0.2790984139
0.2790997527
0.2791011133
0.2791024316
0.2791037076
0.2791049203
0.2791059538
0.279106771
0.2790921444
0.27909293
0.2790940049
0.279095347
0.2790968728
0.27909849
0.2791001837
0.279101794
0.279103363
0.279104826
0.2791061237
0.279107343
0.2791084549
0.279109411
0.2791101201
0.2790934076
0.2790946745
0.2790963573
0.2790982789
0.2791003742
0.279102403
0.2791043464
0.2791061419
0.2791077613
0.2791091877
0.2791104484
0.279111533
0.2791124499
0.2791132225
0.2791137957
0.2790945614
0.2790962377
0.2790982561
0.2791004336
0.2791026708
0.2791048082
0.2791068372
0.2791086196
0.279110184
0.27911158
0.2791127462
0.2791137686
0.2791145822
0.2791152237
0.2791156867
0.2790937882
0.2790951283
0.2790968232
0.2790987595
0.279100796
0.2791028201
0.2791047467
0.2791064996
0.2791081378
0.2791095698
0.2791108595
0.279111959
0.2791128811
0.279113633
0.2791141808
0.2790926522
0.2790934089
0.27909447
0.2790958484
0.2790973606
0.2790989811
0.2791006239
0.2791022822
0.2791038305
0.2791052586
0.2791066473
0.2791078513
0.2791089523
0.2791098912
0.2791105763
0.2790916843
0.2790920925
0.2790927357
0.2790935675
0.2790945663
0.2790957475
0.279096981
0.2790983038
0.2790996896
0.2791010553
0.2791023606
0.2791036296
0.2791048237
0.2791058974
0.2791067333
0.2790922044
0.2790924469
0.2790927972
0.2790933272
0.2790940294
0.2790948958
0.2790959138
0.279097043
0.2790982014
0.2790994515
0.2791006915
0.2791019609
0.2791031779
0.2791043098
0.2791051983
)
;

boundaryField
{
    top
    {
        type            calculated;
        value           nonuniform List<scalar> 
127
(
0.2790922044
0.2790924854
0.2790923897
0.2790935684
0.279094708
0.2790956386
0.2790946963
0.2790935862
0.2790929248
0.2790924469
0.2790928467
0.2790930054
0.2790946558
0.2790963756
0.2790976355
0.2790963869
0.2790946826
0.2790935586
0.2790927972
0.2790933916
0.2790938563
0.2790959991
0.2790983207
0.2790998416
0.2790983293
0.2790960244
0.2790943435
0.2790933272
0.2790940904
0.2790948829
0.2790975472
0.279100351
0.2791021084
0.2791003539
0.2790975734
0.2790953226
0.2790940294
0.279094999
0.2790960177
0.2790991671
0.2791024284
0.2791042809
0.2791024248
0.2790991806
0.2790964884
0.2790948958
0.2790960006
0.2790972629
0.2791008192
0.2791043523
0.2791062878
0.279104364
0.279100795
0.2790977506
0.2790959138
0.2790971124
0.2790985919
0.2791024281
0.2791061914
0.2791080817
0.2791061447
0.2791024695
0.2790990952
0.279097043
0.2790983146
0.2790999469
0.2791039863
0.2791077875
0.279109683
0.2791077634
0.2791040152
0.2791004492
0.2790982014
0.2790995296
0.2791013134
0.2791054486
0.2791092006
0.2791110498
0.2791091492
0.2791054338
0.2791017934
0.2790994515
0.2791008033
0.2791026267
0.2791067724
0.2791104856
0.2791122276
0.2791104263
0.2791067903
0.2791031218
0.2791006915
0.2791020957
0.2791038998
0.2791079438
0.2791115455
0.2791132099
0.2791114899
0.2791080274
0.2791043969
0.2791019609
0.2791032967
0.2791051015
0.2791090448
0.2791124646
0.2791140647
0.2791124336
0.2791091181
0.2791055925
0.2791031779
0.2791044177
0.2791062041
0.2791099968
0.2791132331
0.2791147295
0.2791132125
0.2791100598
0.2791066537
0.2791043098
0.2791053147
0.279107056
0.2791106922
0.2791137965
0.279115216
0.279113784
0.2791107332
0.2791075166
0.2791051983
)
;
    }
    bottom
    {
        type            calculated;
        value           nonuniform List<scalar> 
134
(
0.2790920913
0.279092548
0.2790935967
0.2790937053
0.2790921579
0.2790929656
0.2790921593
0.2790927033
0.2790921989
0.27909256
0.2790933319
0.2790949093
0.2790953828
0.2790934393
0.279093803
0.2790925848
0.2790929231
0.2790926116
0.2790931457
0.279094391
0.2790965971
0.2790973977
0.2790951192
0.2790948672
0.2790931964
0.2790933209
0.2790931546
0.2790939662
0.2790957217
0.2790985289
0.2790995879
0.279097086
0.2790961776
0.2790940083
0.2790938648
0.2790938735
0.2790949993
0.2790972561
0.2791005934
0.2791018335
0.2790990888
0.2790976924
0.2790950286
0.2790945677
0.2790947675
0.2790961567
0.2790988782
0.2791026134
0.2791040396
0.2791011377
0.2790993073
0.2790961789
0.2790954332
0.2790957735
0.2790974008
0.2791005323
0.2791045436
0.2791059997
0.2791031036
0.2791009339
0.2790974216
0.2790964225
0.2790969016
0.2790987214
0.2791021488
0.2791063131
0.2791077933
0.2791049369
0.2791025671
0.2790987244
0.2790975088
0.2790981051
0.2791000577
0.2791036786
0.2791079649
0.2791093838
0.2791065513
0.2791040926
0.2791000992
0.2790986859
0.2790993682
0.2791013686
0.2791051378
0.2791094122
0.2791107411
0.2791080002
0.2791055141
0.2791014072
0.2790999354
0.2791006158
0.2791027388
0.2791064612
0.2791106752
0.2791119342
0.2791092588
0.2791068336
0.2791027189
0.2791012182
0.2791018914
0.2791039939
0.2791076865
0.2791117368
0.2791129432
0.2791103119
0.2791080647
0.2791039756
0.2791024741
0.2791031344
0.2791051755
0.2791087451
0.2791126812
0.2791137909
0.2791112421
0.2791091745
0.2791052001
0.2791037033
0.2791042619
0.2791063122
0.2791097319
0.2791134335
0.2791144435
0.2791119786
0.2791101513
0.2791062924
0.279104882
0.2791051724
0.2791071581
0.2791104439
0.279113983
0.2791149118
0.2791125427
0.2791108516
0.279107098
0.2791057935
)
;
    }
    side-walls
    {
        type            calculated;
        value           nonuniform List<scalar> 
261
(
0.2790921989
0.2790914347
0.2790933034
0.2790947946
0.2790957772
0.2790945362
0.2790928739
0.2790932697
0.2790924854
0.2790926116
0.2790920549
0.2790943158
0.2790965479
0.2790978099
0.2790962302
0.2790939465
0.2790938928
0.2790928467
0.2790931546
0.2790928801
0.2790956119
0.2790984935
0.2791000277
0.2790981616
0.2790952536
0.2790946796
0.2790933916
0.2790938735
0.279093889
0.2790971406
0.2791005343
0.2791022726
0.2791001733
0.279096817
0.2790956617
0.2790940904
0.2790947675
0.2790950487
0.2790987496
0.2791025695
0.2791044175
0.2791022102
0.2790984611
0.2790968253
0.279094999
0.2790957735
0.2790962637
0.279100367
0.2791044858
0.2791064416
0.2791041823
0.2791001215
0.2790980838
0.2790960006
0.2790969016
0.279097602
0.2791020051
0.2791062672
0.2791082265
0.2791059751
0.2791017088
0.2790994078
0.2790971124
0.2790981051
0.2790989654
0.2791035349
0.2791079038
0.2791097881
0.2791076219
0.2791032648
0.2791008321
0.2790983146
0.2790993682
0.2791003003
0.2791049853
0.279109338
0.2791111816
0.2791090305
0.2791046895
0.279102156
0.2790995296
0.2791006158
0.279101627
0.2791062869
0.2791105967
0.2791123599
0.2791103071
0.2791060094
0.2791034345
0.2791008033
0.2791018914
0.2791028699
0.2791075189
0.2791116537
0.2791133438
0.2791113977
0.2791072226
0.2791047016
0.2791020957
0.2791031344
0.2791040616
0.2791085676
0.2791125674
0.2791141522
0.279112326
0.2791083621
0.2791058819
0.2791032967
0.2791042619
0.2791051493
0.2791095074
0.2791133543
0.2791148401
0.2791131269
0.2791092881
0.2791069928
0.2791044177
0.2791051724
0.279105978
0.2791101866
0.2791138959
0.279115339
0.2791136527
0.2791099982
0.2791078072
0.2791053147
0.2790927033
0.2790917558
0.2790921444
0.2790934076
0.2790945614
0.2790937882
0.2790926522
0.2790916843
0.2790922044
0.2790929231
0.2790921812
0.27909293
0.2790946745
0.2790962377
0.2790951283
0.2790934089
0.2790920925
0.2790924469
0.2790933209
0.2790928152
0.2790940049
0.2790963573
0.2790982561
0.2790968232
0.27909447
0.2790927357
0.2790927972
0.2790938648
0.2790936405
0.279095347
0.2790982789
0.2791004336
0.2790987595
0.2790958484
0.2790935675
0.2790933272
0.2790945677
0.2790946659
0.2790968728
0.2791003742
0.2791026708
0.279100796
0.2790973606
0.2790945663
0.2790940294
0.2790954332
0.2790958318
0.27909849
0.279102403
0.2791048082
0.2791028201
0.2790989811
0.2790957475
0.2790948958
0.2790964225
0.2790971051
0.2791001837
0.2791043464
0.2791068372
0.2791047467
0.2791006239
0.279096981
0.2790959138
0.2790975088
0.2790984139
0.279101794
0.2791061419
0.2791086196
0.2791064996
0.2791022822
0.2790983038
0.279097043
0.2790986859
0.2790997527
0.279103363
0.2791077613
0.279110184
0.2791081378
0.2791038305
0.2790996896
0.2790982014
0.2790999354
0.2791011133
0.279104826
0.2791091877
0.27911158
0.2791095698
0.2791052586
0.2791010553
0.2790994515
0.2791012182
0.2791024316
0.2791061237
0.2791104484
0.2791127462
0.2791108595
0.2791066473
0.2791023606
0.2791006915
0.2791024741
0.2791037076
0.279107343
0.279111533
0.2791137686
0.279111959
0.2791078513
0.2791036296
0.2791019609
0.2791037033
0.2791049203
0.2791084549
0.2791124499
0.2791145822
0.2791128811
0.2791089523
0.2791048237
0.2791031779
0.279104882
0.2791059538
0.279109411
0.2791132225
0.2791152237
0.279113633
0.2791098912
0.2791058974
0.2791043098
0.2791057935
0.279106771
0.2791101201
0.2791137957
0.2791156867
0.2791141808
0.2791105763
0.2791067333
0.2791051983
)
;
    }
    inlet
    {
        type            calculated;
        value           nonuniform 0();
    }
    outlet
    {
        type            calculated;
        value           nonuniform List<scalar> 
81
(
0.2791051724
0.279105978
0.2791101866
0.2791138959
0.279115339
0.2791136527
0.2791099982
0.2791078072
0.2791053147
0.2791071581
0.2791109552
0.2791144876
0.2791187311
0.2791180857
0.2791180499
0.2791143936
0.2791094888
0.279107056
0.2791104439
0.2791127816
0.2791197339
0.2791241676
0.2791266406
0.2791254051
0.2791189134
0.279114995
0.2791106922
0.279113983
0.2791183207
0.2791255623
0.2791308653
0.2791370035
0.279132732
0.2791257415
0.2791170983
0.2791137965
0.2791149118
0.279119326
0.2791272698
0.2791362956
0.2805873347
0.2791366811
0.2791269906
0.2791200811
0.279115216
0.2791125427
0.2791179421
0.279124668
0.2791329825
0.279135467
0.2791329
0.279125051
0.2791175651
0.279113784
0.2791108516
0.2791145746
0.2791191255
0.2791250531
0.2791275726
0.2791250666
0.2791198037
0.2791134242
0.2791107332
0.279107098
0.2791098986
0.2791142122
0.2791177844
0.2791202538
0.2791178549
0.2791160344
0.2791116317
0.2791075166
0.2791057935
0.279106771
0.2791101201
0.2791137957
0.2791156867
0.2791141808
0.2791105763
0.2791067333
0.2791051983
)
;
    }
    procBoundary1to0
    {
        type            processor;
        value           nonuniform List<scalar> 
97
(
0.2790919432
0.2790919432
0.2790910536
0.2790925192
0.2790934972
0.2790941638
0.2790932375
0.2790921333
0.2790928723
0.2790922061
0.2790918929
0.2790938294
0.2790938294
0.2790938294
0.2790941284
0.279096548
0.279096451
0.2790957858
0.2790940725
0.2790922591
0.2790919827
0.2790920412
0.2790913585
0.2790972503
0.2790972503
0.2790972503
0.2791046419
0.2791184763
0.2791058603
0.2790962537
0.2790946641
0.2790928046
0.2790927619
0.2790938137
0.2790975918
0.2791385133
0.2791385133
0.2791385133
0.2792374331
0.2791403813
0.2791062281
0.2790950253
0.2790934309
0.2790926004
0.2790939108
0.2791014521
0.2791307467
0.2814602607
0.2814602607
0.2814602607
0.2792368007
0.2792368007
0.2791187287
0.2790984424
0.2790939307
0.279091299
0.279093307
0.2790967508
0.2791094992
0.27912984
0.2791095463
0.2791056478
0.2791056478
0.2791056478
0.2790953791
0.2790934038
0.2790924191
0.2790930412
0.2790933773
0.2790971972
0.2791017305
0.2790970753
0.2790940439
0.2790932912
0.2790932912
0.2790932912
0.2790927738
0.2790919547
0.2790921609
0.2790928779
0.279093278
0.2790950063
0.2790933871
0.2790945646
0.2790940379
0.2790924875
0.2790924875
0.2790924875
0.2790925574
0.2790914829
0.2790916461
0.2790925581
0.2790934361
0.2790928972
0.2790921827
0.2790914535
0.2790920262
)
;
    }
}


// ************************************************************************* //
