/*--------------------------------*- C++ -*----------------------------------*\
| =========                 |                                                 |
| \\      /  F ield         | OpenFOAM: The Open Source CFD Toolbox           |
|  \\    /   O peration     | Version:  4.x                                   |
|   \\  /    A nd           | Web:      www.OpenFOAM.org                      |
|    \\/     M anipulation  |                                                 |
\*---------------------------------------------------------------------------*/
FoamFile
{
    version     2.0;
    format      ascii;
    class       volScalarField;
    location    "5000";
    object      T;
}
// * * * * * * * * * * * * * * * * * * * * * * * * * * * * * * * * * * * * * //

dimensions      [0 0 0 1 0 0 0];

internalField   nonuniform List<scalar> 
1174
(
1223.150442
1223.150313
1223.150306
1223.15025
1223.150117
1223.150099
1223.150036
1223.149997
1223.149919
1223.150003
1223.149941
1223.149874
1223.149945
1223.149893
1223.15537
1223.155346
1223.155318
1223.155295
1223.155272
1223.155481
1223.155438
1223.155405
1223.155472
1223.155437
1223.155541
1223.155554
1223.15554
1223.155578
1223.150669
1223.150997
1223.151213
1223.151209
1223.151291
1223.151452
1223.151382
1223.151465
1223.151458
1223.151603
1223.151525
1223.151707
1223.151748
1223.151885
1223.149248
1223.14897
1223.148946
1223.148978
1223.148991
1223.149109
1223.149168
1223.149094
1223.1491
1223.149085
1223.149213
1223.14928
1223.149221
1223.149301
1223.148595
1223.148543
1223.148485
1223.148432
1223.148447
1223.148309
1223.148366
1223.14848
1223.148418
1223.148435
1223.148514
1223.148649
1223.148633
1223.148582
1223.15038
1223.150362
1223.1504
1223.15056
1223.150565
1223.150438
1223.150447
1223.150328
1223.150447
1223.150353
1223.150333
1223.150336
1223.150216
1223.150366
1223.152551
1223.152615
1223.152783
1223.152626
1223.152554
1223.152527
1223.15268
1223.152648
1223.152753
1223.152817
1223.152821
1223.152606
1223.152706
1223.152708
1223.147327
1223.147291
1223.147431
1223.147526
1223.147485
1223.147503
1223.147523
1223.147223
1223.147338
1223.147514
1223.147511
1223.147574
1223.147459
1223.147559
1223.149186
1223.149282
1223.149267
1223.1493
1223.149102
1223.149104
1223.149111
1223.149078
1223.14921
1223.14918
1223.149044
1223.149161
1223.149259
1223.149266
1223.150673
1223.150438
1223.150565
1223.150558
1223.150429
1223.150416
1223.150497
1223.150532
1223.150617
1223.15079
1223.150564
1223.150615
1223.150672
1223.150444
1223.150406
1223.144986
1223.144935
1223.144846
1223.144822
1223.14482
1223.144958
1223.145113
1223.145068
1223.145104
1223.145088
1223.145095
1223.145137
1223.145231
1223.145363
1223.148593
1223.148663
1223.148705
1223.148558
1223.148508
1223.148374
1223.148594
1223.148546
1223.148431
1223.148351
1223.148336
1223.148318
1223.148499
1223.148584
1223.147432
1223.147366
1223.147506
1223.147494
1223.147285
1223.14725
1223.147254
1223.147286
1223.147218
1223.147271
1223.147418
1223.147412
1223.147538
1223.147485
1223.157711
1223.157611
1223.157722
1223.157833
1223.157885
1223.157906
1223.157893
1223.157918
1223.157923
1223.157824
1223.157831
1223.157896
1223.157598
1223.157542
1223.150612
1223.150593
1223.150582
1223.150577
1223.150561
1223.150567
1223.15053
1223.15043
1223.150576
1223.150472
1223.15042
1223.150395
1223.150428
1223.150468
1223.148965
1223.148965
1223.149064
1223.149166
1223.14893
1223.148887
1223.148755
1223.149023
1223.149047
1223.148984
1223.148946
1223.148937
1223.149029
1223.148993
1223.151765
1223.151771
1223.151795
1223.151847
1223.151905
1223.151663
1223.151513
1223.151685
1223.151688
1223.15165
1223.151801
1223.151821
1223.151889
1223.151785
1223.151184
1223.15118
1223.151039
1223.150939
1223.151024
1223.151101
1223.151099
1223.151102
1223.15103
1223.151053
1223.151024
1223.150993
1223.150914
1223.15085
1223.150553
1223.150543
1223.150667
1223.150731
1223.150702
1223.150727
1223.150727
1223.150752
1223.150835
1223.150789
1223.150838
1223.15079
1223.150929
1223.150763
1223.150757
1223.156099
1223.156139
1223.155988
1223.156168
1223.156119
1223.156133
1223.156044
1223.156216
1223.156049
1223.156058
1223.156128
1223.155944
1223.15602
1223.156011
1223.15606
1223.150415
1223.150409
1223.150398
1223.150268
1223.150339
1223.150375
1223.150366
1223.150467
1223.15062
1223.150673
1223.150512
1223.150685
1223.150713
1223.15089
1223.155402
1223.155429
1223.155548
1223.155615
1223.155564
1223.155654
1223.155659
1223.155737
1223.155756
1223.155719
1223.155531
1223.155462
1223.155446
1223.155399
1223.154121
1223.154311
1223.154241
1223.154384
1223.154342
1223.154111
1223.154165
1223.154166
1223.154032
1223.154308
1223.154427
1223.154464
1223.1546
1223.154546
1223.150104
1223.150168
1223.150056
1223.150197
1223.150336
1223.150268
1223.150272
1223.150217
1223.150048
1223.150173
1223.15017
1223.149955
1223.149796
1223.149974
1223.154613
1223.154732
1223.154634
1223.154575
1223.154642
1223.154661
1223.154615
1223.154486
1223.154445
1223.154447
1223.154404
1223.154367
1223.154326
1223.154481
1223.146463
1223.146555
1223.146573
1223.146464
1223.146395
1223.146344
1223.14639
1223.146524
1223.14664
1223.146555
1223.146337
1223.146264
1223.146344
1223.146355
1223.149507
1223.149507
1223.149516
1223.149426
1223.14946
1223.149468
1223.149526
1223.149484
1223.149424
1223.149471
1223.149658
1223.149611
1223.149598
1223.149664
1223.148785
1223.148745
1223.148754
1223.14879
1223.148718
1223.148798
1223.148855
1223.148966
1223.148825
1223.148774
1223.14874
1223.148848
1223.14878
1223.148873
1223.148919
1223.148962
1223.14912
1223.149185
1223.149244
1223.14925
1223.149335
1223.149322
1223.149291
1223.149244
1223.149103
1223.14906
1223.149154
1223.149206
1223.149184
1223.149283
1223.149258
1223.149169
1223.1492
1223.149204
1223.149133
1223.149245
1223.149178
1223.149213
1223.149223
1223.149264
1223.149205
1223.14903
1223.149128
1223.149325
1223.149287
1223.156646
1223.156502
1223.156452
1223.156322
1223.15633
1223.156344
1223.156311
1223.15633
1223.15637
1223.156204
1223.156149
1223.156303
1223.156206
1223.156353
1223.142421
1223.142493
1223.14243
1223.142129
1223.14207
1223.141961
1223.142016
1223.142192
1223.142118
1223.142029
1223.141855
1223.14191
1223.14184
1223.142199
1223.148291
1223.14841
1223.148577
1223.148781
1223.148764
1223.148587
1223.148666
1223.148544
1223.148471
1223.14833
1223.148297
1223.1482
1223.148231
1223.148169
1223.148441
1223.148417
1223.148672
1223.148586
1223.148341
1223.148373
1223.148336
1223.14836
1223.148269
1223.14834
1223.148378
1223.148497
1223.148471
1223.148496
1223.154134
1223.154189
1223.154186
1223.154264
1223.154208
1223.154416
1223.154533
1223.154449
1223.154431
1223.154608
1223.154603
1223.15469
1223.154649
1223.154633
1223.149627
1223.149725
1223.149702
1223.14978
1223.149607
1223.149691
1223.149497
1223.149599
1223.149697
1223.149567
1223.149681
1223.149724
1223.149745
1223.149729
1223.150432
1223.150323
1223.150349
1223.150411
1223.150355
1223.150102
1223.150245
1223.150263
1223.150251
1223.150348
1223.150299
1223.150268
1223.150231
1223.15037
1223.150453
1223.152234
1223.152327
1223.152208
1223.152114
1223.152163
1223.152042
1223.152105
1223.152149
1223.152001
1223.152096
1223.15213
1223.151987
1223.151937
1223.151919
1223.152105
1223.151522
1223.151803
1223.151872
1223.151862
1223.151791
1223.151711
1223.151846
1223.151957
1223.15201
1223.152005
1223.152004
1223.151943
1223.15199
1223.151883
1223.151788
1223.145887
1223.146104
1223.145785
1223.145855
1223.145712
1223.145604
1223.145633
1223.145759
1223.145737
1223.145663
1223.145805
1223.145827
1223.145686
1223.145496
1223.1453
1216.901716
1216.895574
1216.889992
1216.884633
1216.879594
1216.874495
1216.86916
1216.864073
1216.858968
1216.853911
1216.848799
1216.843921
1216.838838
1216.833826
1223.144676
1223.144668
1223.144561
1223.144395
1223.144202
1223.144172
1223.144131
1223.143838
1223.143663
1223.143589
1223.143638
1223.143545
1223.143688
1223.143607
1223.153056
1223.153145
1223.153165
1223.153138
1223.153252
1223.153332
1223.153246
1223.153107
1223.153191
1223.153256
1223.153065
1223.153181
1223.153151
1223.153005
1223.148633
1223.148638
1223.148682
1223.148655
1223.148601
1223.148945
1223.149075
1223.149084
1223.149084
1223.149203
1223.149337
1223.149197
1223.14904
1223.148789
1223.149203
1223.149308
1223.1493
1223.149149
1223.149043
1223.14898
1223.148996
1223.148936
1223.14899
1223.149008
1223.149094
1223.149025
1223.14911
1223.149113
1223.155091
1223.155187
1223.155231
1223.155113
1223.155312
1223.155265
1223.155164
1223.154996
1223.155019
1223.15496
1223.154946
1223.155091
1223.155085
1223.155247
1223.155229
1223.15105
1223.151089
1223.151045
1223.151188
1223.15107
1223.150889
1223.150921
1223.150982
1223.15094
1223.150925
1223.15101
1223.150921
1223.15098
1223.150995
1223.150939
1223.153139
1223.153093
1223.153151
1223.153224
1223.153408
1223.153548
1223.153444
1223.153401
1223.153357
1223.153338
1223.153431
1223.153283
1223.153376
1223.153315
1223.153203
1223.146766
1223.146647
1223.146651
1223.146815
1223.146836
1223.146858
1223.146877
1223.146783
1223.146878
1223.146946
1223.146761
1223.146825
1223.146896
1223.14706
1223.147071
1223.150023
1223.149929
1223.149619
1223.14944
1223.149506
1223.149375
1223.149216
1223.149113
1223.149062
1223.149029
1223.148862
1223.148971
1223.149006
1223.148825
1223.148927
1223.146328
1223.14646
1223.146519
1223.146626
1223.146686
1223.146756
1223.146722
1223.1468
1223.146895
1223.147181
1223.147357
1223.14734
1223.147384
1223.14739
1223.147428
1223.151219
1223.15136
1223.151476
1223.151587
1223.151607
1223.151686
1223.151847
1223.1516
1223.151422
1223.15145
1223.151611
1223.151559
1223.151799
1223.151518
1223.15267
1223.152539
1223.15254
1223.152534
1223.15254
1223.152686
1223.152594
1223.152477
1223.152527
1223.152333
1223.152407
1223.152429
1223.152277
1223.152584
1223.149679
1223.149675
1223.149664
1223.149767
1223.149622
1223.149638
1223.1497
1223.149703
1223.14992
1223.149824
1223.149922
1223.149857
1223.149833
1223.149781
1223.148723
1223.148478
1223.14858
1223.148733
1223.148789
1223.148845
1223.148966
1223.148917
1223.149019
1223.149138
1223.149204
1223.14913
1223.149044
1223.148922
1223.148968
1223.148407
1223.148445
1223.148349
1223.148315
1223.148323
1223.148334
1223.14826
1223.148038
1223.14804
1223.14801
1223.148163
1223.148198
1223.148111
1223.148189
1223.148198
1223.153766
1223.153695
1223.15372
1223.153827
1223.154051
1223.15403
1223.153847
1223.153782
1223.153885
1223.15392
1223.153917
1223.153807
1223.153613
1223.153455
1223.15355
1223.151187
1223.151235
1223.15122
1223.151274
1223.151215
1223.151306
1223.151409
1223.151397
1223.151478
1223.151476
1223.151398
1223.151435
1223.151482
1223.151463
1223.151512
1223.150234
1223.150267
1223.15017
1223.150223
1223.150303
1223.150372
1223.15042
1223.15046
1223.150456
1223.150308
1223.150399
1223.150339
1223.150249
1223.150178
1223.150454
1223.151676
1223.151839
1223.152049
1223.152044
1223.151853
1223.151974
1223.15178
1223.151839
1223.151843
1223.15181
1223.151494
1223.15142
1223.1514
1223.151438
1223.151449
1223.150876
1223.150699
1223.150702
1223.150469
1223.150166
1223.150192
1223.150262
1223.15018
1223.150215
1223.150164
1223.150274
1223.15027
1223.150318
1223.150479
1223.150573
1223.152486
1223.152476
1223.152694
1223.152751
1223.152663
1223.152746
1223.15298
1223.153109
1223.15318
1223.153247
1223.153317
1223.153328
1223.153352
1223.153233
1223.14943
1223.149389
1223.149405
1223.14931
1223.149399
1223.149573
1223.149343
1223.149355
1223.149486
1223.149389
1223.149288
1223.149286
1223.149317
1223.14948
1223.150375
1223.150329
1223.150343
1223.150373
1223.1503
1223.150317
1223.150405
1223.150517
1223.150434
1223.150618
1223.150649
1223.150692
1223.150561
1223.150527
1223.150666
1223.150322
1223.150461
1223.150518
1223.150515
1223.150343
1223.150291
1223.150223
1223.150367
1223.150173
1223.150083
1223.150257
1223.150178
1223.150156
1223.150105
1223.149988
1223.149259
1223.149343
1223.149372
1223.149466
1223.149433
1223.149558
1223.149426
1223.149527
1223.149607
1223.149472
1223.149509
1223.149488
1223.149612
1223.149656
1223.149784
1223.151401
1223.151437
1223.151476
1223.151457
1223.151517
1223.151426
1223.151437
1223.151448
1223.151169
1223.151333
1223.151374
1223.151511
1223.151498
1223.151424
1223.151625
1223.147582
1223.147589
1223.147606
1223.147579
1223.147616
1223.14765
1223.14778
1223.147793
1223.147804
1223.147698
1223.147804
1223.147891
1223.147783
1223.14781
1223.148031
1223.150939
1223.150999
1223.15098
1223.151144
1223.151054
1223.151006
1223.150971
1223.15108
1223.151025
1223.151028
1223.151153
1223.151195
1223.151147
1223.151219
1223.151313
1223.141597
1223.141618
1223.141651
1223.141638
1223.141894
1223.142138
1223.142153
1223.142052
1223.142185
1223.142071
1223.141983
1223.141865
1223.142024
1223.141851
1223.141794
1223.142029
1223.141868
1223.141839
1223.141849
1223.141822
1223.141905
1223.142014
1223.142074
1223.142066
1223.14212
1223.142111
1223.142125
1223.142242
1223.142292
1223.142388
1223.148839
1223.148756
1223.148904
1223.149012
1223.14896
1223.148962
1223.148891
1223.148898
1223.148923
1223.14888
1223.148842
1223.148837
1223.148939
1223.148826
1223.14715
1223.147267
1223.147204
1223.147193
1223.147207
1223.147199
1223.147254
1223.147373
1223.14745
1223.147431
1223.147361
1223.147385
1223.147378
1223.147224
1223.147167
1223.152143
1223.152098
1223.152013
1223.151985
1223.151889
1223.151838
1223.151791
1223.151878
1223.151952
1223.151906
1223.151907
1223.151866
1223.151786
1223.15201
1223.152098
1223.152322
1223.152304
1223.152359
1223.152373
1223.152381
1223.152426
1223.152252
1223.152304
1223.152214
1223.152151
1223.152313
1223.15229
1223.152195
1223.152164
1223.15217
1223.149613
1223.149773
1223.149804
1223.149884
1223.149677
1223.149717
1223.149715
1223.149712
1223.149712
1223.149752
1223.149728
1223.149734
1223.149786
1223.14979
1223.149732
1223.14668
1223.146576
1223.146586
1223.146703
1223.146683
1223.146731
1223.14657
1223.146637
1223.146739
1223.146664
1223.146734
1223.146644
1223.146755
1223.146943
1223.147049
1223.147945
1223.147784
1223.147762
1223.147777
1223.147828
1223.147888
1223.14796
1223.148143
1223.148061
1223.148076
1223.147925
1223.147865
1223.147895
1223.147989
1223.148042
1223.150096
1223.150206
1223.15032
1223.150175
1223.150242
1223.150273
1223.150322
1223.150162
1223.150163
1223.150253
1223.150015
1223.15006
1223.150012
1223.150056
1223.150167
1223.152456
1223.152486
1223.152362
1223.152304
1223.152326
1223.152207
1223.152334
1223.152359
1223.152226
1223.152158
1223.152216
1223.152204
1223.152206
1223.152253
1223.152258
1223.149337
1223.149355
1223.149499
1223.149549
1223.149566
1223.149554
1223.149483
1223.149413
1223.149572
1223.14955
1223.149666
1223.14963
1223.149676
1223.149727
1223.149771
)
;

boundaryField
{
    top
    {
        type            zeroGradient;
    }
    bottom
    {
        type            zeroGradient;
    }
    side-walls
    {
        type            zeroGradient;
    }
    inlet
    {
        type            zeroGradient;
    }
    outlet
    {
        type            zeroGradient;
    }
    procBoundary1to0
    {
        type            processor;
        value           nonuniform List<scalar> 
97
(
1223.150482
1223.150482
1223.15522
1223.150679
1223.14922
1223.148421
1223.150359
1223.15237
1223.14725
1223.149329
1223.150467
1223.144987
1223.144987
1223.144987
1223.148658
1223.147341
1223.157466
1223.150681
1223.148902
1223.151869
1223.151149
1223.150669
1223.155868
1223.150382
1223.150382
1223.150382
1223.155411
1223.154099
1223.150068
1223.154747
1223.14631
1223.149428
1223.148759
1223.148999
1223.14941
1223.156462
1223.156462
1223.156462
1223.142173
1223.148253
1223.148456
1223.154014
1223.149511
1223.150359
1223.152247
1223.151349
1223.150291
1216.902878
1216.902878
1216.902878
1223.144948
1223.144948
1223.152994
1223.148739
1223.149443
1223.155171
1223.15122
1223.153096
1223.146574
1223.154268
1223.146365
1223.151007
1223.151007
1223.151007
1223.152465
1223.14963
1223.149013
1223.148493
1223.153488
1223.15114
1223.150129
1223.151674
1223.150567
1223.152328
1223.152328
1223.152328
1223.149563
1223.150197
1223.150162
1223.149209
1223.151347
1223.147446
1223.150869
1223.141817
1223.141936
1223.148937
1223.148937
1223.148937
1223.147169
1223.152264
1223.152401
1223.149653
1223.146697
1223.148166
1223.150049
1223.152393
1223.149498
)
;
    }
}


// ************************************************************************* //
