/*--------------------------------*- C++ -*----------------------------------*\
| =========                 |                                                 |
| \\      /  F ield         | OpenFOAM: The Open Source CFD Toolbox           |
|  \\    /   O peration     | Version:  4.x                                   |
|   \\  /    A nd           | Web:      www.OpenFOAM.org                      |
|    \\/     M anipulation  |                                                 |
\*---------------------------------------------------------------------------*/
FoamFile
{
    version     2.0;
    format      ascii;
    class       volVectorField;
    location    "5000";
    object      U;
}
// * * * * * * * * * * * * * * * * * * * * * * * * * * * * * * * * * * * * * //

dimensions      [0 1 -1 0 0 0 0];

internalField   nonuniform List<vector> 
1174
(
(0.01100019335 -9.780237082e-09 -9.223325173e-09)
(0.01100020731 -8.425945998e-09 -9.302929893e-09)
(0.0110002331 -7.142284996e-09 -6.473449729e-09)
(0.01100023149 -4.960571918e-09 -4.407143176e-09)
(0.0110002194 -2.202652704e-09 -4.113404981e-09)
(0.01100019157 -1.158531487e-09 -6.395545897e-10)
(0.0110001521 -2.736717879e-10 -4.072448388e-10)
(0.01100010657 -1.270498605e-09 -7.507779467e-10)
(0.01100005778 6.829598995e-10 1.599340607e-09)
(0.01100000617 2.183419167e-10 5.380724808e-09)
(0.01099994982 -2.999853896e-11 2.771173996e-09)
(0.0109998933 1.456192052e-09 2.606310759e-09)
(0.01099984458 2.510077909e-09 2.370850736e-09)
(0.01099978805 2.477942515e-09 3.811368034e-09)
(0.01100020047 -4.619144195e-08 -1.012370755e-08)
(0.01100020215 -4.30715291e-08 -1.315914252e-08)
(0.01100021555 -3.143675568e-08 -8.906191283e-09)
(0.01100020055 -2.111416914e-08 -4.67416193e-09)
(0.01100016773 -1.40188228e-08 -2.953790555e-09)
(0.01100012742 -8.42975111e-09 -2.336192255e-10)
(0.01100007166 -4.541259909e-09 -5.60753243e-10)
(0.0110000168 -3.734281425e-10 9.795744928e-10)
(0.01099996167 2.101649958e-09 3.782135541e-09)
(0.01099990487 3.008809413e-09 1.744167607e-09)
(0.01099984958 5.93079341e-09 3.238983924e-09)
(0.01099979405 6.77342618e-09 2.263865384e-09)
(0.01099974716 7.17662601e-09 2.953274158e-09)
(0.01099970056 7.336655403e-09 4.032207408e-09)
(0.01100022084 -3.828767925e-08 -2.279805148e-08)
(0.01100018936 -4.178649941e-08 -2.222264933e-08)
(0.01100018488 -2.885810704e-08 -1.415955893e-08)
(0.01100013533 -1.74072739e-08 -9.289088594e-09)
(0.01100007041 -1.35581267e-08 -6.000724773e-10)
(0.01100000378 -6.013283584e-09 -6.881139088e-11)
(0.01099992982 -6.745250693e-10 1.314546662e-09)
(0.01099986291 1.79338551e-09 1.998276642e-09)
(0.01099979821 4.387344434e-09 7.850425439e-10)
(0.01099974143 4.221904737e-09 2.873179103e-09)
(0.01099968766 8.667779101e-09 9.109637329e-10)
(0.01099963694 7.892284355e-09 2.351398753e-09)
(0.01099959592 9.567545686e-09 4.161595358e-09)
(0.01099956101 1.050723687e-08 2.388976598e-09)
(0.01100023499 -6.187599433e-08 -6.153618862e-09)
(0.01100013689 -4.328354709e-08 -2.121280055e-08)
(0.01100010542 -2.311400696e-08 -1.205312906e-08)
(0.01100002564 -1.092925751e-08 -3.534147574e-09)
(0.01099993899 -5.993729477e-09 -1.547427527e-10)
(0.01099985298 -2.368509043e-09 3.597158362e-09)
(0.0109997709 -4.553109312e-10 4.777899839e-09)
(0.01099969727 1.589635515e-09 5.952461028e-09)
(0.01099963164 2.912644972e-09 4.960083701e-09)
(0.01099958098 5.25671456e-09 3.996045286e-09)
(0.01099953216 3.503731418e-09 3.291345004e-09)
(0.01099949169 5.320657059e-09 3.802332149e-09)
(0.01099945883 6.663925895e-09 5.564311377e-09)
(0.01099943003 4.992668049e-09 3.496190462e-09)
(0.01100031545 -5.102463675e-10 -1.890630168e-08)
(0.01100014114 1.398037826e-10 -2.361552086e-08)
(0.01100007547 -6.812454452e-10 -1.016779483e-08)
(0.01099997166 -2.012362451e-09 1.521954127e-10)
(0.01099987011 1.515149927e-10 5.092124401e-09)
(0.01099978075 -8.204662301e-11 5.064551568e-09)
(0.0109996971 4.492740616e-10 4.733669312e-09)
(0.01099962594 1.96692283e-09 4.874187075e-09)
(0.01099956127 1.381031975e-09 3.492586465e-09)
(0.0109995123 -8.575299363e-10 5.370708626e-09)
(0.01099946835 -1.564397872e-09 2.193827185e-09)
(0.01099943396 -2.110227643e-09 1.696681871e-09)
(0.01099940103 -4.708855287e-10 2.82511119e-09)
(0.01099937979 -1.182770566e-09 3.106462607e-09)
(0.0110002331 6.185086988e-08 -5.109026954e-09)
(0.011000138 4.107352576e-08 -2.366455738e-08)
(0.01100010597 2.279138898e-08 -1.281621368e-08)
(0.01100002506 1.146388699e-08 -3.6665501e-09)
(0.01099994053 6.518250049e-09 1.525698314e-09)
(0.01099985169 2.539656611e-09 4.807191174e-09)
(0.01099977126 3.180384325e-11 4.964604654e-09)
(0.01099969875 3.013820339e-12 5.463356656e-09)
(0.01099963311 -1.162091472e-09 6.774237938e-09)
(0.01099957675 -1.740084577e-09 6.256229369e-09)
(0.01099953355 -5.008710785e-09 5.0591571e-09)
(0.01099949103 -4.222816087e-09 4.873200806e-09)
(0.01099945811 -5.066574136e-09 5.854349937e-09)
(0.01099943287 -5.084939113e-09 5.380226741e-09)
(0.01100021931 3.699727969e-08 -1.928144706e-08)
(0.01100018834 4.014231809e-08 -2.182921921e-08)
(0.01100018326 2.829491608e-08 -1.194012199e-08)
(0.01100013329 1.614453953e-08 -4.75333897e-09)
(0.01100007178 8.423966766e-09 -2.011728012e-09)
(0.01100000242 2.116543756e-09 1.484696985e-09)
(0.01099993153 -6.30072067e-10 3.516628212e-09)
(0.01099986293 -3.10212519e-09 2.85019312e-09)
(0.01099979616 -3.968941958e-09 3.60537717e-09)
(0.01099974033 -3.611520868e-09 2.410248533e-09)
(0.01099968905 -4.458671739e-09 5.257516994e-09)
(0.01099963727 -5.572584794e-09 3.398185538e-09)
(0.01099959694 -8.563535559e-09 5.433273109e-09)
(0.01099955996 -6.492507247e-09 4.958123364e-09)
(0.01100019502 4.571778319e-08 -8.301072877e-09)
(0.0110002001 4.102894935e-08 -1.174954134e-08)
(0.01100021526 3.001180281e-08 -9.535629189e-09)
(0.01100019911 2.131124013e-08 -3.901108154e-09)
(0.01100016864 1.34724383e-08 -4.845101123e-09)
(0.01100012604 7.237082986e-09 -2.61165194e-10)
(0.01100007723 3.437743565e-09 1.61166788e-09)
(0.01100001764 6.754780655e-10 2.603587081e-10)
(0.010999962 -3.474478858e-09 2.484552412e-09)
(0.01099990481 -4.524065676e-09 3.159028261e-09)
(0.01099985082 -6.05717837e-09 3.467072485e-09)
(0.01099979494 -7.039423799e-09 4.04712054e-09)
(0.01099974592 -8.380518766e-09 4.074169927e-09)
(0.01099969904 -7.263054643e-09 4.374424866e-09)
(0.01100018857 7.687660452e-09 -8.87874958e-09)
(0.01100020857 9.079218242e-09 -1.254611966e-08)
(0.01100023118 6.992691347e-09 -9.452795654e-09)
(0.01100023138 5.158411396e-09 -4.124598942e-09)
(0.01100021826 3.07333996e-09 -5.491929306e-09)
(0.01100019062 2.783762621e-09 -2.358738967e-09)
(0.01100015474 -3.488157999e-10 9.453964012e-10)
(0.01100010913 -1.160901962e-09 4.190582028e-10)
(0.01100005732 -1.933935767e-09 2.404752019e-09)
(0.01100000475 -1.926379652e-09 8.34258224e-10)
(0.01099994952 -1.412208568e-09 1.576764311e-09)
(0.01099989264 -2.5695367e-09 3.690413292e-09)
(0.01099984524 -2.439544506e-09 4.78732931e-09)
(0.01099979203 -2.133337726e-09 4.457263352e-09)
(0.01100010858 -3.01091591e-08 -7.664652678e-08)
(0.01100020149 -9.832118926e-09 -4.488674143e-08)
(0.01100020167 -1.164366803e-08 -4.170969595e-08)
(0.01100021654 -8.191957351e-09 -3.083208308e-08)
(0.01100019962 -5.644976531e-09 -1.98691813e-08)
(0.01100016926 -2.266807811e-09 -1.267038763e-08)
(0.01100012521 7.036884293e-10 -7.869032422e-09)
(0.01100007335 1.619246292e-09 -3.797660416e-09)
(0.01100001916 2.22012564e-09 7.020071497e-11)
(0.01099996361 2.274534326e-09 2.51081389e-09)
(0.01099990477 1.807462052e-09 3.546715518e-09)
(0.01099984916 3.2361301e-09 6.797227379e-09)
(0.01099979565 3.866452777e-09 5.973237537e-09)
(0.01099974798 5.198936404e-09 7.94074986e-09)
(0.01099969739 3.362913796e-09 7.627067336e-09)
(0.01100021409 -5.603134513e-08 -5.759770874e-08)
(0.01100017261 -5.575645818e-08 -5.56758051e-08)
(0.01100016639 -3.695313587e-08 -3.700851643e-08)
(0.0110001228 -2.356393155e-08 -2.451358398e-08)
(0.01100006488 -1.278252813e-08 -1.287740434e-08)
(0.01100000249 -5.131741459e-09 -4.472785463e-09)
(0.01099993957 -1.846624526e-10 -4.901129188e-10)
(0.01099987736 4.240321337e-09 3.79563268e-09)
(0.01099981905 5.414441254e-09 5.804406711e-09)
(0.0109997639 7.320624714e-09 6.063559543e-09)
(0.01099971346 8.068438624e-09 7.248582543e-09)
(0.01099966616 9.033064522e-09 6.649805415e-09)
(0.01099962641 1.180997071e-08 8.910659463e-09)
(0.01099958909 1.017449781e-08 1.012895934e-08)
(0.0110002346 -3.479349925e-08 -1.073651516e-07)
(0.01100010228 -5.266802901e-08 -9.057772614e-08)
(0.01100004944 -3.150209678e-08 -4.99849949e-08)
(0.01099994702 -1.549890707e-08 -2.213803724e-08)
(0.01099985052 -6.114917316e-09 -6.38742286e-09)
(0.01099976215 1.313384504e-09 3.770655834e-09)
(0.01099968684 5.88444913e-09 8.154085651e-09)
(0.01099962411 8.149633782e-09 1.08883071e-08)
(0.0109995718 9.053642738e-09 1.128663805e-08)
(0.01099952892 8.894230617e-09 1.043932952e-08)
(0.01099949028 9.040878528e-09 1.007416939e-08)
(0.01099946177 9.991641347e-09 9.17991204e-09)
(0.01099943772 1.152553354e-08 1.246049659e-08)
(0.01099941752 9.791270226e-09 1.086277785e-08)
(0.01100018651 -6.049670896e-08 -8.339919442e-08)
(0.0109998939 -4.590230947e-08 -1.024747839e-07)
(0.01099980226 -1.906430618e-08 -4.274065778e-08)
(0.01099966524 -2.408691133e-09 -1.007345823e-08)
(0.01099954899 2.05999941e-09 7.328825323e-09)
(0.01099945956 4.868581664e-09 1.580938577e-08)
(0.01099939271 6.406798806e-09 1.803912149e-08)
(0.01099934847 6.415331473e-09 1.85838526e-08)
(0.01099931329 5.160167929e-09 1.792565155e-08)
(0.01099929152 6.50929108e-09 1.391173031e-08)
(0.0109992768 6.643302797e-09 1.052107032e-08)
(0.0109992681 5.732894749e-09 9.092951374e-09)
(0.01099926256 5.895111137e-09 1.327833101e-08)
(0.01099925753 7.077357086e-09 1.191500337e-08)
(0.01100030931 -1.679966787e-09 -1.23036171e-07)
(0.01099977341 -2.117706343e-09 -9.426868774e-08)
(0.01099964078 -3.037831676e-09 -2.013012408e-08)
(0.01099948884 -2.35541261e-10 1.081473209e-08)
(0.01099937745 5.520560852e-10 1.921752533e-08)
(0.01099930193 -1.730180498e-09 2.29138982e-08)
(0.01099925198 -8.411120531e-10 2.152249988e-08)
(0.01099921972 3.061335477e-10 1.935840663e-08)
(0.0109992012 2.924776948e-09 1.657551446e-08)
(0.01099919212 1.043240151e-09 1.294152007e-08)
(0.01099918705 -1.065256276e-09 1.040915992e-08)
(0.01099918754 -6.090938843e-10 8.641582517e-09)
(0.0109991898 3.329527661e-10 1.253870102e-08)
(0.01099919418 -3.176533605e-10 1.285317492e-08)
(0.011000185 6.081620054e-08 -8.490038147e-08)
(0.01099989322 4.522047205e-08 -1.022951502e-07)
(0.01099980264 1.787974135e-08 -4.300249943e-08)
(0.01099966432 3.092106504e-09 -9.035916312e-09)
(0.01099954843 -3.113954746e-09 6.018638962e-09)
(0.0109994604 -5.338628383e-09 1.369555909e-08)
(0.01099939461 -5.647034843e-09 1.785076932e-08)
(0.01099934672 -5.908405952e-09 1.732906276e-08)
(0.0109993156 -5.993983888e-09 1.417236267e-08)
(0.01099928806 -5.922161051e-09 1.329089248e-08)
(0.01099927599 -5.843368812e-09 1.201634706e-08)
(0.01099926768 -4.247974465e-09 1.089501098e-08)
(0.01099926098 -6.371409828e-09 1.390053987e-08)
(0.01099925815 -5.450115918e-09 1.281589659e-08)
(0.01100022858 3.393329681e-08 -1.058865248e-07)
(0.01100010154 5.353026708e-08 -9.159545106e-08)
(0.01100004724 3.361891549e-08 -4.759664816e-08)
(0.0109999476 1.431998188e-08 -2.177140306e-08)
(0.01099984902 2.921677487e-09 -7.08304462e-09)
(0.01099976231 -2.344942357e-09 4.855228851e-09)
(0.01099968348 -5.672415869e-09 9.398153214e-09)
(0.01099962193 -8.388621404e-09 1.131706809e-08)
(0.01099957015 -8.148432904e-09 1.125939513e-08)
(0.01099952684 -8.039867044e-09 1.088436457e-08)
(0.01099949224 -7.290314819e-09 1.174603197e-08)
(0.01099946149 -8.362398678e-09 1.031305583e-08)
(0.0109994365 -1.154444826e-08 1.218301397e-08)
(0.01099941626 -8.666687243e-09 1.107036931e-08)
(0.01100020797 5.685003749e-08 -5.610547131e-08)
(0.01100016939 5.421659735e-08 -5.391470942e-08)
(0.01100016623 3.637882713e-08 -3.732911611e-08)
(0.01100012345 2.451384542e-08 -2.245545853e-08)
(0.01100006646 1.37921157e-08 -1.357345923e-08)
(0.01100000113 4.71017541e-09 -3.926888696e-09)
(0.01099993687 -1.680400747e-10 2.553995096e-09)
(0.01099987825 -3.154521398e-09 5.117940222e-09)
(0.01099981945 -4.571599994e-09 5.836258852e-09)
(0.01099976212 -6.355383999e-09 6.422954496e-09)
(0.01099971361 -6.566247828e-09 8.500510929e-09)
(0.01099966665 -7.912635368e-09 8.66281866e-09)
(0.01099962702 -9.313985475e-09 8.513902888e-09)
(0.01099958947 -8.293855256e-09 1.001375206e-08)
(0.01100019884 9.659214549e-09 -4.544140302e-08)
(0.01100020174 1.040636887e-08 -4.174815181e-08)
(0.01100021588 6.682875005e-09 -3.165195581e-08)
(0.01100020047 5.245279514e-09 -1.965311914e-08)
(0.01100016694 4.487959805e-09 -1.293502265e-08)
(0.0110001252 6.393809221e-10 -7.541481635e-09)
(0.01100007493 -5.095889283e-10 -1.438864816e-09)
(0.01100001896 -7.338844302e-10 -3.878443197e-10)
(0.0109999622 -2.85544338e-09 3.561882794e-09)
(0.01099990349 -2.26006413e-09 4.700632143e-09)
(0.01099985205 -2.953925019e-09 5.95345902e-09)
(0.01099979444 -3.189284709e-09 6.370460215e-09)
(0.01099974815 -2.071234368e-09 7.636515551e-09)
(0.01099969797 -2.970745582e-09 8.155980589e-09)
(0.01100009139 -6.358533522e-08 -9.573995987e-08)
(0.01100022037 -1.727106645e-08 -3.859652639e-08)
(0.0110001898 -2.059748299e-08 -4.21418266e-08)
(0.01100018392 -1.041416986e-08 -2.718646813e-08)
(0.01100013345 -4.113361445e-09 -1.597107318e-08)
(0.01100007063 -3.355287887e-09 -1.12003703e-08)
(0.01100000181 1.417887407e-09 -4.929597291e-09)
(0.01099993133 4.445811636e-09 5.339096734e-10)
(0.01099986429 4.91091479e-09 3.453951218e-09)
(0.01099979947 6.227758901e-09 6.005511681e-09)
(0.01099974058 5.082132913e-09 6.882777534e-09)
(0.01099968494 6.009462998e-09 7.428050471e-09)
(0.01099963682 5.919633495e-09 8.276394142e-09)
(0.01099959756 7.997593957e-09 8.2541332e-09)
(0.01099955546 7.031381406e-09 7.905836517e-09)
(0.01100007296 -2.772577273e-07 -1.599183848e-07)
(0.01100023338 -1.072890231e-07 -3.432558398e-08)
(0.01100010008 -9.004473317e-08 -5.369966871e-08)
(0.01100004651 -5.051101602e-08 -3.252027817e-08)
(0.01099994718 -2.258904937e-08 -1.420522342e-08)
(0.0109998502 -6.843326659e-09 -7.564790858e-09)
(0.01099976034 4.525247237e-09 -5.696608765e-11)
(0.01099968772 9.597481113e-09 6.99804625e-09)
(0.01099962199 1.09741088e-08 7.599968477e-09)
(0.0109995711 1.15475046e-08 8.430053781e-09)
(0.01099952858 1.125735383e-08 1.059751879e-08)
(0.01099949122 1.099925786e-08 8.549887011e-09)
(0.01099946121 1.126834886e-08 9.227648231e-09)
(0.01099943675 1.328828119e-08 1.116072885e-08)
(0.01099941652 1.2109235e-08 8.9452291e-09)
(0.0110002177 -6.573910123e-08 -7.004456333e-08)
(0.01099983905 -9.033694992e-08 -9.354478346e-08)
(0.01099967585 -3.467290487e-08 -3.598824584e-08)
(0.01099948958 -3.857100876e-09 -4.069877108e-09)
(0.01099935569 1.030037747e-08 8.686049184e-09)
(0.01099926719 1.567962356e-08 1.539093706e-08)
(0.01099921014 1.868676077e-08 1.813577921e-08)
(0.01099917968 1.826649143e-08 1.751246274e-08)
(0.01099916758 1.38898402e-08 1.412695598e-08)
(0.01099916658 1.188167886e-08 1.15638088e-08)
(0.01099916542 9.307339332e-09 1.125117494e-08)
(0.01099917424 1.131953821e-08 9.971521825e-09)
(0.01099918115 1.333942656e-08 1.2255058e-08)
(0.01099919562 1.224928602e-08 1.211828611e-08)
(0.01099987391 -8.550129303e-08 7.526719453e-08)
(0.01099908294 -4.844685873e-08 -1.094193905e-07)
(0.01099890112 5.081719677e-09 -1.725737231e-08)
(0.01099871865 2.307635101e-08 2.563901268e-08)
(0.01099863755 2.200786858e-08 3.106770231e-08)
(0.01099862277 1.816950126e-08 3.039177134e-08)
(0.01099864681 1.499720026e-08 2.90643036e-08)
(0.01099869004 1.173300867e-08 2.059547479e-08)
(0.01099874186 1.094139284e-08 1.54003714e-08)
(0.01099879798 7.388970781e-09 1.411689855e-08)
(0.01099884968 4.897366793e-09 1.129247529e-08)
(0.01099890153 4.844137505e-09 9.861533847e-09)
(0.01099894731 8.147520683e-09 1.378959931e-08)
(0.01099898704 7.470300081e-09 1.347069117e-08)
(0.01099988027 -3.828081513e-10 4.143170549e-07)
(0.01099837728 -7.847573545e-10 -2.903237284e-08)
(0.01099824602 -7.181022102e-10 3.687981274e-08)
(0.01099816005 8.763571495e-10 6.418208988e-08)
(0.01099818248 -1.916376111e-10 4.815987355e-08)
(0.01099826179 -8.106424905e-10 3.669353312e-08)
(0.01099835888 1.777990978e-10 2.837353775e-08)
(0.01099845625 -7.868968489e-10 1.976982076e-08)
(0.01099854993 7.408319958e-10 1.341763028e-08)
(0.0109986386 5.528579515e-10 9.534394213e-09)
(0.01099871677 8.391824573e-10 8.053665396e-09)
(0.01099879208 4.556650516e-11 8.317070801e-09)
(0.01099885273 1.496807121e-09 1.229080057e-08)
(0.01099890641 1.291426861e-09 1.16690924e-08)
(0.0109998725 8.50747822e-08 7.708694552e-08)
(0.01099908355 4.748690119e-08 -1.071474557e-07)
(0.01099890326 -4.85516725e-09 -1.493232924e-08)
(0.01099871891 -2.22800438e-08 2.504451725e-08)
(0.01099863727 -2.333315292e-08 3.232061466e-08)
(0.01099862361 -1.879679056e-08 3.201021685e-08)
(0.01099864683 -1.618470169e-08 2.742191019e-08)
(0.01099869128 -1.240711688e-08 2.108133371e-08)
(0.01099874035 -9.830689764e-09 1.701309037e-08)
(0.01099879666 -7.570175889e-09 1.250329288e-08)
(0.01099885258 -5.441580397e-09 1.084206573e-08)
(0.01099890147 -4.565670344e-09 1.016778947e-08)
(0.01099894647 -8.001712571e-09 1.313344346e-08)
(0.01099899031 -6.967332536e-09 1.311572943e-08)
(0.01100021501 6.855448809e-08 -6.802775654e-08)
(0.01099983958 9.15262401e-08 -9.153423755e-08)
(0.01099967544 3.579545521e-08 -3.410947593e-08)
(0.01099948812 3.224336548e-09 -2.076855798e-09)
(0.01099935575 -1.053071599e-08 9.530824095e-09)
(0.01099926741 -1.55152253e-08 1.45019055e-08)
(0.01099920961 -1.645812274e-08 1.543243989e-08)
(0.01099918097 -1.465024507e-08 1.376730534e-08)
(0.01099916557 -1.330366767e-08 1.284175085e-08)
(0.01099916375 -9.955799043e-09 1.289316535e-08)
(0.01099916786 -7.514149924e-09 1.156980173e-08)
(0.01099917316 -7.913643487e-09 9.973843345e-09)
(0.010999181 -1.387979985e-08 1.327514126e-08)
(0.0109991901 -1.196591117e-08 1.21936167e-08)
(0.0110002313 1.061442146e-07 -3.371044878e-08)
(0.01100010218 9.045440253e-08 -5.334127517e-08)
(0.01100004865 4.909998967e-08 -3.198361806e-08)
(0.01099994698 2.2601129e-08 -1.451952572e-08)
(0.01099984958 6.662880085e-09 -3.147138786e-09)
(0.01099976332 -3.493099161e-09 1.251643288e-09)
(0.01099968503 -7.363364595e-09 5.826043144e-09)
(0.0109996228 -9.538163284e-09 8.704435589e-09)
(0.01099957183 -1.066781352e-08 8.295830431e-09)
(0.01099952815 -1.072440253e-08 8.321579126e-09)
(0.01099948924 -1.19065637e-08 8.01597209e-09)
(0.01099945746 -9.832151007e-09 9.351801545e-09)
(0.01099943641 -1.265832793e-08 1.256444634e-08)
(0.01099941344 -9.700176497e-09 8.853266668e-09)
(0.01100022099 2.006488035e-08 -3.565504393e-08)
(0.01100019053 2.151919231e-08 -3.877560693e-08)
(0.01100018319 1.434761122e-08 -2.438288515e-08)
(0.01100013054 6.563936603e-09 -1.812996721e-08)
(0.01100006928 2.29189217e-09 -9.091958557e-09)
(0.01100000494 -1.50008786e-09 -2.855746618e-09)
(0.01099993048 -3.872552995e-09 8.634755068e-10)
(0.01099986434 -5.421986942e-09 3.142133006e-09)
(0.01099979856 -3.30617575e-09 3.961104439e-09)
(0.01099973995 -2.667996116e-09 5.812322239e-09)
(0.01099968817 -5.172340338e-09 6.791313953e-09)
(0.01099963775 -5.16850743e-09 8.656252391e-09)
(0.01099959842 -4.90873984e-09 8.180244139e-09)
(0.01099955633 -4.27192602e-09 6.155125548e-09)
(0.01100009201 -9.098548082e-08 -1.636397029e-07)
(0.01100023125 -5.315011686e-09 -6.045998561e-08)
(0.0110001378 -2.211184186e-08 -4.47405183e-08)
(0.01100010677 -1.205979912e-08 -2.454173135e-08)
(0.01100002328 -3.555772187e-09 -1.162259141e-08)
(0.01099993863 2.810376423e-09 -5.299178143e-09)
(0.01099985534 4.39654991e-09 -2.544513794e-10)
(0.01099977121 5.212233398e-09 2.079062189e-09)
(0.01099969824 6.115626002e-09 2.724947731e-09)
(0.01099963264 5.59499451e-09 3.876539214e-09)
(0.01099957617 4.717730805e-09 3.4416537e-09)
(0.01099953082 4.947199195e-09 2.955804557e-09)
(0.01099949067 3.841127666e-09 5.732463138e-09)
(0.01099945744 5.637959441e-09 6.434539121e-09)
(0.01099942845 5.228950303e-09 5.819429316e-09)
(0.01100006215 -4.3316273e-07 -3.424788423e-07)
(0.01100018526 -8.40033862e-08 -6.259383488e-08)
(0.01099989397 -1.012826201e-07 -4.740370645e-08)
(0.01099979955 -4.433948921e-08 -1.971831662e-08)
(0.01099966223 -1.143370392e-08 -4.610227555e-09)
(0.0109995479 7.569455413e-09 1.767434378e-09)
(0.01099946148 1.535214869e-08 4.690657812e-09)
(0.01099939478 1.895058315e-08 6.315110822e-09)
(0.01099934745 1.922074764e-08 7.268441628e-09)
(0.01099931317 1.556064548e-08 6.5256597e-09)
(0.01099928976 1.328813206e-08 6.143135864e-09)
(0.01099927579 1.28897447e-08 5.062403845e-09)
(0.0109992673 1.171075179e-08 6.070020544e-09)
(0.01099926101 1.485473938e-08 6.863363463e-09)
(0.01099925942 1.244720275e-08 5.129186878e-09)
(0.01099982435 -5.993956553e-07 -1.009229144e-06)
(0.01099987135 7.646879274e-08 -8.713659792e-08)
(0.01099908258 -1.066923145e-07 -4.982436969e-08)
(0.01099890161 -1.442308327e-08 4.486849061e-09)
(0.01099871759 2.574257037e-08 2.263632015e-08)
(0.01099863617 3.371426359e-08 2.255246106e-08)
(0.01099862316 3.286469673e-08 1.90236659e-08)
(0.01099864809 2.736245487e-08 1.451960063e-08)
(0.01099869041 2.235012104e-08 1.204022016e-08)
(0.0109987415 1.620315049e-08 1.076618058e-08)
(0.0109987985 1.298397622e-08 7.589369763e-09)
(0.0109988495 1.098318242e-08 6.970138427e-09)
(0.01099890068 1.146216915e-08 5.389975092e-09)
(0.0109989463 1.441242771e-08 5.76938068e-09)
(0.01099898837 1.497274557e-08 6.470018221e-09)
(0.01099798168 4.214132249e-07 4.204989481e-07)
(0.01099667702 1.746091169e-08 1.650995284e-08)
(0.01099693733 5.549717791e-08 5.793787612e-08)
(0.01099703235 6.743342025e-08 6.780845012e-08)
(0.01099724552 4.468532371e-08 4.40198129e-08)
(0.01099749752 3.008691236e-08 2.977160729e-08)
(0.01099773365 1.937736503e-08 2.075458133e-08)
(0.01099794785 1.158321548e-08 1.239090578e-08)
(0.01099813362 8.825585887e-09 1.016274914e-08)
(0.01099829621 6.585719893e-09 6.312043354e-09)
(0.01099843012 5.369166411e-09 5.415204445e-09)
(0.01099855435 6.476421834e-09 6.190999465e-09)
(0.01099864991 8.910026765e-09 6.819236476e-09)
(0.01099873825 8.236920582e-09 7.889495536e-09)
(0.01099567507 -2.015330981e-10 2.689237052e-06)
(0.01099335114 -1.047059304e-09 6.218420611e-07)
(0.01099488622 3.619891169e-10 2.37472252e-07)
(0.01099565085 -1.265499777e-11 1.440837253e-07)
(0.01099629221 1.400838258e-10 6.623254977e-08)
(0.01099682939 -1.571710218e-09 2.810687221e-08)
(0.01099725021 2.477266931e-10 1.147152651e-08)
(0.01099758877 5.324661969e-10 5.954449062e-09)
(0.01099785769 2.4397071e-10 4.21985373e-09)
(0.0109980751 1.389448762e-09 3.809482452e-09)
(0.01099825705 4.704593253e-10 4.593866825e-09)
(0.01099840882 -5.418017969e-10 4.308430917e-09)
(0.01099852983 4.72984516e-10 8.808318242e-09)
(0.01099864641 -3.72484481e-10 7.155644099e-09)
(0.01099798178 -4.232189728e-07 4.218708951e-07)
(0.0109966749 -1.895802314e-08 1.712017125e-08)
(0.01099694038 -5.607846229e-08 5.706179164e-08)
(0.01099703583 -6.686905004e-08 6.862874817e-08)
(0.01099724468 -4.632198795e-08 4.631273632e-08)
(0.01099749783 -3.046454516e-08 2.983978369e-08)
(0.01099773522 -2.097876281e-08 2.023175947e-08)
(0.01099794703 -1.346379291e-08 1.295059393e-08)
(0.01099813444 -8.079803196e-09 7.485337711e-09)
(0.010998294 -6.298346547e-09 7.426357763e-09)
(0.01099843371 -5.651080111e-09 6.695116814e-09)
(0.0109985529 -5.873163481e-09 5.518952609e-09)
(0.01099865107 -9.256974451e-09 6.322088622e-09)
(0.01099874292 -7.783009156e-09 8.073195368e-09)
(0.01099987204 -7.619157202e-08 -8.68044749e-08)
(0.01099908333 1.096418027e-07 -4.764787441e-08)
(0.01099890307 1.684330974e-08 4.20542861e-09)
(0.01099871756 -2.482848153e-08 2.415805429e-08)
(0.01099863518 -3.17416851e-08 2.359370299e-08)
(0.01099862362 -3.175913946e-08 1.916607753e-08)
(0.01099864633 -2.722617387e-08 1.724808164e-08)
(0.01099869184 -2.130207564e-08 1.373674178e-08)
(0.01099874237 -1.471412353e-08 1.107338045e-08)
(0.01099879768 -1.384564711e-08 8.241222658e-09)
(0.01099884857 -8.375913926e-09 7.331584451e-09)
(0.01099890369 -1.038494327e-08 6.198968809e-09)
(0.01099894425 -1.314550593e-08 7.746319605e-09)
(0.0109989877 -1.362900938e-08 6.872983756e-09)
(0.01100018938 8.655540706e-08 -6.150152344e-08)
(0.01099989308 1.031250634e-07 -4.316225949e-08)
(0.01099980007 4.368300772e-08 -1.728398241e-08)
(0.01099966303 1.000735859e-08 -1.933680857e-09)
(0.01099954554 -4.884431803e-09 3.953135212e-09)
(0.01099946113 -1.524903553e-08 5.103896932e-09)
(0.01099939447 -1.662347758e-08 6.469746845e-09)
(0.01099934671 -1.599139444e-08 6.479229149e-09)
(0.01099931079 -1.657536049e-08 6.072214873e-09)
(0.01099929225 -1.415613775e-08 5.630344115e-09)
(0.01099927579 -1.378135492e-08 5.661978298e-09)
(0.01099926564 -1.03436189e-08 4.172189842e-09)
(0.01099926283 -1.423244329e-08 6.844111351e-09)
(0.01099925839 -1.225009429e-08 6.131167923e-09)
(0.0110002341 5.906888149e-09 -6.009773938e-08)
(0.01100013723 2.322786974e-08 -4.150195906e-08)
(0.01100010435 1.159547396e-08 -2.373000873e-08)
(0.01100002543 1.934403872e-09 -1.15560281e-08)
(0.01099993824 -1.083829116e-09 -4.384334808e-09)
(0.01099985436 -4.499307602e-09 -1.583353927e-09)
(0.01099976904 -5.43176929e-09 1.988891723e-09)
(0.01099969818 -6.102707617e-09 3.336072173e-09)
(0.01099963268 -6.230832337e-09 3.001798904e-09)
(0.01099957869 -4.166999826e-09 3.56326341e-09)
(0.01099953234 -4.719802619e-09 5.350736419e-09)
(0.01099948933 -3.440354751e-09 3.856309157e-09)
(0.01099945801 -5.115181123e-09 6.965672107e-09)
(0.01099942947 -4.021565289e-09 6.444578632e-09)
(0.01100006927 -2.350365096e-07 -1.875389362e-09)
(0.01100031075 -1.690717649e-08 -1.899966936e-09)
(0.01100013882 -2.327169637e-08 -1.221352147e-10)
(0.01100007679 -5.375541417e-09 -1.833680811e-09)
(0.01099997371 4.355360134e-09 -3.35226713e-09)
(0.01099986989 8.820437134e-09 -6.522250857e-10)
(0.01099977956 9.945242104e-09 -1.090353456e-09)
(0.01099969662 8.519255227e-09 1.259768255e-09)
(0.01099962278 8.657436695e-09 1.794382953e-09)
(0.01099956164 7.807583102e-09 4.413483492e-10)
(0.01099950906 5.044118959e-09 9.779149328e-10)
(0.01099946576 5.466518345e-09 -6.147535413e-10)
(0.01099943032 6.259053909e-09 -2.819948249e-09)
(0.0109994035 7.866402791e-09 -2.990599768e-10)
(0.01099937931 6.936442051e-09 -5.015583203e-10)
(0.01100000801 -1.106222621e-06 -4.911392499e-10)
(0.01100031041 -1.237352991e-07 -1.709537694e-09)
(0.01099977484 -9.412530977e-08 -1.768608486e-09)
(0.01099964151 -2.012303774e-08 -1.093810419e-09)
(0.01099948733 1.193845269e-08 -1.76918532e-10)
(0.01099937363 1.882968187e-08 1.1541585e-09)
(0.01099930193 2.253084405e-08 -2.936074984e-10)
(0.0109992526 2.117793976e-08 6.325088356e-10)
(0.01099921789 1.929167783e-08 1.800572013e-09)
(0.01099919948 1.523736982e-08 9.766478442e-10)
(0.01099919089 1.41083763e-08 -3.615583601e-10)
(0.01099918457 1.316654591e-08 -6.150632686e-10)
(0.010999186 1.105724628e-08 -2.02986629e-09)
(0.01099918891 1.3080491e-08 -2.039064789e-09)
(0.01099919754 1.295244765e-08 2.137089528e-10)
(0.01099934344 -2.2015133e-06 -7.453051549e-10)
(0.01099988235 4.156080035e-07 -1.768480943e-09)
(0.01099837529 -2.742816358e-08 4.149077544e-11)
(0.01099824824 3.944037011e-08 1.928549341e-10)
(0.01099815981 6.531568768e-08 -4.224118384e-10)
(0.01099817936 4.85004645e-08 -1.045438679e-09)
(0.01099826072 3.726500508e-08 9.10761685e-10)
(0.0109983577 2.704054147e-08 8.523010422e-10)
(0.01099845702 1.891280839e-08 -3.124797757e-11)
(0.01099855247 1.376138388e-08 1.796863678e-10)
(0.01099864075 1.016035821e-08 -1.115654616e-10)
(0.01099871578 9.989321945e-09 -3.902720831e-10)
(0.01099878914 9.171451355e-09 -2.733309739e-09)
(0.01099884967 1.312666114e-08 -1.398843685e-09)
(0.01099890562 1.527700165e-08 -1.041043092e-09)
(0.01099454992 -1.048186487e-05 -1.067742766e-09)
(0.01099567402 2.689528409e-06 -1.450761706e-09)
(0.01099334781 6.234476474e-07 -1.64354077e-09)
(0.01099488506 2.36584663e-07 -1.324988016e-09)
(0.01099564977 1.445134771e-07 -1.467739738e-09)
(0.01099628725 6.58325369e-08 3.164464238e-10)
(0.01099683051 2.69956146e-08 -5.407502805e-10)
(0.01099725224 1.312591885e-08 4.297757199e-10)
(0.01099758687 6.428660726e-09 9.904774968e-10)
(0.01099785705 5.311210161e-09 -4.242352868e-10)
(0.01099807767 3.319950425e-09 1.364086205e-09)
(0.01099825705 2.297467736e-09 1.520251771e-09)
(0.0109984114 4.049866841e-09 -1.250208614e-09)
(0.01099852984 9.353249281e-09 -1.162479539e-09)
(0.01099864161 7.23553549e-09 -2.631441212e-10)
(0.01098925089 2.288127754e-09 -2.117857017e-09)
(0.01098329926 7.168713358e-11 -3.593109143e-10)
(0.01099032934 -1.124699834e-09 4.531397816e-11)
(0.01099325424 -5.88697886e-10 5.64392029e-10)
(0.01099486539 6.945999153e-10 5.354608123e-10)
(0.01099593679 -6.954373719e-10 9.681099373e-10)
(0.01099665097 -6.555281802e-10 2.125220901e-09)
(0.01099715876 1.633832205e-09 4.795988692e-10)
(0.01099753488 4.280243592e-10 1.333022273e-09)
(0.01099782659 1.778595048e-10 1.477469947e-09)
(0.01099805636 2.260533385e-09 3.070234329e-10)
(0.01099824982 -2.4608111e-10 -1.38050156e-09)
(0.01099839747 4.900610418e-10 -1.060622817e-10)
(0.01099853893 9.345604152e-10 2.01456476e-10)
(0.01099567254 -2.690379633e-06 1.974533078e-10)
(0.01099334904 -6.248214304e-07 1.563407446e-09)
(0.0109948867 -2.379626774e-07 6.045181962e-10)
(0.0109956513 -1.439421742e-07 1.842401917e-09)
(0.01099628985 -6.585998804e-08 9.020029529e-10)
(0.01099682822 -2.814616236e-08 2.204026717e-09)
(0.01099725335 -1.24220308e-08 6.667333881e-11)
(0.01099758571 -6.058412439e-09 1.089982692e-09)
(0.01099785514 -3.127572045e-09 5.140712518e-10)
(0.01099807457 -2.484854386e-09 -2.228998846e-10)
(0.0109982559 -4.109913367e-09 1.337055799e-09)
(0.0109984078 -2.979032334e-09 -2.288306721e-10)
(0.01099853241 -8.520100134e-09 1.865038831e-10)
(0.01099864173 -7.546846295e-09 1.922167164e-09)
(0.01099988094 -4.146574219e-07 5.919827575e-10)
(0.01099837339 3.110872589e-08 3.378807679e-10)
(0.01099824712 -3.596491484e-08 2.608032744e-10)