/*--------------------------------*- C++ -*----------------------------------*\
| =========                 |                                                 |
| \\      /  F ield         | OpenFOAM: The Open Source CFD Toolbox           |
|  \\    /   O peration     | Version:  4.x                                   |
|   \\  /    A nd           | Web:      www.OpenFOAM.org                      |
|    \\/     M anipulation  |                                                 |
\*---------------------------------------------------------------------------*/
FoamFile
{
    version     2.0;
    format      ascii;
    class       volScalarField;
    location    "5000";
    object      X_CO2;
}
// * * * * * * * * * * * * * * * * * * * * * * * * * * * * * * * * * * * * * //

dimensions      [0 0 0 0 0 0 0];

internalField   nonuniform List<scalar> 
1174
(
3.222340499e-06
5.627410935e-06
9.024152499e-06
1.345527967e-05
1.887374784e-05
2.515993983e-05
3.214635643e-05
3.964248415e-05
4.745533452e-05
5.540306265e-05
6.331769301e-05
7.102055714e-05
7.81958594e-05
8.383444435e-05
5.482644349e-06
9.339931649e-06
1.447706895e-05
2.077510273e-05
2.801693031e-05
3.593932351e-05
4.427521059e-05
5.278141892e-05
6.125300218e-05
6.952666913e-05
7.747359982e-05
8.496927905e-05
9.177444174e-05
9.70278011e-05
1.047730041e-05
1.729927915e-05
2.574059961e-05
3.532520727e-05
4.553793467e-05
5.59162769e-05
6.609406673e-05
7.581067349e-05
8.490053837e-05
9.327379556e-05
0.0001008923611
0.0001077332902
0.0001136873945
0.0001181462037
1.779905792e-05
2.840161826e-05
4.05736897e-05
5.342456593e-05
6.621210935e-05
7.84033471e-05
8.966531467e-05
9.982675122e-05
0.0001088337884
0.0001167102471
0.0001235241402
0.0001293526735
0.0001342055776
0.0001377187904
2.302976256e-05
3.570902593e-05
4.954004169e-05
6.354806492e-05
7.702807611e-05
8.953002973e-05
0.0001008091493
0.0001107713046
0.0001194247429
0.0001268416099
0.0001331277095
0.0001383926621
0.0001426866854
0.0001457435213
1.77988671e-05
2.840133402e-05
4.057329545e-05
5.342403646e-05
6.621142419e-05
7.84024923e-05
8.966427509e-05
9.982552329e-05
0.0001088323713
0.0001167086696
0.0001235224149
0.0001293507963
0.0001342035658
0.0001377166389
1.047702947e-05
1.729891974e-05
2.574011962e-05
3.532456338e-05
4.553707566e-05
5.591515612e-05
6.609263861e-05
7.580893008e-05
8.489846414e-05
9.327138796e-05
0.0001008896316
0.000107730292
0.0001136841089
0.0001181426599
5.482383882e-06
9.339616963e-06
1.447666505e-05
2.077455373e-05
2.801617489e-05
3.593830167e-05
4.427386102e-05
5.277970736e-05
6.125087797e-05
6.952411615e-05
7.747062967e-05
8.496588451e-05
9.177064475e-05
9.702363753e-05
3.222156392e-06
5.627217577e-06
9.023909485e-06
1.345493548e-05
1.88732395e-05
2.51591975e-05
3.214530403e-05
3.964105621e-05
4.745347431e-05
5.54007359e-05
6.331486204e-05
7.101719422e-05
7.819195922e-05
8.382999038e-05
2.878576201e-06
5.482452907e-06
9.339741475e-06
1.447687386e-05
2.077489857e-05
2.801671548e-05
3.593910499e-05
4.427498787e-05
5.278119151e-05
6.125276754e-05
6.952643535e-05
7.74733702e-05
8.496905245e-05
9.177423244e-05
9.702760179e-05
1.058116987e-05
1.735829217e-05
2.562249846e-05
3.487693313e-05
4.462270229e-05
5.443964954e-05
6.401509352e-05
7.314030575e-05
8.169200381e-05
8.960959759e-05
9.687093783e-05
0.0001034570147
0.0001092515062
0.0001136298384
2.341444347e-05
3.65896277e-05
5.090966493e-05
6.516220868e-05
7.851694017e-05
9.052140417e-05
0.0001010115594
0.0001100096266
0.0001176399847
0.0001240705762
0.0001294750413
0.0001340034052
0.0001377259481
0.0001404042249
4.623378215e-05
6.815082477e-05
8.898995856e-05
0.0001071919629
0.0001222130515
0.0001341258105
0.0001433016212
0.0001502102813
0.0001553128433
0.0001590141522
0.0001616486668
0.0001634821633
0.0001647153604
0.0001654547404
6.777600408e-05
9.415294434e-05
0.000116498381
0.0001342251236
0.0001476846483
0.0001575617842
0.0001645851148
0.0001694082543
0.0001725736577
0.0001745129391
0.0001755617102
0.0001759806743
0.0001759853025
0.0001758039255
4.623292853e-05
6.814977989e-05
8.898872515e-05
0.0001071905215
0.0001222113669
0.0001341239122
0.0001432995438
0.0001502080253
0.0001553104255
0.0001590116226
0.0001616460558
0.0001634794582
0.0001647125797
0.000165451869
2.34135516e-05
3.658865154e-05
5.090851634e-05
6.516076957e-05
7.851514634e-05
9.051922072e-05
0.0001010089928
0.0001100066573
0.0001176366493
0.0001240669185
0.0001294711034
0.000133999204
0.0001377215311
0.0001403995958
1.058062858e-05
1.73577773e-05
2.562186199e-05
3.487605411e-05
4.462147383e-05
5.443801255e-05
6.401300213e-05
7.313771311e-05
8.168891621e-05
8.960601991e-05
9.686689141e-05
0.0001034525202
0.0001092466116
0.0001136245669
5.482403021e-06
9.339616955e-06
1.447662428e-05
2.077444504e-05
2.801596392e-05
3.593796641e-05
4.427338108e-05
5.277906459e-05
6.125007817e-05
6.952315578e-05
7.746949937e-05
8.496458266e-05
9.17691741e-05
9.702194866e-05
5.572469019e-06
1.047685612e-05
1.729880603e-05
2.574010786e-05
3.532470302e-05
4.553742529e-05
5.59157597e-05
6.609354824e-05
7.58101509e-05
8.490001719e-05
9.32732769e-05
0.0001008918417
0.0001077327963
0.0001136869243
0.0001181457412
1.277593678e-05
2.341386524e-05
3.658913994e-05
5.090923122e-05
6.516181008e-05
7.85165579e-05
9.052103455e-05
0.0001010112091
0.00011000928
0.0001176396326
0.0001240702307
0.0001294747112
0.0001340030826
0.00013772563
0.0001404039295
6.134399009e-05
8.915352542e-05
0.0001143338768
0.0001349789621
0.0001506961133
0.0001619392305
0.0001695080675
0.0001742525806
0.0001769304563
0.0001781577759
0.0001784085294
0.0001780389654
0.0001773344234
0.0001766216114
0.0001457534151
0.0001927458551
0.000225158099
0.0002442965327
0.0002532941981
0.0002553111027
0.0002528977404
0.0002479023681
0.0002415787633
0.0002347375637
0.000227884942
0.0002213456483
0.0002154283436
0.0002108954334
0.0002563780366
0.0003031584804
0.0003232510153
0.0003267968538
0.0003210459471
0.0003105652596
0.0002980624342
0.0002850786155
0.0002724545315
0.0002606205986
0.0002497767904
0.0002400217169
0.000231536451
0.0002251899677
0.0001457492805
0.0001927418276
0.0002251540483
0.0002442923548
0.0002532898558
0.0002553067253
0.0002528933524
0.0002478980075
0.0002415744798
0.0002347333224
0.0002278807713
0.0002213415804
0.0002154243328
0.0002108914114
6.134116558e-05
8.915101658e-05
0.0001143310619
0.0001349755749
0.0001506920986
0.0001619346297
0.0001695029745
0.000174247116
0.0001769247136
0.000178151808
0.0001784024144
0.000178032767
0.0001773281552
0.0001766152176
2.341355706e-05
3.658848765e-05
5.090809708e-05
6.516005781e-05
7.851409591e-05
9.051785704e-05
0.0001010073256
0.0001100047314
0.0001176345042
0.0001240645898
0.0001294686195
0.0001339966012
0.0001377188086
0.0001403967624
1.047704894e-05
1.729882427e-05
2.573981672e-05
3.532395973e-05
4.553610288e-05
5.591376315e-05
6.609081273e-05
7.580666071e-05
8.489577736e-05
9.326830955e-05
0.0001008861733
0.0001077264932
0.0001136799956
0.0001181381971
9.62048541e-06
1.779827782e-05
2.840072672e-05
4.057271859e-05
5.342355095e-05
6.62110644e-05
7.84022796e-05
8.966425594e-05
9.982570449e-05
0.0001088327618
0.0001167092463
0.000123523183
0.000129351744
0.000134204672
0.0001377179089
2.607273671e-05
4.623229512e-05
6.81493252e-05
8.898849658e-05
0.0001071905711
0.0001222116968
0.0001341245299
0.0001433004242
0.0001502091539
0.0001553117717
0.0001590131572
0.0001616477274
0.0001634812803
0.0001647145188
0.0001654539128
8.841380171e-05
0.000145750435
0.0001927434998
0.0002251561921
0.0002442949627
0.0002532928309
0.0002553099615
0.0002528967533
0.0002479014982
0.0002415780078
0.0002347368874
0.0002278843487
0.0002213451078
0.0002154278203
0.0002108949549
0.0004353166313
0.0004945901576
0.0005044697727
0.0004875618087
0.0004586810109
0.0004261961289
0.0003943531739
0.0003650479251
0.0003389349358
0.0003160608017
0.0002962113957
0.0002791255203
0.0002647699499
0.0002542828497
0.001004092802
0.0009301411227
0.0008162180763
0.0007068963406
0.0006139608223
0.0005381261191
0.000476943735
0.0004275177953
0.000387321096
0.0003543495092
0.0003270803371
0.0003044236012
0.0002858667724
0.0002725288023
0.0004353027092
0.0004945799543
0.0005044605593
0.0004875529394
0.0004586725957
0.0004261881845
0.0003943456633
0.0003650408859
0.0003389283534
0.0003160545998
0.0002962055616
0.0002791200141
0.00026476468
0.0002542777126
0.0001457494542
0.0001927405299
0.0002251512696
0.0002442885028
0.0002532852994
0.0002553017164
0.0002528880952
0.0002478926835
0.0002415691723
0.0002347281044
0.0002278756642
0.0002213365992
0.000215419462
0.0002108866206
4.623304254e-05
6.814914224e-05
8.898709515e-05
0.0001071878468
0.0001222077286
0.0001341194358
0.0001432943794
0.00015020235
0.000155304351
0.000159005219
0.0001616394172
0.0001634726475
0.0001647056544
0.0001654448154
1.779894978e-05
2.840108283e-05
4.057249139e-05
5.342250832e-05
6.620906852e-05
7.839926731e-05
8.96602225e-05
9.982067032e-05
0.0001088267979
0.0001167024489
0.0001235156176
0.0001293435197
0.0001341958444
0.0001377084417
1.265948423e-05
2.302883563e-05
3.570791581e-05
4.953878372e-05
6.354670276e-05
7.702666527e-05
8.952856081e-05
0.0001008076713
0.0001107698306
0.0001194232809
0.0001268401809
0.0001331263277
0.000138391323
0.0001426853662
0.0001457422159
3.996027899e-05
6.777401884e-05
9.415078994e-05
0.0001164961748
0.0001342229393
0.0001476825444
0.0001575597748
0.0001645832262
0.0001694064942
0.0001725719908
0.0001745113626
0.0001755602474
0.0001759793046
0.0001759839746
0.000175802648
0.0001733431407
0.0002563737954
0.0003031543599
0.0003232472868
0.0003267936177
0.0003210431728
0.0003105628106
0.0002980603071
0.0002850767496
0.0002724528446
0.0002606191077
0.0002497754527
0.0002400204994
0.0002315353528
0.0002251889227
0.0009027116157
0.001004079845
0.0009301330114
0.0008162123427
0.0007068921835
0.0006139576272
0.0005381236081
0.000476941664
0.0004275161792
0.0003873197377
0.0003543483226
0.0003270792535
0.000304422682
0.000285865972
0.0002725281484
0.003459032718
0.002211067397
0.001520010115
0.001115367016
0.000864689528
0.0007006876538
0.0005878561738
0.0005067069688
0.0004461026686
0.0003994162138
0.000362556243
0.0003329661985
0.0003093247624
0.0002925933485
0.001004093565
0.0009301277513
0.0008162010643
0.0007068795387
0.0006139453822
0.000538112304
0.000476931454
0.0004275069702
0.0003873113248
0.000354340691
0.0003270721899
0.0003044161346
0.0002858597856
0.0002725221902
0.0002563789371
0.0003031532562
0.0003232415697
0.0003267850575
0.0003210329763
0.0003105518979
0.0002980491683
0.0002850657111
0.000272442014
0.0002606085859
0.0002497652674
0.0002400105966
0.0002315257633
0.0002251795014
6.777617868e-05
9.415115072e-05
0.0001164944695
0.0001342192972
0.0001476772552
0.0001575531612
0.0001645755777
0.0001693980676
0.0001725629965
0.0001745019348
0.0001755505059
0.0001759693592
0.0001759738934
0.0001757924019
2.302990287e-05
3.570849325e-05
4.95385017e-05
6.35453215e-05
7.702405189e-05
8.952471652e-05
0.0001008026229
0.0001107636816
0.0001194161368
0.000126832147
0.0001331175235
0.0001383818709
0.0001426753316
0.0001457315693
9.620454729e-06
1.779810434e-05
2.840037895e-05
4.057216978e-05
5.342276823e-05
6.62100482e-05
7.840103395e-05
8.96627649e-05
9.982397596e-05
0.0001088308143
0.0001167071046
0.0001235208543
0.0001293492653
0.0001342020457
0.0001377151556
2.607214199e-05
4.623121968e-05
6.814782555e-05
8.898661705e-05
0.0001071883528
0.0001222092034
0.0001341217752
0.0001432974498
0.0001502059997
0.0001553084904
0.0001590097576
0.0001616442641
0.0001634777487
0.0001647109443
0.000165450283
8.840799094e-05
0.0001457448677
0.0001927374087
0.0002251498381
0.0002442884839
0.0002532863743
0.0002553035746
0.0002528904999
0.0002478954401
0.0002415721272
0.0002347311741
0.0002278788356
0.000221339769
0.0002154226459
0.00021088986
0.0003024179464
0.0004352911821
0.0004945706567
0.0005044531274
0.0004875470054
0.0004586677978
0.0004261842254
0.0003943423883
0.0003650381022
0.0003389259527
0.0003160525537
0.0002962037457
0.0002791183758
0.0002647631978
0.0002542763651
0.000902709724
0.001004076117
0.000930116737
0.0008161935772
0.0007068741471
0.0006139413269
0.0005381092334
0.0004769290023
0.0004275049262
0.0003873096294
0.0003543392453
0.0003270709671
0.0003044150765
0.0002858588892
0.0002725213635
0.0003024216613
0.0004352902899
0.0004945654387
0.0005044452551
0.0004875379332
0.0004586584026
0.0004261750373
0.0003943336192
0.0003650298604
0.0003389182382
0.0003160453214
0.0002961969833
0.0002791120189
0.0002647571939
0.0002542705562
0.0001457529478
0.0001927391097
0.0002251469778
0.0002442825412
0.0002532784622
0.0002552944767
0.0002528807586
0.0002478854834
0.0002415621408
0.0002347213114
0.0002278691184
0.0002213302885
0.0002154133646
0.0002108806741
4.623424987e-05
6.814922198e-05
8.898604591e-05
0.000107185842
0.0001222049641
0.0001341160949
0.00014329062
0.0001501982812
0.0001553000657
0.000159000842
0.0001616349481
0.0001634681492
0.0001647011213
0.000165440205
1.779931587e-05
2.840119459e-05
4.057219876e-05
5.342174512e-05
6.62078236e-05
7.839756482e-05
8.965808672e-05
9.981815666e-05
0.0001088239596
0.000116699333
0.0001235122758
0.0001293399905
0.000134192152
0.0001377046198
5.572318682e-06
1.047649365e-05
1.729820034e-05
2.57392192e-05
3.532349693e-05
4.553586038e-05
5.591381436e-05
6.609120612e-05
7.580741067e-05
8.489689377e-05
9.326978639e-05
0.000100888008
0.0001077286522
0.0001136824829
0.0001181410403
1.27749052e-05
2.341247879e-05
3.65873152e-05
5.090696481e-05
6.51590733e-05
7.851333601e-05
9.05173496e-05
0.0001010070912
0.0001100047643
0.0001176347644
0.00012406505
0.0001294692748
0.0001339974277
0.0001377197962
0.0001403978883
3.482881906e-05
6.133860205e-05
8.914813768e-05
0.0001143280387
0.0001349725337
0.0001506891463
0.0001619318198
0.0001695003131
0.0001742445866
0.0001769223247
0.0001781495634
0.0001784002944
0.0001780307668
0.0001773262537
0.0001766133976
8.840798753e-05
0.0001457437335
0.0001927348427
0.0002251460113
0.0002442837469
0.0002532810339
0.0002552979066
0.0002528847303
0.0002478896804
0.0002415664598
0.0002347256895
0.0002278734547
0.0002213345718
0.000215417615
0.0002108848794
0.0001733430289
0.0002563692648
0.0003031451165
0.0003232349305
0.0003267796278
0.0003210285542
0.0003105482339
0.0002980460863
0.0002850630628
0.0002724397481
0.0002606066094
0.0002497635269
0.000240009068
0.0002315243626
0.0002251781502
8.840763924e-05
0.0001457425262
0.0001927323624
0.0002251423435
0.0002442791764
0.0002532758597
0.000255292453
0.0002528791178
0.0002478840659
0.0002415609382
0.0002347202766
0.0002278682409
0.0002213294757
0.0002154126362
0.0002108799842
3.483069438e-05
6.133996475e-05
8.914803135e-05
0.0001143262097
0.0001349691233
0.0001506843806
0.0001619259956
0.0001694937515
0.0001742375198
0.0001769149561
0.000178141976
0.0001783925969
0.0001780229981
0.0001773184606
0.0001766055489
2.341442249e-05
3.65882889e-05
5.090679932e-05
6.515768097e-05
7.851073108e-05
9.05135979e-05
0.0001010023162
0.0001099990953
0.0001176283426
0.0001240580082
0.0001294616921
0.0001339894033
0.0001377114042
0.0001403891619
1.04774494e-05
1.729891737e-05
2.573943005e-05
3.532297536e-05
4.553445234e-05
5.591142202e-05
6.608779994e-05
7.580300366e-05
8.489151025e-05
9.326350978e-05
0.0001008809035
0.0001077207892
0.0001136739192
0.0001181317985
2.878349172e-06
5.482079607e-06
9.339182315e-06
1.447608854e-05
2.077383502e-05
2.801531099e-05
3.593730343e-05
4.427274071e-05
5.277847284e-05
6.124955897e-05
6.952272268e-05
7.746917549e-05
8.496438508e-05
9.176910946e-05
9.702206375e-05
5.643180225e-06
1.05800639e-05
1.735701222e-05
2.562090571e-05
3.487492594e-05
4.462019384e-05
5.443660548e-05
6.401148725e-05
7.313613124e-05
8.168728531e-05
8.960433949e-05
9.686519628e-05
0.0001034508141
0.0001092449132
0.000113622871
1.277490854e-05
2.341237332e-05
3.658699332e-05
5.090636231e-05
6.515813857e-05
7.851205604e-05
9.051576273e-05
0.0001010052039
0.0001100026233
0.0001176324306
0.000124062543
0.0001294666062
0.0001339946368
0.0001377169011
0.0001403948853
2.607211808e-05
4.623063018e-05
6.814633597e-05
8.898408556e-05
0.0001071847849
0.0001222047019
0.0001341165201
0.0001432915937
0.0001501997049
0.0001553018346
0.0001590028614
0.0001616372016
0.0001634705672
0.0001647036856
0.0001654429115
3.996012693e-05
6.777237819e-05
9.414714531e-05
0.0001164905388
0.0001342155736
0.0001476738017
0.0001575499967
0.0001645726856
0.0001693954047
0.0001725605756
0.000174499723
0.0001755484816
0.0001759674915
0.0001759721357
0.0001757906986
2.6071877e-05
4.623010199e-05
6.814536938e-05
8.89825978e-05
0.000107182808
0.0001222022681
0.0001341137077
0.0001432884843
0.0001501963585
0.0001552983324
0.0001589992405
0.0001616334914
0.0001634668139
0.0001646998671
0.0001654390437
1.277499359e-05
2.341233687e-05
3.658653426e-05
5.09052557e-05
6.515627792e-05
7.85094415e-05
9.05124254e-05
0.0001010012605
0.0001099981295
0.0001176274741
0.0001240572133
0.0001294609808
0.0001339887344
0.0001377107835
0.000140388571
5.643549589e-06
1.058044652e-05
1.735715313e-05
2.562059313e-05
3.487400445e-05
4.461857082e-05
5.443422846e-05
6.400836163e-05
7.313226989e-05
8.168272705e-05
8.959915396e-05
9.685941458e-05
0.000103444499
0.0001092381068
0.0001136156451
5.482621027e-06
9.339557096e-06
1.447617353e-05
2.077348735e-05
2.801440122e-05
3.593572398e-05
4.427041276e-05
5.277534621e-05
6.124561208e-05
6.951796899e-05
7.746361997e-05
8.495806477e-05
9.176204519e-05
9.701432557e-05
1.675547648e-06
3.221956716e-06
5.626921586e-06
9.023499551e-06
1.345439835e-05
1.887256675e-05
2.515838898e-05
3.214436331e-05
3.963999157e-05
4.745229924e-05
5.539945827e-05
6.331349193e-05
7.101575935e-05
7.819047651e-05
8.382846759e-05
2.878358372e-06
5.482077375e-06
9.339150069e-06
1.447600012e-05
2.077366162e-05
2.801502844e-05
3.593689216e-05
4.427217979e-05
5.277775034e-05
6.124867378e-05
6.952167879e-05
7.746796387e-05
8.496301492e-05
9.176755841e-05
9.702030867e-05
5.572327792e-06
1.047642824e-05
1.729797448e-05
2.573874446e-05
3.53226852e-05
4.553465104e-05
5.591218059e-05
6.608912288e-05
7.580489861e-05
8.489396745e-05
9.326646809e-05
0.0001008843339
0.0001077246596
0.0001136781747
0.0001181363978
9.620423873e-06
1.779780778e-05
2.83995976e-05
4.057070711e-05
5.342051179e-05
6.620691814e-05
7.839703696e-05
8.965794008e-05
9.981837904e-05
0.0001088245463
0.0001167002429
0.000123513482
0.0001293414463
0.0001341938469
0.000137706527
1.265940858e-05
2.302823585e-05
3.570643514e-05
4.95361699e-05
6.354282704e-05
7.702148509e-05
8.9522158e-05
0.0001008001193
0.0001107612409
0.0001194138055
0.0001268299239
0.0001331154237
0.0001383798636
0.0001426734329
0.0001457297515
9.620306964e-06
1.779756866e-05
2.839915954e-05
4.057001028e-05
5.341950213e-05
6.620558851e-05
7.839537898e-05
8.965597334e-05
9.981614926e-05
0.0001088220617
0.0001166975505
0.0001235106054
0.0001293384062
0.0001341906621
0.0001377031939
5.572269506e-06
1.047628667e-05
1.729763794e-05
2.573809305e-05
3.532162041e-05
4.553310242e-05
5.591010332e-05
6.608652908e-05
7.580178357e-05
8.489035838e-05
9.32624304e-05
0.0001008798713
0.0001077198264
0.0001136730135
0.0001181309419
2.878393549e-06
5.482113435e-06
9.339090311e-06
1.447572671e-05
2.077305155e-05
2.801397576e-05
3.593530421e-05
4.427000464e-05
5.277495652e-05
6.124524415e-05
6.951761973e-05
7.746329246e-05
8.495775388e-05
9.176175129e-05
9.701402977e-05
1.67565494e-06
3.222102928e-06
5.627028889e-06
9.023469413e-06
1.345411677e-05
1.887191562e-05
2.515725402e-05
3.214265097e-05
3.963761456e-05
4.744920697e-05
5.539560688e-05
6.330887437e-05
7.101037223e-05
7.818432706e-05
8.382159464e-05
)
;

boundaryField
{
    top
    {
        type            calculated;
        value           nonuniform List<scalar> 
127
(
1.67565494e-06
3.222156392e-06
5.482403021e-06
1.047704894e-05
1.779894978e-05
2.302990287e-05
1.779931587e-05
1.04774494e-05
5.482621027e-06
3.222102928e-06
5.627217577e-06
9.339616955e-06
1.729882427e-05
2.840108283e-05
3.570849325e-05
2.840119459e-05
1.729891737e-05
9.339557096e-06
5.627028889e-06
9.023909485e-06
1.447662428e-05
2.573981672e-05
4.057249139e-05
4.95385017e-05
4.057219876e-05
2.573943005e-05
1.447617353e-05
9.023469413e-06
1.345493548e-05
2.077444504e-05
3.532395973e-05
5.342250832e-05
6.35453215e-05
5.342174512e-05
3.532297536e-05
2.077348735e-05
1.345411677e-05
1.88732395e-05
2.801596392e-05
4.553610288e-05
6.620906852e-05
7.702405189e-05
6.62078236e-05
4.553445234e-05
2.801440122e-05
1.887191562e-05
2.51591975e-05
3.593796641e-05
5.591376315e-05
7.839926731e-05
8.952471652e-05
7.839756482e-05
5.591142202e-05
3.593572398e-05
2.515725402e-05
3.214530403e-05
4.427338108e-05
6.609081273e-05
8.96602225e-05
0.0001008026229
8.965808672e-05
6.608779994e-05
4.427041276e-05
3.214265097e-05
3.964105621e-05
5.277906459e-05
7.580666071e-05
9.982067032e-05
0.0001107636816
9.981815666e-05
7.580300366e-05
5.277534621e-05
3.963761456e-05
4.745347431e-05
6.125007817e-05
8.489577736e-05
0.0001088267979
0.0001194161368
0.0001088239596
8.489151025e-05
6.124561208e-05
4.744920697e-05
5.54007359e-05
6.952315578e-05
9.326830955e-05
0.0001167024489
0.000126832147
0.000116699333
9.326350978e-05
6.951796899e-05
5.539560688e-05
6.331486204e-05
7.746949937e-05
0.0001008861733
0.0001235156176
0.0001331175235
0.0001235122758
0.0001008809035
7.746361997e-05
6.330887437e-05
7.101719422e-05
8.496458266e-05
0.0001077264932
0.0001293435197
0.0001383818709
0.0001293399905
0.0001077207892
8.495806477e-05
7.101037223e-05
7.819195922e-05
9.17691741e-05
0.0001136799956
0.0001341958444
0.0001426753316
0.000134192152
0.0001136739192
9.176204519e-05
7.818432706e-05
8.382999038e-05
9.702194866e-05
0.0001181381971
0.0001377084417
0.0001457315693
0.0001377046198
0.0001181317985
9.701432557e-05
8.382159464e-05
)
;
    }
    bottom
    {
        type            calculated;
        value           nonuniform List<scalar> 
134
(
2.878576201e-06
5.572469019e-06
9.62048541e-06
1.265948423e-05
9.620454729e-06
5.572318682e-06
2.878349172e-06
1.675547648e-06
3.222340499e-06
5.482452907e-06
1.047685612e-05
1.779827782e-05
2.302883563e-05
1.779810434e-05
1.047649365e-05
5.482079607e-06
3.221956716e-06
5.627410935e-06
9.339741475e-06
1.729880603e-05
2.840072672e-05
3.570791581e-05
2.840037895e-05
1.729820034e-05
9.339182315e-06
5.626921586e-06
9.024152499e-06
1.447687386e-05
2.574010786e-05
4.057271859e-05
4.953878372e-05
4.057216978e-05
2.57392192e-05
1.447608854e-05
9.023499551e-06
1.345527967e-05
2.077489857e-05
3.532470302e-05
5.342355095e-05
6.354670276e-05
5.342276823e-05
3.532349693e-05
2.077383502e-05
1.345439835e-05
1.887374784e-05
2.801671548e-05
4.553742529e-05
6.62110644e-05
7.702666527e-05
6.62100482e-05
4.553586038e-05
2.801531099e-05
1.887256675e-05
2.515993983e-05
3.593910499e-05
5.59157597e-05
7.84022796e-05
8.952856081e-05
7.840103395e-05
5.591381436e-05
3.593730343e-05
2.515838898e-05
3.214635643e-05
4.427498787e-05
6.609354824e-05
8.966425594e-05
0.0001008076713
8.96627649e-05
6.609120612e-05
4.427274071e-05
3.214436331e-05
3.964248415e-05
5.278119151e-05
7.58101509e-05
9.982570449e-05
0.0001107698306
9.982397596e-05
7.580741067e-05
5.277847284e-05
3.963999157e-05
4.745533452e-05
6.125276754e-05
8.490001719e-05
0.0001088327618
0.0001194232809
0.0001088308143
8.489689377e-05
6.124955897e-05
4.745229924e-05
5.540306265e-05
6.952643535e-05
9.32732769e-05
0.0001167092463
0.0001268401809
0.0001167071046
9.326978639e-05
6.952272268e-05
5.539945827e-05
6.331769301e-05
7.74733702e-05
0.0001008918417
0.000123523183
0.0001331263277
0.0001235208543
0.000100888008
7.746917549e-05
6.331349193e-05
7.102055714e-05
8.496905245e-05
0.0001077327963
0.000129351744
0.000138391323
0.0001293492653
0.0001077286522
8.496438508e-05
7.101575935e-05
7.81958594e-05
9.177423244e-05
0.0001136869243
0.000134204672
0.0001426853662
0.0001342020457
0.0001136824829
9.176910946e-05
7.819047651e-05
8.383444435e-05
9.702760179e-05
0.0001181457412
0.0001377179089
0.0001457422159
0.0001377151556
0.0001181410403
9.702206375e-05
8.382846759e-05
)
;
    }
    side-walls
    {
        type            calculated;
        value           nonuniform List<scalar> 
261
(
3.222340499e-06
5.482644349e-06
1.047730041e-05
1.779905792e-05
2.302976256e-05
1.77988671e-05
1.047702947e-05
5.482383882e-06
3.222156392e-06
5.627410935e-06
9.339931649e-06
1.729927915e-05
2.840161826e-05
3.570902593e-05
2.840133402e-05
1.729891974e-05
9.339616963e-06
5.627217577e-06
9.024152499e-06
1.447706895e-05
2.574059961e-05
4.05736897e-05
4.954004169e-05
4.057329545e-05
2.574011962e-05
1.447666505e-05
9.023909485e-06
1.345527967e-05
2.077510273e-05
3.532520727e-05
5.342456593e-05
6.354806492e-05
5.342403646e-05
3.532456338e-05
2.077455373e-05
1.345493548e-05
1.887374784e-05
2.801693031e-05
4.553793467e-05
6.621210935e-05
7.702807611e-05
6.621142419e-05
4.553707566e-05
2.801617489e-05
1.88732395e-05
2.515993983e-05
3.593932351e-05
5.59162769e-05
7.84033471e-05
8.953002973e-05
7.84024923e-05
5.591515612e-05
3.593830167e-05
2.51591975e-05
3.214635643e-05
4.427521059e-05
6.609406673e-05
8.966531467e-05
0.0001008091493
8.966427509e-05
6.609263861e-05
4.427386102e-05
3.214530403e-05
3.964248415e-05
5.278141892e-05
7.581067349e-05
9.982675122e-05
0.0001107713046
9.982552329e-05
7.580893008e-05
5.277970736e-05
3.964105621e-05
4.745533452e-05
6.125300218e-05
8.490053837e-05
0.0001088337884
0.0001194247429
0.0001088323713
8.489846414e-05
6.125087797e-05
4.745347431e-05
5.540306265e-05
6.952666913e-05
9.327379556e-05
0.0001167102471
0.0001268416099
0.0001167086696
9.327138796e-05
6.952411615e-05
5.54007359e-05
6.331769301e-05
7.747359982e-05
0.0001008923611
0.0001235241402
0.0001331277095
0.0001235224149
0.0001008896316
7.747062967e-05
6.331486204e-05
7.102055714e-05
8.496927905e-05
0.0001077332902
0.0001293526735
0.0001383926621
0.0001293507963
0.000107730292
8.496588451e-05
7.101719422e-05
7.81958594e-05
9.177444174e-05
0.0001136873945
0.0001342055776
0.0001426866854
0.0001342035658
0.0001136841089
9.177064475e-05
7.819195922e-05
8.383444435e-05
9.70278011e-05
0.0001181462037
0.0001377187904
0.0001457435213
0.0001377166389
0.0001181426599
9.702363753e-05
8.382999038e-05
1.675547648e-06
2.878358372e-06
5.572327792e-06
9.620423873e-06
1.265940858e-05
9.620306964e-06
5.572269506e-06
2.878393549e-06
1.67565494e-06
3.221956716e-06
5.482077375e-06
1.047642824e-05
1.779780778e-05
2.302823585e-05
1.779756866e-05
1.047628667e-05
5.482113435e-06
3.222102928e-06
5.626921586e-06
9.339150069e-06
1.729797448e-05
2.83995976e-05
3.570643514e-05
2.839915954e-05
1.729763794e-05
9.339090311e-06
5.627028889e-06
9.023499551e-06
1.447600012e-05
2.573874446e-05
4.057070711e-05
4.95361699e-05
4.057001028e-05
2.573809305e-05
1.447572671e-05
9.023469413e-06
1.345439835e-05
2.077366162e-05
3.53226852e-05
5.342051179e-05
6.354282704e-05
5.341950213e-05
3.532162041e-05
2.077305155e-05
1.345411677e-05
1.887256675e-05
2.801502844e-05
4.553465104e-05
6.620691814e-05
7.702148509e-05
6.620558851e-05
4.553310242e-05
2.801397576e-05
1.887191562e-05
2.515838898e-05
3.593689216e-05
5.591218059e-05
7.839703696e-05
8.9522158e-05
7.839537898e-05
5.591010332e-05
3.593530421e-05
2.515725402e-05
3.214436331e-05
4.427217979e-05
6.608912288e-05
8.965794008e-05
0.0001008001193
8.965597334e-05
6.608652908e-05
4.427000464e-05
3.214265097e-05
3.963999157e-05
5.277775034e-05
7.580489861e-05
9.981837904e-05
0.0001107612409
9.981614926e-05
7.580178357e-05
5.277495652e-05
3.963761456e-05
4.745229924e-05
6.124867378e-05
8.489396745e-05
0.0001088245463
0.0001194138055
0.0001088220617
8.489035838e-05
6.124524415e-05
4.744920697e-05
5.539945827e-05
6.952167879e-05
9.326646809e-05
0.0001167002429
0.0001268299239
0.0001166975505
9.32624304e-05
6.951761973e-05
5.539560688e-05
6.331349193e-05
7.746796387e-05
0.0001008843339
0.000123513482
0.0001331154237
0.0001235106054
0.0001008798713
7.746329246e-05
6.330887437e-05
7.101575935e-05
8.496301492e-05
0.0001077246596
0.0001293414463
0.0001383798636
0.0001293384062
0.0001077198264
8.495775388e-05
7.101037223e-05
7.819047651e-05
9.176755841e-05
0.0001136781747
0.0001341938469
0.0001426734329
0.0001341906621
0.0001136730135
9.176175129e-05
7.818432706e-05
8.382846759e-05
9.702030867e-05
0.0001181363978
0.000137706527
0.0001457297515
0.0001377031939
0.0001181309419
9.701402977e-05
8.382159464e-05
)
;
    }
    inlet
    {
        type            calculated;
        value           nonuniform 0();
    }
    outlet
    {
        type            calculated;
        value           nonuniform List<scalar> 
81
(
8.383444435e-05
9.70278011e-05
0.0001181462037
0.0001377187904
0.0001457435213
0.0001377166389
0.0001181426599
9.702363753e-05
8.382999038e-05
9.702760179e-05
0.0001136298384
0.0001404042249
0.0001654547404
0.0001758039255
0.000165451869
0.0001403995958
0.0001136245669
9.702194866e-05
0.0001181457412
0.0001404039295
0.0001766216114
0.0002108954334
0.0002251899677
0.0002108914114
0.0001766152176
0.0001403967624
0.0001181381971
0.0001377179089
0.0001654539128
0.0002108949549
0.0002542828497
0.0002725288023
0.0002542777126
0.0002108866206
0.0001654448154
0.0001377084417
0.0001457422159
0.000175802648
0.0002251889227
0.0002725281484
0.0002925933485
0.0002725221902
0.0002251795014
0.0001757924019
0.0001457315693
0.0001377151556
0.000165450283
0.00021088986
0.0002542763651
0.0002725213635
0.0002542705562
0.0002108806741
0.000165440205
0.0001377046198
0.0001181410403
0.0001403978883
0.0001766133976
0.0002108848794
0.0002251781502
0.0002108799842
0.0001766055489
0.0001403891619
0.0001181317985
9.702206375e-05
0.000113622871
0.0001403948853
0.0001654429115
0.0001757906986
0.0001654390437
0.000140388571
0.0001136156451
9.701432557e-05
8.382846759e-05
9.702030867e-05
0.0001181363978
0.000137706527
0.0001457297515
0.0001377031939
0.0001181309419
9.701402977e-05
8.382159464e-05
)
;
    }
    procBoundary1to0
    {
        type            processor;
        value           nonuniform List<scalar> 
97
(
1.675661897e-06
1.675661897e-06
2.878379734e-06
5.572151666e-06
9.619898541e-06
1.265858306e-05
9.619741984e-06
5.571929829e-06
2.878149608e-06
1.675436129e-06
1.339297053e-06