/*--------------------------------*- C++ -*----------------------------------*\
| =========                 |                                                 |
| \\      /  F ield         | OpenFOAM: The Open Source CFD Toolbox           |
|  \\    /   O peration     | Version:  4.x                                   |
|   \\  /    A nd           | Web:      www.OpenFOAM.org                      |
|    \\/     M anipulation  |                                                 |
\*---------------------------------------------------------------------------*/
FoamFile
{
    version     2.0;
    format      ascii;
    class       volScalarField;
    location    "5000";
    object      X_CO;
}
// * * * * * * * * * * * * * * * * * * * * * * * * * * * * * * * * * * * * * //

dimensions      [0 0 0 0 0 0 0];

internalField   nonuniform List<scalar> 
1174
(
0.4000259107
0.4000235066
0.4000201112
0.400015682
0.4000102658
0.4000039825
0.3999969994
0.3999895069
0.3999816982
0.3999737548
0.3999658448
0.3999581466
0.399950976
0.3999453412
0.4000236513
0.4000197955
0.4000146603
0.4000083648
0.400001126
0.3999932071
0.3999848751
0.3999763732
0.3999679061
0.3999596371
0.399951695
0.3999442042
0.3999374037
0.3999321541
0.4000186584
0.4000118388
0.4000034005
0.3999938195
0.3999836109
0.399973237
0.399963064
0.3999533523
0.3999442675
0.3999358992
0.3999282857
0.3999214496
0.3999155001
0.3999110449
0.4000113389
0.4000007397
0.3999885718
0.3999757256
0.3999629431
0.3999507572
0.3999395005
0.3999293445
0.3999203427
0.3999124714
0.3999056625
0.3998998387
0.3998949903
0.3998914804
0.4000061094
0.3999934341
0.3999796077
0.3999656047
0.3999521301
0.3999396336
0.39992836
0.3999184033
0.3999097551
0.3999023433
0.3998960621
0.3998908019
0.3998865121
0.3998834586
0.400011339
0.4000007399
0.399988572
0.3999757259
0.3999629435
0.3999507576
0.3999395011
0.3999293451
0.3999203434
0.3999124722
0.3999056633
0.3998998397
0.3998949912
0.3998914815
0.4000186586
0.400011839
0.4000034008
0.3999938199
0.3999836114
0.3999732377
0.3999630648
0.3999533532
0.3999442685
0.3999359005
0.399928287
0.3999214511
0.3999155017
0.3999110466
0.4000236515
0.4000197957
0.4000146606
0.4000083652
0.4000011265
0.3999932077
0.3999848759
0.3999763741
0.3999679072
0.3999596385
0.3999516966
0.3999442059
0.3999374056
0.3999321561
0.4000259108
0.4000235067
0.4000201114
0.4000156822
0.4000102662
0.4000039829
0.399997
0.3999895077
0.3999816992
0.399973756
0.3999658462
0.3999581484
0.3999509779
0.3999453434
0.4000262542
0.4000236514
0.4000197956
0.4000146604
0.4000083649
0.4000011261
0.3999932072
0.3999848753
0.3999763733
0.3999679062
0.3999596373
0.3999516952
0.3999442043
0.3999374038
0.3999321542
0.4000185546
0.4000117798
0.4000035185
0.3999942676
0.3999845258
0.3999747132
0.3999651423
0.3999560218
0.3999474749
0.3999395622
0.3999323057
0.3999257244
0.3999199344
0.3999155595
0.4000057254
0.3999925543
0.3999782389
0.3999639915
0.3999506421
0.3999386429
0.3999281581
0.3999191651
0.3999115397
0.399905114
0.3998997141
0.3998951902
0.3998914717
0.3998887965
0.399982912
0.3999610011
0.3999401685
0.399921973
0.3999069582
0.3998950513
0.3998858809
0.3998789773
0.3998738794
0.3998701825
0.3998675521
0.3998657225
0.3998644928
0.399863756
0.3999613739
0.3999350042
0.399912666
0.399894946
0.3998814927
0.3998716212
0.3998646031
0.3998597846
0.3998566236
0.3998546884
0.3998536434
0.399853228
0.3998532266
0.3998534103
0.3999829126
0.3999610018
0.3999401693
0.3999219739
0.3999069592
0.3998950523
0.399885882
0.3998789785
0.3998738807
0.3998701838
0.3998675534
0.3998657238
0.3998644942
0.3998637574
0.400005726
0.3999925549
0.3999782396
0.3999639923
0.3999506431
0.3999386441
0.3999281594
0.3999191667
0.3999115414
0.3999051158
0.3998997161
0.3998951922
0.3998914739
0.3998887988
0.400018555
0.4000117801
0.4000035189
0.3999942681
0.3999845265
0.3999747141
0.3999651434
0.3999560231
0.3999474765
0.399939564
0.3999323077
0.3999257266
0.3999199368
0.3999155621
0.4000236515
0.4000197957
0.4000146606
0.4000083652
0.4000011266
0.3999932079
0.3999848762
0.3999763744
0.3999679076
0.3999596389
0.3999516971
0.3999442065
0.3999374063
0.3999321569
0.4000235613
0.4000186586
0.400011839
0.4000034007
0.3999938197
0.3999836111
0.3999732373
0.3999630643
0.3999533526
0.3999442677
0.3999358995
0.3999282859
0.3999214499
0.3999155004
0.3999110451
0.4000163605
0.4000057257
0.3999925544
0.3999782391
0.3999639916
0.3999506422
0.3999386431
0.3999281582
0.3999191653
0.3999115399
0.3999051141
0.3998997143
0.3998951903
0.3998914719
0.3998887967
0.3999678066
0.3999400042
0.3999148313
0.3998941935
0.399878483
0.3998672458
0.3998596822
0.3998549424
0.3998522687
0.3998510453
0.3998507981
0.3998511711
0.3998518786
0.3998525936
0.399883416
0.3998364348
0.3998040324
0.399784902
0.3997759105
0.3997738984
0.3997763155
0.399781314
0.3997876402
0.3997944836
0.3998013383
0.3998078796
0.3998137986
0.3998183327
0.3997728084
0.3997260406
0.3997059572
0.3997024176
0.3997081728
0.3997186564
0.3997311614
0.3997441469
0.3997567724
0.3997686076
0.3997794527
0.399789209
0.3997976954
0.3998040427
0.3998834186
0.3998364375
0.399804035
0.3997849045
0.399775913
0.3997739008
0.3997763179
0.3997813162
0.3997876423
0.3997944857
0.3998013403
0.3998078815
0.3998138005
0.3998183346
0.3999678084
0.3999400058
0.3999148331
0.3998941955
0.3998784852
0.3998672482
0.3998596849
0.3998549452
0.3998522716
0.3998510482
0.3998508011
0.399851174
0.3998518816
0.3998525967
0.400005726
0.399992555
0.3999782399
0.3999639927
0.3999506436
0.3999386448
0.3999281603
0.3999191676
0.3999115425
0.3999051169
0.3998997173
0.3998951935
0.3998914752
0.3998888001
0.4000186586
0.4000118391
0.400003401
0.3999938202
0.3999836119
0.3999732384
0.3999630657
0.3999533544
0.3999442699
0.399935902
0.3999282887
0.399921453
0.3999155037
0.3999110487
0.4000195145
0.4000113392
0.4000007401
0.3999885723
0.3999757261
0.3999629436
0.3999507577
0.3999395011
0.399929345
0.3999203432
0.3999124719
0.399905663
0.3998998392
0.3998949907
0.3998914809
0.400003067
0.3999829127
0.3999610019
0.3999401693
0.3999219738
0.3999069589
0.399895052
0.3998858816
0.3998789779
0.39987388
0.399870183
0.3998675526
0.399865723
0.3998644933
0.3998637565
0.3999407422
0.3998834174
0.3998364361
0.3998040335
0.3997849028
0.3997759113
0.399773899
0.3997763161
0.3997813144
0.3997876405
0.399794484
0.3998013386
0.3998078798
0.3998137989
0.399818333
0.3995939089
0.3995346482
0.399524776
0.3995416873
0.3995705689
0.3996030533
0.3996348951
0.3996641991
0.399690311
0.3997131842
0.399733033
0.3997501184
0.3997644738
0.3997749606
0.3990252066
0.3990991592
0.3992130759
0.3993223892
0.3994153168
0.3994911446
0.3995523214
0.3996017428
0.399641936
0.3996749048
0.399702172
0.3997248272
0.3997433829
0.3997567199
0.3995939178
0.3995346546
0.3995247814
0.3995416922
0.3995705732
0.3996030572
0.3996348987
0.3996642024
0.399690314
0.399713187
0.3997330356
0.3997501209
0.3997644762
0.3997749629
0.3998834187
0.3998364383
0.3998040365
0.3997849065
0.3997759153
0.3997739033
0.3997763204
0.3997813188
0.3997876448
0.3997944882
0.3998013427
0.3998078838
0.3998138028
0.3998183369
0.3999829125
0.3999610022
0.3999401702
0.3999219753
0.399906961
0.3998950546
0.3998858845
0.3998789812
0.3998738836
0.3998701868
0.3998675566
0.399865727
0.3998644975
0.3998637607
0.400011339
0.4000007401
0.3999885725
0.3999757267
0.3999629447
0.3999507592
0.3999395031
0.3999293475
0.3999203461
0.3999124752
0.3999056666
0.3998998431
0.3998949949
0.3998914853
0.4000164763
0.4000061099
0.3999934346
0.3999796083
0.3999656054
0.3999521308
0.3999396344
0.3999283608
0.399918404
0.3999097558
0.3999023441
0.3998960628
0.3998908025
0.3998865128
0.3998834592
0.3999891821
0.3999613749
0.3999350053
0.3999126672
0.3998949472
0.3998814938
0.3998716223
0.3998646041
0.3998597856
0.3998566245
0.3998546892
0.3998536442
0.3998532287
0.3998532273
0.399853411
0.3998558243
0.39977281
0.3997260426
0.3997059591
0.3997024193
0.3997081742
0.3997186576
0.3997311625
0.3997441478
0.3997567732
0.3997686083
0.3997794533
0.3997892096
0.399797696
0.3998040432
0.3991265614
0.3990252124
0.3990991631
0.3992130788
0.3993223914
0.3994153185
0.399491146
0.3995523225
0.3996017437
0.3996419368
0.3996749055
0.3997021726
0.3997248277
0.3997433834
0.3997567203
0.3965705625
0.3978183931
0.398509376
0.3989139752
0.3991646253
0.3993286091
0.3994414281
0.3995225684
0.3995831662
0.3996298478
0.3996667041
0.3996962914
0.3997199308
0.3997366605
0.3990252061
0.3990991671
0.3992130851
0.3993223978
0.3994153244
0.3994911513
0.3995523273
0.3996017479
0.3996419406
0.399674909
0.3997021758
0.3997248307
0.3997433862
0.399756723
0.3997728081
0.3997260436
0.3997059622
0.3997024236
0.3997081792
0.3997186629
0.3997311678
0.399744153
0.3997567783
0.3997686133
0.3997794581
0.3997892142
0.3997977004
0.3998040475
0.399961374
0.3999350053
0.3999126681
0.3998949491
0.3998814965
0.3998716255
0.3998646077
0.3998597896
0.3998566287
0.3998546937
0.3998536487
0.3998532334
0.399853232
0.3998534158
0.4000061094
0.3999934344
0.3999796086
0.3999656062
0.3999521322
0.3999396363
0.3999283632
0.399918407
0.3999097593
0.3999023479
0.399896067
0.399890807
0.3998865175
0.3998834642
0.4000195145
0.4000113393
0.4000007403
0.3999885725
0.3999757265
0.3999629442
0.3999507583
0.3999395018
0.3999293458
0.3999203442
0.3999124729
0.3999056641
0.3998998404
0.399894992
0.3998914822
0.4000030674
0.3999829133
0.3999610028
0.3999401704
0.399921975
0.3999069603
0.3998950534
0.3998858831
0.3998789795
0.3998738816
0.3998701847
0.3998675543
0.3998657247
0.399864495
0.3998637582
0.3999407456
0.3998834206
0.3998364397
0.3998040371
0.3997849064
0.3997759147
0.3997739024
0.3997763193
0.3997813175
0.3997876435
0.3997944868
0.3998013413
0.3998078824
0.3998138014
0.3998183354
0.3997267725
0.3995939231
0.3995346592
0.3995247852
0.3995416952
0.3995705757
0.3996030592
0.3996349004
0.3996642039
0.3996903152
0.3997131881
0.3997330366
0.3997501218
0.399764477
0.3997749636
0.3991265618
0.3990252143
0.3990991725
0.3992130889
0.3993224007
0.3994153266
0.399491153
0.3995523287
0.3996017491
0.3996419416
0.3996749098
0.3997021765
0.3997248313
0.3997433867
0.3997567234
0.3997267708
0.3995939241
0.3995346622
0.3995247892
0.3995416996
0.3995705801
0.3996030635
0.3996349044
0.3996642076
0.3996903188
0.3997131914
0.3997330396
0.3997501247
0.3997644797
0.3997749662
0.3998834165
0.3998364388
0.3998040385
0.3997849092
0.3997759184
0.3997739066
0.3997763238
0.3997813221
0.3997876481
0.3997944913
0.3998013458
0.3998078868
0.3998138057
0.3998183396
0.3999829119
0.399961002
0.3999401706
0.3999219762
0.3999069622
0.3998950561
0.3998858863
0.3998789831
0.3998738855
0.3998701888
0.3998675586
0.3998657291
0.3998644995
0.3998637629
0.4000113388
0.40000074
0.3999885726
0.399975727
0.3999629453
0.39995076
0.3999395041
0.3999293486
0.3999203474
0.3999124766
0.3999056681
0.3998998447
0.3998949966
0.3998914871
0.4000235614
0.4000186588
0.4000118394
0.4000034013
0.3999938204
0.399983612
0.3999732384
0.3999630655
0.399953354
0.3999442693
0.3999359013
0.3999282879
0.3999214519
0.3999155026
0.3999110475
0.4000163611
0.4000057265
0.3999925555
0.3999782404
0.3999639932
0.399950644
0.3999386451
0.3999281604
0.3999191676
0.3999115424
0.3999051167
0.399899717
0.3998951931
0.3998914748
0.3998887996
0.3999943131
0.3999678096
0.3999400073
0.3999148346
0.399894197
0.3998784866
0.3998672496
0.3998596862
0.3998549464
0.3998522728
0.3998510494
0.3998508022
0.399851175
0.3998518826
0.3998525976
0.3999407456
0.3998834213
0.3998364411
0.3998040391
0.3997849088
0.3997759174
0.3997739052
0.3997763221
0.3997813203
0.3997876462
0.3997944894
0.3998013439
0.3998078849
0.3998138038
0.3998183378
0.3998558245
0.3997728127
0.3997260476
0.3997059655
0.3997024263
0.3997081814
0.3997186647
0.3997311693
0.3997441543
0.3997567795
0.3997686143
0.399779459
0.399789215
0.3997977011
0.3998040482
0.3999407459
0.399883422
0.3998364423
0.3998040409
0.399784911
0.3997759198
0.3997739077
0.3997763247
0.3997813228
0.3997876487
0.3997944919
0.3998013462
0.3998078872
0.399813806
0.39981834
0.3999943122
0.3999678089
0.3999400073
0.3999148354
0.3998941986
0.3998784889
0.3998672523
0.3998596892
0.3998549497
0.3998522762
0.3998510528
0.3998508057
0.3998511786
0.3998518861
0.3998526012
0.4000057255
0.399992555
0.3999782404
0.3999639938
0.3999506452
0.3999386468
0.3999281626
0.3999191702
0.3999115453
0.39990512
0.3998997205
0.3998951968
0.3998914786
0.3998888036
0.4000186584
0.400011839
0.4000034011
0.3999938207
0.3999836126
0.3999732394
0.3999630671
0.399953356
0.3999442718
0.3999359042
0.3999282911
0.3999214556
0.3999155065
0.3999110517
0.4000262544
0.4000236516
0.4000197959
0.4000146609
0.4000083655
0.4000011269
0.3999932082
0.3999848765
0.3999763747
0.3999679079
0.3999596392
0.3999516973
0.3999442067
0.3999374064
0.3999321569
0.4000234906
0.4000185553
0.4000117805
0.4000035194
0.3999942687
0.3999845271
0.3999747148
0.3999651441
0.3999560239
0.3999474773
0.3999395648
0.3999323085
0.3999257274
0.3999199376
0.3999155629
0.4000163611
0.4000057266
0.3999925557
0.3999782407
0.3999639937
0.3999506446
0.3999386459
0.3999281613
0.3999191687
0.3999115435
0.3999051179
0.3998997183
0.3998951945
0.3998914761
0.3998888011
0.4000030674
0.3999829137
0.3999610036
0.3999401717
0.3999219768
0.3999069625
0.399895056
0.399885886
0.3998789826
0.3998738849
0.399870188
0.3998675577
0.3998657281
0.3998644985
0.3998637617
0.3999891823
0.3999613759
0.3999350074
0.3999126701
0.399894951
0.3998814982
0.3998716272
0.3998646092
0.399859791
0.39985663
0.3998546948
0.3998536498
0.3998532343
0.3998532329
0.3998534166
0.4000030676
0.399982914
0.3999610041
0.3999401724
0.3999219778
0.3999069637
0.3998950573
0.3998858874
0.3998789841
0.3998738865
0.3998701897
0.3998675594
0.3998657298
0.3998645002
0.3998637635
0.4000163611
0.4000057266
0.399992556
0.3999782413
0.3999639946
0.3999506459
0.3999386475
0.3999281632
0.3999191708
0.3999115458
0.3999051204
0.3998997209
0.3998951972
0.399891479
0.399888804
0.4000234904
0.4000185551
0.4000117805
0.4000035196
0.3999942692
0.3999845279
0.3999747159
0.3999651456
0.3999560257
0.3999474794
0.3999395672
0.3999323112
0.3999257304
0.3999199408
0.3999155663
0.4000236513
0.4000197957
0.4000146608
0.4000083657
0.4000011273
0.399993209
0.3999848776
0.3999763762
0.3999679097
0.3999596414
0.3999516999
0.3999442096
0.3999374096
0.3999321605
0.4000274567
0.4000259109
0.4000235069
0.4000201116
0.4000156825
0.4000102665
0.4000039833
0.3999970004
0.3999895083
0.3999816997
0.3999737567
0.3999658469
0.3999581491
0.3999509787
0.3999453441
0.4000262544
0.4000236516
0.4000197959
0.4000146609
0.4000083656
0.400001127
0.3999932084
0.3999848767
0.3999763751
0.3999679083
0.3999596396
0.3999516978
0.3999442073
0.3999374071
0.3999321577
0.4000235614
0.4000186589
0.4000118395
0.4000034015
0.3999938209
0.3999836126
0.3999732392
0.3999630665
0.3999533552
0.3999442707
0.3999359029
0.3999282896
0.3999214538
0.3999155046
0.3999110496
0.4000195146
0.4000113395
0.4000007408
0.3999885734
0.3999757277
0.3999629458
0.3999507604
0.3999395043
0.3999293486
0.3999203473
0.3999124763
0.3999056677
0.3998998442
0.3998949959
0.3998914863
0.4000164764
0.4000061103
0.3999934355
0.3999796098
0.3999656075
0.3999521335
0.3999396376
0.3999283645
0.3999184083
0.3999097605
0.399902349
0.3998960681
0.399890808
0.3998865185
0.3998834651
0.4000195147
0.4000113397
0.400000741
0.3999885737
0.3999757282
0.3999629464
0.3999507612
0.3999395052
0.3999293497
0.3999203484
0.3999124775
0.399905669
0.3998998456
0.3998949974
0.3998914878
0.4000235614
0.400018659
0.4000118397
0.4000034018
0.3999938214
0.3999836134
0.3999732402
0.3999630678
0.3999533567
0.3999442725
0.3999359048
0.3999282917
0.3999214561
0.399915507
0.3999110522
0.4000262544
0.4000236516
0.4000197959
0.4000146611
0.4000083659
0.4000011276
0.3999932092
0.3999848778
0.3999763764
0.3999679099
0.3999596416
0.3999517
0.3999442098
0.3999374098
0.3999321606
0.4000274566
0.4000259108
0.4000235068
0.4000201116
0.4000156826
0.4000102668
0.4000039839
0.3999970012
0.3999895094
0.3999817012
0.3999737584
0.399965849
0.3999581515
0.3999509815
0.3999453473
)
;

boundaryField
{
    top
    {
        type            calculated;
        value           nonuniform List<scalar> 
127
(
0.4000274566
0.4000259108
0.4000236515
0.4000186586
0.400011339
0.4000061094
0.4000113388
0.4000186584
0.4000236513
0.4000259108
0.4000235067
0.4000197957
0.4000118391
0.4000007401
0.3999934344
0.40000074
0.400011839
0.4000197957
0.4000235068
0.4000201114
0.4000146606
0.400003401
0.3999885725
0.3999796086
0.3999885726
0.4000034011
0.4000146608
0.4000201116
0.4000156822
0.4000083652
0.3999938202
0.3999757267
0.3999656062
0.399975727
0.3999938207
0.4000083657
0.4000156826
0.4000102662
0.4000011266
0.3999836119
0.3999629447
0.3999521322
0.3999629453
0.3999836126
0.4000011273
0.4000102668
0.4000039829
0.3999932079
0.3999732384
0.3999507592
0.3999396363
0.39995076
0.3999732394
0.399993209
0.4000039839
0.399997
0.3999848762
0.3999630657
0.3999395031
0.3999283632
0.3999395041
0.3999630671
0.3999848776
0.3999970012
0.3999895077
0.3999763744
0.3999533544
0.3999293475
0.399918407
0.3999293486
0.399953356
0.3999763762
0.3999895094
0.3999816992
0.3999679076
0.3999442699
0.3999203461
0.3999097593
0.3999203474
0.3999442718
0.3999679097
0.3999817012
0.399973756
0.3999596389
0.399935902
0.3999124752
0.3999023479
0.3999124766
0.3999359042
0.3999596414
0.3999737584
0.3999658462
0.3999516971
0.3999282887
0.3999056666
0.399896067
0.3999056681
0.3999282911
0.3999516999
0.399965849
0.3999581484
0.3999442065
0.399921453
0.3998998431
0.399890807
0.3998998447
0.3999214556
0.3999442096
0.3999581515
0.3999509779
0.3999374063
0.3999155037
0.3998949949
0.3998865175
0.3998949966
0.3999155065
0.3999374096
0.3999509815
0.3999453434
0.3999321569
0.3999110487
0.3998914853
0.3998834642
0.3998914871
0.3999110517
0.3999321605
0.3999453473
)
;
    }
    bottom
    {
        type            calculated;
        value           nonuniform List<scalar> 
134
(
0.4000262542
0.4000235613
0.4000195145
0.4000164763
0.4000195145
0.4000235614
0.4000262544
0.4000274567
0.4000259107
0.4000236514
0.4000186586
0.4000113392
0.4000061099
0.4000113393
0.4000186588
0.4000236516
0.4000259109
0.4000235066
0.4000197956
0.400011839
0.4000007401
0.3999934346
0.4000007403
0.4000118394
0.4000197959
0.4000235069
0.4000201112
0.4000146604
0.4000034007
0.3999885723
0.3999796083
0.3999885725
0.4000034013
0.4000146609
0.4000201116
0.400015682
0.4000083649
0.3999938197
0.3999757261
0.3999656054
0.3999757265
0.3999938204
0.4000083655
0.4000156825
0.4000102658
0.4000011261
0.3999836111
0.3999629436
0.3999521308
0.3999629442
0.399983612
0.4000011269
0.4000102665
0.4000039825
0.3999932072
0.3999732373
0.3999507577
0.3999396344
0.3999507583
0.3999732384
0.3999932082
0.4000039833
0.3999969994
0.3999848753
0.3999630643
0.3999395011
0.3999283608
0.3999395018
0.3999630655
0.3999848765
0.3999970004
0.3999895069
0.3999763733
0.3999533526
0.399929345
0.399918404
0.3999293458
0.399953354
0.3999763747
0.3999895083
0.3999816982
0.3999679062
0.3999442677
0.3999203432
0.3999097558
0.3999203442
0.3999442693
0.3999679079
0.3999816997
0.3999737548
0.3999596373
0.3999358995
0.3999124719
0.3999023441
0.3999124729
0.3999359013
0.3999596392
0.3999737567
0.3999658448
0.3999516952
0.3999282859
0.399905663
0.3998960628
0.3999056641
0.3999282879
0.3999516973
0.3999658469
0.3999581466
0.3999442043
0.3999214499
0.3998998392
0.3998908025
0.3998998404
0.3999214519
0.3999442067
0.3999581491
0.399950976
0.3999374038
0.3999155004
0.3998949907
0.3998865128
0.399894992
0.3999155026
0.3999374064
0.3999509787
0.3999453412
0.3999321542
0.3999110451
0.3998914809
0.3998834592
0.3998914822
0.3999110475
0.3999321569
0.3999453441
)
;
    }
    side-walls
    {
        type            calculated;
        value           nonuniform List<scalar> 
261
(
0.4000259107
0.4000236513
0.4000186584
0.4000113389
0.4000061094
0.400011339
0.4000186586
0.4000236515
0.4000259108
0.4000235066
0.4000197955
0.4000118388
0.4000007397
0.3999934341
0.4000007399
0.400011839
0.4000197957
0.4000235067
0.4000201112
0.4000146603
0.4000034005
0.3999885718
0.3999796077
0.399988572
0.4000034008
0.4000146606
0.4000201114
0.400015682
0.4000083648
0.3999938195
0.3999757256
0.3999656047
0.3999757259
0.3999938199
0.4000083652
0.4000156822
0.4000102658
0.400001126
0.3999836109
0.3999629431
0.3999521301
0.3999629435
0.3999836114
0.4000011265
0.4000102662
0.4000039825
0.3999932071
0.399973237
0.3999507572
0.3999396336
0.3999507576
0.3999732377
0.3999932077
0.4000039829
0.3999969994
0.3999848751
0.399963064
0.3999395005
0.39992836
0.3999395011
0.3999630648
0.3999848759
0.399997
0.3999895069
0.3999763732
0.3999533523
0.3999293445
0.3999184033
0.3999293451
0.3999533532
0.3999763741
0.3999895077
0.3999816982
0.3999679061
0.3999442675
0.3999203427
0.3999097551
0.3999203434
0.3999442685
0.3999679072
0.3999816992
0.3999737548
0.3999596371
0.3999358992
0.3999124714
0.3999023433
0.3999124722
0.3999359005
0.3999596385
0.399973756
0.3999658448
0.399951695
0.3999282857
0.3999056625
0.3998960621
0.3999056633
0.399928287
0.3999516966
0.3999658462
0.3999581466
0.3999442042
0.3999214496
0.3998998387
0.3998908019
0.3998998397
0.3999214511
0.3999442059
0.3999581484
0.399950976
0.3999374037
0.3999155001
0.3998949903
0.3998865121
0.3998949912
0.3999155017
0.3999374056
0.3999509779
0.3999453412
0.3999321541
0.3999110449
0.3998914804
0.3998834586
0.3998914815
0.3999110466
0.3999321561
0.3999453434
0.4000274567
0.4000262544
0.4000235614
0.4000195146
0.4000164764
0.4000195147
0.4000235614
0.4000262544
0.4000274566
0.4000259109
0.4000236516
0.4000186589
0.4000113395
0.4000061103
0.4000113397
0.400018659
0.4000236516
0.4000259108
0.4000235069
0.4000197959
0.4000118395
0.4000007408
0.3999934355
0.400000741
0.4000118397
0.4000197959
0.4000235068
0.4000201116
0.4000146609
0.4000034015
0.3999885734
0.3999796098
0.3999885737
0.4000034018
0.4000146611
0.4000201116
0.4000156825
0.4000083656
0.3999938209
0.3999757277
0.3999656075
0.3999757282
0.3999938214
0.4000083659
0.4000156826
0.4000102665
0.400001127
0.3999836126
0.3999629458
0.3999521335
0.3999629464
0.3999836134
0.4000011276
0.4000102668
0.4000039833
0.3999932084
0.3999732392
0.3999507604
0.3999396376
0.3999507612
0.3999732402
0.3999932092
0.4000039839
0.3999970004
0.3999848767
0.3999630665
0.3999395043
0.3999283645
0.3999395052
0.3999630678
0.3999848778
0.3999970012
0.3999895083
0.3999763751
0.3999533552
0.3999293486
0.3999184083
0.3999293497
0.3999533567
0.3999763764
0.3999895094
0.3999816997
0.3999679083
0.3999442707
0.3999203473
0.3999097605
0.3999203484
0.3999442725
0.3999679099
0.3999817012
0.3999737567
0.3999596396
0.3999359029
0.3999124763
0.399902349
0.3999124775
0.3999359048
0.3999596416
0.3999737584
0.3999658469
0.3999516978
0.3999282896
0.3999056677
0.3998960681
0.399905669
0.3999282917
0.3999517
0.399965849
0.3999581491
0.3999442073
0.3999214538
0.3998998442
0.399890808
0.3998998456
0.3999214561
0.3999442098
0.3999581515
0.3999509787
0.3999374071
0.3999155046
0.3998949959
0.3998865185
0.3998949974
0.399915507
0.3999374098
0.3999509815
0.3999453441
0.3999321577
0.3999110496
0.3998914863
0.3998834651
0.3998914878
0.3999110522
0.3999321606
0.3999453473
)
;
    }
    inlet
    {
        type            calculated;
        value           nonuniform 0();
    }
    outlet
    {
        type            calculated;
        value           nonuniform List<scalar> 
81
(
0.3999453412
0.3999321541
0.3999110449
0.3998914804
0.3998834586
0.3998914815
0.3999110466
0.3999321561
0.3999453434
0.3999321542
0.3999155595
0.3998887965
0.399863756
0.3998534103
0.3998637574
0.3998887988
0.3999155621
0.3999321569
0.3999110451
0.3998887967
0.3998525936
0.3998183327
0.3998040427
0.3998183346
0.3998525967
0.3998888001
0.3999110487
0.3998914809
0.3998637565
0.399818333
0.3997749606
0.3997567199
0.3997749629
0.3998183369
0.3998637607
0.3998914853
0.3998834592
0.399853411
0.3998040432
0.3997567203
0.3997366605
0.399756723
0.3998040475
0.3998534158
0.3998834642
0.3998914822
0.3998637582
0.3998183354
0.3997749636
0.3997567234
0.3997749662
0.3998183396
0.3998637629
0.3998914871
0.3999110475
0.3998887996
0.3998525976
0.3998183378
0.3998040482
0.39981834
0.3998526012
0.3998888036
0.3999110517
0.3999321569
0.3999155629
0.3998888011
0.3998637617
0.3998534166
0.3998637635
0.399888804
0.3999155663
0.3999321605
0.3999453441
0.3999321577
0.3999110496
0.3998914863
0.3998834651
0.3998914878
0.3999110522
0.3999321606
0.3999453473
)
;
    }
    procBoundary1to0
    {
        type            processor;
        value           nonuniform List<scalar> 
97
(
0.4000274566
0.4000274566
0.4000262544
0.4000235615
0.4000195148
0.4000164767
0.4000195149
0.4000235616
0.4000262545
0.4000274568
0.4000277927
0.4000234903
0.4000234903
0.4000234903
0.4000163611
0.4000030679
0.3999891836
0.4000030684
0.4000163616
0.4000234908
0.4000262545
0.4000265735
0.4000234159
0.3999943119
0.3999943119
0.3999943119
0.3999407464
0.3998558326
0.3999407493
0.3999943145
0.4000163616
0.4000235616
0.4000247863
0.4000178462
0.3999935601
0.3997267675
0.3997267675
0.3997267675
0.399126614
0.3997267854
0.3999407493
0.4000030684
0.4000195149
0.4000235095
0.4000125882
0.3999665693
0.3997843108
0.3941884846
0.3941884846
0.3941884846
0.3991266102
0.3991266102
0.3998558318
0.3999891836
0.4000164767
0.4000247863
0.4000178461
0.3999935598
0.3999229258
0.3997843082
0.3999229273
0.3999407436
0.3999407436
0.3999407436
0.4000030675
0.4000195147
0.4000265735
0.4000234159
0.4000141587
0.3999935598
0.399966569
0.3999935601
0.4000141588
0.4000163606
0.4000163606
0.4000163606
0.4000235614
0.4000277927
0.4000265483
0.4000234159
0.4000178461
0.4000125882
0.4000178462
0.400023416
0.4000265483
0.4000262543
0.4000262543
0.4000262543
0.4000283444
0.4000277927
0.4000265735
0.4000247863
0.4000235095
0.4000247864
0.4000265736
0.4000277927
0.4000283444
)
;
    }
}


// ************************************************************************* //
