/*--------------------------------*- C++ -*----------------------------------*\
| =========                 |                                                 |
| \\      /  F ield         | OpenFOAM: The Open Source CFD Toolbox           |
|  \\    /   O peration     | Version:  4.x                                   |
|   \\  /    A nd           | Web:      www.OpenFOAM.org                      |
|    \\/     M anipulation  |                                                 |
\*---------------------------------------------------------------------------*/
FoamFile
{
    version     2.0;
    format      ascii;
    class       volScalarField;
    location    "5000";
    object      X_N2;
}
// * * * * * * * * * * * * * * * * * * * * * * * * * * * * * * * * * * * * * //

dimensions      [0 0 0 0 0 0 0];

internalField   nonuniform List<scalar> 
1174
(
0.599970867
0.599970866
0.5999708646
0.5999708627
0.5999708604
0.5999708576
0.5999708543
0.5999708506
0.5999708465
0.5999708421
0.5999708375
0.5999708328
0.5999708282
0.5999708244
0.5999708661
0.5999708646
0.5999708626
0.5999708601
0.5999708571
0.5999708536
0.5999708496
0.5999708454
0.5999708409
0.5999708362
0.5999708314
0.5999708265
0.5999708219
0.5999708181
0.5999708643
0.5999708619
0.5999708589
0.5999708553
0.5999708512
0.5999708467
0.5999708419
0.599970837
0.599970832
0.599970827
0.599970822
0.5999708171
0.5999708125
0.5999708089
0.5999708621
0.5999708587
0.5999708545
0.5999708498
0.5999708448
0.5999708395
0.5999708341
0.5999708288
0.5999708235
0.5999708184
0.5999708134
0.5999708086
0.5999708042
0.5999708008
0.5999708608
0.5999708569
0.5999708523
0.5999708472
0.5999708418
0.5999708363
0.5999708308
0.5999708254
0.5999708202
0.5999708151
0.5999708102
0.5999708055
0.5999708012
0.5999707979
0.5999708621
0.5999708588
0.5999708547
0.5999708501
0.5999708451
0.5999708399
0.5999708346
0.5999708294
0.5999708242
0.5999708192
0.5999708143
0.5999708096
0.5999708052
0.5999708019
0.5999708644
0.5999708621
0.5999708591
0.5999708555
0.5999708515
0.5999708472
0.5999708426
0.5999708378
0.599970833
0.5999708282
0.5999708233
0.5999708186
0.5999708141
0.5999708107
0.5999708662
0.5999708647
0.5999708627
0.5999708603
0.5999708573
0.599970854
0.5999708502
0.5999708462
0.5999708419
0.5999708374
0.5999708328
0.5999708282
0.5999708237
0.5999708202
0.599970867
0.599970866
0.5999708647
0.5999708628
0.5999708606
0.5999708579
0.5999708547
0.5999708512
0.5999708474
0.5999708432
0.5999708389
0.5999708344
0.5999708301
0.5999708266
0.5999708672
0.5999708662
0.5999708647
0.5999708627
0.5999708602
0.5999708572
0.5999708536
0.5999708497
0.5999708455
0.599970841
0.5999708363
0.5999708315
0.5999708266
0.5999708219
0.5999708182
0.5999708642
0.5999708619
0.599970859
0.5999708555
0.5999708515
0.5999708472
0.5999708426
0.5999708379
0.5999708331
0.5999708282
0.5999708234
0.5999708186
0.5999708141
0.5999708106
0.5999708601
0.5999708561
0.5999708514
0.5999708463
0.599970841
0.5999708356
0.5999708304
0.5999708252
0.5999708203
0.5999708155
0.5999708108
0.5999708064
0.5999708023
0.5999707992
0.5999708542
0.5999708481
0.5999708415
0.599970835
0.5999708288
0.5999708229
0.5999708175
0.5999708124
0.5999708077
0.5999708034
0.5999707992
0.5999707954
0.5999707918
0.5999707892
0.5999708501
0.5999708429
0.5999708357
0.5999708289
0.5999708226
0.599970817
0.5999708118
0.5999708071
0.5999708027
0.5999707987
0.5999707949
0.5999707913
0.5999707881
0.5999707857
0.5999708545
0.5999708484
0.599970842
0.5999708356
0.5999708295
0.5999708237
0.5999708184
0.5999708135
0.5999708089
0.5999708046
0.5999708006
0.5999707967
0.5999707932
0.5999707907
0.5999708604
0.5999708565
0.5999708519
0.5999708469
0.5999708418
0.5999708366
0.5999708316
0.5999708267
0.5999708219
0.5999708173
0.5999708128
0.5999708085
0.5999708046
0.5999708016
0.5999708644
0.5999708621
0.5999708592
0.5999708558
0.599970852
0.5999708479
0.5999708436
0.5999708392
0.5999708346
0.59997083
0.5999708254
0.5999708209
0.5999708166
0.5999708133
0.5999708661
0.5999708647
0.5999708628
0.5999708603
0.5999708574
0.5999708541
0.5999708505
0.5999708465
0.5999708423
0.5999708379
0.5999708334
0.5999708289
0.5999708245
0.5999708211
0.5999708662
0.5999708646
0.5999708622
0.5999708592
0.5999708556
0.5999708514
0.599970847
0.5999708422
0.5999708373
0.5999708323
0.5999708272
0.5999708222
0.5999708173
0.5999708127
0.5999708091
0.5999708636
0.5999708605
0.5999708564
0.5999708517
0.5999708466
0.5999708412
0.5999708359
0.5999708306
0.5999708254
0.5999708205
0.5999708157
0.599970811
0.5999708066
0.5999708025
0.5999707994
0.5999708494
0.5999708423
0.5999708348
0.5999708276
0.5999708209
0.599970815
0.5999708097
0.599970805
0.5999708008
0.5999707969
0.5999707933
0.59997079
0.599970787
0.5999707848
0.5999708306
0.5999708193
0.5999708095
0.5999708015
0.5999707953
0.5999707905
0.5999707867
0.5999707837
0.5999707811
0.5999707788
0.5999707767
0.5999707748
0.599970773
0.5999707718
0.5999708136
0.5999708009
0.5999707917
0.5999707855
0.5999707813
0.5999707783
0.5999707762
0.5999707745
0.5999707731
0.5999707718
0.5999707705
0.5999707693
0.5999707681
0.5999707674
0.5999708321
0.5999708207
0.5999708109
0.5999708032
0.5999707972
0.5999707925
0.5999707888
0.5999707858
0.5999707832
0.599970781
0.5999707789
0.5999707769
0.5999707751
0.599970774
0.5999708504
0.5999708431
0.5999708358
0.599970829
0.5999708227
0.5999708171
0.5999708122
0.5999708077
0.5999708037
0.5999708
0.5999707965
0.5999707932
0.5999707902
0.5999707881
0.5999708604
0.5999708565
0.599970852
0.5999708472
0.5999708423
0.5999708373
0.5999708324
0.5999708276
0.599970823
0.5999708185
0.5999708141
0.5999708099
0.599970806
0.5999708031
0.5999708644
0.5999708621
0.5999708592
0.5999708558
0.599970852
0.5999708478
0.5999708435
0.599970839
0.5999708344
0.5999708297
0.5999708251
0.5999708206
0.5999708163
0.5999708131
0.599970865
0.5999708625
0.5999708591
0.599970855
0.5999708503
0.5999708453
0.59997084
0.5999708347
0.5999708293
0.599970824
0.5999708189
0.5999708138
0.599970809
0.5999708046
0.5999708012
0.5999708603
0.599970855
0.5999708488
0.5999708422
0.5999708357
0.5999708294
0.5999708235
0.599970818
0.599970813
0.5999708082
0.5999708038
0.5999707997
0.5999707958
0.5999707922
0.5999707896
0.599970844
0.5999708322
0.5999708204
0.5999708103
0.5999708022
0.5999707959
0.599970791
0.5999707872
0.5999707841
0.5999707815
0.5999707792
0.599970777
0.5999707751
0.5999707733
0.5999707721
0.5999707744
0.5999707617
0.5999707542
0.5999707508
0.5999707501
0.5999707506
0.5999707517
0.599970753
0.5999707541
0.599970755
0.5999707557
0.599970756
0.5999707563
0.5999707566
0.5999707006
0.5999706997
0.599970706
0.5999707144
0.5999707224
0.5999707293
0.5999707349
0.5999707394
0.5999707429
0.5999707457
0.5999707477
0.5999707492
0.5999707503
0.5999707513
0.5999707794
0.5999707654
0.599970758
0.5999707549
0.5999707542
0.5999707546
0.5999707556
0.5999707567
0.5999707576
0.5999707584
0.5999707588
0.5999707591
0.5999707591
0.5999707594
0.5999708319
0.5999708212
0.5999708122
0.599970805
0.5999707994
0.599970795
0.5999707915
0.5999707886
0.599970786
0.5999707837
0.5999707816
0.5999707796
0.5999707777
0.5999707765
0.5999708544
0.5999708487
0.5999708427
0.5999708369
0.5999708313
0.599970826
0.5999708211
0.5999708164
0.5999708121
0.599970808
0.599970804
0.5999708003
0.5999707969
0.5999707944
0.5999708621
0.5999708589
0.599970855
0.5999708508
0.5999708462
0.5999708415
0.5999708367
0.5999708319
0.5999708271
0.5999708224
0.5999708178
0.5999708134
0.5999708093
0.5999708062
0.5999708642
0.5999708613
0.5999708574
0.5999708529
0.5999708479
0.5999708425
0.599970837
0.5999708316
0.5999708262
0.5999708209
0.5999708158
0.5999708108
0.5999708061
0.5999708018
0.5999707986
0.5999708576
0.5999708511
0.5999708439
0.5999708367
0.5999708299
0.5999708236
0.5999708179
0.5999708127
0.5999708079
0.5999708035
0.5999707994
0.5999707956
0.599970792
0.5999707887
0.5999707864
0.5999708325
0.5999708162
0.5999708031
0.5999707936
0.5999707871
0.5999707827
0.5999707795
0.5999707772
0.5999707754
0.5999707739
0.5999707725
0.5999707712
0.5999707699
0.5999707687
0.5999707679
0.599970727
0.5999707078
0.5999707039
0.5999707089
0.5999707164
0.5999707239
0.5999707304
0.5999707358
0.5999707401
0.5999707435
0.5999707462
0.5999707482
0.5999707496
0.5999707507
0.5999707516
0.5999704048
0.5999705395
0.5999706139
0.5999706578
0.5999706852
0.5999707033
0.5999707157
0.5999707246
0.5999707311
0.599970736
0.5999707396
0.5999707424
0.5999707444
0.5999707461
0.5999707003
0.5999707051
0.5999707139
0.5999707226
0.5999707302
0.5999707363
0.5999707413
0.5999707451
0.5999707481
0.5999707503
0.599970752
0.5999707532
0.5999707541
0.5999707549
0.599970813
0.5999708031
0.5999707962
0.5999707914
0.5999707879
0.5999707852
0.5999707831
0.5999707813
0.5999707797
0.5999707782
0.5999707767
0.5999707752
0.5999707738
0.599970773
0.5999708498
0.5999708435
0.5999708374
0.5999708316
0.5999708263
0.5999708213
0.5999708167
0.5999708123
0.5999708083
0.5999708044
0.5999708008
0.5999707973
0.5999707941
0.5999707918
0.5999708607
0.5999708571
0.5999708529
0.5999708485
0.5999708438
0.599970839
0.5999708342
0.5999708293
0.5999708246
0.59997082
0.5999708155
0.5999708112
0.5999708072
0.5999708042
0.599970865
0.5999708626
0.5999708593
0.5999708553
0.5999708507
0.5999708458
0.5999708406
0.5999708354
0.5999708302
0.599970825
0.59997082
0.599970815
0.5999708103
0.599970806
0.5999708026
0.5999708605
0.5999708554
0.5999708494
0.599970843
0.5999708366
0.5999708305
0.5999708248
0.5999708195
0.5999708145
0.5999708099
0.5999708055
0.5999708014
0.5999707976
0.5999707941
0.5999707915
0.5999708465
0.5999708345
0.5999708229
0.599970813
0.5999708051
0.5999707989
0.599970794
0.5999707902
0.5999707871
0.5999707844
0.599970782
0.5999707798
0.5999707778
0.599970776
0.5999707747
0.5999708095
0.5999707857
0.5999707701
0.5999707617
0.5999707578
0.5999707565
0.5999707566
0.5999707572
0.599970758
0.5999707588
0.5999707593
0.5999707597
0.5999707598
0.5999707598
0.59997076
0.5999707285
0.5999707096
0.5999707107
0.5999707176
0.5999707252
0.599970732
0.5999707377
0.5999707423
0.599970746
0.5999707488
0.599970751
0.5999707525
0.5999707536
0.5999707544
0.5999707552
0.5999708076
0.5999707856
0.5999707724
0.5999707656
0.5999707625
0.5999707615
0.5999707615
0.599970762
0.5999707625
0.599970763
0.5999707633
0.5999707634
0.5999707633
0.5999707631
0.5999707632
0.5999708306
0.5999708221
0.5999708146
0.5999708082
0.5999708031
0.5999707989
0.5999707954
0.5999707924
0.5999707898
0.5999707874
0.5999707851
0.5999707829
0.599970781
0.5999707797
0.5999708539
0.5999708487
0.5999708433
0.599970838
0.5999708328
0.5999708278
0.5999708231
0.5999708186
0.5999708144
0.5999708103
0.5999708064
0.5999708027
0.5999707993
0.5999707969
0.5999708619
0.5999708588
0.5999708552
0.5999708512
0.5999708469
0.5999708424
0.5999708379
0.5999708332
0.5999708286
0.5999708241
0.5999708196
0.5999708153
0.5999708113
0.5999708083
0.5999708663
0.5999708647
0.5999708624
0.5999708595
0.5999708561
0.5999708521
0.5999708478
0.5999708433
0.5999708386
0.5999708338
0.5999708289
0.5999708241
0.5999708194
0.5999708149
0.5999708115
0.599970864
0.599970861
0.5999708571
0.5999708526
0.5999708477
0.5999708427
0.5999708376
0.5999708325
0.5999708276
0.5999708228
0.5999708182
0.5999708137
0.5999708094
0.5999708055
0.5999708025
0.599970858
0.5999708518
0.5999708446
0.5999708374
0.5999708305
0.5999708242
0.5999708186
0.5999708135
0.599970809
0.5999708049
0.5999708011
0.5999707975
0.5999707942
0.5999707912
0.599970789
0.5999708464
0.5999708349
0.5999708241
0.5999708149
0.5999708074
0.5999708016
0.5999707969
0.5999707932
0.59997079
0.5999707873
0.5999707849
0.5999707827
0.5999707805
0.5999707786
0.5999707774
0.5999708325
0.599970818
0.5999708073
0.5999707996
0.5999707941
0.5999707901
0.599970787
0.5999707846
0.5999707826
0.5999707808
0.5999707791
0.5999707775
0.599970776
0.5999707745
0.5999707736
0.5999708465
0.5999708355
0.5999708253
0.5999708168
0.5999708099
0.5999708044
0.5999707999
0.5999707962
0.5999707931
0.5999707904
0.5999707879
0.5999707855
0.5999707833
0.5999707813
0.59997078
0.5999708572
0.5999708511
0.5999708447
0.5999708384
0.5999708323
0.5999708268
0.5999708217
0.599970817
0.5999708128
0.5999708089
0.5999708052
0.5999708017
0.5999707984
0.5999707954
0.5999707933
0.5999708601
0.5999708567
0.5999708528
0.5999708485
0.5999708441
0.5999708396
0.5999708351
0.5999708307
0.5999708263
0.599970822
0.5999708178
0.5999708138
0.59997081
0.5999708072
0.5999708642
0.5999708621
0.5999708594
0.5999708564
0.5999708529
0.5999708491
0.5999708451
0.599970841
0.5999708367
0.5999708323
0.599970828
0.5999708236
0.5999708196
0.5999708165
0.5999708673
0.5999708663
0.5999708649
0.599970863
0.5999708606
0.5999708578
0.5999708545
0.5999708508
0.5999708468
0.5999708426
0.5999708381
0.5999708336
0.5999708289
0.5999708245
0.599970821
0.5999708663
0.5999708647
0.5999708625
0.5999708597
0.5999708564
0.5999708527
0.5999708486
0.5999708444
0.59997084
0.5999708354
0.5999708309
0.5999708263
0.5999708217
0.5999708175
0.5999708142
0.599970864
0.599970861
0.5999708573
0.5999708529
0.5999708482
0.5999708433
0.5999708384
0.5999708335
0.5999708287
0.5999708241
0.5999708195
0.5999708151
0.5999708109
0.599970807
0.5999708041
0.5999708604
0.5999708557
0.5999708501
0.5999708442
0.5999708384
0.5999708328
0.5999708274
0.5999708224
0.5999708177
0.5999708133
0.5999708091
0.5999708051
0.5999708013
0.5999707979
0.5999707954
0.5999708576
0.5999708517
0.5999708455
0.5999708393
0.5999708335
0.599970828
0.5999708228
0.5999708181
0.5999708136
0.5999708094
0.5999708055
0.5999708017
0.5999707982
0.5999707949
0.5999707927
0.5999708606
0.5999708559
0.5999708506
0.599970845
0.5999708394
0.5999708341
0.599970829
0.5999708241
0.5999708195
0.5999708152
0.5999708111
0.5999708071
0.5999708034
0.5999707999
0.5999707975
0.5999708639
0.599970861
0.5999708575
0.5999708535
0.5999708491
0.5999708447
0.5999708401
0.5999708356
0.5999708311
0.5999708267
0.5999708224
0.5999708181
0.599970814
0.5999708103
0.5999708075
0.5999708661
0.5999708645
0.5999708624
0.5999708598
0.5999708568
0.5999708535
0.5999708499
0.599970846
0.599970842
0.5999708378
0.5999708336
0.5999708293
0.5999708251
0.5999708211
0.599970818
0.5999708661
0.5999708647
0.599970863
0.5999708608
0.5999708583
0.5999708553
0.599970852
0.5999708485
0.5999708447
0.5999708407
0.5999708365
0.5999708323
0.5999708283
0.5999708252
0.5999708678
0.5999708671
0.5999708662
0.5999708649
0.5999708631
0.5999708609
0.5999708583
0.5999708552
0.5999708517
0.599970848
0.5999708439
0.5999708396
0.5999708352
0.5999708309
0.5999708274
0.5999708673
0.5999708663
0.5999708649
0.5999708631
0.5999708607
0.5999708579
0.5999708547
0.5999708511
0.5999708472
0.599970843
0.5999708387
0.5999708342
0.5999708297
0.5999708254
0.599970822
0.5999708663
0.5999708647
0.5999708625
0.5999708598
0.5999708565
0.5999708527
0.5999708487
0.5999708443
0.5999708399
0.5999708353
0.5999708307
0.599970826
0.5999708215
0.5999708172
0.599970814
0.599970865
0.5999708627
0.5999708596
0.5999708559
0.5999708518
0.5999708473
0.5999708426
0.5999708378
0.599970833
0.5999708282
0.5999708235
0.5999708188
0.5999708144
0.5999708102
0.5999708072
0.5999708642
0.5999708615
0.5999708581
0.5999708541
0.5999708497
0.599970845
0.5999708402
0.5999708353
0.5999708305
0.5999708257
0.599970821
0.5999708165
0.5999708121
0.5999708081
0.5999708051
0.599970865
0.5999708628
0.5999708598
0.5999708563
0.5999708523
0.599970848
0.5999708435
0.5999708388
0.5999708342
0.5999708295
0.5999708249
0.5999708204
0.599970816
0.599970812
0.599970809
0.5999708663
0.5999708648
0.5999708627
0.5999708601
0.599970857
0.5999708535
0.5999708497
0.5999708457
0.5999708415
0.5999708372
0.5999708328
0.5999708284
0.5999708241
0.59997082
0.5999708169
0.5999708672
0.5999708663
0.599970865
0.5999708632
0.599970861
0.5999708585
0.5999708555
0.5999708522
0.5999708486
0.5999708448
0.5999708408
0.5999708367
0.5999708325
0.5999708285
0.5999708253
0.5999708677
0.5999708671
0.5999708661
0.5999708649
0.5999708633
0.5999708613
0.5999708589
0.5999708561
0.599970853
0.5999708496
0.599970846
0.5999708421
0.5999708381
0.5999708342
0.5999708311
)
;

boundaryField
{
    top
    {
        type            calculated;
        value           nonuniform List<scalar> 
127
(
0.5999708677
0.599970867
0.5999708661
0.5999708644
0.5999708621
0.5999708607
0.5999708619
0.5999708642
0.5999708661
0.5999708671
0.599970866
0.5999708647
0.5999708621
0.5999708589
0.5999708571
0.5999708588
0.5999708621
0.5999708647
0.5999708661
0.5999708647
0.5999708628
0.5999708592
0.599970855
0.5999708529
0.5999708552
0.5999708594
0.599970863
0.5999708649
0.5999708628
0.5999708603
0.5999708558
0.5999708508
0.5999708485
0.5999708512
0.5999708564
0.5999708608
0.5999708633
0.5999708606
0.5999708574
0.599970852
0.5999708462
0.5999708438
0.5999708469
0.5999708529
0.5999708583
0.5999708613
0.5999708579
0.5999708541
0.5999708478
0.5999708415
0.599970839
0.5999708424
0.5999708491
0.5999708553
0.5999708589
0.5999708547
0.5999708505
0.5999708435
0.5999708367
0.5999708342
0.5999708379
0.5999708451
0.599970852
0.5999708561
0.5999708512
0.5999708465
0.599970839
0.5999708319
0.5999708293
0.5999708332
0.599970841
0.5999708485
0.599970853
0.5999708474
0.5999708423
0.5999708344
0.5999708271
0.5999708246
0.5999708286
0.5999708367
0.5999708447
0.5999708496
0.5999708432
0.5999708379
0.5999708297
0.5999708224
0.59997082
0.5999708241
0.5999708323
0.5999708407
0.599970846
0.5999708389
0.5999708334
0.5999708251
0.5999708178
0.5999708155
0.5999708196
0.599970828
0.5999708365
0.5999708421
0.5999708344
0.5999708289
0.5999708206
0.5999708134
0.5999708112
0.5999708153
0.5999708236
0.5999708323
0.5999708381
0.5999708301
0.5999708245
0.5999708163
0.5999708093
0.5999708072
0.5999708113
0.5999708196
0.5999708283
0.5999708342
0.5999708266
0.5999708211
0.5999708131
0.5999708062
0.5999708042
0.5999708083
0.5999708165
0.5999708252
0.5999708311
)
;
    }
    bottom
    {
        type            calculated;
        value           nonuniform List<scalar> 
134
(
0.5999708672
0.5999708662
0.599970865
0.5999708642
0.599970865
0.5999708663
0.5999708673
0.5999708678
0.599970867
0.5999708662
0.5999708646
0.5999708625
0.5999708613
0.5999708626
0.5999708647
0.5999708663
0.5999708671
0.599970866
0.5999708647
0.5999708622
0.5999708591
0.5999708574
0.5999708593
0.5999708624
0.5999708649
0.5999708662
0.5999708646
0.5999708627
0.5999708592
0.599970855
0.5999708529
0.5999708553
0.5999708595
0.599970863
0.5999708649
0.5999708627
0.5999708602
0.5999708556
0.5999708503
0.5999708479
0.5999708507
0.5999708561
0.5999708606
0.5999708631
0.5999708604
0.5999708572
0.5999708514
0.5999708453
0.5999708425
0.5999708458
0.5999708521
0.5999708578
0.5999708609
0.5999708576
0.5999708536
0.599970847
0.59997084
0.599970837
0.5999708406
0.5999708478
0.5999708545
0.5999708583
0.5999708543
0.5999708497
0.5999708422
0.5999708347
0.5999708316
0.5999708354
0.5999708433
0.5999708508
0.5999708552
0.5999708506
0.5999708455
0.5999708373
0.5999708293
0.5999708262
0.5999708302
0.5999708386
0.5999708468
0.5999708517
0.5999708465
0.599970841
0.5999708323
0.599970824
0.5999708209
0.599970825
0.5999708338
0.5999708426
0.599970848
0.5999708421
0.5999708363
0.5999708272
0.5999708189
0.5999708158
0.59997082
0.5999708289
0.5999708381
0.5999708439
0.5999708375
0.5999708315
0.5999708222
0.5999708138
0.5999708108
0.599970815
0.5999708241
0.5999708336
0.5999708396
0.5999708328
0.5999708266
0.5999708173
0.599970809
0.5999708061
0.5999708103
0.5999708194
0.5999708289
0.5999708352
0.5999708282
0.5999708219
0.5999708127
0.5999708046
0.5999708018
0.599970806
0.5999708149
0.5999708245
0.5999708309
0.5999708244
0.5999708182
0.5999708091
0.5999708012
0.5999707986
0.5999708026
0.5999708115
0.599970821
0.5999708274
)
;
    }
    side-walls
    {
        type            calculated;
        value           nonuniform List<scalar> 
261
(
0.599970867
0.5999708661
0.5999708643
0.5999708621
0.5999708608
0.5999708621
0.5999708644
0.5999708662
0.599970867
0.599970866
0.5999708646
0.5999708619
0.5999708587
0.5999708569
0.5999708588
0.5999708621
0.5999708647
0.599970866
0.5999708646
0.5999708626
0.5999708589
0.5999708545
0.5999708523
0.5999708547
0.5999708591
0.5999708627
0.5999708647
0.5999708627
0.5999708601
0.5999708553
0.5999708498
0.5999708472
0.5999708501
0.5999708555
0.5999708603
0.5999708628
0.5999708604
0.5999708571
0.5999708512
0.5999708448
0.5999708418
0.5999708451
0.5999708515
0.5999708573
0.5999708606
0.5999708576
0.5999708536
0.5999708467
0.5999708395
0.5999708363
0.5999708399
0.5999708472
0.599970854
0.5999708579
0.5999708543
0.5999708496
0.5999708419
0.5999708341
0.5999708308
0.5999708346
0.5999708426
0.5999708502
0.5999708547
0.5999708506
0.5999708454
0.599970837
0.5999708288
0.5999708254
0.5999708294
0.5999708378
0.5999708462
0.5999708512
0.5999708465
0.5999708409
0.599970832
0.5999708235
0.5999708202
0.5999708242
0.599970833
0.5999708419
0.5999708474
0.5999708421
0.5999708362
0.599970827
0.5999708184
0.5999708151
0.5999708192
0.5999708282
0.5999708374
0.5999708432
0.5999708375
0.5999708314
0.599970822
0.5999708134
0.5999708102
0.5999708143
0.5999708233
0.5999708328
0.5999708389
0.5999708328
0.5999708265
0.5999708171
0.5999708086
0.5999708055
0.5999708096
0.5999708186
0.5999708282
0.5999708344
0.5999708282
0.5999708219
0.5999708125
0.5999708042
0.5999708012
0.5999708052
0.5999708141
0.5999708237
0.5999708301
0.5999708244
0.5999708181
0.5999708089
0.5999708008
0.5999707979
0.5999708019
0.5999708107
0.5999708202
0.5999708266
0.5999708678
0.5999708673
0.5999708663
0.599970865
0.5999708642
0.599970865
0.5999708663
0.5999708672
0.5999708677
0.5999708671
0.5999708663
0.5999708647
0.5999708627
0.5999708615
0.5999708628
0.5999708648
0.5999708663
0.5999708671
0.5999708662
0.5999708649
0.5999708625
0.5999708596
0.5999708581
0.5999708598
0.5999708627
0.599970865
0.5999708661
0.5999708649
0.5999708631
0.5999708598
0.5999708559
0.5999708541
0.5999708563
0.5999708601
0.5999708632
0.5999708649
0.5999708631
0.5999708607
0.5999708565
0.5999708518
0.5999708497
0.5999708523
0.599970857
0.599970861
0.5999708633
0.5999708609
0.5999708579
0.5999708527
0.5999708473
0.599970845
0.599970848
0.5999708535
0.5999708585
0.5999708613
0.5999708583
0.5999708547
0.5999708487
0.5999708426
0.5999708402
0.5999708435
0.5999708497
0.5999708555
0.5999708589
0.5999708552
0.5999708511
0.5999708443
0.5999708378
0.5999708353
0.5999708388
0.5999708457
0.5999708522
0.5999708561
0.5999708517
0.5999708472
0.5999708399
0.599970833
0.5999708305
0.5999708342
0.5999708415
0.5999708486
0.599970853
0.599970848
0.599970843
0.5999708353
0.5999708282
0.5999708257
0.5999708295
0.5999708372
0.5999708448
0.5999708496
0.5999708439
0.5999708387
0.5999708307
0.5999708235
0.599970821
0.5999708249
0.5999708328
0.5999708408
0.599970846
0.5999708396
0.5999708342
0.599970826
0.5999708188
0.5999708165
0.5999708204
0.5999708284
0.5999708367
0.5999708421
0.5999708352
0.5999708297
0.5999708215
0.5999708144
0.5999708121
0.599970816
0.5999708241
0.5999708325
0.5999708381
0.5999708309
0.5999708254
0.5999708172
0.5999708102
0.5999708081
0.599970812
0.59997082
0.5999708285
0.5999708342
0.5999708274
0.599970822
0.599970814
0.5999708072
0.5999708051
0.599970809
0.5999708169
0.5999708253
0.5999708311
)
;
    }
    inlet
    {
        type            calculated;
        value           nonuniform 0();
    }
    outlet
    {
        type            calculated;
        value           nonuniform List<scalar> 
81
(
0.5999708244
0.5999708181
0.5999708089
0.5999708008
0.5999707979
0.5999708019
0.5999708107
0.5999708202
0.5999708266
0.5999708182
0.5999708106
0.5999707992
0.5999707892
0.5999707857
0.5999707907
0.5999708016
0.5999708133
0.5999708211
0.5999708091
0.5999707994
0.5999707848
0.5999707718
0.5999707674
0.599970774
0.5999707881
0.5999708031
0.5999708131
0.5999708012
0.5999707896
0.5999707721
0.5999707566
0.5999707513
0.5999707594
0.5999707765
0.5999707944
0.5999708062
0.5999707986
0.5999707864
0.5999707679
0.5999707516
0.5999707461
0.5999707549
0.599970773
0.5999707918
0.5999708042
0.5999708026
0.5999707915
0.5999707747
0.59997076
0.5999707552
0.5999707632
0.5999707797
0.5999707969
0.5999708083
0.5999708115
0.5999708025
0.599970789
0.5999707774
0.5999707736
0.59997078
0.5999707933
0.5999708072
0.5999708165
0.599970821
0.5999708142
0.5999708041
0.5999707954
0.5999707927
0.5999707975
0.5999708075
0.599970818
0.5999708252
0.5999708274
0.599970822
0.599970814
0.5999708072
0.5999708051
0.599970809
0.5999708169
0.5999708253
0.5999708311
)
;
    }
    procBoundary1to0
    {
        type            processor;
        value           nonuniform List<scalar> 
97
(
0.5999708677
0.5999708677
0.5999708673
0.5999708664
0.5999708653
0.5999708647
0.5999708653
0.5999708665
0.5999708674
0.5999708678
0.599970868
0.5999708661
0.5999708661
0.5999708661
0.5999708641
0.5999708612
0.5999708594
0.5999708615
0.5999708645
0.5999708665
0.5999708674
0.5999708675
0.5999708665
0.5999708572
0.5999708572
0.5999708572
0.5999708483
0.5999708421
0.5999708503
0.5999708594
0.5999708645
0.5999708665
0.5999708669
0.5999708649
0.5999708595
0.5999708098
0.5999708098
0.5999708098
0.5999707941
0.5999708246
0.5999708502
0.5999708614
0.5999708653
0.5999708665
0.5999708636
0.5999708541
0.59997083
0.5999706954
0.5999706954
0.5999706954
0.5999707912
0.5999707912
0.5999708413
0.5999708592
0.5999708646
0.5999708669
0.5999708648
0.5999708587
0.5999708449
0.599970827
0.5999708468
0.5999708449
0.5999708449
0.5999708449
0.5999708606
0.5999708651
0.5999708675
0.5999708664
0.5999708637
0.5999708587
0.5999708537
0.599970859
0.5999708639
0.5999708636
0.5999708636
0.5999708636
0.5999708663
0.599970868
0.5999708675
0.5999708664
0.5999708648
0.5999708636
0.5999708649
0.5999708665
0.5999708675
0.5999708672
0.5999708672
0.5999708672
0.5999708682
0.599970868
0.5999708675
0.5999708669
0.5999708665
0.5999708669
0.5999708675
0.599970868
0.5999708682
)
;
    }
}


// ************************************************************************* //
