#  Region type : all 
#       Cells  : 2349
#       Volume : 3.7500000000e-01
#            Time	weightedVolAverage(CO2)	weightedVolAverage(CO)	weightedVolAverage(N2)
                1	0.0000000000e+00	4.0000000000e-01	6.0000000000e-01
                2	1.1218445133e-05	3.9999122866e-01	5.9999755290e-01
                3	2.2438923609e-05	3.9998245573e-01	5.9999510535e-01
                4	3.3005057678e-05	3.9997419441e-01	5.9999280053e-01
                5	4.3119616913e-05	3.9996628386e-01	5.9999059652e-01
                6	5.2945691301e-05	3.9995859943e-01	5.9998845488e-01
                7	6.2579384276e-05	3.9995107114e-01	5.9998634947e-01
                8	7.2067659278e-05	3.9994365156e-01	5.9998428078e-01
                9	8.1455932872e-05	3.9993630171e-01	5.9998224236e-01
               10	9.0766203408e-05	3.9992901650e-01	5.9998021730e-01
               11	1.0001253818e-04	3.9992181106e-01	5.9997817641e-01
               12	1.0914876468e-04	3.9991466778e-01	5.9997618346e-01
               13	1.1824364514e-04	3.9990755682e-01	5.9997419953e-01
               14	1.2730174401e-04	3.9990047462e-01	5.9997222364e-01
               15	1.3632633300e-04	3.9989341861e-01	5.9997025506e-01
               16	1.4531983815e-04	3.9988638690e-01	5.9996829326e-01
               17	1.5428405518e-04	3.9987937809e-01	5.9996633785e-01
               18	1.6322026971e-04	3.9987239117e-01	5.9996438856e-01
               19	1.7212933274e-04	3.9986542548e-01	5.9996244519e-01
               20	1.8101170325e-04	3.9985848066e-01	5.9996050764e-01
               21	1.8986747437e-04	3.9985155663e-01	5.9995857590e-01
               22	1.9869640679e-04	3.9984465358e-01	5.9995665001e-01
               23	2.0749791921e-04	3.9983777197e-01	5.9995473011e-01
               24	2.1627108362e-04	3.9983091253e-01	5.9995281639e-01
               25	2.2501462443e-04	3.9982407624e-01	5.9995090913e-01
               26	2.3372690228e-04	3.9981726440e-01	5.9994900870e-01
               27	2.4240592479e-04	3.9981047855e-01	5.9994711552e-01
               28	2.5104933573e-04	3.9980372055e-01	5.9994523011e-01
               29	2.5965441842e-04	3.9979699251e-01	5.9994335307e-01
               30	2.6821809266e-04	3.9979029685e-01	5.9994148506e-01
               31	2.7673691169e-04	3.9978363626e-01	5.9993962683e-01
               32	2.8520712955e-04	3.9977701366e-01	5.9993777921e-01
               33	2.9362462859e-04	3.9977043228e-01	5.9993594309e-01
               34	3.0198502913e-04	3.9976389554e-01	5.9993411943e-01
               35	3.1028366378e-04	3.9975740709e-01	5.9993230925e-01
               36	3.1851562340e-04	3.9975097077e-01	5.9993051361e-01
               37	3.2667578502e-04	3.9974459058e-01	5.9992873363e-01
               38	3.3475885133e-04	3.9973827067e-01	5.9992697048e-01
               39	3.4275938293e-04	3.9973201528e-01	5.9992522533e-01
               40	3.5067185859e-04	3.9972582874e-01	5.9992349940e-01
               41	3.5849068538e-04	3.9971971542e-01	5.9992179389e-01
               42	3.6621027679e-04	3.9971367968e-01	5.9992011004e-01
               43	3.7382504509e-04	3.9970772590e-01	5.9991844906e-01
               44	3.8132949979e-04	3.9970185836e-01	5.9991681214e-01
               45	3.8871823603e-04	3.9969608130e-01	5.9991520047e-01
               46	3.9598601152e-04	3.9969039880e-01	5.9991361519e-01
               47	4.0312776186e-04	3.9968481484e-01	5.9991205740e-01
               48	4.1013862038e-04	3.9967933321e-01	5.9991052817e-01
               49	4.1701396701e-04	3.9967395753e-01	5.9990902850e-01
               50	4.2374946741e-04	3.9966869119e-01	5.9990755934e-01
               51	4.3034105520e-04	3.9966353736e-01	5.9990612158e-01
               52	4.3678499604e-04	3.9965849897e-01	5.9990471603e-01
               53	4.4307787744e-04	3.9965357869e-01	5.9990334343e-01
               54	4.4921663007e-04	3.9964877891e-01	5.9990200446e-01
               55	4.5519854516e-04	3.9964410175e-01	5.9990069971e-01
               56	4.6102126260e-04	3.9963954906e-01	5.9989942968e-01
               57	4.6668279004e-04	3.9963512239e-01	5.9989819482e-01
               58	4.7218150989e-04	3.9963082302e-01	5.9989699547e-01
               59	4.7751616216e-04	3.9962665192e-01	5.9989583192e-01
               60	4.8268584689e-04	3.9962260980e-01	5.9989470436e-01
               61	4.8769001572e-04	3.9961869709e-01	5.9989361290e-01
               62	4.9252856732e-04	3.9961491386e-01	5.9989255757e-01
               63	4.9720159489e-04	3.9961126006e-01	5.9989153835e-01
               64	5.0170951892e-04	3.9960773534e-01	5.9989055514e-01
               65	5.0605310930e-04	3.9960433910e-01	5.9988960779e-01
               66	5.1023343154e-04	3.9960107052e-01	5.9988869605e-01
               67	5.1425184322e-04	3.9959792853e-01	5.9988781963e-01
               68	5.1810995975e-04	3.9959491187e-01	5.9988697817e-01
               69	5.2180964675e-04	3.9959201908e-01	5.9988617128e-01
               70	5.2535300758e-04	3.9958924851e-01	5.9988539848e-01
               71	5.2874234507e-04	3.9958659837e-01	5.9988465928e-01
               72	5.3198017348e-04	3.9958406669e-01	5.9988395313e-01
               73	5.3506917297e-04	3.9958165138e-01	5.9988327945e-01
               74	5.3801219358e-04	3.9957935020e-01	5.9988263761e-01
               75	5.4081222402e-04	3.9957716082e-01	5.9988202696e-01
               76	5.4347238668e-04	3.9957508080e-01	5.9988144681e-01
               77	5.4599590457e-04	3.9957310762e-01	5.9988089648e-01
               78	5.4838610483e-04	3.9957123868e-01	5.9988037522e-01
               79	5.5064639809e-04	3.9956947131e-01	5.9987988229e-01
               80	5.5278025075e-04	3.9956780280e-01	5.9987941695e-01
               81	5.5479118831e-04	3.9956623039e-01	5.9987897842e-01
               82	5.5668276992e-04	3.9956475131e-01	5.9987856592e-01
               83	5.5845857368e-04	3.9956336275e-01	5.9987817867e-01
               84	5.6012220815e-04	3.9956206190e-01	5.9987781589e-01
               85	5.6167727489e-04	3.9956084594e-01	5.9987747679e-01
               86	5.6312737191e-04	3.9955971204e-01	5.9987716058e-01
               87	5.6447608222e-04	3.9955865743e-01	5.9987686649e-01
               88	5.6572695929e-04	3.9955767930e-01	5.9987659374e-01
               89	5.6688352915e-04	3.9955677492e-01	5.9987634155e-01
               90	5.6794927915e-04	3.9955594155e-01	5.9987610917e-01
               91	5.6892764091e-04	3.9955517650e-01	5.9987589586e-01
               92	5.6982199545e-04	3.9955447714e-01	5.9987570086e-01
               93	5.7063566695e-04	3.9955384087e-01	5.9987552346e-01
               94	5.7137191883e-04	3.9955326513e-01	5.9987536295e-01
               95	5.7203394462e-04	3.9955274743e-01	5.9987521862e-01
               96	5.7262487308e-04	3.9955228532e-01	5.9987508980e-01
               97	5.7314775856e-04	3.9955187642e-01	5.9987497583e-01
               98	5.7360557307e-04	3.9955151839e-01	5.9987487604e-01
               99	5.7400121436e-04	3.9955120898e-01	5.9987478981e-01
              100	5.7433749654e-04	3.9955094598e-01	5.9987471653e-01
              101	5.7461715999e-04	3.9955072725e-01	5.9987465559e-01
              102	5.7484286078e-04	3.9955055071e-01	5.9987460643e-01
              103	5.7501716967e-04	3.9955041436e-01	5.9987456847e-01
              104	5.7514256929e-04	3.9955031625e-01	5.9987454118e-01
              105	5.7522146903e-04	3.9955025450e-01	5.9987452403e-01
              106	5.7525620410e-04	3.9955022729e-01	5.9987451651e-01
              107	5.7524901203e-04	3.9955023286e-01	5.9987451813e-01
              108	5.7520205006e-04	3.9955026952e-01	5.9987452843e-01
              109	5.7511740009e-04	3.9955033566e-01	5.9987454694e-01
              110	5.7499706401e-04	3.9955042969e-01	5.9987457324e-01
              111	5.7484296818e-04	3.9955055013e-01	5.9987460690e-01
              112	5.7465696567e-04	3.9955069551e-01	5.9987464752e-01
              113	5.7444083024e-04	3.9955086446e-01	5.9987469471e-01
              114	5.7419626352e-04	3.9955105564e-01	5.9987474810e-01
              115	5.7392489159e-04	3.9955126777e-01	5.9987480733e-01
              116	5.7362827335e-04	3.9955149965e-01	5.9987487207e-01
              117	5.7330789789e-04	3.9955175011e-01	5.9987494199e-01
              118	5.7296520358e-04	3.9955201801e-01	5.9987501678e-01
              119	5.7260155167e-04	3.9955230231e-01	5.9987509614e-01
              120	5.7221823601e-04	3.9955260198e-01	5.9987517978e-01
              121	5.7181649848e-04	3.9955291606e-01	5.9987526745e-01
              122	5.7139752613e-04	3.9955324361e-01	5.9987535887e-01
              123	5.7096244344e-04	3.9955358376e-01	5.9987545380e-01
              124	5.7051232596e-04	3.9955393566e-01	5.9987555201e-01
              125	5.7004819276e-04	3.9955429853e-01	5.9987565328e-01
              126	5.6957101712e-04	3.9955467159e-01	5.9987575739e-01
              127	5.6908171936e-04	3.9955505414e-01	5.9987586414e-01
              128	5.6858116963e-04	3.9955544548e-01	5.9987597335e-01
              129	5.6807020498e-04	3.9955584496e-01	5.9987608483e-01
              130	5.6754961800e-04	3.9955625198e-01	5.9987619841e-01
              131	5.6702014960e-04	3.9955666593e-01	5.9987631392e-01
              132	5.6648250432e-04	3.9955708628e-01	5.9987643122e-01
              133	5.6593735775e-04	3.9955751250e-01	5.9987655015e-01
              134	5.6538534470e-04	3.9955794408e-01	5.9987667057e-01
              135	5.6482706233e-04	3.9955838057e-01	5.9987679237e-01
              136	5.6426307797e-04	3.9955882152e-01	5.9987691541e-01
              137	5.6369392713e-04	3.9955926650e-01	5.9987703957e-01
              138	5.6312011375e-04	3.9955971514e-01	5.9987716475e-01
              139	5.6254211904e-04	3.9956016704e-01	5.9987729084e-01
              140	5.6196038586e-04	3.9956062187e-01	5.9987741775e-01
              141	5.6137533665e-04	3.9956107929e-01	5.9987754538e-01
              142	5.6078737158e-04	3.9956153899e-01	5.9987767364e-01
              143	5.6019686770e-04	3.9956200067e-01	5.9987780246e-01
              144	5.5960417338e-04	3.9956246407e-01	5.9987793176e-01
              145	5.5900961882e-04	3.9956292892e-01	5.9987806146e-01
              146	5.5841352079e-04	3.9956339499e-01	5.9987819149e-01
              147	5.5781616830e-04	3.9956386203e-01	5.9987832180e-01
              148	5.5721783295e-04	3.9956432984e-01	5.9987845233e-01
              149	5.5661877623e-04	3.9956479822e-01	5.9987858301e-01
              150	5.5601923652e-04	3.9956526697e-01	5.9987871379e-01
              151	5.5541943582e-04	3.9956573593e-01	5.9987884464e-01
              152	5.5481958223e-04	3.9956620493e-01	5.9987897549e-01
              153	5.5421987580e-04	3.9956667381e-01	5.9987910631e-01
              154	5.5362049839e-04	3.9956714244e-01	5.9987923706e-01
              155	5.5302161658e-04	3.9956761068e-01	5.9987936770e-01
              156	5.5242339512e-04	3.9956807841e-01	5.9987949820e-01
              157	5.5182597722e-04	3.9956854550e-01	5.9987962852e-01
              158	5.5122949846e-04	3.9956901187e-01	5.9987975863e-01
              159	5.5063408823e-04	3.9956947740e-01	5.9987988852e-01
              160	5.5003986696e-04	3.9956994199e-01	5.9988001814e-01
              161	5.4944694201e-04	3.9957040558e-01	5.9988014748e-01
              162	5.4885540861e-04	3.9957086808e-01	5.9988027652e-01
              163	5.4826536868e-04	3.9957132941e-01	5.9988040523e-01
              164	5.4767690265e-04	3.9957178951e-01	5.9988053359e-01
              165	5.4709008649e-04	3.9957224832e-01	5.9988066160e-01
              166	5.4650500171e-04	3.9957270577e-01	5.9988078923e-01
              167	5.4592171193e-04	3.9957316182e-01	5.9988091646e-01
              168	5.4534027233e-04	3.9957361643e-01	5.9988104330e-01
              169	5.4476074033e-04	3.9957406955e-01	5.9988116971e-01
              170	5.4418316715e-04	3.9957452113e-01	5.9988129570e-01
              171	5.4360759816e-04	3.9957497115e-01	5.9988142126e-01
              172	5.4303407237e-04	3.9957541957e-01	5.9988154636e-01
              173	5.4246262761e-04	3.9957586636e-01	5.9988167101e-01
              174	5.4189329423e-04	3.9957631150e-01	5.9988179521e-01
              175	5.4132610020e-04	3.9957675497e-01	5.9988191893e-01
              176	5.4076107581e-04	3.9957719674e-01	5.9988204218e-01
              177	5.4019824569e-04	3.9957763680e-01	5.9988216496e-01
              178	5.3963762362e-04	3.9957807513e-01	5.9988228725e-01
              179	5.3907922612e-04	3.9957851172e-01	5.9988240905e-01
              180	5.3852306714e-04	3.9957894656e-01	5.9988253037e-01
              181	5.3796915848e-04	3.9957937964e-01	5.9988265120e-01
              182	5.3741751036e-04	3.9957981096e-01	5.9988277153e-01
              183	5.3686813375e-04	3.9958024050e-01	5.9988289137e-01
              184	5.3632103369e-04	3.9958066826e-01	5.9988301071e-01
              185	5.3577620704e-04	3.9958109424e-01	5.9988312955e-01
              186	5.3523365714e-04	3.9958151844e-01	5.9988324790e-01
              187	5.3469338410e-04	3.9958194086e-01	5.9988336576e-01
              188	5.3415539310e-04	3.9958236150e-01	5.9988348311e-01
              189	5.3361967596e-04	3.9958278036e-01	5.9988359997e-01
              190	5.3308622846e-04	3.9958319744e-01	5.9988371633e-01
              191	5.3255504931e-04	3.9958361275e-01	5.9988383220e-01
              192	5.3202613126e-04	3.9958402630e-01	5.9988394757e-01
              193	5.3149946135e-04	3.9958443808e-01	5.9988406246e-01
              194	5.3097503958e-04	3.9958484811e-01	5.9988417685e-01
              195	5.3045285141e-04	3.9958525639e-01	5.9988429076e-01
              196	5.2993288511e-04	3.9958566294e-01	5.9988440418e-01
              197	5.2941513919e-04	3.9958606774e-01	5.9988451712e-01
              198	5.2889959800e-04	3.9958647083e-01	5.9988462957e-01
              199	5.2838624914e-04	3.9958687220e-01	5.9988474155e-01
              200	5.2787508135e-04	3.9958727186e-01	5.9988485305e-01
              201	5.2736607956e-04	3.9958766984e-01	5.9988496408e-01
              202	5.2685923457e-04	3.9958806612e-01	5.9988507464e-01
              203	5.2635453380e-04	3.9958846073e-01	5.9988518474e-01
              204	5.2585196415e-04	3.9958885367e-01	5.9988529436e-01
              205	5.2535151124e-04	3.9958924496e-01	5.9988540353e-01
              206	5.2485315136e-04	3.9958963461e-01	5.9988551224e-01
              207	5.2435688162e-04	3.9959002263e-01	5.9988562049e-01
              208	5.2386268406e-04	3.9959040903e-01	5.9988572829e-01
              209	5.2337054511e-04	3.9959079381e-01	5.9988583564e-01
              210	5.2288044938e-04	3.9959117700e-01	5.9988594255e-01
              211	5.2239237818e-04	3.9959155861e-01	5.9988604901e-01
              212	5.2190632074e-04	3.9959193864e-01	5.9988615504e-01
              213	5.2142226563e-04	3.9959231711e-01	5.9988626062e-01
              214	5.2094018448e-04	3.9959269403e-01	5.9988636578e-01
              215	5.2046006821e-04	3.9959306942e-01	5.9988647051e-01
              216	5.1998190747e-04	3.9959344328e-01	5.9988657481e-01
              217	5.1950567805e-04	3.9959381563e-01	5.9988667869e-01
              218	5.1903136558e-04	3.9959418648e-01	5.9988678216e-01
              219	5.1855896287e-04	3.9959455583e-01	5.9988688520e-01
              220	5.1808844694e-04	3.9959492371e-01	5.9988698784e-01
              221	5.1761980701e-04	3.9959529013e-01	5.9988709006e-01
              222	5.1715302478e-04	3.9959565509e-01	5.9988719188e-01
              223	5.1668808768e-04	3.9959601861e-01	5.9988729330e-01
              224	5.1622497705e-04	3.9959638070e-01	5.9988739432e-01
              225	5.1576367633e-04	3.9959674138e-01	5.9988749495e-01
              226	5.1530417370e-04	3.9959710065e-01	5.9988759518e-01
              227	5.1484645653e-04	3.9959745852e-01	5.9988769502e-01
              228	5.1439050675e-04	3.9959781501e-01	5.9988779448e-01
              229	5.1393630821e-04	3.9959817014e-01	5.9988789356e-01
              230	5.1348384829e-04	3.9959852390e-01	5.9988799225e-01
              231	5.1303311226e-04	3.9959887632e-01	5.9988809057e-01
              232	5.1258408704e-04	3.9959922739e-01	5.9988818852e-01
              233	5.1213675348e-04	3.9959957715e-01	5.9988828610e-01
              234	5.1169110626e-04	3.9959992559e-01	5.9988838331e-01
              235	5.1124712223e-04	3.9960027272e-01	5.9988848015e-01
              236	5.1080478843e-04	3.9960061857e-01	5.9988857664e-01
              237	5.1036409512e-04	3.9960096313e-01	5.9988867277e-01
              238	5.0992502615e-04	3.9960130643e-01	5.9988876855e-01
              239	5.0948757203e-04	3.9960164846e-01	5.9988886397e-01
              240	5.0905172180e-04	3.9960198924e-01	5.9988895904e-01
              241	5.0861745252e-04	3.9960232878e-01	5.9988905377e-01
              242	5.0818475258e-04	3.9960266709e-01	5.9988914816e-01
              243	5.0775361419e-04	3.9960300419e-01	5.9988924220e-01
              244	5.0732402107e-04	3.9960334007e-01	5.9988933591e-01
              245	5.0689596355e-04	3.9960367475e-01	5.9988942928e-01
              246	5.0646942315e-04	3.9960400825e-01	5.9988952232e-01
              247	5.0604439406e-04	3.9960434057e-01	5.9988961504e-01
              248	5.0562085960e-04	3.9960467172e-01	5.9988970742e-01
              249	5.0519881016e-04	3.9960500170e-01	5.9988979949e-01
              250	5.0477823628e-04	3.9960533054e-01	5.9988989123e-01
              251	5.0435911905e-04	3.9960565823e-01	5.9988998265e-01
              252	5.0394144806e-04	3.9960598479e-01	5.9989007376e-01
              253	5.0352521401e-04	3.9960631023e-01	5.9989016455e-01
              254	5.0311040146e-04	3.9960663456e-01	5.9989025504e-01
              255	5.0269699828e-04	3.9960695779e-01	5.9989034521e-01
              256	5.0228499667e-04	3.9960727992e-01	5.9989043508e-01
              257	5.0187438741e-04	3.9960760096e-01	5.9989052465e-01
              258	5.0146515884e-04	3.9960792093e-01	5.9989061392e-01
              259	5.0105729695e-04	3.9960823982e-01	5.9989070288e-01
              260	5.0065079445e-04	3.9960855765e-01	5.9989079155e-01
              261	5.0024564080e-04	3.9960887443e-01	5.9989087993e-01
              262	4.9984182020e-04	3.9960919016e-01	5.9989096802e-01
              263	4.9943932640e-04	3.9960950486e-01	5.9989105582e-01
              264	4.9903814796e-04	3.9960981853e-01	5.9989114333e-01
              265	4.9863826978e-04	3.9961013118e-01	5.9989123055e-01
              266	4.9823968922e-04	3.9961044282e-01	5.9989131749e-01
              267	4.9784239405e-04	3.9961075345e-01	5.9989140416e-01
              268	4.9744637281e-04	3.9961106308e-01	5.9989149054e-01
              269	4.9705161554e-04	3.9961137173e-01	5.9989157665e-01
              270	4.9665811324e-04	3.9961167940e-01	5.9989166249e-01
              271	4.9626585686e-04	3.9961198609e-01	5.9989174805e-01
              272	4.9587483725e-04	3.9961229182e-01	5.9989183335e-01
              273	4.9548504509e-04	3.9961259658e-01	5.9989191837e-01
              274	4.9509647115e-04	3.9961290040e-01	5.9989200313e-01
              275	4.9470910723e-04	3.9961320326e-01	5.9989208763e-01
              276	4.9432294419e-04	3.9961350519e-01	5.9989217186e-01
              277	4.9393797232e-04	3.9961380619e-01	5.9989225584e-01
              278	4.9355418386e-04	3.9961410626e-01	5.9989233955e-01
              279	4.9317156779e-04	3.9961440542e-01	5.9989242302e-01
              280	4.9279011149e-04	3.9961470367e-01	5.9989250622e-01
              281	4.9240981116e-04	3.9961500101e-01	5.9989258918e-01
              282	4.9203065826e-04	3.9961529746e-01	5.9989267188e-01
              283	4.9165264678e-04	3.9961559301e-01	5.9989275434e-01
              284	4.9127576905e-04	3.9961588768e-01	5.9989283655e-01
              285	4.9090001417e-04	3.9961618147e-01	5.9989291851e-01
              286	4.9052537355e-04	3.9961647439e-01	5.9989300024e-01
              287	4.9015183796e-04	3.9961676645e-01	5.9989308172e-01
              288	4.8977940464e-04	3.9961705764e-01	5.9989316296e-01
              289	4.8940806322e-04	3.9961734798e-01	5.9989324396e-01
              290	4.8903780068e-04	3.9961763748e-01	5.9989332472e-01
              291	4.8866861189e-04	3.9961792613e-01	5.9989340526e-01
              292	4.8830049211e-04	3.9961821395e-01	5.9989348555e-01
              293	4.8793343886e-04	3.9961850094e-01	5.9989356562e-01
              294	4.8756743551e-04	3.9961878711e-01	5.9989364546e-01
              295	4.8720248155e-04	3.9961907245e-01	5.9989372507e-01
              296	4.8683856593e-04	3.9961935699e-01	5.9989380445e-01
              297	4.8647568475e-04	3.9961964071e-01	5.9989388360e-01
              298	4.8611382554e-04	3.9961992364e-01	5.9989396254e-01
              299	4.8575298373e-04	3.9962020577e-01	5.9989404125e-01
              300	4.8539314891e-04	3.9962048711e-01	5.9989411974e-01
              301	4.8503432363e-04	3.9962076767e-01	5.9989419801e-01
              302	4.8467649399e-04	3.9962104744e-01	5.9989427606e-01
              303	4.8431966013e-04	3.9962132644e-01	5.9989435390e-01
              304	4.8396380496e-04	3.9962160467e-01	5.9989443153e-01
              305	4.8360893071e-04	3.9962188213e-01	5.9989450893e-01
              306	4.8325502590e-04	3.9962215884e-01	5.9989458613e-01
              307	4.8290208451e-04	3.9962243479e-01	5.9989466312e-01
              308	4.8255010183e-04	3.9962271000e-01	5.9989473990e-01
              309	4.8219907319e-04	3.9962298446e-01	5.9989481647e-01
              310	4.8184898875e-04	3.9962325818e-01	5.9989489284e-01
              311	4.8149984231e-04	3.9962353116e-01	5.9989496900e-01
              312	4.8115163075e-04	3.9962380342e-01	5.9989504495e-01
              313	4.8080434647e-04	3.9962407495e-01	5.9989512071e-01
              314	4.8045798448e-04	3.9962434576e-01	5.9989519626e-01
              315	4.8011253379e-04	3.9962461585e-01	5.9989527161e-01
              316	4.7976799245e-04	3.9962488524e-01	5.9989534677e-01
              317	4.7942435852e-04	3.9962515392e-01	5.9989542173e-01
              318	4.7908162326e-04	3.9962542189e-01	5.9989549649e-01
              319	4.7873978283e-04	3.9962568916e-01	5.9989557105e-01
              320	4.7839883187e-04	3.9962595574e-01	5.9989564543e-01
              321	4.7805875471e-04	3.9962622164e-01	5.9989571961e-01
              322	4.7771955207e-04	3.9962648685e-01	5.9989579360e-01
              323	4.7738122217e-04	3.9962675138e-01	5.9989586740e-01
              324	4.7704375920e-04	3.9962701523e-01	5.9989594101e-01
              325	4.7670715569e-04	3.9962727841e-01	5.9989601443e-01
              326	4.7637140896e-04	3.9962754092e-01	5.9989608767e-01
              327	4.7603650949e-04	3.9962780277e-01	5.9989616072e-01
              328	4.7570245147e-04	3.9962806396e-01	5.9989623359e-01
              329	4.7536923365e-04	3.9962832449e-01	5.9989630628e-01
              330	4.7503684798e-04	3.9962858437e-01	5.9989637878e-01
              331	4.7470529540e-04	3.9962884360e-01	5.9989645110e-01
              332	4.7437456546e-04	3.9962910219e-01	5.9989652325e-01
              333	4.7404465184e-04	3.9962936014e-01	5.9989659521e-01
              334	4.7371555265e-04	3.9962961745e-01	5.9989666700e-01
              335	4.7338726076e-04	3.9962987413e-01	5.9989673861e-01
              336	4.7305977400e-04	3.9963013018e-01	5.9989681005e-01
              337	4.7273308961e-04	3.9963038560e-01	5.9989688131e-01
              338	4.7240719907e-04	3.9963064041e-01	5.9989695239e-01
              339	4.7208209711e-04	3.9963089459e-01	5.9989702331e-01
              340	4.7175778426e-04	3.9963114816e-01	5.9989709405e-01
              341	4.7143425032e-04	3.9963140112e-01	5.9989716463e-01
              342	4.7111149453e-04	3.9963165348e-01	5.9989723503e-01
              343	4.7078950895e-04	3.9963190523e-01	5.9989730526e-01
              344	4.7046829159e-04	3.9963215638e-01	5.9989737533e-01
              345	4.7014783525e-04	3.9963240693e-01	5.9989744523e-01
              346	4.6982814034e-04	3.9963265689e-01	5.9989751497e-01
              347	4.6950920125e-04	3.9963290626e-01	5.9989758454e-01
              348	4.6919101150e-04	3.9963315504e-01	5.9989765395e-01
              349	4.6887356976e-04	3.9963340324e-01	5.9989772319e-01
              350	4.6855686649e-04	3.9963365086e-01	5.9989779228e-01
              351	4.6824090231e-04	3.9963389790e-01	5.9989786120e-01
              352	4.6792566987e-04	3.9963414437e-01	5.9989792996e-01
              353	4.6761116714e-04	3.9963439027e-01	5.9989799856e-01
              354	4.6729739007e-04	3.9963463560e-01	5.9989806701e-01
              355	4.6698433825e-04	3.9963488037e-01	5.9989813529e-01
              356	4.6667199957e-04	3.9963512457e-01	5.9989820343e-01
              357	4.6636037606e-04	3.9963536822e-01	5.9989827140e-01
              358	4.6604946297e-04	3.9963561132e-01	5.9989833922e-01
              359	4.6573925547e-04	3.9963585386e-01	5.9989840689e-01
              360	4.6542975036e-04	3.9963609585e-01	5.9989847440e-01
              361	4.6512094002e-04	3.9963633730e-01	5.9989854176e-01
              362	4.6481282479e-04	3.9963657820e-01	5.9989860897e-01
              363	4.6450540109e-04	3.9963681857e-01	5.9989867603e-01
              364	4.6419866277e-04	3.9963705840e-01	5.9989874294e-01
              365	4.6389261180e-04	3.9963729769e-01	5.9989880970e-01
              366	4.6358723837e-04	3.9963753645e-01	5.9989887631e-01
              367	4.6328254239e-04	3.9963777468e-01	5.9989894278e-01
              368	4.6297852000e-04	3.9963801239e-01	5.9989900909e-01
              369	4.6267516491e-04	3.9963824957e-01	5.9989907526e-01
              370	4.6237247775e-04	3.9963848623e-01	5.9989914129e-01
              371	4.6207044881e-04	3.9963872238e-01	5.9989920717e-01
              372	4.6176908192e-04	3.9963895801e-01	5.9989927291e-01
              373	4.6146836825e-04	3.9963919313e-01	5.9989933851e-01
              374	4.6116830700e-04	3.9963942773e-01	5.9989940396e-01
              375	4.6086889559e-04	3.9963966183e-01	5.9989946927e-01
              376	4.6057012804e-04	3.9963989543e-01	5.9989953444e-01
              377	4.6027200201e-04	3.9964012853e-01	5.9989959947e-01
              378	4.5997451497e-04	3.9964036112e-01	5.9989966436e-01
              379	4.5967766203e-04	3.9964059322e-01	5.9989972912e-01
              380	4.5938144148e-04	3.9964082483e-01	5.9989979373e-01
              381	4.5908584771e-04	3.9964105594e-01	5.9989985821e-01
              382	4.5879087852e-04	3.9964128657e-01	5.9989992255e-01
              383	4.5849653238e-04	3.9964151671e-01	5.9989998676e-01
              384	4.5820280669e-04	3.9964174636e-01	5.9990005083e-01
              385	4.5790969960e-04	3.9964197553e-01	5.9990011477e-01
              386	4.5761720376e-04	3.9964220423e-01	5.9990017857e-01
              387	4.5732531744e-04	3.9964243244e-01	5.9990024224e-01
              388	4.5703403876e-04	3.9964266019e-01	5.9990030578e-01
              389	4.5674336519e-04	3.9964288745e-01	5.9990036918e-01
              390	4.5645329351e-04	3.9964311425e-01	5.9990043245e-01
              391	4.5616382225e-04	3.9964334058e-01	5.9990049560e-01
              392	4.5587494436e-04	3.9964356644e-01	5.9990055861e-01
              393	4.5558665985e-04	3.9964379184e-01	5.9990062150e-01
              394	4.5529896651e-04	3.9964401678e-01	5.9990068425e-01
              395	4.5501186114e-04	3.9964424126e-01	5.9990074688e-01
              396	4.5472533312e-04	3.9964446529e-01	5.9990080938e-01
              397	4.5443938469e-04	3.9964468886e-01	5.9990087175e-01
              398	4.5415401861e-04	3.9964491198e-01	5.9990093400e-01
              399	4.5386922870e-04	3.9964513465e-01	5.9990099612e-01
              400	4.5358501001e-04	3.9964535687e-01	5.9990105812e-01
              401	4.5330136240e-04	3.9964557864e-01	5.9990111999e-01
              402	4.5301828251e-04	3.9964579998e-01	5.9990118174e-01
              403	4.5273576942e-04	3.9964602086e-01	5.9990124337e-01
              404	4.5245381581e-04	3.9964624131e-01	5.9990130487e-01
              405	4.5217242150e-04	3.9964646133e-01	5.9990136625e-01
              406	4.5189158211e-04	3.9964668091e-01	5.9990142751e-01
              407	4.5161130241e-04	3.9964690005e-01	5.9990148865e-01
              408	4.5133157509e-04	3.9964711876e-01	5.9990154967e-01
              409	4.5105239210e-04	3.9964733704e-01	5.9990161057e-01
              410	4.5077375718e-04	3.9964755490e-01	5.9990167134e-01
              411	4.5049566537e-04	3.9964777233e-01	5.9990173201e-01
              412	4.5021811582e-04	3.9964798934e-01	5.9990179255e-01
              413	4.4994110473e-04	3.9964820592e-01	5.9990185297e-01
              414	4.4966463005e-04	3.9964842209e-01	5.9990191328e-01
              415	4.4938869099e-04	3.9964863784e-01	5.9990197347e-01
              416	4.4911328395e-04	3.9964885317e-01	5.9990203355e-01
              417	4.4883840591e-04	3.9964906809e-01	5.9990209351e-01
              418	4.4856405981e-04	3.9964928259e-01	5.9990215335e-01
              419	4.4829023458e-04	3.9964949668e-01	5.9990221308e-01
              420	4.4801693376e-04	3.9964971037e-01	5.9990227270e-01
              421	4.4774415377e-04	3.9964992365e-01	5.9990233220e-01
              422	4.4747188896e-04	3.9965013652e-01	5.9990239159e-01
              423	4.4720014293e-04	3.9965034899e-01	5.9990245087e-01
              424	4.4692890559e-04	3.9965056106e-01	5.9990251003e-01
              425	4.4665818017e-04	3.9965077273e-01	5.9990256909e-01
              426	4.4638796788e-04	3.9965098401e-01	5.9990262803e-01
              427	4.4611826235e-04	3.9965119488e-01	5.9990268686e-01
              428	4.4584905729e-04	3.9965140536e-01	5.9990274558e-01
              429	4.4558035786e-04	3.9965161545e-01	5.9990280419e-01
              430	4.4531215455e-04	3.9965182515e-01	5.9990286270e-01
              431	4.4504444934e-04	3.9965203446e-01	5.9990292109e-01
              432	4.4477723972e-04	3.9965224338e-01	5.9990297938e-01