/*--------------------------------*- C++ -*----------------------------------*\
| =========                 |                                                 |
| \\      /  F ield         | OpenFOAM: The Open Source CFD Toolbox           |
|  \\    /   O peration     | Version:  4.x                                   |
|   \\  /    A nd           | Web:      www.OpenFOAM.org                      |
|    \\/     M anipulation  |                                                 |
\*---------------------------------------------------------------------------*/
FoamFile
{
    version     2.0;
    format      ascii;
    class       volScalarField;
    location    "4000";
    object      CO;
}
// * * * * * * * * * * * * * * * * * * * * * * * * * * * * * * * * * * * * * //

dimensions      [0 0 0 0 0 0 0];

internalField   nonuniform List<scalar> 
1174
(
0.3719595583
0.3719563224
0.3719517487
0.3719457782
0.3719384719
0.3719299903
0.3719205578
0.3719104312
0.3718998711
0.371889123
0.3718784137
0.3718679858
0.3718582669
0.3718506246
0.3719565128
0.3719513165
0.3719443901
0.3719358929
0.3719261161
0.371915414
0.3719041471
0.371892644
0.3718811819
0.371869982
0.3718592196
0.3718490638
0.3718398392
0.3718327138
0.3719497775
0.3719405744
0.3719291781
0.37191623
0.3719024237
0.3718883848
0.3718746096
0.3718614516
0.3718491362
0.3718377861
0.3718274543
0.3718181736
0.371810092
0.3718040366
0.3719398935
0.3719255758
0.3719091265
0.3718917477
0.3718744436
0.3718579358
0.3718426772
0.3718289019
0.3718166849
0.3718059956
0.3717967438
0.3717888253
0.3717822291
0.3717774508
0.371932823
0.3719156921
0.3718969922
0.3718780408
0.3718597926
0.3718428581
0.3718275704
0.37181406
0.3718023176
0.371792247
0.3717837068
0.3717765496
0.3717707086
0.3717665476
0.3719398933
0.3719255761
0.3719091268
0.3718917483
0.3718744441
0.3718579366
0.371842678
0.3718289032
0.3718166858
0.3718059969
0.3717967449
0.3717888268
0.3717822305
0.371777452
0.3719497778
0.3719405751
0.371929179
0.3719162303
0.371902424
0.3718883855
0.3718746107
0.3718614528
0.3718491376
0.3718377877
0.3718274564
0.3718181756
0.3718100943
0.3718040391
0.3719565132
0.3719513165
0.3719443908
0.3719358936
0.3719261168
0.3719154148
0.3719041483
0.3718926452
0.3718811833
0.3718699839
0.3718592217
0.3718490659
0.3718398414
0.3718327166
0.3719595587
0.3719563229
0.371951749
0.3719457782
0.3719384724
0.3719299907
0.3719205585
0.371910432
0.3718998721
0.3718891241
0.3718784155
0.3718679877
0.3718582692
0.3718506275
0.3719600178
0.3719565127
0.3719513161
0.3719443903
0.3719358931
0.3719261164
0.3719154143
0.3719041472
0.3718926437
0.3718811816
0.3718699823
0.3718592198
0.371849064
0.3718398392
0.371832714
0.3719496349
0.3719404906
0.3719293315
0.371916827
0.3719036504
0.3718903705
0.3718774108
0.3718650542
0.3718534695
0.3718427398
0.3718328953
0.3718239634
0.3718161017
0.3718101584
0.3719323056
0.3719145023
0.3718951365
0.3718758478
0.3718577614
0.3718414935
0.371827269
0.3718150613
0.3718047039
0.3717959721
0.3717886301
0.3717824759
0.3717774153
0.3717737719
0.3719014559
0.3718718043
0.3718435865
0.3718189191
0.3717985451
0.3717823733
0.3717699064
0.3717605112
0.3717535653
0.3717485211
0.3717449266
0.3717424206
0.3717407322
0.3717397175
0.3718722941
0.371836582
0.3718063028
0.3717822612
0.3717639896
0.3717505676
0.3717410124
0.3717344411
0.3717301192
0.3717274635
0.3717260185
0.3717254306
0.3717254086
0.3717256434
0.371901457
0.3718718053
0.3718435879
0.3718189205
0.3717985466
0.3717823748
0.3717699079
0.3717605129
0.3717535672
0.3717485234
0.3717449286
0.3717424228
0.3717407339
0.3717397192
0.3719323065
0.3719145032
0.3718951376
0.3718758488
0.3718577631
0.3718414952
0.3718272709
0.3718150637
0.3718047068
0.3717959747
0.3717886328
0.3717824792
0.3717774187
0.3717737754
0.3719496353
0.3719404913
0.3719293321
0.3719168279
0.3719036519
0.3718903719
0.3718774122
0.3718650561
0.3718534718
0.3718427424
0.3718328982
0.3718239666
0.371816105
0.3718101618
0.3719565133
0.3719513167
0.3719443907
0.371935894
0.3719261173
0.3719154154
0.3719041484
0.3718926456
0.3718811838
0.3718699845
0.3718592224
0.3718490669
0.3718398426
0.3718327176
0.3719563883
0.3719497777
0.3719405746
0.3719291786
0.3719162301
0.3719024239
0.3718883851
0.3718746098
0.3718614517
0.3718491363
0.3718377863
0.371827455
0.3718181738
0.3718100922
0.3718040367
0.3719466689
0.3719323062
0.3719145028
0.3718951373
0.3718758479
0.3718577617
0.3718414937
0.3718272692
0.3718150617
0.3718047047
0.3717959723
0.3717886305
0.3717824765
0.3717774154
0.3717737726
0.3718810296
0.3718433899
0.3718092742
0.3717812735
0.3717599317
0.3717446445
0.3717343368
0.3717278607
0.371724192
0.3717224966
0.3717221311
0.3717226129
0.3717235539
0.3717245108
0.3717667859
0.3717030858
0.3716590802
0.3716330356
0.3716207326
0.3716179036
0.3716210972
0.3716278091
0.3716363383
0.371645583
0.3716548543
0.3716637093
0.3716717278
0.3716778745
0.3716168749
0.3715533606
0.3715259766
0.3715210264
0.3715287028
0.3715428192
0.3715597027
0.3715772598
0.3715943455
0.3716103731
0.3716250676
0.3716382936
0.3716498028
0.3716584156
0.3717667895
0.3717030894
0.3716590841
0.3716330393
0.3716207363
0.3716179068
0.3716211005
0.3716278124
0.3716363414
0.3716455861
0.3716548573
0.3716637126
0.3716717309
0.3716778772
0.3718810322
0.3718433922
0.3718092766
0.3717812766
0.371759935
0.3717446483
0.3717343407
0.371727865
0.3717241965
0.3717225011
0.3717221359
0.3717226176
0.3717235586
0.3717245157
0.3719323068
0.3719145036
0.3718951381
0.3718758496
0.3718577635
0.3718414962
0.3718272722
0.3718150652
0.3718047082
0.3717959763
0.3717886347
0.3717824812
0.3717774205
0.3717737774
0.3719497777
0.3719405751
0.3719291793
0.3719162312
0.3719024252
0.371888387
0.371874612
0.3718614545
0.3718491394
0.37183779
0.3718274591
0.3718181785
0.3718100972
0.3718040422
0.3719509281
0.3719398939
0.3719255765
0.3719091275
0.3718917485
0.3718744441
0.3718579366
0.3718426781
0.371828903
0.3718166855
0.3718059963
0.3717967441
0.3717888258
0.3717822292
0.3717774508
0.3719287067
0.371901457
0.3718718057
0.3718435879
0.37181892
0.3717985459
0.3717823743
0.3717699072
0.3717605121
0.3717535659
0.3717485219
0.3717449271
0.3717424213
0.3717407324
0.3717397174
0.3718444116
0.3717667879
0.3717030878
0.3716590819
0.3716330368
0.3716207337
0.3716179046
0.371621098
0.3716278097
0.3716363388
0.3716455836
0.3716548546
0.3716637098
0.3716717281
0.3716778745
0.3713745471
0.3712939298
0.3712802219
0.371302874
0.3713418307
0.3713857432
0.37142884
0.3714685351
0.3715039283
0.3715349472
0.3715618755
0.3715850637
0.3716045538
0.3716187984
0.3706034805
0.3707029654
0.3708568882
0.3710048183
0.3711306956
0.3712334814
0.37131645
0.371383503
0.371438053
0.3714828104
0.371519836
0.3715506057
0.3715758146
0.3715939412
0.3713745598
0.3712939392
0.3712802295
0.371302881
0.3713418376
0.3713857498
0.3714288461
0.3714685406
0.3715039332
0.3715349518
0.37156188
0.371585068
0.3716045576
0.3716188019
0.3717667891
0.3717030901
0.371659086
0.3716330422
0.3716207399
0.3716179107
0.3716211043
0.3716278163
0.3716363455
0.3716455902
0.371654861
0.3716637162
0.3716717342
0.3716778807
0.371901457
0.3718718061
0.3718435892
0.3718189225
0.3717985493
0.3717823784
0.3717699115
0.371760517
0.3717535717
0.371748528
0.3717449333
0.3717424276
0.371740739
0.3717397241
0.3719398936
0.3719255764
0.3719091275
0.3718917497
0.371874446
0.3718579387
0.3718426813
0.3718289065
0.3718166902
0.3718060012
0.3717967496
0.3717888318
0.3717822361
0.371777458
0.3719468236
0.3719328237
0.3719156929
0.3718969932
0.3718780418
0.3718597936
0.3718428589
0.3718275717
0.3718140611
0.3718023186
0.3717922482
0.3717837077
0.3717765505
0.3717707095
0.3717665485
0.3719099204
0.3718722956
0.3718365838
0.3718063047
0.3717822629
0.3717639915
0.3717505693
0.371741014
0.3717344423
0.3717301206
0.3717274649
0.3717260195
0.3717254318
0.3717254094
0.371725644
0.3717293976
0.371616878
0.3715533639
0.3715259794
0.371521029
0.3715287054
0.3715428214
0.3715597047
0.3715772615
0.3715943472
0.3716103746
0.371625069
0.3716382945
0.3716498037
0.3716584168
0.3707415217
0.3706034919
0.370702973
0.370856893
0.3710048218
0.3711306981
0.3712334832
0.3713164515
0.3713835042
0.371438054
0.3714828113
0.3715198366
0.3715506066
0.3715758154
0.3715939417
0.3672776444
0.368964467
0.3699003829
0.3704491114
0.3707893397
0.3710120488
0.3711653217
0.371275578
0.3713579298
0.3714213754
0.3714714705
0.3715116894
0.3715438284
0.3715665826
0.370603481
0.370702978
0.3708569029
0.3710048322
0.371130708
0.3712334919
0.3713164594
0.3713835115
0.3714380609
0.3714828171
0.371519842
0.3715506114
0.3715758198
0.3715939459
0.371616874
0.3715533647
0.3715259842
0.3715210359
0.3715287131
0.3715428298
0.3715597132
0.3715772698
0.3715943556
0.3716103824
0.3716250766
0.371638302
0.371649811
0.3716584235
0.3718722934
0.3718365832
0.3718063057
0.3717822656
0.3717639953
0.3717505741
0.3717410197
0.3717344485
0.3717301274
0.3717274715
0.3717260265
0.371725439
0.371725417
0.3717256516
0.3719328228
0.3719156924
0.3718969934
0.371878043
0.3718597955
0.3718428618
0.3718275753
0.3718140657
0.3718023236
0.3717922538
0.3717837138
0.3717765572
0.3717707168
0.3717665565
0.3719509283
0.3719398941
0.371925577
0.3719091278
0.3718917494
0.3718744453
0.371857938
0.3718426795
0.3718289045
0.3718166873
0.3718059981
0.3717967463
0.3717888281
0.3717822319
0.3717774532
0.3719287076
0.3719014582
0.371871807
0.3718435898
0.3718189223
0.3717985484
0.3717823769
0.37176991
0.3717605147
0.371753569
0.371748525
0.3717449299
0.3717424241
0.3717407354
0.3717397204
0.3718444169
0.371766793
0.3717030932
0.3716590874
0.3716330425
0.3716207391
0.3716179095
0.3716211031
0.3716278146
0.3716363436
0.3716455881
0.3716548589
0.3716637135
0.3716717322
0.3716778786
0.3715547175
0.3713745691
0.3712939472
0.371280236
0.3713028862
0.3713418413
0.3713857532
0.371428849
0.3714685434
0.3715039355
0.3715349537
0.3715618818
0.3715850692
0.3716045586
0.371618803
0.3707415241
0.3706034963
0.3707029878
0.3708569096
0.3710048365
0.3711307111
0.3712334944
0.3713164615
0.371383513
0.3714380617
0.3714828178
0.3715198429
0.3715506121
0.3715758203
0.3715939467
0.3715547139
0.3713745702
0.3712939514
0.371280242
0.371302893
0.3713418487
0.3713857598
0.371428855
0.3714685491
0.3715039411
0.3715349591
0.3715618868
0.3715850739
0.371604563
0.371618807
0.3717667863
0.3717030916
0.3716590893
0.3716330469
0.3716207448
0.3716179163
0.3716211098
0.3716278218
0.3716363511
0.3716455953
0.3716548661
0.3716637207
0.3716717388
0.3716778848
0.3719014557
0.3718718055
0.3718435895
0.3718189235
0.3717985512
0.3717823805
0.3717699144
0.3717605203
0.3717535748
0.3717485313
0.3717449368
0.3717424311
0.3717407426
0.3717397273
0.3719398932
0.3719255761
0.3719091275
0.3718917498
0.3718744466
0.3718579399
0.3718426826
0.3718289083
0.3718166922
0.3718060036
0.3717967521
0.3717888345
0.371782239
0.3717774611
0.3719563888
0.3719497784
0.3719405755
0.3719291797
0.3719162313
0.3719024252
0.3718883867
0.3718746115
0.3718614539
0.3718491389
0.3718377892
0.3718274578
0.371818177
0.3718100955
0.3718040403
0.3719466698
0.3719323077
0.3719145045
0.3718951389
0.3718758504
0.3718577642
0.3718414963
0.3718272726
0.3718150652
0.3718047084
0.3717959762
0.3717886347
0.3717824809
0.3717774202
0.371773777
0.3719168791
0.3718810342
0.3718433945
0.3718092792
0.3717812789
0.3717599373
0.3717446507
0.371734343
0.3717278672
0.3717241984
0.371722503
0.3717221374
0.3717226192
0.3717235597
0.3717245172
0.3718444167
0.371766794
0.371703095
0.3716590906
0.3716330463
0.3716207433
0.3716179139
0.3716211072
0.3716278187
0.3716363478
0.3716455923
0.3716548631
0.3716637177
0.3716717356
0.3716778826
0.371729398
0.3716168824
0.3715533717
0.3715259898
0.3715210403
0.3715287167
0.3715428327
0.3715597153
0.3715772716
0.3715943571
0.371610384
0.3716250781
0.3716383035
0.3716498121
0.3716584246
0.3718444169
0.3717667949
0.3717030972
0.3716590931
0.3716330494
0.371620747
0.3716179178
0.3716211115
0.3716278232
0.3716363521
0.3716455963
0.3716548666
0.3716637213
0.3716717392
0.3716778854
0.3719168772
0.3718810325
0.3718433942
0.3718092801
0.3717812811
0.3717599405
0.3717446548
0.3717343477
0.3717278722
0.3717242039
0.3717225084
0.371722143
0.3717226247
0.3717235654
0.3717245225
0.3719323056
0.3719145034
0.3718951388
0.3718758514
0.3718577661
0.3718414995
0.3718272761
0.3718150695
0.3718047129
0.3717959811
0.3717886397
0.3717824864
0.371777426
0.371773783
0.3719497773
0.3719405747
0.3719291794
0.3719162314
0.371902426
0.3718883882
0.371874614
0.371861457
0.3718491426
0.3718377934
0.3718274626
0.3718181824
0.3718101019
0.3718040469
0.3719600183
0.3719565135
0.3719513171
0.3719443911
0.3719358941
0.3719261176
0.3719154157
0.3719041492
0.3718926462
0.3718811842
0.3718699847
0.371859223
0.3718490675
0.3718398431
0.3718327181
0.3719562918
0.3719496363
0.3719404923
0.3719293332
0.3719168286
0.3719036529
0.3718903732
0.3718774136
0.3718650576
0.3718534733
0.3718427438
0.3718328998
0.3718239681
0.3718161066
0.3718101634
0.3719466697
0.3719323079
0.3719145049
0.3718951395
0.3718758512
0.3718577654
0.371841498
0.3718272739
0.3718150668
0.3718047102
0.3717959782
0.3717886367
0.371782483
0.3717774219
0.371773779
0.3719287074
0.3719014589
0.3718718081
0.3718435917
0.371818925
0.3717985516
0.3717823807
0.3717699141
0.3717605194
0.3717535739
0.37174853
0.3717449353
0.3717424296
0.3717407407
0.371739726
0.3719099204
0.3718722969
0.3718365867
0.371806309
0.3717822684
0.3717639979
0.3717505768
0.3717410219
0.371734451
0.3717301297
0.3717274738
0.3717260284
0.3717254406
0.3717254184
0.3717256529
0.3719287076
0.3719014591
0.3718718089
0.3718435925
0.3718189261
0.3717985533
0.3717823826
0.3717699165
0.371760522
0.3717535765
0.3717485327
0.3717449381
0.3717424323
0.3717407434
0.3717397283
0.3719466692
0.3719323071
0.3719145046
0.37189514
0.3718758522
0.3718577671
0.3718415001
0.3718272768
0.3718150699
0.371804714
0.3717959823
0.3717886408
0.3717824871
0.3717774263
0.3717737836
0.3719562911
0.3719496352
0.3719404915
0.3719293332
0.3719168294
0.371903654
0.3718903747
0.3718774155
0.3718650603
0.3718534764
0.3718427473
0.3718329041
0.3718239728
0.3718161114
0.3718101681
0.3719565129
0.3719513166
0.3719443909
0.3719358943
0.3719261181
0.3719154168
0.3719041507
0.3718926482
0.371881187
0.3718699882
0.371859227
0.3718490721
0.3718398479
0.3718327233
0.3719616376
0.3719595588
0.3719563229
0.3719517495
0.3719457789
0.3719384728
0.3719299913
0.3719205593
0.3719104331
0.3718998731
0.3718891252
0.3718784167
0.3718679891
0.3718582707
0.3718506291
0.3719600186
0.3719565137
0.371951317
0.3719443912
0.3719358944
0.371926118
0.3719154162
0.3719041496
0.3718926467
0.371881185
0.3718699857
0.3718592239
0.3718490683
0.3718398442
0.3718327192
0.3719563889
0.3719497786
0.3719405758
0.3719291801
0.371916232
0.3719024263
0.3718883882
0.3718746135
0.3718614559
0.3718491411
0.3718377918
0.3718274608
0.3718181799
0.3718100987
0.3718040435
0.3719509283
0.3719398943
0.3719255775
0.3719091292
0.3718917513
0.3718744477
0.3718579409
0.3718426832
0.3718289084
0.3718166922
0.3718060035
0.3717967518
0.3717888341
0.3717822381
0.3717774596
0.3719468237
0.3719328243
0.371915694
0.3718969952
0.3718780452
0.371859798
0.3718428642
0.3718275773
0.3718140678
0.3718023257
0.3717922559
0.3717837159
0.371776559
0.3717707185
0.3717665577
0.3719509287
0.3719398947
0.3719255778
0.3719091295
0.371891752
0.3718744485
0.3718579418
0.3718426843
0.3718289102
0.3718166939
0.3718060051
0.3717967537
0.371788836
0.37178224
0.3717774618
0.3719563886
0.3719497784
0.3719405759
0.3719291805
0.3719162325
0.3719024271
0.3718883894
0.371874615
0.371861458
0.3718491435
0.3718377943
0.3718274636
0.3718181832
0.3718101023
0.3718040478
0.3719600182
0.3719565135
0.3719513172
0.3719443917
0.3719358948
0.3719261186
0.3719154172
0.371904151
0.3718926488
0.3718811874
0.3718699886
0.3718592271
0.3718490723
0.3718398482
0.3718327237
0.3719616374
0.3719595585
0.3719563227
0.3719517495
0.3719457791
0.3719384735
0.3719299923
0.3719205605
0.3719104351
0.3718998754
0.371889128
0.3718784199
0.3718679932
0.3718582751
0.3718506341
)
;

boundaryField
{
    top
    {
        type            zeroGradient;
    }
    bottom
    {
        type            zeroGradient;
    }
    side-walls
    {
        type            zeroGradient;
    }
    inlet
    {
        type            zeroGradient;
    }
    outlet
    {
        type            zeroGradient;
    }
    procBoundary1to0
    {
        type            processor;
        value           nonuniform List<scalar> 
97
(
0.3719616371
0.3719616371
0.3719600181
0.3719563887
0.3719509287
0.3719468245
0.3719509288
0.3719563889
0.3719600186
0.3719616379
0.3719620878
0.3719562912
0.3719562912
0.3719562912
0.3719466696
0.3719287078
0.371909923
0.3719287088
0.3719466702
0.371956292
0.3719600185
0.3719604463
0.3719561881
0.3719168775
0.3719168775
0.3719168775
0.3718444184
0.3717294109
0.3718444224
0.3719168813
0.3719466705
0.371956389
0.3719580369
0.3719486701
0.3719158576
0.3715547104
0.3715547104
0.3715547104
0.3707416047
0.3715547372
0.3718444222
0.3719287089
0.371950929
0.3719563142
0.3719415642
0.3718793409
0.3716326372
0.364067772
0.364067772
0.364067772
0.3707416006
0.3707416006
0.3717294089
0.3719099223
0.3719468244
0.3719580372
0.3719486704
0.3719158575
0.3718203174
0.3716326336
0.3718203196
0.3718444136
0.3718444136
0.3718444136
0.3719287076
0.3719509285
0.3719604463
0.3719561881
0.3719436932
0.371915857
0.3718793406
0.3719158575
0.3719436931
0.3719466687
0.3719466687
0.3719466687
0.3719563883
0.371962088
0.3719604116
0.3719561884
0.37194867
0.3719415642
0.3719486704
0.3719561881
0.3719604112
0.371960018
0.371960018
0.371960018
0.3719628302
0.371962088
0.3719604463
0.3719580371
0.3719563142
0.3719580372
0.3719604464
0.3719620875
0.3719628301
)
;
    }
}


// ************************************************************************* //
