/*--------------------------------*- C++ -*----------------------------------*\
| =========                 |                                                 |
| \\      /  F ield         | OpenFOAM: The Open Source CFD Toolbox           |
|  \\    /   O peration     | Version:  4.x                                   |
|   \\  /    A nd           | Web:      www.OpenFOAM.org                      |
|    \\/     M anipulation  |                                                 |
\*---------------------------------------------------------------------------*/
FoamFile
{
    version     2.0;
    format      ascii;
    class       volScalarField;
    location    "4000";
    object      CO2;
}
// * * * * * * * * * * * * * * * * * * * * * * * * * * * * * * * * * * * * * //

dimensions      [0 0 0 0 0 0 0];

internalField   nonuniform List<scalar> 
1174
(
0.006512313833
0.006516498756
0.006522413913
0.006530135354
0.006539584561
0.006550553913
0.006562753553
0.006575851266
0.006589509778
0.006603411477
0.006617263903
0.006630752704
0.006643324591
0.006653210735
0.00651625252
0.006522972375
0.006531930354
0.006542919688
0.006555563889
0.006569404994
0.006583977153
0.006598854763
0.00661367992
0.006628166734
0.006642088054
0.006655225084
0.006667157838
0.006676375586
0.0065249627
0.006536864588
0.006551602776
0.006568347122
0.006586202562
0.006604359351
0.006622175464
0.006639193786
0.00665512289
0.006669804486
0.006683169644
0.006695175074
0.006705630136
0.006713464229
0.006537743959
0.006556259591
0.006577532059
0.006600007052
0.006622385577
0.006643735579
0.006663470471
0.006681287534
0.00669709006
0.006710917178
0.006722885396
0.006733130374
0.006741664553
0.0067478473
0.006546887206
0.006569040319
0.006593223144
0.006617731719
0.006641331219
0.006663232762
0.006683005596
0.00670048021
0.006715669056
0.006728696306
0.006739744897
0.00674900522
0.006756563167
0.006761947679
0.006537744596
0.006556259061
0.006577531468
0.00660000567
0.006622384521
0.006643733611
0.006663468535
0.006681284508
0.006697087863
0.006710914128
0.00672288291
0.006733126592
0.006741661284
0.006747844341
0.00652496198
0.00653686273
0.006551600551
0.006568346528
0.00658620209
0.006604357907
0.006622172948
0.006639191172
0.006655119743
0.006669800744
0.006683164735
0.006695170288
0.006705624682
0.006713458268
0.006516251689
0.006522972365
0.006531928792
0.006542918112
0.006555562393
0.006569403335
0.006583974374
0.006598852123
0.006613676839
0.006628162342
0.006642083147
0.006655220192
0.00666715283
0.006676369014
0.006512312891
0.006516497627
0.006522413336
0.006530135316
0.006539583582
0.00655055304
0.006562752106
0.006575849476
0.006589507322
0.006603408897
0.006617259784
0.00663074807
0.006643319074
0.006653203568
0.006511719854
0.006516252863
0.006522973279
0.006531929778
0.006542919106
0.006555563092
0.006569404244
0.006583976746
0.006598855536
0.006613680761
0.006628166057
0.006642087731
0.006655224756
0.006667157992
0.006676375032
0.006525146999
0.006536972384
0.006551403868
0.006567575384
0.006584616432
0.00660179139
0.006618552536
0.006634535025
0.006649519304
0.006663398138
0.006676133158
0.006687687639
0.006697858457
0.006705547048
0.006547557398
0.006570579767
0.006595623347
0.006620567867
0.006643958444
0.006664998058
0.006683396013
0.006699186408
0.006712584696
0.006723880221
0.006733379325
0.00674134267
0.00674789105
0.006752606515
0.006587449407
0.006625792907
0.0066622836
0.00669418379
0.006720533192
0.006741449603
0.006757575212
0.006769729368
0.006778716578
0.006785244795
0.006789897796
0.006793143914
0.006795331532
0.006796647112
0.006625156486
0.00667133684
0.006710493368
0.006741584956
0.006765216825
0.006782577913
0.006794938999
0.006803441525
0.006809036051
0.006812475345
0.006814349284
0.00681511501
0.006815148391
0.006814848019
0.00658744715
0.006625790946
0.006662280894
0.006694180896
0.006720530122
0.006741446463
0.006757572165
0.00676972572
0.006778712133
0.006785239502
0.006789893141
0.006793138613
0.006795327703
0.006796643137
0.006547555395
0.006570577916
0.00659562126
0.006620565992
0.00664395487
0.006664994374
0.006683391937
0.006699180984
0.006712577997
0.006723874225
0.006733373116
0.006741334918
0.006747883143
0.006752598216
0.006525146544
0.006536971082
0.006551402703
0.006567573299
0.006584613241
0.006601788206
0.006618549567
0.006634530862
0.006649513975
0.006663391994
0.006676126358
0.006687680052
0.006697850561
0.006705539125
0.006516251241
0.006522971902
0.006531928969
0.006542917005
0.006555560824
0.006569401671
0.006583974026
0.006598851053
0.006613675465
0.006628160818
0.006642081532
0.006655217817
0.006667149882
0.006676366477
0.006516413299
0.006524962162
0.006536863856
0.006551601375
0.006568346938
0.00658620192
0.006604358741
0.006622174819
0.00663919357
0.006655122838
0.006669804153
0.006683167987
0.006695174539
0.006705629875
0.006713464242
0.006528982386
0.006547555852
0.006570578476
0.00659562143
0.006620567628
0.006643957798
0.006664997655
0.006683395641
0.006699185533
0.006712582767
0.006723879629
0.006733378367
0.006741341356
0.006747890879
0.006752604795
0.006613864188
0.006662536258
0.00670665327
0.006742864233
0.006770465391
0.006790238457
0.006803572293
0.006811952269
0.006816701768
0.006818899315
0.00681937778
0.00681875965
0.006817547743
0.00681631448
0.006761589347
0.006843959471
0.006900866207
0.006934549115
0.006950464322
0.006954128523
0.006950005895
0.006941333493
0.006930310815
0.006918362763
0.006906379789
0.006894934819
0.006884571146
0.006876626106
0.006955423064
0.007037554656
0.007072971447
0.007079381051
0.007069463528
0.007051218159
0.007029394479
0.007006698561
0.006984612808
0.006963893653
0.006944898454
0.006927801131
0.006912923882
0.006901790304
0.006761582226
0.006843952519
0.006900858075
0.006934541307
0.006950456217
0.006954121627
0.006949998412
0.006941325893
0.006930303791
0.006918355514
0.006906372666
0.006894926856
0.00688456369
0.006876619725
0.006613859095
0.006662531679
0.0067066485
0.006742857699
0.006770458364
0.006790229956
0.006803563461
0.006811942237
0.006816691121
0.006818888723
0.006819366479
0.006818748482
0.006817536412
0.006816302745
0.006547554677
0.006570576814
0.006595619796
0.00662056396
0.006643953801
0.006664991863
0.006683388725
0.006699177389
0.006712574598
0.006723870366
0.006733368376
0.006741330017
0.006747878733
0.006752593456
0.006524962291
0.006536862757
0.006551599757
0.00656834428
0.006586198976
0.006604354153
0.006622169709
0.006639186924
0.006655115318
0.00666979536
0.006683158204
0.006695163268
0.00670561796
0.006713450969
0.006523474135
0.006537742932
0.006556257729
0.006577529513
0.00660000503
0.006622384526
0.006643733522
0.006663468285
0.006681284987
0.006697088565
0.006710915443
0.006722884797
0.00673312918
0.006741664424
0.006747847293
0.006552209544
0.006587446592
0.006625789448
0.006662280074
0.006694181622
0.00672053144
0.006741447273
0.006757573318
0.006769727293
0.006778715226
0.006785242994
0.006789896804
0.00679314229
0.006795331288
0.006796647525
0.006661212741
0.006761584112
0.006843954795
0.006900862046
0.006934546441
0.006950461719
0.006954126424
0.006950003969
0.0069413323
0.006930309705
0.006918361278
0.006906379205
0.006894933709
0.006884570358
0.006876626196
0.007268769079
0.007373012293
0.007390745433
0.007361465443
0.007311103077
0.00725433171
0.007198613889
0.007147293379
0.007101534842
0.007061431688
0.00702661735
0.006996638363
0.006971440571
0.00695302422
0.008265730212
0.008137116387
0.007938113055
0.007746853722
0.007584105059
0.007451210688
0.00734393933
0.007257245375
0.007186717014
0.007128849475
0.007080978899
0.007041197141
0.007008604968
0.006985168621
0.007268744601
0.007372993544
0.007390729907
0.007361450415
0.007311087578
0.007254316351
0.007198599371
0.007147280381
0.007101523021
0.007061420431
0.007026606351
0.006996627851
0.006971431406
0.006953015858
0.006761582848
0.006843950686
0.006900853482
0.00693453448
0.00695044772
0.006954112371
0.006949989396
0.006941316711
0.006930293828
0.006918345675
0.006906363712
0.006894918408
0.006884555778
0.006876611413
0.006587447107
0.006625788853
0.006662277465
0.006694176021
0.006720523448
0.006741437799
0.006757563406
0.006769715718
0.006778701335
0.006785228543
0.006789881918
0.006793127007
0.006795315557
0.006796631467
0.006537743777
0.006556258124
0.006577529611
0.006600002262
0.006622380113
0.006643728567
0.0066634606
0.006681276669
0.006697077295
0.00671090383
0.006722871652
0.006733114675
0.006741647895
0.00674783
0.006528781762
0.00654688555
0.006569038376
0.006593220887
0.006617729578
0.006641329096
0.006663230948
0.00668300267
0.00670047781
0.006715666789
0.006728693823
0.006739743118
0.006749003084
0.006756561381
0.006761945774
0.006576500847
0.006625152719
0.006671332712
0.006710488979
0.006741581134
0.006765212393
0.006782574163
0.006794935267
0.006803438754
0.006809032847
0.006812472123
0.006814346903
0.006815112441
0.006815146702
0.006814847075
0.006809922011
0.006955414406
0.007037546958
0.007072964887
0.007079375218
0.007069457612
0.007051213291
0.007029389927
0.007006694903
0.006984608908
0.006963890517
0.006944895487
0.006927799457
0.006912922069
0.006901787655
0.008087227398
0.008265704895
0.008137099816
0.007938102881
0.0077468461
0.007584099533
0.007451206846
0.007343936234
0.007257242715
0.007186714711
0.00712884748
0.007080977662
0.007041195111
0.007008603002
0.006985167649
0.01256588354
0.01038492422
0.009174841917
0.00846536909
0.008025473394
0.007737523626
0.007539350083
0.007396795134
0.007290319667
0.00720828828
0.007143519027
0.007091519192
0.007049966662
0.007020547095
0.008265730409
0.008137092034
0.007938081898
0.00774682277
0.007584076714
0.007451186684
0.007343917527
0.007257225279
0.00718669825
0.007128833622
0.007080964673
0.007041183615
0.007008592534
0.006985157554
0.006955424787
0.007037545881
0.00707295424
0.007079358997
0.007069439633
0.007051193472
0.00702936974
0.007006675165
0.006984588723
0.006963871624
0.006944877262
0.006927781255
0.006912904415
0.006901771476
0.006625158044
0.006671334034
0.00671048655
0.006741574633
0.006765203329
0.006782562438
0.006794921537
0.006803423727
0.006809016382
0.006812456085
0.006814329945
0.006815094853
0.006815128298
0.006814828624
0.006546887505
0.006569039474
0.006593220159
0.006617726299
0.006641324386
0.006663223905
0.006682993815
0.006700466618
0.006715654521
0.006728680162
0.006739727995
0.006748986849
0.006756543302
0.006761926128
0.006523473741
0.006537742878
0.006556256884
0.00657752925
0.006600003255
0.006622381886
0.006643730459
0.006663465178
0.006681281595
0.006697084517
0.006710911536
0.006722879603
0.006733123691
0.006741658167
0.006747841647
0.006552207648
0.006587444479
0.00662578718
0.006662276444
0.006694176793
0.006720525959
0.00674144171
0.006757567327
0.006769721613
0.006778708083
0.00678523595
0.006789890288
0.006793135793
0.00679532424
0.006796640687
0.006661201827
0.006761573765
0.006843943862
0.006900850706
0.006934534311
0.006950449894
0.006954115566
0.006949992519
0.006941321054
0.006930298676
0.006918350972
0.006906369049
0.006894925208
0.006884560904
0.006876616576
0.007035787077
0.007268723117
0.007372976403
0.007390715912
0.007361439132
0.007311079807
0.007254308992
0.007198593084
0.007147274111
0.007101518123
0.007061416476
0.007026602371
0.006996625376
0.006971429259
0.006953013589
0.008087222175
0.008265696204
0.008137070235
0.007938067027
0.007746813314
0.007584069866
0.007451181028
0.007343912631
0.007257221961
0.007186696439
0.007128832036
0.007080962482
0.007041182001
0.007008591511
0.006985155657
0.007035794757
0.007268721487
0.007372966763
0.007390701889
0.007361422979
0.007311062087
0.007254293171
0.007198578677
0.007147260479
0.007101504378
0.007061403133
0.007026590367
0.006996613922
0.006971418574
0.006953003775
0.006761588671
0.006843947282
0.006900846034
0.00693452354
0.006950436238
0.006954099119
0.006949976456
0.006941303621
0.006930280375
0.006918333354
0.006906351487
0.006894907527
0.006884544825
0.006876601692
0.00658744992
0.00662579039
0.006662276853
0.006694173684
0.0067205189
0.006741432817
0.006757556324
0.006769707863
0.006778693899
0.006785220341
0.00678987347
0.006793118632
0.006795306786
0.006796623924
0.006537744735
0.006556258823
0.006577529444
0.006600001932
0.006622378307
0.006643725666
0.006663457406
0.00668127229
0.006697072424
0.006710897822
0.006722865317
0.006733108071
0.00674164068
0.006747822393
0.006516411922
0.006524960611
0.006536861826
0.006551598824
0.006568344056
0.006586199181
0.006604355154
0.006622171068
0.006639188564
0.006655116706
0.006669797234
0.006683161442
0.006695167174
0.006705622099
0.006713455752
0.006528980335
0.006547552486
0.006570574973
0.006595618231
0.006620562058
0.006643952499
0.006664991954
0.006683388017
0.006699177521
0.006712574365
0.006723870663
0.006733368533
0.006741331008
0.006747879687
0.006752594451
0.006567503758
0.006613854424
0.006662526455
0.006706642589
0.006742852493
0.006770452968
0.006790224571
0.006803558421
0.006811937159
0.00681668707
0.006818884493
0.006819363042
0.006818745046
0.006817534154
0.00681629947
0.006661202559
0.006761571934
0.00684394021
0.006900843531
0.00693452574
0.006950440387
0.006954105616
0.00694998308
0.006941311501
0.006930288977
0.006918340998
0.006906359265
0.006894915125
0.006884552799
0.006876607185
0.006809922132
0.006955406343
0.007037531108
0.007072942521
0.007079349842
0.007069431865
0.007051187127
0.007029365202
0.007006671238
0.006984585659
0.006963868254
0.006944873882
0.006927777879
0.00691290199
0.006901769256
0.006661202078
0.00676156992
0.006843934937
0.00690083773
0.00693451811
0.006950431294
0.006954096138
0.006949972585
0.006941300399
0.006930278317
0.006918331242
0.006906350578
0.006894906409
0.006884544157
0.006876600285
0.006567507991
0.006613858123
0.006662526761
0.006706640068
0.006742846792
0.006770445222
0.006790214549
0.006803546689
0.006811924953
0.006816673354
0.006818871237
0.006819349329
0.006818731506
0.00681752036
0.006816286343
0.00654755742
0.006570577211
0.006595618164
0.006620559506
0.006643947615
0.006664983979
0.00668337918
0.006699167026
0.006712563301
0.006723858769
0.006733356425
0.006741317633
0.00674786565
0.006752579987
0.006524963247
0.006536863597
0.006551599584
0.006568343775
0.006586197125
0.006604351259
0.006622164871
0.006639180934
0.006655107701
0.006669786963
0.006683149782
0.006695154042
0.00670560635
0.006713439444
0.006511718663
0.006516251006
0.006522970924
0.006531928198
0.006542916996
0.006555560429
0.006569401227
0.006583972444
0.006598849919
0.006613674799
0.006628160766
0.006642080351
0.006655216653
0.006667148991
0.006676365632
0.006516537513
0.006525143854
0.006536968583
0.006551400037
0.006567571871
0.006584610882
0.00660178531
0.006618546414
0.006634527415
0.006649510714
0.006663389145
0.006676122816
0.006687676846
0.006697847072
0.006705535568
0.006528980692
0.006547552073
0.006570573898
0.006595616825
0.006620560444
0.006643949734
0.006664988001
0.006683385081
0.006699173786
0.00671257027
0.00672386614
0.006733364094
0.006741326159
0.006747875701
0.006752589889
0.00655220845
0.006587442916
0.006625784719
0.006662272233
0.006694170634
0.006720518797
0.006741432973
0.006757557737
0.006769710583
0.006778696698
0.006785224113
0.006789877624
0.006793122789
0.006795311684
0.006796627375
0.006576501003
0.0066251502
0.006671326432
0.006710479592
0.006741568912
0.006765198016
0.006782556695
0.006794917035
0.006803418453
0.006809011279
0.006812451118
0.006814325866
0.006815091561
0.006815125243
0.006814825934
0.006552207799
0.006587442518
0.006625782923
0.006662270212
0.006694168068
0.006720514691
0.006741428192
0.006757551915
0.006769704249
0.006778690264
0.00678521747
0.006789870604
0.006793116256
0.006795305316
0.006796621608
0.006528981928
0.00654755424
0.006570574809
0.006595615622
0.00662055778
0.006643945505
0.006664982653
0.006683377948
0.006699166263
0.006712560839
0.00672385605
0.006733354029
0.006741316065
0.006747864997
0.00675257867
0.00651653934
0.006525146578
0.00653697065
0.006551399977
0.006567569733
0.006584608118
0.006601781663
0.006618541738
0.006634520607
0.006649503202
0.006663380522
0.006676112292
0.006687665161
0.006697835206
0.006705524228
0.006516252256
0.006522972194
0.006531928471
0.006542916228
0.006555559225
0.006569398497
0.00658396866
0.00659884482
0.006613667832
0.006628152057
0.00664207041
0.00665520531
0.006667137057
0.006676352776
0.006509624108
0.006512312705
0.006516497705
0.006522412141
0.006530133783
0.006539582775
0.006550551709
0.006562750138
0.006575846883
0.006589505136
0.006603406662
0.006617257125
0.006630744984
0.006643315859
0.006653200205
0.006511717721
0.006516250408
0.006522971262
0.006531927945
0.006542916159
0.006555559584
0.006569400057
0.006583971378
0.006598848702
0.006613672914
0.006628158266
0.006642078106
0.006655214619
0.0066671463
0.006676362868
0.006516411855
0.00652496015
0.006536861197
0.006551598088
0.006568342576
0.006586196674
0.00660435161
0.006622166602
0.006639184108
0.006655111785
0.006669791267
0.006683154406
0.006695160473
0.006705614745
0.006713448169
0.006523473907
0.006537742476
0.006556255928
0.006577526093
0.006599999171
0.006622376698
0.006643724156
0.006663456732
0.006681272818
0.006697073258
0.006710898865
0.006722866997
0.006733109779
0.006741643602
0.006747826815
0.006528781584
0.006546884437
0.006569036089
0.006593216398
0.00661772174
0.006641318984
0.006663218866
0.00668298979
0.006700462377
0.006715650298
0.006728675708
0.006739723769
0.006748983184
0.006756539984
0.006761923874
0.006523472963
0.006537741563
0.006556255194
0.006577525392
0.00659999736
0.006622374523
0.006643721795
0.006663454021
0.006681268305
0.00669706904
0.006710895037
0.006722862113
0.006733105017
0.006741638985
0.006747821169
0.006516412657
0.006524960667
0.006536861125
0.006551597259
0.006568341423
0.006586194911
0.006604348805
0.006622162845
0.006639179013
0.00665510588
0.006669785393
0.006683147839
0.006695152314
0.0067056058
0.006713437724
0.006511718745
0.006516250859
0.006522970705
0.006531926554
0.006542915169
0.006555558141
0.006569397612
0.006583967906
0.006598843582
0.00661366714
0.006628151398
0.00664207042
0.006655204884
0.006667136467
0.006676352106
0.006509624678
0.006512313314
0.006516498321
0.006522412144
0.006530133273
0.00653958097
0.006550549294
0.00656274719
0.00657584213
0.00658949959
0.00660339965
0.006617249292
0.006630735043
0.006643305071
0.00665318799
)
;

boundaryField
{
    top
    {
        type            zeroGradient;
    }
    bottom
    {
        type            zeroGradient;
    }
    side-walls
    {
        type            zeroGradient;
    }
    inlet
    {
        type            zeroGradient;
    }
    outlet
    {
        type            zeroGradient;
    }
    procBoundary1to0
    {
        type            processor;
        value           nonuniform List<scalar> 
97
(
0.006509625402
0.006509625402
0.006511718929
0.006516412447
0.006523472821
0.006528779494
0.006523472588
0.006516411964
0.006511717832
0.006509623459
0.006509042225
0.006516538982
0.006516538982
0.006516538982
0.006528980962
0.006552207403
0.006576494651
0.006552205128
0.006528979683
0.006516537078
0.006511717979
0.006511164799
0.006516671691
0.006567506994
0.006567506994
0.006567506994
0.006661197443
0.006809890407
0.006661189221
0.00656749878
0.006528978835
0.006516411695
0.006514281194
0.006526393668
0.006568822288
0.007035796157
0.007035796157
0.007035796157
0.008087016194
0.0070357387
0.006661189211
0.006552204745
0.006523472105
0.006516508457
0.006535582219
0.006616039611
0.006935019485
0.01671521104
0.01671521104
0.01671521104
0.008087026824
0.008087026824
0.006809894148
0.00657649606
0.00652877965
0.006514280375
0.006526392934
0.006568822926
0.006692360569
0.006935028968
0.006692354839
0.006661208803
0.006661208803
0.006661208803
0.006552207444
0.006523473331
0.006511164803
0.006516671841
0.006532829113
0.006568824248
0.006616040649
0.006568823185
0.006532829201
0.006528982886
0.006528982886
0.006528982886
0.006516413373
0.006509041671
0.006511209841
0.006516671104
0.006526394149
0.006535581969
0.006526392914
0.006516671797
0.00651121071
0.006511719128
0.006511719128
0.006511719128
0.006508081822
0.006509041593
0.006511164795
0.006514280625
0.006516508322
0.006514280455
0.006511164643
0.006509042912
0.006508082135
)
;
    }
}


// ************************************************************************* //
