/*--------------------------------*- C++ -*----------------------------------*\
| =========                 |                                                 |
| \\      /  F ield         | OpenFOAM: The Open Source CFD Toolbox           |
|  \\    /   O peration     | Version:  4.x                                   |
|   \\  /    A nd           | Web:      www.OpenFOAM.org                      |
|    \\/     M anipulation  |                                                 |
\*---------------------------------------------------------------------------*/
FoamFile
{
    version     2.0;
    format      ascii;
    class       volScalarField;
    location    "4000";
    object      Cpv;
}
// * * * * * * * * * * * * * * * * * * * * * * * * * * * * * * * * * * * * * //

dimensions      [0 2 -2 -1 0 0 0];

internalField   nonuniform List<scalar> 
1174
(
1210.519162
1210.519411
1210.519796
1210.520292
1210.52088
1210.521602
1210.522369
1210.523199
1210.524072
1210.524973
1210.525867
1210.526729
1210.52751
1210.52815
1210.519554
1210.520013
1210.52059
1210.521272
1210.52206
1210.522939
1210.523875
1210.524837
1210.525781
1210.526715
1210.527586
1210.52841
1210.529192
1210.52977
1210.519809
1210.520548
1210.521477
1210.52256
1210.52372
1210.524854
1210.525993
1210.527078
1210.528113
1210.529051
1210.529899
1210.53068
1210.531351
1210.53187
1210.520598
1210.521782
1210.523124
1210.52456
1210.525988
1210.527344
1210.528625
1210.529747
1210.530751
1210.531617
1210.532377
1210.533034
1210.533581
1210.53396
1210.52166
1210.523059
1210.52458
1210.52613
1210.527647
1210.529038
1210.53031
1210.531422
1210.53239
1210.533211
1210.533912
1210.53449
1210.534973
1210.535323
1210.521533
1210.522711
1210.524049
1210.525452
1210.526855
1210.528198
1210.529439
1210.530595
1210.53158
1210.532481
1210.533228
1210.533901
1210.534439
1210.534812
1210.519914
1210.520686
1210.521623
1210.522658
1210.523781
1210.524939
1210.526084
1210.52715
1210.52818
1210.529083
1210.529927
1210.530684
1210.531356
1210.531866
1210.519552
1210.519969
1210.520537
1210.521227
1210.522016
1210.522903
1210.523826
1210.52477
1210.525721
1210.526664
1210.527537
1210.528366
1210.529121
1210.529706
1210.51984
1210.520102
1210.520484
1210.520978
1210.521582
1210.522279
1210.523068
1210.523881
1210.524745
1210.525622
1210.526505
1210.52735
1210.528136
1210.528763
1210.518964
1210.519247
1210.519676
1210.520261
1210.520961
1210.521742
1210.522614
1210.523526
1210.524464
1210.525405
1210.526338
1210.527213
1210.528059
1210.528809
1210.52941
1210.520244
1210.520983
1210.521896
1210.522901
1210.524011
1210.525073
1210.526142
1210.527147
1210.528114
1210.528965
1210.529769
1210.530502
1210.531155
1210.531662
1210.521837
1210.523298
1210.524889
1210.526495
1210.527976
1210.529305
1210.530485
1210.531476
1210.532304
1210.533043
1210.533646
1210.534167
1210.534577
1210.534888
1210.523923
1210.526366
1210.528687
1210.53073
1210.532405
1210.533723
1210.534758
1210.535529
1210.536127
1210.536499
1210.536807
1210.537013
1210.537175
1210.537297
1210.526787
1210.529716
1210.532223
1210.534192
1210.535692
1210.536793
1210.537568
1210.538099
1210.538438
1210.538663
1210.538767
1210.538814
1210.538838
1210.538829
1210.523502
1210.525918
1210.528218
1210.530241
1210.531918
1210.533237
1210.534235
1210.535017
1210.535587
1210.536011
1210.53633
1210.536514
1210.536645
1210.53671
1210.522267
1210.523727
1210.525314
1210.526888
1210.528366
1210.529693
1210.530838
1210.531866
1210.5327
1210.533421
1210.534013
1210.534538
1210.534952
1210.535261
1210.519678
1210.520451
1210.521366
1210.522419
1210.523514
1210.524609
1210.525645
1210.526672
1210.527622
1210.528505
1210.529321
1210.530051
1210.530695
1210.531173
1210.520096
1210.520517
1210.521075
1210.521761
1210.522567
1210.523427
1210.524327
1210.525254
1210.526201
1210.527114
1210.528014
1210.528833
1210.529587
1210.530158
1210.519427
1210.519959
1210.520711
1210.521645
1210.522706
1210.52386
1210.524998
1210.526146
1210.527219
1210.528249
1210.529184
1210.530037
1210.530768
1210.531414
1210.531899
1210.520519
1210.521698
1210.523162
1210.524768
1210.526341
1210.527785
1210.529135
1210.530295
1210.531297
1210.532127
1210.532858
1210.533473
1210.533966
1210.534384
1210.534687
1210.525143
1210.528248
1210.531057
1210.533365
1210.535115
1210.536336
1210.537193
1210.537718
1210.538028
1210.538171
1210.538214
1210.538171
1210.538083
1210.537987
1210.535268
1210.540469
1210.544044
1210.546189
1210.547229
1210.547474
1210.547213
1210.546649
1210.545941
1210.54517
1210.544413
1210.543689
1210.543033
1210.542523
1210.546425
1210.551645
1210.553868
1210.554285
1210.553625
1210.552471
1210.551066
1210.549621
1210.548224
1210.546923
1210.545731
1210.544684
1210.543752
1210.543034
1210.53513
1210.540353
1210.543959
1210.54613
1210.547129
1210.547351
1210.547103
1210.546585
1210.545878
1210.545133
1210.544401
1210.543714
1210.54304
1210.542519
1210.525154
1210.528241
1210.531047
1210.533343
1210.535091
1210.536363
1210.537183
1210.537716
1210.53801
1210.538155
1210.538198
1210.538146
1210.538072
1210.538013
1210.522325
1210.523808
1210.525394
1210.526983
1210.528465
1210.529806
1210.530957
1210.531952
1210.532804
1210.533529
1210.534141
1210.534662
1210.53506
1210.535357
1210.51978
1210.520536
1210.521478
1210.522549
1210.523673
1210.524799
1210.525913
1210.52699
1210.527992
1210.528911
1210.529747
1210.530501
1210.531152
1210.531632
1210.520017
1210.520906
1210.522089
1210.523449
1210.524863
1210.526269
1210.52763
1210.528888
1210.530018
1210.531012
1210.531894
1210.532643
1210.533317
1210.533844
1210.534247
1210.522479
1210.524719
1210.527184
1210.529494
1210.531506
1210.533186
1210.534497
1210.535532
1210.536307
1210.536869
1210.537298
1210.537582
1210.53779
1210.537917
1210.537969
1210.528486
1210.534819
1210.540047
1210.543658
1210.545799
1210.546823
1210.547053
1210.546781
1210.546238
1210.545537
1210.544761
1210.544027
1210.543333
1210.542678
1210.542178
1210.567747
1210.574345
1210.575472
1210.573619
1210.570434
1210.566839
1210.563289
1210.560069
1210.557172
1210.554637
1210.552442
1210.550536
1210.548951
1210.54781
1210.629902
1210.621764
1210.609144
1210.597016
1210.586696
1210.578276
1210.571474
1210.565958
1210.561463
1210.557802
1210.554762
1210.552237
1210.550165
1210.548666
1210.56707
1210.573669
1210.574801
1210.572965
1210.569787
1210.566164
1210.562648
1210.559391
1210.556476
1210.55391
1210.55173
1210.54985
1210.548247
1210.547075
1210.535319
1210.540526
1210.544137
1210.546261
1210.547263
1210.5475
1210.547218
1210.54667
1210.545984
1210.545217
1210.544483
1210.543769
1210.543105
1210.542593
1210.523984
1210.526407
1210.528738
1210.530749
1210.532418
1210.533725
1210.534729
1210.535509
1210.536064
1210.536472
1210.536762
1210.536967
1210.537095
1210.537179
1210.521027
1210.522185
1210.523535
1210.524939
1210.526382
1210.52773
1210.529005
1210.530113
1210.531127
1210.531985
1210.532746
1210.533414
1210.533977
1210.534376
1210.520523
1210.521659
1210.523065
1210.524605
1210.526149
1210.527653
1210.529069
1210.530315
1210.53143
1210.532392
1210.53322
1210.533911
1210.534502
1210.534981
1210.535315
1210.522605
1210.525698
1210.528653
1210.531158
1210.533144
1210.53464
1210.535732
1210.53652
1210.537058
1210.537399
1210.537627
1210.537727
1210.537744
1210.537751
1210.537741
1210.538203
1210.547423
1210.55262
1210.554852
1210.555229
1210.554606
1210.553459
1210.552076
1210.550644
1210.549234
1210.547926
1210.546703
1210.545619
1210.544699
1210.544019
1210.618371
1210.629688
1210.621548
1210.608929
1210.596818
1210.586503
1210.578069
1210.571268
1210.565749
1210.561272
1210.5576
1210.554558
1210.552044
1210.549972
1210.548496
1209.860863
1209.722196
1209.644874
1209.599206
1209.570561
1209.551514
1209.538145
1209.528288
1209.520705
1209.514658
1209.509702
1209.505566
1209.502073
1209.499338
1210.62979
1210.621637
1210.609004
1210.596888
1210.586571
1210.578142
1210.571356
1210.565841
1210.561373
1210.557704
1210.554662
1210.552125
1210.550026
1210.548543
1210.547732
1210.552929
1210.555184
1210.555594
1210.554971
1210.553798
1210.552413
1210.550998
1210.549573
1210.548232
1210.54703
1210.545938
1210.544989
1210.544277
1210.526558
1210.529512
1210.531981
1210.533969
1210.535452
1210.536533
1210.537326
1210.537858
1210.538206
1210.538426
1210.538525
1210.538579
1210.53858
1210.53857
1210.521861
1210.52327
1210.524801
1210.52635
1210.527839
1210.529241
1210.53048
1210.53159
1210.532553
1210.533383
1210.53406
1210.534624
1210.535117
1210.535437
1210.520321
1210.521206
1210.522378
1210.523711
1210.525134
1210.526559
1210.527939
1210.529193
1210.530321
1210.531315
1210.532214
1210.532959
1210.53363
1210.53419
1210.534561
1210.521403
1210.523628
1210.526044
1210.528381
1210.530391
1210.532069
1210.533358
1210.534375
1210.535151
1210.535716
1210.536123
1210.536418
1210.536627
1210.536769
1210.536867
1210.528812
1210.535184
1210.540398
1210.544006
1210.546152
1210.547145
1210.547391
1210.547128
1210.5466
1210.545886
1210.545141
1210.544367
1210.54364
1210.542994
1210.542489
1210.552473
1210.567255
1210.573849
1210.574957
1210.573105
1210.56991
1210.566323
1210.562819
1210.559577
1210.556672
1210.554141
1210.55193
1210.550029
1210.548432
1210.547273
1210.618439
1210.629735
1210.621578
1210.608988
1210.596859
1210.586536
1210.57811
1210.571302
1210.56582
1210.561336
1210.557649
1210.554618
1210.55208
1210.550003
1210.548515
1210.552776
1210.567557
1210.57418
1210.575295
1210.573418
1210.570208
1210.566611
1210.563078
1210.559836
1210.556935
1210.554422
1210.55224
1210.550351
1210.548751
1210.547581
1210.534418
1210.539675
1210.543268
1210.545398
1210.546392
1210.546651
1210.546389
1210.545847
1210.545184
1210.544418
1210.543656
1210.542939
1210.542281
1210.541743
1210.524578
1210.526976
1210.529311
1210.531337
1210.532996
1210.534318
1210.535341
1210.536134
1210.536709
1210.537156
1210.537442
1210.537658
1210.5378
1210.53787
1210.521383
1210.522553
1210.523902
1210.525326
1210.526744
1210.528096
1210.529325
1210.530445
1210.531444
1210.532316
1210.533069
1210.533743
1210.534287
1210.534672
1210.519964
1210.520498
1210.521256
1210.522177
1210.523242
1210.524355
1210.525497
1210.526629
1210.527714
1210.528727
1210.52965
1210.530516
1210.531281
1210.531949
1210.532438
1210.520997
1210.522176
1210.523654
1210.525237
1210.526825
1210.528271
1210.529612
1210.530769
1210.531757
1210.532599
1210.533322
1210.53393
1210.534414
1210.534822
1210.535109
1210.523021
1210.525957
1210.529055
1210.531857
1210.534169
1210.535912
1210.537176
1210.538007
1210.538558
1210.538833
1210.538965
1210.53899
1210.538968
1210.538884
1210.538795
1210.529052
1210.535421
1210.540636
1210.544266
1210.546405
1210.547401
1210.547599
1210.547346
1210.546806
1210.546119
1210.545379
1210.544625
1210.543896
1210.543205
1210.542717
1210.537784
1210.547002
1210.552195
1210.554453
1210.55485
1210.554203
1210.553072
1210.55165
1210.550213
1210.548795
1210.547482
1210.546305
1210.545242
1210.544292
1210.543533
1210.528838
1210.53521
1210.540426
1210.544041
1210.546198
1210.547232
1210.547461
1210.547205
1210.546658
1210.545949
1210.545191
1210.544432
1210.543708
1210.543027
1210.542531
1210.523319
1210.526263
1210.529343
1210.532152
1210.534451
1210.536196
1210.537458
1210.538306
1210.538829
1210.539142
1210.539267
1210.539242
1210.539201
1210.539115
1210.538999
1210.521084
1210.522539
1210.524145
1210.525739
1210.527214
1210.528561
1210.529724
1210.530723
1210.531572
1210.532294
1210.532891
1210.53339
1210.533812
1210.534089
1210.52039
1210.521157
1210.522105
1210.523178
1210.524305
1210.525452
1210.526579
1210.527665
1210.528674
1210.529579
1210.530434
1210.531191
1210.531861
1210.532331
1210.518774
1210.519061
1210.519494
1210.520062
1210.520758
1210.521563
1210.522435
1210.523347
1210.524254
1210.525204
1210.526146
1210.527037
1210.527859
1210.528614
1210.529206
1210.519329
1210.519877
1210.52063
1210.52153
1210.522534
1210.523638
1210.524736
1210.525827
1210.526846
1210.527826
1210.528696
1210.529505
1210.530214
1210.530875
1210.531379
1210.520684
1210.521878
1210.52333
1210.524894
1210.526482
1210.527979
1210.529326
1210.53049
1210.531475
1210.532318
1210.533019
1210.533617
1210.534142
1210.534513
1210.534837
1210.521571
1210.523815
1210.526227
1210.52853
1210.530556
1210.53222
1210.533535
1210.534566
1210.535344
1210.535902
1210.536293
1210.536596
1210.536805
1210.536933
1210.536988
1210.523449
1210.526541
1210.529513
1210.531989
1210.533965
1210.535467
1210.536564
1210.53732
1210.537872
1210.538253
1210.538482
1210.53861
1210.538629
1210.538629
1210.538632
1210.521438
1210.523692
1210.526127
1210.528487
1210.530505
1210.532181
1210.533534
1210.534563
1210.535359
1210.535935
1210.536332
1210.536619
1210.536799
1210.536919
1210.537005
1210.520309
1210.521482
1210.522946
1210.524539
1210.526129
1210.527618
1210.528965
1210.530135
1210.531128
1210.531987
1210.532702
1210.533325
1210.533818
1210.534222
1210.534499
1210.519618
1210.520147
1210.520896
1210.521834
1210.522864
1210.523933
1210.525013
1210.526064
1210.527083
1210.52803
1210.528933
1210.529734
1210.530474
1210.531126
1210.531592
1210.51946
1210.519883
1210.520452
1210.521157
1210.52196
1210.522834
1210.523744
1210.524669
1210.525625
1210.526546
1210.527427
1210.528252
1210.528992
1210.529561
1210.519523
1210.5197
1210.519937
1210.52031
1210.520804
1210.521394
1210.522099
1210.52287
1210.523693
1210.524544
1210.525421
1210.526318
1210.527171
1210.527967
1210.52861
1210.519356
1210.519652
1210.520046
1210.520636
1210.521333
1210.522135
1210.523013
1210.523915
1210.524842
1210.525787
1210.526686
1210.527557
1210.528393
1210.52916
1210.529754
1210.520116
1210.520659
1210.521431
1210.522361
1210.523432
1210.524569
1210.52571
1210.526842
1210.527942
1210.528944
1210.529881
1210.530755
1210.531497
1210.53215
1210.532644
1210.519267
1210.520174
1210.521345
1210.522705
1210.524122
1210.525547
1210.526907
1210.528127
1210.529252
1210.530272
1210.531163
1210.531913
1210.532554
1210.533111
1210.533484
1210.519807
1210.520948
1210.522365
1210.523886
1210.525449
1210.526943
1210.528313
1210.529564
1210.530665
1210.531621
1210.532448
1210.533101
1210.533693
1210.534169
1210.534513
1210.519653
1210.520563
1210.52172
1210.523067
1210.524495
1210.525912
1210.527246
1210.528519
1210.529659
1210.530666
1210.531544
1210.532328
1210.532971
1210.533521
1210.533909
1210.51939
1210.519921
1210.520675
1210.521616
1210.522683
1210.523812
1210.524974
1210.526096
1210.527175
1210.528196
1210.529131
1210.529965
1210.530739
1210.531415
1210.531919
1210.518804
1210.519095
1210.519537
1210.520118
1210.520813
1210.521583
1210.522457
1210.523404
1210.524338
1210.525266
1210.526192
1210.527097
1210.527956
1210.528686
1210.529285
1210.51903
1210.51919
1210.519449
1210.519826
1210.520303
1210.520909
1210.521583
1210.522363
1210.523187
1210.524056
1210.524927
1210.525812
1210.526657
1210.527448
1210.528082
)
;

boundaryField
{
    top
    {
        type            calculated;
        value           nonuniform List<scalar> 
127
(
1210.51903
1210.51984
1210.520096
1210.51978
1210.521027
1210.521861
1210.521383
1210.52039
1210.51946
1210.51919
1210.520102
1210.520517
1210.520536
1210.522185
1210.52327
1210.522553
1210.521157
1210.519883
1210.519449
1210.520484
1210.521075
1210.521478
1210.523535
1210.524801
1210.523902
1210.522105
1210.520452
1210.519826
1210.520978
1210.521761
1210.522549
1210.524939
1210.52635
1210.525326
1210.523178
1210.521157
1210.520303
1210.521582
1210.522567
1210.523673
1210.526382
1210.527839
1210.526744
1210.524305
1210.52196
1210.520909
1210.522279
1210.523427
1210.524799
1210.52773
1210.529241
1210.528096
1210.525452
1210.522834
1210.521583
1210.523068
1210.524327
1210.525913
1210.529005
1210.53048
1210.529325
1210.526579
1210.523744
1210.522363
1210.523881
1210.525254
1210.52699
1210.530113
1210.53159
1210.530445
1210.527665
1210.524669
1210.523187
1210.524745
1210.526201
1210.527992
1210.531127
1210.532553
1210.531444
1210.528674
1210.525625
1210.524056
1210.525622
1210.527114
1210.528911
1210.531985
1210.533383
1210.532316
1210.529579
1210.526546
1210.524927
1210.526505
1210.528014
1210.529747
1210.532746
1210.53406
1210.533069
1210.530434
1210.527427
1210.525812
1210.52735
1210.528833
1210.530501
1210.533414
1210.534624
1210.533743
1210.531191
1210.528252
1210.526657
1210.528136
1210.529587
1210.531152
1210.533977
1210.535117
1210.534287
1210.531861
1210.528992
1210.527448
1210.528763
1210.530158
1210.531632
1210.534376
1210.535437
1210.534672
1210.532331
1210.529561
1210.528082
)
;
    }
    bottom
    {
        type            calculated;
        value           nonuniform List<scalar> 
134
(
1210.518964
1210.519427
1210.520017
1210.520523
1210.520321
1210.519964
1210.518774
1210.519523
1210.519162
1210.519247
1210.519959
1210.520906
1210.521659
1210.521206
1210.520498
1210.519061
1210.5197
1210.519411
1210.519676
1210.520711
1210.522089
1210.523065
1210.522378
1210.521256
1210.519494
1210.519937
1210.519796
1210.520261
1210.521645
1210.523449
1210.524605
1210.523711
1210.522177
1210.520062
1210.52031
1210.520292
1210.520961
1210.522706
1210.524863
1210.526149
1210.525134
1210.523242
1210.520758
1210.520804
1210.52088
1210.521742
1210.52386
1210.526269
1210.527653
1210.526559
1210.524355
1210.521563
1210.521394
1210.521602
1210.522614
1210.524998
1210.52763
1210.529069
1210.527939
1210.525497
1210.522435
1210.522099
1210.522369
1210.523526
1210.526146
1210.528888
1210.530315
1210.529193
1210.526629
1210.523347
1210.52287
1210.523199
1210.524464
1210.527219
1210.530018
1210.53143
1210.530321
1210.527714
1210.524254
1210.523693
1210.524072
1210.525405
1210.528249
1210.531012
1210.532392
1210.531315
1210.528727
1210.525204
1210.524544
1210.524973
1210.526338
1210.529184
1210.531894
1210.53322
1210.532214
1210.52965
1210.526146
1210.525421
1210.525867
1210.527213
1210.530037
1210.532643
1210.533911
1210.532959
1210.530516
1210.527037
1210.526318
1210.526729
1210.528059
1210.530768
1210.533317
1210.534502
1210.53363
1210.531281
1210.527859
1210.527171
1210.52751
1210.528809
1210.531414
1210.533844
1210.534981
1210.53419
1210.531949
1210.528614
1210.527967
1210.52815
1210.52941
1210.531899
1210.534247
1210.535315
1210.534561
1210.532438
1210.529206
1210.52861
)
;
    }
    side-walls
    {
        type            calculated;
        value           nonuniform List<scalar> 
261
(
1210.519162
1210.519554
1210.519809
1210.520598
1210.52166
1210.521533
1210.519914
1210.519552
1210.51984
1210.519411
1210.520013
1210.520548
1210.521782
1210.523059
1210.522711
1210.520686
1210.519969
1210.520102
1210.519796
1210.52059
1210.521477
1210.523124
1210.52458
1210.524049
1210.521623
1210.520537
1210.520484
1210.520292
1210.521272
1210.52256
1210.52456
1210.52613
1210.525452
1210.522658
1210.521227
1210.520978
1210.52088
1210.52206
1210.52372
1210.525988
1210.527647
1210.526855
1210.523781
1210.522016
1210.521582
1210.521602
1210.522939
1210.524854
1210.527344
1210.529038
1210.528198
1210.524939
1210.522903
1210.522279
1210.522369
1210.523875
1210.525993
1210.528625
1210.53031
1210.529439
1210.526084
1210.523826
1210.523068
1210.523199
1210.524837
1210.527078
1210.529747
1210.531422
1210.530595
1210.52715
1210.52477
1210.523881
1210.524072
1210.525781
1210.528113
1210.530751
1210.53239
1210.53158
1210.52818
1210.525721
1210.524745
1210.524973
1210.526715
1210.529051
1210.531617
1210.533211
1210.532481
1210.529083
1210.526664
1210.525622
1210.525867
1210.527586
1210.529899
1210.532377
1210.533912
1210.533228
1210.529927
1210.527537
1210.526505
1210.526729
1210.52841
1210.53068
1210.533034
1210.53449
1210.533901
1210.530684
1210.528366
1210.52735
1210.52751
1210.529192
1210.531351
1210.533581
1210.534973
1210.534439
1210.531356
1210.529121
1210.528136
1210.52815
1210.52977
1210.53187
1210.53396
1210.535323
1210.534812
1210.531866
1210.529706
1210.528763
1210.519523
1210.519356
1210.520116
1210.519267
1210.519807
1210.519653
1210.51939
1210.518804
1210.51903
1210.5197
1210.519652
1210.520659
1210.520174
1210.520948
1210.520563
1210.519921
1210.519095
1210.51919
1210.519937
1210.520046
1210.521431
1210.521345
1210.522365
1210.52172
1210.520675
1210.519537
1210.519449
1210.52031
1210.520636
1210.522361
1210.522705
1210.523886
1210.523067
1210.521616
1210.520118
1210.519826
1210.520804
1210.521333
1210.523432
1210.524122
1210.525449
1210.524495
1210.522683
1210.520813
1210.520303
1210.521394
1210.522135
1210.524569
1210.525547
1210.526943
1210.525912
1210.523812
1210.521583
1210.520909
1210.522099
1210.523013
1210.52571
1210.526907
1210.528313
1210.527246
1210.524974
1210.522457
1210.521583
1210.52287
1210.523915
1210.526842
1210.528127
1210.529564
1210.528519
1210.526096
1210.523404
1210.522363
1210.523693
1210.524842
1210.527942
1210.529252
1210.530665
1210.529659
1210.527175
1210.524338
1210.523187
1210.524544
1210.525787
1210.528944
1210.530272
1210.531621
1210.530666
1210.528196
1210.525266
1210.524056
1210.525421
1210.526686
1210.529881
1210.531163
1210.532448
1210.531544
1210.529131
1210.526192
1210.524927
1210.526318
1210.527557
1210.530755
1210.531913
1210.533101
1210.532328
1210.529965
1210.527097
1210.525812
1210.527171
1210.528393
1210.531497
1210.532554
1210.533693
1210.532971
1210.530739
1210.527956
1210.526657
1210.527967
1210.52916
1210.53215
1210.533111
1210.534169
1210.533521
1210.531415
1210.528686
1210.527448
1210.52861
1210.529754
1210.532644
1210.533484
1210.534513
1210.533909
1210.531919
1210.529285
1210.528082
)
;
    }
    inlet
    {
        type            calculated;
        value           nonuniform 0();
    }
    outlet
    {
        type            calculated;
        value           nonuniform List<scalar> 
81
(
1210.52815
1210.52977
1210.53187
1210.53396
1210.535323
1210.534812
1210.531866
1210.529706
1210.528763
1210.52941
1210.531662
1210.534888
1210.537297
1210.538829
1210.53671
1210.535261
1210.531173
1210.530158
1210.531899
1210.534687
1210.537987
1210.542523
1210.543034
1210.542519
1210.538013
1210.535357
1210.531632
1210.534247
1210.537969
1210.542178
1210.54781
1210.548666
1210.547075
1210.542593
1210.537179
1210.534376
1210.535315
1210.537741
1210.544019
1210.548496
1209.499338
1210.548543
1210.544277
1210.53857
1210.535437
1210.534561
1210.536867
1210.542489
1210.547273
1210.548515
1210.547581
1210.541743
1210.53787
1210.534672
1210.532438
1210.535109
1210.538795
1210.542717
1210.543533
1210.542531
1210.538999
1210.534089
1210.532331
1210.529206
1210.531379
1210.534837
1210.536988
1210.538632
1210.537005
1210.534499
1210.531592
1210.529561
1210.52861
1210.529754
1210.532644
1210.533484
1210.534513
1210.533909
1210.531919
1210.529285
1210.528082
)
;
    }
    procBoundary1to0
    {
        type            processor;
        value           nonuniform List<scalar> 
97
(
1210.51901
1210.51901
1210.519256
1210.519276
1210.519672
1210.520518
1210.520655
1210.519367
1210.519269
1210.519664
1210.518792
1210.519722
1210.519722
1210.519722
1210.520643
1210.521692
1210.523688
1210.52127
1210.521118
1210.519138
1210.519801
1210.519115
1210.519753
1210.522213
1210.522213
1210.522213
1210.528919
1210.537203
1210.52873
1210.522197
1210.521123
1210.519254
1210.519384
1210.520821
1210.522615
1210.552988
1210.552988
1210.552988
1210.618618
1210.552296
1210.528958
1210.521754
1210.52009
1210.519722
1210.519991
1210.525883
1210.546245
1210.122785
1210.122785
1210.122785
1210.618469
1210.618469
1210.538521
1210.523465
1210.520716
1210.519764
1210.519796
1210.522932
1210.530682
1210.546293
1210.530983
1210.528049
1210.528049
1210.528049
1210.52234
1210.520472
1210.519648
1210.520183
1210.520847
1210.523193
1210.525501
1210.522978
1210.521132
1210.519885
1210.519885
1210.519885
1210.519843
1210.51859
1210.518999
1210.519895
1210.519953
1210.520828
1210.519811
1210.519548
1210.519291
1210.519184
1210.519184
1210.519184
1210.519437
1210.519193
1210.519778
1210.518677
1210.519037
1210.519066
1210.519067
1210.518624
1210.51894
)
;
    }
}


// ************************************************************************* //
