/*--------------------------------*- C++ -*----------------------------------*\
| =========                 |                                                 |
| \\      /  F ield         | OpenFOAM: The Open Source CFD Toolbox           |
|  \\    /   O peration     | Version:  4.x                                   |
|   \\  /    A nd           | Web:      www.OpenFOAM.org                      |
|    \\/     M anipulation  |                                                 |
\*---------------------------------------------------------------------------*/
FoamFile
{
    version     2.0;
    format      ascii;
    class       surfaceScalarField;
    location    "4000";
    object      phi;
}
// * * * * * * * * * * * * * * * * * * * * * * * * * * * * * * * * * * * * * //

dimensions      [1 0 -1 0 0 0 0];

internalField   nonuniform List<scalar> 
3172
(
9.498044823e-06
-2.5212123e-11
-2.506142572e-11
9.498093322e-06
-2.31569756e-11
-2.314565298e-11
9.498127895e-06
-1.797407703e-11
-1.924430852e-11
9.498149356e-06
-1.314441364e-11
-1.380789112e-11
9.498167113e-06
-8.820492287e-12
-8.660856086e-12
9.498177194e-06
-5.62254211e-12
-4.166442781e-12
9.498182477e-06
-3.010406572e-12
-1.898957964e-12
9.498180188e-06
-1.32765498e-12
-1.246187268e-12
9.49817868e-06
7.309011852e-13
1.610444708e-12
9.498173411e-06
2.718477721e-12
3.229870201e-12
9.498168152e-06
3.371768372e-12
4.731556901e-12
9.498158901e-06
2.728992562e-12
2.866395339e-12
9.498147939e-06
3.711947356e-12
4.146400763e-12
4.333410993e-12
5.62422496e-12
9.498053551e-06
-4.463948454e-11
-2.941394731e-11
9.498102164e-06
-4.057520794e-11
-3.035044671e-11
9.498132608e-06
-3.112643122e-11
-2.352094161e-11
9.498151087e-06
-2.273465233e-11
-1.592016242e-11
9.498163584e-06
-1.295983115e-11
-7.57494462e-12
9.498168864e-06
-6.365679748e-12
-2.584691876e-12
9.498168665e-06
-2.193721395e-12
2.586598292e-13
9.49816423e-06
1.293930035e-12
2.267764404e-12
9.49816145e-06
4.165138007e-12
3.35903973e-12
9.498153694e-06
3.303063909e-12
2.283331968e-12
9.498149092e-06
4.807893696e-12
3.988481153e-12
9.498140425e-06
5.530301265e-12
4.239599802e-12
9.498132794e-06
7.993724605e-12
5.408405863e-12
7.469442606e-12
5.26553825e-12
9.498109559e-06
-4.054299831e-11
-5.678896663e-11
9.498155948e-06
-3.807446292e-11
-5.267663942e-11
9.498178264e-06
-2.469889855e-11
-3.041810675e-11
9.498189912e-06
-1.247109462e-11
-1.49429741e-11
9.498186831e-06
-6.775241049e-12
-5.741440019e-12
9.498182803e-06
-2.552509416e-12
6.857603446e-13
9.498179184e-06
4.740880171e-13
3.904933176e-12
9.498169477e-06
8.156188605e-13
5.169162798e-12
9.498160729e-06
2.986562278e-12
5.860171705e-12
9.498154812e-06
4.35403435e-12
5.756563259e-12
9.498149355e-06
4.14791212e-12
4.490587423e-12
9.498142616e-06
4.815457734e-12
3.911614206e-12
9.498135436e-06
8.337302573e-12
5.248684627e-12
6.243936483e-12
5.643812746e-12
9.498136821e-06
-3.153761207e-11
-4.331660431e-11
9.498175396e-06
-2.308839852e-11
-5.630507269e-11
9.498191684e-06
-1.277723687e-11
-2.634598172e-11
9.498190912e-06
-6.111054643e-12
-7.38128423e-12
9.498182486e-06
-3.001036793e-12
1.693687913e-12
9.498172913e-06
-7.597145315e-13
7.824744704e-12
9.498163641e-06
1.719180301e-12
9.676598328e-12
9.498155287e-06
1.633493444e-12
1.061543641e-11
9.498149163e-06
7.396544613e-13
9.49626826e-12
9.498141966e-06
-1.705390776e-13
7.890342236e-12
9.498140459e-06
1.996454825e-12
7.285880106e-12
9.498139124e-06
1.287423069e-12
6.693831577e-12
9.498131702e-06
1.211258603e-12
6.645624155e-12
2.968262153e-12
7.226568094e-12
9.498172313e-06
3.160928207e-11
-8.31391036e-11
9.498191517e-06
2.193666233e-11
-6.020010272e-11
9.498187573e-06
1.308644048e-11
-1.930979102e-11
9.498174374e-06
5.740204069e-12
2.606254969e-12
9.498159059e-06
6.696948124e-13
8.661191563e-12
9.49814771e-06
9.534963784e-14
1.151296084e-11
9.498135354e-06
-1.465876833e-12
1.054719279e-11
9.498126073e-06
-2.931797842e-12
9.067915286e-12
9.49811979e-06
-3.269323479e-12
9.597044353e-12
9.498115801e-06
-1.586561622e-12
8.64878873e-12
9.498113197e-06
-2.164670483e-12
7.702189097e-12
9.498111196e-06
-1.414665173e-12
6.002277889e-12
9.498108121e-06
-1.906641884e-12
7.003796066e-12
-9.114975721e-13
7.654508046e-12
9.498084874e-06
4.048840416e-11
-4.316500396e-11
9.498128725e-06
3.652340514e-11
-5.663377075e-11
9.498142523e-06
2.20907364e-11
-2.701295794e-11
9.498142885e-06
1.152919341e-11
-7.215772663e-12
9.498140621e-06
6.053164279e-12
3.397456786e-12
9.498129754e-06
2.196216603e-12
7.525692983e-12
9.498117983e-06
-9.827489848e-13
8.656954021e-12
9.49811127e-06
-3.196288721e-12
1.055593798e-11
9.498105134e-06
-4.486129759e-12
9.772068207e-12
9.498099384e-06
-4.911709971e-12
8.311973617e-12
9.498096611e-06
-4.11544849e-12
8.972753113e-12
9.498093256e-06
-4.762597124e-12
6.919854029e-12
9.498089222e-06
-6.898203083e-12
7.56564768e-12
-6.934632412e-12
6.326696244e-12
9.498101418e-06
4.497731643e-11
-5.749079643e-11
9.498149414e-06
4.041450634e-11
-5.236696844e-11
9.498173476e-06
2.922451636e-11
-3.063252543e-11
9.49818192e-06
1.913601914e-11
-1.487444153e-11
9.498185625e-06
1.200259151e-11
-5.056523352e-12
9.498177476e-06
3.397604786e-12
3.301374247e-13
9.498170636e-06
2.721202613e-13
3.859718114e-12
9.498164145e-06
-1.511745644e-12
6.453943941e-12
9.498159992e-06
-2.646008591e-12
7.454030533e-12
9.498154066e-06
-3.629020722e-12
6.398414734e-12
9.498147559e-06
-5.770995943e-12
6.542593556e-12
9.498143341e-06
-6.471183422e-12
7.216947345e-12
9.498135851e-06
-6.796362995e-12
7.012410416e-12
-6.739984731e-12
7.837182133e-12
9.498052093e-06
2.37131199e-11
-2.93085048e-11
9.498101684e-06
2.44104329e-11
-3.007796286e-11
9.498134536e-06
1.747109411e-11
-2.082002956e-11
9.498154295e-06
1.156138352e-11
-1.380389798e-11
9.498166259e-06
6.644588822e-12
-7.966029361e-12
9.49817109e-06
2.209066994e-12
-3.570672592e-12
9.498171023e-06
1.367833716e-12
-7.728303766e-13
9.498168308e-06
6.157373284e-13
3.166990279e-12
9.498164672e-06
-2.498388165e-12
4.389076585e-12
9.498156936e-06
-2.984642242e-12
3.534326841e-12
9.498150567e-06
-3.213750548e-12
5.48785939e-12
9.498144944e-06
-3.748932469e-12
6.413203712e-12
9.498133673e-06
-5.502779247e-12
5.800420127e-12
-4.221194923e-12
6.088148564e-12
9.498011117e-06
-2.217796592e-11
9.498053418e-06
-2.173201876e-11
9.498088498e-06
-1.643817973e-11
9.498112218e-06
-1.279754915e-11
9.498130879e-06
-9.385070811e-12
9.498141465e-06
-5.175715247e-12
9.498145095e-06
-2.934916876e-12
9.498143634e-06
-3.187126667e-13
9.498144371e-06
1.415699448e-12
9.498140214e-06
1.800543868e-12
9.498132133e-06
4.442541374e-12
9.498127335e-06
5.64307649e-12
9.498117086e-06
5.639190271e-12
4.141789529e-12
9.498019776e-06
-8.386590424e-11
9.498070061e-06
-2.929756797e-11
-4.543809126e-11
9.498116686e-06
-3.029068973e-11
-4.230791627e-11
9.498150601e-06
-2.142198617e-11
-3.025188123e-11
9.498168355e-06
-1.434476908e-11
-2.042482254e-11
9.498182212e-06
-7.299455936e-12
-1.211228503e-11
9.498186563e-06
-3.77815471e-12
-6.367922267e-12
9.498186451e-06
-2.035812383e-14
-1.048482273e-12
9.498182446e-06
2.273272447e-12
6.928613423e-13
9.498179433e-06
2.621483639e-12
1.701772161e-12
9.498174125e-06
3.787509925e-12
4.427227422e-12
9.498168499e-06
4.355663479e-12
6.14706356e-12
9.498159838e-06
4.562128247e-12
6.836495637e-12
9.49815235e-06
6.30227439e-12
1.05038372e-11
5.362814862e-12
8.016272542e-12
9.498075151e-06
-4.990504952e-11
-5.257018069e-11
9.498118314e-06
-5.200614542e-11
-5.309827233e-11
9.498144452e-06
-3.362645954e-11
-3.441711564e-11
9.498155471e-06
-1.918070109e-11
-1.789554345e-11
9.498156746e-06
-1.075321283e-11
-9.478911649e-12
9.498156999e-06
-2.577708154e-12
-1.963919555e-12
9.498154606e-06
1.899227618e-12
2.548340887e-12
9.498148292e-06
5.681395227e-12
4.642778535e-12
9.498143727e-06
7.950333709e-12
4.547483677e-12
9.498138776e-06
7.179993597e-12
6.090091623e-12
9.498135234e-06
7.334800468e-12
8.849856526e-12
9.498128356e-06
7.532310733e-12
7.188283375e-12
9.498123672e-06
9.547262671e-12
1.018381938e-11
8.835151306e-12
8.835582786e-12
9.498126168e-06
-4.491042039e-11
-1.014911719e-10
9.49815716e-06
-4.567393641e-11
-8.967068041e-11
9.49815853e-06
-2.482006761e-11
-4.338221599e-11
9.498149862e-06
-8.693740567e-12
-1.492421163e-11
9.498140469e-06
-1.041981618e-12
-6.148207362e-13
9.498128836e-06
4.455865885e-12
7.53103535e-12
9.498122787e-06
6.225696055e-12
1.042568174e-11
9.49811495e-06
5.962807843e-12
1.17821823e-11
9.49810933e-06
6.486528918e-12
9.670057833e-12
9.498107895e-06
7.445007347e-12
1.009598888e-11
9.498105222e-06
6.646225735e-12
1.053780294e-11
9.498103395e-06
7.247506791e-12
9.051341607e-12
9.498103072e-06
9.896411802e-12
1.148017671e-11
7.847326343e-12
1.010624098e-11
9.498172905e-06
-2.09308921e-11
-3.32003147e-11
9.498179397e-06
-2.278437065e-11
-8.959287421e-11
9.49816863e-06
-1.060308434e-11
-2.891864542e-11
9.498149532e-06
-2.462063013e-12
3.871992958e-12
9.498134847e-06
1.199619375e-12
1.538562325e-11
9.498123481e-06
1.936941258e-12
1.836667474e-11
9.498119852e-06
3.346648399e-12
1.873458645e-11
9.49811565e-06
1.554440122e-12
1.773675359e-11
9.498113806e-06
1.464985937e-12
1.19772344e-11
9.498115203e-06
1.93085925e-12
1.055607801e-11
9.498118665e-06
2.547450413e-12
1.123054405e-11
9.498120701e-06
1.255702857e-12
9.244560042e-12
9.498121529e-06
2.619250996e-12
1.323818244e-11
3.387116684e-12
1.043136844e-11
9.498252222e-06
1.984171662e-11
6.465186485e-12
9.498192792e-06
2.108977166e-11
-4.490112851e-11
9.498151061e-06
9.515009248e-12
2.774852958e-12
9.498119889e-06
9.876991118e-13
2.853581969e-11
9.498099531e-06
-2.265002958e-12
2.703318767e-11
9.498090079e-06
-3.12122326e-12
2.419341813e-11
9.498087348e-06
-3.995688996e-12
1.903118299e-11
9.498088504e-06
-2.563918285e-12
1.543300754e-11
9.498086912e-06
-4.270544307e-12
1.153620289e-11
9.498091629e-06
-3.378934318e-12
1.122278802e-11
9.498095039e-06
-1.550601227e-12
9.85337873e-12
9.498098403e-06
-2.020979826e-12
9.819129664e-12
9.498100697e-06
-3.306812682e-12
1.234969359e-11
-3.683258922e-12
1.053510182e-11
9.498194704e-06
4.365940065e-11
-3.135477801e-11
9.498204041e-06
4.548597593e-11
-8.842072028e-11
9.498193394e-06
2.304958749e-11
-2.919735553e-11
9.498175534e-06
8.804731087e-12
5.452105084e-12
9.498160137e-06
6.263454309e-13
1.601987605e-11
9.498149441e-06
-4.00265893e-12
1.995682008e-11
9.49814458e-06
-5.893424343e-12
1.860278305e-11
9.49814202e-06
-7.183702059e-12
1.568573172e-11
9.498142453e-06
-6.797117837e-12
1.388360024e-11
9.498143885e-06
-6.672788873e-12
1.14327737e-11
9.498143452e-06
-7.109933738e-12
9.439646832e-12
9.498147702e-06
-5.973006372e-12
1.081547101e-11
9.498147834e-06
-7.874922496e-12
1.280434715e-11
-5.806916467e-12
1.291046534e-11
9.49810123e-06
5.191394518e-11
-9.863663703e-11
9.498132741e-06
5.278678632e-11
-8.756888482e-11
9.498138648e-06
3.51564535e-11
-4.142260774e-11
9.498128426e-06
1.923756257e-11
-1.497558914e-11
9.498121082e-06
8.787122424e-12
-1.766117229e-12
9.498109773e-06
-2.594979631e-13
7.548624183e-12
9.49809959e-06
-4.33174141e-12
1.087518062e-11
9.498093996e-06
-5.318256078e-12
1.172886703e-11
9.498090801e-06
-6.072946453e-12
1.056971398e-11
9.49808758e-06
-7.031651889e-12
8.035114242e-12
9.498086842e-06
-7.115059977e-12
1.03789838e-11
9.498085676e-06
-7.191380449e-12
8.903825752e-12
9.498083954e-06
-8.310445233e-12
1.016404758e-11
-8.422546662e-12
9.979737594e-12
9.498101421e-06
2.941062788e-11
-5.18690682e-11
9.498145911e-06
3.253151909e-11
-5.161584047e-11
9.49817035e-06
2.112469647e-11
-3.376994638e-11
9.498180137e-06
1.175134026e-11
-1.821012635e-11
9.498182847e-06
5.86916276e-12
-8.904075931e-12
9.498183268e-06
1.150458287e-12
-1.146431318e-12
9.498178361e-06
-8.516447758e-13
3.276025664e-12
9.498173199e-06
-2.744441746e-12
4.145109769e-12
9.498169283e-06
-4.664677734e-12
6.470428991e-12
9.498162007e-06
-4.17096817e-12
6.480443572e-12
9.498158207e-06
-4.41064752e-12
7.755013003e-12
9.498154159e-06
-4.617143116e-12
7.422481468e-12
9.498147188e-06
-6.141777887e-12
6.759213185e-12
-5.643795926e-12
7.727223616e-12
9.49802626e-06
-4.259248311e-11
9.498072639e-06
-3.959060171e-11
9.498104982e-06
-2.847592464e-11
9.498127923e-06
-1.726483892e-11
9.498139203e-06
-1.011457696e-11
9.49814594e-06
-4.032292031e-12
9.49814524e-06
-9.59205634e-13
9.498141997e-06
1.416468711e-12
9.498139925e-06
4.978941491e-12
9.498134263e-06
5.209769512e-12
9.49812683e-06
5.78948342e-12
9.498119135e-06
4.105442476e-12
9.498112185e-06
6.547036037e-12
6.440736227e-12
9.49804239e-06
-1.449473417e-10
-1.038473689e-10
9.498099854e-06
-5.626992559e-11
-4.302367773e-11
9.498148009e-06
-5.119781661e-11
-3.920940589e-11
9.498170877e-06
-3.006324779e-11
-2.492055657e-11
9.498180428e-06
-1.22926047e-11
-1.304537732e-11
9.498179542e-06
-3.918668928e-12
-6.395640494e-12
9.498175848e-06
2.075775228e-12
-1.922706453e-12
9.498167375e-06
5.020236182e-12
3.014631959e-13
9.498160051e-06
7.141149436e-12
2.367122417e-12
9.498153583e-06
6.724454163e-12
3.092457813e-12
9.49814852e-06
6.643922923e-12
3.349579307e-12
9.498141524e-06
7.734306878e-12
4.110404637e-12
9.498139624e-06
7.091312223e-12
4.765904862e-12
9.498131237e-06
8.13728261e-12
6.239050551e-12
7.499233176e-12
7.27476855e-12
9.498097078e-06
-1.987348475e-10
9.498133072e-06
-9.726612493e-11
-4.576969812e-11
9.498162563e-06
-8.865345277e-11
-4.852652015e-11
9.49816837e-06
-4.251659584e-11
-2.568587932e-11
9.498158215e-06
-1.604593866e-11
-1.042762044e-11
9.498147921e-06
-1.978680937e-12
-2.804449493e-12
9.498137205e-06
6.362714384e-12
2.640070145e-12
9.498128506e-06
9.702145456e-12
4.341064402e-12
9.498122291e-06
1.24185702e-11
4.050690118e-12
9.498121899e-06
1.311338683e-11
6.502731761e-12
9.498118482e-06
1.120802593e-11
6.564377383e-12
9.498113648e-06
1.023853667e-11
5.615225723e-12
9.498114843e-06
1.001785764e-11
6.397210271e-12
9.498112147e-06
1.057353911e-11
7.898945959e-12
1.076123957e-11
7.625552604e-12
9.498283982e-06
-8.777626597e-11
-9.068957812e-11
9.498256271e-06
-7.351054644e-11
-7.705414443e-11
9.498207933e-06
-1.995112247e-11
-2.226946511e-11
9.498167437e-06
4.156977662e-12
2.768261546e-12
9.498145942e-06
1.21102648e-11
1.164363162e-11
9.49813088e-06
1.314029727e-11
1.354046851e-11
9.498128975e-06
1.495627097e-11
1.378384077e-11
9.498126074e-06
1.207466412e-11
1.034438793e-11
9.49813122e-06
9.532227423e-12
9.13759546e-12
9.498134758e-06
7.558134747e-12
6.998973072e-12
9.498137206e-06
8.028045276e-12
6.838889629e-12
9.498144649e-06
8.693200635e-12
6.434911548e-12
9.498151311e-06
1.217215666e-11
1.010224868e-11
8.16714173e-12
7.867660446e-12
9.498243509e-06
-3.522845997e-12
1.151317221e-10
9.498154808e-06
-2.497733351e-11
-5.27110954e-11
9.498090439e-06
-2.348825759e-12
1.58204861e-11
9.498054439e-06
8.229461191e-12
3.805006641e-11
9.498043383e-06
7.356032833e-12
3.281674308e-11
9.498047515e-06
7.124835908e-12
2.721362774e-11
9.498058477e-06
4.488005493e-12
1.912056494e-11
9.498065808e-06
2.202898405e-12
1.280513894e-11
9.498080681e-06
2.627382957e-12
1.06721861e-11
9.498092169e-06
3.95610981e-12
8.200566922e-12
9.498099829e-06
2.520616767e-12
6.961935597e-12
9.49810982e-06
3.321223351e-12
6.138673699e-12
9.498117453e-06
3.23824154e-12
8.426010469e-12
4.886507823e-12
9.803965955e-12
9.498495739e-06
3.898856619e-12
5.865136823e-10
9.498224061e-06
2.330052578e-11
1.780883561e-10
9.498120908e-06
-4.97848764e-14
1.056059931e-10
9.498086369e-06
-8.563754536e-12
8.053273668e-11
9.498086141e-06
-8.184111313e-12
4.466374419e-11
9.498098139e-06
-7.107105772e-12
2.487263599e-11
9.498115948e-06
-6.899598354e-12
1.416404163e-11
9.498129235e-06
-4.966819505e-12
9.871672996e-12
9.498143472e-06
-4.223331277e-12
6.670433467e-12
9.498153262e-06
-4.130259583e-12
4.222116021e-12
9.498163114e-06
-2.781168922e-12
4.246597371e-12
9.4981701e-06
-2.725337386e-12
3.727905278e-12
9.498179349e-06
-4.245844662e-12
9.31215208e-12
-2.845761234e-12
8.730843544e-12
9.49825016e-06
8.709591763e-11
1.161579284e-10
9.498160294e-06
7.364479609e-11
-5.11111815e-11
9.498097565e-06
2.127723915e-11
1.807310217e-11
9.498059964e-06
-5.363705041e-12
3.923943517e-11
9.498048235e-06
-1.377304597e-11
3.333970789e-11
9.498050937e-06
-1.535281537e-11
2.625761338e-11
9.498061423e-06
-1.381368424e-11
1.998869664e-11
9.498072348e-06
-1.185244757e-11
1.381171251e-11
9.498082801e-06
-1.023293778e-11
1.078579375e-11
9.498093056e-06
-1.037106134e-11
9.040111186e-12
9.498101763e-06
-9.119184104e-12
7.237941581e-12
9.498109421e-06
-8.632190321e-12
5.728764237e-12
9.498119429e-06
-1.123652091e-11
8.135670725e-12
-9.466896536e-12
8.962307905e-12
9.498283802e-06
9.939354129e-11
-8.689821754e-11
9.498257599e-06
8.987462495e-11
-7.59150289e-11
9.498209988e-06
4.307141633e-11
-1.928457526e-11
9.498169057e-06
1.505779723e-11
4.696477275e-12
9.498146668e-06
1.82302726e-12
1.436553881e-11
9.498132036e-06
-8.296432453e-12
1.459524931e-11
9.498128006e-06
-1.206273822e-11
1.360784033e-11
9.49812826e-06
-1.301539154e-11
1.239392089e-11
9.498131449e-06
-1.042478031e-11
1.125929949e-11
9.49813695e-06
-9.068462045e-12
9.653118423e-12
9.498140795e-06
-9.285327777e-12
8.339279403e-12
9.498145361e-06
-8.753464956e-12
7.240590936e-12
9.49815091e-06
-1.132623257e-11
9.703900748e-12
-1.085262175e-11
8.45533743e-12
9.498100038e-06
5.938271423e-11
-4.312190536e-11
9.498129633e-06
5.344632808e-11
-4.755416086e-11
9.498134368e-06
3.108722185e-11
-2.469368997e-11
9.498124679e-06
1.486969515e-11
-1.008328003e-11
9.498112462e-06
4.295268791e-12
1.026998738e-12
9.498102942e-06
-2.975603576e-12
3.676177634e-12
9.498094997e-06
-5.135771939e-12
5.571657873e-12
9.49809025e-06
-5.194360944e-12
8.717027618e-12
9.498084929e-06
-6.374065537e-12
7.454151646e-12
9.498083064e-06
-4.792605205e-12
8.203812869e-12
9.498079934e-06
-5.086630649e-12
5.752804573e-12
9.498076635e-06
-7.292768783e-12
5.414815724e-12
9.498076707e-06
-6.085305446e-12
8.204362474e-12
-5.975340597e-12
7.647536094e-12
9.498107498e-06
-4.123744393e-11
9.498155852e-06
-3.900644604e-11
9.498179839e-06
-2.349711204e-11
9.498189515e-06
-1.393552747e-11
9.49818965e-06
-5.659840447e-12
9.498188241e-06
1.473387687e-13
9.498181786e-06
1.933704475e-12
9.498175375e-06
3.001574989e-12
9.498168905e-06
2.966308535e-12
9.498163403e-06
3.917849335e-12
9.498156494e-06
2.901037744e-12
9.498152932e-06
4.858479053e-12
9.498146952e-06
6.743301753e-12
6.778121979e-12
9.498084121e-06
-2.206951633e-10
-1.003414463e-10
9.498119039e-06
-4.252680825e-11
-3.009587958e-11
9.498162668e-06
-5.603114834e-11
-2.038951683e-11
9.49817593e-06
-2.66475972e-11
-1.297079298e-11
9.498175704e-06
-5.986926572e-12
-5.118713341e-12
9.498168112e-06
3.131860744e-12
-1.903778363e-12
9.498158439e-06
7.788421437e-12
-3.247107147e-13
9.498149195e-06
1.002316246e-11
1.080386096e-12
9.49814006e-06
9.668611346e-12
1.373441502e-12
9.498133408e-06
1.066414449e-11
1.260552788e-12
9.498130177e-06
9.371943804e-12
1.094885305e-12
9.498124029e-06
9.464629327e-12
2.039540356e-12
9.498122777e-06
7.999747654e-12
1.747520173e-12
9.498115994e-06
9.244085875e-12
2.307147603e-12
7.410392311e-12
2.439742736e-12
9.49816819e-06
-5.309228716e-10
-2.032022815e-10
9.498130986e-06
-3.04670173e-11
-1.980670471e-11
9.498138287e-06
-8.861830298e-11
-2.103709229e-11
9.498128077e-06
-2.914041727e-11
-1.053794007e-11
9.498108937e-06
3.931915865e-12
-2.293807213e-12
9.498093442e-06
1.58235667e-11
-7.69427067e-13
9.498084169e-06
2.0204645e-11
1.903156058e-12
9.498076909e-06
2.01123655e-11
2.336578134e-12
9.498074569e-06
1.795518636e-11
1.478455692e-12
9.498074065e-06
1.49278902e-11
1.118841313e-12
9.498075481e-06
1.177432246e-11
2.146753999e-12
9.498075895e-06
1.058490445e-11
2.132774601e-12
9.498079866e-06
9.720081844e-12
1.42483938e-12
9.498082199e-06
1.236381525e-11
2.746279561e-12
1.14656019e-11
3.33402555e-12
9.498494581e-06
-6.131468138e-10
9.498264582e-06
1.168129266e-10
-6.765427203e-12
9.498177302e-06
-4.965280398e-11
-2.582040918e-11
9.498112591e-06
1.837760972e-11
-1.560718481e-12
9.498075015e-06
3.882762453e-11
7.186149373e-12
9.498064691e-06
3.360998298e-11
6.503743113e-12
9.498068484e-06
2.782275642e-11
7.029940749e-12
9.498078675e-06
2.029872193e-11
4.811152444e-12
9.498089066e-06
1.460933749e-11
4.278364837e-12
9.498100099e-06
1.078846654e-11
2.4579781e-12
9.498113289e-06
9.227762551e-12
2.670672282e-12
9.498119028e-06
8.526310151e-12
1.51074562e-12
9.498128346e-06
8.139231632e-12
2.14793265e-12
9.498136777e-06
1.031749439e-11
3.009727241e-12
1.023783471e-11
4.700121476e-12
9.497882409e-06
4.22301668e-10
4.218398472e-10
9.497860591e-06
-3.709935689e-11
-3.723087747e-11
9.49787476e-06
8.976872088e-12
9.783587755e-12
9.497908883e-06
2.392026297e-11
2.26766599e-11
9.497950296e-06
1.444474326e-11
1.365707068e-11
9.497989156e-06
7.927631957e-12
7.446420888e-12
9.498021838e-06
4.856461773e-12
4.821730852e-12
9.498046411e-06
2.360006746e-12
2.644629474e-12
9.498064965e-06
2.330698773e-12
1.358830534e-12
9.498080452e-06
2.104643971e-12
1.332253695e-12
9.498090547e-06
1.083616483e-12
1.63462836e-12
9.498102922e-06
2.16920496e-12
1.103943865e-12
9.498117317e-06
5.204357863e-12
2.672400123e-12
4.513059253e-12
4.239726194e-12
9.497810789e-06
-4.224422318e-10
3.026529086e-09
9.497780308e-06
3.722057033e-11
1.39921582e-10
9.49788282e-06
-9.427984356e-12
2.479968372e-11
9.497971743e-06
-2.290044761e-11
3.703297928e-11
9.498036989e-06
-1.319653206e-11
1.073080357e-11
9.498080145e-06
-9.145535616e-12
1.167732185e-12
9.498111025e-06
-5.3058196e-12
-2.917526079e-13
9.498132845e-06
-4.065580055e-12
-2.399342629e-12
9.498146751e-06
-3.192352206e-12
-2.150557732e-12
9.498156161e-06
-3.165819529e-12
-9.620139953e-13
9.498166043e-06
-7.623045877e-13
-6.263953524e-13
9.498175221e-06
-2.749529982e-12
-1.243922307e-12
9.498189043e-06
-5.801415506e-12
2.224488938e-12
-3.716846599e-12
7.759258667e-13
9.497918371e-06
-1.157306706e-10
4.232462433e-10
9.497896423e-06
4.970855487e-11
-3.626201838e-11
9.497909868e-06
-1.666915218e-11
9.517487085e-12
9.497942145e-06
-4.052683147e-11
2.234234906e-11
9.497983511e-06
-3.496489313e-11
1.334494178e-11
9.498023098e-06
-2.698582216e-11
8.682466312e-12
9.498057158e-06
-1.964526661e-11
6.164372499e-12
9.498081811e-06
-1.315951034e-11
2.836536531e-12
9.498103151e-06
-1.030568785e-11
1.567460033e-12
9.498117869e-06
-9.265229246e-12
1.354592571e-12
9.498129122e-06
-8.209685297e-12
9.26375802e-13
9.498138861e-06
-6.555163821e-12
1.487548363e-12
9.498152596e-06
-9.513789145e-12
2.835039312e-12
-9.669151059e-12
3.247568652e-12
9.498236884e-06
3.244983713e-11
-4.170108319e-12
9.498154215e-06
9.05563761e-11
-2.309053468e-11
9.498086008e-06
2.793520507e-11
-1.860173944e-12
9.498054659e-06
-6.43997359e-12
9.123603717e-12
9.498041805e-06
-1.509951258e-11
8.092998742e-12
9.498044513e-06
-1.967374108e-11
6.407100428e-12
9.498055169e-06
-1.985227507e-11
4.677980478e-12
9.49806475e-06
-1.646322257e-11
4.406453576e-12
9.498077758e-06
-1.371453546e-11
1.815811143e-12
9.498087664e-06
-1.080253578e-11
1.28410016e-12
9.498096215e-06
-1.044527659e-11
2.261573127e-12
9.498105066e-06
-1.029784769e-11
1.722629186e-12
9.498113728e-06
-1.318824981e-11
3.418427774e-12
-1.168307015e-11
3.214256096e-12
9.498168865e-06
4.448025518e-11
-2.005783091e-11
9.498179392e-06
5.797621225e-11
-1.961886578e-11
9.498166459e-06
2.80566042e-11
-9.057502378e-12
9.498152987e-06
6.661304895e-12
-8.263226789e-13
9.498132046e-06
-4.654241392e-12
-8.605589944e-13
9.4981245e-06
-6.671246057e-12
2.885305984e-12
9.498120412e-06
-9.674995142e-12
3.858025071e-12
9.498116733e-06
-1.115045077e-11
1.249315797e-12
9.498117238e-06
-1.064230321e-11
1.540170807e-12
9.498117383e-06
-7.451121971e-12
1.412136711e-12
9.498119466e-06
-8.128096387e-12
1.848681882e-12
9.498121963e-06
-7.546715722e-12
6.121639116e-13
9.4981242e-06
-8.706761709e-12
2.042292045e-12
-7.317874272e-12
2.119333569e-12
9.498112415e-06
-3.071604263e-11
9.498156459e-06
-1.95024379e-11
9.498167091e-06
-1.057503407e-11
9.498172705e-06
-3.452140863e-12
9.49816373e-06
-1.977862698e-12
9.498152464e-06
-9.491808168e-15
9.498143947e-06
1.09116078e-12
9.498134537e-06
8.603243419e-13
9.498129651e-06
1.160929094e-12
9.498121625e-06
-5.800112279e-13
9.498118545e-06
1.398931547e-12
9.498115192e-06
2.530210378e-12
9.498112226e-06
2.712567325e-12
1.188867082e-12
9.498150254e-06
-5.60453645e-10
9.901408392e-11
9.498171723e-06
-8.106920735e-11
3.038526385e-11
9.498189485e-06
-5.985075322e-11
1.972616177e-11
9.498187357e-06
-1.786811139e-11
9.970631267e-12
9.498172856e-06
3.602009739e-12
3.609278773e-12
9.498158076e-06
8.838015308e-12
1.397302896e-12
9.498144069e-06
1.099843901e-11
-6.108085922e-13
9.498134096e-06
1.19267105e-11
-1.850607347e-12
9.49812492e-06
1.05483378e-11
-1.848942793e-12
9.49811782e-06
9.855999596e-12
-1.37528312e-12
9.498115657e-06
9.982235736e-12
-4.845765461e-13
9.498111838e-06
7.821924279e-12
-1.946011392e-12
9.498109207e-06
6.459900083e-12
-2.47367979e-12
9.498106284e-06
9.569023663e-12
-3.215296453e-12
8.559365164e-12
-2.819166316e-12
9.498438086e-06
-1.610515938e-09
2.019484474e-10
9.4983085e-06
4.535631367e-12
1.962184894e-11
9.498247921e-06
-4.709618325e-11
2.022769422e-11
9.498207531e-06
2.357703312e-12
8.201120062e-12
9.498173708e-06
2.755179337e-11
-8.212687144e-13
9.498156261e-06
2.862419952e-11
-1.322686837e-12
9.498146173e-06
2.521921963e-11
-1.611064434e-12
9.498140953e-06
2.103031696e-11
-2.900908192e-12
9.498140756e-06
1.72587402e-11
-2.960365758e-12
9.498144383e-06
1.425841252e-11
-1.315941743e-12
9.498145638e-06
9.470405666e-12
-2.857300311e-12
9.498147852e-06
8.516991385e-12
-2.212468286e-12
9.498155237e-06
9.368100679e-12
-1.416339408e-12
9.498154811e-06
1.283190703e-11
-3.081612887e-12
1.275569412e-11
-1.775652963e-12
9.499034773e-06
-4.362031455e-09
6.117312523e-10
9.49844486e-06
5.897331662e-10
5.924899684e-12
9.498171623e-06
1.811122882e-10
2.426278507e-11
9.498068078e-06
1.083741577e-10
4.080034359e-13
9.498034853e-06
8.078756196e-11
-8.227027065e-12
9.498036016e-06
4.516062959e-11
-8.296207993e-12
9.498048277e-06
2.582121777e-11
-6.003667902e-12
9.498062711e-06
1.598061787e-11
-4.661716325e-12
9.498077033e-06
1.006707158e-11
-4.479595974e-12
9.498088903e-06
7.370409008e-12
-2.401259842e-12
9.498102945e-06
6.962920665e-12
-2.059752837e-12
9.498112854e-06
6.753336759e-12
-2.111071596e-12
9.498121595e-06
5.49111294e-12
-1.881406344e-12
9.498130341e-06
9.716550112e-12
-2.542990093e-12
9.151108796e-12
-3.215867254e-12
9.499406318e-06
1.170495046e-09
9.497819938e-06
3.027673314e-09
-4.227295842e-10
9.497789991e-06
1.409056548e-10
3.751059246e-11
9.497889736e-06
2.471580117e-11
-9.94210894e-12
9.497982519e-06
3.850417858e-11
-2.328795717e-11
9.498046696e-06
1.046549947e-11
-1.39259192e-11
9.498092279e-06
2.604133135e-12
-9.044140621e-12
9.498121241e-06
-1.302704466e-12
-4.674325381e-12
9.498140944e-06
-2.849363205e-12
-2.590887409e-12
9.498156627e-06
-1.75495543e-12
-1.537181335e-12
9.498166425e-06
-7.270311899e-13
-1.68999694e-12
9.498174561e-06
-7.734721e-13
-3.525440476e-12
9.498186458e-06
1.979687894e-13
-2.751376593e-12
9.498199458e-06
3.686640277e-12
-3.972307933e-12
1.453784938e-12
-4.245477018e-12
9.551770509e-06
-3.026214245e-09
-3.028127461e-09
9.552387105e-06
-1.388335398e-10
-1.416015662e-10
9.552540892e-06
-2.55613855e-11
-2.525517523e-11
9.552740577e-06
-3.845292391e-11
-3.679079491e-11
9.55283227e-06
-1.10581156e-11
-9.984412856e-12
9.552886139e-06
-2.240825797e-12
-1.845552587e-12
9.552928439e-06
4.226694107e-13
-5.682136072e-16
9.552971239e-06
9.744028088e-13
1.545077736e-12
9.553013942e-06
8.592470976e-13
1.648059582e-12
9.553056098e-06
2.16602809e-13
5.573513896e-13
9.553103294e-06
5.699870478e-13
-1.138809325e-13
9.553152497e-06
-1.099706791e-12
2.915138772e-13
9.553208635e-06
-4.74304996e-12
-4.243156533e-12
-1.623719026e-12
-1.904715258e-12
9.49781361e-06
-5.8908979e-10
-4.256594025e-10
9.497783836e-06
-1.805142959e-10
3.562125493e-11
9.497886979e-06
-1.068667118e-10
-9.314252087e-12
9.497979758e-06
-8.041393865e-11
-2.19830344e-11
9.498042615e-06
-4.502148393e-11
-1.174203304e-11
9.498087568e-06
-2.635376115e-11
-6.59867723e-12
9.498114994e-06
-1.654138462e-11
-4.262987855e-12
9.498137401e-06
-8.616242715e-12
-9.431568223e-13
9.498152414e-06
-7.757803188e-12
-1.42909688e-12
9.498161001e-06
-6.314747757e-12
-1.873756116e-12
9.498168565e-06
-5.280004873e-12
-1.802981055e-12
9.498180002e-06
-4.089232727e-12
-2.19706123e-12
9.498195377e-06
-8.825315013e-12
-4.198600815e-12
-8.730369134e-12
-3.25583966e-12
9.498425552e-06
-4.610177934e-12
4.176542108e-12
9.498154161e-06
4.75323987e-11
2.516869519e-11
9.498051219e-06
-1.966966964e-12
3.270175057e-12
9.498017421e-06
-2.938186091e-11
-6.71569287e-12
9.498014982e-06
-2.81242772e-11
-6.880741022e-12
9.498029418e-06
-2.441201418e-11
-6.030732452e-12
9.498046025e-06
-2.028972633e-11
-2.935333662e-12
9.49805823e-06
-1.726006135e-11
-3.132209192e-12
9.498074932e-06
-1.205857034e-11
-2.9403844e-12
9.498085983e-06
-9.457553858e-12
-8.905561362e-13
9.498094715e-06
-9.583721872e-12
-3.155494664e-12
9.498106389e-06
-9.643858338e-12
-2.85282596e-12
9.498115735e-06
-1.326721787e-11
-4.344056127e-12
-1.264354443e-11
-4.320200518e-12
9.498261595e-06
8.303058071e-11
1.881999775e-11
9.498202561e-06
6.079770262e-11
1.999762012e-11
9.498161572e-06
2.101367242e-11
1.15111506e-11
9.498132289e-06
-1.440382367e-12
3.962154698e-12
9.498112912e-06
-8.866782713e-12
1.013705484e-12
9.498104553e-06
-1.071141146e-11
1.71823383e-13
9.498099915e-06
-1.156496685e-11
-9.688410075e-13
9.498099428e-06
-1.154607662e-11
-2.951838221e-12
9.498101291e-06
-9.573961512e-12
-1.323513557e-12
9.498103395e-06
-8.86451729e-12
-2.015100161e-12
9.498104672e-06
-7.6116266e-12
-2.188637294e-12
9.498109781e-06
-5.562458137e-12
-9.58102509e-13
9.498112249e-06
-6.612314891e-12
-2.267538812e-12
-8.037548361e-12
-2.675024135e-12
9.498161691e-06
2.950364283e-11
9.498179728e-06
1.977550641e-11
9.498174522e-06
1.204251079e-11
9.498162531e-06
6.098875702e-12
9.498150459e-06
5.076281744e-12
9.498135083e-06
3.160009884e-12
9.498124766e-06
1.21414614e-12
9.498118064e-06
1.206748833e-12
9.498110454e-06
-1.276251096e-12
9.498107647e-06
-1.516211118e-12
9.498104183e-06
-2.90018146e-12
9.498102875e-06
-1.391367669e-12
9.49809832e-06