/*--------------------------------*- C++ -*----------------------------------*\
| =========                 |                                                 |
| \\      /  F ield         | OpenFOAM: The Open Source CFD Toolbox           |
|  \\    /   O peration     | Version:  4.x                                   |
|   \\  /    A nd           | Web:      www.OpenFOAM.org                      |
|    \\/     M anipulation  |                                                 |
\*---------------------------------------------------------------------------*/
FoamFile
{
    version     2.0;
    format      ascii;
    class       volScalarField;
    location    "4000";
    object      X_CO2;
}
// * * * * * * * * * * * * * * * * * * * * * * * * * * * * * * * * * * * * * //

dimensions      [0 0 0 0 0 0 0];

internalField   nonuniform List<scalar> 
1174
(
0.00415488904
0.004157565763
0.004161349133
0.00416628796
0.004172332457
0.004179348776
0.004187152307
0.004195530157
0.004204266948
0.00421315948
0.004222020654
0.004230649209
0.004238691605
0.004245015517
0.004157408035
0.004161706497
0.004167436238
0.004174465299
0.004182553397
0.004191406842
0.0042007281
0.004210244714
0.00421972808
0.004228995102
0.004237900286
0.004246304341
0.004253937516
0.004259833774
0.004162979775
0.004170592476
0.004180019422
0.004190730292
0.004202151731
0.004213765857
0.004225162337
0.004236048848
0.004246238582
0.00425563036
0.00426418012
0.00427186033
0.004278548512
0.004283559957
0.004171155114
0.004182998201
0.004196605237
0.004210981635
0.004225297
0.004238954239
0.004251578239
0.004262976095
0.004273085221
0.0042819307
0.004289587424
0.004296140995
0.004301600826
0.004305556237
0.004177003519
0.004191173694
0.004206642513
0.004222320014
0.004237415892
0.004251426631
0.004264074983
0.004275253896
0.004284970692
0.004293304758
0.004300372648
0.004306297195
0.004311132174
0.004314576596
0.004171155158
0.00418299816
0.004196604677
0.00421098115
0.004225296364
0.004238952839
0.004251577313
0.004262974408
0.004273083935
0.004281928901
0.004289585691
0.004296138878
0.004301598784
0.004305554307
0.004162979196
0.004170591472
0.004180018358
0.004190729958
0.004202151401
0.004213764639
0.004225160953
0.004236047337
0.004246236719
0.004255628228
0.004264176984
0.004271857117
0.004278545355
0.004283556383
0.004157407437
0.004161706337
0.004167435403
0.004174464426
0.004182552464
0.00419140578
0.004200726579
0.004210243279
0.004219726097
0.004228992085
0.004237897202
0.004246301044
0.004253934227
0.004259829963
0.004154888445
0.004157565071
0.004161348609
0.004166287833
0.004172331632
0.004179348241
0.004187151524
0.004195529229
0.004204265529
0.004213158069
0.004222018077
0.00423064649
0.00423868784
0.00424501094
0.004154508712
0.004157408177
0.0041617069
0.004167435886
0.004174464871
0.00418255291
0.004191406306
0.004200727697
0.004210245183
0.004219728409
0.004228994651
0.004237900007
0.004246303907
0.004253937629
0.004259833847
0.004163097519
0.004170661116
0.004179892359
0.00419023659
0.004201136746
0.004212123344
0.004222845015
0.004233068863
0.004242653814
0.004251532336
0.004259679173
0.004267070612
0.004273577107
0.004278495531
0.004177431296
0.004192158242
0.004208177574
0.004224134024
0.00423909674
0.004252555969
0.004264325085
0.004274426538
0.004282997464
0.004290223662
0.004296300676
0.004301394756
0.004305584255
0.004308600526
0.004202949225
0.004227476388
0.004250819007
0.004271226054
0.004288082515
0.004301463273
0.004311779642
0.00431955477
0.004325304481
0.004329480995
0.004332458062
0.00433453477
0.004335934541
0.004336776144
0.004227069091
0.004256610598
0.004281659449
0.004301549869
0.004316668042
0.004327774976
0.004335683094
0.004341123042
0.004344701871
0.00434690246
0.004348101392
0.004348591195
0.004348612448
0.004348420455
0.004202947751
0.004227475291
0.004250817865
0.004271224282
0.004288080537
0.004301461422
0.004311777941
0.004319552867
0.004325302006
0.004329477662
0.004332454937
0.00433453145
0.004335931848
0.004336773846
0.004177430836
0.004192157358
0.004208176563
0.004224132797
0.004239094626
0.004252553454
0.004264322615
0.004274422833
0.004282993392
0.004290219961
0.004296296599
0.004301390147
0.004305579277
0.004308595353
0.004163096929
0.004170660748
0.004179891463
0.00419023488
0.004201134902
0.004212121231
0.004222843316
0.004233065996
0.004242650802
0.004251528177
0.004259674508
0.004267065662
0.004273571706
0.00427849048
0.004157407186
0.004161705731
0.004167435375
0.004174464098
0.004182551484
0.00419140497
0.004200725927
0.004210242795
0.004219725345
0.004228991531
0.004237896131
0.004246299361
0.004253932045
0.004259828469
0.00415751098
0.00416297926
0.004170592074
0.004180018812
0.004190730064
0.004202151207
0.004213765519
0.004225161822
0.00423604893
0.00424623866
0.004255629959
0.004264179176
0.004271860301
0.00427854839
0.004283560197
0.004165550847
0.004177431325
0.004192157272
0.004208176934
0.004224133587
0.004239096291
0.004252555355
0.004264324713
0.004274425749
0.00428299669
0.004290223567
0.004296299842
0.004301394154
0.004305583919
0.004308600072
0.004219846038
0.004250980802
0.004279202645
0.004302367908
0.004320026286
0.004332676177
0.004341206793
0.004346567198
0.004349606201
0.004351012176
0.004351317923
0.004350923073
0.004350148232
0.004349358264
0.004314347222
0.004367044636
0.004403453876
0.004425004976
0.004435187683
0.004437532487
0.004434894798
0.00442934573
0.004422293144
0.004414648842
0.004406981628
0.004399659141
0.004393028155
0.004387945617
0.004438360304
0.004490912965
0.00451357581
0.004517677039
0.00451133093
0.004499655934
0.004485691802
0.004471169465
0.004457037433
0.004443780478
0.004431626741
0.004420687208
0.004411168285
0.004404045099
0.004314342903
0.004367040468
0.004403448852
0.00442499969
0.004435182948
0.004437527904
0.004434889895
0.004429340793
0.004422288658
0.004414643918
0.004406976937
0.004399653889
0.004393023432
0.00438794107
0.004219842652
0.004250978027
0.004279199896
0.004302363901
0.004320021866
0.004332670364
0.004341200965
0.00434656117
0.004349599797
0.004351005782
0.004351310923
0.004350915818
0.004350140611
0.004349351108
0.004177430197
0.004192156278
0.004208175469
0.004224131686
0.004239093876
0.004252551774
0.004264320567
0.004274420987
0.004282991161
0.004290217404
0.004296293566
0.004301387053
0.004305576677
0.00430859292
0.00416297897
0.004170591164
0.004180017624
0.004190728208
0.004202149341
0.004213762941
0.004225158954
0.004236044645
0.004246233809
0.004255624275
0.004264173079
0.004271852955
0.004278541045
0.004283551834
0.004162027204
0.00417115442
0.004182997238
0.004196603846
0.00421098052
0.004225296157
0.004238952912
0.004251577015
0.004262974781
0.004273084591
0.004281929979
0.00428958693
0.00429614061
0.004301600884
0.0043055563
0.004180407494
0.004202947156
0.004227474287
0.004250816918
0.004271224576
0.004288080747
0.004301461996
0.004311778327
0.004319553706
0.004325303651
0.004329479878
0.004332457225
0.004334533608
0.004335934195
0.004336776348
0.0042501341
0.004314344263
0.004367041995
0.004403451231
0.004425002905
0.00443518597
0.004437531096
0.004434893696
0.004429344694
0.004422292463
0.00441464792
0.004406981132
0.004399658274
0.004393027872
0.004387945064
0.004638873541
0.004705589925
0.004716940126
0.004698200177
0.00466596739
0.004629634411
0.004593977054
0.004561134845
0.004531853652
0.004506191802
0.00448391455
0.004464732788
0.004448609847
0.004436826017
0.005277143826
0.005194777005
0.005067347008
0.004944892991
0.004840706849
0.004755641499
0.004686983129
0.00463149917
0.004586363771
0.004549332501
0.004518699943
0.004493243836
0.004472389017
0.004457393489
0.004638857899
0.004705578267
0.004716929974
0.004698190301
0.004665957231
0.004629624544
0.00459396794
0.00456112663
0.004531845822
0.004506184754
0.004483907515
0.004464725926
0.004448603648
0.004436820766
0.00431434334
0.00436703952
0.004403445756
0.004424995445
0.004435177572
0.004437522207
0.00443488405
0.004429334773
0.004422282498
0.004414637585
0.004406971354
0.00439964865
0.004393018517
0.004387935647
0.004202947488
0.004227474141
0.004250815331
0.004271221486
0.004288075856
0.004301455986
0.00431177197
0.00431954632
0.004325294924
0.004329470775
0.004332447737
0.004334524239
0.004335924166
0.004336765946
0.004171154431
0.004182997626
0.004196603541
0.004210978966
0.004225293298
0.004238949414
0.004251572264
0.00426296923
0.004273077298
0.004281922185
0.004289578619
0.004296131219
0.004301590214
0.004305545104
0.004165422224
0.004177001897
0.004191172201
0.004206640952
0.004222318562
0.004237414891
0.004251425256
0.004264073521
0.004275252718
0.004284969306
0.004293303208
0.004300371614
0.004306295779
0.004311130974
0.0043145757
0.004195945659
0.004227067205
0.004256608116
0.004281656727
0.004301547352
0.004316665412
0.004327772595
0.004335680531
0.004341121017
0.00434469986
0.004346900422
0.004348099743
0.004348589907
0.004348611417
0.004348419843
0.004345268625
0.004438355403
0.004490908445
0.004513571627
0.004517673379
0.004511327478
0.004499652899
0.004485688967
0.004471167278
0.004457035086
0.004443778861
0.004431625271
0.00442068667
0.004411167261
0.0044040435
0.005162829166
0.005277127129
0.005194766347
0.005067340217
0.004944888202
0.004840703145
0.004755638839
0.004686980908
0.004631497362
0.004586362397
0.004549331113
0.004518698691
0.004493242696
0.00447238821
0.004457392839
0.008035495162
0.006635428333
0.005859576507
0.005405012163
0.005123286185
0.004938920266
0.004812058445
0.0047208129
0.004652666324
0.00460016867
0.004558720132
0.004525444573
0.004498855192
0.004480030647
0.005277143383
0.00519476099
0.00506732725
0.004944873303
0.004840688831
0.004755626309
0.004686969381
0.004631486945
0.004586352133
0.004549322163
0.004518690641
0.004493235317
0.004472381532
0.004457386668
0.004438361872
0.004490907839
0.004513565118
0.004517663211
0.004511315443
0.004499640423
0.004485675725
0.00447115419
0.00445702254
0.004443766819
0.004431613411
0.004420675166
0.004411156404
0.004404033172
0.004227069936
0.004256608685
0.004281655336
0.004301543632
0.004316659625
0.004327765134
0.004335671771
0.004341111337
0.00434468932
0.004346890035
0.004348088698
0.004348578651
0.004348599915
0.004348407752
0.004177003206
0.004191172777
0.004206640318
0.00422231647
0.004237411969
0.004251420858
0.00426406776
0.004275245503
0.004284961421
0.004293294577
0.004300362216
0.004306285491
0.004311119296
0.004314563307
0.004162027016
0.004171153974
0.00418299661
0.004196603456
0.004210979429
0.004225294373
0.004238950824
0.004251575245
0.004262972372
0.00427308155
0.004281926948
0.00428958374
0.004296136992
0.004301596931
0.004305552463
0.004180406884
0.004202946005
0.004227472696
0.004250814674
0.00427122163
0.004288077467
0.004301458165
0.004311774322
0.004319549884
0.004325299411
0.004329475605
0.004332453449
0.004334529361
0.004335929736
0.004336771682
0.004250127342
0.004314337403
0.004367035068
0.004403443933
0.004424995331
0.00443517878
0.004437523834
0.00443488603
0.004429337594
0.004422285571
0.004414640914
0.004406974864
0.004399652748
0.004393021545
0.004387938772
0.004489781563
0.004638843833
0.004705566854
0.004716921124
0.004698183134
0.004665952192
0.004629620053
0.004593963677
0.004561122913
0.004531842589
0.004506181951
0.00448390534
0.004464724067
0.004448602685
0.004436819746
0.005162825659
0.005277121933
0.005194747526
0.005067317393
0.004944867138
0.00484068442
0.004755622278
0.004686966567
0.004631484427
0.004586350527
0.00454932113
0.004518689085
0.004493234117
0.00447238056
0.004457385867
0.004489786917
0.004638843261
0.004705561305
0.004716911933
0.004698172761
0.004665941078
0.00462960975
0.004593954532
0.004561113991
0.00453183389
0.004506173412
0.004483897461
0.004464717057
0.004448595709
0.004436812823
0.004314347176
0.004367036882
0.004403440725
0.004424988314
0.004435169983
0.004437513747
0.004434875602
0.004429326755
0.00442227371
0.00441462955
0.004406963647
0.004399641469
0.004393011743
0.004387929589
0.004202949792
0.004227474823
0.004250814477
0.004271219389
0.004288073284
0.004301452752
0.004311767493
0.004319541545
0.004325290427
0.00432946536
0.004332442506
0.00433451858
0.004335918683
0.004336760775
0.004171155454
0.004182997963
0.004196603573
0.004210978379
0.004225292022
0.004238947524
0.004251570216
0.004262966472
0.004273074145
0.004281918496
0.004289574584
0.004296126993
0.004301585849
0.004305540226
0.004157510388
0.00416297836
0.004170590384
0.004180017258
0.004190728362
0.004202149595
0.004213763544
0.00422515939
0.004236045634
0.004246234685
0.004255626064
0.004264174959
0.004271855398
0.004278543821
0.004283554923
0.004165549439
0.004177429299
0.004192155117
0.004208174713
0.004224130424
0.004239092905
0.004252551542
0.004264319959
0.004274420964
0.004282990862
0.004290217001
0.004296293695
0.004301387703
0.004305577147
0.00430859335
0.004190190895
0.004219839675
0.004250974805
0.004279196513
0.00430236107
0.004320018381
0.004332667416
0.004341197649
0.004346558405
0.004349596861
0.004351002962
0.004351308894
0.004350913408
0.004350138769
0.004349349147
0.004250127554
0.004314336276
0.004367032411
0.004403439143
0.004424989693
0.004435172745
0.00443751774
0.004434880063
0.004429331443
0.004422279059
0.00441463472
0.004406968543
0.00439964628
0.004393016856
0.004387933414
0.00434526893
0.004438349679
0.004490897593
0.004513556836
0.00451765707
0.004511310594
0.004499636153
0.004485672779
0.004471151631
0.004457020286
0.004443764616
0.004431610811
0.004420672698
0.004411154791
0.004404032288
0.004250127448
0.00431433517
0.004367029606
0.004403435389
0.004424984973
0.004435166562
0.004437511221
0.004434873604
0.004429324709
0.00442227231
0.004414628614
0.004406962868
0.004399640929
0.004393010943
0.004387928424
0.004190193155
0.004219841785
0.004250974989
0.004279194731
0.004302356989
0.004320012967
0.004332660463
0.004341189893
0.004346550214
0.004349588091
0.004350994185
0.004351300142
0.004350904895
0.004350129873
0.004349340999
0.004177431805
0.004192156728
0.004208174574
0.004224128922
0.004239089718
0.004252546598
0.004264314173
0.004274414329
0.004282983883
0.004290209768
0.004296285814
0.004301378879
0.004305567763
0.00430858408
0.004162979853
0.004170591678
0.004180017541
0.00419072812
0.004202148125
0.004213760797
0.004225155793
0.004236040417
0.004246229115
0.004255619265
0.004264167359
0.004271846949
0.00427853374
0.004283544714
0.004154508108
0.004157407108
0.004161705732
0.004167435105
0.004174463679
0.004182551177
0.004191404271
0.004200725065
0.004210241745
0.004219724938
0.004228990915
0.004237895347
0.004246298734
0.004253931741
0.004259827886
0.004157590324
0.004163095383
0.004170658984
0.004179889942
0.004190234492
0.004201133642
0.004212119505
0.004222841019
0.004233063814
0.004242648373
0.004251526708
0.004259672443
0.004267063963
0.004273569588
0.004278487777
0.004165549733
0.004177428395
0.004192154667
0.004208173757
0.004224129419
0.004239090832
0.004252549302
0.004264317782
0.004274418291
0.004282988078
0.004290214409
0.00429629085
0.004301384409
0.004305574576
0.004308590079
0.004180407111
0.004202945119
0.004227471067
0.004250811794
0.00427121758
0.004288073066
0.00430145238
0.004311768263
0.004319543159
0.004325292145
0.004329467975
0.004332445007
0.004334521171
0.004335921674
0.004336763606
0.004195945742
0.004227065258
0.004256603848
0.004281650848
0.004301539212
0.004316655823
0.004327761312
0.004335669229
0.004341108304
0.004344686506
0.004346887205
0.004348086319
0.00434857638
0.004348597651
0.004348406095
0.004180406977
0.004202944832
0.004227470209
0.004250810327
0.004271215701
0.004288070667
0.004301449407
0.004311764727
0.00431953895
0.004325287759
0.004329463759
0.004332440553
0.004334517137
0.004335917631
0.004336759599
0.004165550606
0.004177429877
0.004192154884
0.004208172664
0.004224127802
0.004239088431
0.004252545954
0.004264313473
0.004274413135
0.004282982555
0.00429020855
0.004296284498
0.004301377937
0.004305567481
0.004308583224
0.004157591437
0.004163096978
0.004170660037
0.004179889806
0.004190232802
0.004201131864
0.004212117147
0.004222838032
0.004233059618
0.004242643577
0.004251520822
0.004259665779
0.004267056252
0.004273562054
0.004278480567
0.004157408012
0.004161706273
0.004167435509
0.004174463372
0.004182550348
0.004191402673
0.004200722946
0.004210238684
0.004219720066
0.004228985429
0.004237888803
0.004246291456
0.004253924231
0.004259819878
0.004153168476
0.004154888021
0.004157565125
0.004161348165
0.004166287025
0.004172331057
0.004179347293
0.004187150235
0.004195527635
0.004204264303
0.004213156635
0.004222016198
0.00423064435
0.004238685776
0.004245008658
0.004154507623
0.004157406884
0.004161705723
0.00416743462
0.004174463163
0.004182550612
0.004191403745
0.004200724533
0.004210241134
0.004219723576
0.004228989745
0.004237894429
0.004246297229
0.004253930088
0.004259825568
0.004157510353
0.004162978146
0.00417059037
0.0041800167
0.004190727185
0.004202147609
0.004213760876
0.004225157049
0.004236042692
0.004246231348
0.004255622257
0.004264170384
0.004271850813
0.004278538563
0.00428355009
0.004162026991
0.00417115389
0.004182995987
0.004196601668
0.004210976706
0.004225291099
0.004238946672
0.004251569998
0.004262966653
0.004273074537
0.004281919054
0.004289575338
0.004296128326
0.004301587464
0.004305543163
0.004165422079
0.004177001461
0.004191170663
0.004206638012
0.004222313287
0.004237408367
0.004251417599
0.0042640651
0.004275242865
0.004284958444
0.004293291625
0.004300359538
0.004306283081
0.004311117522
0.004314561828
0.004162027027
0.004171153421
0.00418299589
0.004196601137
0.00421097589
0.004225289832
0.004238945519
0.004251567803
0.004262964011
0.004273071864
0.004281916489
0.004289572222
0.004296125335
0.004301584702
0.004305539634
0.004157510543
0.004162978352
0.004170590227
0.004180016143
0.004190726449
0.004202146527
0.004213758938
0.004225154589
0.004236039404
0.004246227595
0.004255618169
0.004264166415
0.004271845474
0.004278532986
0.004283543553
0.004154508283
0.004157407262
0.004161705347
0.004167433878
0.004174462675
0.004182549899
0.004191402449
0.004200722196
0.004210237906
0.004219719957
0.004228985329
0.004237889247
0.004246291166
0.004253923812
0.004259818974
0.004153168814
0.00415488887
0.004157565387
0.004161347959
0.004166286688
0.004172329833
0.004179345873
0.004187147928
0.004195524713
0.004204260886
0.004213152206
0.004222011334
0.00423063809
0.004238679029
0.004245001097
)
;

boundaryField
{
    top
    {
        type            calculated;
        value           nonuniform List<scalar> 
127
(
0.004153168814
0.004154888445
0.004157407186
0.00416297897
0.004171154431
0.004177003206
0.004171155454
0.004162979853
0.004157408012
0.00415488887
0.004157565071
0.004161705731
0.004170591164
0.004182997626
0.004191172777
0.004182997963
0.004170591678
0.004161706273
0.004157565387
0.004161348609
0.004167435375
0.004180017624
0.004196603541
0.004206640318
0.004196603573
0.004180017541
0.004167435509
0.004161347959
0.004166287833
0.004174464098
0.004190728208
0.004210978966
0.00422231647
0.004210978379
0.00419072812
0.004174463372
0.004166286688
0.004172331632
0.004182551484
0.004202149341
0.004225293298
0.004237411969
0.004225292022
0.004202148125
0.004182550348
0.004172329833
0.004179348241
0.00419140497
0.004213762941
0.004238949414
0.004251420858
0.004238947524
0.004213760797
0.004191402673
0.004179345873
0.004187151524
0.004200725927
0.004225158954
0.004251572264
0.00426406776
0.004251570216
0.004225155793
0.004200722946
0.004187147928
0.004195529229
0.004210242795
0.004236044645
0.00426296923
0.004275245503
0.004262966472
0.004236040417
0.004210238684
0.004195524713
0.004204265529
0.004219725345
0.004246233809
0.004273077298
0.004284961421
0.004273074145
0.004246229115
0.004219720066
0.004204260886
0.004213158069
0.004228991531
0.004255624275
0.004281922185
0.004293294577
0.004281918496
0.004255619265
0.004228985429
0.004213152206
0.004222018077
0.004237896131
0.004264173079
0.004289578619
0.004300362216
0.004289574584
0.004264167359
0.004237888803
0.004222011334
0.00423064649
0.004246299361
0.004271852955
0.004296131219
0.004306285491
0.004296126993
0.004271846949
0.004246291456
0.00423063809
0.00423868784
0.004253932045
0.004278541045
0.004301590214
0.004311119296
0.004301585849
0.00427853374
0.004253924231
0.004238679029
0.00424501094
0.004259828469
0.004283551834
0.004305545104
0.004314563307
0.004305540226
0.004283544714
0.004259819878
0.004245001097
)
;
    }
    bottom
    {
        type            calculated;
        value           nonuniform List<scalar> 
134
(
0.004154508712
0.00415751098
0.004162027204
0.004165422224
0.004162027016
0.004157510388
0.004154508108
0.004153168476
0.00415488904
0.004157408177
0.00416297926
0.00417115442
0.004177001897
0.004171153974
0.00416297836
0.004157407108
0.004154888021
0.004157565763
0.0041617069
0.004170592074
0.004182997238
0.004191172201
0.00418299661
0.004170590384
0.004161705732
0.004157565125
0.004161349133
0.004167435886
0.004180018812
0.004196603846
0.004206640952
0.004196603456
0.004180017258
0.004167435105
0.004161348165
0.00416628796
0.004174464871
0.004190730064
0.00421098052
0.004222318562
0.004210979429
0.004190728362
0.004174463679
0.004166287025
0.004172332457
0.00418255291
0.004202151207
0.004225296157
0.004237414891
0.004225294373
0.004202149595
0.004182551177
0.004172331057
0.004179348776
0.004191406306
0.004213765519
0.004238952912
0.004251425256
0.004238950824
0.004213763544
0.004191404271
0.004179347293
0.004187152307
0.004200727697
0.004225161822
0.004251577015
0.004264073521
0.004251575245
0.00422515939
0.004200725065
0.004187150235
0.004195530157
0.004210245183
0.00423604893
0.004262974781
0.004275252718
0.004262972372
0.004236045634
0.004210241745
0.004195527635
0.004204266948
0.004219728409
0.00424623866
0.004273084591
0.004284969306
0.00427308155
0.004246234685
0.004219724938
0.004204264303
0.00421315948
0.004228994651
0.004255629959
0.004281929979
0.004293303208
0.004281926948
0.004255626064
0.004228990915
0.004213156635
0.004222020654
0.004237900007
0.004264179176
0.00428958693
0.004300371614
0.00428958374
0.004264174959
0.004237895347
0.004222016198
0.004230649209
0.004246303907
0.004271860301
0.00429614061
0.004306295779
0.004296136992
0.004271855398
0.004246298734
0.00423064435
0.004238691605
0.004253937629
0.00427854839
0.004301600884
0.004311130974
0.004301596931
0.004278543821
0.004253931741
0.004238685776
0.004245015517
0.004259833847
0.004283560197
0.0043055563
0.0043145757
0.004305552463
0.004283554923
0.004259827886
0.004245008658
)
;
    }
    side-walls
    {
        type            calculated;
        value           nonuniform List<scalar> 
261
(
0.00415488904
0.004157408035
0.004162979775
0.004171155114
0.004177003519
0.004171155158
0.004162979196
0.004157407437
0.004154888445
0.004157565763
0.004161706497
0.004170592476
0.004182998201
0.004191173694
0.00418299816
0.004170591472
0.004161706337
0.004157565071
0.004161349133
0.004167436238
0.004180019422
0.004196605237
0.004206642513
0.004196604677
0.004180018358
0.004167435403
0.004161348609
0.00416628796
0.004174465299
0.004190730292
0.004210981635
0.004222320014
0.00421098115
0.004190729958
0.004174464426
0.004166287833
0.004172332457
0.004182553397
0.004202151731
0.004225297
0.004237415892
0.004225296364
0.004202151401
0.004182552464
0.004172331632
0.004179348776
0.004191406842
0.004213765857
0.004238954239
0.004251426631
0.004238952839
0.004213764639
0.00419140578
0.004179348241
0.004187152307
0.0042007281
0.004225162337
0.004251578239
0.004264074983
0.004251577313
0.004225160953
0.004200726579
0.004187151524
0.004195530157
0.004210244714
0.004236048848
0.004262976095
0.004275253896
0.004262974408
0.004236047337
0.004210243279
0.004195529229
0.004204266948
0.00421972808
0.004246238582
0.004273085221
0.004284970692
0.004273083935
0.004246236719
0.004219726097
0.004204265529
0.00421315948
0.004228995102
0.00425563036
0.0042819307
0.004293304758
0.004281928901
0.004255628228
0.004228992085
0.004213158069
0.004222020654
0.004237900286
0.00426418012
0.004289587424
0.004300372648
0.004289585691
0.004264176984
0.004237897202
0.004222018077
0.004230649209
0.004246304341
0.00427186033
0.004296140995
0.004306297195
0.004296138878
0.004271857117
0.004246301044
0.00423064649
0.004238691605
0.004253937516
0.004278548512
0.004301600826
0.004311132174
0.004301598784
0.004278545355
0.004253934227
0.00423868784
0.004245015517
0.004259833774
0.004283559957
0.004305556237
0.004314576596
0.004305554307
0.004283556383
0.004259829963
0.00424501094
0.004153168476
0.004154507623
0.004157510353
0.004162026991
0.004165422079
0.004162027027
0.004157510543
0.004154508283
0.004153168814
0.004154888021
0.004157406884
0.004162978146
0.00417115389
0.004177001461
0.004171153421
0.004162978352
0.004157407262
0.00415488887
0.004157565125
0.004161705723
0.00417059037
0.004182995987
0.004191170663
0.00418299589
0.004170590227
0.004161705347
0.004157565387
0.004161348165
0.00416743462
0.0041800167
0.004196601668
0.004206638012
0.004196601137
0.004180016143
0.004167433878
0.004161347959
0.004166287025
0.004174463163
0.004190727185
0.004210976706
0.004222313287
0.00421097589
0.004190726449
0.004174462675
0.004166286688
0.004172331057
0.004182550612
0.004202147609
0.004225291099
0.004237408367
0.004225289832
0.004202146527
0.004182549899
0.004172329833
0.004179347293
0.004191403745
0.004213760876
0.004238946672
0.004251417599
0.004238945519
0.004213758938
0.004191402449
0.004179345873
0.004187150235
0.004200724533
0.004225157049
0.004251569998
0.0042640651
0.004251567803
0.004225154589
0.004200722196
0.004187147928
0.004195527635
0.004210241134
0.004236042692
0.004262966653
0.004275242865
0.004262964011
0.004236039404
0.004210237906
0.004195524713
0.004204264303
0.004219723576
0.004246231348
0.004273074537
0.004284958444
0.004273071864
0.004246227595
0.004219719957
0.004204260886
0.004213156635
0.004228989745
0.004255622257
0.004281919054
0.004293291625
0.004281916489
0.004255618169
0.004228985329
0.004213152206
0.004222016198
0.004237894429
0.004264170384
0.004289575338
0.004300359538
0.004289572222
0.004264166415
0.004237889247
0.004222011334
0.00423064435
0.004246297229
0.004271850813
0.004296128326
0.004306283081
0.004296125335
0.004271845474
0.004246291166
0.00423063809
0.004238685776
0.004253930088
0.004278538563
0.004301587464
0.004311117522
0.004301584702
0.004278532986
0.004253923812
0.004238679029
0.004245008658
0.004259825568
0.00428355009
0.004305543163
0.004314561828
0.004305539634
0.004283543553
0.004259818974
0.004245001097
)
;
    }
    inlet
    {
        type            calculated;
        value           nonuniform 0();
    }
    outlet
    {
        type            calculated;
        value           nonuniform List<scalar> 
81
(
0.004245015517
0.004259833774
0.004283559957
0.004305556237
0.004314576596
0.004305554307
0.004283556383
0.004259829963
0.00424501094
0.004259833847
0.004278495531
0.004308600526
0.004336776144
0.004348420455
0.004336773846
0.004308595353
0.00427849048
0.004259828469
0.004283560197
0.004308600072
0.004349358264
0.004387945617
0.004404045099
0.00438794107
0.004349351108
0.00430859292
0.004283551834
0.0043055563
0.004336776348
0.004387945064
0.004436826017
0.004457393489
0.004436820766
0.004387935647
0.004336765946
0.004305545104
0.0043145757
0.004348419843
0.0044040435
0.004457392839
0.004480030647
0.004457386668
0.004404033172
0.004348407752
0.004314563307
0.004305552463
0.004336771682
0.004387938772
0.004436819746
0.004457385867
0.004436812823
0.004387929589
0.004336760775
0.004305540226
0.004283554923
0.00430859335
0.004349349147
0.004387933414
0.004404032288
0.004387928424
0.004349340999
0.00430858408
0.004283544714
0.004259827886
0.004278487777
0.004308590079
0.004336763606
0.004348406095
0.004336759599
0.004308583224
0.004278480567
0.004259819878
0.004245008658
0.004259825568
0.00428355009
0.004305543163
0.004314561828
0.004305539634
0.004283543553
0.004259818974
0.004245001097
)
;
    }
    procBoundary1to0
    {
        type            processor;
        value           nonuniform List<scalar> 
97
(
0.004153169146
0.004153169146
0.004154508445
0.004157510573
0.004162026635
0.004165420985
0.004162026309
0.004157510467
0.00415450777
0.004153168271
0.004152796275
0.004157591412
0.004157591412
0.004157591412
0.004165549753
0.004180406082
0.004195941992
0.004180404763
0.004165548951
0.004157589997
0.004154507534
0.004154153861
0.004157675998
0.00419019295
0.00419019295
0.00419019295
0.004250124248
0.004345248624
0.004250119246
0.00419018779
0.004165548388
0.00415751033
0.004156147243
0.004163894756
0.004191033749
0.004489787639
0.004489787639
0.004489787639
0.005162693808
0.004489750769
0.004250118935
0.004180404408
0.004162025922
0.004157571743
0.004169771898
0.004221237478
0.004425305624
0.01070532219
0.01070532219
0.01070532219
0.005162700245
0.005162700245
0.004345250634
0.004195942888
0.004165421155
0.004156146355
0.004163894238
0.004191035058
0.004270059754
0.004425311605
0.004270056144
0.004250131894
0.004250131894
0.004250131894
0.004180406661
0.004162026932
0.004154153706
0.004157676326
0.004168011037
0.004191034953
0.004221238187
0.004191034483
0.004168011068
0.004165551042
0.004165551042
0.004165551042
0.004157510951
0.004152796015
0.004154182528
0.004157675684
0.004163894767
0.004169772069
0.004163894028
0.00415767591
0.004154183165
0.004154508688
0.004154508688
0.004154508688
0.004152181908
0.004152795763
0.004154153641
0.00415614696
0.004157571796
0.004156146771
0.004154153813
0.004152796517
0.004152182094
)
;
    }
}


// ************************************************************************* //
