/*--------------------------------*- C++ -*----------------------------------*\
| =========                 |                                                 |
| \\      /  F ield         | OpenFOAM: The Open Source CFD Toolbox           |
|  \\    /   O peration     | Version:  4.x                                   |
|   \\  /    A nd           | Web:      www.OpenFOAM.org                      |
|    \\/     M anipulation  |                                                 |
\*---------------------------------------------------------------------------*/
FoamFile
{
    version     2.0;
    format      ascii;
    class       volScalarField;
    location    "4000";
    object      X_CO;
}
// * * * * * * * * * * * * * * * * * * * * * * * * * * * * * * * * * * * * * //

dimensions      [0 0 0 0 0 0 0];

internalField   nonuniform List<scalar> 
1174
(
0.3728704844
0.3728678088
0.3728640271
0.3728590902
0.3728530487
0.3728460355
0.372838236
0.3728298626
0.3728211305
0.372812243
0.3728033875
0.3727947647
0.372786728
0.3727804087
0.3728679663
0.3728636695
0.3728579423
0.3728509162
0.3728428319
0.3728339825
0.372824666
0.3728151541
0.3728056761
0.3727964148
0.3727875154
0.3727791173
0.3727714895
0.3727655975
0.3728623969
0.3728547871
0.3728453638
0.3728346568
0.3728232404
0.3728116316
0.3728002407
0.3727893601
0.3727791762
0.3727697906
0.3727612471
0.3727535725
0.3727468897
0.3727418825
0.3728542239
0.3728423848
0.3728287828
0.3728144121
0.3728001028
0.372786452
0.3727738343
0.3727624429
0.37275234
0.3727435006
0.3727358498
0.372729302
0.3727238473
0.372719896
0.3728483773
0.3728342117
0.3728187485
0.3728030772
0.3727879872
0.3727739832
0.3727613413
0.3727501688
0.3727404583
0.3727321304
0.3727250683
0.3727191496
0.3727143197
0.372710879
0.3728542239
0.3728423849
0.3728287831
0.3728144124
0.3728001031
0.3727864526
0.3727738347
0.3727624436
0.3727523406
0.3727435015
0.3727358506
0.3727293029
0.3727238483
0.3727198969
0.3728623972
0.3728547875
0.3728453643
0.3728346571
0.3728232406
0.3728116322
0.3728002414
0.3727893608
0.3727791771
0.3727697916
0.3727612485
0.372753574
0.3727468912
0.3727418841
0.3728679666
0.3728636696
0.3728579427
0.3728509167
0.3728428324
0.3728339831
0.3728246667
0.3728151548
0.372805677
0.3727964162
0.3727875168
0.3727791188
0.372771491
0.3727655993
0.3728704846
0.3728678091
0.3728640273
0.3728590903
0.3728530491
0.3728460358
0.3728382364
0.372829863
0.3728211312
0.3728122436
0.3728033887
0.3727947659
0.3727867297
0.3727804107
0.3728708645
0.3728679663
0.3728636693
0.3728579425
0.3728509164
0.3728428321
0.3728339828
0.3728246661
0.372815154
0.372805676
0.372796415
0.3727875155
0.3727791175
0.3727714895
0.3727655975
0.372862279
0.3728547179
0.3728454905
0.3728351505
0.372824255
0.3728132736
0.372802557
0.3727923392
0.3727827598
0.3727738871
0.3727657464
0.3727583605
0.3727518595
0.3727469449
0.37284795
0.3728332281
0.3728172142
0.3728012638
0.3727863075
0.3727728547
0.372761092
0.3727509969
0.3727424321
0.3727352112
0.3727291399
0.3727240512
0.3727198664
0.3727168539
0.3728224396
0.3727979196
0.3727745848
0.3727541854
0.3727373365
0.3727239628
0.3727136529
0.3727058836
0.3727001397
0.3726959686
0.3726929963
0.3726909245
0.3726895286
0.3726886898
0.3727983242
0.3727687916
0.3727437512
0.3727238688
0.3727087584
0.3726976584
0.3726897564
0.3726843221
0.3726807486
0.3726785527
0.3726773583
0.3726768729
0.3726768554
0.37267705
0.3728224403
0.3727979203
0.3727745855
0.3727541864
0.3727373376
0.3727239638
0.3727136539
0.3727058846
0.3727001409
0.3726959702
0.3726929978
0.372690926
0.3726895299
0.3726886909
0.3728479503
0.3728332286
0.3728172148
0.3728012645
0.3727863086
0.372772856
0.3727610932
0.3727509986
0.3727424339
0.372735213
0.3727291418
0.3727240532
0.3727198687
0.3727168562
0.3728622794
0.3728547182
0.372845491
0.3728351514
0.3728242559
0.3728132746
0.372802558
0.3727923406
0.3727827612
0.372773889
0.3727657486
0.3727583628
0.3727518619
0.3727469472
0.3728679667
0.3728636698
0.3728579427
0.3728509168
0.3728428327
0.3728339834
0.372824667
0.372815155
0.3728056773
0.3727964165
0.3727875173
0.3727791196
0.3727714919
0.3727655999
0.3728678633
0.3728623971
0.3728547873
0.372845364
0.3728346569
0.3728232406
0.3728116318
0.3728002409
0.3727893601
0.3727791762
0.3727697908
0.3727612475
0.3727535726
0.3727468898
0.3727418824
0.3728598264
0.37284795
0.3728332284
0.3728172145
0.372801264
0.3727863077
0.372772855
0.3727610922
0.3727509972
0.3727424324
0.3727352113
0.3727291403
0.3727240514
0.3727198666
0.3727168541
0.3728055484
0.3727744219
0.372746209
0.3727230524
0.3727054023
0.3726927598
0.3726842353
0.3726788802
0.3726758465
0.372674445
0.3726741436
0.3726745425
0.3726753212
0.3726761136
0.3727110695
0.3726583857
0.3726219887
0.372600447
0.3725902716
0.3725879323
0.3725905747
0.3725961274
0.3726031831
0.3726108304
0.3726184998
0.3726258247
0.3726324576
0.3726375418
0.3725870768
0.3725345393
0.3725118876
0.3725077939
0.3725141451
0.3725258236
0.3725397907
0.3725543148
0.3725684488
0.3725817071
0.3725938625
0.372604803
0.3726143234
0.3726214476
0.3727110721
0.3726583882
0.3726219914
0.3726004498
0.372590274
0.3725879346
0.3725905771
0.3725961298
0.3726031852
0.3726108326
0.3726185019
0.372625827
0.3726324597
0.3726375438
0.3728055504
0.3727744236
0.3727462106
0.3727230545
0.3727054046
0.3726927626
0.3726842381
0.372678883
0.3726758495
0.3726744479
0.3726741468
0.3726745458
0.3726753246
0.3726761167
0.3728479505
0.372833229
0.3728172153
0.372801265
0.3727863089
0.3727728567
0.3727610941
0.3727509994
0.3727424349
0.3727352141
0.3727291431
0.3727240546
0.3727198698
0.3727168573
0.3728623972
0.3728547877
0.3728453646
0.3728346578
0.3728232415
0.372811633
0.3728002423
0.372789362
0.3727791784
0.3727697933
0.3727612502
0.3727535758
0.3727468931
0.3727418861
0.3728633484
0.3728542242
0.3728423852
0.3728287834
0.3728144126
0.3728001032
0.3727864526
0.3727738348
0.3727624434
0.3727523403
0.372743501
0.3727358501
0.3727293022
0.3727238474
0.3727198961
0.3728449736
0.3728224403
0.3727979204
0.3727745856
0.372754186
0.3727373373
0.3727239634
0.3727136535
0.3727058841
0.3727001401
0.3726959692
0.3726929967
0.372690925
0.3726895289
0.3726886899
0.3727752666
0.3727110707
0.3726583868
0.3726219899
0.372600448
0.3725902724
0.372587933
0.3725905752
0.3725961279
0.3726031835
0.3726108308
0.3726185001
0.3726258251
0.3726324578
0.3726375421
0.3723866107
0.3723199096
0.3723085684
0.3723273123
0.3723595461
0.3723958787
0.3724315348
0.3724643753
0.3724936554
0.3725193161
0.3725415925
0.3725607739
0.3725768963
0.3725886794
0.3717484288
0.3718307968
0.3719582195
0.3720806634
0.37218484
0.3722698969
0.3723385488
0.3723940274
0.3724391588
0.3724761866
0.3725068167
0.372532271
0.3725531244
0.3725681186
0.37238662
0.3723199164
0.372308574
0.3723273174
0.3723595511
0.3723958833
0.3724315389
0.372464379
0.3724936589
0.3725193192
0.3725415955
0.3725607769
0.372576899
0.3725886817
0.3727110718
0.3726583886
0.3726219928
0.3726004517
0.3725902764
0.3725879372
0.3725905797
0.3725961325
0.372603188
0.3726108354
0.3726185044
0.3726258293
0.3726324619
0.3726375462
0.3728224404
0.3727979207
0.3727745866
0.3727541876
0.3727373396
0.3727239662
0.3727136565
0.3727058875
0.372700144
0.3726959732
0.3726930009
0.3726909292
0.3726895333
0.3726886944
0.3728542242
0.3728423851
0.3728287836
0.3728144133
0.3728001045
0.3727864542
0.3727738369
0.3727624459
0.3727523435
0.3727435044
0.3727358537
0.3727293063
0.372723852
0.3727199009
0.3728599543
0.372848378
0.3728342124
0.3728187493
0.3728030779
0.3727879878
0.3727739839
0.372761342
0.3727501694
0.372740459
0.3727321312
0.3727250689
0.3727191503
0.3727143204
0.3727108796
0.3728294387
0.3727983251
0.3727687928
0.3727437525
0.3727238701
0.3727087596
0.3726976595
0.3726897576
0.3726843231
0.3726807495
0.3726785537
0.3726773591
0.3726768736
0.3726768559
0.3726770504
0.3726801455
0.3725870785
0.3725345413
0.3725118895
0.3725077956
0.3725141468
0.3725258251
0.372539792
0.3725543159
0.3725684499
0.3725817079
0.3725938633
0.3726048034
0.372614324
0.3726214484
0.3718627115
0.3717484369
0.3718308022
0.371958223
0.3720806659
0.3721848419
0.3722698982
0.3723385499
0.3723940284
0.3724391595
0.3724761873
0.3725068173
0.3725322715
0.3725531248
0.372568119
0.368990433
0.3703903385
0.3711661009
0.3716206129
0.3719023057
0.3720866498
0.3722134963
0.3723047314
0.3723728703
0.3724253619
0.3724668062
0.3725000784
0.3725266654
0.3725454882
0.3717484295
0.3718308063
0.3719582299
0.3720806731
0.3721848486
0.372269904
0.3723385551
0.372394033
0.372439164
0.3724761912
0.3725068209
0.3725322748
0.3725531277
0.3725681217
0.372587076
0.372534542
0.3725118928
0.3725078003
0.3725141523
0.3725258308
0.3725397979
0.3725543217
0.3725684555
0.3725817132
0.3725938685
0.3726048085
0.3726143287
0.372621453
0.3727983238
0.3727687924
0.3727437531
0.3727238717
0.3727087621
0.3726976628
0.3726897614
0.3726843273
0.3726807541
0.3726785582
0.3726773639
0.3726768785
0.3726768609
0.3726770556
0.3728483774
0.3728342121
0.3728187494
0.3728030787
0.372787989
0.3727739857
0.3727613444
0.3727501725
0.3727404624
0.3727321349
0.3727250729
0.3727191548
0.3727143253
0.3727108849
0.3728633485
0.3728542245
0.3728423856
0.3728287837
0.3728144132
0.3728001041
0.3727864536
0.3727738357
0.3727624446
0.3727523418
0.3727435024
0.3727358515
0.3727293038
0.3727238492
0.3727198978
0.3728449741
0.3728224411
0.3727979215
0.372774587
0.3727541877
0.372737339
0.3727239653
0.3727136555
0.372705886
0.3727001421
0.3726959712
0.3726929986
0.372690927
0.3726895309
0.372688692
0.3727752703
0.3727110745
0.3726583908
0.3726219939
0.3726004519
0.3725902761
0.3725879366
0.3725905789
0.3725961313
0.3726031867
0.3726108341
0.372618503
0.3726258277
0.3726324607
0.3726375449
0.3725356601
0.3723866266
0.3723199222
0.3723085785
0.372327321
0.3723595537
0.3723958856
0.3724315411
0.3724643808
0.3724936605
0.3725193206
0.3725415966
0.3725607778
0.3725768996
0.3725886823
0.3718627134
0.37174844
0.371830813
0.3719582347
0.3720806762
0.3721848508
0.3722699059
0.3723385565
0.3723940342
0.3724391648
0.3724761918
0.3725068216
0.3725322754
0.3725531282
0.3725681221
0.3725356574
0.3723866273
0.372319925
0.3723085828
0.3723273257
0.3723595586
0.3723958901
0.3724315451
0.3724643848
0.3724936643
0.3725193243
0.3725416
0.3725607809
0.3725769026
0.3725886853
0.3727110696
0.3726583897
0.3726219952
0.372600455
0.3725902799
0.372587941
0.3725905835
0.372596136
0.3726031918
0.372610839
0.3726185078
0.3726258325
0.3726324649
0.372637549
0.3728224393
0.3727979203
0.3727745869
0.3727541885
0.3727373407
0.3727239676
0.3727136584
0.3727058895
0.372700146
0.3726959756
0.3726930032
0.3726909316
0.3726895356
0.3726886967
0.3728542237
0.3728423849
0.3728287835
0.3728144135
0.372800105
0.3727864549
0.3727738378
0.3727624471
0.3727523449
0.372743506
0.3727358554
0.3727293081
0.3727238539
0.372719903
0.3728678635
0.3728623975
0.372854788
0.3728453648
0.3728346578
0.3728232414
0.3728116328
0.3728002421
0.3727893616
0.372779178
0.3727697926
0.3727612494
0.3727535748
0.372746892
0.3727418848
0.3728598271
0.372847951
0.3728332296
0.3728172157
0.3728012656
0.3727863095
0.3727728569
0.3727610945
0.3727509995
0.3727424351
0.3727352143
0.3727291432
0.3727240544
0.3727198697
0.3727168572
0.3728351931
0.3728055517
0.3727744251
0.3727462122
0.3727230559
0.3727054062
0.372692764
0.3726842397
0.3726788844
0.3726758509
0.3726744493
0.3726741478
0.372674547
0.3726753256
0.3726761178
0.3727752702
0.3727110752
0.3726583922
0.3726219962
0.3726004546
0.3725902789
0.3725879395
0.3725905817
0.3725961342
0.3726031897
0.3726108369
0.3726185059
0.3726258306
0.3726324629
0.3726375474
0.3726801458
0.372587082
0.3725345472
0.372511897
0.3725078036
0.3725141548
0.3725258329
0.3725397995
0.372554323
0.3725684566
0.3725817144
0.3725938697
0.3726048096
0.3726143296
0.3726214535
0.3727752704
0.3727110757
0.3726583935
0.3726219979
0.3726004567
0.3725902816
0.3725879422
0.3725905845
0.372596137
0.3726031926
0.3726108395
0.3726185083
0.3726258329
0.3726324654
0.3726375495
0.3728351919
0.3728055506
0.3727744249
0.3727462129
0.3727230576
0.3727054085
0.3726927669
0.372684243
0.3726788879
0.3726758546
0.372674453
0.3726741516
0.3726745506
0.3726753294
0.3726761213
0.3728479498
0.3728332288
0.3728172157
0.3728012662
0.3727863108
0.372772859
0.3727610969
0.3727510023
0.3727424381
0.3727352174
0.3727291466
0.3727240582
0.3727198737
0.3727168612
0.3728623968
0.3728547874
0.3728453646
0.3728346578
0.372823242
0.3728116339
0.3728002436
0.3727893638
0.3727791804
0.3727697955
0.3727612527
0.3727535784
0.3727468962
0.3727418892
0.3728708648
0.3728679667
0.3728636699
0.3728579429
0.372850917
0.372842833
0.3728339838
0.3728246674
0.3728151556
0.3728056776
0.3727964169
0.3727875177
0.37277912
0.3727714922
0.3727656003
0.3728677835
0.37286228
0.372854719
0.3728454917
0.3728351517
0.3728242565
0.3728132755
0.372802559
0.3727923416
0.3727827624
0.3727738897
0.3727657496
0.3727583636
0.372751863
0.3727469485
0.372859827
0.3728479514
0.3728332298
0.3728172162
0.3728012661
0.3727863104
0.372772858
0.3727610955
0.3727510008
0.3727424364
0.3727352155
0.3727291445
0.3727240559
0.3727198709
0.3727168587
0.372844974
0.3728224416
0.3727979223
0.3727745884
0.3727541896
0.3727373411
0.372723968
0.3727136583
0.3727058891
0.3727001455
0.3726959747
0.3726930023
0.3726909307
0.3726895345
0.3726886956
0.3728294387
0.3727983261
0.3727687949
0.3727437554
0.372723874
0.3727087641
0.3726976648
0.3726897629
0.3726843289
0.3726807556
0.3726785597
0.3726773652
0.3726768797
0.3726768621
0.3726770565
0.3728449741
0.3728224417
0.3727979227
0.372774589
0.3727541904
0.3727373422
0.3727239693
0.3727136598
0.3727058909
0.3727001473
0.3726959765
0.3726930042
0.3726909324
0.3726895363
0.3726886974
0.3728598266
0.3728479508
0.3728332297
0.3728172166
0.3728012668
0.3727863114
0.3727728594
0.3727610973
0.3727510029
0.3727424388
0.372735218
0.3727291472
0.3727240587
0.3727198739
0.3727168617
0.372867783
0.3728622794
0.3728547185
0.3728454917
0.3728351523
0.3728242573
0.3728132765
0.3728025603
0.3727923434
0.3727827644
0.3727738923
0.3727657524
0.3727583669
0.3727518662
0.3727469516
0.3728679663
0.3728636696
0.3728579427
0.3728509171
0.3728428333
0.3728339844
0.3728246683
0.3728151569
0.3728056797
0.3727964192
0.3727875205
0.372779123
0.3727714954
0.3727656037
0.3728722037
0.3728704848
0.3728678091
0.3728640275
0.3728590906
0.3728530494
0.3728460362
0.372838237
0.3728298638
0.3728211318
0.3728122444
0.3728033896
0.372794767
0.3727867307
0.3727804118
0.3728708649
0.3728679668
0.3728636699
0.3728579431
0.3728509173
0.3728428332
0.372833984
0.3728246677
0.3728151559
0.3728056782
0.3727964174
0.3727875182
0.3727791206
0.3727714929
0.3727656013
0.3728678635
0.3728623976
0.3728547881
0.3728453651
0.3728346583
0.3728232423
0.372811634
0.3728002433
0.372789363
0.3727791796
0.3727697944
0.3727612515
0.3727535769
0.3727468943
0.372741887
0.3728633486
0.3728542246
0.372842386
0.3728287846
0.3728144146
0.3728001057
0.3727864557
0.3727738383
0.3727624474
0.3727523451
0.3727435061
0.3727358554
0.3727293078
0.3727238535
0.372719902
0.3728599545
0.3728483783
0.3728342132
0.3728187508
0.3728030804
0.3727879909
0.3727739875
0.372761346
0.372750174
0.372740464
0.3727321365
0.3727250744
0.3727191561
0.3727143264
0.3727108858
0.3728633485
0.3728542248
0.372842386
0.3728287849
0.3728144149
0.3728001063
0.3727864562
0.3727738392
0.3727624485
0.3727523462
0.3727435072
0.3727358567
0.3727293091
0.3727238547
0.3727199035
0.3728678635
0.3728623975
0.3728547881
0.3728453653
0.3728346587
0.3728232428
0.3728116349
0.3728002444
0.3727893645
0.3727791812
0.3727697962
0.3727612533
0.3727535792
0.3727468967
0.3727418898
0.3728708647
0.3728679667
0.37286367
0.3728579434
0.3728509175
0.3728428335
0.3728339846
0.3728246687
0.3728151573
0.3728056798
0.3727964193
0.3727875204
0.3727791232
0.3727714956
0.3727656042
0.3728722035
0.3728704845
0.372867809
0.3728640276
0.3728590908
0.3728530499
0.3728460368
0.372838238
0.372829865
0.3728211333
0.3728122463
0.3728033917
0.3727947697
0.3727867336
0.372780415
)
;

boundaryField
{
    top
    {
        type            calculated;
        value           nonuniform List<scalar> 
127
(
0.3728722035
0.3728704846
0.3728679667
0.3728623972
0.3728542242
0.3728483774
0.3728542237
0.3728623968
0.3728679663
0.3728704845
0.3728678091
0.3728636698
0.3728547877
0.3728423851
0.3728342121
0.3728423849
0.3728547874
0.3728636696
0.372867809
0.3728640273
0.3728579427
0.3728453646
0.3728287836
0.3728187494
0.3728287835
0.3728453646
0.3728579427
0.3728640276
0.3728590903
0.3728509168
0.3728346578
0.3728144133
0.3728030787
0.3728144135
0.3728346578
0.3728509171
0.3728590908
0.3728530491
0.3728428327
0.3728232415
0.3728001045
0.372787989
0.372800105
0.372823242
0.3728428333
0.3728530499
0.3728460358
0.3728339834
0.372811633
0.3727864542
0.3727739857
0.3727864549
0.3728116339
0.3728339844
0.3728460368
0.3728382364
0.372824667
0.3728002423
0.3727738369
0.3727613444
0.3727738378
0.3728002436
0.3728246683
0.372838238
0.372829863
0.372815155
0.372789362
0.3727624459
0.3727501725
0.3727624471
0.3727893638
0.3728151569
0.372829865
0.3728211312
0.3728056773
0.3727791784
0.3727523435
0.3727404624
0.3727523449
0.3727791804
0.3728056797
0.3728211333
0.3728122436
0.3727964165
0.3727697933
0.3727435044
0.3727321349
0.372743506
0.3727697955
0.3727964192
0.3728122463
0.3728033887
0.3727875173
0.3727612502
0.3727358537
0.3727250729
0.3727358554
0.3727612527
0.3727875205
0.3728033917
0.3727947659
0.3727791196
0.3727535758
0.3727293063
0.3727191548
0.3727293081
0.3727535784
0.372779123
0.3727947697
0.3727867297
0.3727714919
0.3727468931
0.372723852
0.3727143253
0.3727238539
0.3727468962
0.3727714954
0.3727867336
0.3727804107
0.3727655999
0.3727418861
0.3727199009
0.3727108849
0.372719903
0.3727418892
0.3727656037
0.372780415
)
;
    }
    bottom
    {
        type            calculated;
        value           nonuniform List<scalar> 
134
(
0.3728708645
0.3728678633
0.3728633484
0.3728599543
0.3728633485
0.3728678635
0.3728708648
0.3728722037
0.3728704844
0.3728679663
0.3728623971
0.3728542242
0.372848378
0.3728542245
0.3728623975
0.3728679667
0.3728704848
0.3728678088
0.3728636693
0.3728547873
0.3728423852
0.3728342124
0.3728423856
0.372854788
0.3728636699
0.3728678091
0.3728640271
0.3728579425
0.372845364
0.3728287834
0.3728187493
0.3728287837
0.3728453648
0.3728579429
0.3728640275
0.3728590902
0.3728509164
0.3728346569
0.3728144126
0.3728030779
0.3728144132
0.3728346578
0.372850917
0.3728590906
0.3728530487
0.3728428321
0.3728232406
0.3728001032
0.3727879878
0.3728001041
0.3728232414
0.372842833
0.3728530494
0.3728460355
0.3728339828
0.3728116318
0.3727864526
0.3727739839
0.3727864536
0.3728116328
0.3728339838
0.3728460362
0.372838236
0.3728246661
0.3728002409
0.3727738348
0.372761342
0.3727738357
0.3728002421
0.3728246674
0.372838237
0.3728298626
0.372815154
0.3727893601
0.3727624434
0.3727501694
0.3727624446
0.3727893616
0.3728151556
0.3728298638
0.3728211305
0.372805676
0.3727791762
0.3727523403
0.372740459
0.3727523418
0.372779178
0.3728056776
0.3728211318
0.372812243
0.372796415
0.3727697908
0.372743501
0.3727321312
0.3727435024
0.3727697926
0.3727964169
0.3728122444
0.3728033875
0.3727875155
0.3727612475
0.3727358501
0.3727250689
0.3727358515
0.3727612494
0.3727875177
0.3728033896
0.3727947647
0.3727791175
0.3727535726
0.3727293022
0.3727191503
0.3727293038
0.3727535748
0.37277912
0.372794767
0.372786728
0.3727714895
0.3727468898
0.3727238474
0.3727143204
0.3727238492
0.372746892
0.3727714922
0.3727867307
0.3727804087
0.3727655975
0.3727418824
0.3727198961
0.3727108796
0.3727198978
0.3727418848
0.3727656003
0.3727804118
)
;
    }
    side-walls
    {
        type            calculated;
        value           nonuniform List<scalar> 
261
(
0.3728704844
0.3728679663
0.3728623969
0.3728542239
0.3728483773
0.3728542239
0.3728623972
0.3728679666
0.3728704846
0.3728678088
0.3728636695
0.3728547871
0.3728423848
0.3728342117
0.3728423849
0.3728547875
0.3728636696
0.3728678091
0.3728640271
0.3728579423
0.3728453638
0.3728287828
0.3728187485
0.3728287831
0.3728453643
0.3728579427
0.3728640273
0.3728590902
0.3728509162
0.3728346568
0.3728144121
0.3728030772
0.3728144124
0.3728346571
0.3728509167
0.3728590903
0.3728530487
0.3728428319
0.3728232404
0.3728001028
0.3727879872
0.3728001031
0.3728232406
0.3728428324
0.3728530491
0.3728460355
0.3728339825
0.3728116316
0.372786452
0.3727739832
0.3727864526
0.3728116322
0.3728339831
0.3728460358
0.372838236
0.372824666
0.3728002407
0.3727738343
0.3727613413
0.3727738347
0.3728002414
0.3728246667
0.3728382364
0.3728298626
0.3728151541
0.3727893601
0.3727624429
0.3727501688
0.3727624436
0.3727893608
0.3728151548
0.372829863
0.3728211305
0.3728056761
0.3727791762
0.37275234
0.3727404583
0.3727523406
0.3727791771
0.372805677
0.3728211312
0.372812243
0.3727964148
0.3727697906
0.3727435006
0.3727321304
0.3727435015
0.3727697916
0.3727964162
0.3728122436
0.3728033875
0.3727875154
0.3727612471
0.3727358498
0.3727250683
0.3727358506
0.3727612485
0.3727875168
0.3728033887
0.3727947647
0.3727791173
0.3727535725
0.372729302
0.3727191496
0.3727293029
0.372753574
0.3727791188
0.3727947659
0.372786728
0.3727714895
0.3727468897
0.3727238473
0.3727143197
0.3727238483
0.3727468912
0.372771491
0.3727867297
0.3727804087
0.3727655975
0.3727418825
0.372719896
0.372710879
0.3727198969
0.3727418841
0.3727655993
0.3727804107
0.3728722037
0.3728708649
0.3728678635
0.3728633486
0.3728599545
0.3728633485
0.3728678635
0.3728708647
0.3728722035
0.3728704848
0.3728679668
0.3728623976
0.3728542246
0.3728483783
0.3728542248
0.3728623975
0.3728679667
0.3728704845
0.3728678091
0.3728636699
0.3728547881
0.372842386
0.3728342132
0.372842386
0.3728547881
0.37286367
0.372867809
0.3728640275
0.3728579431
0.3728453651
0.3728287846
0.3728187508
0.3728287849
0.3728453653
0.3728579434
0.3728640276
0.3728590906
0.3728509173
0.3728346583
0.3728144146
0.3728030804
0.3728144149
0.3728346587
0.3728509175
0.3728590908
0.3728530494
0.3728428332
0.3728232423
0.3728001057
0.3727879909
0.3728001063
0.3728232428
0.3728428335
0.3728530499
0.3728460362
0.372833984
0.372811634
0.3727864557
0.3727739875
0.3727864562
0.3728116349
0.3728339846
0.3728460368
0.372838237
0.3728246677
0.3728002433
0.3727738383
0.372761346
0.3727738392
0.3728002444
0.3728246687
0.372838238
0.3728298638
0.3728151559
0.372789363
0.3727624474
0.372750174
0.3727624485
0.3727893645
0.3728151573
0.372829865
0.3728211318
0.3728056782
0.3727791796
0.3727523451
0.372740464
0.3727523462
0.3727791812
0.3728056798
0.3728211333
0.3728122444
0.3727964174
0.3727697944
0.3727435061
0.3727321365
0.3727435072
0.3727697962
0.3727964193
0.3728122463
0.3728033896
0.3727875182
0.3727612515
0.3727358554
0.3727250744
0.3727358567
0.3727612533
0.3727875204
0.3728033917
0.372794767
0.3727791206
0.3727535769
0.3727293078
0.3727191561
0.3727293091
0.3727535792
0.3727791232
0.3727947697
0.3727867307
0.3727714929
0.3727468943
0.3727238535
0.3727143264
0.3727238547
0.3727468967
0.3727714956
0.3727867336
0.3727804118
0.3727656013
0.372741887
0.372719902
0.3727108858
0.3727199035
0.3727418898
0.3727656042
0.372780415
)
;
    }
    inlet
    {
        type            calculated;
        value           nonuniform 0();
    }
    outlet
    {
        type            calculated;
        value           nonuniform List<scalar> 
81
(
0.3727804087
0.3727655975
0.3727418825
0.372719896
0.372710879
0.3727198969
0.3727418841
0.3727655993
0.3727804107
0.3727655975
0.3727469449
0.3727168539
0.3726886898
0.37267705
0.3726886909
0.3727168562
0.3727469472
0.3727655999
0.3727418824
0.3727168541
0.3726761136
0.3726375418
0.3726214476
0.3726375438
0.3726761167
0.3727168573
0.3727418861
0.3727198961
0.3726886899
0.3726375421
0.3725886794
0.3725681186
0.3725886817
0.3726375462
0.3726886944
0.3727199009
0.3727108796
0.3726770504
0.3726214484
0.372568119
0.3725454882
0.3725681217
0.372621453
0.3726770556
0.3727108849
0.3727198978
0.372688692
0.3726375449
0.3725886823
0.3725681221
0.3725886853
0.372637549
0.3726886967
0.372719903
0.3727418848
0.3727168572
0.3726761178
0.3726375474
0.3726214535
0.3726375495
0.3726761213
0.3727168612
0.3727418892
0.3727656003
0.3727469485
0.3727168587
0.3726886956
0.3726770565
0.3726886974
0.3727168617
0.3727469516
0.3727656037
0.3727804118
0.3727656013
0.372741887
0.372719902
0.3727108858
0.3727199035
0.3727418898
0.3727656042
0.372780415
)
;
    }
    procBoundary1to0
    {
        type            processor;
        value           nonuniform List<scalar> 
97
(
0.3728722034
0.3728722034
0.3728708646
0.3728678635
0.3728633487
0.3728599549
0.3728633488
0.3728678635
0.3728708649
0.3728722038
0.3728725759
0.372867783
0.372867783
0.372867783
0.372859827
0.3728449744
0.3728294404
0.3728449751
0.3728598274
0.3728677836
0.372870865
0.3728712187
0.3728676978
0.3728351919
0.3728351919
0.3728351919
0.3727752713
0.3726801545
0.3727752741
0.3728351946
0.3728598276
0.3728678636
0.3728692264
0.3728614811
0.3728343483
0.3725356541
0.3725356541
0.3725356541
0.3718627663
0.3725356733
0.372775274
0.3728449752
0.372863349
0.3728678019
0.3728556053
0.3728041509
0.3726001116
0.3663202567
0.3663202567
0.3663202567
0.3718627636
0.3718627636
0.3726801532
0.3728294399
0.3728599548
0.3728692268
0.3728614814
0.3728343479
0.3727553398
0.3726001093
0.3727553412
0.3727752679
0.3727752679
0.3727752679
0.3728449741
0.3728633485
0.3728712187
0.3728676977
0.3728573658
0.3728343479
0.3728041507
0.3728343482
0.3728573657
0.3728598264
0.3728598264
0.3728598264
0.3728678633
0.372872576
0.37287119
0.3728676979
0.3728614812
0.3728556053
0.3728614815
0.3728676979
0.3728711897
0.3728708645
0.3728708645
0.3728708645
0.3728731898
0.3728725761
0.3728712187
0.3728692266
0.3728678019
0.3728692266
0.3728712187
0.3728725758
0.3728731897
)
;
    }
}


// ************************************************************************* //
