/*--------------------------------*- C++ -*----------------------------------*\
| =========                 |                                                 |
| \\      /  F ield         | OpenFOAM: The Open Source CFD Toolbox           |
|  \\    /   O peration     | Version:  4.x                                   |
|   \\  /    A nd           | Web:      www.OpenFOAM.org                      |
|    \\/     M anipulation  |                                                 |
\*---------------------------------------------------------------------------*/
FoamFile
{
    version     2.0;
    format      ascii;
    class       volScalarField;
    location    "4000";
    object      X_N2;
}
// * * * * * * * * * * * * * * * * * * * * * * * * * * * * * * * * * * * * * //

dimensions      [0 0 0 0 0 0 0];

internalField   nonuniform List<scalar> 
1174
(
0.6229746266
0.6229746254
0.6229746238
0.6229746219
0.6229746188
0.6229746157
0.6229746117
0.6229746073
0.6229746026
0.6229745976
0.6229745918
0.6229745861
0.6229745804
0.6229745758
0.6229746257
0.622974624
0.6229746214
0.6229746185
0.6229746147
0.6229746106
0.6229746059
0.6229746012
0.6229745959
0.6229745901
0.6229745843
0.6229745783
0.622974573
0.6229745687
0.6229746233
0.6229746204
0.6229746168
0.6229746129
0.6229746079
0.6229746025
0.6229745969
0.6229745911
0.6229745852
0.622974579
0.6229745728
0.6229745672
0.6229745617
0.6229745576
0.622974621
0.622974617
0.6229746119
0.6229746062
0.6229746002
0.6229745938
0.6229745875
0.622974581
0.6229745747
0.6229745687
0.6229745628
0.622974557
0.6229745518
0.6229745478
0.6229746192
0.6229746146
0.622974609
0.6229746028
0.6229745969
0.6229745902
0.6229745838
0.6229745773
0.622974571
0.6229745648
0.6229745591
0.6229745532
0.6229745481
0.6229745444
0.6229746209
0.622974617
0.6229746122
0.6229746065
0.6229746005
0.6229745945
0.622974588
0.622974582
0.6229745754
0.6229745696
0.6229745637
0.6229745582
0.622974553
0.6229745488
0.6229746237
0.622974621
0.6229746174
0.622974613
0.622974608
0.6229746031
0.6229745976
0.6229745918
0.6229745862
0.6229745802
0.6229745745
0.6229745689
0.6229745635
0.6229745596
0.622974626
0.6229746241
0.6229746219
0.6229746189
0.6229746152
0.6229746111
0.6229746067
0.6229746019
0.6229745969
0.6229745917
0.622974586
0.6229745801
0.6229745748
0.6229745708
0.6229746269
0.6229746258
0.6229746241
0.6229746219
0.6229746193
0.622974616
0.6229746121
0.6229746078
0.6229746033
0.6229745983
0.6229745932
0.6229745876
0.6229745825
0.6229745784
0.6229746268
0.6229746256
0.6229746238
0.6229746216
0.6229746187
0.622974615
0.6229746109
0.6229746062
0.6229746009
0.6229745956
0.6229745903
0.6229745845
0.6229745786
0.6229745729
0.6229745686
0.6229746234
0.622974621
0.6229746172
0.6229746129
0.6229746083
0.6229746031
0.6229745979
0.6229745919
0.6229745864
0.6229745806
0.6229745744
0.6229745689
0.6229745634
0.6229745595
0.6229746188
0.6229746137
0.6229746082
0.6229746022
0.6229745957
0.6229745893
0.6229745829
0.6229745766
0.6229745705
0.6229745651
0.6229745594
0.6229745541
0.6229745493
0.6229745456
0.6229746112
0.6229746041
0.6229745962
0.6229745885
0.622974581
0.6229745739
0.6229745674
0.6229745616
0.6229745558
0.6229745504
0.6229745456
0.6229745408
0.6229745368
0.622974534
0.6229746067
0.6229745978
0.6229745893
0.6229745813
0.6229745736
0.6229745666
0.6229745605
0.6229745549
0.6229745496
0.6229745448
0.6229745403
0.6229745359
0.6229745322
0.6229745296
0.6229746119
0.6229746044
0.6229745966
0.6229745893
0.6229745819
0.6229745747
0.6229745682
0.6229745625
0.6229745571
0.6229745522
0.6229745473
0.6229745426
0.6229745383
0.6229745352
0.6229746188
0.622974614
0.6229746086
0.6229746027
0.6229745968
0.6229745905
0.6229745841
0.6229745786
0.6229745727
0.6229745671
0.6229745616
0.6229745566
0.6229745521
0.6229745484
0.6229746237
0.622974621
0.6229746176
0.6229746138
0.6229746092
0.6229746041
0.6229745987
0.6229745934
0.622974588
0.6229745829
0.6229745769
0.6229745716
0.6229745664
0.6229745623
0.6229746261
0.6229746245
0.6229746219
0.6229746191
0.6229746158
0.6229746116
0.6229746071
0.6229746022
0.6229745973
0.622974592
0.6229745866
0.6229745811
0.622974576
0.6229745716
0.6229746258
0.6229746237
0.6229746207
0.6229746172
0.622974613
0.6229746082
0.6229746027
0.6229745972
0.622974591
0.6229745851
0.6229745793
0.6229745734
0.6229745671
0.6229745618
0.6229745574
0.6229746228
0.6229746187
0.6229746143
0.6229746086
0.6229746024
0.622974596
0.6229745896
0.6229745831
0.6229745771
0.6229745709
0.6229745651
0.6229745599
0.6229745544
0.6229745495
0.6229745458
0.6229746056
0.6229745973
0.6229745884
0.6229745797
0.6229745714
0.622974564
0.6229745579
0.6229745526
0.6229745473
0.6229745428
0.6229745385
0.6229745344
0.6229745305
0.6229745282
0.6229745833
0.6229745697
0.6229745574
0.622974548
0.6229745408
0.6229745352
0.6229745305
0.6229745268
0.6229745237
0.6229745208
0.6229745186
0.6229745162
0.6229745142
0.6229745126
0.6229745629
0.6229745478
0.6229745366
0.6229745291
0.6229745239
0.6229745204
0.6229745175
0.6229745158
0.6229745138
0.6229745124
0.6229745108
0.6229745098
0.6229745083
0.6229745073
0.622974585
0.6229745714
0.6229745597
0.6229745505
0.6229745431
0.6229745375
0.622974533
0.6229745295
0.6229745261
0.6229745234
0.6229745211
0.6229745191
0.6229745169
0.6229745151
0.622974607
0.6229745984
0.6229745895
0.6229745816
0.6229745736
0.6229745671
0.6229745609
0.6229745558
0.6229745507
0.6229745463
0.6229745423
0.6229745384
0.6229745348
0.6229745322
0.6229746193
0.6229746147
0.6229746093
0.6229746033
0.6229745972
0.6229745915
0.6229745853
0.6229745796
0.6229745739
0.6229745685
0.6229745633
0.6229745584
0.6229745535
0.6229745497
0.6229746238
0.6229746212
0.6229746178
0.622974614
0.6229746092
0.6229746041
0.6229745987
0.6229745933
0.6229745878
0.6229745824
0.6229745767
0.6229745713
0.6229745659
0.6229745621
0.6229746244
0.6229746214
0.6229746175
0.6229746128
0.6229746069
0.6229746007
0.6229745945
0.6229745882
0.6229745818
0.6229745751
0.622974569
0.622974563
0.6229745572
0.6229745517
0.6229745476
0.6229746189
0.6229746125
0.6229746053
0.6229745974
0.6229745894
0.622974582
0.6229745746
0.6229745682
0.6229745622
0.6229745563
0.622974551
0.622974546
0.6229745414
0.622974537
0.6229745338
0.6229745993
0.622974585
0.6229745712
0.6229745589
0.6229745491
0.6229745417
0.6229745359
0.6229745311
0.6229745274
0.6229745241
0.6229745212
0.6229745188
0.6229745166
0.6229745143
0.6229745128
0.6229745158
0.6229745005
0.6229744915
0.6229744875
0.6229744865
0.6229744869
0.6229744882
0.6229744899
0.6229744909
0.6229744921
0.622974493
0.6229744933
0.6229744939
0.6229744946
0.6229744274
0.6229744262
0.6229744335
0.6229744436
0.6229744531
0.6229744616
0.6229744681
0.6229744734
0.6229744774
0.6229744809
0.6229744834
0.6229744852
0.6229744866
0.6229744879
0.6229745221
0.6229745053
0.6229744961
0.6229744923
0.6229744917
0.6229744922
0.6229744931
0.6229744944
0.6229744953
0.622974496
0.622974497
0.6229744972
0.6229744974
0.6229744976
0.6229745849
0.6229745719
0.6229745614
0.6229745529
0.622974546
0.6229745406
0.6229745363
0.6229745328
0.6229745295
0.622974527
0.6229745242
0.622974522
0.6229745195
0.6229745181
0.6229746122
0.6229746052
0.6229745981
0.6229745909
0.6229745846
0.6229745778
0.6229745715
0.6229745662
0.6229745611
0.622974556
0.6229745513
0.6229745466
0.6229745426
0.6229745396
0.6229746214
0.6229746173
0.6229746129
0.6229746077
0.6229746022
0.6229745964
0.6229745908
0.6229745848
0.6229745792
0.6229745734
0.6229745677
0.6229745625
0.6229745578
0.622974554
0.6229746234
0.6229746201
0.6229746154
0.6229746098
0.6229746036
0.6229745973
0.6229745909
0.6229745845
0.6229745779
0.6229745717
0.6229745656
0.6229745595
0.6229745539
0.6229745487
0.6229745447
0.6229746157
0.6229746077
0.6229745991
0.6229745908
0.6229745826
0.622974575
0.6229745679
0.6229745618
0.6229745559
0.6229745506
0.6229745459
0.6229745412
0.6229745365
0.6229745327
0.6229745298
0.6229745859
0.6229745661
0.6229745503
0.6229745388
0.622974531
0.6229745257
0.622974522
0.622974519
0.6229745168
0.622974515
0.6229745132
0.6229745115
0.6229745099
0.6229745088
0.6229745081
0.6229744593
0.6229744359
0.6229744315
0.6229744368
0.6229744459
0.6229744549
0.6229744629
0.6229744692
0.6229744743
0.6229744781
0.6229744816
0.622974484
0.6229744858
0.622974487
0.6229744882
0.6229740719
0.6229742332
0.6229743226
0.622974375
0.6229744081
0.6229744299
0.6229744453
0.6229744557
0.6229744634
0.6229744694
0.6229744737
0.622974477
0.6229744794
0.6229744812
0.6229744271
0.6229744327
0.6229744429
0.6229744536
0.6229744626
0.6229744697
0.6229744755
0.62297448
0.6229744838
0.6229744866
0.6229744885
0.6229744899
0.6229744907
0.6229744916
0.6229745622
0.6229745502
0.6229745421
0.6229745364
0.6229745323
0.6229745288
0.6229745263
0.6229745241
0.622974522
0.6229745199
0.6229745181
0.6229745164
0.6229745149
0.6229745139
0.6229746062
0.6229745989
0.6229745916
0.6229745847
0.6229745783
0.6229745721
0.6229745668
0.6229745614
0.6229745566
0.6229745518
0.6229745474
0.6229745429
0.6229745392
0.6229745367
0.6229746194
0.6229746152
0.6229746103
0.6229746049
0.6229745991
0.6229745934
0.6229745878
0.622974582
0.6229745762
0.6229745705
0.6229745649
0.6229745597
0.6229745554
0.6229745518
0.6229746245
0.6229746216
0.6229746178
0.6229746128
0.6229746074
0.6229746016
0.6229745956
0.622974589
0.622974583
0.6229745767
0.6229745706
0.6229745647
0.6229745592
0.6229745539
0.6229745497
0.622974619
0.6229746129
0.6229746058
0.6229745983
0.6229745907
0.6229745835
0.6229745765
0.6229745702
0.6229745641
0.6229745585
0.6229745532
0.622974548
0.6229745437
0.6229745394
0.6229745363
0.6229746024
0.6229745881
0.6229745742
0.6229745622
0.6229745527
0.6229745452
0.6229745396
0.6229745351
0.6229745311
0.6229745277
0.622974525
0.6229745221
0.6229745196
0.6229745178
0.6229745163
0.6229745584
0.6229745295
0.622974511
0.6229745003
0.6229744958
0.6229744941
0.6229744943
0.6229744953
0.6229744962
0.6229744969
0.6229744974
0.622974498
0.6229744981
0.6229744978
0.622974498
0.622974461
0.6229744381
0.6229744395
0.6229744479
0.6229744567
0.6229744648
0.6229744718
0.6229744769
0.6229744814
0.6229744847
0.6229744871
0.6229744893
0.6229744905
0.6229744912
0.622974492
0.6229745557
0.6229745295
0.6229745137
0.6229745053
0.6229745015
0.6229745003
0.6229745001
0.6229745004
0.6229745013
0.6229745018
0.6229745023
0.6229745025
0.6229745021
0.6229745017
0.6229745019
0.6229745832
0.6229745734
0.6229745641
0.6229745567
0.6229745501
0.6229745453
0.6229745409
0.6229745372
0.6229745345
0.6229745315
0.6229745285
0.622974526
0.6229745233
0.6229745215
0.6229746109
0.6229746048
0.6229745986
0.6229745921
0.622974586
0.6229745796
0.6229745741
0.6229745689
0.6229745636
0.6229745591
0.6229745543
0.6229745498
0.6229745457
0.6229745425
0.6229746208
0.6229746171
0.6229746129
0.6229746081
0.622974603
0.6229745976
0.622974592
0.6229745865
0.622974581
0.6229745755
0.62297457
0.6229745649
0.6229745603
0.6229745568
0.6229746261
0.6229746241
0.6229746216
0.622974618
0.6229746139
0.622974609
0.6229746037
0.6229745985
0.6229745927
0.6229745873
0.6229745813
0.6229745756
0.6229745698
0.6229745642
0.6229745603
0.6229746235
0.6229746197
0.6229746153
0.6229746096
0.622974604
0.6229745976
0.6229745915
0.6229745856
0.6229745795
0.622974574
0.6229745687
0.6229745631
0.6229745579
0.6229745532
0.6229745494
0.622974616
0.6229746086
0.6229746001
0.6229745913
0.622974583
0.6229745754
0.6229745686
0.6229745627
0.6229745572
0.6229745522
0.6229745477
0.6229745433
0.6229745396
0.6229745357
0.6229745331
0.6229746022
0.6229745886
0.6229745754
0.6229745647
0.6229745557
0.6229745483
0.6229745428
0.6229745382
0.6229745344
0.6229745312
0.6229745284
0.6229745256
0.6229745232
0.6229745203
0.6229745192
0.6229745852
0.6229745683
0.6229745552
0.6229745461
0.6229745394
0.6229745346
0.6229745309
0.6229745277
0.6229745253
0.6229745231
0.622974521
0.6229745195
0.6229745177
0.6229745156
0.6229745142
0.6229746022
0.6229745891
0.6229745769
0.6229745667
0.6229745583
0.6229745519
0.6229745465
0.6229745419
0.6229745383
0.6229745351
0.6229745319
0.6229745288
0.6229745262
0.6229745237
0.6229745221
0.622974615
0.6229746076
0.6229746001
0.6229745924
0.6229745854
0.6229745785
0.6229745726
0.6229745671
0.6229745619
0.6229745573
0.6229745528
0.6229745483
0.6229745445
0.6229745408
0.6229745377
0.6229746184
0.6229746145
0.6229746097
0.6229746049
0.6229745995
0.6229745944
0.6229745889
0.6229745833
0.622974578
0.6229745728
0.6229745676
0.6229745629
0.6229745585
0.6229745547
0.6229746233
0.6229746209
0.6229746179
0.6229746141
0.6229746099
0.6229746053
0.6229746006
0.6229745958
0.6229745905
0.6229745852
0.62297458
0.6229745746
0.62297457
0.6229745661
0.6229746271
0.6229746262
0.6229746244
0.622974622
0.6229746193
0.6229746159
0.6229746119
0.6229746075
0.6229746027
0.6229745974
0.6229745922
0.6229745869
0.6229745813
0.6229745761
0.6229745718
0.6229746262
0.6229746246
0.6229746221
0.6229746184
0.6229746139
0.6229746098
0.622974605
0.6229746
0.6229745946
0.6229745892
0.6229745835
0.622974578
0.6229745724
0.6229745674
0.6229745637
0.6229746233
0.6229746202
0.6229746155
0.6229746101
0.6229746045
0.6229745988
0.6229745927
0.6229745867
0.622974581
0.6229745755
0.6229745701
0.6229745647
0.6229745597
0.6229745545
0.6229745512
0.6229746189
0.6229746133
0.6229746066
0.6229745998
0.6229745928
0.6229745858
0.6229745796
0.6229745734
0.6229745677
0.6229745624
0.6229745574
0.6229745526
0.6229745482
0.6229745438
0.6229745408
0.6229746155
0.6229746086
0.6229746012
0.6229745937
0.6229745868
0.62297458
0.6229745739
0.6229745679
0.6229745628
0.6229745579
0.6229745531
0.6229745485
0.622974544
0.6229745403
0.6229745374
0.6229746189
0.6229746134
0.6229746071
0.6229746006
0.6229745939
0.6229745872
0.6229745813
0.6229745754
0.6229745702
0.6229745649
0.6229745598
0.6229745552
0.6229745505
0.6229745461
0.622974543
0.6229746227
0.6229746193
0.6229746154
0.6229746107
0.6229746054
0.6229746001
0.6229745947
0.6229745892
0.6229745839
0.6229745787
0.6229745734
0.6229745683
0.6229745634
0.6229745586
0.6229745551
0.6229746256
0.6229746237
0.6229746215
0.6229746185
0.6229746149
0.6229746109
0.6229746064
0.6229746017
0.622974597
0.622974592
0.6229745869
0.6229745818
0.6229745768
0.6229745717
0.6229745678
0.6229746257
0.6229746241
0.6229746218
0.6229746195
0.6229746164
0.6229746129
0.6229746088
0.6229746044
0.6229746003
0.6229745954
0.6229745907
0.6229745855
0.6229745804
0.6229745764
0.6229746279
0.6229746272
0.6229746257
0.6229746243
0.6229746223
0.6229746196
0.6229746165
0.6229746128
0.6229746086
0.6229746039
0.622974599
0.6229745942
0.6229745887
0.6229745835
0.6229745796
0.6229746274
0.6229746263
0.6229746244
0.6229746223
0.6229746196
0.6229746162
0.6229746122
0.6229746078
0.622974603
0.6229745982
0.6229745929
0.6229745874
0.6229745822
0.622974577
0.6229745731
0.6229746261
0.6229746242
0.6229746216
0.6229746182
0.6229746145
0.6229746101
0.6229746051
0.6229745997
0.6229745943
0.622974589
0.6229745834
0.6229745781
0.6229745723
0.6229745671
0.6229745629
0.6229746245
0.6229746215
0.622974618
0.6229746137
0.6229746087
0.6229746032
0.6229745977
0.6229745917
0.622974586
0.6229745804
0.6229745749
0.6229745693
0.6229745639
0.6229745591
0.6229745548
0.6229746235
0.6229746202
0.6229746161
0.6229746112
0.6229746063
0.6229746008
0.6229745949
0.6229745889
0.6229745831
0.6229745776
0.6229745719
0.6229745661
0.6229745608
0.6229745561
0.6229745524
0.6229746244
0.6229746218
0.6229746181
0.622974614
0.6229746092
0.6229746039
0.6229745983
0.622974593
0.6229745875
0.622974582
0.6229745764
0.6229745711
0.6229745656
0.6229745606
0.6229745568
0.622974626
0.6229746241
0.6229746216
0.6229746185
0.6229746149
0.6229746106
0.6229746062
0.622974601
0.6229745961
0.6229745912
0.6229745857
0.6229745803
0.6229745753
0.6229745703
0.6229745666
0.622974627
0.6229746261
0.6229746246
0.6229746227
0.6229746199
0.6229746166
0.6229746129
0.6229746091
0.6229746048
0.6229746002
0.6229745954
0.6229745903
0.6229745856
0.6229745805
0.6229745769
0.6229746277
0.6229746267
0.6229746256
0.6229746245
0.6229746225
0.6229746203
0.6229746173
0.6229746141
0.6229746103
0.6229746058
0.6229746015
0.6229745969
0.6229745923
0.6229745874
0.6229745839
)
;

boundaryField
{
    top
    {
        type            calculated;
        value           nonuniform List<scalar> 
127
(
0.6229746277
0.6229746269
0.6229746261
0.6229746238
0.6229746214
0.6229746194
0.6229746208
0.6229746233
0.6229746257
0.6229746267
0.6229746258
0.6229746245
0.6229746212
0.6229746173
0.6229746152
0.6229746171
0.6229746209
0.6229746241
0.6229746256
0.6229746241
0.6229746219
0.6229746178
0.6229746129
0.6229746103
0.6229746129
0.6229746179
0.6229746218
0.6229746245
0.6229746219
0.6229746191
0.622974614
0.6229746077
0.6229746049
0.6229746081
0.6229746141
0.6229746195
0.6229746225
0.6229746193
0.6229746158
0.6229746092
0.6229746022
0.6229745991
0.622974603
0.6229746099
0.6229746164
0.6229746203
0.622974616
0.6229746116
0.6229746041
0.6229745964
0.6229745934
0.6229745976
0.6229746053
0.6229746129
0.6229746173
0.6229746121
0.6229746071
0.6229745987
0.6229745908
0.6229745878
0.622974592
0.6229746006
0.6229746088
0.6229746141
0.6229746078
0.6229746022
0.6229745933
0.6229745848
0.622974582
0.6229745865
0.6229745958
0.6229746044
0.6229746103
0.6229746033
0.6229745973
0.6229745878
0.6229745792
0.6229745762
0.622974581
0.6229745905
0.6229746003
0.6229746058
0.6229745983
0.622974592
0.6229745824
0.6229745734
0.6229745705
0.6229745755
0.6229745852
0.6229745954
0.6229746015
0.6229745932
0.6229745866
0.6229745767
0.6229745677
0.6229745649
0.62297457
0.62297458
0.6229745907
0.6229745969
0.6229745876
0.6229745811
0.6229745713
0.6229745625
0.6229745597
0.6229745649
0.6229745746
0.6229745855
0.6229745923
0.6229745825
0.622974576
0.6229745659
0.6229745578
0.6229745554
0.6229745603
0.62297457
0.6229745804
0.6229745874
0.6229745784
0.6229745716
0.6229745621
0.622974554
0.6229745518
0.6229745568
0.6229745661
0.6229745764
0.6229745839
)
;
    }
    bottom
    {
        type            calculated;
        value           nonuniform List<scalar> 
134
(
0.6229746268
0.6229746258
0.6229746244
0.6229746234
0.6229746245
0.6229746261
0.6229746271
0.6229746279
0.6229746266
0.6229746256
0.6229746237
0.6229746214
0.6229746201
0.6229746216
0.6229746241
0.6229746262
0.6229746272
0.6229746254
0.6229746238
0.6229746207
0.6229746175
0.6229746154
0.6229746178
0.6229746216
0.6229746244
0.6229746257
0.6229746238
0.6229746216
0.6229746172
0.6229746128
0.6229746098
0.6229746128
0.622974618
0.622974622
0.6229746243
0.6229746219
0.6229746187
0.622974613
0.6229746069
0.6229746036
0.6229746074
0.6229746139
0.6229746193
0.6229746223
0.6229746188
0.622974615
0.6229746082
0.6229746007
0.6229745973
0.6229746016
0.622974609
0.6229746159
0.6229746196
0.6229746157
0.6229746109
0.6229746027
0.6229745945
0.6229745909
0.6229745956
0.6229746037
0.6229746119
0.6229746165
0.6229746117
0.6229746062
0.6229745972
0.6229745882
0.6229745845
0.622974589
0.6229745985
0.6229746075
0.6229746128
0.6229746073
0.6229746009
0.622974591
0.6229745818
0.6229745779
0.622974583
0.6229745927
0.6229746027
0.6229746086
0.6229746026
0.6229745956
0.6229745851
0.6229745751
0.6229745717
0.6229745767
0.6229745873
0.6229745974
0.6229746039
0.6229745976
0.6229745903
0.6229745793
0.622974569
0.6229745656
0.6229745706
0.6229745813
0.6229745922
0.622974599
0.6229745918
0.6229745845
0.6229745734
0.622974563
0.6229745595
0.6229745647
0.6229745756
0.6229745869
0.6229745942
0.6229745861
0.6229745786
0.6229745671
0.6229745572
0.6229745539
0.6229745592
0.6229745698
0.6229745813
0.6229745887
0.6229745804
0.6229745729
0.6229745618
0.6229745517
0.6229745487
0.6229745539
0.6229745642
0.6229745761
0.6229745835
0.6229745758
0.6229745686
0.6229745574
0.6229745476
0.6229745447
0.6229745497
0.6229745603
0.6229745718
0.6229745796
)
;
    }
    side-walls
    {
        type            calculated;
        value           nonuniform List<scalar> 
261
(
0.6229746266
0.6229746257
0.6229746233
0.622974621
0.6229746192
0.6229746209
0.6229746237
0.622974626
0.6229746269
0.6229746254
0.622974624
0.6229746204
0.622974617
0.6229746146
0.622974617
0.622974621
0.6229746241
0.6229746258
0.6229746238
0.6229746214
0.6229746168
0.6229746119
0.622974609
0.6229746122
0.6229746174
0.6229746219
0.6229746241
0.6229746219
0.6229746185
0.6229746129
0.6229746062
0.6229746028
0.6229746065
0.622974613
0.6229746189
0.6229746219
0.6229746188
0.6229746147
0.6229746079
0.6229746002
0.6229745969
0.6229746005
0.622974608
0.6229746152
0.6229746193
0.6229746157
0.6229746106
0.6229746025
0.6229745938
0.6229745902
0.6229745945
0.6229746031
0.6229746111
0.622974616
0.6229746117
0.6229746059
0.6229745969
0.6229745875
0.6229745838
0.622974588
0.6229745976
0.6229746067
0.6229746121
0.6229746073
0.6229746012
0.6229745911
0.622974581
0.6229745773
0.622974582
0.6229745918
0.6229746019
0.6229746078
0.6229746026
0.6229745959
0.6229745852
0.6229745747
0.622974571
0.6229745754
0.6229745862
0.6229745969
0.6229746033
0.6229745976
0.6229745901
0.622974579
0.6229745687
0.6229745648
0.6229745696
0.6229745802
0.6229745917
0.6229745983
0.6229745918
0.6229745843
0.6229745728
0.6229745628
0.6229745591
0.6229745637
0.6229745745
0.622974586
0.6229745932
0.6229745861
0.6229745783
0.6229745672
0.622974557
0.6229745532
0.6229745582
0.6229745689
0.6229745801
0.6229745876
0.6229745804
0.622974573
0.6229745617
0.6229745518
0.6229745481
0.622974553
0.6229745635
0.6229745748
0.6229745825
0.6229745758
0.6229745687
0.6229745576
0.6229745478
0.6229745444
0.6229745488
0.6229745596
0.6229745708
0.6229745784
0.6229746279
0.6229746274
0.6229746261
0.6229746245
0.6229746235
0.6229746244
0.622974626
0.622974627
0.6229746277
0.6229746272
0.6229746263
0.6229746242
0.6229746215
0.6229746202
0.6229746218
0.6229746241
0.6229746261
0.6229746267
0.6229746257
0.6229746244
0.6229746216
0.622974618
0.6229746161
0.6229746181
0.6229746216
0.6229746246
0.6229746256
0.6229746243
0.6229746223
0.6229746182
0.6229746137
0.6229746112
0.622974614
0.6229746185
0.6229746227
0.6229746245
0.6229746223
0.6229746196
0.6229746145
0.6229746087
0.6229746063
0.6229746092
0.6229746149
0.6229746199
0.6229746225
0.6229746196
0.6229746162
0.6229746101
0.6229746032
0.6229746008
0.6229746039
0.6229746106
0.6229746166
0.6229746203
0.6229746165
0.6229746122
0.6229746051
0.6229745977
0.6229745949
0.6229745983
0.6229746062
0.6229746129
0.6229746173
0.6229746128
0.6229746078
0.6229745997
0.6229745917
0.6229745889
0.622974593
0.622974601
0.6229746091
0.6229746141
0.6229746086
0.622974603
0.6229745943
0.622974586
0.6229745831
0.6229745875
0.6229745961
0.6229746048
0.6229746103
0.6229746039
0.6229745982
0.622974589
0.6229745804
0.6229745776
0.622974582
0.6229745912
0.6229746002
0.6229746058
0.622974599
0.6229745929
0.6229745834
0.6229745749
0.6229745719
0.6229745764
0.6229745857
0.6229745954
0.6229746015
0.6229745942
0.6229745874
0.6229745781
0.6229745693
0.6229745661
0.6229745711
0.6229745803
0.6229745903
0.6229745969
0.6229745887
0.6229745822
0.6229745723
0.6229745639
0.6229745608
0.6229745656
0.6229745753
0.6229745856
0.6229745923
0.6229745835
0.622974577
0.6229745671
0.6229745591
0.6229745561
0.6229745606
0.6229745703
0.6229745805
0.6229745874
0.6229745796
0.6229745731
0.6229745629
0.6229745548
0.6229745524
0.6229745568
0.6229745666
0.6229745769
0.6229745839
)
;
    }
    inlet
    {
        type            calculated;
        value           nonuniform 0();
    }
    outlet
    {
        type            calculated;
        value           nonuniform List<scalar> 
81
(
0.6229745758
0.6229745687
0.6229745576
0.6229745478
0.6229745444
0.6229745488
0.6229745596
0.6229745708
0.6229745784
0.6229745686
0.6229745595
0.6229745456
0.622974534
0.6229745296
0.6229745352
0.6229745484
0.6229745623
0.6229745716
0.6229745574
0.6229745458
0.6229745282
0.6229745126
0.6229745073
0.6229745151
0.6229745322
0.6229745497
0.6229745621
0.6229745476
0.6229745338
0.6229745128
0.6229744946
0.6229744879
0.6229744976
0.6229745181
0.6229745396
0.622974554
0.6229745447
0.6229745298
0.6229745081
0.6229744882
0.6229744812
0.6229744916
0.6229745139
0.6229745367
0.6229745518
0.6229745497
0.6229745363
0.6229745163
0.622974498
0.622974492
0.6229745019
0.6229745215
0.6229745425
0.6229745568
0.6229745603
0.6229745494
0.6229745331
0.6229745192
0.6229745142
0.6229745221
0.6229745377
0.6229745547
0.6229745661
0.6229745718
0.6229745637
0.6229745512
0.6229745408
0.6229745374
0.622974543
0.6229745551
0.6229745678
0.6229745764
0.6229745796
0.6229745731
0.6229745629
0.6229745548
0.6229745524
0.6229745568
0.6229745666
0.6229745769
0.6229745839
)
;
    }
    procBoundary1to0
    {
        type            processor;
        value           nonuniform List<scalar> 
97
(
0.6229746275
0.6229746275
0.6229746269
0.622974626
0.6229746247
0.6229746241
0.6229746248
0.622974626
0.6229746273
0.622974628
0.6229746278
0.6229746256
0.6229746256
0.6229746256
0.6229746233
0.6229746195
0.6229746176
0.6229746201
0.6229746236
0.6229746264
0.6229746275
0.6229746275
0.6229746262
0.6229746152
0.6229746152
0.6229746152
0.6229746044
0.6229745969
0.6229746067
0.6229746177
0.622974624
0.6229746261
0.6229746263
0.6229746241
0.622974618
0.6229745583
0.6229745583
0.6229745583
0.6229745399
0.622974576
0.622974607
0.6229746204
0.6229746251
0.6229746263
0.6229746228
0.6229746116
0.6229745828
0.6229744211
0.6229744211
0.6229744211
0.6229745361
0.6229745361
0.6229745962
0.6229746172
0.6229746241
0.6229746269
0.6229746244
0.622974617
0.6229746004
0.6229745791
0.6229746026
0.6229746002
0.6229746002
0.6229746002
0.6229746193
0.6229746245
0.6229746276
0.622974626
0.6229746232
0.6229746171
0.6229746111
0.6229746174
0.6229746232
0.6229746226
0.6229746226
0.6229746226
0.6229746258
0.622974628
0.6229746275
0.6229746264
0.622974624
0.6229746227
0.6229746245
0.6229746262
0.6229746271
0.6229746268
0.6229746268
0.6229746268
0.6229746283
0.6229746281
0.6229746276
0.6229746265
0.6229746263
0.6229746266
0.6229746275
0.6229746276
0.6229746282
)
;
    }
}


// ************************************************************************* //
