/*--------------------------------*- C++ -*----------------------------------*\
| =========                 |                                                 |
| \\      /  F ield         | OpenFOAM: The Open Source CFD Toolbox           |
|  \\    /   O peration     | Version:  4.x                                   |
|   \\  /    A nd           | Web:      www.OpenFOAM.org                      |
|    \\/     M anipulation  |                                                 |
\*---------------------------------------------------------------------------*/
FoamFile
{
    version     2.0;
    format      ascii;
    class       volScalarField;
    location    "4000";
    object      CO2;
}
// * * * * * * * * * * * * * * * * * * * * * * * * * * * * * * * * * * * * * //

dimensions      [0 0 0 0 0 0 0];

internalField   nonuniform List<scalar> 
1175
(
0.06498133871
0.06498133871
0.06498133871
0.06498133872
0.06498133877
0.06498133891
0.06498133937
0.06498134088
0.06498134554
0.06498135932
0.06498139783
0.06498149839
0.06498174007
0.06498226607
0.06498328711
0.06498133871
0.06498133871
0.06498133871
0.06498133873
0.06498133878
0.06498133896
0.06498133958
0.06498134166
0.06498134832
0.0649813688
0.06498142843
0.06498159032
0.06498199263
0.06498288701
0.06498462278
0.06498133871
0.06498133871
0.06498133872
0.06498133873
0.0649813388
0.06498133905
0.06498133995
0.06498134304
0.06498135342
0.06498138681
0.06498148866
0.0649817782
0.06498252808
0.06498424335
0.06498757942
0.06498133871
0.06498133871
0.06498133872
0.06498133874
0.06498133883
0.06498133915
0.06498134032
0.06498134452
0.06498135909
0.0649814078
0.06498156262
0.06498202229
0.06498326439
0.06498620243
0.06499195586
0.06498133871
0.06498133871
0.06498133872
0.06498133874
0.06498133884
0.06498133919
0.06498134049
0.06498134521
0.06498136187
0.06498141865
0.06498160343
0.06498216765
0.0649837413
0.06498757858
0.06499518492
0.06498133871
0.06498133871
0.06498133872
0.06498133874
0.06498133883
0.06498133915
0.06498134032
0.06498134452
0.06498135909
0.0649814078
0.06498156262
0.06498202229
0.06498326438
0.06498620241
0.06499195581
0.06498133871
0.06498133871
0.06498133872
0.06498133873
0.0649813388
0.06498133905
0.06498133995
0.06498134304
0.06498135342
0.06498138681
0.06498148865
0.0649817782
0.06498252806
0.06498424329
0.06498757931
0.06498133871
0.06498133871
0.06498133871
0.06498133873
0.06498133878
0.06498133896
0.06498133958
0.06498134166
0.06498134832
0.0649813688
0.06498142843
0.06498159031
0.06498199261
0.06498288696
0.06498462269
0.06498133871
0.06498133871
0.06498133871
0.06498133872
0.06498133877
0.06498133891
0.06498133937
0.06498134088
0.06498134554
0.06498135932
0.06498139783
0.06498149838
0.06498174006
0.06498226604
0.06498328703
0.06498133871
0.06498133871
0.06498133871
0.06498133873
0.06498133878
0.06498133896
0.06498133958
0.06498134166
0.06498134832
0.0649813688
0.06498142843
0.06498159032
0.06498199264
0.06498288705
0.06498133871
0.06498133871
0.06498133872
0.06498133873
0.0649813388
0.06498133904
0.0649813399
0.0649813429
0.06498135301
0.06498138575
0.06498148643
0.0649817751
0.06498252892
0.06498426377
0.06498764062
0.06498133871
0.06498133871
0.06498133872
0.06498133874
0.06498133883
0.06498133918
0.06498134048
0.06498134521
0.06498136206
0.06498141998
0.06498160953
0.06498218919
0.06498379864
0.06498768327
0.06499532015
0.06498133871
0.06498133871
0.06498133872
0.06498133875
0.06498133887
0.06498133933
0.06498134109
0.06498134782
0.06498137286
0.06498146349
0.06498177788
0.06498280322
0.06498584939
0.06499366519
0.06500940383
0.06498133871
0.06498133871
0.06498133872
0.06498133875
0.06498133888
0.06498133939
0.06498134139
0.06498134911
0.06498137859
0.06498148847
0.0649818844
0.06498323917
0.06498750889
0.06499921029
0.06502384558
0.06498133871
0.06498133871
0.06498133872
0.06498133875
0.06498133887
0.06498133933
0.06498134109
0.06498134782
0.06498137286
0.06498146349
0.06498177787
0.06498280321
0.06498584936
0.06499366508
0.06500940357
0.06498133871
0.06498133871
0.06498133872
0.06498133874
0.06498133883
0.06498133918
0.06498134048
0.06498134521
0.06498136206
0.06498141997
0.06498160953
0.06498218918
0.06498379859
0.06498768312
0.06499531981
0.06498133871
0.06498133871
0.06498133872
0.06498133873
0.0649813388
0.06498133904
0.0649813399
0.0649813429
0.06498135301
0.06498138575
0.06498148642
0.06498177509
0.06498252888
0.06498426365
0.06498764034
0.06498133871
0.06498133871
0.06498133871
0.06498133873
0.06498133878
0.06498133896
0.06498133958
0.06498134166
0.06498134832
0.0649813688
0.06498142843
0.06498159031
0.06498199261
0.06498288697
0.06498462269
0.06498133871
0.06498133871
0.06498133872
0.06498133873
0.0649813388
0.06498133905
0.06498133995
0.06498134304
0.06498135342
0.06498138681
0.06498148866
0.06498177821
0.06498252811
0.06498424344
0.06498133871
0.06498133871
0.06498133872
0.06498133874
0.06498133883
0.06498133918
0.06498134048
0.06498134521
0.06498136206
0.06498141998
0.06498160954
0.06498218921
0.06498379868
0.06498768344
0.06498133871
0.06498133871
0.06498133872
0.06498133875
0.06498133889
0.06498133941
0.06498134146
0.06498134942
0.0649813797
0.06498149168
0.06498188871
0.0649832108
0.06498721199
0.06499762279
0.06501867516
0.06498133871
0.06498133871
0.06498133872
0.06498133877
0.06498133894
0.06498133965
0.06498134257
0.06498135447
0.06498140243
0.06498159204
0.06498231879
0.06498496623
0.06499382546
0.06501936769
0.06507444953
0.06498133871
0.06498133872
0.06498133873
0.06498133877
0.06498133896
0.06498133977
0.06498134313
0.06498135717
0.06498141566
0.06498165716
0.06498263744
0.06498649094
0.06500074266
0.06504734598
0.06516129607
0.06498133871
0.06498133871
0.06498133872
0.06498133877
0.06498133894
0.06498133965
0.06498134257
0.06498135447
0.06498140243
0.06498159203
0.06498231878
0.06498496618
0.06499382528
0.06501936706
0.06507444789
0.06498133871
0.06498133871
0.06498133872
0.06498133875
0.06498133889
0.06498133941
0.06498134146
0.06498134942
0.0649813797
0.06498149168
0.0649818887
0.06498321075
0.06498721182
0.06499762223
0.06501867364
0.06498133871
0.06498133871
0.06498133872
0.06498133874
0.06498133883
0.06498133918
0.06498134048
0.06498134521
0.06498136206
0.06498141997
0.06498160953
0.06498218918
0.06498379859
0.06498768312
0.0649953198
0.06498133871
0.06498133871
0.06498133872
0.06498133873
0.0649813388
0.06498133905
0.06498133995
0.06498134304
0.06498135342
0.06498138681
0.06498148865
0.0649817782
0.06498252806
0.0649842433
0.06498757931
0.06498133871
0.06498133871
0.06498133872
0.06498133874
0.06498133883
0.06498133915
0.06498134032
0.06498134452
0.06498135909
0.0649814078
0.06498156263
0.06498202231
0.06498326445
0.06498620259
0.06498133871
0.06498133871
0.06498133872
0.06498133875
0.06498133887
0.06498133932
0.06498134109
0.06498134782
0.06498137286
0.06498146349
0.06498177789
0.06498280326
0.06498584953
0.06499366563
0.06498133871
0.06498133871
0.06498133872
0.06498133877
0.06498133894
0.06498133965
0.06498134257
0.06498135447
0.06498140243
0.06498159204
0.0649823188
0.06498496629
0.0649938257
0.0650193688
0.06498133871
0.06498133872
0.06498133873
0.06498133878
0.06498133901
0.06498134001
0.06498134432
0.06498136293
0.06498144343
0.06498178997
0.06498326137
0.06498932245
0.06501279766
0.06509281278
0.06529383412
0.06498133871
0.06498133872
0.06498133873
0.06498133879
0.06498133905
0.06498134019
0.06498134523
0.06498136778
0.06498146976
0.06498193655
0.06498409345
0.06499408385
0.06503962833
0.06523438122
0.06589859919
0.06498133871
0.06498133872
0.06498133873
0.06498133878
0.06498133901
0.06498134001
0.06498134432
0.06498136293
0.06498144342
0.06498178996
0.06498326133
0.06498932229
0.06501279694
0.06509280984
0.06529382413
0.06498133871
0.06498133871
0.06498133872
0.06498133877
0.06498133894
0.06498133965
0.06498134257
0.06498135447
0.06498140243
0.06498159203
0.06498231878
0.0649849662
0.06499382532
0.06501936718
0.06507444805
0.06498133871
0.06498133871
0.06498133872
0.06498133875
0.06498133887
0.06498133932
0.06498134109
0.06498134782
0.06498137286
0.06498146349
0.06498177787
0.06498280321
0.06498584935
0.06499366508
0.06500940353
0.06498133871
0.06498133871
0.06498133872
0.06498133874
0.06498133883
0.06498133915
0.06498134032
0.06498134452
0.06498135909
0.0649814078
0.06498156262
0.06498202229
0.06498326438
0.06498620241
0.06499195579
0.06498133871
0.06498133871
0.06498133872
0.06498133874
0.06498133884
0.06498133919
0.06498134049
0.06498134521
0.06498136187
0.06498141866
0.06498160344
0.06498216768
0.06498374137
0.06498757879
0.06498133871
0.06498133871
0.06498133872
0.06498133875
0.06498133888
0.06498133939
0.06498134139
0.06498134911
0.06498137859
0.06498148848
0.06498188441
0.06498323922
0.06498750907
0.06499921086
0.06498133871
0.06498133872
0.06498133873
0.06498133877
0.06498133896
0.06498133977
0.06498134313
0.06498135717
0.06498141566
0.06498165716
0.06498263747
0.06498649106
0.06500074324
0.06504734833
0.06498133871
0.06498133872
0.06498133873
0.06498133879
0.06498133905
0.06498134019
0.06498134523
0.06498136778
0.06498146976
0.06498193656
0.06498409349
0.06499408411
0.06503962982
0.06523439053
0.06498133871
0.06498133872
0.06498133873
0.0649813388
0.06498133909
0.0649813404
0.06498134638
0.06498137419
0.06498150737
0.06498216903
0.06498561462
0.06500463437
0.06511709087
0.06583426411
0.07079565592
0.06498133871
0.06498133872
0.06498133873
0.06498133879
0.06498133905
0.06498134019
0.06498134523
0.06498136778
0.06498146976
0.06498193655
0.06498409346
0.06499408389
0.06503962852
0.06523438194
0.06589860078
0.06498133871
0.06498133872
0.06498133873
0.06498133877
0.06498133896
0.06498133977
0.06498134313
0.06498135717
0.06498141566
0.06498165716
0.06498263745
0.06498649096
0.06500074274
0.06504734622
0.06516129642
0.06498133871
0.06498133871
0.06498133872
0.06498133875
0.06498133888
0.06498133939
0.06498134139
0.06498134911
0.06498137859
0.06498148847
0.0649818844
0.06498323917
0.06498750889
0.06499921029
0.06502384551
0.06498133871
0.06498133871
0.06498133872
0.06498133874
0.06498133884
0.06498133919
0.06498134049
0.06498134521
0.06498136187
0.06498141865
0.06498160343
0.06498216765
0.0649837413
0.06498757859
0.06499518491
0.06498133871
0.06498133871
0.06498133872
0.06498133874
0.06498133883
0.06498133915
0.06498134032
0.06498134452
0.06498135909
0.0649814078
0.06498156263
0.06498202231
0.06498326444
0.06498620257
0.06498133871
0.06498133871
0.06498133872
0.06498133875
0.06498133887
0.06498133933
0.06498134109
0.06498134782
0.06498137286
0.06498146349
0.06498177788
0.06498280325
0.0649858495
0.06499366549
0.06498133871
0.06498133871
0.06498133872
0.06498133877
0.06498133894
0.06498133965
0.06498134257
0.06498135447
0.06498140243
0.06498159204
0.06498231881
0.0649849663
0.06499382572
0.06501936847
0.06498133871
0.06498133872
0.06498133873
0.06498133878
0.06498133901
0.06498134001
0.06498134432
0.06498136293
0.06498144343
0.06498178997
0.06498326139
0.06498932255
0.06501279808
0.0650928142
0.06498133871
0.06498133872
0.06498133873
0.06498133879
0.06498133905
0.06498134019
0.06498134523
0.06498136778
0.06498146976
0.06498193656
0.0649840935
0.06499408414
0.06503962993
0.06523439061
0.06498133871
0.06498133872
0.06498133873
0.06498133878
0.06498133901
0.06498134001
0.06498134432
0.06498136293
0.06498144343
0.06498178997
0.06498326138
0.06498932252
0.06501279797
0.06509281412
0.06498133871
0.06498133871
0.06498133872
0.06498133877
0.06498133894
0.06498133965
0.06498134257
0.06498135447
0.06498140243
0.06498159204
0.0649823188
0.06498496627
0.06499382562
0.06501936816
0.06507445085
0.06498133871
0.06498133871
0.06498133872
0.06498133875
0.06498133887
0.06498133933
0.06498134109
0.06498134782
0.06498137286
0.06498146349
0.06498177788
0.06498280324
0.06498584944
0.06499366534
0.06500940408
0.06498133871
0.06498133871
0.06498133872
0.06498133874
0.06498133883
0.06498133915
0.06498134032
0.06498134452
0.06498135909
0.0649814078
0.06498156262
0.0649820223
0.06498326441
0.06498620247
0.06499195592
0.06498133871
0.06498133871
0.06498133872
0.06498133873
0.0649813388
0.06498133905
0.06498133995
0.06498134304
0.06498135342
0.06498138681
0.06498148866
0.06498177821
0.06498252811
0.0649842434
0.06498133871
0.06498133871
0.06498133872
0.06498133874
0.06498133883
0.06498133918
0.06498134048
0.06498134521
0.06498136206
0.06498141998
0.06498160954
0.06498218921
0.06498379868
0.06498768336
0.06498133871
0.06498133871
0.06498133872
0.06498133875
0.06498133889
0.06498133941
0.06498134146
0.06498134942
0.0649813797
0.06498149168
0.06498188872
0.06498321081
0.06498721204
0.06499762285
0.06498133871
0.06498133871
0.06498133872
0.06498133877
0.06498133894
0.06498133965
0.06498134257
0.06498135447
0.06498140243
0.06498159204
0.06498231881
0.06498496632
0.06499382578
0.06501936859
0.06498133871
0.06498133872
0.06498133873
0.06498133877
0.06498133896
0.06498133977
0.06498134313
0.06498135717
0.06498141566
0.06498165717
0.06498263748
0.06498649111
0.06500074337
0.06504734849
0.06498133871
0.06498133871
0.06498133872
0.06498133877
0.06498133894
0.06498133965
0.06498134257
0.06498135447
0.06498140243
0.06498159204
0.06498231881
0.0649849663
0.06499382574
0.06501936849
0.06498133871
0.06498133871
0.06498133872
0.06498133875
0.06498133889
0.06498133941
0.06498134146
0.06498134942
0.0649813797
0.06498149168
0.06498188872
0.06498321081
0.06498721205
0.06499762299
0.06498133871
0.06498133871
0.06498133872
0.06498133874
0.06498133883
0.06498133918
0.06498134048
0.06498134521
0.06498136206
0.06498141998
0.06498160954
0.0649821892
0.06498379867
0.06498768336
0.06499532037
0.06498133871
0.06498133871
0.06498133872
0.06498133873
0.0649813388
0.06498133905
0.06498133995
0.06498134304
0.06498135342
0.06498138681
0.06498148866
0.06498177821
0.0649825281
0.06498424338
0.06498757948
0.06498133871
0.06498133871
0.06498133871
0.06498133873
0.06498133878
0.06498133896
0.06498133958
0.06498134166
0.06498134832
0.0649813688
0.06498142843
0.06498159032
0.06498199263
0.06498288702
0.06498133871
0.06498133871
0.06498133872
0.06498133873
0.0649813388
0.06498133904
0.0649813399
0.0649813429
0.06498135301
0.06498138575
0.06498148643
0.0649817751
0.06498252892
0.06498426377
0.06498133871
0.06498133871
0.06498133872
0.06498133874
0.06498133883
0.06498133918
0.06498134048
0.06498134521
0.06498136206
0.06498141998
0.06498160954
0.06498218921
0.06498379869
0.06498768338
0.06498133871
0.06498133871
0.06498133872
0.06498133875
0.06498133887
0.06498133933
0.06498134109
0.06498134782
0.06498137287
0.06498146349
0.06498177789
0.06498280327
0.06498584954
0.06499366556
0.06498133871
0.06498133871
0.06498133872
0.06498133875
0.06498133888
0.06498133939
0.06498134139
0.06498134911
0.06498137859
0.06498148848
0.06498188442
0.06498323923
0.06498750911
0.0649992109
0.06498133871
0.06498133871
0.06498133872
0.06498133875
0.06498133887
0.06498133933
0.06498134109
0.06498134782
0.06498137286
0.06498146349
0.06498177789
0.06498280326
0.06498584952
0.06499366552
0.06498133871
0.06498133871
0.06498133872
0.06498133874
0.06498133883
0.06498133918
0.06498134048
0.06498134521
0.06498136206
0.06498141998
0.06498160954
0.06498218921
0.06498379868
0.06498768338
0.06498133871
0.06498133871
0.06498133872
0.06498133873
0.0649813388
0.06498133904
0.0649813399
0.0649813429
0.06498135301
0.06498138575
0.06498148643
0.0649817751
0.06498252892
0.06498426379
0.06498133871
0.06498133871
0.06498133871
0.06498133873
0.06498133878
0.06498133896
0.06498133958
0.06498134166
0.06498134832
0.0649813688
0.06498142843
0.06498159032
0.06498199263
0.06498288703
0.06498462283
0.06498133871
0.06498133871
0.06498133871
0.06498133872
0.06498133877
0.06498133891
0.06498133937
0.06498134088
0.06498134554
0.06498135932
0.06498139783
0.06498149839
0.06498174007
0.06498226607
0.06498133871
0.06498133871
0.06498133871
0.06498133873
0.06498133878
0.06498133896
0.06498133958
0.06498134166
0.06498134832
0.0649813688
0.06498142843
0.06498159032
0.06498199264
0.06498288703
0.06498133871
0.06498133871
0.06498133872
0.06498133873
0.0649813388
0.06498133905
0.06498133995
0.06498134304
0.06498135342
0.06498138681
0.06498148866
0.06498177822
0.06498252812
0.06498424342
0.06498133871
0.06498133871
0.06498133872
0.06498133874
0.06498133883
0.06498133915
0.06498134032
0.06498134452
0.06498135909
0.06498140781
0.06498156263
0.06498202232
0.06498326446
0.06498620259
0.06498133871
0.06498133871
0.06498133872
0.06498133874
0.06498133884
0.06498133919
0.06498134049
0.06498134521
0.06498136187
0.06498141866
0.06498160344
0.06498216768
0.06498374138
0.06498757879
0.06498133871
0.06498133871
0.06498133872
0.06498133874
0.06498133883
0.06498133915
0.06498134032
0.06498134452
0.06498135909
0.06498140781
0.06498156263
0.06498202231
0.06498326445
0.06498620257
0.06498133871
0.06498133871
0.06498133872
0.06498133873
0.0649813388
0.06498133905
0.06498133995
0.06498134304
0.06498135342
0.06498138681
0.06498148866
0.06498177821
0.06498252811
0.0649842434
0.06498133871
0.06498133871
0.06498133871
0.06498133873
0.06498133878
0.06498133896
0.06498133958
0.06498134166
0.06498134832
0.0649813688
0.06498142843
0.06498159032
0.06498199264
0.06498288703
0.06498133871
0.06498133871
0.06498133871
0.06498133872
0.06498133877
0.06498133891
0.06498133937
0.06498134088
0.06498134554
0.06498135932
0.06498139783
0.06498149839
0.06498174008
0.06498226608
)
;

boundaryField
{
    top
    {
        type            zeroGradient;
    }
    bottom
    {
        type            zeroGradient;
    }
    side-walls
    {
        type            zeroGradient;
    }
    inlet
    {
        type            zeroGradient;
    }
    outlet
    {
        type            zeroGradient;
    }
    procBoundary0to1
    {
        type            processor;
        value           nonuniform List<scalar> 
97
(
0.06498504251
0.06498462285
0.06498752267
0.06499294035
0.0650007659
0.06500626312
0.06500076582
0.06499294018
0.06498752252
0.06498504238
0.06498462285
0.06498462285
0.06499302197
0.06499532046
0.0650066816
0.06503057864
0.06505273232
0.06503057831
0.06500668111
0.06499302161
0.06498752252
0.06498757953
0.06499532046
0.06499532046
0.06504638923
0.06507445152
0.06513327143
0.06524508855
0.06513326967
0.06504638759
0.06500668107
0.06499294017
0.06499195604
0.06500940441
0.06507445152
0.06507445152
0.06542681044
0.06589860629
0.06599301922
0.06542680349
0.06513326971
0.06503057815
0.06500076575
0.06499518512
0.06502384611
0.0651612983
0.06589860629
0.06589860629
0.06840233324
0.06589860556
0.06599301922
0.06529382919
0.06524508835
0.06505273202
0.06500626303
0.06499195596
0.06500940394
0.06507444942
0.06529382814
0.06589860556
0.06529382919
0.06529382919
0.06513327171
0.06501867497
0.06503057874
0.06500076591
0.06498757941
0.06499532003
0.06501867424
0.06507444952
0.0651612982
0.0650744493
0.06501867497
0.06501867497
0.06500668163
0.06498764058
0.06499294038
0.06498462274
0.06498764045
0.06499532007
0.06500940402
0.06502384604
0.06500940394
0.06499532011
0.06498764058
0.06498764058
0.06498752266
0.0649832871
0.06498328706
0.06498462275
0.06498757944
0.06499195597
0.06499518506
0.06499195592
0.0649875794
0.06498462277
0.0649832871
)
;
    }
}


// ************************************************************************* //
