/*--------------------------------*- C++ -*----------------------------------*\
| =========                 |                                                 |
| \\      /  F ield         | OpenFOAM: The Open Source CFD Toolbox           |
|  \\    /   O peration     | Version:  4.x                                   |
|   \\  /    A nd           | Web:      www.OpenFOAM.org                      |
|    \\/     M anipulation  |                                                 |
\*---------------------------------------------------------------------------*/
FoamFile
{
    version     2.0;
    format      ascii;
    class       volScalarField;
    location    "4000";
    object      Cpv;
}
// * * * * * * * * * * * * * * * * * * * * * * * * * * * * * * * * * * * * * //

dimensions      [0 2 -2 -1 0 0 0];

internalField   nonuniform List<scalar> 
1175
(
1277.533441
1277.533424
1277.533421
1277.53343
1277.533435
1277.533428
1277.533439
1277.533427
1277.533439
1277.53343
1277.533411
1277.533419
1277.533401
1277.533371
1277.533271
1277.533247
1277.533268
1277.533281
1277.533268
1277.533288
1277.533294
1277.533282
1277.533248
1277.533235
1277.533217
1277.533238
1277.533227
1277.533172
1277.533091
1277.532938
1277.533091
1277.533096
1277.533094
1277.533099
1277.533083
1277.533077
1277.533054
1277.533067
1277.533052
1277.53305
1277.533042
1277.533015
1277.532952
1277.532781
1277.532477
1277.533147
1277.533155
1277.533148
1277.533127
1277.533121
1277.533139
1277.533151
1277.533141
1277.533138
1277.533136
1277.533117
1277.533064
1277.532967
1277.532692
1277.532157
1277.532977
1277.532975
1277.532995
1277.532989
1277.533015
1277.532993
1277.533001
1277.533017
1277.532979
1277.532984
1277.53295
1277.532894
1277.532759
1277.532401
1277.531679
1277.533477
1277.533492
1277.53349
1277.5335
1277.533496
1277.533499
1277.533492
1277.533488
1277.533484
1277.533483
1277.533465
1277.533386
1277.533267
1277.532989
1277.532447
1277.532576
1277.53258
1277.532584
1277.532598
1277.532601
1277.532587
1277.532595
1277.532589
1277.5326
1277.532609
1277.532587
1277.532564
1277.532497
1277.532323
1277.532012
1277.533085
1277.533092
1277.533086
1277.533106
1277.533092
1277.533087
1277.533089
1277.533087
1277.533072
1277.533076
1277.533058
1277.533051
1277.533058
1277.532956
1277.532785
1277.5335
1277.533489
1277.533502
1277.533492
1277.533498
1277.533501
1277.533504
1277.533505
1277.533509
1277.533492
1277.5335
1277.533485
1277.533462
1277.533403
1277.5333
1277.533023
1277.533021
1277.533028
1277.533021
1277.533017
1277.53301
1277.533029
1277.53303
1277.533053
1277.533052
1277.533036
1277.533022
1277.532985
1277.532888
1277.533386
1277.533344
1277.533347
1277.533356
1277.533348
1277.533335
1277.533323
1277.533311
1277.533275
1277.533296
1277.533278
1277.53326
1277.533189
1277.533019
1277.532718
1277.533231
1277.533242
1277.533263
1277.53328
1277.533296
1277.533299
1277.533309
1277.533277
1277.533278
1277.533276
1277.533267
1277.533197
1277.533046
1277.532661
1277.531945
1277.532878
1277.532879
1277.532884
1277.532906
1277.532877
1277.532871
1277.532868
1277.532874
1277.532903
1277.532896
1277.532867
1277.532757
1277.532466
1277.531726
1277.530254
1277.534141
1277.534164
1277.534119
1277.534116
1277.534105
1277.534112
1277.53409
1277.534089
1277.534082
1277.534056
1277.534055
1277.533957
1277.533559
1277.532432
1277.530112
1277.533661
1277.533652
1277.533656
1277.533652
1277.533642
1277.533623
1277.533629
1277.533634
1277.533641
1277.533642
1277.533612
1277.533497
1277.53318
1277.532437
1277.530958
1277.533077
1277.533076
1277.533074
1277.53307
1277.53308
1277.53309
1277.533096
1277.533091
1277.533077
1277.533054
1277.533034
1277.53299
1277.532841
1277.532454
1277.531705
1277.533129
1277.533147
1277.533141
1277.533155
1277.533124
1277.533133
1277.533135
1277.533146
1277.533158
1277.533151
1277.533121
1277.533096
1277.533011
1277.532864
1277.532557
1277.533243
1277.533251
1277.533245
1277.533229
1277.533242
1277.533257
1277.533249
1277.533226
1277.53324
1277.533235
1277.533217
1277.533188
1277.53313
1277.533058
1277.532886
1277.533191
1277.533192
1277.533194
1277.533187
1277.533189
1277.533185
1277.53321
1277.533195
1277.533192
1277.5332
1277.533217
1277.533213
1277.533148
1277.533022
1277.533075
1277.533096
1277.5331
1277.533108
1277.533067
1277.533078
1277.533058
1277.533087
1277.533082
1277.533074
1277.53303
1277.532946
1277.532811
1277.532454
1277.53338
1277.533361
1277.533355
1277.533375
1277.533395
1277.533378
1277.533385
1277.533381
1277.533368
1277.533325
1277.533283
1277.533165
1277.532764
1277.531778
1277.529811
1277.532887
1277.532896
1277.532906
1277.532938
1277.532929
1277.532937
1277.532944
1277.532938
1277.532936
1277.532913
1277.532863
1277.532621
1277.531781
1277.529378
1277.52418
1277.533631
1277.533621
1277.533605
1277.533595
1277.533584
1277.533587
1277.533606
1277.533605
1277.53358
1277.533559
1277.533461
1277.53311
1277.531749
1277.527367
1277.516636
1277.533341
1277.533345
1277.533332
1277.53332
1277.533318
1277.533304
1277.533285
1277.533303
1277.533289
1277.533295
1277.533215
1277.532977
1277.532119
1277.529738
1277.524567
1277.532116
1277.532121
1277.532106
1277.532101
1277.532107
1277.532116
1277.532125
1277.532144
1277.532131
1277.53214
1277.532115
1277.531989
1277.531594
1277.530634
1277.52866
1277.533139
1277.533128
1277.533117
1277.533124
1277.533122
1277.533094
1277.533107
1277.533118
1277.533087
1277.533089
1277.533082
1277.533034
1277.532894
1277.532517
1277.531791
1277.532934
1277.532927
1277.532943
1277.532941
1277.532912
1277.532908
1277.532904
1277.532924
1277.53292
1277.532883
1277.532877
1277.532838
1277.532787
1277.532645
1277.532347
1277.532656
1277.532667
1277.532665
1277.532655
1277.532653
1277.532646
1277.53264
1277.532621
1277.532627
1277.53263
1277.532596
1277.532533
1277.532419
1277.532155
1277.534202
1277.53419
1277.534201
1277.534226
1277.534215
1277.534221
1277.534195
1277.53419
1277.53419
1277.534171
1277.534144
1277.534037
1277.533765
1277.533015
1277.533481
1277.533477
1277.533498
1277.5335
1277.533492
1277.533489
1277.53348
1277.533491
1277.533467
1277.533427
1277.533371
1277.5331
1277.532255
1277.52987
1277.534108
1277.534087
1277.534055
1277.534062
1277.534037
1277.534068
1277.534074
1277.534023
1277.534049
1277.534015
1277.53385
1277.533272
1277.531066
1277.523512
1277.504595
1277.532505
1277.532513
1277.5325
1277.53251
1277.532489
1277.532463
1277.532481
1277.532501
1277.532493
1277.532445
1277.532253
1277.531321
1277.527054
1277.508686
1277.444742
1277.5324
1277.532403
1277.532392
1277.532411
1277.532385
1277.532394
1277.532395
1277.532393
1277.532393
1277.532386
1277.532251
1277.531686
1277.529466
1277.521943
1277.50301
1277.533749
1277.533743
1277.533745
1277.53377
1277.533792
1277.533825
1277.533806
1277.533764
1277.533746
1277.533747
1277.533661
1277.533417
1277.532591
1277.530186
1277.524986
1277.532696
1277.532686
1277.532687
1277.53271
1277.532697
1277.532691
1277.532701
1277.532697
1277.532698
1277.532727
1277.53266
1277.532584
1277.532285
1277.531571
1277.530135
1277.533427
1277.533406
1277.5334
1277.533393
1277.533398
1277.533439
1277.533414
1277.533404
1277.533428
1277.533409
1277.533395
1277.533361
1277.533272
1277.532963
1277.532434
1277.533287
1277.53329
1277.53329
1277.533286
1277.533283
1277.5333
1277.533319
1277.533309
1277.533314
1277.53329
1277.533272
1277.533207
1277.533067
1277.532701
1277.533441
1277.533419
1277.533441
1277.533433
1277.533418
1277.533414
1277.533428
1277.533433
1277.533419
1277.533403
1277.533364
1277.53322
1277.532825
1277.531732
1277.533361
1277.533381
1277.53336
1277.533367
1277.533356
1277.533336
1277.533327
1277.533322
1277.533296
1277.533293
1277.533199
1277.532843
1277.531489
1277.527091
1277.533293
1277.533262
1277.533257
1277.533238
1277.53323
1277.533204
1277.533192
1277.533218
1277.533193
1277.533136
1277.532892
1277.531942
1277.527676
1277.509335
1277.533055
1277.533054
1277.533075
1277.533072
1277.533094
1277.533105
1277.533095
1277.533103
1277.533105
1277.533027
1277.532661
1277.530883
1277.520268
1277.452697
1275.67426
1277.532687
1277.532679
1277.532711
1277.532678
1277.532689
1277.532702
1277.53272
1277.532717
1277.532714
1277.532678
1277.532497
1277.531535
1277.527235
1277.5089
1277.444993
1277.533188
1277.53319
1277.533166
1277.533164
1277.533178
1277.533145
1277.533152
1277.533151
1277.533174
1277.533175
1277.533085
1277.532726
1277.531361
1277.526967
1277.51622
1277.53263
1277.532635
1277.53264
1277.532643
1277.532646
1277.532676
1277.532696
1277.532703
1277.532719
1277.532725
1277.532683
1277.532573
1277.532165
1277.531042
1277.528731
1277.533301
1277.53329
1277.533258
1277.533243
1277.533258
1277.533274
1277.533278
1277.533277
1277.533279
1277.53327
1277.533259
1277.533203
1277.533039
1277.532702
1277.531972
1277.533757
1277.533732
1277.533726
1277.533733
1277.533738
1277.533738
1277.533725
1277.533736
1277.533711
1277.53373
1277.533708
1277.533672
1277.533543
1277.533304
1277.532625
1277.532664
1277.532654
1277.532667
1277.53269
1277.532725
1277.532718
1277.532735
1277.532717
1277.53268
1277.532661
1277.532556
1277.532281
1277.531564
1277.532986
1277.532965
1277.532972
1277.532972
1277.532966
1277.532963
1277.532968
1277.532964
1277.53297
1277.53295
1277.53286
1277.532609
1277.531778
1277.529371
1277.53356
1277.533555
1277.533537
1277.533543
1277.533528
1277.533529
1277.533523
1277.533509
1277.533529
1277.533481
1277.533333
1277.532777
1277.530575
1277.523083
1277.533318
1277.533331
1277.533326
1277.533303
1277.533312
1277.533309
1277.533296
1277.533294
1277.53329
1277.533224
1277.533025
1277.532105
1277.52782
1277.509487
1277.534085
1277.534076
1277.534086
1277.534094
1277.534111
1277.534128
1277.534108
1277.534121
1277.534097
1277.534062
1277.533923
1277.533352
1277.531147
1277.523641
1277.533458
1277.533454
1277.533466
1277.533484
1277.53351
1277.533512
1277.53351
1277.533508
1277.533486
1277.533478
1277.533425
1277.533177
1277.532307
1277.529903
1277.524756
1277.533288
1277.53328
1277.533293
1277.533267
1277.533277
1277.53329
1277.533283
1277.533295
1277.53329
1277.533293
1277.533272
1277.533181
1277.532891
1277.532136
1277.530653
1277.533048
1277.533048
1277.533024
1277.533018
1277.533016
1277.533021
1277.533015
1277.533054
1277.533057
1277.53303
1277.533018
1277.532973
1277.532854
1277.532562
1277.532024
1277.532642
1277.532653
1277.532654
1277.532665
1277.532643
1277.53264
1277.532643
1277.532661
1277.532652
1277.532649
1277.532638
1277.532624
1277.53256
1277.532393
1277.533651
1277.533631
1277.533606
1277.5336
1277.533593
1277.533578
1277.533563
1277.533537
1277.533512
1277.53353
1277.533527
1277.533494
1277.53332
1277.532932
1277.532101
1277.532118
1277.53211
1277.532103
1277.532115
1277.53212
1277.532109
1277.532133
1277.53215
1277.532134
1277.532106
1277.531983
1277.531614
1277.530667
1277.533472
1277.533496
1277.53351
1277.533518
1277.533519
1277.533528
1277.533506
1277.533495
1277.533477
1277.533468
1277.533404
1277.533177
1277.532358
1277.529932
1277.533945
1277.533924
1277.533938
1277.533941
1277.533937
1277.533924
1277.533938
1277.533956
1277.533928
1277.533917
1277.533805
1277.533459
1277.532103
1277.527746
1277.532902
1277.5329
1277.53289
1277.532885
1277.532901
1277.532908
1277.532916
1277.532905
1277.532892
1277.532871
1277.532812
1277.532536
1277.531693
1277.529284
1277.533223
1277.533176
1277.533181
1277.53318
1277.533171
1277.533178
1277.533163
1277.533156
1277.533142
1277.533136
1277.533116
1277.532986
1277.532615
1277.531608
1277.53353
1277.533549
1277.533575
1277.533565
1277.53355
1277.5335
1277.533525
1277.533545
1277.53353
1277.533502
1277.533473
1277.533418
1277.533276
1277.532923
1277.532232
1277.533314
1277.533309
1277.533297
1277.53331
1277.53331
1277.5333
1277.53329
1277.533287
1277.533283
1277.533296
1277.533256
1277.533255
1277.533183
1277.53304
1277.532724
1277.532879
1277.532876
1277.532885
1277.532869
1277.532884
1277.532894
1277.532868
1277.532872
1277.532846
1277.532876
1277.532868
1277.532839
1277.532796
1277.532695
1277.532782
1277.532781
1277.532748
1277.532745
1277.53273
1277.532708
1277.532737
1277.532748
1277.532754
1277.532748
1277.532751
1277.532726
1277.532667
1277.53252
1277.533935
1277.533914
1277.533917
1277.53392
1277.533919
1277.533937
1277.533942
1277.533964
1277.533964
1277.533961
1277.533938
1277.533874
1277.533734
1277.533383
1277.533496
1277.533512
1277.533507
1277.533505
1277.533511
1277.533508
1277.533527
1277.533529
1277.533558
1277.533566
1277.533519
1277.533409
1277.533148
1277.532423
1277.5334
1277.533386
1277.533408
1277.533411
1277.533444
1277.533444
1277.533436
1277.533458
1277.53345
1277.53343
1277.533385
1277.533251
1277.532871
1277.531749
1277.533489
1277.533484
1277.533509
1277.533524
1277.533529
1277.533509
1277.533521
1277.533513
1277.533504
1277.53348
1277.53344
1277.533344
1277.53307
1277.532367
1277.532419
1277.532441
1277.532445
1277.532406
1277.532382
1277.532388
1277.532377
1277.53238
1277.532382
1277.532411
1277.532431
1277.532336
1277.53222
1277.531885
1277.532764
1277.532742
1277.532717
1277.532749
1277.532716
1277.532736
1277.532719
1277.532738
1277.532734
1277.532731
1277.53274
1277.532709
1277.532642
1277.532467
1277.533055
1277.533035
1277.533005
1277.53298
1277.532981
1277.53299
1277.532982
1277.532978
1277.532967
1277.53296
1277.532979
1277.532984
1277.532939
1277.532859
1277.532709
1277.53276
1277.532758
1277.532749
1277.532769
1277.532755
1277.532735
1277.53275
1277.532747
1277.53274
1277.53274
1277.532749
1277.532737
1277.532727
1277.532668
1277.533499
1277.533493
1277.533477
1277.533476
1277.533456
1277.533445
1277.533455
1277.53343
1277.53343
1277.533445
1277.533431
1277.533418
1277.533373
1277.533273
1277.533522
1277.53352
1277.533518
1277.533525
1277.533506
1277.533521
1277.533558
1277.533545
1277.533526
1277.533539
1277.533546
1277.533507
1277.53345
1277.533289
1277.533519
1277.533512
1277.533542
1277.533547
1277.533552
1277.53355
1277.533568
1277.533557
1277.533539
1277.533521
1277.533504
1277.533469
1277.533354
1277.533089
1277.532888
1277.532881
1277.532882
1277.532902
1277.532918
1277.532934
1277.532958
1277.532954
1277.53294
1277.532954
1277.532936
1277.532874
1277.532715
1277.532337
1277.532837
1277.532841
1277.532828
1277.532817
1277.532803
1277.532783
1277.532772
1277.53278
1277.532776
1277.532772
1277.532768
1277.532717
1277.532613
1277.532356
1277.53232
1277.532316
1277.5323
1277.532308
1277.532321
1277.532322
1277.532319
1277.532306
1277.532321
1277.532317
1277.532345
1277.53231
1277.532226
1277.53205
1277.533248
1277.533237
1277.533226
1277.533247
1277.533246
1277.533227
1277.533246
1277.533223
1277.533226
1277.533205
1277.533175
1277.533162
1277.533136
1277.533041
1277.533427
1277.533411
1277.533428
1277.533417
1277.533403
1277.533401
1277.5334
1277.533395
1277.533393
1277.533396
1277.533406
1277.533383
1277.533348
1277.5333
)
;

boundaryField
{
    top
    {
        type            calculated;
        value           nonuniform List<scalar> 
134
(
1277.5335
1277.533243
1277.532934
1277.533427
1277.533301
1277.533048
1277.533314
1277.533055
1277.533427
1277.533489
1277.533251
1277.532927
1277.533406
1277.53329
1277.533048
1277.533309
1277.533035
1277.533411
1277.533502
1277.533245
1277.532943
1277.5334
1277.533258
1277.533024
1277.533297
1277.533005
1277.533428
1277.533492
1277.533229
1277.532941
1277.533393
1277.533243
1277.533018
1277.53331
1277.53298
1277.533417
1277.533498
1277.533242
1277.532912
1277.533398
1277.533258
1277.533016
1277.53331
1277.532981
1277.533403
1277.533501
1277.533257
1277.532908
1277.533439
1277.533274
1277.533021
1277.5333
1277.53299
1277.533401
1277.533504
1277.533249
1277.532904
1277.533414
1277.533278
1277.533015
1277.53329
1277.532982
1277.5334
1277.533505
1277.533226
1277.532924
1277.533404
1277.533277
1277.533054
1277.533287
1277.532978
1277.533395
1277.533509
1277.53324
1277.53292
1277.533428
1277.533279
1277.533057
1277.533283
1277.532967
1277.533393
1277.533492
1277.533235
1277.532883
1277.533409
1277.53327
1277.53303
1277.533296
1277.53296
1277.533396
1277.5335
1277.533217
1277.532877
1277.533395
1277.533259
1277.533018
1277.533256
1277.532979
1277.533406
1277.533485
1277.533188
1277.532838
1277.533361
1277.533203
1277.532973
1277.533255
1277.532984
1277.533383
1277.533462
1277.53313
1277.532787
1277.533272
1277.533039
1277.532854
1277.533183
1277.532939
1277.533348
1277.533403
1277.533058
1277.532645
1277.532963
1277.532702
1277.532562
1277.53304
1277.532859
1277.5333
1277.5333
1277.532886
1277.532347
1277.532434
1277.531972
1277.532024
1277.532724
1277.532709
)
;
    }
    bottom
    {
        type            calculated;
        value           nonuniform List<scalar> 
127
(
1277.533441
1277.533023
1277.533191
1277.532656
1277.533287
1277.533757
1277.532642
1277.532879
1277.53276
1277.533424
1277.533021
1277.533192
1277.532667
1277.53329
1277.533732
1277.532653
1277.532876
1277.532758
1277.533421
1277.533028
1277.533194
1277.532665
1277.53329
1277.533726
1277.532654
1277.532885
1277.532749
1277.53343
1277.533021
1277.533187
1277.532655
1277.533286
1277.533733
1277.532665
1277.532869
1277.532769
1277.533435
1277.533017
1277.533189
1277.532653
1277.533283
1277.533738
1277.532643
1277.532884
1277.532755
1277.533428
1277.53301
1277.533185
1277.532646
1277.5333
1277.533738
1277.53264
1277.532894
1277.532735
1277.533439
1277.533029
1277.53321
1277.53264
1277.533319
1277.533725
1277.532643
1277.532868
1277.53275
1277.533427
1277.53303
1277.533195
1277.532621
1277.533309
1277.533736
1277.532661
1277.532872
1277.532747
1277.533439
1277.533053
1277.533192
1277.532627
1277.533314
1277.533711
1277.532652
1277.532846
1277.53274
1277.53343
1277.533052
1277.5332
1277.53263
1277.53329
1277.53373
1277.532649
1277.532876
1277.53274
1277.533411
1277.533036
1277.533217
1277.532596
1277.533272
1277.533708
1277.532638
1277.532868
1277.532749
1277.533419
1277.533022
1277.533213
1277.532533
1277.533207
1277.533672
1277.532624
1277.532839
1277.532737
1277.533401
1277.532985
1277.533148
1277.532419
1277.533067
1277.533543
1277.53256
1277.532796
1277.532727
1277.533371
1277.532888
1277.533022
1277.532155
1277.532701
1277.533304
1277.532393
1277.532695
1277.532668
1277.533271
)
;
    }
    side-walls
    {
        type            calculated;
        value           nonuniform List<scalar> 
261
(
1277.533441
1277.533247
1277.533091
1277.533147
1277.532977
1277.533477
1277.532576
1277.533085
1277.5335
1277.533424
1277.533268
1277.533096
1277.533155
1277.532975
1277.533492
1277.53258
1277.533092
1277.533489
1277.533421
1277.533281
1277.533094
1277.533148
1277.532995
1277.53349
1277.532584
1277.533086
1277.533502
1277.53343
1277.533268
1277.533099
1277.533127
1277.532989
1277.5335
1277.532598
1277.533106
1277.533492
1277.533435
1277.533288
1277.533083
1277.533121
1277.533015
1277.533496
1277.532601
1277.533092
1277.533498
1277.533428
1277.533294
1277.533077
1277.533139
1277.532993
1277.533499
1277.532587
1277.533087
1277.533501
1277.533439
1277.533282
1277.533054
1277.533151
1277.533001
1277.533492
1277.532595
1277.533089
1277.533504
1277.533427
1277.533248
1277.533067
1277.533141
1277.533017
1277.533488
1277.532589
1277.533087
1277.533505
1277.533439
1277.533235
1277.533052
1277.533138
1277.532979
1277.533484
1277.5326
1277.533072
1277.533509
1277.53343
1277.533217
1277.53305
1277.533136
1277.532984
1277.533483
1277.532609
1277.533076
1277.533492
1277.533411
1277.533238
1277.533042
1277.533117
1277.53295
1277.533465
1277.532587
1277.533058
1277.5335
1277.533419
1277.533227
1277.533015
1277.533064
1277.532894
1277.533386
1277.532564
1277.533051
1277.533485
1277.533401
1277.533172
1277.532952
1277.532967
1277.532759
1277.533267
1277.532497
1277.533058
1277.533462
1277.533371
1277.533091
1277.532781
1277.532692
1277.532401
1277.532989
1277.532323
1277.532956
1277.533403
1277.533271
1277.532938
1277.532477
1277.532157
1277.531679
1277.532447
1277.532012
1277.532785
1277.5333
1277.53276
1277.533499
1277.533522
1277.533519
1277.532888
1277.532837
1277.53232
1277.533248
1277.533427
1277.532758
1277.533493
1277.53352
1277.533512
1277.532881
1277.532841
1277.532316
1277.533237
1277.533411
1277.532749
1277.533477
1277.533518
1277.533542
1277.532882
1277.532828
1277.5323
1277.533226
1277.533428
1277.532769
1277.533476
1277.533525
1277.533547
1277.532902
1277.532817
1277.532308
1277.533247
1277.533417
1277.532755
1277.533456
1277.533506
1277.533552
1277.532918
1277.532803
1277.532321
1277.533246
1277.533403
1277.532735
1277.533445
1277.533521
1277.53355
1277.532934
1277.532783
1277.532322
1277.533227
1277.533401
1277.53275
1277.533455
1277.533558
1277.533568
1277.532958
1277.532772
1277.532319
1277.533246
1277.5334
1277.532747
1277.53343
1277.533545
1277.533557
1277.532954
1277.53278
1277.532306
1277.533223
1277.533395
1277.53274
1277.53343
1277.533526
1277.533539
1277.53294
1277.532776
1277.532321
1277.533226
1277.533393
1277.53274
1277.533445
1277.533539
1277.533521
1277.532954
1277.532772
1277.532317
1277.533205
1277.533396
1277.532749
1277.533431
1277.533546
1277.533504
1277.532936
1277.532768
1277.532345
1277.533175
1277.533406
1277.532737
1277.533418
1277.533507
1277.533469
1277.532874
1277.532717
1277.53231
1277.533162
1277.533383
1277.532727
1277.533373
1277.53345
1277.533354
1277.532715
1277.532613
1277.532226
1277.533136
1277.533348
1277.532668
1277.533273
1277.533289
1277.533089
1277.532337
1277.532356
1277.53205
1277.533041
1277.5333
)
;
    }
    inlet
    {
        type            calculated;
        value           nonuniform List<scalar> 
81
(
1277.533441
1277.533247
1277.533091
1277.533147
1277.532977
1277.533477
1277.532576
1277.533085
1277.5335
1277.533023
1277.533386
1277.533231
1277.532878
1277.534141
1277.533661
1277.533077
1277.533129
1277.533243
1277.533191
1277.533075
1277.53338
1277.532887
1277.533631
1277.533341
1277.532116
1277.533139
1277.532934
1277.532656
1277.534202
1277.533481
1277.534108
1277.532505
1277.5324
1277.533749
1277.532696
1277.533427
1277.533287
1277.533441
1277.533361
1277.533293
1277.533055
1277.532687
1277.533188
1277.53263
1277.533301
1277.533757
1277.532625
1277.532986
1277.53356
1277.533318
1277.534085
1277.533458
1277.533288
1277.533048
1277.532642
1277.533651
1277.532101
1277.533472
1277.533945
1277.532902
1277.533223
1277.53353
1277.533314
1277.532879
1277.532782
1277.533935
1277.533496
1277.5334
1277.533489
1277.532419
1277.532764
1277.533055
1277.53276
1277.533499
1277.533522
1277.533519
1277.532888
1277.532837
1277.53232
1277.533248
1277.533427
)
;
    }
    outlet
    {
        type            calculated;
        value           nonuniform 0();
    }
    procBoundary0to1
    {
        type            processor;
        value           nonuniform List<scalar> 
97
(
1277.533103
1277.532716
1277.532631
1277.53195
1277.531315
1277.530668
1277.531609
1277.531505
1277.532507
1277.533117
1277.532716
1277.532716
1277.532219
1277.531747
1277.530885
1277.528229
1277.527382
1277.528969
1277.530641
1277.532067
1277.53264
1277.532699
1277.531747
1277.531747
1277.527187
1277.524708
1277.518664
1277.508781
1277.519011
1277.526088
1277.530709
1277.531864
1277.531602
1277.531546
1277.524708
1277.524708
1277.492086
1277.445435
1277.435951
1277.49052
1277.519455
1277.528109
1277.531594
1277.531967
1277.529413
1277.516354
1277.445435
1277.445435
1275.902694
1277.445612
1277.436189
1277.504736
1277.50835
1277.526043
1277.530925
1277.532754
1277.530076
1277.524184
1277.504158
1277.445612
1277.504736
1277.504736
1277.519197
1277.529606
1277.528661
1277.53119
1277.5321
1277.532196
1277.528665
1277.524749
1277.517048
1277.524065
1277.529606
1277.529606
1277.53116
1277.532162
1277.532222
1277.532531
1277.532175
1277.532666
1277.530934
1277.529427
1277.530917
1277.531113
1277.532162
1277.532162
1277.532448
1277.533202
1277.53258
1277.53308
1277.532983
1277.532557
1277.531636
1277.53184
1277.531742
1277.532862
1277.533202
)
;
    }
}


// ************************************************************************* //
