/*--------------------------------*- C++ -*----------------------------------*\
| =========                 |                                                 |
| \\      /  F ield         | OpenFOAM: The Open Source CFD Toolbox           |
|  \\    /   O peration     | Version:  4.x                                   |
|   \\  /    A nd           | Web:      www.OpenFOAM.org                      |
|    \\/     M anipulation  |                                                 |
\*---------------------------------------------------------------------------*/
FoamFile
{
    version     2.0;
    format      ascii;
    class       volScalarField;
    location    "4000";
    object      H2O;
}
// * * * * * * * * * * * * * * * * * * * * * * * * * * * * * * * * * * * * * //

dimensions      [0 0 0 0 0 0 0];

internalField   nonuniform List<scalar> 
1175
(
1.000028371e-05
1.000028395e-05
1.000028577e-05
1.000028974e-05
1.000030585e-05
1.000036127e-05
1.000054573e-05
1.000113856e-05
1.000297434e-05
1.00084004e-05
1.002357138e-05
1.006318669e-05
1.015841042e-05
1.036568421e-05
1.076809033e-05
1.000028469e-05
1.000028419e-05
1.000028563e-05
1.000029093e-05
1.00003114e-05
1.000038275e-05
1.000062739e-05
1.000144439e-05
1.000406892e-05
1.00121379e-05
1.00356289e-05
1.00994134e-05
1.02579469e-05
1.061042856e-05
1.129460183e-05
1.000028399e-05
1.000028374e-05
1.000028567e-05
1.00002938e-05
1.000032126e-05
1.000042035e-05
1.000077153e-05
1.000198995e-05
1.000607655e-05
1.00192318e-05
1.005936114e-05
1.017345918e-05
1.0468992e-05
1.114507422e-05
1.246018899e-05
1.000028476e-05
1.000028478e-05
1.000028668e-05
1.000029583e-05
1.000033051e-05
1.000045609e-05
1.00009199e-05
1.000257275e-05
1.000831368e-05
1.002750489e-05
1.008850971e-05
1.026966296e-05
1.075922633e-05
1.191738619e-05
1.418567665e-05
1.000028411e-05
1.000028457e-05
1.000028701e-05
1.000029656e-05
1.000033317e-05
1.000047191e-05
1.00009856e-05
1.000284583e-05
1.000940959e-05
1.003178007e-05
1.010459352e-05
1.032695955e-05
1.09472327e-05
1.245995016e-05
1.5458921e-05
1.00002853e-05
1.000028544e-05
1.00002878e-05
1.000029567e-05
1.00003295e-05
1.00004557e-05
1.000091949e-05
1.000257232e-05
1.000831434e-05
1.002750434e-05
1.008850885e-05
1.026966101e-05
1.07592209e-05
1.191736436e-05
1.418561575e-05
1.000028525e-05
1.000028558e-05
1.00002877e-05
1.000029458e-05
1.000032162e-05
1.000042074e-05
1.000077253e-05
1.0001991e-05
1.000607671e-05
1.001923037e-05
1.005935933e-05
1.01734542e-05
1.046897513e-05
1.114502848e-05
1.246008291e-05
1.000028471e-05
1.00002844e-05
1.000028612e-05
1.00002912e-05
1.000031271e-05
1.000038379e-05
1.000062868e-05
1.000144337e-05
1.000406708e-05
1.001213689e-05
1.003562773e-05
1.009940845e-05
1.025793054e-05
1.061038277e-05
1.129449954e-05
1.000028431e-05
1.000028452e-05
1.000028603e-05
1.0000291e-05
1.000030732e-05
1.000036179e-05
1.000054547e-05
1.000113853e-05
1.000297286e-05
1.000840107e-05
1.002357033e-05
1.006318164e-05
1.015839672e-05
1.036564227e-05
1.076798796e-05
1.000028456e-05
1.000028465e-05
1.000028622e-05
1.000029213e-05
1.000031242e-05
1.000038396e-05
1.000062746e-05
1.000144394e-05
1.000406702e-05
1.001213792e-05
1.003563099e-05
1.009941834e-05
1.025796465e-05
1.061049981e-05
1.000028438e-05
1.000028601e-05
1.00002871e-05
1.000029337e-05
1.000031925e-05
1.000041555e-05
1.000075424e-05
1.000193439e-05
1.000591672e-05
1.001881633e-05
1.005848559e-05
1.017224713e-05
1.046935612e-05
1.115322986e-05
1.248458272e-05
1.000028579e-05
1.000028643e-05
1.000028718e-05
1.000029729e-05
1.000033224e-05
1.000046906e-05
1.000097865e-05
1.000284428e-05
1.000948377e-05
1.003230369e-05
1.010700387e-05
1.03354694e-05
1.096989217e-05
1.250137464e-05
1.551256113e-05
1.000028535e-05
1.000028598e-05
1.000028859e-05
1.00002989e-05
1.000034644e-05
1.000052643e-05
1.000122293e-05
1.000387204e-05
1.001374019e-05
1.004945037e-05
1.01733566e-05
1.057751835e-05
1.177839161e-05
1.485997369e-05
2.10662133e-05
1.000028617e-05
1.000028546e-05
1.000028874e-05
1.000030065e-05
1.000035199e-05
1.000055258e-05
1.000133908e-05
1.000438244e-05
1.001599751e-05
1.005929972e-05
1.021534842e-05
1.074938551e-05
1.243270518e-05
1.704654715e-05
2.676160651e-05
1.000028538e-05
1.0000286e-05
1.000028867e-05
1.000030006e-05
1.000034606e-05
1.00005267e-05
1.000122362e-05
1.00038721e-05
1.001374082e-05
1.00494506e-05
1.017335552e-05
1.057751336e-05
1.177836332e-05
1.485986352e-05
2.10659157e-05
1.000028544e-05
1.000028594e-05
1.000028835e-05
1.000029776e-05
1.000033301e-05
1.000047042e-05
1.000097894e-05
1.000284243e-05
1.000948258e-05
1.003230326e-05
1.010700107e-05
1.033545703e-05
1.096984495e-05
1.25012152e-05
1.551216011e-05
1.000028504e-05
1.000028586e-05
1.000028652e-05
1.000029418e-05
1.000032097e-05
1.000041558e-05
1.000075274e-05
1.000193327e-05
1.000591517e-05
1.001881533e-05
1.005848267e-05
1.017223597e-05
1.046931502e-05
1.115309302e-05
1.248421723e-05
1.000028516e-05
1.000028592e-05
1.000028657e-05
1.000029154e-05
1.000031122e-05
1.000038222e-05
1.00006278e-05
1.000144368e-05
1.000406693e-05
1.001213641e-05
1.003562768e-05
1.009941001e-05
1.02579328e-05
1.061038704e-05
1.129450356e-05
1.000028452e-05
1.00002845e-05
1.000028708e-05
1.00002945e-05
1.000032186e-05
1.00004202e-05
1.000077227e-05
1.000198951e-05
1.000607685e-05
1.001923245e-05
1.00593663e-05
1.017347554e-05
1.046904893e-05
1.114525842e-05
1.000028452e-05
1.00002849e-05
1.000028731e-05
1.000029715e-05
1.000033334e-05
1.000046979e-05
1.000098081e-05
1.000284456e-05
1.000948403e-05
1.003230539e-05
1.010700927e-05
1.033548845e-05
1.0969966e-05
1.250167468e-05
1.000028419e-05
1.00002846e-05
1.000028869e-05
1.00003012e-05
1.000035285e-05
1.000055787e-05
1.000136599e-05
1.000450207e-05
1.001643553e-05
1.006056591e-05
1.021705374e-05
1.073822123e-05
1.231572889e-05
1.64208929e-05
2.472359125e-05
1.000028494e-05
1.000028649e-05
1.000028995e-05
1.000030561e-05
1.000037456e-05
1.000065413e-05
1.000180464e-05
1.000649271e-05
1.00253901e-05
1.010011992e-05
1.038659433e-05
1.143031206e-05
1.492342389e-05
2.499583869e-05
4.672016925e-05
1.000028512e-05
1.000028616e-05
1.00002916e-05
1.000030959e-05
1.00003853e-05
1.000070048e-05
1.000202363e-05
1.000755711e-05
1.003060672e-05
1.012579094e-05
1.051222124e-05
1.20314895e-05
1.765110009e-05
3.602971008e-05
8.097363174e-05
1.000028547e-05
1.000028539e-05
1.000029038e-05
1.000030693e-05
1.000037488e-05
1.000065578e-05
1.000180592e-05
1.000649431e-05
1.002539167e-05
1.010011916e-05
1.038658923e-05
1.143028378e-05
1.492327706e-05
2.499521803e-05
4.671824805e-05
1.000028567e-05
1.000028622e-05
1.000028899e-05
1.00003021e-05
1.000035394e-05
1.000055955e-05
1.000136695e-05
1.000450251e-05
1.001643523e-05
1.006056485e-05
1.021704525e-05
1.073818374e-05
1.231556025e-05
1.642023162e-05
2.472155271e-05
1.000028425e-05
1.00002856e-05
1.000028753e-05
1.000029732e-05
1.000033314e-05
1.000047136e-05
1.000097988e-05
1.000284336e-05
1.000948425e-05
1.003230486e-05
1.010700364e-05
1.033546056e-05
1.096985378e-05
1.250122884e-05
1.551216546e-05
1.000028417e-05
1.000028552e-05
1.000028676e-05
1.000029414e-05
1.000032112e-05
1.000042041e-05
1.000077228e-05
1.000199005e-05
1.000607654e-05
1.001923213e-05
1.005936095e-05
1.017345923e-05
1.046898586e-05
1.114504399e-05
1.246009742e-05
1.000028549e-05
1.000028519e-05
1.000028819e-05
1.000029575e-05
1.00003303e-05
1.000045666e-05
1.000091908e-05
1.000257307e-05
1.000831431e-05
1.002750771e-05
1.008851921e-05
1.026969907e-05
1.075934764e-05
1.191774924e-05
1.000028566e-05
1.000028506e-05
1.000028764e-05
1.000029993e-05
1.00003463e-05
1.000052747e-05
1.000122403e-05
1.00038723e-05
1.00137413e-05
1.004945573e-05
1.017337288e-05
1.057758024e-05
1.177862763e-05
1.486082024e-05
1.00002848e-05
1.000028512e-05
1.000028913e-05
1.000030609e-05
1.000037463e-05
1.000065431e-05
1.000180549e-05
1.000649469e-05
1.002539249e-05
1.01001252e-05
1.038661378e-05
1.143040109e-05
1.492383603e-05
2.499778701e-05
1.000028466e-05
1.0000286e-05
1.000029185e-05
1.000031199e-05
1.000040464e-05
1.000079664e-05
1.000249311e-05
1.000982731e-05
1.004155179e-05
1.017814993e-05
1.075822771e-05
1.314805877e-05
2.240543055e-05
5.396366174e-05
0.0001332600732
1.000028541e-05
1.000028588e-05
1.000029161e-05
1.00003148e-05
1.000041851e-05
1.000086907e-05
1.000285539e-05
1.001173895e-05
1.005193268e-05
1.023593939e-05
1.108630865e-05
1.502563783e-05
3.298673606e-05
0.0001097997197
0.0003718076908
1.000028633e-05
1.000028786e-05
1.000029147e-05
1.000031305e-05
1.000040605e-05
1.000079895e-05
1.000249395e-05
1.000982809e-05
1.004155247e-05
1.017814578e-05
1.075820818e-05
1.314794816e-05
2.240481901e-05
5.396047717e-05
0.0001332467166
1.000028544e-05
1.000028738e-05
1.000029077e-05
1.000030752e-05
1.00003737e-05
1.000065497e-05
1.000180576e-05
1.000649488e-05
1.00253921e-05
1.010012258e-05
1.038659825e-05
1.143031405e-05
1.492336787e-05
2.499540974e-05
4.671838607e-05
1.00002862e-05
1.000028748e-05
1.000028989e-05
1.000030146e-05
1.000034762e-05
1.000052812e-05
1.000122412e-05
1.000387343e-05
1.001374099e-05
1.004945343e-05
1.017336244e-05
1.057752869e-05
1.177840276e-05
1.485993313e-05
2.106594171e-05
1.000028617e-05
1.000028656e-05
1.000028854e-05
1.000029724e-05
1.000033092e-05
1.00004567e-05
1.000091927e-05
1.000257332e-05
1.000831432e-05
1.002750595e-05
1.008851318e-05
1.026967126e-05
1.075924289e-05
1.19174007e-05
1.418563895e-05
1.000028503e-05
1.000028536e-05
1.000028821e-05
1.000029658e-05
1.000033327e-05
1.000047251e-05
1.00009854e-05
1.00028459e-05
1.000941029e-05
1.003178467e-05
1.01046064e-05
1.032700913e-05
1.094740101e-05
1.246045402e-05
1.000028499e-05
1.000028569e-05
1.000028829e-05
1.000030083e-05
1.000035227e-05
1.000055259e-05
1.000133824e-05
1.000438272e-05
1.001599931e-05
1.005930501e-05
1.021537212e-05
1.074948761e-05
1.243310192e-05
1.704795109e-05
1.000028505e-05
1.000028528e-05
1.000028966e-05
1.0000308e-05
1.000038391e-05
1.000070018e-05
1.000202315e-05
1.000755749e-05
1.003060905e-05
1.012580107e-05
1.051226946e-05
1.203172152e-05
1.76521962e-05
3.603465545e-05
1.000028448e-05
1.00002858e-05
1.000029104e-05
1.000031529e-05
1.000041777e-05
1.000086729e-05
1.000285423e-05
1.001173846e-05
1.005193481e-05
1.023595041e-05
1.108637327e-05
1.502601211e-05
3.298904287e-05
0.0001098149859
1.000028649e-05
1.000028751e-05
1.000029343e-05
1.000031916e-05
1.000043469e-05
1.000095202e-05
1.000330714e-05
1.001426636e-05
1.006675984e-05
1.032760901e-05
1.168619418e-05
1.918671608e-05
6.354031317e-05
0.0003464307747
0.002303657773
1.000028755e-05
1.000028848e-05
1.000029309e-05
1.000031744e-05
1.000042003e-05
1.000086914e-05
1.000285591e-05
1.001174048e-05
1.005193624e-05
1.023594848e-05
1.108634563e-05
1.502581035e-05
3.298748258e-05
0.0001098024555
0.0003718104453
1.000028618e-05
1.000028679e-05
1.000029098e-05
1.000030959e-05
1.000038407e-05
1.000070086e-05
1.000202486e-05
1.000755906e-05
1.00306097e-05
1.012579821e-05
1.051224735e-05
1.203158947e-05
1.765143441e-05
3.603055463e-05
8.097426083e-05
1.000028668e-05
1.000028765e-05
1.000029011e-05
1.000030305e-05
1.000035418e-05
1.000055314e-05
1.000133815e-05
1.000438234e-05
1.001599823e-05
1.005930294e-05
1.021536016e-05
1.074942418e-05
1.243280898e-05
1.704675343e-05
2.676172555e-05
1.000028555e-05
1.000028565e-05
1.000028897e-05
1.000029881e-05
1.000033487e-05
1.000047359e-05
1.000098655e-05
1.000284651e-05
1.000940983e-05
1.003178201e-05
1.010459912e-05
1.032697718e-05
1.094727784e-05
1.246002765e-05
1.545897772e-05
1.00002846e-05
1.000028528e-05
1.000028812e-05
1.000029684e-05
1.000033033e-05
1.000045587e-05
1.000091913e-05
1.000257227e-05
1.00083155e-05
1.002750868e-05
1.00885218e-05
1.026970674e-05
1.075936236e-05
1.191776247e-05
1.000028579e-05
1.000028602e-05
1.000028868e-05
1.000030043e-05
1.000034654e-05
1.000052617e-05
1.000122202e-05
1.000387242e-05
1.001374164e-05
1.004945814e-05
1.017337994e-05
1.057760086e-05
1.177867583e-05
1.486085036e-05
1.000028522e-05
1.000028623e-05
1.000028952e-05
1.000030657e-05
1.000037459e-05
1.000065452e-05
1.000180456e-05
1.000649409e-05
1.00253936e-05
1.010013038e-05
1.038663547e-05
1.143048437e-05
1.492409447e-05
2.499821279e-05
1.000028539e-05
1.000028583e-05
1.000029186e-05
1.000031221e-05
1.000040461e-05
1.000079831e-05
1.000249396e-05
1.000982745e-05
1.004155552e-05
1.017816273e-05
1.075828407e-05
1.314832023e-05
2.240661466e-05
5.396861074e-05
1.000028648e-05
1.000028738e-05
1.000029273e-05
1.000031553e-05
1.000041903e-05
1.00008675e-05
1.000285454e-05
1.001173922e-05
1.005193746e-05
1.023595804e-05
1.108640749e-05
1.50261701e-05
3.298970564e-05
0.0001098171224
1.000028704e-05
1.000028705e-05
1.000029197e-05
1.000031388e-05
1.000040435e-05
1.000079777e-05
1.000249391e-05
1.000982829e-05
1.004155614e-05
1.017816148e-05
1.075827365e-05
1.314825659e-05
2.240626884e-05
5.396727239e-05
1.000028707e-05
1.000028754e-05
1.000029123e-05
1.000030746e-05
1.000037404e-05
1.000065544e-05
1.000180585e-05
1.000649583e-05
1.002539507e-05
1.010012995e-05
1.038662537e-05
1.143042222e-05
1.492378672e-05
2.49968822e-05
4.672297375e-05
1.000028618e-05
1.000028729e-05
1.000028865e-05
1.000030162e-05
1.000034651e-05
1.000052731e-05
1.000122341e-05
1.000387321e-05
1.001374329e-05
1.004945624e-05
1.017337136e-05
1.057756409e-05
1.177851748e-05
1.486026286e-05
2.106667992e-05
1.000028425e-05
1.000028535e-05
1.000028828e-05
1.000029717e-05
1.000033104e-05
1.000045729e-05
1.000091936e-05
1.000257267e-05
1.000831404e-05
1.002750759e-05
1.008851608e-05
1.026968334e-05
1.075927705e-05
1.191748488e-05
1.418579817e-05
1.000028414e-05
1.000028466e-05
1.000028718e-05
1.000029345e-05
1.000032216e-05
1.000042072e-05
1.000077214e-05
1.000199065e-05
1.000607797e-05
1.00192351e-05
1.005936891e-05
1.017348579e-05
1.046906749e-05
1.114526942e-05
1.000028528e-05
1.000028537e-05
1.000028782e-05
1.000029746e-05
1.000033329e-05
1.00004704e-05
1.000098009e-05
1.00028442e-05
1.000948522e-05
1.003230783e-05
1.010701763e-05
1.033551168e-05
1.097002508e-05
1.250173287e-05
1.000028506e-05
1.00002856e-05
1.000029029e-05
1.000030313e-05
1.000035329e-05
1.000055907e-05
1.000136847e-05
1.000450314e-05
1.001643603e-05
1.006057197e-05
1.021707486e-05
1.073829863e-05
1.23159696e-05
1.642152654e-05
1.000028555e-05
1.000028711e-05
1.000029138e-05
1.000030634e-05
1.000037501e-05
1.000065497e-05
1.000180525e-05
1.000649481e-05
1.00253948e-05
1.01001331e-05
1.038664551e-05
1.143051213e-05
1.492416297e-05
2.499829755e-05
1.000028641e-05
1.000028836e-05
1.000029122e-05
1.00003086e-05
1.000038406e-05
1.000070161e-05
1.000202478e-05
1.000755849e-05
1.003061033e-05
1.012580788e-05
1.051229512e-05
1.203180996e-05
1.765245302e-05
3.603500998e-05
1.000028646e-05
1.000028671e-05
1.000029033e-05
1.000030698e-05
1.000037445e-05
1.000065481e-05
1.000180515e-05
1.000649471e-05
1.002539465e-05
1.01001325e-05
1.038663969e-05
1.143048688e-05
1.492406347e-05
2.499798968e-05
1.000028559e-05
1.000028617e-05
1.000028883e-05
1.000030102e-05
1.000035339e-05
1.000055857e-05
1.000136796e-05
1.000450397e-05
1.001643766e-05
1.00605717e-05
1.021707115e-05
1.073827881e-05
1.231590224e-05
1.642140975e-05
1.000028514e-05
1.000028485e-05
1.000028628e-05
1.000029574e-05
1.000033233e-05
1.000046911e-05
1.000097885e-05
1.00028435e-05
1.000948469e-05
1.003230678e-05
1.010701425e-05
1.033549767e-05
1.096996892e-05
1.250155422e-05
1.551297143e-05
1.00002846e-05
1.000028499e-05
1.000028583e-05
1.000029352e-05
1.000032218e-05
1.000042028e-05
1.000077209e-05
1.000199059e-05
1.000607694e-05
1.001923288e-05
1.005936577e-05
1.017347306e-05
1.046902803e-05
1.114514792e-05
1.246029737e-05
1.000028413e-05
1.000028478e-05
1.00002858e-05
1.00002921e-05
1.000031189e-05
1.000038299e-05
1.000062913e-05
1.000144563e-05
1.000406887e-05
1.001213799e-05
1.003563318e-05
1.009942583e-05
1.02579806e-05
1.061051042e-05
1.000028417e-05
1.000028455e-05
1.00002865e-05
1.000029414e-05
1.000031985e-05
1.000041544e-05
1.000075455e-05
1.000193468e-05
1.000591711e-05
1.001881907e-05
1.005849254e-05
1.017226693e-05
1.046940587e-05
1.115333366e-05
1.000028544e-05
1.000028606e-05
1.000028806e-05
1.000029772e-05
1.000033366e-05
1.000047003e-05
1.000098047e-05
1.000284483e-05
1.000948434e-05
1.0032308e-05
1.01070198e-05
1.033551794e-05
1.097003702e-05
1.25017448e-05
1.000028585e-05
1.000028613e-05
1.000028836e-05
1.000030065e-05
1.00003468e-05
1.000052678e-05
1.000122279e-05
1.000387325e-05
1.001374206e-05
1.004945867e-05
1.017338538e-05
1.057761958e-05
1.177871358e-05
1.486089058e-05
1.000028753e-05
1.000028793e-05
1.000028928e-05
1.000030286e-05
1.000035237e-05
1.000055309e-05
1.00013391e-05
1.00043848e-05
1.001599934e-05
1.005930929e-05
1.021538482e-05
1.074952137e-05
1.243317503e-05
1.704801034e-05
1.000028713e-05
1.00002865e-05
1.000028796e-05
1.000029948e-05
1.000034713e-05
1.00005271e-05
1.000122271e-05
1.000387192e-05
1.001374367e-05
1.004945897e-05
1.017338476e-05
1.057761083e-05
1.177868398e-05
1.486080933e-05
1.000028425e-05
1.000028465e-05
1.000028722e-05
1.000029768e-05
1.000033434e-05
1.000046959e-05
1.000098011e-05
1.000284454e-05
1.000948526e-05
1.003230707e-05
1.010701649e-05
1.033550912e-05
1.097000947e-05
1.25016957e-05
1.000028467e-05
1.000028477e-05
1.000028599e-05
1.000029357e-05
1.000032047e-05
1.000041568e-05
1.000075366e-05
1.000193376e-05
1.000591557e-05
1.001881882e-05
1.005849015e-05
1.017225995e-05
1.04693888e-05
1.115331644e-05
1.000028374e-05
1.000028442e-05
1.000028625e-05
1.000029199e-05
1.000031275e-05
1.000038316e-05
1.000062897e-05
1.000144479e-05
1.000406848e-05
1.001213854e-05
1.003563174e-05
1.009942131e-05
1.025796667e-05
1.061047195e-05
1.12946916e-05
1.000028388e-05
1.000028473e-05
1.00002862e-05
1.000029019e-05
1.00003061e-05
1.000036279e-05
1.000054679e-05
1.000113957e-05
1.000297448e-05
1.000840152e-05
1.002357315e-05
1.0063193e-05
1.015842666e-05
1.036571879e-05
1.000028406e-05
1.000028462e-05
1.000028639e-05
1.000029148e-05
1.000031204e-05
1.000038407e-05
1.000062841e-05
1.000144477e-05
1.000406817e-05
1.001213877e-05
1.003563384e-05
1.009942795e-05
1.025798394e-05
1.061051538e-05
1.000028403e-05
1.000028461e-05
1.000028713e-05
1.0000294e-05
1.00003217e-05
1.000042063e-05
1.000077042e-05
1.000198947e-05
1.000607704e-05
1.001923284e-05
1.005936999e-05
1.017348938e-05
1.046907564e-05
1.114528111e-05
1.000028555e-05
1.000028576e-05
1.000028859e-05
1.000029758e-05
1.000032981e-05
1.000045586e-05
1.000091983e-05
1.000257343e-05
1.000831596e-05
1.002751094e-05
1.008852646e-05
1.026971637e-05
1.075937873e-05
1.191777679e-05
1.000028598e-05
1.000028781e-05
1.000029007e-05
1.000029899e-05
1.000033486e-05
1.000047294e-05
1.000098639e-05
1.000284713e-05
1.000941156e-05
1.003178656e-05
1.010461382e-05
1.032702425e-05
1.094742668e-05
1.246046798e-05
1.00002841e-05
1.000028561e-05
1.000028778e-05
1.000029655e-05
1.000033045e-05
1.000045626e-05
1.000091994e-05
1.00025737e-05
1.000831506e-05
1.002750941e-05
1.008852391e-05
1.026971134e-05
1.075936678e-05
1.191774428e-05
1.000028468e-05
1.000028501e-05
1.000028683e-05
1.000029458e-05
1.000032164e-05
1.000042035e-05
1.000077217e-05
1.000199045e-05
1.000607744e-05
1.001923473e-05
1.005936998e-05
1.017348381e-05
1.046906264e-05
1.114525305e-05
1.000028383e-05
1.000028452e-05
1.00002857e-05
1.000029101e-05
1.000031213e-05
1.000038348e-05
1.000062952e-05
1.000144446e-05
1.00040679e-05
1.0012138e-05
1.003563301e-05
1.009942415e-05
1.025797587e-05
1.061050546e-05
1.000028217e-05
1.000028326e-05
1.000028513e-05
1.000028948e-05
1.000030613e-05
1.00003619e-05
1.000054663e-05
1.000113829e-05
1.000297427e-05
1.000840056e-05
1.002357266e-05
1.006319116e-05
1.015842313e-05
1.03657172e-05
)
;

boundaryField
{
    top
    {
        type            zeroGradient;
    }
    bottom
    {
        type            zeroGradient;
    }
    side-walls
    {
        type            zeroGradient;
    }
    inlet
    {
        type            zeroGradient;
    }
    outlet
    {
        type            zeroGradient;
    }
    procBoundary0to1
    {
        type            processor;
        value           nonuniform List<scalar> 
97
(
1.145974841e-05
1.129469257e-05
1.243744944e-05
1.457328156e-05
1.765868946e-05
1.982634055e-05
1.765861848e-05
1.457315182e-05
1.243733283e-05
1.145966525e-05
1.129469257e-05
1.129469257e-05
1.460564634e-05
1.551301502e-05
1.999167277e-05
2.941527299e-05
3.815233624e-05
2.941495628e-05
1.99912777e-05
1.46053959e-05
1.243734019e-05
1.246032859e-05
1.551301502e-05
1.551301502e-05
3.565064927e-05
4.672382225e-05
6.991683282e-05
0.0001140214813
6.991527675e-05
3.564941453e-05
1.999127879e-05
1.457317015e-05
1.41859442e-05
2.106706109e-05
4.672382225e-05
4.672382225e-05
0.0001857020683
0.0003718554097
0.0004090600345
0.000185696417
6.991541001e-05
2.941497435e-05
1.765864788e-05
1.545930659e-05
2.676297955e-05
8.098087051e-05
0.0003718554097
0.0003718554097
0.001359584237
0.0003718542187
0.0004090603276
0.0001332600921
0.0001140218341
3.815242284e-05
1.982640546e-05
1.418591104e-05
2.106674865e-05
4.672140664e-05
0.0001332584015
0.0003718542187
0.0001332600921
0.0001332600921
6.991696176e-05
2.472358341e-05
2.94155339e-05
1.765881525e-05
1.246025765e-05
1.551257163e-05
2.472271504e-05
4.672150946e-05
8.098091785e-05
4.672135327e-05
2.472358341e-05
2.472358341e-05
1.999168765e-05
1.248457681e-05
1.457336366e-05
1.129458711e-05
1.248439933e-05
1.551259146e-05
2.106680748e-05
2.676298649e-05
2.106670367e-05
1.551264344e-05
1.248457681e-05
1.248457681e-05
1.243745229e-05
1.076809138e-05
1.076803823e-05
1.129459704e-05
1.246027833e-05
1.418593218e-05
1.545931031e-05
1.41858784e-05
1.246025019e-05
1.129461583e-05
1.076809138e-05
)
;
    }
}


// ************************************************************************* //
