/*--------------------------------*- C++ -*----------------------------------*\
| =========                 |                                                 |
| \\      /  F ield         | OpenFOAM: The Open Source CFD Toolbox           |
|  \\    /   O peration     | Version:  4.x                                   |
|   \\  /    A nd           | Web:      www.OpenFOAM.org                      |
|    \\/     M anipulation  |                                                 |
\*---------------------------------------------------------------------------*/
FoamFile
{
    version     2.0;
    format      ascii;
    class       surfaceScalarField;
    location    "4000";
    object      phi;
}
// * * * * * * * * * * * * * * * * * * * * * * * * * * * * * * * * * * * * * //

dimensions      [1 0 -1 0 0 0 0];

internalField   nonuniform List<scalar> 
3175
(
9.165402256e-06
9.130006637e-13
-1.571126088e-13
9.165405527e-06
2.540137508e-12
1.787314942e-12
9.165405688e-06
8.17161842e-13
6.073561325e-13
9.165403356e-06
-1.89993526e-13
3.373751788e-13
9.165405768e-06
8.03956129e-13
4.811246191e-13
9.165407207e-06
1.685769184e-12
-1.475798049e-13
9.165410765e-06
2.05864326e-13
3.631292265e-13
9.165415158e-06
-1.219463481e-12
-7.409868734e-13
9.16542152e-06
-3.166533951e-12
-4.533984982e-12
9.165434226e-06
-4.998484732e-12
-6.426281783e-12
9.165453836e-06
-9.782565138e-12
-9.896878727e-12
9.165479947e-06
-1.339034096e-11
-1.295245227e-11
9.165532993e-06
-2.522725865e-11
-2.605028676e-11
9.165585988e-06
-2.792200942e-11
-2.628865676e-11
-6.198836848e-11
9.165412669e-06
1.593950601e-12
-4.640246735e-13
9.165409559e-06
4.572247717e-13
-8.331364974e-13
9.165413541e-06
-1.699027118e-13
5.888200385e-13
9.165412532e-06
-1.907987936e-12
-2.62073025e-13
9.165413786e-06
-6.580217672e-13
-6.147542408e-13
9.165411803e-06
-1.636907624e-12
-1.097149222e-12
9.165415695e-06
-1.311825838e-12
-6.831917105e-13
9.165419361e-06
-3.171547804e-12
-8.730651389e-13
9.165426184e-06
-6.313696484e-12
-3.580672412e-12
9.165436293e-06
-8.976987344e-12
-6.411999532e-12
9.165454566e-06
-1.688528098e-11
-1.096941464e-11
9.165480457e-06
-2.393752043e-11
-1.614024772e-11
9.165530081e-06
-4.63107406e-11
-3.349728593e-11
9.16558445e-06
-4.847012194e-11
-3.147938656e-11
-1.186606595e-10
-9.275192032e-11
9.165418744e-06
7.742460174e-13
1.845293728e-14
9.165417722e-06
8.500262901e-13
-8.936389768e-13
9.165421022e-06
1.708075477e-12
-2.620037772e-13
9.165421437e-06
-2.922257891e-13
1.341777384e-12
9.165420865e-06
-1.184285602e-12
2.230602933e-13
9.165421855e-06
-3.540216843e-12
-2.923927707e-12
9.165423499e-06
-1.938153297e-12
-1.601325686e-12
9.165424117e-06
-3.255287479e-12
-3.403628101e-12
9.165429746e-06
-5.555126008e-12
-4.46956449e-12
9.165435118e-06
-8.298800398e-12
-6.207906172e-12
9.165447839e-06
-1.522930965e-11
-1.281470272e-11
9.165466954e-06
-2.338879922e-11
-2.151886087e-11
9.165510338e-06
-4.626885026e-11
-4.711826298e-11
9.165561584e-06
-4.836946519e-11
-5.072197494e-11
-1.422141498e-10
-1.915330987e-10
9.165415938e-06
1.579573125e-14
-4.375012489e-13
9.165415295e-06
-2.451413366e-13
-7.98478074e-13
9.165416525e-06
-3.0765227e-13
-3.728832251e-13
9.165419859e-06
-2.211115038e-14
4.249978792e-14
9.165416902e-06
-3.792805163e-13
-1.349114763e-12
9.165419661e-06
-3.844902854e-13
-2.196986228e-13
9.165417783e-06
-1.814834307e-12
-2.633204193e-12
9.165419654e-06
-8.658971455e-13
-3.53578011e-12
9.165421644e-06
-2.210487232e-12
-3.339623851e-12
9.165426022e-06
-5.435751809e-12
-7.932873596e-12
9.165434755e-06
-9.358379105e-12
-1.316752121e-11
9.165455296e-06
-1.61208615e-11
-2.531920479e-11
9.165494066e-06
-3.696725566e-11
-5.077155885e-11
9.16555175e-06
-4.588290487e-11
-5.971083433e-11
-1.23977671e-10
-2.932872707e-10
9.165424942e-06
-1.142561082e-12
-2.324685161e-13
9.16542365e-06
1.718539688e-13
-3.808678233e-13
9.165424044e-06
5.148990459e-13
-2.128877517e-13
9.165425428e-06
1.14269367e-12
1.134137982e-13
9.165423004e-06
1.168473761e-12
-1.248149275e-12
9.165425617e-06
1.9304724e-12
-1.389117317e-12
9.165424803e-06
1.160089435e-12
-1.33713955e-12
9.165424823e-06
1.024787578e-12
-4.374038125e-12
9.16542159e-06
2.542296531e-12
-6.086461957e-12
9.165424271e-06
6.171149597e-12
-9.978031646e-12
9.165421163e-06
1.101541722e-11
-1.863329768e-11
9.165425564e-06
1.788643915e-11
-3.997736529e-11
9.165438931e-06
3.818319202e-11
-8.88485327e-11
9.165478523e-06
4.516926031e-11
-1.309714427e-10
1.234664569e-10
-6.88723623e-10
9.165401992e-06
9.668488024e-14
3.887541516e-13
9.165399855e-06
6.713954584e-15
1.622443065e-13
9.165399345e-06
-2.28303646e-13
-6.027547856e-15
9.165401144e-06
1.152142925e-12
4.321072367e-13
9.165401785e-06
1.571170539e-12
-1.217379566e-12
9.165401301e-06
2.107490363e-12
-2.401428281e-12
9.165401956e-06
2.654800537e-12
-2.508119297e-12
9.165404546e-06
3.528092652e-12
-2.773984986e-12
9.165405406e-06
5.992715346e-12
-5.24068605e-12
9.165411242e-06
7.540428545e-12
-8.92128912e-12
9.165421023e-06
1.28542447e-11
-1.443440599e-11
9.165439442e-06
2.067871537e-11
-2.63717303e-11
9.165478205e-06
4.441350563e-11
-4.940101362e-11
9.165536815e-06
4.69345608e-11
-6.040492312e-11
1.418448184e-10
-2.916864696e-10
9.165444179e-06
1.210525508e-12
5.050394942e-13
9.165442702e-06
4.45496682e-13
6.263348252e-13
9.165443181e-06
-4.430324633e-13
1.18514278e-13
9.165443027e-06
-5.929064757e-13
-1.382023075e-12
9.16544341e-06
-1.693645856e-13
-1.099992998e-13
9.165445705e-06
2.648309788e-12
-1.044355462e-12
9.165443042e-06
1.783630529e-12
-4.099249937e-12
9.165446962e-06
2.778951907e-12
-4.248458897e-12
9.165449802e-06
4.27383816e-12
-5.682519688e-12
9.165456928e-06
9.008849547e-12
-7.228242034e-12
9.165468865e-06
1.723912159e-11
-1.40427689e-11
9.165487347e-06
2.321939332e-11
-2.216357846e-11
9.165532087e-06
4.642422475e-11
-4.737087629e-11
9.165585297e-06
4.869417524e-11
-5.080603029e-11
1.188644297e-10
-1.924533435e-10
9.165418949e-06
9.054600859e-13
9.518153218e-13
9.165418921e-06
1.204353481e-13
8.853196677e-13
9.16541998e-06
9.570755135e-13
-8.477675553e-14
9.165421131e-06
1.953352014e-12
-3.560665842e-14
9.165421684e-06
1.006476636e-12
4.474334671e-13
9.165422028e-06
5.3392467e-13
-9.371385637e-13
9.165423426e-06
2.743894645e-13
-2.464572247e-12
9.165428677e-06
2.019576893e-12
-2.049422209e-12
9.165434028e-06
2.965510712e-12
-3.455517228e-12
9.16544533e-06
6.308607674e-12
-5.780007062e-12
9.16546158e-06
1.087837732e-11
-1.091810155e-11
9.165486764e-06
1.435582032e-11
-1.508404175e-11
9.165536038e-06
2.616200195e-11
-3.376848815e-11
9.165591464e-06
2.840928246e-11
-3.268157927e-11
6.2807973e-11
-9.384290782e-11
9.165399675e-06
6.214333619e-13
9.165399673e-06
-8.521567754e-14
9.165401294e-06
-7.335005227e-13
9.165400594e-06
-1.943741146e-12
9.165402969e-06
-1.273038503e-13
9.16540285e-06
-1.088357494e-12
9.165406602e-06
-7.00953081e-13
9.165411166e-06
-1.14648531e-12
9.165419654e-06
-2.712126715e-12
9.16542891e-06
-4.078822947e-12
9.165449874e-06
-9.093497011e-12
9.165475974e-06
-1.372287187e-11
9.165531572e-06
-2.77179203e-11
9.16558316e-06
-2.883161005e-11
-6.088901848e-11
9.165423542e-06
3.096296746e-13
2.265121241e-13
9.16542181e-06
8.785744041e-13
-6.079682916e-13
9.165423024e-06
7.016343244e-13
-7.587381993e-13
9.165422811e-06
6.374310539e-13
-1.449891904e-12
9.165423615e-06
-1.378620392e-13
4.15487481e-13
9.165425303e-06
2.205616244e-14
1.00207661e-12
9.165427471e-06
-1.139794015e-14
-5.926388334e-13
9.165431645e-06
-4.760679549e-13
-4.062630012e-12
9.165435972e-06
-2.915250589e-12
-6.798919101e-12
9.165445759e-06
-6.195884718e-12
-1.078909891e-11
9.165463242e-06
-1.127069375e-11
-1.738388653e-11
9.165488692e-06
-1.60115897e-11
-2.615767889e-11
9.1655425e-06
-3.247109788e-11
-4.804671515e-11
-3.227746146e-11
-4.754217816e-11
9.165407017e-06
1.830983226e-12
-6.151631113e-13
9.165406362e-06
3.484095944e-13
-5.401723292e-13
9.165407036e-06
-1.308247572e-12
-1.127874849e-12
9.165407942e-06
-8.237699027e-13
-6.493960683e-13
9.165408698e-06
-4.637115703e-14
-1.246273188e-12
9.165408918e-06
-2.911349554e-12
-1.945225029e-12
9.165412263e-06
-3.371367983e-12
-1.800539072e-12
9.165414836e-06
-3.995577418e-12
-3.997910391e-12
9.165420542e-06
-6.523441239e-12
-6.42716773e-12
9.165428391e-06
-9.208234168e-12
-1.030806283e-11
9.165444295e-06
-1.704821954e-11
-1.800713768e-11
9.165465812e-06
-2.833871214e-11
-2.998512269e-11
9.16551433e-06
-5.567639425e-11
-5.850518767e-11
9.165570737e-06
-6.000133927e-11
-5.948603372e-11
-1.910572645e-10
9.165409704e-06
3.233981056e-13
-1.625170611e-12
9.165410473e-06
2.657427411e-13
-4.54040653e-13
9.16541218e-06
7.960997118e-13
8.253969664e-13
9.16541067e-06
-3.535126512e-13
-8.850741441e-13
9.165409248e-06
-2.130050303e-12
-2.272154123e-12
9.165410493e-06
-7.265401987e-13
-1.463441162e-12
9.165411922e-06
-1.592653642e-12
-2.542741062e-12
9.165413164e-06
-3.971454383e-12
-3.519350138e-12
9.165414694e-06
-5.357616464e-12
-7.44823449e-12
9.16541706e-06
-1.049268429e-11
-1.386918717e-11
9.165424863e-06
-1.772345119e-11
-2.307623188e-11
9.165439258e-06
-2.877189692e-11
-4.215763792e-11
9.165472044e-06
-5.796330474e-11
-8.483076982e-11
9.165531833e-06
-6.468785767e-11
-1.03877708e-10
-2.636323382e-10
-4.27033253e-10
9.165427677e-06
6.890216673e-13
-4.657926399e-13
9.165427625e-06
1.700080476e-13
-1.078503289e-13
9.165428203e-06
3.792202013e-14
-3.318608889e-13
9.165428654e-06
-3.665372378e-13
-5.019015023e-14
9.165429945e-06
5.184510763e-14
-2.800756134e-13
9.165429247e-06
-9.949526264e-13
-1.182401517e-12
9.165429067e-06
-4.930819813e-13
-2.459723395e-12
9.165428665e-06
-1.448892393e-12
-4.419311678e-12
9.165427167e-06
-3.696438898e-12
-8.705959471e-12
9.165429204e-06
-6.671066371e-12
-1.431605103e-11
9.165434909e-06
-1.163356817e-11
-1.931053319e-11
9.165453162e-06
-2.31042789e-11
-4.697883677e-11
9.165475347e-06
-5.43432668e-11
-7.719652299e-11
9.165563246e-06
-7.374104198e-11
-1.417453537e-10
-2.500981048e-10
-6.945739174e-10
9.165367073e-06
-4.013886879e-13
2.676115763e-13
9.165368443e-06
8.661268291e-13
-3.815423288e-13
9.165370159e-06
8.487228338e-13
5.714672617e-14
9.165371465e-06
1.193783745e-12
1.164538358e-12
9.165370382e-06
4.616652783e-13
1.916812246e-13
9.165371796e-06
8.350171098e-13
-1.182710163e-12
9.165369145e-06
2.555226333e-13
-1.369084462e-12
9.165369502e-06
9.366577227e-13
-4.108834441e-12
9.165364974e-06
2.368409868e-12
-7.854102094e-12
9.165359208e-06
6.498345377e-12
-1.725175315e-11
9.165344736e-06
1.220886936e-11
-2.730380953e-11
9.165334863e-06
2.331384598e-11
-7.554869834e-11
9.165289551e-06
5.371839394e-11
-1.507856107e-10
9.165349646e-06
7.20913425e-11
-3.38749811e-10
2.497844243e-10
-1.942059357e-09
9.16539368e-06
-9.444707157e-14
6.647935145e-13
9.165391829e-06
-4.715437105e-13
3.368658688e-13
9.165392526e-06
8.936221904e-13
1.144033943e-13
9.165391911e-06
6.397964802e-13
6.674682208e-13
9.16539329e-06
2.40848259e-12
5.932740205e-13
9.165394393e-06
2.404395756e-12
-8.517668665e-13
9.165393719e-06
1.914535218e-12
-2.090348958e-12
9.165393524e-06
3.13662124e-12
-4.271115042e-12
9.165394443e-06
5.416710307e-12
-6.771490843e-12
9.16539561e-06
8.691477929e-12
-1.505719377e-11
9.165399448e-06
1.466863126e-11
-2.065929548e-11
9.165416741e-06
2.654710986e-11
-4.794885803e-11
9.165440289e-06
5.6158191e-11
-7.872026002e-11
9.165532165e-06
6.365916491e-11
-1.41867668e-10
2.612281519e-10
-6.955251765e-10
9.165420637e-06
1.622451312e-12
7.437186181e-14
9.165418763e-06
1.124322236e-12
2.536075525e-13
9.165420613e-06
-6.438200748e-13
-3.897849432e-13
9.165420563e-06
3.585538078e-13
-7.000353952e-13
9.165420008e-06
8.96799796e-13
-1.351204988e-12
9.165419441e-06
1.621046154e-12
-1.790831309e-12
9.165420854e-06
3.118116833e-12
-3.770763498e-12
9.165423442e-06
4.351100407e-12
-4.593996199e-12
9.165423168e-06
6.561625143e-12
-7.181776676e-12
9.165427361e-06
1.027633219e-11
-1.308240877e-11
9.165435736e-06
1.951523307e-11
-2.124634429e-11
9.165450237e-06
2.710295945e-11
-3.988370462e-11
9.165483537e-06
5.616356713e-11
-8.556145795e-11
9.165544108e-06
5.983810374e-11
-1.050828481e-10
1.920313449e-10
-4.25692407e-10
9.16541603e-06
5.208206317e-13
-3.871471549e-14
9.165414404e-06
1.304282744e-12
-6.434588903e-13
9.165417717e-06
1.190976877e-12
7.282437445e-13
9.165417754e-06
-2.54162558e-13
-1.68473015e-12
9.165417275e-06
4.400721234e-15
-1.651578452e-12
9.165419517e-06
7.027540483e-13
-1.005465576e-12
9.165421023e-06
1.396406905e-12
-3.059973356e-12
9.165422379e-06
2.677243755e-12
-4.325765385e-12
9.165426951e-06
4.170726853e-12
-6.771983399e-12
9.165436211e-06
7.134607638e-12
-9.287552788e-12
9.165450545e-06
1.15046256e-11
-1.703234562e-11
9.165474855e-06
1.53621329e-11
-2.869801418e-11
9.165520504e-06
3.116442203e-11
-5.819360155e-11
9.165580498e-06
3.25354994e-11
-5.91703892e-11
9.484634901e-11
-1.88984956e-10
9.165410625e-06
-1.87322191e-14
9.165410876e-06
-5.243130766e-13
9.165412533e-06
-1.299604959e-12
9.165414144e-06
-4.021134484e-13
9.165414957e-06
-1.960085945e-12
9.165413949e-06
-1.864427416e-12
9.165418739e-06
-2.092165772e-12
9.165421147e-06
-2.963086265e-12
9.16542787e-06
-5.361329393e-12
9.165436182e-06
-8.914005577e-12
9.165455145e-06
-1.742099928e-11
9.16548088e-06
-2.556764487e-11
9.165535144e-06
-4.691801747e-11
9.16558942e-06
-4.802739338e-11
-1.172717857e-10
9.165414652e-06
-7.705061883e-13
2.629985692e-13
9.165415657e-06
2.98106961e-13
-3.086371479e-13
9.16541446e-06
2.742088219e-13
9.633530109e-13
9.165415821e-06
1.500708942e-12
3.904303796e-13
9.165416455e-06
-7.639120373e-13
-4.487496931e-13
9.165415094e-06
-1.866666883e-12
-2.293689803e-12
9.165415141e-06
-1.87602001e-12
-2.682627521e-12
9.165420474e-06
-3.236318419e-13
-2.037979381e-12
9.165422936e-06
-3.232865243e-12
-4.42582332e-12
9.165429626e-06
-6.461438657e-12
-8.657929572e-12
9.165437942e-06
-1.317831127e-11
-1.575454145e-11
9.165457432e-06
-2.169496244e-11
-2.437859056e-11
9.165506101e-06
-4.725266318e-11
-4.44768744e-11
-5.243454551e-11
-4.731483453e-11
9.165420519e-06
1.323933436e-12
2.168291995e-12
9.165419589e-06
3.237303022e-13
-1.625630188e-13
9.165419868e-06
4.227584627e-13
2.665070659e-13
9.165418047e-06
-8.493523767e-13
-2.698711894e-12
9.16542043e-06
-1.539605744e-12
-8.452957217e-13
9.165421201e-06
-2.162598421e-12
-1.03193824e-12
9.165420398e-06
-3.484465165e-12
-1.046203692e-12
9.165420543e-06
-4.394424397e-12
-3.011591168e-12
9.165422959e-06
-6.62008875e-12
-5.183195754e-12
9.165427288e-06
-1.22875183e-11
-1.127143114e-11
9.165433692e-06
-2.174248802e-11
-1.686782118e-11
9.165450718e-06
-4.067608961e-11
-2.865366901e-11
9.165487647e-06
-8.24756584e-11
-5.773243886e-11
-1.038661431e-10
-6.455947911e-11
9.165406809e-06
1.317720882e-12
1.377499e-12
9.165407913e-06
3.5449298e-13
1.762384557e-12
9.165407291e-06
-7.493187491e-13
-1.225986437e-13
9.16540417e-06
4.632223271e-13
-5.03942459e-13
9.165406559e-06
9.463796209e-13
6.812727358e-13
9.16540586e-06
-6.415639037e-13
-1.150731288e-12
9.165407099e-06
-1.497996468e-12
-1.789373577e-12
9.165402515e-06
-4.841485785e-12
-4.106528295e-12
9.165400216e-06
-7.351674142e-12
-7.255383667e-12
9.165400119e-06
-1.181810408e-11
-1.270578216e-11
9.165393027e-06
-1.916746398e-11
-1.961416228e-11
9.165394163e-06
-3.953861045e-11
-4.125200254e-11
9.165394163e-06
-8.376765242e-11
-8.494445733e-11
9.165445741e-06
-1.325561237e-10
-1.328536994e-10
-7.012907896e-10
9.165427713e-06
1.432565375e-12
2.792893695e-13
9.165426808e-06
1.336282224e-13
3.702717674e-13
9.165428231e-06
6.999709498e-13
8.347647116e-13
9.165426726e-06
3.964656081e-13
7.207875453e-13
9.165425063e-06
-6.164799478e-13
1.046470204e-13
9.165424247e-06
-6.021806533e-13
-9.617592054e-13
9.165423635e-06
-1.210657329e-13
-2.402590213e-12
9.165421256e-06
-1.035031722e-12
-3.867359385e-12
9.165420193e-06
-3.104834059e-12
-5.122085209e-12
9.165411684e-06
-7.973271055e-12
-1.283815102e-11
9.165405347e-06
-1.673247903e-11
-1.320479158e-11
9.165401896e-06
-3.849758509e-11
-5.023526814e-11
9.165385736e-06
-9.579983073e-11
-5.152934627e-11
9.165496396e-06
-1.678765174e-10
-2.117677749e-10
-7.213702889e-10
-1.350659421e-09
9.165392638e-06
-1.298140811e-13
-8.538562657e-13
9.165394477e-06
8.154217615e-13
-1.9520462e-13
9.165395302e-06
-1.962420352e-14
-4.05390248e-13
9.165393853e-06
-2.245775939e-13
-8.915187593e-13
9.165394054e-06
3.397010892e-13
-4.82599314e-13
9.165393591e-06
1.006123111e-12
-4.795248889e-13
9.165389115e-06
2.238773121e-13
-2.473733844e-12
9.165385119e-06
1.712906341e-12
-4.091716307e-12
9.165377078e-06
3.732691392e-12
-5.761639892e-12
9.165358714e-06
8.138162623e-12
-1.626612166e-11
9.165320802e-06
1.608778e-11
-1.762751089e-11
9.165253154e-06
3.822235484e-11
-8.395113374e-11
9.165052183e-06
9.383671312e-11
-1.380814637e-10
9.164973392e-06
1.668756896e-10
-5.93695092e-10
7.211643141e-10
-5.069455688e-09
9.165407226e-06
-5.534636852e-13
2.288020616e-13
9.165407968e-06
2.369309141e-13
1.64262899e-13
9.165408602e-06
-3.915122055e-14
-1.092964492e-12
9.165407467e-06
-4.040747091e-13
-1.79488594e-12
9.165408015e-06
8.861244226e-13
-4.119906356e-13
9.165406983e-06
1.456454498e-12
1.10063207e-12
9.165406427e-06
1.924840077e-12
-1.171262762e-12
9.165403487e-06
3.886361095e-12
-3.580170647e-12
9.165399386e-06
5.509648316e-12
-5.137921609e-12
9.165395256e-06
1.209993726e-11
-1.25269506e-11
9.16538728e-06
1.917400724e-11
-1.215236349e-11
9.165384539e-06
4.083053244e-11
-4.939888016e-11
9.165369091e-06
8.317112228e-11
-5.128463923e-11
9.165479551e-06
1.301135339e-10
-2.107613657e-10
7.019711319e-10
-1.350078385e-09
9.165464203e-06
1.320517353e-12
-4.188381243e-13
9.165464765e-06
-3.795947705e-14
-6.056682284e-13
9.165466076e-06
-6.309839842e-14
-3.105146465e-13
9.165465617e-06
-5.688738987e-13
-9.287304667e-13
9.165464168e-06
-6.303592756e-14
-1.720100293e-12
9.165462293e-06
2.68757585e-12
-2.704724276e-13
9.165463374e-06
3.781849783e-12
-7.917691665e-13
9.165460485e-06
4.262490501e-12
-3.108871639e-12
9.165457196e-06
6.890489581e-12
-6.004036856e-12
9.16545498e-06
1.328042173e-11
-1.109146057e-11
9.16544996e-06
2.214070827e-11
-1.907324041e-11
9.16544702e-06
3.889695376e-11
-4.24313839e-11
9.165448383e-06
8.424060657e-11
-8.324869879e-11
9.165503145e-06
1.044397105e-10
-1.307422742e-10
4.282787852e-10
-7.025871627e-10
9.165415846e-06
6.55600693e-13
1.142467584e-14
9.165417434e-06
1.038032308e-12
1.065029416e-12
9.165417861e-06
2.736365342e-13
1.110485607e-12
9.165418956e-06
1.072666885e-12
2.042169039e-13
9.165419265e-06
2.787232834e-13
-5.121266642e-13
9.165418309e-06
3.372878627e-14
-4.531975571e-13
9.165420766e-06
1.743359124e-12
-2.638216996e-13
9.165420291e-06
3.394724297e-12
-1.864193589e-12
9.165423519e-06
5.811509671e-12
-4.65410573e-12
9.165424548e-06
7.469876082e-12
-9.146090379e-12
9.165429752e-06
1.237873118e-11
-1.609267078e-11
9.165448156e-06
2.087751608e-11
-2.697326375e-11
9.165483215e-06
4.780877643e-11
-5.769377921e-11
9.165542556e-06
5.197281194e-11
-6.575476691e-11
1.933087619e-10
-2.640239868e-10
9.16542616e-06
1.574081226e-12
9.165424288e-06
1.34099402e-12
9.165427491e-06
7.610855222e-13
9.165427922e-06
-7.517642335e-13
9.165429655e-06
-7.427606804e-13
9.165429206e-06
-7.175860897e-14
9.165431013e-06
-1.698719785e-12
9.165431142e-06
-2.154689595e-12
9.165435995e-06
-5.648875247e-12
9.165442997e-06
-9.730802942e-12
9.165453289e-06
-1.547094843e-11
9.165475194e-06
-2.217975263e-11
9.165520628e-06
-4.661602232e-11
9.165570408e-06
-4.952825571e-11
-1.43613013e-10
9.165439021e-06
1.342940948e-12
3.09559874e-13
9.165440773e-06
6.380589589e-13
-8.893539907e-13
9.165438029e-06
-1.255273804e-12
-8.598936488e-13
9.165441793e-06
-1.237735342e-12
-6.939839083e-13
9.165440991e-06
-6.742470392e-13
-1.35676468e-12
9.165440902e-06
-8.777599753e-13
-1.148643073e-12
9.165441596e-06
-2.446541453e-13
-1.590634663e-14
9.165444642e-06
-9.361785197e-13
-1.869319432e-12
9.165444325e-06
-3.997890237e-12
-3.766639093e-12
9.165451182e-06
-8.513926628e-12
-5.110806195e-12
9.165458328e-06
-1.17161344e-11
-1.097773949e-11
9.16548023e-06
-2.522267192e-11
-1.658673124e-11
9.165521072e-06
-4.964840842e-11
-3.762887297e-11
-6.222611076e-11
-4.556336271e-11
9.165366153e-06
4.224289112e-13
-6.749378576e-13
9.165368559e-06
1.356798975e-12
-9.1508599e-13
9.165365736e-06
-4.199678588e-13
1.813579226e-13
9.165368011e-06
1.434402159e-12
4.700434697e-13
9.165366497e-06
-4.77333302e-13
-7.02746055e-13
9.165366202e-06
-1.898351307e-12
-4.536576632e-13
9.165365542e-06
-3.62299987e-12
-1.642214823e-12
9.16536627e-06
-5.845733009e-12
-4.331650359e-12
9.165366279e-06
-8.216730786e-12
-5.37060812e-12
9.165370669e-06
-1.339082119e-11
-7.053746157e-12
9.165371659e-06
-1.980043169e-11
-1.256463334e-11
9.165391947e-06
-4.703994968e-11
-2.169274424e-11
9.165415543e-06
-7.610999862e-11
-5.226923861e-11
-1.40242224e-10
-7.27277635e-11
9.165401972e-06
2.948590598e-13
-5.594357163e-13
9.165398921e-06
-1.232259144e-13
1.282863124e-13
9.165400334e-06
6.09115254e-13
1.547330215e-13
9.165400201e-06
1.155638785e-12
-5.950156396e-14
9.165399568e-06
2.020005631e-13
-6.197483139e-13
9.165398809e-06
-7.280923645e-13
2.211387536e-13
9.165397789e-06
-2.197337707e-12
-8.955676249e-13
9.165394738e-06
-4.310160109e-12
-3.897528056e-12
9.165392658e-06
-5.263579512e-12
-4.67704713e-12
9.165387722e-06
-1.222758786e-11
-1.005354601e-11
9.165379462e-06
-1.37193573e-11
-1.70460591e-11
9.165380162e-06
-4.854514714e-11
-3.813064768e-11
9.165365263e-06
-5.090020894e-11
-9.478449533e-11
-2.127992741e-10
-1.679026795e-10
9.165371282e-06
-8.058618829e-14
-5.18203244e-13
9.165372088e-06
-3.128363159e-13
-1.49899687e-12
9.165373756e-06
-9.035874688e-13
4.593370612e-14
9.165374281e-06
-4.786046168e-13
-4.201944541e-13
9.165371702e-06
-3.783864699e-13
-9.201300486e-13
9.165370982e-06
7.622739937e-14
-1.032927165e-12
9.165370257e-06
-5.238354996e-13
-1.440227091e-12
9.165367253e-06
-1.097775671e-12
-2.618754289e-12
9.165364471e-06
-3.493765607e-12
-4.114846319e-12
9.165356513e-06
-9.68486682e-12
-1.077101352e-11
9.165368216e-06
-1.57417511e-11
-1.643495204e-11
9.165378471e-06
-5.390165292e-11
-5.395746905e-11
9.165482803e-06
-1.044106699e-10
-1.042706589e-10
9.165760703e-06
-3.498796856e-10
-3.498118572e-10
-1.416434289e-09
9.165446657e-06
5.332148481e-13
-1.310004995e-12
9.165446406e-06
5.386028705e-13
-2.318395699e-13
9.1654471e-06
-1.474764484e-13
2.347030961e-13
9.165447248e-06
-1.130151148e-13
3.711103493e-15
9.165445473e-06
7.450982141e-13
-9.461184786e-13
9.165442518e-06
1.435185115e-12
-9.341442754e-13
9.16544042e-06
9.976884703e-13
-1.259816065e-12
9.165433097e-06
2.648667415e-12
-4.151822334e-12
9.165423985e-06
3.977492025e-12
-4.927013609e-12
9.165400434e-06
9.04539424e-12
-1.299508416e-11
9.165371044e-06
1.508383905e-11
-2.365629976e-11
9.165266033e-06
5.439727737e-11
-8.295408726e-11
9.165122771e-06
1.028382403e-10
-2.065220773e-10
9.164746242e-06
3.494993128e-10
-9.173424508e-10
1.416167896e-09
-9.509169488e-09
9.165450883e-06
-8.036695219e-13
-5.60647096e-13
9.165450158e-06
7.486374046e-14
-3.252903203e-13
9.165452882e-06
8.735783512e-13
1.139331988e-12
9.165451796e-06
-2.144642138e-14
-2.598773796e-13
9.165450859e-06
-9.549109828e-13
-1.164191023e-12
9.165446332e-06
1.916427009e-13
-2.323868424e-12
9.165446197e-06
1.468043392e-12
-2.503513728e-13
9.165443313e-06
3.120732678e-12
-2.42389754e-12
9.165438832e-06
4.223600282e-12
-3.966232761e-12
9.165434741e-06
1.357568239e-11
-8.689856523e-12
9.165442387e-06
1.236061932e-11
-1.463824216e-11
9.165450679e-06
4.833174043e-11
-5.414916364e-11
9.165556933e-06
5.183605939e-11
-1.04568585e-10
9.165834123e-06
2.108869012e-10
-3.49038539e-10
1.350664987e-09
-1.416960984e-09
9.165388667e-06
1.563695084e-12
3.830733643e-13
9.1653884e-06
4.52822837e-13
3.440375424e-13
9.165386911e-06
3.370776821e-14
-4.480939612e-14
9.1653865e-06
5.669607491e-13
-1.015065712e-12
9.165387315e-06
5.190838065e-13
-2.513181562e-13
9.165383414e-06
1.119562047e-12
-1.619772983e-12
9.165382065e-06
2.845772226e-12
-8.555387639e-13
9.165381282e-06
5.908010548e-12
-2.683585571e-12
9.165379782e-06
7.360566134e-12
-2.570368456e-12
9.165373504e-06
1.453514667e-11
-7.641519934e-12
9.165365406e-06
2.020630889e-11
-1.515567142e-11
9.165364921e-06
4.74028703e-11
-3.768485395e-11
9.165347636e-06
7.569470728e-11
-9.435646429e-11
9.165458522e-06
1.40287998e-10
-1.673920315e-10
6.958108783e-10
-7.213470096e-10
9.165437483e-06
2.149051629e-12
6.7272176e-14
9.165438565e-06
1.936105322e-12
2.277984852e-12
9.165436151e-06
1.030093571e-13
6.29786719e-13
9.165437293e-06
4.92400643e-13
9.565685202e-13
9.165438831e-06
3.920634754e-13
1.358881292e-12
9.16543668e-06
1.932881647e-13
-6.132307135e-13
9.165436778e-06
1.30468092e-12
-4.382054252e-13
9.165435816e-06
2.957419043e-12
-2.675055821e-12
9.165437511e-06
4.875787256e-12
-4.62600571e-12
9.165437787e-06
6.603500907e-12
-7.088049715e-12
9.165441728e-06
1.237598301e-11
-1.287142246e-11
9.165458736e-06
2.405191147e-11
-2.258102587e-11
9.165484247e-06
4.914003833e-11
-5.270094988e-11
9.165574141e-06
6.047076828e-11
-7.279949784e-11
2.932233405e-10
-2.516687689e-10
9.165402355e-06
-5.6569768e-13
9.165402305e-06
-1.548367107e-13
9.165404205e-06
7.488626963e-13
9.165405195e-06
9.284992534e-13
9.165406253e-06
4.982501371e-13
9.165404906e-06
-2.368849523e-13
9.165407167e-06
-1.14049064e-12
9.165404318e-06
-2.511869589e-12
9.165408601e-06
-4.230938958e-12
9.165412792e-06
-5.686979719e-12
9.165421493e-06
-1.049534058e-11
9.165440993e-06
-1.635392849e-11
9.165481264e-06
-3.730723043e-11
9.165540163e-06
-4.439781168e-11
-1.251396603e-10
9.165408639e-06
5.181002962e-13
7.874829996e-13
9.165411005e-06
5.361077125e-13
4.817265399e-13
9.16540911e-06
5.303133191e-13
-6.628822786e-13
9.165411906e-06
1.239402009e-12
6.350146298e-13
9.165410906e-06
-1.042429178e-12
1.943001544e-13
9.165412772e-06
5.169159316e-13
1.63050297e-12
9.165407688e-06
-1.815667135e-12
-7.482829951e-13
9.16540853e-06
-3.631343013e-12
3.337135387e-13
9.165406697e-06
-5.991343488e-12
2.051790456e-12
9.165408072e-06
-1.127124391e-11
3.243560388e-12
9.165409698e-06
-1.646418829e-11
1.013847207e-11
9.165411972e-06
-3.652228809e-11
1.707024377e-11
9.165428558e-06
-8.577872463e-11
3.602999259e-11
-1.325659662e-10
4.331793566e-11
9.16540225e-06
3.379430894e-13
-4.842909472e-13
9.165405429e-06
2.002404528e-12
5.047169006e-13
9.165402573e-06
-1.911539202e-13
-1.596899432e-12
9.16540326e-06
1.197762817e-12
-7.049039787e-14
9.165405024e-06
3.340964616e-13
7.16324007e-13
9.165401728e-06
-1.559986143e-12
-2.921298467e-15
9.165398725e-06
-3.431768659e-12
-3.914797797e-13
9.165399594e-06
-4.20825731e-12
2.101205113e-12
9.165395534e-06
-7.767024428e-12
2.558238885e-12
9.165392549e-06
-1.754319709e-11
6.621498811e-12
9.165378539e-06
-2.713438319e-11
1.268900613e-11
9.165368303e-06
-7.574828047e-11
2.199279997e-11
9.165323038e-06
-1.502595666e-10
5.295681386e-11
-3.374892595e-10
7.276676046e-11
9.165406835e-06
1.345751975e-12
5.191820771e-14
9.165405821e-06
-5.125682056e-13
-4.395790903e-13
9.165407072e-06
3.280271069e-13
-1.011311683e-12
9.165405734e-06
3.515629364e-13
3.409047135e-13
9.165406227e-06
-1.762448144e-13
8.403937126e-13
9.165405144e-06
-2.121319967e-12
1.560684461e-12
9.165402964e-06
-3.580310452e-12
1.241539517e-13
9.165398477e-06
-4.398373812e-12
5.720806605e-13
9.165389347e-06
-5.074948036e-12
3.390105669e-12
9.16537303e-06
-1.50136507e-11
8.407612106e-12
9.16533074e-06
-1.783935427e-11
1.701182729e-11
9.165264074e-06
-8.257006169e-11
3.793136983e-11
9.165064511e-06
-1.389788235e-10
9.41556597e-11
-5.960351708e-10
1.677410554e-10
9.16540973e-06
-5.113511595e-13
3.020807265e-14
9.165412033e-06
3.134849787e-13
-2.367035661e-13
9.165411178e-06
-3.526379326e-13
7.142258732e-13
9.165411783e-06
-2.977615618e-13
4.970160713e-13
9.165409682e-06
-2.500485507e-13
3.278078593e-13
9.165410251e-06
3.221304576e-13
1.403789401e-12
9.165408779e-06
1.866856768e-13
1.955504259e-12
9.165401672e-06
-2.561761507e-12
2.209166948e-12
9.165391523e-06
-3.776384526e-12
2.671250958e-12
9.165368769e-06
-1.151407772e-11
8.944612224e-12
9.165341891e-06
-2.242832145e-11
1.703865743e-11
9.1652357e-06
-8.352652443e-11
5.477329044e-11
9.165094898e-06
-2.067372378e-10
1.031307495e-10
-9.168922594e-10
3.505179988e-10
9.16542032e-06
1.300554785e-12
-2.133792089e-13
9.16541955e-06
1.437341036e-12
-2.961283996e-13
9.165420579e-06
1.078265872e-12
-5.909622356e-13
9.165417882e-06
-1.470916407e-13
-1.014660974e-12
9.165416427e-06
6.423525119e-13
4.920191443e-13
9.165412828e-06
7.414089363e-13
4.281859411e-14
9.165407724e-06
1.866650184e-12
-9.770638524e-13
9.165398266e-06
2.977437719e-12
1.621462331e-12
9.165379276e-06
4.27697652e-12
2.894211068e-12
9.165329217e-06
1.304711712e-11
1.099001003e-11
9.16523964e-06
2.397782755e-11
2.400769651e-11
9.164911286e-06
8.351462177e-11
8.385408453e-11
9.164088678e-06
2.047786283e-10
2.050277888e-10
9.160424927e-06
9.170710469e-10
9.161537638e-10
9.508842664e-09
9.165437813e-06
2.558820822e-13
2.60200432e-13
9.165436877e-06
2.82211384e-13
-5.148575199e-13
9.165437486e-06
-3.785290239e-13
-3.372583922e-13
9.165436628e-06
-3.168331303e-13
-8.644753265e-13
9.165435695e-06
5.087502839e-13
9.617519045e-14
9.165433192e-06
2.020642834e-12
1.627296711e-12
9.165427314e-06
1.218621647e-12
-5.090080351e-13
9.165421348e-06
4.133794863e-12
2.605314273e-12
9.165412743e-06
7.134711353e-12
3.015572903e-12
9.165388315e-06
1.651049145e-11
9.129807658e-12
9.165360442e-06
1.733422923e-11
1.465063028e-11
9.165254831e-06
8.300518507e-11
5.350936774e-11
9.165114774e-06
1.393347424e-10
1.049916306e-10
9.164736445e-06
5.934727079e-10
3.514056908e-10
5.069035555e-09
9.165414842e-06
1.098934158e-12
1.685620201e-12
9.165414664e-06
1.396774729e-12
5.132842274e-13
9.165413867e-06
1.104991556e-12
1.011894622e-12
9.165415131e-06
2.073888526e-12
9.210168552e-13
9.165416447e-06
2.584303504e-12
3.165801648e-13
9.165413624e-06
2.186846402e-12
3.925203273e-13
9.165409865e-06
3.233449706e-12
5.536600501e-13
9.16540486e-06
4.720928309e-12
1.875136625e-12
9.165394984e-06
5.408477096e-12
1.869698946e-12
9.165377349e-06
1.64473128e-11
7.238402334e-12
9.165336872e-06
2.59493626e-11
1.641101757e-11
9.165270524e-06
7.605152661e-11
3.811022361e-11