/*--------------------------------*- C++ -*----------------------------------*\
| =========                 |                                                 |
| \\      /  F ield         | OpenFOAM: The Open Source CFD Toolbox           |
|  \\    /   O peration     | Version:  4.x                                   |
|   \\  /    A nd           | Web:      www.OpenFOAM.org                      |
|    \\/     M anipulation  |                                                 |
\*---------------------------------------------------------------------------*/
FoamFile
{
    version     2.0;
    format      ascii;
    class       volScalarField;
    location    "4000";
    object      rhoeps;
}
// * * * * * * * * * * * * * * * * * * * * * * * * * * * * * * * * * * * * * //

dimensions      [1 -3 0 0 0 0 0];

internalField   nonuniform List<scalar> 
1175
(
0.2699627403
0.2699627522
0.2699627736
0.2699627532
0.2699627521
0.2699627483
0.2699627584
0.2699627612
0.2699627716
0.2699627616
0.2699627856
0.2699628054
0.2699628249
0.2699628885
0.269963036
0.2699630128
0.2699629835
0.2699629763
0.2699629748
0.2699629767
0.2699629719
0.2699629664
0.2699630104
0.2699630534
0.2699630568
0.2699630466
0.269963086
0.2699631638
0.2699632782
0.269963542
0.2699632315
0.2699632145
0.2699632139
0.2699632331
0.2699632474
0.2699632622
0.2699632696
0.2699632673
0.2699632625
0.2699632856
0.2699633252
0.2699633568
0.2699634762
0.2699637408
0.2699642656
0.2699631614
0.2699631481
0.269963153
0.269963172
0.2699631957
0.2699631673
0.2699631794
0.2699631539
0.2699631584
0.269963174
0.2699632064
0.2699632738
0.2699634429
0.2699639081
0.2699648167
0.2699633675
0.2699633797
0.2699633756
0.2699633741
0.2699633568
0.2699633541
0.2699633484
0.2699633484
0.2699633927
0.2699633774
0.269963446
0.2699635455
0.2699637609
0.2699643642
0.2699655773
0.2699626982
0.2699626875
0.2699626884
0.2699626673
0.269962668
0.2699626558
0.2699626924
0.2699626645
0.2699626925
0.2699626922
0.2699627401
0.2699628115
0.269963045
0.2699635194
0.2699644131
0.2699639454
0.2699639442
0.2699639459
0.269963929
0.2699639179
0.2699639283
0.2699639391
0.2699639612
0.2699639278
0.269963897
0.269963931
0.2699639729
0.2699640628
0.2699643606
0.2699648759
0.2699632422
0.2699632264
0.2699632392
0.2699632121
0.2699632407
0.2699632347
0.2699632309
0.269963204
0.2699632368
0.269963265
0.2699632802
0.269963299
0.2699633279
0.2699634567
0.2699637577
0.269962666
0.2699626705
0.2699626727
0.2699626878
0.2699626932
0.2699626716
0.269962656
0.2699626636
0.2699626343
0.2699626853
0.2699626834
0.2699626785
0.2699627505
0.2699628354
0.2699629988
0.2699633292
0.269963321
0.2699633262
0.2699633427
0.2699633485
0.2699633661
0.2699633081
0.2699633122
0.2699632924
0.2699633165
0.2699633268
0.2699633414
0.2699633955
0.2699635569
0.2699628244
0.2699628814
0.2699628775
0.2699628627
0.2699628693
0.2699629063
0.2699629127
0.2699629136
0.269962986
0.269962938
0.2699629781
0.2699630133
0.2699631332
0.2699634217
0.2699639331
0.2699630376
0.2699630337
0.2699629797
0.2699629976
0.2699629521
0.2699629451
0.2699629302
0.2699629832
0.2699629898
0.269962997
0.2699630066
0.2699631298
0.2699633741
0.2699640217
0.2699651843
0.2699635177
0.2699635378
0.2699635288
0.2699634849
0.2699635322
0.2699635332
0.2699635361
0.2699635425
0.2699635032
0.2699634779
0.2699635469
0.269963726
0.2699642391
0.2699654753
0.2699679275
0.2699618178
0.2699617664
0.2699617943
0.2699617885
0.2699618198
0.2699618474
0.2699618887
0.2699618519
0.2699618519
0.2699618961
0.2699619404
0.2699621061
0.2699627867
0.2699646452
0.269968578
0.2699624606
0.2699624563
0.2699624579
0.2699624585
0.2699624597
0.2699624736
0.2699624889
0.2699624894
0.2699624958
0.2699624654
0.2699625175
0.2699627326
0.2699632331
0.2699644709
0.2699669756
0.2699632432
0.2699632532
0.2699632601
0.2699632652
0.2699632473
0.2699632618
0.2699632275
0.2699632056
0.2699632301
0.2699632868
0.2699633004
0.2699634094
0.2699636532
0.2699642986
0.2699655145
0.2699631769
0.2699631771
0.2699631532
0.2699631627
0.2699631964
0.2699631881
0.2699631343
0.269963138
0.2699631517
0.2699631414
0.2699631907
0.2699632339
0.269963364
0.2699636308
0.2699641328
0.269963026
0.2699630377
0.2699630279
0.2699630295
0.2699630136
0.2699630014
0.269963025
0.2699630311
0.2699630398
0.2699630419
0.2699630595
0.2699631082
0.2699631747
0.26996333
0.2699636182
0.2699630991
0.2699630884
0.2699631013
0.2699631064
0.2699630997
0.2699630852
0.2699630935
0.2699630705
0.2699630723
0.2699630588
0.2699630947
0.2699630876
0.2699631916
0.2699633993
0.2699632392
0.2699632306
0.2699632321
0.2699632352
0.2699632596
0.2699632576
0.2699632814
0.2699632554
0.2699632483
0.2699632873
0.2699633189
0.2699634601
0.2699636799
0.2699643033
0.2699628281
0.2699628199
0.2699628584
0.2699628454
0.2699628408
0.2699628192
0.2699628142
0.2699628317
0.2699628775
0.269962899
0.2699629873
0.2699631929
0.2699638589
0.269965497
0.2699688387
0.2699634948
0.2699635096
0.2699634902
0.2699634498
0.2699634595
0.2699634236
0.2699634292
0.2699634062
0.2699634116
0.2699634454
0.2699635717
0.2699639728
0.2699653887
0.2699693991
0.2699781276
0.2699624951
0.2699625046
0.269962545
0.2699625562
0.2699625684
0.2699625392
0.2699625229
0.2699625207
0.2699625425
0.2699625861
0.2699627437
0.2699633376
0.2699656082
0.2699729904
0.2699910028
0.2699628845
0.269962859
0.2699628967
0.2699629066
0.269962921
0.2699629478
0.269962964
0.2699629544
0.2699629623
0.2699629475
0.2699630878
0.2699635249
0.2699649305
0.2699689148
0.2699776096
0.2699645968
0.2699645867
0.2699645726
0.2699645888
0.2699645997
0.2699645974
0.2699645668
0.269964548
0.269964555
0.2699645614
0.2699645965
0.2699648149
0.2699654474
0.2699670941
0.2699703952
0.2699631502
0.2699631898
0.2699631859
0.2699631997
0.2699631894
0.2699632438
0.2699632158
0.2699631909
0.2699632475
0.269963274
0.269963275
0.2699633315
0.2699635701
0.269964202
0.2699654025
0.2699634427
0.2699634609
0.2699634395
0.2699634406
0.2699634551
0.269963481
0.2699634934
0.2699634819
0.2699634659
0.2699634999
0.2699635173
0.2699635901
0.2699636909
0.2699639429
0.2699644635
0.2699638388
0.269963825
0.2699638506
0.2699638184
0.2699638392
0.2699638369
0.2699638344
0.2699638521
0.2699638511
0.2699638775
0.2699639041
0.2699640158
0.2699642424
0.2699646668
0.2699617174
0.2699616875
0.2699616639
0.2699616758
0.2699616812
0.2699617066
0.2699617249
0.2699617154
0.2699617089
0.2699617472
0.2699617946
0.2699619563
0.2699624303
0.2699637002
0.2699627067
0.2699626843
0.2699626781
0.2699626807
0.2699626818
0.2699626657
0.2699626939
0.2699626982
0.2699627171
0.2699627664
0.2699628728
0.2699632977
0.2699647243
0.2699687194
0.2699618255
0.2699618389
0.2699618964
0.2699618764
0.2699619318
0.2699618796
0.2699618927
0.2699619357
0.2699619177
0.269961982
0.2699622413
0.2699632029
0.2699668884
0.2699795409
0.2700113015
0.2699640374
0.2699640212
0.2699640362
0.2699640267
0.2699640548
0.2699641121
0.2699640847
0.2699640592
0.2699640393
0.2699641489
0.2699644729
0.2699659947
0.2699732201
0.2700039767
0.2701107817
0.2699641713
0.2699642
0.2699641688
0.2699641695
0.2699642192
0.2699642039
0.2699641831
0.2699641958
0.2699641889
0.269964198
0.2699644487
0.2699654013
0.2699691343
0.2699817526
0.2700134752
0.2699622869
0.2699623219
0.2699623069
0.2699623093
0.2699622394
0.269962232
0.2699622515
0.269962286
0.2699623118
0.2699623452
0.2699624608
0.2699628774
0.2699642789
0.2699683009
0.2699770033
0.2699637802
0.269963805
0.2699637922
0.2699637786
0.2699637862
0.2699638005
0.2699637808
0.2699637949
0.2699637537
0.2699637643
0.2699638403
0.2699639722
0.2699644472
0.2699656586
0.2699681195
0.2699628107
0.2699628095
0.2699628006
0.2699628078
0.2699627958
0.2699627584
0.2699627676
0.2699627828
0.2699627774
0.2699627891
0.2699628307
0.2699628668
0.2699630445
0.2699635449
0.2699644415
0.2699629616
0.2699629584
0.2699629635
0.2699629414
0.2699629348
0.2699629409
0.2699629159
0.2699629266
0.2699629487
0.2699629702
0.2699629804
0.269963076
0.2699633295
0.2699639548
0.2699627515
0.2699627683
0.2699627603
0.2699627622
0.2699627889
0.2699627861
0.2699627903
0.2699627673
0.2699627888
0.2699628011
0.269962865
0.2699630919
0.2699637875
0.2699656
0.2699628647
0.2699628319
0.269962843
0.269962843
0.269962868
0.2699628844
0.2699628912
0.2699629206
0.269962948
0.2699629652
0.2699631361
0.2699637671
0.2699660099
0.2699733675
0.269962952
0.2699629732
0.2699629796
0.2699630244
0.2699630297
0.2699630587
0.2699630668
0.2699630608
0.2699630758
0.2699631926
0.2699635842
0.2699651601
0.2699723424
0.2700030836
0.2699632796
0.2699632766
0.2699632607
0.2699632476
0.2699632256
0.2699632189
0.269963241
0.2699632199
0.2699632341
0.2699633673
0.2699639633
0.2699669319
0.2699847162
0.2700979996
0.2714058707
0.2699637903
0.2699637949
0.2699637728
0.2699638096
0.2699638092
0.2699637907
0.2699637668
0.2699637698
0.2699637642
0.2699638551
0.2699641478
0.2699657265
0.2699729181
0.2700036756
0.2701104506
0.2699630859
0.269963081
0.2699630951
0.2699631188
0.2699630913
0.2699631342
0.2699631615
0.2699631558
0.2699631321
0.2699631322
0.2699632712
0.2699638847
0.2699661637
0.2699735403
0.2699915435
0.2699638789
0.2699638872
0.2699638675
0.2699638783
0.2699638837
0.2699638205
0.2699637748
0.2699637386
0.269963736
0.2699637542
0.2699638263
0.2699640228
0.2699646799
0.2699665589
0.2699704573
0.2699629562
0.2699629512
0.2699629923
0.2699630079
0.2699629912
0.2699629844
0.2699629787
0.269962973
0.2699629865
0.2699629741
0.2699629997
0.2699630985
0.2699633784
0.2699639694
0.2699651716
0.2699623272
0.2699623361
0.269962367
0.2699623593
0.2699623458
0.2699623249
0.2699623516
0.2699623324
0.2699623694
0.2699623621
0.2699623736
0.2699624478
0.2699626455
0.2699630887
0.2699638703
0.2699638462
0.2699638339
0.2699638257
0.2699638039
0.2699637546
0.269963711
0.2699637399
0.2699637403
0.2699638086
0.2699638512
0.2699640143
0.2699644951
0.2699657121
0.269963394
0.2699634036
0.2699633777
0.269963398
0.2699633976
0.2699633956
0.2699633829
0.2699633832
0.2699634058
0.2699634221
0.2699635474
0.26996402
0.2699654127
0.2699694223
0.2699625912
0.2699625754
0.2699626334
0.2699626158
0.269962638
0.2699626445
0.269962638
0.2699626198
0.2699626478
0.2699627191
0.2699629536
0.2699638987
0.2699675822
0.2699801702
0.2699629096
0.2699629079
0.2699629131
0.2699629111
0.2699629457
0.2699629271
0.2699629215
0.2699629198
0.2699629604
0.2699630547
0.2699634039
0.2699649833
0.26997216
0.2700028801
0.2699618687
0.2699618496
0.2699618325
0.269961839
0.269961807
0.2699618058
0.2699618177
0.2699618143
0.2699618536
0.2699619007
0.2699621257
0.2699630801
0.2699667962
0.2699793905
0.2699627609
0.2699627502
0.2699627464
0.2699627117
0.2699626485
0.2699626596
0.2699626509
0.2699626578
0.2699626976
0.2699627167
0.269962817
0.2699632272
0.2699646523
0.2699686887
0.2699773715
0.2699629624
0.2699629929
0.2699629546
0.2699630041
0.2699629699
0.2699629744
0.2699629684
0.2699629897
0.269963001
0.269962966
0.269962977
0.2699631547
0.2699636241
0.2699648701
0.2699673807
0.2699632928
0.2699633058
0.2699633327
0.269963334
0.2699633331
0.2699633224
0.2699633102
0.2699632819
0.2699632723
0.2699633253
0.2699633288
0.269963406
0.2699636105
0.2699640923
0.2699649973
0.2699638306
0.2699638344
0.2699638427
0.2699638176
0.2699638616
0.2699638543
0.2699638468
0.2699638451
0.269963837
0.2699638603
0.2699638558
0.2699639179
0.2699640252
0.269964277
0.2699624915
0.2699624946
0.2699625035
0.2699625274
0.2699625307
0.2699625587
0.2699625803
0.2699625994
0.2699626379
0.2699626287
0.269962654
0.2699626989
0.2699629794
0.2699636531
0.2699645808
0.2699645737
0.2699646329
0.2699646339
0.2699645816
0.2699645878
0.2699646101
0.2699645669
0.2699645226
0.2699645604
0.269964598
0.2699648187
0.2699654322
0.2699670442
0.2699626765
0.2699626862
0.2699626811
0.2699626375
0.2699626559
0.2699626423
0.2699626483
0.2699626671
0.2699626998
0.269962706
0.2699628251
0.2699632278
0.2699646056
0.2699686587
0.269962049
0.2699621007
0.2699620622
0.2699620549
0.269962061
0.2699621038
0.2699620938
0.269962066
0.2699620473
0.2699620852
0.2699622685
0.269962864
0.2699651116
0.2699724525
0.2699635055
0.2699634908
0.2699635024
0.2699635201
0.2699634955
0.2699634834
0.2699634826
0.2699634974
0.2699635258
0.2699635462
0.2699636482
0.2699640834
0.269965513
0.2699695618
0.2699630775
0.2699631043
0.269963111
0.2699631016
0.269963131
0.2699631196
0.2699631562
0.269963166
0.2699631736
0.2699631669
0.2699632079
0.2699634086
0.2699640867
0.2699657312
0.2699626382
0.2699625996
0.2699625628
0.2699625685
0.2699626115
0.2699626295
0.2699626146
0.2699625978
0.2699626378
0.2699626651
0.2699627178
0.2699628138
0.2699630393
0.2699636516
0.2699648049
0.2699629447
0.2699629449
0.2699629192
0.2699629197
0.2699629551
0.2699629447
0.2699629556
0.269962977
0.2699629596
0.2699629614
0.2699629935
0.2699630139
0.26996315
0.2699634156
0.2699639385
0.2699635349
0.2699635341
0.269963518
0.2699635333
0.269963515
0.2699635032
0.2699635393
0.2699635522
0.2699635719
0.2699635288
0.2699635431
0.2699635798
0.2699636659
0.2699638174
0.2699636503
0.2699636622
0.2699636764
0.2699637046
0.2699637074
0.2699637356
0.2699637224
0.2699637074
0.2699637044
0.2699636852
0.2699636968
0.2699637322
0.2699638561
0.269964131
0.2699620916
0.2699620969
0.2699620732
0.2699620819
0.2699620807
0.2699620516
0.2699620477
0.2699620295
0.2699620077
0.2699620312
0.2699620706
0.269962158
0.2699624339
0.2699630095
0.2699626659
0.2699626403
0.2699626343
0.2699626493
0.2699626508
0.269962642
0.2699626169
0.2699626433
0.2699625947
0.2699625771
0.2699626241
0.2699628392
0.2699633026
0.2699644946
0.2699628214
0.2699628247
0.2699627845
0.2699628012
0.2699627388
0.2699627476
0.2699627696
0.269962776
0.2699627215
0.269962789
0.2699628598
0.269963071
0.269963717
0.2699655934
0.2699627162
0.269962681
0.269962629
0.2699626105
0.2699626409
0.269962644
0.2699626138
0.2699626177
0.2699626884
0.2699626768
0.2699627604
0.2699629151
0.2699633766
0.2699646145
0.2699641411
0.269964134
0.2699641363
0.2699641831
0.2699642185
0.2699641842
0.2699642085
0.2699642067
0.2699642135
0.2699641855
0.269964187
0.2699643004
0.2699645178
0.269965079
0.2699637049
0.2699637114
0.2699637137
0.2699637211
0.2699637464
0.2699637556
0.2699637356
0.2699637171
0.2699637086
0.2699637324
0.2699637201
0.2699637502
0.2699638772
0.2699641687
0.2699633002
0.2699633206
0.26996335
0.2699633719
0.2699633958
0.2699633697
0.2699633886
0.2699633877
0.2699633984
0.2699633937
0.2699633833
0.2699633987
0.2699634673
0.269963586
0.2699638416
0.2699636748
0.2699636916
0.2699637056
0.2699636866
0.2699636872
0.2699637232
0.2699637112
0.2699637175
0.2699637032
0.2699637066
0.2699636954
0.2699637094
0.269963738
0.2699638468
0.2699626696
0.2699626765
0.2699626972
0.2699626905
0.2699627088
0.2699627432
0.2699627388
0.2699627558
0.2699627618
0.2699627578
0.2699627654
0.26996281
0.2699628777
0.2699630328
0.269962624
0.2699626398
0.2699626576
0.2699626452
0.2699626641
0.2699626507
0.2699625874
0.2699626138
0.2699626183
0.2699625774
0.2699626113
0.2699626709
0.269962789
0.2699630523
0.2699626478
0.2699626355
0.2699626327
0.2699626364
0.2699625772
0.2699625638
0.2699625944
0.2699625866
0.2699626171
0.2699626616
0.2699626792
0.269962751
0.2699629202
0.2699633609
0.2699635046
0.2699635423
0.2699635414
0.2699635113
0.2699634852
0.2699634597
0.269963434
0.2699634302
0.2699634444
0.2699634329
0.2699634713
0.2699635657
0.2699638126
0.269964447
0.2699635527
0.2699635855
0.269963602
0.2699636103
0.2699636187
0.2699636142
0.2699636556
0.2699636602
0.269963645
0.2699636658
0.2699636695
0.2699637509
0.2699639521
0.2699643737
0.2699643131
0.2699643139
0.269964308
0.2699643168
0.2699643022
0.2699642909
0.2699642984
0.2699643079
0.2699642875
0.2699642935
0.2699643042
0.2699643107
0.2699644655
0.269964749
0.2699630226
0.2699630395
0.2699630371
0.2699630223
0.2699630395
0.2699630384
0.2699630591
0.2699630443
0.2699630582
0.2699630731
0.269963125
0.2699631522
0.2699631945
0.2699633446
0.2699627585
0.2699627764
0.269962784
0.2699627765
0.2699627915
0.2699628031
0.2699628187
0.2699627969
0.2699628158
0.269962804
0.2699628063
0.2699628263
0.269962878
0.2699629585
)
;

boundaryField
{
    top
    {
        type            calculated;
        value           nonuniform List<scalar> 
134
(
0.269962666
0.269963026
0.2699634427
0.2699628107
0.2699629562
0.2699632928
0.2699629447
0.2699633002
0.2699627585
0.2699626705
0.2699630377
0.2699634609
0.2699628095
0.2699629512
0.2699633058
0.2699629449
0.2699633206
0.2699627764
0.2699626727
0.2699630279
0.2699634395
0.2699628006
0.2699629923
0.2699633327
0.2699629192
0.26996335
0.269962784
0.2699626878
0.2699630295
0.2699634406
0.2699628078
0.2699630079
0.269963334
0.2699629197
0.2699633719
0.2699627765
0.2699626932
0.2699630136
0.2699634551
0.2699627958
0.2699629912
0.2699633331
0.2699629551
0.2699633958
0.2699627915
0.2699626716
0.2699630014
0.269963481
0.2699627584
0.2699629844
0.2699633224
0.2699629447
0.2699633697
0.2699628031
0.269962656
0.269963025
0.2699634934
0.2699627676
0.2699629787
0.2699633102
0.2699629556
0.2699633886
0.2699628187
0.2699626636
0.2699630311
0.2699634819
0.2699627828
0.269962973
0.2699632819
0.269962977
0.2699633877
0.2699627969
0.2699626343
0.2699630398
0.2699634659
0.2699627774
0.2699629865
0.2699632723
0.2699629596
0.2699633984
0.2699628158
0.2699626853
0.2699630419
0.2699634999
0.2699627891
0.2699629741
0.2699633253
0.2699629614
0.2699633937
0.269962804
0.2699626834
0.2699630595
0.2699635173
0.2699628307
0.2699629997
0.2699633288
0.2699629935
0.2699633833
0.2699628063
0.2699626785
0.2699631082
0.2699635901
0.2699628668
0.2699630985
0.269963406
0.2699630139
0.2699633987
0.2699628263
0.2699627505
0.2699631747
0.2699636909
0.2699630445
0.2699633784
0.2699636105
0.26996315
0.2699634673
0.269962878
0.2699628354
0.26996333
0.2699639429
0.2699635449
0.2699639694
0.2699640923
0.2699634156
0.269963586
0.2699629585
0.2699629988
0.2699636182
0.2699644635
0.2699644415
0.2699651716
0.2699649973
0.2699639385
0.2699638416
)
;
    }
    bottom
    {
        type            calculated;
        value           nonuniform List<scalar> 
127
(
0.2699627403
0.2699633292
0.2699630991
0.2699638388
0.2699629616
0.2699623272
0.2699638306
0.2699635349
0.2699636748
0.2699627522
0.269963321
0.2699630884
0.269963825
0.2699629584
0.2699623361
0.2699638344
0.2699635341
0.2699636916
0.2699627736
0.2699633262
0.2699631013
0.2699638506
0.2699629635
0.269962367
0.2699638427
0.269963518
0.2699637056
0.2699627532
0.2699633427
0.2699631064
0.2699638184
0.2699629414
0.2699623593
0.2699638176
0.2699635333
0.2699636866
0.2699627521
0.2699633485
0.2699630997
0.2699638392
0.2699629348
0.2699623458
0.2699638616
0.269963515
0.2699636872
0.2699627483
0.2699633661
0.2699630852
0.2699638369
0.2699629409
0.2699623249
0.2699638543
0.2699635032
0.2699637232
0.2699627584
0.2699633081
0.2699630935
0.2699638344
0.2699629159
0.2699623516
0.2699638468
0.2699635393
0.2699637112
0.2699627612
0.2699633122
0.2699630705
0.2699638521
0.2699629266
0.2699623324
0.2699638451
0.2699635522
0.2699637175
0.2699627716
0.2699632924
0.2699630723
0.2699638511
0.2699629487
0.2699623694
0.269963837
0.2699635719
0.2699637032
0.2699627616
0.2699633165
0.2699630588
0.2699638775
0.2699629702
0.2699623621
0.2699638603
0.2699635288
0.2699637066
0.2699627856
0.2699633268
0.2699630947
0.2699639041
0.2699629804
0.2699623736
0.2699638558
0.2699635431
0.2699636954
0.2699628054
0.2699633414
0.2699630876
0.2699640158
0.269963076
0.2699624478
0.2699639179
0.2699635798
0.2699637094
0.2699628249
0.2699633955
0.2699631916
0.2699642424
0.2699633295
0.2699626455
0.2699640252
0.2699636659
0.269963738
0.2699628885
0.2699635569
0.2699633993
0.2699646668
0.2699639548
0.2699630887
0.269964277
0.2699638174
0.2699638468
0.269963036
)
;
    }
    side-walls
    {
        type            calculated;
        value           nonuniform List<scalar> 
261
(
0.2699627403
0.2699630128
0.2699632315
0.2699631614
0.2699633675
0.2699626982
0.2699639454
0.2699632422
0.269962666
0.2699627522
0.2699629835
0.2699632145
0.2699631481
0.2699633797
0.2699626875
0.2699639442
0.2699632264
0.2699626705
0.2699627736
0.2699629763
0.2699632139
0.269963153
0.2699633756
0.2699626884
0.2699639459
0.2699632392
0.2699626727
0.2699627532
0.2699629748
0.2699632331
0.269963172
0.2699633741
0.2699626673
0.269963929
0.2699632121
0.2699626878
0.2699627521
0.2699629767
0.2699632474
0.2699631957
0.2699633568
0.269962668
0.2699639179
0.2699632407
0.2699626932
0.2699627483
0.2699629719
0.2699632622
0.2699631673
0.2699633541
0.2699626558
0.2699639283
0.2699632347
0.2699626716
0.2699627584
0.2699629664
0.2699632696
0.2699631794
0.2699633484
0.2699626924
0.2699639391
0.2699632309
0.269962656
0.2699627612
0.2699630104
0.2699632673
0.2699631539
0.2699633484
0.2699626645
0.2699639612
0.269963204
0.2699626636
0.2699627716
0.2699630534
0.2699632625
0.2699631584
0.2699633927
0.2699626925
0.2699639278
0.2699632368
0.2699626343
0.2699627616
0.2699630568
0.2699632856
0.269963174
0.2699633774
0.2699626922
0.269963897
0.269963265
0.2699626853
0.2699627856
0.2699630466
0.2699633252
0.2699632064
0.269963446
0.2699627401
0.269963931
0.2699632802
0.2699626834
0.2699628054
0.269963086
0.2699633568
0.2699632738
0.2699635455
0.2699628115
0.2699639729
0.269963299
0.2699626785
0.2699628249
0.2699631638
0.2699634762
0.2699634429
0.2699637609
0.269963045
0.2699640628
0.2699633279
0.2699627505
0.2699628885
0.2699632782
0.2699637408
0.2699639081
0.2699643642
0.2699635194
0.2699643606
0.2699634567
0.2699628354
0.269963036
0.269963542
0.2699642656
0.2699648167
0.2699655773
0.2699644131
0.2699648759
0.2699637577
0.2699629988
0.2699636748
0.2699626696
0.269962624
0.2699626478
0.2699635046
0.2699635527
0.2699643131
0.2699630226
0.2699627585
0.2699636916
0.2699626765
0.2699626398
0.2699626355
0.2699635423
0.2699635855
0.2699643139
0.2699630395
0.2699627764
0.2699637056
0.2699626972
0.2699626576
0.2699626327
0.2699635414
0.269963602
0.269964308
0.2699630371
0.269962784
0.2699636866
0.2699626905
0.2699626452
0.2699626364
0.2699635113
0.2699636103
0.2699643168
0.2699630223
0.2699627765
0.2699636872
0.2699627088
0.2699626641
0.2699625772
0.2699634852
0.2699636187
0.2699643022
0.2699630395
0.2699627915
0.2699637232
0.2699627432
0.2699626507
0.2699625638
0.2699634597
0.2699636142
0.2699642909
0.2699630384
0.2699628031
0.2699637112
0.2699627388
0.2699625874
0.2699625944
0.269963434
0.2699636556
0.2699642984
0.2699630591
0.2699628187
0.2699637175
0.2699627558
0.2699626138
0.2699625866
0.2699634302
0.2699636602
0.2699643079
0.2699630443
0.2699627969
0.2699637032
0.2699627618
0.2699626183
0.2699626171
0.2699634444
0.269963645
0.2699642875
0.2699630582
0.2699628158
0.2699637066
0.2699627578
0.2699625774
0.2699626616
0.2699634329
0.2699636658
0.2699642935
0.2699630731
0.269962804
0.2699636954
0.2699627654
0.2699626113
0.2699626792
0.2699634713
0.2699636695
0.2699643042
0.269963125
0.2699628063
0.2699637094
0.26996281
0.2699626709
0.269962751
0.2699635657
0.2699637509
0.2699643107
0.2699631522
0.2699628263
0.269963738
0.2699628777
0.269962789
0.2699629202
0.2699638126
0.2699639521
0.2699644655
0.2699631945
0.269962878
0.2699638468
0.2699630328
0.2699630523
0.2699633609
0.269964447
0.2699643737
0.269964749
0.2699633446
0.2699629585
)
;
    }
    inlet
    {
        type            calculated;
        value           nonuniform List<scalar> 
81
(
0.2699627403
0.2699630128
0.2699632315
0.2699631614
0.2699633675
0.2699626982
0.2699639454
0.2699632422
0.269962666
0.2699633292
0.2699628244
0.2699630376
0.2699635177
0.2699618178
0.2699624606
0.2699632432
0.2699631769
0.269963026
0.2699630991
0.2699632392
0.2699628281
0.2699634948
0.2699624951
0.2699628845
0.2699645968
0.2699631502
0.2699634427
0.2699638388
0.2699617174
0.2699627067
0.2699618255
0.2699640374
0.2699641713
0.2699622869
0.2699637802
0.2699628107
0.2699629616
0.2699627515
0.2699628647
0.269962952
0.2699632796
0.2699637903
0.2699630859
0.2699638789
0.2699629562
0.2699623272
0.2699638703
0.269963394
0.2699625912
0.2699629096
0.2699618687
0.2699627609
0.2699629624
0.2699632928
0.2699638306
0.2699624915
0.2699645808
0.2699626765
0.269962049
0.2699635055
0.2699630775
0.2699626382
0.2699629447
0.2699635349
0.2699636503
0.2699620916
0.2699626659
0.2699628214
0.2699627162
0.2699641411
0.2699637049
0.2699633002
0.2699636748
0.2699626696
0.269962624
0.2699626478
0.2699635046
0.2699635527
0.2699643131
0.2699630226
0.2699627585
)
;
    }
    outlet
    {
        type            calculated;
        value           nonuniform 0();
    }
    procBoundary0to1
    {
        type            processor;
        value           nonuniform List<scalar> 
97
(
0.2699633358
0.2699638264
0.2699640257
0.2699651288
0.2699662212
0.2699672927
0.2699658316
0.2699657391
0.2699642067
0.2699633023
0.2699638264
0.2699638264
0.2699647472
0.2699654729
0.2699670063
0.2699713271
0.2699730857
0.2699702887
0.2699673508
0.2699649882
0.2699640467
0.269963927
0.2699654729
0.2699654729
0.2699732031
0.2699774135
0.2699874142
0.2700041602
0.269986915
0.2699747073
0.2699672308
0.2699652541
0.2699655953
0.2699661467
0.2699774135
0.2699774135
0.270032299
0.2701099249
0.2701256743
0.2700344781
0.2699863012
0.2699714456
0.2699658394
0.2699651409
0.2699695053
0.2699913538
0.2701099249
0.2701099249
0.2723118768
0.2701096527
0.270125368
0.270011138
0.2700047465
0.2699749724
0.2699669024
0.2699640048
0.2699681847
0.2699781147
0.2700119526
0.2701096527
0.270011138
0.270011138
0.2699866617
0.269969084
0.2699707305
0.2699663979
0.2699647905
0.2699648284
0.2699703938
0.2699773532
0.2699904176
0.2699782754
0.269969084
0.269969084
0.2699666309
0.2699647053
0.2699647741
0.269964094
0.2699646558
0.269964189
0.2699670099
0.2699694723
0.2699670439
0.2699663224
0.2699647053
0.2699647053
0.269964296
0.2699631337
0.2699639862
0.2699633241
0.26996357
0.2699642527
0.2699656414
0.2699652623
0.2699652947
0.2699636542
0.2699631337
)
;
    }
}


// ************************************************************************* //
