/*--------------------------------*- C++ -*----------------------------------*\
| =========                 |                                                 |
| \\      /  F ield         | OpenFOAM: The Open Source CFD Toolbox           |
|  \\    /   O peration     | Version:  4.x                                   |
|   \\  /    A nd           | Web:      www.OpenFOAM.org                      |
|    \\/     M anipulation  |                                                 |
\*---------------------------------------------------------------------------*/
FoamFile
{
    version     2.0;
    format      ascii;
    class       volScalarField;
    location    "4000";
    object      T;
}
// * * * * * * * * * * * * * * * * * * * * * * * * * * * * * * * * * * * * * //

dimensions      [0 0 0 1 0 0 0];

internalField   nonuniform List<scalar> 
1175
(
1223.151851
1223.151797
1223.1517
1223.151793
1223.151798
1223.151815
1223.15177
1223.151759
1223.151715
1223.151773
1223.151699
1223.151699
1223.151826
1223.152008
1223.152252
1223.150616
1223.150749
1223.150782
1223.150789
1223.15078
1223.150802
1223.150828
1223.15063
1223.150441
1223.150444
1223.150543
1223.15051
1223.150517
1223.150797
1223.151153
1223.149625
1223.149703
1223.149705
1223.149619
1223.149554
1223.149487
1223.149454
1223.149467
1223.149498
1223.149424
1223.149335
1223.14945
1223.14958
1223.149914
1223.150517
1223.149943
1223.150003
1223.149981
1223.149895
1223.149788
1223.149917
1223.149863
1223.149982
1223.149975
1223.149948
1223.149939
1223.150045
1223.150389
1223.150907
1223.151932
1223.14901
1223.148954
1223.148973
1223.14898
1223.149058
1223.149071
1223.149097
1223.149102
1223.148916
1223.149036
1223.14889
1223.148944
1223.149374
1223.150071
1223.151373
1223.152042
1223.152091
1223.152086
1223.152182
1223.152179
1223.152234
1223.152069
1223.1522
1223.152086
1223.152131
1223.152052
1223.15214
1223.152192
1223.152668
1223.153761
1223.146391
1223.146396
1223.146389
1223.146465
1223.146516
1223.146469
1223.146421
1223.146323
1223.146484
1223.146653
1223.14659
1223.146659
1223.146922
1223.147105
1223.147752
1223.149577
1223.149649
1223.149591
1223.149713
1223.149584
1223.149611
1223.149629
1223.149753
1223.14961
1223.149501
1223.149485
1223.149545
1223.149773
1223.149989
1223.150176
1223.152188
1223.152167
1223.152158
1223.152089
1223.152065
1223.152163
1223.152233
1223.1522
1223.152337
1223.152119
1223.152162
1223.152274
1223.152163
1223.152249
1223.15242
1223.149183
1223.14922
1223.149196
1223.149122
1223.149096
1223.149016
1223.149279
1223.149263
1223.149358
1223.149267
1223.149274
1223.149353
1223.149467
1223.149535
1223.15147
1223.151212
1223.15123
1223.151297
1223.151267
1223.151099
1223.151071
1223.15107
1223.150751
1223.150998
1223.150906
1223.151004
1223.151134
1223.151378
1223.152078
1223.150504
1223.150522
1223.150766
1223.150685
1223.150892
1223.150923
1223.150992
1223.150756
1223.150741
1223.150761
1223.150887
1223.150847
1223.151178
1223.151716
1223.153274
1223.148329
1223.148238
1223.148278
1223.148477
1223.148263
1223.148259
1223.148248
1223.148225
1223.148425
1223.148621
1223.148589
1223.148694
1223.149092
1223.150478
1223.153436
1223.156031
1223.156264
1223.156137
1223.156163
1223.156022
1223.155897
1223.155712
1223.155886
1223.155912
1223.15581
1223.155963
1223.156423
1223.157157
1223.159197
1223.163402
1223.153118
1223.153138
1223.15313
1223.153128
1223.153123
1223.15306
1223.152992
1223.152996
1223.15299
1223.153208
1223.153253
1223.153195
1223.15365
1223.155028
1223.157749
1223.149573
1223.149528
1223.149496
1223.149473
1223.149554
1223.149489
1223.149645
1223.149749
1223.149653
1223.149448
1223.149555
1223.14958
1223.149914
1223.150461
1223.151778
1223.149873
1223.149872
1223.14998
1223.149937
1223.149785
1223.149822
1223.150067
1223.150053
1223.15
1223.150076
1223.149942
1223.150005
1223.150089
1223.150431
1223.151173
1223.150557
1223.150504
1223.150548
1223.150541
1223.150613
1223.150668
1223.150562
1223.150536
1223.150503
1223.150512
1223.150485
1223.150409
1223.150467
1223.150562
1223.150808
1223.150225
1223.150274
1223.150216
1223.150192
1223.150223
1223.150289
1223.150252
1223.150359
1223.15036
1223.150451
1223.15038
1223.150671
1223.150869
1223.151461
1223.149591
1223.14963
1223.149623
1223.149609
1223.149499
1223.149508
1223.149401
1223.149523
1223.14957
1223.149445
1223.149472
1223.14935
1223.149792
1223.15044
1223.151453
1223.15149
1223.151316
1223.151375
1223.151396
1223.151494
1223.151519
1223.151446
1223.151266
1223.151269
1223.151223
1223.151474
1223.152033
1223.153917
1223.157596
1223.148433
1223.148366
1223.148453
1223.148636
1223.148593
1223.148756
1223.148733
1223.148848
1223.148867
1223.148883
1223.14896
1223.14951
1223.151014
1223.155681
1223.165382
1223.152962
1223.152919
1223.152736
1223.152685
1223.15263
1223.152763
1223.15284
1223.152862
1223.152816
1223.152834
1223.152997
1223.153751
1223.156205
1223.164429
1223.184722
1223.151198
1223.151314
1223.151143
1223.151098
1223.151032
1223.150912
1223.150841
1223.150895
1223.150902
1223.151139
1223.151153
1223.151539
1223.15309
1223.157874
1223.167729
1223.14344
1223.143485
1223.143549
1223.143476
1223.143427
1223.143438
1223.143578
1223.143671
1223.143666
1223.143737
1223.143933
1223.144125
1223.144836
1223.146681
1223.150543
1223.149994
1223.149815
1223.149832
1223.14977
1223.149817
1223.14957
1223.149699
1223.149815
1223.149574
1223.149506
1223.149671
1223.149932
1223.15029
1223.150899
1223.152285
1223.148669
1223.148586
1223.148683
1223.148678
1223.148613
1223.148496
1223.14844
1223.148495
1223.148577
1223.148452
1223.148465
1223.148393
1223.148607
1223.148998
1223.14962
1223.146874
1223.146936
1223.146821
1223.146967
1223.146873
1223.146883
1223.146896
1223.146819
1223.146837
1223.14676
1223.146778
1223.146683
1223.146766
1223.147469
1223.156486
1223.156621
1223.156728
1223.156674
1223.15665
1223.156535
1223.156454
1223.156503
1223.156555
1223.156462
1223.156529
1223.156712
1223.157287
1223.15852
1223.152003
1223.152105
1223.152133
1223.152121
1223.152116
1223.15219
1223.152065
1223.152056
1223.152013
1223.151959
1223.152127
1223.152568
1223.154025
1223.15876
1223.155996
1223.155935
1223.155675
1223.155765
1223.155515
1223.155752
1223.155696
1223.155518
1223.155672
1223.15569
1223.155831
1223.156893
1223.161184
1223.175408
1223.211297
1223.145974
1223.146048
1223.14598
1223.146023
1223.145896
1223.145637
1223.145766
1223.145902
1223.146083
1223.146003
1223.146464
1223.148501
1223.156491
1223.191328
1223.301851
1223.145368
1223.145238
1223.145379
1223.145376
1223.145151
1223.145221
1223.145319
1223.145278
1223.145381
1223.14565
1223.145829
1223.146932
1223.151008
1223.165386
1223.201447
1223.153905
1223.153747
1223.153815
1223.153804
1223.154121
1223.154155
1223.154069
1223.153924
1223.15385
1223.153868
1223.153994
1223.154473
1223.156043
1223.160656
1223.170475
1223.147139
1223.147027
1223.147085
1223.147147
1223.147112
1223.147048
1223.147139
1223.147081
1223.14729
1223.147323
1223.14726
1223.147578
1223.148149
1223.149647
1223.152566
1223.151532
1223.151538
1223.151578
1223.151545
1223.1516
1223.15177
1223.151729
1223.151664
1223.151701
1223.151692
1223.151642
1223.151889
1223.152194
1223.152552
1223.153632
1223.150848
1223.150863
1223.15084
1223.15094
1223.15097
1223.150943
1223.151057
1223.151013
1223.150928
1223.150881
1223.151
1223.151071
1223.151329
1223.151926
1223.1518
1223.151724
1223.151761
1223.151752
1223.151631
1223.151644
1223.151627
1223.151738
1223.151667
1223.15171
1223.151774
1223.151957
1223.152622
1223.154871
1223.151287
1223.151436
1223.151386
1223.151386
1223.151273
1223.151199
1223.151171
1223.151051
1223.150979
1223.151117
1223.151219
1223.151805
1223.154385
1223.16272
1223.150892
1223.150796
1223.150767
1223.150564
1223.15054
1223.15041
1223.150378
1223.150425
1223.150448
1223.150336
1223.15049
1223.152283
1223.160467
1223.195374
1223.149408
1223.149421
1223.149494
1223.149553
1223.149653
1223.149684
1223.149589
1223.14971
1223.149765
1223.149752
1223.150133
1223.15369
1223.173686
1223.302197
1216.065947
1223.147094
1223.147073
1223.147173
1223.147006
1223.147008
1223.147094
1223.147206
1223.147213
1223.147329
1223.147334
1223.147937
1223.149716
1223.157859
1223.192691
1223.303351
1223.150285
1223.150308
1223.150244
1223.150136
1223.150261
1223.150068
1223.149947
1223.149985
1223.150145
1223.15036
1223.150607
1223.151272
1223.153688
1223.161938
1223.182273
1223.146693
1223.146655
1223.146744
1223.146695
1223.146671
1223.146958
1223.147167
1223.147337
1223.147375
1223.147391
1223.147418
1223.147739
1223.148579
1223.150526
1223.154887
1223.150873
1223.150896
1223.15071
1223.150639
1223.150714
1223.150746
1223.150773
1223.150803
1223.150756
1223.150863
1223.150912
1223.150969
1223.151107
1223.151859
1223.153211
1223.153723
1223.153682
1223.153543
1223.153577
1223.153639
1223.153734
1223.153614
1223.153704
1223.15355
1223.153626
1223.153713
1223.153787
1223.154002
1223.154619
1223.146731
1223.14684
1223.146896
1223.146933
1223.147032
1223.147256
1223.147455
1223.14733
1223.147351
1223.147122
1223.14721
1223.147388
1223.147932
1223.149405
1223.148889
1223.148846
1223.148963
1223.148871
1223.148873
1223.148883
1223.148943
1223.148952
1223.148893
1223.148988
1223.14907
1223.149296
1223.150906
1223.155575
1223.152527
1223.152598
1223.152335
1223.152415
1223.152315
1223.152286
1223.15232
1223.152419
1223.152364
1223.152351
1223.152603
1223.15374
1223.15804
1223.172555
1223.151084
1223.151092
1223.151068
1223.151077
1223.150921
1223.151006
1223.151036
1223.151064
1223.150971
1223.150961
1223.151307
1223.153084
1223.161294
1223.196295
1223.1558
1223.155887
1223.155964
1223.155935
1223.15608
1223.156086
1223.156036
1223.156068
1223.155962
1223.156059
1223.156354
1223.157449
1223.161601
1223.176088
1223.151758
1223.151806
1223.151824
1223.151981
1223.152267
1223.152217
1223.15226
1223.152239
1223.152102
1223.152185
1223.15238
1223.152888
1223.154351
1223.158899
1223.168808
1223.150845
1223.150707
1223.15088
1223.150656
1223.150811
1223.150791
1223.15082
1223.150729
1223.150701
1223.15094
1223.151171
1223.151282
1223.151879
1223.15322
1223.155913
1223.149348
1223.149289
1223.149167
1223.149161
1223.149165
1223.149214
1223.149271
1223.149402
1223.149459
1223.149262
1223.149385
1223.149446
1223.14963
1223.150072
1223.151114
1223.146911
1223.146894
1223.146856
1223.14697
1223.146771
1223.146804
1223.146839
1223.14685
1223.146895
1223.14682
1223.146931
1223.146909
1223.147093
1223.147484
1223.152978
1223.152964
1223.152924
1223.152816
1223.152801
1223.152675
1223.152578
1223.152495
1223.152336
1223.152429
1223.152484
1223.152799
1223.152966
1223.153386
1223.143512
1223.143545
1223.143276
1223.143272
1223.143509
1223.143481
1223.143382
1223.143585
1223.143812
1223.143741
1223.143926
1223.144108
1223.144904
1223.146907
1223.15214
1223.152096
1223.15212
1223.152317
1223.152234
1223.152296
1223.152271
1223.152197
1223.152091
1223.152233
1223.152343
1223.152885
1223.154562
1223.159035
1223.154983
1223.154749
1223.154924
1223.154956
1223.154929
1223.154736
1223.154784
1223.154923
1223.15506
1223.155104
1223.15515
1223.155897
1223.158455
1223.166866
1223.148384
1223.148451
1223.148398
1223.148318
1223.14843
1223.148485
1223.148491
1223.148435
1223.148349
1223.148426
1223.148614
1223.149008
1223.150451
1223.154943
1223.150323
1223.150202
1223.150172
1223.150214
1223.150081
1223.150133
1223.149969
1223.149932
1223.149925
1223.150055
1223.150224
1223.150496
1223.151001
1223.152856
1223.152314
1223.152488
1223.152655
1223.15263
1223.152435
1223.152354
1223.152422
1223.152502
1223.152337
1223.152264
1223.152195
1223.152278
1223.152695
1223.153393
1223.154993
1223.150925
1223.150924
1223.151041
1223.151038
1223.150878
1223.150926
1223.150877
1223.150783
1223.15087
1223.150892
1223.150838
1223.151004
1223.151058
1223.151387
1223.151999
1223.148251
1223.148254
1223.148328
1223.148258
1223.148341
1223.148395
1223.148232
1223.148175
1223.148092
1223.148306
1223.148294
1223.148272
1223.148241
1223.148354
1223.147728
1223.147674
1223.14761
1223.147482
1223.14747
1223.147342
1223.147402
1223.147473
1223.147496
1223.147612
1223.147649
1223.147747
1223.147859
1223.148164
1223.15479
1223.154766
1223.154874
1223.154834
1223.15484
1223.154972
1223.154991
1223.155078
1223.155191
1223.155137
1223.155127
1223.155249
1223.155438
1223.156302
1223.152188
1223.152304
1223.152332
1223.152263
1223.152257
1223.152297
1223.152412
1223.152299
1223.152541
1223.152702
1223.15277
1223.152712
1223.153335
1223.154921
1223.151484
1223.151469
1223.151651
1223.151575
1223.151858
1223.151819
1223.151721
1223.151699
1223.151972
1223.151765
1223.151797
1223.152052
1223.152941
1223.1549
1223.15196
1223.15212
1223.152355
1223.152439
1223.152301
1223.152288
1223.152427
1223.152415
1223.152117
1223.15225
1223.152153
1223.152368
1223.153
1223.154378
1223.145504
1223.145537
1223.145526
1223.145314
1223.145154
1223.145309
1223.145201
1223.145213
1223.145197
1223.145376
1223.145539
1223.145543
1223.145996
1223.146925
1223.147481
1223.147451
1223.147441
1223.147407
1223.147293
1223.147251
1223.147343
1223.147429
1223.147477
1223.147398
1223.147544
1223.147666
1223.147764
1223.147993
1223.149315
1223.149222
1223.149089
1223.148989
1223.148881
1223.149
1223.148915
1223.14892
1223.148878
1223.148918
1223.149018
1223.149093
1223.149141
1223.149403
1223.149796
1223.147617
1223.147541
1223.147478
1223.147564
1223.147561
1223.147398
1223.147453
1223.147426
1223.147494
1223.147491
1223.147577
1223.147603
1223.147689
1223.147666
1223.152171
1223.15214
1223.152047
1223.152077
1223.151994
1223.151838
1223.151859
1223.151784
1223.151762
1223.151799
1223.151818
1223.15176
1223.151813
1223.151909
1223.152378
1223.152306
1223.152226
1223.152282
1223.152196
1223.152257
1223.152545
1223.152428
1223.152417
1223.152632
1223.152569
1223.152558
1223.152693
1223.153033
1223.15227
1223.152326
1223.152338
1223.152322
1223.15259
1223.152651
1223.152513
1223.152553
1223.152427
1223.15227
1223.152328
1223.152414
1223.152757
1223.153386
1223.148388
1223.148217
1223.148221
1223.148358
1223.148476
1223.148592
1223.14871
1223.148731
1223.148682
1223.148785
1223.148775
1223.148852
1223.14914
1223.149696
1223.14817
1223.148022
1223.147947
1223.147909
1223.147871
1223.147892
1223.147705
1223.147688
1223.14777
1223.14772
1223.147841
1223.147883
1223.148082
1223.148797
1223.144725
1223.144721
1223.144748
1223.144708
1223.144775
1223.144826
1223.144793
1223.144752
1223.144854
1223.144857
1223.1449
1223.145129
1223.145098
1223.145346
1223.150572
1223.150495
1223.150506
1223.150574
1223.150496
1223.150501
1223.150407
1223.150476
1223.150419
1223.15037
1223.150188
1223.15021
1223.150377
1223.150496
1223.151769
1223.151687
1223.151653
1223.151687
1223.151619
1223.151567
1223.151497
1223.151597
1223.151515
1223.151581
1223.151605
1223.151604
1223.151586
1223.151691
)
;

boundaryField
{
    top
    {
        type            zeroGradient;
    }
    bottom
    {
        type            zeroGradient;
    }
    side-walls
    {
        type            zeroGradient;
    }
    inlet
    {
        type            zeroGradient;
    }
    outlet
    {
        type            zeroGradient;
    }
    procBoundary0to1
    {
        type            processor;
        value           nonuniform List<scalar> 
97
(
1223.152462
1223.149865
1223.151553
1223.151397
1223.153442
1223.153502
1223.155207
1223.148631
1223.150732
1223.152614
1223.149865
1223.149865
1223.153199
1223.151966
1223.155173
1223.15696
1223.168801
1223.161665
1223.153612
1223.152106
1223.151457
1223.152051
1223.151966
1223.151966
1223.162595
1223.168617
1223.175896
1223.200033
1223.178157
1223.155779
1223.154156
1223.150829
1223.148405
1223.161504
1223.168617
1223.168617
1223.235095
1223.305712
1223.318828
1223.22522
1223.180937
1223.156423
1223.155172
1223.15335
1223.159201
1223.18313
1223.305712
1223.305712
1215.640697
1223.306945
1223.320215
1223.212033
1223.197377
1223.160252
1223.15527
1223.155611
1223.152271
1223.16544
1223.208342
1223.306945
1223.212033
1223.212033
1223.179306
1223.156484
1223.159663
1223.152642
1223.148139
1223.154886
1223.150549
1223.16889
1223.187372
1223.164712
1223.156484
1223.156484
1223.156874
1223.14858
1223.153004
1223.148652
1223.148804
1223.157783
1223.157594
1223.15935
1223.15744
1223.148118
1223.14858
1223.14858
1223.150328
1223.151809
1223.147947
1223.15214
1223.153669
1223.154488
1223.151082
1223.149913
1223.145854
1223.150645
1223.151809
)
;
    }
}


// ************************************************************************* //
