/*--------------------------------*- C++ -*----------------------------------*\
| =========                 |                                                 |
| \\      /  F ield         | OpenFOAM: The Open Source CFD Toolbox           |
|  \\    /   O peration     | Version:  4.x                                   |
|   \\  /    A nd           | Web:      www.OpenFOAM.org                      |
|    \\/     M anipulation  |                                                 |
\*---------------------------------------------------------------------------*/
FoamFile
{
    version     2.0;
    format      ascii;
    class       volVectorField;
    location    "4000";
    object      U;
}
// * * * * * * * * * * * * * * * * * * * * * * * * * * * * * * * * * * * * * //

dimensions      [0 1 -1 0 0 0 0];

internalField   nonuniform List<vector> 
1175
(
(0.01099999929 -5.431071841e-11 -3.501398589e-10)
(0.01100000267 2.313384469e-09 1.212641202e-09)
(0.01100000326 4.833676842e-10 5.095490348e-10)
(0.0110000012 -1.525799111e-09 2.163189445e-09)
(0.01100000304 -2.528529585e-10 6.141932152e-10)
(0.0110000047 1.644183644e-09 1.635749104e-09)
(0.01100000866 1.05019161e-10 -9.45281901e-10)
(0.01100001079 -3.054686795e-10 -2.729347056e-10)
(0.01100001919 -1.091395968e-09 -6.667191779e-09)
(0.0110000262 -2.933942987e-09 -6.977701978e-09)
(0.01100004983 -5.520860515e-09 -8.827995033e-09)
(0.0110000667 -9.137443045e-09 -8.479812703e-09)
(0.01100012514 -1.649296695e-08 -1.67639631e-08)
(0.01100017009 -1.872265863e-08 -1.701480177e-08)
(0.01100027094 -3.72980496e-08 -3.329516436e-08)
(0.01100000076 2.089252861e-09 -4.03128634e-11)
(0.01100000071 1.087149504e-09 -3.431179607e-09)
(0.01100000281 2.574605286e-10 -1.045121162e-10)
(0.01100000252 -1.100611825e-09 2.119261748e-10)
(0.01100000614 7.514192649e-10 -6.406267934e-10)
(0.01100000265 -2.381087283e-10 -1.05212946e-09)
(0.01100000662 -1.148411813e-09 -1.085996098e-10)
(0.01100000501 -4.204390583e-09 -1.020119325e-09)
(0.01100001465 -6.093469876e-09 -2.857830814e-09)
(0.01100001841 -9.952806204e-09 -4.790511059e-09)
(0.0110000431 -1.928344622e-08 -7.775970195e-09)
(0.01100005525 -2.634879635e-08 -1.193986751e-08)
(0.01100011231 -5.259645363e-08 -2.079287228e-08)
(0.0110001453 -5.479052159e-08 -1.851367727e-08)
(0.01100026244 -1.261168433e-07 -5.189133105e-08)
(0.01099999991 2.235878369e-09 -6.771794796e-10)
(0.01100000023 2.020000391e-09 -7.902618318e-10)
(0.01100000199 4.769059124e-10 -5.662706355e-10)
(0.01100000342 -2.02138626e-09 3.017247863e-09)
(0.0110000031 -1.483701199e-09 -1.823851047e-10)
(0.01100000108 -3.773835767e-09 -4.175606499e-09)
(0.01100000503 -1.477677461e-09 -4.485010736e-10)
(0.01100000226 -5.144668329e-09 -3.270057574e-09)
(0.01100001176 -8.803444073e-09 -5.823429305e-09)
(0.0110000104 -1.277459833e-08 -4.441100287e-09)
(0.01100002707 -2.320791814e-08 -1.095230681e-08)
(0.01100002807 -3.218756605e-08 -1.630403949e-08)
(0.01100008462 -6.044326405e-08 -2.940483303e-08)
(0.01100008686 -6.09237206e-08 -2.956610158e-08)
(0.01100023733 -1.633688528e-07 -1.067515409e-07)
(0.01099999983 -8.775575779e-10 -9.777046663e-10)
(0.01100000006 -1.000920625e-09 1.139517374e-09)
(0.01100000057 4.095410867e-10 8.860546186e-10)
(0.01100000117 -6.603747667e-10 -1.339673076e-09)
(0.01100000146 -1.569539864e-09 -2.326044986e-09)
(0.01100000226 -2.383861119e-09 -1.271704799e-09)
(0.01100000393 -2.554949317e-09 -2.988503168e-09)
(0.0110000013 -3.247882452e-09 -3.144967629e-09)
(0.0110000079 -6.48256905e-09 -2.454954383e-09)
(0.01100000569 -1.034092858e-08 -5.924251979e-09)
(0.01100001891 -1.87395336e-08 -9.129604853e-09)
(0.01100001363 -3.134383842e-08 -1.646464081e-08)
(0.01100007553 -7.020566389e-08 -3.29346038e-08)
(0.01100004485 -8.2175036e-08 -3.013699101e-08)
(0.01100023712 -2.409555621e-07 -1.501137169e-07)
(0.01100000069 6.47757614e-11 -6.242929478e-10)
(0.01100000018 3.689141268e-10 6.190450991e-10)
(0.0110000008 -3.031087965e-11 -7.624831584e-10)
(0.01100000136 1.567551135e-09 5.56609773e-10)
(0.01100000279 5.917053525e-10 -6.067821904e-10)
(0.01100000138 1.184380055e-09 -1.714903861e-09)
(0.01100000272 -9.515304623e-10 -7.061578707e-10)
(0.01100000267 1.015486816e-09 -4.259799643e-09)
(0.01100000076 1.539613851e-09 -5.28301557e-09)
(0.01099999567 1.016446404e-09 -7.966228433e-09)
(0.01100000408 4.744105241e-10 -1.429085569e-08)
(0.01099997478 7.501908914e-10 -2.75099611e-08)
(0.01100002861 1.185430251e-09 -5.704950547e-08)
(0.01099991528 -9.993127716e-10 -7.118247365e-08)
(0.01100020084 3.929295394e-10 -3.459708982e-07)
(0.01100000058 -8.813713132e-10 8.233082963e-10)
(0.01100000271 1.246547148e-09 1.849449064e-10)
(0.01100000064 -2.282577795e-11 -1.635727751e-11)
(0.011 1.926215418e-09 -1.89805467e-10)
(0.01100000383 1.04015978e-09 -2.756749442e-10)
(0.01100000246 1.787372469e-09 -1.064598459e-09)
(0.01100000173 2.561783452e-09 2.474855068e-11)
(0.01100000438 2.798950164e-09 -2.432803898e-09)
(0.01100000723 5.770732999e-09 -5.124895387e-09)
(0.01100000607 9.579356534e-09 -5.811498542e-09)
(0.01100002187 2.005754758e-08 -1.02547596e-08)
(0.01100001223 3.121773812e-08 -1.735287474e-08)
(0.01100007429 6.958912988e-08 -3.164465053e-08)
(0.011000043 8.157795282e-08 -3.049891102e-08)
(0.01100023634 2.402326773e-07 -1.474281457e-07)
(0.01100000079 5.960231653e-10 1.147541751e-10)
(0.01100000096 -5.68377429e-11 3.671030206e-10)
(0.01100000094 -5.657707372e-10 5.857913593e-10)
(0.01100000188 6.277290683e-10 -3.352817431e-10)
(0.01100000244 1.629905682e-09 2.207186552e-10)
(0.01100000313 3.985541702e-09 -1.068673671e-09)
(0.01100000256 2.4855931e-09 -5.191563071e-09)
(0.01100000145 4.708096064e-09 -3.836885266e-09)
(0.01100001077 7.334457985e-09 -3.504351928e-09)
(0.01100001057 1.296158796e-08 -5.307993177e-09)
(0.01100002795 2.045625739e-08 -1.050369996e-08)
(0.011000027 3.043271955e-08 -1.352904288e-08)
(0.0110000864 5.903767256e-08 -2.967913667e-08)
(0.01100008939 6.058263864e-08 -2.902771632e-08)
(0.01100023865 1.612111647e-07 -1.054548567e-07)
(0.01099999995 1.887081049e-09 1.106817929e-09)
(0.01100000206 3.29884747e-11 2.351193536e-09)
(0.01099999993 5.959737513e-10 5.633715064e-10)
(0.01100000514 1.884746074e-10 -1.005786003e-09)
(0.01100000252 2.782410447e-10 -8.440294919e-11)
(0.01100000325 1.253307188e-09 -5.21956138e-10)
(0.0110000047 1.696402396e-09 -1.767583696e-09)
(0.01100000809 3.212357595e-09 -1.64634692e-09)
(0.01100001509 4.856425872e-09 -3.441885306e-09)
(0.01100002001 1.005613959e-08 -4.700131308e-09)
(0.01100004181 1.984652823e-08 -8.39914538e-09)
(0.01100005465 2.64603414e-08 -1.039412146e-08)
(0.01100011321 5.3330276e-08 -2.363419406e-08)
(0.01100014497 5.646503292e-08 -1.942700788e-08)
(0.01100026129 1.28799408e-07 -5.400138022e-08)
(0.01100000028 6.745241124e-10 1.321057275e-09)
(0.01100000109 -8.94889713e-10 -8.616108278e-10)
(0.01100000136 2.973546498e-10 -2.658616975e-09)
(0.01100000179 1.136804856e-09 -4.146930255e-10)
(0.01100000356 2.123065527e-09 9.621099915e-10)
(0.01100000362 1.295619367e-09 -1.022314425e-09)
(0.01100000605 1.549331053e-09 1.673466049e-09)
(0.01100000969 1.994376029e-09 2.088880932e-10)
(0.01100002143 2.789048336e-09 -1.131752088e-09)
(0.0110000257 5.613011376e-09 9.691723304e-10)
(0.01100004721 8.761788783e-09 -5.746001551e-09)
(0.01100006869 1.111327304e-08 -9.126093914e-09)
(0.01100012315 1.797548721e-08 -2.087730455e-08)
(0.01100016975 1.788793461e-08 -1.800275652e-08)
(0.01100026911 3.769261896e-08 -3.740460586e-08)
(0.01100000064 7.642943729e-10 2.524838006e-10)
(0.01100000142 3.096764166e-09 6.487556817e-10)
(0.01100000124 9.28703154e-10 -3.09627082e-10)
(0.01100000093 1.210643929e-09 -1.278698052e-09)
(0.0110000023 6.837410633e-10 2.244703267e-10)
(0.01100000227 8.634029719e-11 -2.813846605e-10)
(0.01100000675 1.006831616e-10 9.912361176e-11)
(0.01100000761 -4.829496481e-10 -3.967528224e-09)
(0.01100001813 -1.678974515e-09 -5.807365342e-09)
(0.01100001989 -5.027065079e-09 -1.132493135e-08)
(0.0110000413 -9.081483651e-09 -1.861580787e-08)
(0.01100005534 -9.564036895e-09 -2.799935389e-08)
(0.01100011457 -2.109455032e-08 -5.287314554e-08)
(0.01100014628 -1.902112427e-08 -5.365324966e-08)
(0.0110000013 5.573927205e-10 -8.259202485e-10)
(0.01100000058 -7.571919658e-11 5.272767329e-10)
(0.01099999984 -5.004122743e-10 2.419539182e-10)
(0.01100000188 -7.254058966e-10 -8.875852115e-10)
(0.01100000301 -1.247383652e-09 -9.442907363e-10)
(0.01100000226 -2.582489051e-09 -1.776465921e-09)
(0.01100000435 -2.683080819e-09 -2.083446171e-09)
(0.01100000486 -3.297427572e-09 -2.611371143e-09)
(0.01100000999 -6.045137122e-09 -7.323538455e-09)
(0.01100001425 -1.094673452e-08 -1.03455948e-08)
(0.01100003484 -1.933693165e-08 -2.123207366e-08)
(0.01100003939 -3.339330737e-08 -3.347150811e-08)
(0.01100010028 -6.407504305e-08 -6.731915475e-08)
(0.01100010928 -6.799396517e-08 -6.856621471e-08)
(0.01100025312 -1.989726686e-07 -1.978919066e-07)
(0.01100000094 2.000472819e-09 -4.476440565e-10)
(0.01099999794 9.739646773e-10 -3.412576153e-10)
(0.01100000334 -3.051532094e-10 8.407174154e-10)
(0.01100000144 -9.534371902e-10 2.559782336e-11)
(0.01100000255 -1.216964608e-09 -4.149344102e-10)
(0.01100000158 -2.356084607e-09 -1.982045743e-09)
(0.01100000311 -3.441480906e-09 -2.507528318e-09)
(0.01100000346 -6.55875218e-09 -4.124325843e-09)
(0.01100000529 -8.428354129e-09 -7.613798102e-09)
(0.01100000386 -1.374322947e-08 -1.484415745e-08)
(0.01100001853 -2.489812512e-08 -2.589962677e-08)
(0.01100000293 -3.716036042e-08 -4.466570837e-08)
(0.01100006253 -7.18241057e-08 -9.741521397e-08)
(0.01100000683 -7.268823858e-08 -1.110116018e-07)
(0.01100021397 -2.637378772e-07 -4.140253306e-07)
(0.01099999967 5.179179831e-10 1.686621684e-10)
(0.01099999914 -2.888445843e-10 -6.308300564e-10)
(0.01099999948 -9.371185107e-10 4.973986497e-10)
(0.01100000275 -9.078894614e-10 2.768452298e-10)
(0.01100000111 -1.707313319e-09 5.99381649e-12)
(0.01100000168 -4.669570631e-10 -2.070184848e-09)
(0.0110000002 -1.614512834e-09 -3.592018584e-09)
(0.0110000002 -3.235227988e-09 -5.540037992e-09)
(0.01100000208 -7.506595659e-09 -8.485556751e-09)
(0.01099999826 -1.264084888e-08 -1.547763031e-08)
(0.01100000858 -2.275510266e-08 -2.511470206e-08)
(0.01099999177 -4.182690819e-08 -5.121627011e-08)
(0.01100004465 -9.727831382e-08 -1.049068637e-07)
(0.01099993761 -1.262015361e-07 -1.419865206e-07)
(0.01100019595 -4.905538098e-07 -6.496141819e-07)
(0.01099999942 4.161580931e-10 3.438536713e-10)
(0.01099999787 5.046767836e-10 -4.285768718e-10)
(0.01099999934 8.124181888e-10 -9.587708278e-10)
(0.01100000216 9.128387414e-10 4.774971296e-10)
(0.01100000042 8.910569985e-10 -2.805729376e-10)
(0.01100000151 2.466373334e-10 -2.830616201e-09)
(0.01099999738 -6.066411193e-10 -2.74117385e-09)
(0.0109999982 -5.002022656e-10 -6.586378192e-09)
(0.01099999585 -4.059531718e-10 -9.755552609e-09)
(0.01099998492 3.54052494e-10 -1.827774427e-08)
(0.0109999855 4.640886761e-10 -3.413365279e-08)
(0.01099993009 2.320371268e-10 -7.960822717e-08)
(0.01099995395 -7.164988696e-11 -1.835902688e-07)
(0.01099965125 -1.064537716e-09 -3.00481146e-07)
(0.0110001023 -4.518055991e-10 -1.534624954e-06)
(0.01100000081 -7.908207214e-10 -1.39941956e-10)
(0.01099999993 3.334427081e-10 2.512682764e-11)
(0.01100000058 1.153232799e-09 8.174514527e-13)
(0.01100000034 1.719953295e-09 -9.103692005e-11)
(0.0110000005 1.249108416e-09 -3.098779082e-10)
(0.01099999984 7.337503855e-10 -2.351119222e-09)
(0.01100000119 2.437813165e-09 -2.751346437e-09)
(0.01099999979 2.915032104e-09 -4.51068891e-09)
(0.01100000233 5.562108647e-09 -7.747397093e-09)
(0.01099999914 1.126501755e-08 -1.652137456e-08)
(0.01100000958 2.169286436e-08 -2.681090777e-08)
(0.01099998941 4.190327468e-08 -5.197220804e-08)
(0.01100004254 9.603341931e-08 -1.045778998e-07)
(0.01099993908 1.237954171e-07 -1.418115111e-07)
(0.01100019317 4.891955326e-07 -6.493333586e-07)
(0.0110000008 1.719720077e-09 1.490514796e-11)
(0.01100000038 7.956522771e-10 7.527063495e-11)
(0.01100000062 1.150643584e-09 -2.802477706e-10)
(0.01100000106 8.7945398e-10 -8.829563541e-10)
(0.01100000182 3.120460932e-09 -2.960978082e-10)
(0.01099999987 2.675356349e-09 -1.193121409e-09)
(0.0110000035 3.003094122e-09 -4.30723445e-09)
(0.01100000334 5.899044395e-09 -4.563171048e-09)
(0.01100000643 9.130338084e-09 -9.320352913e-09)
(0.01100000267 1.421500917e-08 -1.384657125e-08)
(0.01100001697 2.299675494e-08 -2.578888845e-08)
(0.01100000495 3.603790603e-08 -4.441320777e-08)
(0.01100006277 7.003279068e-08 -9.851946924e-08)
(0.01100001009 7.193764228e-08 -1.127021794e-07)
(0.01100021412 2.640337772e-07 -4.130042115e-07)
(0.0109999999 6.306051734e-10 6.981091741e-10)
(0.01099999877 9.305982626e-10 -2.769400639e-10)
(0.01100000202 -4.657003806e-10 3.90460448e-10)
(0.01100000223 4.4943862e-11 -1.208335987e-09)
(0.01100000084 -8.094105087e-11 -1.092593807e-09)
(0.01100000108 2.008892889e-09 -1.463421973e-09)
(0.01100000498 3.196002277e-09 -3.933244495e-09)
(0.01100000668 4.651240349e-09 -4.587254654e-09)
(0.01100001358 8.291362251e-09 -6.416810912e-09)
(0.01100001442 1.161128574e-08 -1.02014744e-08)
(0.01100003422 2.151408022e-08 -1.931844238e-08)
(0.01100003943 3.015737084e-08 -3.113604165e-08)
(0.0110000999 6.47774298e-08 -6.731353594e-08)
(0.01100011043 6.832359237e-08 -6.840743142e-08)
(0.01100025361 1.997927186e-07 -1.974362218e-07)
(0.01099999917 3.82054854e-10 -2.632057977e-11)
(0.01099999974 1.051399535e-09 -5.304856179e-10)
(0.01099999987 9.831833667e-10 -2.113206246e-10)
(0.01100000224 -7.002081679e-10 -2.043514938e-09)
(0.01100000424 9.228673494e-11 -1.290314714e-09)
(0.01100000477 7.528244161e-10 -1.590090662e-09)
(0.01100000563 1.56225749e-09 -2.308214475e-09)
(0.01100000894 2.99275325e-09 -3.358201107e-09)
(0.01100001625 2.238841943e-09 -6.053991305e-09)
(0.01100001995 4.957103937e-09 -1.068486988e-08)
(0.01100004107 8.443103166e-09 -1.866241159e-08)
(0.01100005363 9.953174261e-09 -2.776520415e-08)
(0.01100011429 2.031806371e-08 -5.267218072e-08)
(0.01100014905 2.009842666e-08 -5.628134757e-08)
(0.01100026314 5.454292971e-08 -1.257143129e-07)
(0.01099999974 -1.269851266e-09 3.314937248e-10)
(0.01100000134 1.154539276e-09 -1.043779521e-09)
(0.01100000107 3.627389899e-10 -6.823156135e-10)
(0.01100000232 9.259139348e-11 -1.078698301e-09)
(0.01100000258 -7.229770249e-10 -5.339022757e-10)
(0.01100000275 3.454631425e-10 -1.276968971e-09)
(0.01100000222 -2.08389163e-09 -2.043453257e-09)
(0.01100000466 3.20326444e-10 -5.12584507e-09)
(0.01100000939 -7.73931871e-10 -8.203935458e-09)
(0.01100001274 -4.974703588e-09 -1.448550536e-08)
(0.01100002836 -8.376313899e-09 -2.281623194e-08)
(0.01100002544 -1.211498428e-08 -3.425561197e-08)
(0.01100008894 -3.189351262e-08 -6.18809249e-08)
(0.01100009179 -2.981427628e-08 -5.987686931e-08)
(0.010999999 4.445931735e-10 1.584744141e-09)
(0.01100000393 -5.941953539e-10 -7.475126711e-10)
(0.01100000133 3.442068931e-10 -8.049658004e-10)
(0.01099999998 5.102305749e-11 -2.686494291e-09)
(0.01100000042 -1.02401539e-09 -2.26876309e-09)
(0.0110000028 -2.382489754e-09 -3.016105378e-09)
(0.0110000008 -3.702656105e-09 -1.608652385e-09)
(0.01100000162 -2.965989167e-09 -5.350965298e-09)
(0.01100000469 -7.769026104e-09 -8.80159125e-09)
(0.01100000223 -1.285611663e-08 -1.651243952e-08)
(0.0110000169 -2.515412458e-08 -2.430277299e-08)
(0.0110000008 -4.50498318e-08 -3.83145619e-08)
(0.0110000639 -9.549542615e-08 -7.263822236e-08)
(0.01100001311 -1.12611305e-07 -7.173731735e-08)
(0.01099999997 1.978430534e-09 1.050200022e-10)
(0.01100000234 1.206343543e-09 1.206075868e-10)
(0.01100000214 -4.266789275e-10 -1.076060721e-10)
(0.01100000069 1.040317615e-10 -2.307436332e-09)
(0.01100000005 5.719056431e-10 -1.925783318e-09)
(0.01100000196 -1.798101346e-09 -1.790898878e-09)
(0.01100000219 -3.663408218e-09 -3.825522339e-09)
(0.01100000075 -7.191016028e-09 -5.898950218e-09)
(0.01099999578 -9.075956117e-09 -1.092131693e-08)
(0.01099998808 -1.83777655e-08 -1.862767349e-08)
(0.01099999362 -2.722120309e-08 -2.851942691e-08)
(0.01099995073 -5.078171336e-08 -5.409562868e-08)
(0.01099998698 -9.928628464e-08 -1.013761005e-07)
(0.01099979365 -1.353144233e-07 -1.348217427e-07)
(0.0110000934 -6.209008483e-07 -6.231443052e-07)
(0.01100000025 1.600972403e-09 -1.97138325e-10)
(0.01099999876 -5.148846782e-10 -8.196178247e-10)
(0.01100000009 -3.327643544e-10 -4.03052811e-10)
(0.01100000302 -8.218196563e-11 3.212124328e-10)
(0.01099999965 -1.871678447e-09 -1.17300618e-09)
(0.01100000022 -1.02833216e-09 -2.507410616e-10)
(0.01099999881 -2.32094601e-09 -2.749459133e-09)
(0.01099999565 -4.846021882e-09 -6.580960733e-09)
(0.01099999478 -8.260272853e-09 -1.072483267e-08)
(0.01099998612 -1.471814331e-08 -1.841875334e-08)
(0.01099997915 -2.83995159e-08 -2.00407383e-08)
(0.01099993659 -6.635256416e-08 -6.086433892e-08)
(0.01099991751 -1.581302632e-07 -5.989285791e-08)
(0.01099963327 -2.705753265e-07 -1.793575659e-07)
(0.0109998588 -1.383869381e-06 -9.522730351e-07)
(0.01100000021 5.898857144e-10 -8.263142457e-10)
(0.0110000002 1.809325653e-09 -5.550922651e-10)
(0.0109999988 1.69243944e-09 -6.63000258e-11)
(0.01100000044 6.593782435e-10 9.074945357e-10)
(0.01099999728 2.823159711e-10 -8.425948463e-10)
(0.01099999955 6.482325625e-10 -6.635241985e-10)
(0.01099999713 8.364296327e-10 -3.133319067e-09)
(0.01099999223 1.005184624e-09 -5.90662423e-09)
(0.01099998248 1.428016801e-09 -8.653589121e-09)
(0.01099996933 4.689666125e-10 -2.274248344e-08)
(0.01099993581 -7.302108183e-10 -2.627273304e-08)
(0.01099982727 2.529918056e-10 -1.021252018e-07)
(0.01099968784 -1.505735331e-09 -1.510360558e-07)
(0.01099883357 -4.282478233e-10 -5.361916639e-07)
(0.01099916244 7.974894141e-10 -3.115126587e-06)
(0.01099999989 2.478360663e-10 1.193699523e-09)
(0.01100000259 7.046922783e-11 8.433579569e-10)
(0.01099999992 -1.015577678e-09 -8.782691062e-10)
(0.01100000049 -1.460841327e-09 -5.329402066e-10)
(0.01100000077 5.934786045e-10 2.220732883e-10)
(0.01099999781 1.945686222e-09 -6.732306113e-11)
(0.0109999974 1.13562726e-09 -2.637851898e-09)
(0.01099999515 4.360840825e-09 -5.550889078e-09)
(0.01099999078 5.628084868e-09 -9.487937516e-09)
(0.01099998708 1.537774946e-08 -1.861844899e-08)
(0.01099997787 2.819786603e-08 -1.925467786e-08)
(0.01099993554 6.630951152e-08 -6.099219423e-08)
(0.01099991616 1.579206575e-07 -6.136094315e-08)
(0.01099963297 2.697419355e-07 -1.77726445e-07)
(0.01099986072 1.383585624e-06 -9.514934051e-07)
(0.01099999992 6.700547496e-10 -1.532454433e-10)
(0.01100000042 -4.095563354e-10 3.560909316e-10)
(0.01100000075 -3.528801161e-11 2.790161635e-12)
(0.01100000248 8.640199469e-10 -1.871743261e-09)
(0.0110000006 1.691056521e-09 -3.914921146e-09)
(0.01099999795 2.759157188e-09 -2.028993697e-09)
(0.01100000025 4.77676586e-09 -2.846998158e-09)
(0.01099999869 5.658676206e-09 -6.108316314e-09)
(0.01099999703 9.52638496e-09 -9.700129474e-09)
(0.01099998851 1.72722912e-08 -1.781919557e-08)
(0.01099999459 2.838953886e-08 -2.647956329e-08)
(0.01099994937 5.158805545e-08 -5.339734532e-08)
(0.0109999874 9.818012062e-08 -9.981018593e-08)
(0.01099979273 1.316900744e-07 -1.327201264e-07)
(0.01100009646 6.236650747e-07 -6.23271726e-07)
(0.01100000082 3.896113645e-10 -7.979208459e-10)
(0.01100000003 1.484089699e-09 -2.0958272e-10)
(0.01100000122 9.508193903e-11 1.04210332e-09)
(0.01100000176 2.366095981e-10 -5.678498118e-10)
(0.01100000358 -6.811826084e-10 -1.548048543e-09)
(0.01099999865 1.380010441e-09 -9.063266502e-10)
(0.01100000286 3.133499082e-09 -2.338422071e-09)
(0.01100000274 4.885604174e-09 -4.22033309e-09)
(0.01100000593 8.743123067e-09 -8.252499467e-09)
(0.01100000196 1.350911491e-08 -1.447049077e-08)
(0.01100001557 2.456735841e-08 -2.370325475e-08)
(0.01100000297 4.317356233e-08 -3.660423391e-08)
(0.01100006333 9.741166177e-08 -7.089058065e-08)
(0.01100001382 1.139740417e-07 -7.130477176e-08)
(0.01100021641 4.160443623e-07 -2.627210289e-07)
(0.01100000008 1.300610753e-09 1.150422831e-09)
(0.01099999833 7.614051894e-10 -8.212607989e-10)
(0.01100000045 6.103878574e-10 -1.002647697e-09)
(0.01100000216 -2.414503752e-11 -1.129765525e-09)
(0.01100000383 2.273695644e-10 -2.174212517e-09)
(0.01100000228 -1.349128924e-10 -8.718494528e-10)
(0.01100000328 1.138633209e-09 -2.121475386e-09)
(0.01100000537 2.040877069e-09 -3.316833718e-09)
(0.01100001005 3.241743104e-09 -8.732386557e-09)
(0.0110000103 5.837736252e-09 -1.284433297e-08)
(0.01100002768 8.815760245e-09 -2.40376852e-08)
(0.01100002543 1.327863683e-08 -3.276032532e-08)
(0.01100008927 3.118852003e-08 -6.151668401e-08)
(0.01100008948 2.936917643e-08 -6.139219386e-08)
(0.01100023917 1.067427345e-07 -1.615711671e-07)
(0.01099999928 1.776437686e-09 3.465498751e-10)
(0.01100000366 -1.307444315e-09 -7.161082528e-10)
(0.0110000006 -1.791376736e-09 -5.594419932e-10)
(0.01100000222 3.297085913e-10 -2.595163572e-10)
(0.01100000216 -7.330314509e-10 -6.230311288e-10)
(0.011000002 -2.146337129e-10 -1.119266067e-09)
(0.01100000243 2.88657991e-11 -2.527907047e-09)
(0.01100000129 -2.601572499e-10 -3.437300845e-09)
(0.01100000801 -2.628629307e-09 -6.307160752e-09)
(0.01100000407 -6.728437273e-09 -9.555889192e-09)
(0.01100002106 -8.594682699e-09 -2.10330558e-08)
(0.01100001239 -1.526124548e-08 -3.354769798e-08)
(0.01100007568 -2.98092358e-08 -6.980170166e-08)
(0.01100004458 -3.247048048e-08 -8.091920745e-08)
(0.01099999869 -1.243482911e-10 1.581179193e-10)
(0.01100000104 1.335108591e-09 -1.793926862e-09)
(0.01100000224 -1.014195221e-09 -8.527440515e-10)
(0.01100000069 -3.558744336e-12 -3.089997323e-10)
(0.01100000356 -7.970533168e-10 -8.604465347e-10)
(0.01099999992 -1.840140866e-09 -5.942933777e-10)
(0.01099999983 -2.990167438e-09 -2.038530445e-09)
(0.01099999781 -4.706465761e-09 -5.263105368e-09)
(0.01100000056 -9.578341809e-09 -7.411169653e-09)
(0.01099999661 -1.501341551e-08 -1.35567947e-08)
(0.01100000846 -2.351097257e-08 -2.348943672e-08)
(0.0109999884 -5.217107758e-08 -4.249043766e-08)
(0.01100004501 -1.032230838e-07 -9.586952063e-08)
(0.01099993876 -1.417742357e-07 -1.256497982e-07)
(0.01099999964 1.725656676e-09 2.592423431e-10)
(0.01100000104 3.230855592e-10 1.633311544e-09)
(0.01100000113 -6.85407807e-11 -2.08469607e-10)
(0.01100000014 1.861821755e-09 -1.641932172e-10)
(0.01100000112 -6.560517402e-10 -1.007401898e-09)
(0.01099999927 -1.881670609e-09 -1.175839677e-09)
(0.01099999895 -3.560676546e-09 -1.737647799e-09)
(0.01099999564 -7.574889798e-09 -5.193208718e-09)
(0.01099999203 -8.593305157e-09 -6.894136949e-09)
(0.01099998273 -1.716516418e-08 -1.608940654e-08)
(0.01099997811 -2.078536715e-08 -2.825300738e-08)
(0.01099993658 -5.934010763e-08 -6.678873036e-08)
(0.01099991983 -5.922120559e-08 -1.595797284e-07)
(0.01099963441 -1.792131217e-07 -2.718357934e-07)
(0.01099999957 -4.532414547e-10 -2.552160806e-10)
(0.01100000048 3.09149323e-10 -7.930427572e-10)
(0.01099999948 2.440498111e-10 -2.345559348e-10)
(0.0110000028 4.501528767e-10 8.696591405e-10)
(0.01099999755 -4.405111482e-10 4.793240454e-11)
(0.01099999942 -1.167852255e-09 -2.228806954e-09)
(0.01099999788 -3.054290542e-09 -2.049865675e-09)
(0.01099999296 -4.264746632e-09 -4.117057465e-09)
(0.01099999009 -7.09925437e-09 -6.280287427e-09)
(0.01099998532 -1.743148883e-08 -1.825694954e-08)
(0.01099995776 -2.519663359e-08 -2.461459261e-08)
(0.01099997387 -9.156590338e-08 -9.255906341e-08)
(0.0109997546 -1.48997081e-07 -1.495023217e-07)
(0.01099969447 -5.274138898e-07 -5.265095829e-07)
(0.01099840078 -2.98130899e-06 -2.981179279e-06)
(0.01100000199 1.087789556e-09 -1.044954401e-09)
(0.01100000035 1.229110823e-09 5.182794647e-11)
(0.01100000121 -6.348679272e-12 1.935482385e-10)
(0.01100000348 -2.89186579e-10 -8.611474929e-10)
(0.0109999997 6.373722938e-10 -6.240809946e-10)
(0.01099999685 1.141896533e-09 -1.017695931e-09)
(0.01099999341 1.481284887e-09 -2.071890053e-09)
(0.0109999908 1.212045216e-09 -5.369801461e-09)
(0.01099997596 2.14165414e-10 -9.050433576e-09)
(0.01099996663 -1.008020799e-09 -2.349833694e-08)
(0.01099989319 2.983901601e-10 -3.475687343e-08)
(0.01099984313 1.216110998e-09 -1.436554899e-07)
(0.0109991799 -1.285632792e-09 -3.19506224e-07)
(0.01099825264 1.455865417e-10 -1.305272882e-06)
(0.01099292835 -1.420422185e-10 -1.38122506e-05)
(0.01100000067 -8.854906223e-10 -9.15861039e-11)
(0.01099999797 -1.012920554e-09 -4.198644645e-10)
(0.0110000016 -3.738629426e-10 4.052578171e-10)
(0.01100000222 -9.521037393e-10 -3.548428077e-10)
(0.0109999993 3.336567767e-10 -1.506706073e-09)
(0.0109999981 2.113244082e-09 -1.057237358e-09)
(0.01099999392 8.684065585e-10 -1.776679746e-09)
(0.01099999329 3.999205093e-09 -4.851639874e-09)
(0.0109999858 6.078167032e-09 -5.880599426e-09)
(0.0109999882 1.802122426e-08 -1.725483369e-08)
(0.01099995785 2.458085926e-08 -2.313214874e-08)
(0.0109999741 9.113820417e-08 -9.0719249e-08)
(0.01099975117 1.479582972e-07 -1.497470662e-07)
(0.01099969352 5.251883488e-07 -5.273822665e-07)
(0.01099840026 2.980882759e-06 -2.983006066e-06)
(0.01100000112 6.460954052e-10 -8.425676426e-11)
(0.01100000088 1.205936502e-09 -9.676589971e-10)
(0.01100000115 1.958653377e-09 -7.587901021e-11)
(0.01099999912 8.968185214e-10 -3.001655842e-10)
(0.01100000254 -2.282752571e-10 -1.247161919e-09)
(0.01100000171 5.031543281e-10 -1.235580852e-09)
(0.01099999645 2.693932563e-09 -8.116132235e-10)
(0.01099999532 5.946303975e-09 -5.201462951e-09)
(0.01099999233 9.055473708e-09 -5.556552489e-09)
(0.01099998514 2.033339743e-08 -1.362575738e-08)
(0.01099997706 1.907037126e-08 -2.699833833e-08)
(0.0109999361 5.804461764e-08 -6.723268773e-08)
(0.01099991854 6.032689497e-08 -1.5766334e-07)
(0.01099963363 1.781222186e-07 -2.715057791e-07)
(0.01099985831 9.525642334e-07 -1.385064964e-06)
(0.0109999995 2.212914205e-09 1.157455605e-09)
(0.01100000017 -3.849678362e-11 1.560494564e-09)
(0.01099999942 2.810560587e-11 1.153456075e-09)
(0.01100000008 5.648813599e-10 8.71874785e-10)
(0.01100000121 6.166134346e-10 2.277199637e-10)
(0.01100000121 1.210823042e-09 -1.434469405e-09)
(0.01099999971 3.025498104e-09 -9.090078933e-10)
(0.01099999798 7.223032406e-09 -4.102982936e-09)
(0.01100000278 8.303687314e-09 -6.818620743e-09)
(0.01099999795 1.390544213e-08 -1.173659398e-08)
(0.01100000614 2.509982596e-08 -2.209036247e-08)
(0.0109999879 5.205714985e-08 -4.148552578e-08)
(0.01100004477 1.024409377e-07 -9.773929851e-08)
(0.0109999419 1.410826104e-07 -1.270407632e-07)
(0.01100019661 6.501708646e-07 -4.925798587e-07)
(0.01099999899 1.506243224e-09 5.6296691e-10)
(0.01099999791 2.268804434e-09 1.725509831e-09)
(0.01099999854 -9.349330128e-10 1.167784714e-09)
(0.01100000075 4.963754071e-10 1.328202706e-09)
(0.01100000247 3.941761001e-10 4.674959257e-10)
(0.01100000224 -5.04289309e-10 -4.855508016e-10)
(0.0110000045 1.288060085e-09 -2.466259493e-09)
(0.01100000157 9.065469614e-10 -3.618848328e-09)
(0.01100000645 3.836024437e-09 -6.378897308e-09)
(0.01100000457 4.069141125e-09 -1.120186102e-08)
(0.0110000205 8.484392108e-09 -1.908050214e-08)
(0.01100001303 1.47012872e-08 -2.979059677e-08)
(0.0110000761 3.163916829e-08 -6.981913614e-08)
(0.01100004563 3.065525838e-08 -8.117694842e-08)
(0.01100023878 1.493920351e-07 -2.428427251e-07)
(0.01099999991 2.30878292e-09 1.305040313e-09)
(0.01100000079 3.02883552e-10 -4.043625262e-10)
(0.0110000002 1.590815743e-09 -1.241044467e-09)
(0.01100000157 1.601549739e-09 -1.490508493e-10)
(0.01100000408 -3.3068248e-10 -1.286055597e-09)
(0.0110000031 2.111146936e-09 -2.532552625e-10)
(0.01100000307 -1.16016617e-09 3.503252649e-10)
(0.01099999941 -1.879780441e-09 2.067891547e-10)
(0.01100000161 -4.419852474e-09 -4.34268342e-10)
(0.01099999385 -7.089177029e-09 -8.591824791e-10)
(0.01100000667 -1.05558328e-08 -3.658613377e-10)
(0.01099997506 -2.133510555e-08 9.970979883e-10)
(0.01100003131 -5.38742115e-08 -5.076473703e-10)
(0.01099991669 -7.108884912e-08 -1.222896969e-09)
(0.01099999944 -4.384405193e-10 -3.957135067e-10)
(0.01100000085 1.806727579e-09 8.295793528e-10)
(0.01100000243 -4.318139329e-10 -8.020204833e-10)
(0.01100000038 2.131780083e-10 -8.239654019e-10)
(0.01100000153 -2.629721904e-11 4.435433172e-10)
(0.01100000111 -1.417373463e-09 -1.525225633e-09)
(0.01099999696 -3.090177035e-09 -2.700306454e-09)
(0.01099999643 -4.70681827e-09 -1.274922431e-09)
(0.01099999504 -9.215323694e-09 -1.805439392e-09)
(0.01099998489 -1.992155211e-08 -2.216622814e-10)
(0.01099998734 -3.312345423e-08 4.152165204e-10)
(0.0109999289 -7.7930538e-08 7.947591377e-10)
(0.01099995281 -1.820568142e-07 1.263942183e-10)
(0.01099965313 -3.000094411e-07 -1.771033444e-10)
(0.01099999991 9.796183522e-10 -1.041373498e-09)
(0.01100000215 3.435220724e-10 -1.080099572e-09)
(0.01100000097 8.889202511e-10 -5.650072027e-10)
(0.01100000123 2.429868704e-09 1.079019058e-11)
(0.01099999943 1.392623967e-09 5.820068835e-10)
(0.0109999985 -2.604477623e-09 1.523491469e-09)
(0.0109999967 -5.312432428e-09 -1.521171599e-09)
(0.01099999271 -6.142626546e-09 -2.792848852e-09)
(0.01099998314 -9.414221821e-09 -9.792991075e-10)
(0.01099996816 -2.302236775e-08 -1.683215033e-09)
(0.01099993703 -2.706845299e-08 -2.903672853e-10)
(0.01099982517 -1.010223065e-07 -4.873026823e-10)
(0.0109996862 -1.504850145e-07 2.162374775e-10)
(0.01099883319 -5.378788772e-07 5.416763164e-10)
(0.01099999936 6.573413705e-10 -7.506972808e-10)
(0.01100000077 4.573344768e-10 -5.04302436e-10)
(0.01100000258 -1.215621337e-09 1.302902891e-09)
(0.01100000053 -7.960380227e-10 -7.805750231e-10)
(0.01099999723 -1.119551396e-09 1.471204131e-10)
(0.01099999702 -2.419619607e-09 9.606475762e-10)
(0.01099999549 -2.523207803e-09 -2.683651988e-10)
(0.01099999204 -5.419430543e-09 -6.718043595e-11)
(0.01099997862 -7.186853331e-09 -3.662106925e-10)
(0.01099996612 -2.160680986e-08 -1.365450195e-09)
(0.01099989239 -3.355745884e-08 -6.759405117e-10)
(0.01099984227 -1.425929638e-07 1.337916342e-09)
(0.01099917988 -3.200267144e-07 -1.969891581e-10)
(0.01099825658 -1.305659428e-06 8.108537015e-10)
(0.01100000002 3.904118112e-11 -1.672238946e-09)
(0.01100000143 3.508705231e-10 -6.495402609e-10)
(0.0110000002 1.701343204e-09 4.115459674e-10)
(0.0110000015 2.836974913e-11 -1.251606352e-09)
(0.010999997 6.973645916e-10 -4.20263809e-10)