/*--------------------------------*- C++ -*----------------------------------*\
| =========                 |                                                 |
| \\      /  F ield         | OpenFOAM: The Open Source CFD Toolbox           |
|  \\    /   O peration     | Version:  4.x                                   |
|   \\  /    A nd           | Web:      www.OpenFOAM.org                      |
|    \\/     M anipulation  |                                                 |
\*---------------------------------------------------------------------------*/
FoamFile
{
    version     2.0;
    format      ascii;
    class       volScalarField;
    location    "4000";
    object      X_CO2;
}
// * * * * * * * * * * * * * * * * * * * * * * * * * * * * * * * * * * * * * //

dimensions      [0 0 0 0 0 0 0];

internalField   nonuniform List<scalar> 
1175
(
0.04000731928
0.04000731928
0.04000731928
0.04000731929
0.04000731932
0.04000731941
0.04000731971
0.04000732068
0.04000732369
0.04000733257
0.04000735741
0.04000742228
0.04000757817
0.04000791746
0.04000857606
0.04000731928
0.04000731928
0.04000731928
0.04000731929
0.04000731933
0.04000731944
0.04000731984
0.04000732118
0.04000732548
0.04000733869
0.04000737715
0.04000748158
0.04000774108
0.04000831799
0.04000943763
0.04000731928
0.04000731928
0.04000731928
0.0400073193
0.04000731934
0.0400073195
0.04000732008
0.04000732207
0.04000732877
0.0400073503
0.040007416
0.04000760277
0.04000808647
0.04000919289
0.0400113448
0.04000731928
0.04000731928
0.04000731929
0.0400073193
0.04000731936
0.04000731956
0.04000732032
0.04000732303
0.04000733243
0.04000736385
0.04000746371
0.04000776022
0.04000856142
0.0400104566
0.04001416784
0.04000731928
0.04000731928
0.04000731929
0.0400073193
0.04000731936
0.04000731959
0.04000732043
0.04000732348
0.04000733422
0.04000737085
0.04000749003
0.04000785398
0.04000886906
0.04001134429
0.04001625079
0.04000731928
0.04000731928
0.04000731929
0.0400073193
0.04000731936
0.04000731956
0.04000732032
0.04000732303
0.04000733243
0.04000736385
0.04000746371
0.04000776022
0.04000856142
0.04001045658
0.04001416781
0.04000731928
0.04000731928
0.04000731928
0.0400073193
0.04000731934
0.0400073195
0.04000732008
0.04000732207
0.04000732877
0.0400073503
0.040007416
0.04000760277
0.04000808646
0.04000919286
0.04001134473
0.04000731928
0.04000731928
0.04000731928
0.04000731929
0.04000731933
0.04000731944
0.04000731984
0.04000732118
0.04000732548
0.04000733869
0.04000737715
0.04000748157
0.04000774107
0.04000831796
0.04000943757
0.04000731928
0.04000731928
0.04000731928
0.04000731929
0.04000731932
0.04000731941
0.04000731971
0.04000732068
0.04000732369
0.04000733257
0.04000735741
0.04000742228
0.04000757816
0.04000791743
0.04000857601
0.04000731928
0.04000731928
0.04000731928
0.04000731929
0.04000731933
0.04000731944
0.04000731984
0.04000732118
0.04000732548
0.04000733869
0.04000737715
0.04000748158
0.04000774109
0.04000831801
0.04000731928
0.04000731928
0.04000731928
0.0400073193
0.04000731934
0.04000731949
0.04000732005
0.04000732198
0.0400073285
0.04000734962
0.04000741456
0.04000760077
0.04000808701
0.04000920606
0.04001138428
0.04000731928
0.04000731928
0.04000731929
0.0400073193
0.04000731936
0.04000731958
0.04000732042
0.04000732347
0.04000733434
0.0400073717
0.04000749397
0.04000786788
0.04000890604
0.04001141182
0.04001633801
0.04000731928
0.04000731928
0.04000731929
0.04000731931
0.04000731938
0.04000731968
0.04000732082
0.04000732515
0.04000734131
0.04000739977
0.04000760256
0.04000826396
0.04001022889
0.04001527052
0.04002542298
0.04000731928
0.04000731928
0.04000731929
0.04000731931
0.04000731939
0.04000731972
0.04000732101
0.04000732599
0.04000734501
0.04000741588
0.04000767127
0.04000854516
0.04001129936
0.04001884749
0.0400347392
0.04000731928
0.04000731928
0.04000731929
0.04000731931
0.04000731938
0.04000731968
0.04000732082
0.04000732515
0.04000734131
0.04000739977
0.04000760256
0.04000826395
0.04001022886
0.04001527045
0.04002542282
0.04000731928
0.04000731928
0.04000731929
0.0400073193
0.04000731936
0.04000731958
0.04000732042
0.04000732347
0.04000733434
0.0400073717
0.04000749397
0.04000786787
0.04000890601
0.04001141172
0.04001633779
0.04000731928
0.04000731928
0.04000731928
0.0400073193
0.04000731934
0.04000731949
0.04000732005
0.04000732198
0.0400073285
0.04000734962
0.04000741456
0.04000760076
0.04000808699
0.04000920599
0.0400113841
0.04000731928
0.04000731928
0.04000731928
0.04000731929
0.04000731933
0.04000731944
0.04000731984
0.04000732118
0.04000732548
0.04000733869
0.04000737715
0.04000748157
0.04000774107
0.04000831796
0.04000943757
0.04000731928
0.04000731928
0.04000731928
0.0400073193
0.04000731934
0.0400073195
0.04000732008
0.04000732207
0.04000732877
0.0400073503
0.040007416
0.04000760278
0.04000808649
0.04000919294
0.04000731928
0.04000731928
0.04000731929
0.0400073193
0.04000731936
0.04000731958
0.04000732042
0.04000732347
0.04000733434
0.0400073717
0.04000749397
0.04000786788
0.04000890607
0.04001141193
0.04000731928
0.04000731928
0.04000731929
0.04000731931
0.04000731939
0.04000731973
0.04000732105
0.04000732619
0.04000734572
0.04000741795
0.04000767406
0.04000852686
0.04001110784
0.04001782341
0.04003140373
0.04000731928
0.04000731928
0.04000731929
0.04000731932
0.04000731943
0.04000731989
0.04000732177
0.04000732945
0.04000736038
0.04000748269
0.04000795148
0.04000965921
0.04001537393
0.04003185062
0.0400673847
0.04000731928
0.04000731928
0.04000731929
0.04000731932
0.04000731944
0.04000731996
0.04000732213
0.04000733119
0.04000736892
0.04000752469
0.04000815702
0.04001064274
0.04001983602
0.04004989961
0.04012341708
0.04000731928
0.04000731928
0.04000731929
0.04000731932
0.04000731943
0.04000731989
0.04000732177
0.04000732945
0.04000736038
0.04000748268
0.04000795147
0.04000965918
0.04001537382
0.04003185021
0.04006738367
0.04000731928
0.04000731928
0.04000731929
0.04000731931
0.04000731939
0.04000731973
0.04000732105
0.04000732619
0.04000734572
0.04000741795
0.04000767405
0.04000852683
0.04001110773
0.04001782306
0.04003140278
0.04000731928
0.04000731928
0.04000731929
0.0400073193
0.04000731936
0.04000731958
0.04000732042
0.04000732347
0.04000733434
0.0400073717
0.04000749397
0.04000786787
0.04000890601
0.04001141172
0.04001633779
0.04000731928
0.04000731928
0.04000731928
0.0400073193
0.04000731934
0.0400073195
0.04000732008
0.04000732207
0.04000732877
0.0400073503
0.040007416
0.04000760277
0.04000808646
0.04000919286
0.04001134473
0.04000731928
0.04000731928
0.04000731929
0.0400073193
0.04000731936
0.04000731956
0.04000732032
0.04000732303
0.04000733243
0.04000736385
0.04000746371
0.04000776023
0.04000856146
0.0400104567
0.04000731928
0.04000731928
0.04000731929
0.04000731931
0.04000731938
0.04000731968
0.04000732082
0.04000732515
0.04000734131
0.04000739977
0.04000760257
0.04000826398
0.04001022897
0.04001527079
0.04000731928
0.04000731928
0.04000731929
0.04000731932
0.04000731943
0.04000731989
0.04000732177
0.04000732945
0.04000736038
0.04000748269
0.04000795149
0.04000965925
0.04001537408
0.0400318513
0.04000731928
0.04000731928
0.04000731929
0.04000731933
0.04000731948
0.04000732012
0.0400073229
0.0400073349
0.04000738683
0.04000761036
0.04000855949
0.04001246923
0.04002761244
0.04007923203
0.04020894233
0.04000731928
0.04000731928
0.04000731929
0.04000731933
0.0400073195
0.04000732023
0.04000732349
0.04000733803
0.04000740381
0.04000770491
0.04000909623
0.04001554065
0.04004492094
0.04017057662
0.04059940449
0.04000731928
0.04000731928
0.04000731929
0.04000731933
0.04000731948
0.04000732012
0.0400073229
0.0400073349
0.04000738683
0.04000761036
0.04000855947
0.04001246912
0.04002761199
0.04007923019
0.04020893609
0.04000731928
0.04000731928
0.04000731929
0.04000731932
0.04000731943
0.04000731989
0.04000732177
0.04000732945
0.04000736038
0.04000748268
0.04000795147
0.04000965919
0.04001537384
0.04003185029
0.04006738377
0.04000731928
0.04000731928
0.04000731929
0.04000731931
0.04000731938
0.04000731968
0.04000732082
0.04000732515
0.04000734131
0.04000739977
0.04000760256
0.04000826395
0.04001022886
0.04001527044
0.04002542279
0.04000731928
0.04000731928
0.04000731929
0.0400073193
0.04000731936
0.04000731956
0.04000732032
0.04000732303
0.04000733243
0.04000736385
0.04000746371
0.04000776022
0.04000856142
0.04001045658
0.0400141678
0.04000731928
0.04000731928
0.04000731929
0.0400073193
0.04000731936
0.04000731959
0.04000732043
0.04000732348
0.04000733422
0.04000737085
0.04000749004
0.040007854
0.0400088691
0.04001134442
0.04000731928
0.04000731928
0.04000731929
0.04000731931
0.04000731939
0.04000731972
0.04000732101
0.04000732599
0.04000734501
0.04000741588
0.04000767128
0.04000854519
0.04001129947
0.04001884783
0.04000731928
0.04000731928
0.04000731929
0.04000731932
0.04000731944
0.04000731996
0.04000732213
0.04000733119
0.04000736892
0.0400075247
0.04000815704
0.04001064282
0.04001983638
0.04004990105
0.04000731928
0.04000731928
0.04000731929
0.04000731933
0.0400073195
0.04000732023
0.04000732349
0.04000733803
0.04000740381
0.04000770492
0.04000909626
0.04001554081
0.04004492187
0.04017058238
0.04000731928
0.04000731928
0.04000731929
0.04000731934
0.04000731953
0.04000732037
0.04000732423
0.04000734217
0.04000742807
0.04000785487
0.04001007747
0.04002234653
0.04009489606
0.04055785158
0.04377393863
0.04000731928
0.04000731928
0.04000731929
0.04000731933
0.0400073195
0.04000732023
0.04000732349
0.04000733803
0.04000740381
0.04000770491
0.04000909623
0.04001554068
0.04004492106
0.04017057704
0.04059940547
0.04000731928
0.04000731928
0.04000731929
0.04000731932
0.04000731944
0.04000731996
0.04000732213
0.04000733119
0.04000736892
0.04000752469
0.04000815703
0.04001064275
0.04001983607
0.04004989976
0.04012341729
0.04000731928
0.04000731928
0.04000731929
0.04000731931
0.04000731939
0.04000731972
0.04000732101
0.04000732599
0.04000734501
0.04000741588
0.04000767127
0.04000854516
0.04001129936
0.04001884748
0.04003473916
0.04000731928
0.04000731928
0.04000731929
0.0400073193
0.04000731936
0.04000731959
0.04000732043
0.04000732348
0.04000733422
0.04000737085
0.04000749004
0.04000785398
0.04000886906
0.0400113443
0.04001625078
0.04000731928
0.04000731928
0.04000731929
0.0400073193
0.04000731936
0.04000731956
0.04000732032
0.04000732303
0.04000733243
0.04000736385
0.04000746371
0.04000776023
0.04000856146
0.04001045668
0.04000731928
0.04000731928
0.04000731929
0.04000731931
0.04000731938
0.04000731968
0.04000732082
0.04000732515
0.04000734131
0.04000739977
0.04000760257
0.04000826397
0.04001022895
0.04001527069
0.04000731928
0.04000731928
0.04000731929
0.04000731932
0.04000731943
0.04000731989
0.04000732177
0.04000732945
0.04000736038
0.04000748269
0.04000795149
0.04000965925
0.04001537409
0.04003185108
0.04000731928
0.04000731928
0.04000731929
0.04000731933
0.04000731948
0.04000732012
0.0400073229
0.0400073349
0.04000738683
0.04000761036
0.0400085595
0.04001246929
0.04002761269
0.04007923287
0.04000731928
0.04000731928
0.04000731929
0.04000731933
0.0400073195
0.04000732023
0.04000732349
0.04000733803
0.04000740382
0.04000770492
0.04000909626
0.04001554083
0.04004492193
0.0401705824
0.04000731928
0.04000731928
0.04000731929
0.04000731933
0.04000731948
0.04000732012
0.0400073229
0.0400073349
0.04000738683
0.04000761036
0.0400085595
0.04001246927
0.04002761263
0.04007923284
0.04000731928
0.04000731928
0.04000731929
0.04000731932
0.04000731943
0.04000731989
0.04000732177
0.04000732945
0.04000736038
0.04000748269
0.04000795148
0.04000965924
0.04001537403
0.0400318509
0.0400673855
0.04000731928
0.04000731928
0.04000731929
0.04000731931
0.04000731938
0.04000731968
0.04000732082
0.04000732515
0.04000734131
0.04000739977
0.04000760256
0.04000826397
0.04001022892
0.0400152706
0.04002542314
0.04000731928
0.04000731928
0.04000731929
0.0400073193
0.04000731936
0.04000731956
0.04000732032
0.04000732303
0.04000733243
0.04000736385
0.04000746371
0.04000776022
0.04000856144
0.04001045662
0.04001416788
0.04000731928
0.04000731928
0.04000731928
0.0400073193
0.04000731934
0.0400073195
0.04000732008
0.04000732207
0.04000732877
0.0400073503
0.040007416
0.04000760277
0.04000808649
0.04000919292
0.04000731928
0.04000731928
0.04000731929
0.0400073193
0.04000731936
0.04000731958
0.04000732042
0.04000732347
0.04000733434
0.0400073717
0.04000749397
0.04000786789
0.04000890606
0.04001141187
0.04000731928
0.04000731928
0.04000731929
0.04000731931
0.04000731939
0.04000731973
0.04000732105
0.04000732619
0.04000734572
0.04000741795
0.04000767406
0.04000852687
0.04001110786
0.04001782344
0.04000731928
0.04000731928
0.04000731929
0.04000731932
0.04000731943
0.04000731989
0.04000732177
0.04000732945
0.04000736038
0.04000748269
0.04000795149
0.04000965926
0.04001537413
0.04003185115
0.04000731928
0.04000731928
0.04000731929
0.04000731932
0.04000731944
0.04000731996
0.04000732213
0.04000733119
0.04000736892
0.0400075247
0.04000815705
0.04001064284
0.04001983646
0.04004990115
0.04000731928
0.04000731928
0.04000731929
0.04000731932
0.04000731943
0.04000731989
0.04000732177
0.04000732945
0.04000736038
0.04000748269
0.04000795149
0.04000965926
0.0400153741
0.0400318511
0.04000731928
0.04000731928
0.04000731929
0.04000731931
0.04000731939
0.04000731973
0.04000732105
0.04000732619
0.04000734572
0.04000741795
0.04000767406
0.04000852687
0.04001110787
0.04001782353
0.04000731928
0.04000731928
0.04000731929
0.0400073193
0.04000731936
0.04000731958
0.04000732042
0.04000732347
0.04000733434
0.0400073717
0.04000749397
0.04000786788
0.04000890606
0.04001141187
0.04001633814
0.04000731928
0.04000731928
0.04000731928
0.0400073193
0.04000731934
0.0400073195
0.04000732008
0.04000732207
0.04000732877
0.0400073503
0.040007416
0.04000760277
0.04000808648
0.04000919291
0.04001134484
0.04000731928
0.04000731928
0.04000731928
0.04000731929
0.04000731933
0.04000731944
0.04000731984
0.04000732118
0.04000732548
0.04000733869
0.04000737715
0.04000748158
0.04000774108
0.04000831799
0.04000731928
0.04000731928
0.04000731928
0.0400073193
0.04000731934
0.04000731949
0.04000732005
0.04000732198
0.0400073285
0.04000734962
0.04000741456
0.04000760077
0.04000808701
0.04000920606
0.04000731928
0.04000731928
0.04000731929
0.0400073193
0.04000731936
0.04000731958
0.04000732042
0.04000732347
0.04000733434
0.0400073717
0.04000749398
0.04000786789
0.04000890607
0.04001141188
0.04000731928
0.04000731928
0.04000731929
0.04000731931
0.04000731938
0.04000731968
0.04000732082
0.04000732515
0.04000734131
0.04000739977
0.04000760257
0.04000826398
0.04001022898
0.04001527074
0.04000731928
0.04000731928
0.04000731929
0.04000731931
0.04000731939
0.04000731972
0.04000732101
0.04000732599
0.04000734501
0.04000741589
0.04000767128
0.0400085452
0.0400112995
0.04001884786
0.04000731928
0.04000731928
0.04000731929
0.04000731931
0.04000731938
0.04000731968
0.04000732082
0.04000732515
0.04000734131
0.04000739977
0.04000760257
0.04000826398
0.04001022897
0.04001527072
0.04000731928
0.04000731928
0.04000731929
0.0400073193
0.04000731936
0.04000731958
0.04000732042
0.04000732347
0.04000733434
0.0400073717
0.04000749397
0.04000786789
0.04000890607
0.04001141188
0.04000731928
0.04000731928
0.04000731928
0.0400073193
0.04000731934
0.04000731949
0.04000732005
0.04000732198
0.0400073285
0.04000734962
0.04000741456
0.04000760077
0.04000808701
0.04000920608
0.04000731928
0.04000731928
0.04000731928
0.04000731929
0.04000731933
0.04000731944
0.04000731984
0.04000732118
0.04000732548
0.04000733869
0.04000737715
0.04000748158
0.04000774108
0.040008318
0.04000943765
0.04000731928
0.04000731928
0.04000731928
0.04000731929
0.04000731932
0.04000731941
0.04000731971
0.04000732068
0.04000732369
0.04000733257
0.04000735741
0.04000742228
0.04000757817
0.04000791746
0.04000731928
0.04000731928
0.04000731928
0.04000731929
0.04000731933
0.04000731944
0.04000731984
0.04000732118
0.04000732548
0.04000733869
0.04000737715
0.04000748158
0.04000774109
0.040008318
0.04000731928
0.04000731928
0.04000731928
0.0400073193
0.04000731934
0.0400073195
0.04000732008
0.04000732207
0.04000732877
0.04000735031
0.040007416
0.04000760278
0.04000808649
0.04000919293
0.04000731928
0.04000731928
0.04000731929
0.0400073193
0.04000731936
0.04000731956
0.04000732032
0.04000732303
0.04000733243
0.04000736385
0.04000746372
0.04000776023
0.04000856147
0.0400104567
0.04000731928
0.04000731928
0.04000731929
0.0400073193
0.04000731936
0.04000731959
0.04000732043
0.04000732348
0.04000733422
0.04000737085
0.04000749004
0.040007854
0.04000886911
0.04001134442
0.04000731928
0.04000731928
0.04000731929
0.0400073193
0.04000731936
0.04000731956
0.04000732032
0.04000732303
0.04000733243
0.04000736385
0.04000746371
0.04000776023
0.04000856146
0.04001045668
0.04000731928
0.04000731928
0.04000731928
0.0400073193
0.04000731934
0.0400073195
0.04000732008
0.04000732207
0.04000732877
0.0400073503
0.040007416
0.04000760277
0.04000808649
0.04000919292
0.04000731928
0.04000731928
0.04000731928
0.04000731929
0.04000731933
0.04000731944
0.04000731984
0.04000732118
0.04000732548
0.04000733869
0.04000737715
0.04000748158
0.04000774109
0.040008318
0.04000731928
0.04000731928
0.04000731928
0.04000731929
0.04000731932
0.04000731941
0.04000731971
0.04000732068
0.04000732369
0.04000733257
0.04000735741
0.04000742228
0.04000757817
0.04000791746
)
;

boundaryField
{
    top
    {
        type            calculated;
        value           nonuniform List<scalar> 
134
(
0.04000731928
0.04000731928
0.04000731928
0.04000731928
0.04000731928
0.04000731928
0.04000731928
0.04000731928
0.04000731928
0.04000731928
0.04000731928
0.04000731928
0.04000731928
0.04000731928
0.04000731928
0.04000731928
0.04000731928
0.04000731928
0.04000731928
0.04000731928
0.04000731928
0.04000731929
0.04000731929
0.04000731929
0.04000731928
0.04000731928
0.04000731928
0.04000731929
0.04000731929
0.0400073193
0.0400073193
0.0400073193
0.0400073193
0.0400073193
0.04000731929
0.04000731929
0.04000731932
0.04000731933
0.04000731934
0.04000731936
0.04000731936
0.04000731936
0.04000731934
0.04000731933
0.04000731932
0.04000731941
0.04000731944
0.0400073195
0.04000731956
0.04000731959
0.04000731956
0.0400073195
0.04000731944
0.04000731941
0.04000731971
0.04000731984
0.04000732008
0.04000732032
0.04000732043
0.04000732032
0.04000732008
0.04000731984
0.04000731971
0.04000732068
0.04000732118
0.04000732207
0.04000732303
0.04000732348
0.04000732303
0.04000732207
0.04000732118
0.04000732068
0.04000732369
0.04000732548
0.04000732877
0.04000733243
0.04000733422
0.04000733243
0.04000732877
0.04000732548
0.04000732369
0.04000733257
0.04000733869
0.0400073503
0.04000736385
0.04000737085
0.04000736385
0.0400073503
0.04000733869
0.04000733257
0.04000735741
0.04000737715
0.040007416
0.04000746371
0.04000749004
0.04000746371
0.040007416
0.04000737715
0.04000735741
0.04000742228
0.04000748157
0.04000760277
0.04000776022
0.04000785398
0.04000776022
0.04000760277
0.04000748158
0.04000742228
0.04000757816
0.04000774107
0.04000808646
0.04000856142
0.04000886906
0.04000856144
0.04000808648
0.04000774108
0.04000757817
0.04000791743
0.04000831796
0.04000919286
0.04001045658
0.0400113443
0.04001045662
0.04000919291
0.040008318
0.04000791746
0.04000857601
0.04000943757
0.04001134473
0.0400141678
0.04001625078
0.04001416788
0.04001134484
0.04000943765
)
;
    }
    bottom
    {
        type            calculated;
        value           nonuniform List<scalar> 
127
(
0.04000731928
0.04000731928
0.04000731928
0.04000731928
0.04000731928
0.04000731928
0.04000731928
0.04000731928
0.04000731928
0.04000731928
0.04000731928
0.04000731928
0.04000731928
0.04000731928
0.04000731928
0.04000731928
0.04000731928
0.04000731928
0.04000731928
0.04000731928
0.04000731928
0.04000731929
0.04000731929
0.04000731929
0.04000731928
0.04000731928
0.04000731928
0.04000731929
0.04000731929
0.0400073193
0.0400073193
0.0400073193
0.0400073193
0.0400073193
0.04000731929
0.04000731929
0.04000731932
0.04000731933
0.04000731934
0.04000731936
0.04000731936
0.04000731936
0.04000731934
0.04000731933
0.04000731932
0.04000731941
0.04000731944
0.0400073195
0.04000731956
0.04000731959
0.04000731956
0.0400073195
0.04000731944
0.04000731941
0.04000731971
0.04000731984
0.04000732008
0.04000732032
0.04000732043
0.04000732032
0.04000732008
0.04000731984
0.04000731971
0.04000732068
0.04000732118
0.04000732207
0.04000732303
0.04000732348
0.04000732303
0.04000732207
0.04000732118
0.04000732068
0.04000732369
0.04000732548
0.04000732877
0.04000733243
0.04000733422
0.04000733243
0.04000732877
0.04000732548
0.04000732369
0.04000733257
0.04000733869
0.0400073503
0.04000736385
0.04000737085
0.04000736385
0.0400073503
0.04000733869
0.04000733257
0.04000735741
0.04000737715
0.040007416
0.04000746371
0.04000749004
0.04000746371
0.040007416
0.04000737715
0.04000735741
0.04000742228
0.04000748158
0.04000760278
0.04000776023
0.040007854
0.04000776023
0.04000760277
0.04000748158
0.04000742228
0.04000757817
0.04000774109
0.04000808649
0.04000856146
0.0400088691
0.04000856146
0.04000808649
0.04000774108
0.04000757817
0.04000791746
0.04000831801
0.04000919294
0.0400104567
0.04001134442
0.04001045668
0.04000919292
0.04000831799
0.04000791746
0.04000857606
)
;
    }
    side-walls
    {
        type            calculated;
        value           nonuniform List<scalar> 
261
(
0.04000731928
0.04000731928
0.04000731928
0.04000731928
0.04000731928
0.04000731928
0.04000731928
0.04000731928
0.04000731928
0.04000731928
0.04000731928
0.04000731928
0.04000731928
0.04000731928
0.04000731928
0.04000731928
0.04000731928
0.04000731928
0.04000731928
0.04000731928
0.04000731928
0.04000731929
0.04000731929
0.04000731929
0.04000731928
0.04000731928
0.04000731928
0.04000731929
0.04000731929
0.0400073193
0.0400073193
0.0400073193
0.0400073193
0.0400073193
0.04000731929
0.04000731929
0.04000731932
0.04000731933
0.04000731934
0.04000731936
0.04000731936
0.04000731936
0.04000731934
0.04000731933
0.04000731932
0.04000731941
0.04000731944
0.0400073195
0.04000731956
0.04000731959
0.04000731956
0.0400073195
0.04000731944
0.04000731941
0.04000731971
0.04000731984
0.04000732008
0.04000732032
0.04000732043
0.04000732032
0.04000732008
0.04000731984
0.04000731971
0.04000732068
0.04000732118
0.04000732207
0.04000732303
0.04000732348
0.04000732303
0.04000732207
0.04000732118
0.04000732068
0.04000732369
0.04000732548
0.04000732877
0.04000733243
0.04000733422
0.04000733243
0.04000732877
0.04000732548
0.04000732369
0.04000733257
0.04000733869
0.0400073503
0.04000736385
0.04000737085
0.04000736385
0.0400073503
0.04000733869
0.04000733257
0.04000735741
0.04000737715
0.040007416
0.04000746371
0.04000749003
0.04000746371
0.040007416
0.04000737715
0.04000735741
0.04000742228
0.04000748158
0.04000760277
0.04000776022
0.04000785398
0.04000776022
0.04000760277
0.04000748157
0.04000742228
0.04000757817
0.04000774108
0.04000808647
0.04000856142
0.04000886906
0.04000856142
0.04000808646
0.04000774107
0.04000757816
0.04000791746
0.04000831799
0.04000919289
0.0400104566
0.04001134429
0.04001045658
0.04000919286
0.04000831796
0.04000791743
0.04000857606
0.04000943763
0.0400113448
0.04001416784
0.04001625079
0.04001416781
0.04001134473
0.04000943757
0.04000857601
0.04000731928
0.04000731928
0.04000731928
0.04000731928
0.04000731928
0.04000731928
0.04000731928
0.04000731928
0.04000731928
0.04000731928
0.04000731928
0.04000731928
0.04000731928
0.04000731928
0.04000731928
0.04000731928
0.04000731928
0.04000731928
0.04000731928
0.04000731928
0.04000731928
0.04000731929
0.04000731929
0.04000731929
0.04000731928
0.04000731928
0.04000731928
0.04000731929
0.04000731929
0.0400073193
0.0400073193
0.0400073193
0.0400073193
0.0400073193
0.04000731929
0.04000731929
0.04000731932
0.04000731933
0.04000731934
0.04000731936
0.04000731936
0.04000731936
0.04000731934
0.04000731933
0.04000731932
0.04000731941
0.04000731944
0.0400073195
0.04000731956
0.04000731959
0.04000731956
0.0400073195
0.04000731944
0.04000731941
0.04000731971
0.04000731984
0.04000732008
0.04000732032
0.04000732043
0.04000732032
0.04000732008
0.04000731984
0.04000731971
0.04000732068
0.04000732118
0.04000732207
0.04000732303
0.04000732348
0.04000732303
0.04000732207
0.04000732118
0.04000732068
0.04000732369
0.04000732548
0.04000732877
0.04000733243
0.04000733422
0.04000733243
0.04000732877
0.04000732548
0.04000732369
0.04000733257
0.04000733869
0.04000735031
0.04000736385
0.04000737085
0.04000736385
0.0400073503
0.04000733869
0.04000733257
0.04000735741
0.04000737715
0.040007416
0.04000746372
0.04000749004
0.04000746371
0.040007416
0.04000737715
0.04000735741
0.04000742228
0.04000748158
0.04000760278
0.04000776023
0.040007854
0.04000776023
0.04000760277
0.04000748158
0.04000742228
0.04000757817
0.04000774109
0.04000808649
0.04000856147
0.04000886911
0.04000856146
0.04000808649
0.04000774109
0.04000757817
0.04000791746
0.040008318
0.04000919293
0.0400104567
0.04001134442
0.04001045668
0.04000919292
0.040008318
0.04000791746
)
;
    }
    inlet
    {
        type            calculated;
        value           nonuniform List<scalar> 
81
(
0.04000731928
0.04000731928
0.04000731928
0.04000731928
0.04000731928
0.04000731928
0.04000731928
0.04000731928
0.04000731928
0.04000731928
0.04000731928
0.04000731928
0.04000731928
0.04000731928
0.04000731928
0.04000731928
0.04000731928
0.04000731928
0.04000731928
0.04000731928
0.04000731928
0.04000731928
0.04000731928
0.04000731928
0.04000731928
0.04000731928
0.04000731928
0.04000731928
0.04000731928
0.04000731928
0.04000731928
0.04000731928
0.04000731928
0.04000731928
0.04000731928
0.04000731928
0.04000731928
0.04000731928
0.04000731928
0.04000731928
0.04000731928
0.04000731928
0.04000731928
0.04000731928
0.04000731928
0.04000731928
0.04000731928
0.04000731928
0.04000731928
0.04000731928
0.04000731928
0.04000731928
0.04000731928
0.04000731928
0.04000731928
0.04000731928
0.04000731928
0.04000731928
0.04000731928
0.04000731928
0.04000731928
0.04000731928
0.04000731928
0.04000731928
0.04000731928
0.04000731928
0.04000731928
0.04000731928
0.04000731928
0.04000731928
0.04000731928
0.04000731928
0.04000731928
0.04000731928
0.04000731928
0.04000731928
0.04000731928
0.04000731928
0.04000731928
0.04000731928
0.04000731928
)
;
    }
    outlet
    {
        type            calculated;
        value           nonuniform 0();
    }
    procBoundary0to1
    {
        type            processor;
        value           nonuniform List<scalar> 
97
(
0.04000970835
0.04000943767
0.04001130817
0.04001480285
0.0400198508
0.0400233969
0.04001985075
0.04001480274
0.04001130807
0.04000970827
0.04000943767
0.04000943767
0.0400148555
0.04001633821
0.04002366684
0.04003908247
0.04005337405
0.04003908226
0.04002366653
0.04001485527
0.04001130807
0.04001134487
0.04001633821
0.04001633821
0.04004928193
0.04006738592
0.04010533449
0.04017748487
0.04010533337
0.04004928089
0.0400236665
0.04001480273
0.04001416796
0.04002542334
0.04006738592
0.04006738592
0.04029476638
0.04059940829
0.04066039433
0.04029476196
0.04010533339
0.04003908216
0.0400198507
0.04001625091
0.04003473952
0.04012341838
0.04059940829
0.04059940829
0.0422196018
0.04059940781
0.04066039433
0.04020893915
0.04017748473
0.04005337386
0.04002339684
0.0400141679
0.04002542305
0.0400673846
0.0402089385
0.04059940781
0.04020893915
0.04020893915
0.04010533467
0.0400314036
0.04003908253
0.04001985081
0.04001134479
0.04001633793
0.04003140315
0.04006738467
0.04012341832
0.04006738453
0.0400314036
0.0400314036
0.04002366686
0.04001138425
0.04001480286
0.0400094376
0.04001138417
0.04001633796
0.0400254231
0.04003473948
0.04002542305
0.04001633798
0.04001138425
0.04001138425
0.04001130816
0.04000857605
0.04000857603
0.04000943761
0.04001134481
0.04001416791
0.04001625088
0.04001416788
0.04001134479
0.04000943762
0.04000857605
)
;
    }
}


// ************************************************************************* //
