/*--------------------------------*- C++ -*----------------------------------*\
| =========                 |                                                 |
| \\      /  F ield         | OpenFOAM: The Open Source CFD Toolbox           |
|  \\    /   O peration     | Version:  4.x                                   |
|   \\  /    A nd           | Web:      www.OpenFOAM.org                      |
|    \\/     M anipulation  |                                                 |
\*---------------------------------------------------------------------------*/
FoamFile
{
    version     2.0;
    format      ascii;
    class       volScalarField;
    location    "4000";
    object      X_H2;
}
// * * * * * * * * * * * * * * * * * * * * * * * * * * * * * * * * * * * * * //

dimensions      [0 0 0 0 0 0 0];

internalField   nonuniform List<scalar> 
1175
(
0.0598766895
0.0598766895
0.0598766895
0.05987668949
0.05987668947
0.05987668938
0.05987668911
0.05987668821
0.05987668545
0.05987667729
0.05987665448
0.05987659491
0.05987645172
0.05987614008
0.05987553512
0.0598766895
0.0598766895
0.0598766895
0.05987668949
0.05987668946
0.05987668935
0.05987668898
0.05987668775
0.05987668381
0.05987667167
0.05987663634
0.05987654042
0.05987630201
0.05987577198
0.05987474331
0.0598766895
0.0598766895
0.0598766895
0.05987668948
0.05987668944
0.05987668929
0.05987668877
0.05987668693
0.05987668079
0.059876661
0.05987660065
0.05987642904
0.05987598457
0.05987496783
0.0598729903
0.0598766895
0.0598766895
0.05987668949
0.05987668948
0.05987668943
0.05987668924
0.05987668854
0.05987668606
0.05987667742
0.05987664856
0.0598765568
0.05987628432
0.05987554798
0.0598738061
0.05987039498
0.0598766895
0.0598766895
0.05987668949
0.05987668948
0.05987668942
0.05987668922
0.05987668844
0.05987668565
0.05987667577
0.05987664212
0.0598765326
0.05987619813
0.05987526514
0.05987298988
0.05986847966
0.0598766895
0.0598766895
0.05987668949
0.05987668948
0.05987668943
0.05987668924
0.05987668854
0.05987668606
0.05987667742
0.05987664856
0.0598765568
0.05987628432
0.05987554798
0.05987380611
0.05987039501
0.0598766895
0.0598766895
0.0598766895
0.05987668948
0.05987668944
0.05987668929
0.05987668877
0.05987668693
0.05987668079
0.059876661
0.05987660065
0.05987642905
0.05987598458
0.05987496785
0.05987299037
0.0598766895
0.0598766895
0.0598766895
0.05987668949
0.05987668946
0.05987668935
0.05987668898
0.05987668775
0.05987668381
0.05987667167
0.05987663635
0.05987654042
0.05987630202
0.05987577201
0.05987474337
0.0598766895
0.0598766895
0.0598766895
0.05987668949
0.05987668947
0.05987668938
0.05987668911
0.05987668821
0.05987668545
0.05987667729
0.05987665448
0.05987659491
0.05987645173
0.0598761401
0.05987553517
0.0598766895
0.0598766895
0.0598766895
0.05987668949
0.05987668946
0.05987668935
0.05987668898
0.05987668775
0.05987668381
0.05987667167
0.05987663634
0.05987654042
0.05987630201
0.05987577196
0.0598766895
0.0598766895
0.0598766895
0.05987668948
0.05987668945
0.0598766893
0.05987668879
0.05987668702
0.05987668103
0.05987666163
0.05987660197
0.05987643087
0.05987598405
0.05987495566
0.05987295388
0.0598766895
0.0598766895
0.05987668949
0.05987668948
0.05987668943
0.05987668922
0.05987668845
0.05987668565
0.05987667566
0.05987664134
0.05987652898
0.05987618535
0.05987523113
0.0598729278
0.05986839952
0.0598766895
0.0598766895
0.05987668949
0.05987668948
0.05987668941
0.05987668913
0.05987668809
0.0598766841
0.05987666926
0.05987661554
0.05987642916
0.05987582122
0.05987401486
0.05986937966
0.05986004533
0.0598766895
0.0598766895
0.05987668949
0.05987668947
0.0598766894
0.0598766891
0.05987668791
0.05987668333
0.05987666586
0.05987660073
0.05987636599
0.05987556265
0.05987303044
0.0598660899
0.05985147658
0.0598766895
0.0598766895
0.05987668949
0.05987668948
0.05987668941
0.05987668913
0.05987668809
0.0598766841
0.05987666926
0.05987661554
0.05987642917
0.05987582122
0.05987401488
0.05986937972
0.05986004547
0.0598766895
0.0598766895
0.05987668949
0.05987668948
0.05987668943
0.05987668922
0.05987668845
0.05987668565
0.05987667566
0.05987664134
0.05987652898
0.05987618536
0.05987523116
0.05987292789
0.05986839973
0.0598766895
0.0598766895
0.0598766895
0.05987668948
0.05987668945
0.0598766893
0.05987668879
0.05987668702
0.05987668103
0.05987666163
0.05987660197
0.05987643088
0.05987598407
0.05987495573
0.05987295406
0.0598766895
0.0598766895
0.0598766895
0.05987668949
0.05987668946
0.05987668935
0.05987668898
0.05987668775
0.05987668381
0.05987667167
0.05987663635
0.05987654042
0.05987630202
0.05987577201
0.05987474337
0.0598766895
0.0598766895
0.0598766895
0.05987668948
0.05987668944
0.05987668929
0.05987668877
0.05987668693
0.05987668079
0.059876661
0.05987660065
0.05987642904
0.05987598455
0.05987496776
0.0598766895
0.0598766895
0.05987668949
0.05987668948
0.05987668943
0.05987668922
0.05987668845
0.05987668565
0.05987667566
0.05987664134
0.05987652898
0.05987618534
0.05987523111
0.05987292769
0.0598766895
0.0598766895
0.05987668949
0.05987668947
0.0598766894
0.05987668909
0.05987668787
0.05987668315
0.05987666521
0.05987659883
0.05987636344
0.05987557951
0.0598732067
0.05986703218
0.05985454557
0.0598766895
0.0598766895
0.05987668949
0.05987668947
0.05987668936
0.05987668894
0.05987668721
0.05987668016
0.05987665173
0.05987653932
0.05987610838
0.05987453831
0.05986928356
0.05985413141
0.05982145196
0.0598766895
0.0598766895
0.05987668949
0.05987668946
0.05987668935
0.05987668887
0.05987668688
0.05987667856
0.05987664389
0.0598765007
0.05987591937
0.05987363379
0.05986517942
0.05983752857
0.05976990509
0.0598766895
0.0598766895
0.05987668949
0.05987668947
0.05987668936
0.05987668894
0.05987668721
0.05987668016
0.05987665173
0.05987653932
0.05987610839
0.05987453834
0.05986928366
0.05985413177
0.05982145293
0.0598766895
0.0598766895
0.05987668949
0.05987668947
0.0598766894
0.05987668909
0.05987668787
0.05987668315
0.05987666521
0.05987659883
0.05987636345
0.05987557954
0.0598732068
0.05986703252
0.0598545465
0.0598766895
0.0598766895
0.05987668949
0.05987668948
0.05987668943
0.05987668922
0.05987668845
0.05987668565
0.05987667566
0.05987664134
0.05987652898
0.05987618536
0.05987523116
0.05987292789
0.05986839973
0.0598766895
0.0598766895
0.0598766895
0.05987668948
0.05987668944
0.05987668929
0.05987668877
0.05987668693
0.05987668079
0.059876661
0.05987660065
0.05987642904
0.05987598458
0.05987496785
0.05987299036
0.0598766895
0.0598766895
0.05987668949
0.05987668948
0.05987668943
0.05987668924
0.05987668854
0.05987668606
0.05987667742
0.05987664856
0.0598765568
0.05987628431
0.05987554794
0.05987380598
0.0598766895
0.0598766895
0.05987668949
0.05987668948
0.05987668941
0.05987668913
0.05987668809
0.0598766841
0.05987666926
0.05987661554
0.05987642916
0.05987582119
0.05987401477
0.05986937937
0.0598766895
0.0598766895
0.05987668949
0.05987668947
0.05987668936
0.05987668894
0.05987668721
0.05987668016
0.05987665173
0.05987653932
0.05987610837
0.05987453827
0.0598692834
0.05985413069
0.0598766895
0.0598766895
0.05987668949
0.05987668946
0.05987668932
0.05987668873
0.05987668618
0.05987667514
0.05987662742
0.05987642194
0.0598755493
0.0598719541
0.05985802717
0.05981054768
0.05969123011
0.0598766895
0.05987668949
0.05987668949
0.05987668945
0.0598766893
0.05987668862
0.05987668563
0.05987667227
0.0598766118
0.05987633499
0.05987505568
0.059869129
0.05984210486
0.05972650979
0.05933196959
0.0598766895
0.0598766895
0.05987668949
0.05987668946
0.05987668932
0.05987668873
0.05987668618
0.05987667514
0.05987662742
0.05987642194
0.05987554932
0.05987195419
0.05985802758
0.05981054941
0.05969123617
0.0598766895
0.0598766895
0.05987668949
0.05987668947
0.05987668936
0.05987668894
0.05987668721
0.05987668016
0.05987665173
0.05987653932
0.05987610838
0.05987453832
0.05986928363
0.05985413169
0.05982145283
0.0598766895
0.0598766895
0.05987668949
0.05987668948
0.05987668941
0.05987668913
0.05987668809
0.0598766841
0.05987666926
0.05987661554
0.05987642916
0.05987582122
0.05987401488
0.05986937972
0.0598600455
0.0598766895
0.0598766895
0.05987668949
0.05987668948
0.05987668943
0.05987668924
0.05987668854
0.05987668606
0.05987667742
0.05987664856
0.0598765568
0.05987628432
0.05987554798
0.05987380611
0.05987039502
0.0598766895
0.0598766895
0.05987668949
0.05987668948
0.05987668942
0.05987668922
0.05987668844
0.05987668565
0.05987667577
0.05987664212
0.0598765326
0.05987619811
0.05987526509
0.05987298973
0.0598766895
0.0598766895
0.05987668949
0.05987668947
0.0598766894
0.0598766891
0.05987668791
0.05987668333
0.05987666586
0.05987660073
0.05987636598
0.05987556261
0.05987303031
0.05986608949
0.0598766895
0.0598766895
0.05987668949
0.05987668946
0.05987668935
0.05987668887
0.05987668688
0.05987667856
0.05987664389
0.0598765007
0.05987591935
0.05987363371
0.05986517903
0.05983752695
0.0598766895
0.0598766895
0.05987668949
0.05987668945
0.0598766893
0.05987668862
0.05987668563
0.05987667227
0.0598766118
0.05987633499
0.05987505565
0.05986912884
0.05984210391
0.05972650388
0.0598766895
0.05987668949
0.05987668949
0.05987668945
0.05987668927
0.0598766885
0.05987668495
0.05987666847
0.0598765895
0.05987619708
0.05987415314
0.05986286822
0.0597961268
0.05937017173
0.05641075631
0.0598766895
0.05987668949
0.05987668949
0.05987668945
0.0598766893
0.05987668862
0.05987668563
0.05987667227
0.0598766118
0.05987633499
0.05987505567
0.05986912896
0.05984210467
0.05972650913
0.05933196851
0.0598766895
0.0598766895
0.05987668949
0.05987668946
0.05987668935
0.05987668887
0.05987668688
0.05987667856
0.05987664389
0.0598765007
0.05987591937
0.05987363377
0.05986517934
0.05983752836
0.05976990486
0.0598766895
0.0598766895
0.05987668949
0.05987668947
0.0598766894
0.0598766891
0.05987668791
0.05987668333
0.05987666586
0.05987660073
0.05987636599
0.05987556264
0.05987303043
0.05986608989
0.05985147661
0.0598766895
0.0598766895
0.05987668949
0.05987668948
0.05987668942
0.05987668922
0.05987668844
0.05987668565
0.05987667577
0.05987664212
0.0598765326
0.05987619813
0.05987526514
0.05987298987
0.05986847966
0.0598766895
0.0598766895
0.05987668949
0.05987668948
0.05987668943
0.05987668924
0.05987668854
0.05987668606
0.05987667742
0.05987664856
0.0598765568
0.05987628431
0.05987554794
0.05987380599
0.0598766895
0.0598766895
0.05987668949
0.05987668948
0.05987668941
0.05987668913
0.05987668809
0.0598766841
0.05987666926
0.05987661554
0.05987642916
0.0598758212
0.05987401478
0.05986937943
0.0598766895
0.0598766895
0.05987668949
0.05987668947
0.05987668936
0.05987668894
0.05987668721
0.05987668016
0.05987665173
0.05987653932
0.05987610837
0.05987453826
0.05986928337
0.05985413079
0.0598766895
0.0598766895
0.05987668949
0.05987668946
0.05987668932
0.05987668873
0.05987668618
0.05987667514
0.05987662742
0.05987642193
0.05987554929
0.05987195403
0.05985802685
0.05981054647
0.0598766895
0.05987668949
0.05987668949
0.05987668945
0.0598766893
0.05987668862
0.05987668563
0.05987667227
0.0598766118
0.05987633498
0.05987505564
0.0598691288
0.05984210378
0.05972650357
0.0598766895
0.0598766895
0.05987668949
0.05987668946
0.05987668932
0.05987668873
0.05987668618
0.05987667514
0.05987662742
0.05987642193
0.05987554929
0.05987195405
0.05985802693
0.05981054665
0.0598766895
0.0598766895
0.05987668949
0.05987668947
0.05987668936
0.05987668894
0.05987668721
0.05987668016
0.05987665173
0.05987653932
0.05987610837
0.05987453828
0.05986928344
0.05985413107
0.05982145104
0.0598766895
0.0598766895
0.05987668949
0.05987668948
0.05987668941
0.05987668913
0.05987668809
0.0598766841
0.05987666926
0.05987661554
0.05987642916
0.05987582121
0.05987401482
0.05986937957
0.05986004516
0.0598766895
0.0598766895
0.05987668949
0.05987668948
0.05987668943
0.05987668924
0.05987668854
0.05987668606
0.05987667742
0.05987664856
0.0598765568
0.05987628432
0.05987554796
0.05987380607
0.05987039494
0.0598766895
0.0598766895
0.0598766895
0.05987668948
0.05987668944
0.05987668929
0.05987668877
0.05987668693
0.05987668079
0.059876661
0.05987660064
0.05987642903
0.05987598455
0.05987496778
0.0598766895
0.0598766895
0.05987668949
0.05987668948
0.05987668943
0.05987668922
0.05987668845
0.05987668565
0.05987667566
0.05987664134
0.05987652898
0.05987618534
0.0598752311
0.05987292773
0.0598766895
0.0598766895
0.05987668949
0.05987668947
0.0598766894
0.05987668909
0.05987668787
0.05987668315
0.05987666521
0.05987659882
0.05987636344
0.05987557949
0.05987320665
0.05986703209
0.0598766895
0.0598766895
0.05987668949
0.05987668947
0.05987668936
0.05987668894
0.05987668721
0.05987668016
0.05987665173
0.05987653932
0.05987610837
0.05987453825
0.05986928332
0.05985413071
0.0598766895
0.0598766895
0.05987668949
0.05987668946
0.05987668935
0.05987668887
0.05987668688
0.05987667856
0.05987664388
0.05987650069
0.05987591935
0.05987363368
0.05986517893
0.05983752681
0.0598766895
0.0598766895
0.05987668949
0.05987668947
0.05987668936
0.05987668894
0.05987668721
0.05987668016
0.05987665173
0.05987653932
0.05987610837
0.05987453825
0.05986928336
0.0598541308
0.0598766895
0.0598766895
0.05987668949
0.05987668947
0.0598766894
0.05987668909
0.05987668787
0.05987668315
0.05987666521
0.05987659882
0.05987636344
0.0598755795
0.05987320665
0.05986703204
0.0598766895
0.0598766895
0.05987668949
0.05987668948
0.05987668943
0.05987668922
0.05987668845
0.05987668565
0.05987667566
0.05987664134
0.05987652898
0.05987618534
0.05987523111
0.05987292775
0.05986839938
0.0598766895
0.0598766895
0.0598766895
0.05987668948
0.05987668944
0.05987668929
0.05987668877
0.05987668693
0.05987668079
0.059876661
0.05987660065
0.05987642904
0.05987598456
0.0598749678
0.05987299026
0.0598766895
0.0598766895
0.0598766895
0.05987668949
0.05987668946
0.05987668935
0.05987668898
0.05987668775
0.05987668381
0.05987667167
0.05987663634
0.05987654042
0.05987630201
0.05987577197
0.0598766895
0.0598766895
0.0598766895
0.05987668948
0.05987668945
0.0598766893
0.05987668879
0.05987668702
0.05987668103
0.05987666163
0.05987660196
0.05987643087
0.05987598404
0.05987495565
0.0598766895
0.0598766895
0.05987668949
0.05987668948
0.05987668943
0.05987668922
0.05987668845
0.05987668565
0.05987667566
0.05987664134
0.05987652898
0.05987618533
0.05987523109
0.05987292771
0.0598766895
0.0598766895
0.05987668949
0.05987668948
0.05987668941
0.05987668913
0.05987668809
0.0598766841
0.05987666926
0.05987661554
0.05987642915
0.05987582119
0.05987401476
0.05986937939
0.0598766895
0.0598766895
0.05987668949
0.05987668947
0.0598766894
0.0598766891
0.05987668791
0.05987668333
0.05987666586
0.05987660072
0.05987636598
0.0598755626
0.05987303028
0.05986608946
0.0598766895
0.0598766895
0.05987668949
0.05987668948
0.05987668941
0.05987668913
0.05987668809
0.0598766841
0.05987666926
0.05987661554
0.05987642916
0.05987582119
0.05987401477
0.05986937942
0.0598766895
0.0598766895
0.05987668949
0.05987668948
0.05987668943
0.05987668922
0.05987668845
0.05987668565
0.05987667566
0.05987664134
0.05987652898
0.05987618534
0.0598752311
0.05987292772
0.0598766895
0.0598766895
0.0598766895
0.05987668948
0.05987668945
0.0598766893
0.05987668879
0.05987668702
0.05987668103
0.05987666163
0.05987660196
0.05987643087
0.05987598404
0.05987495564
0.0598766895
0.0598766895
0.0598766895
0.05987668949
0.05987668946
0.05987668935
0.05987668898
0.05987668775
0.05987668381
0.05987667167
0.05987663634
0.05987654042
0.05987630201
0.05987577197
0.05987474328
0.0598766895
0.0598766895
0.0598766895
0.05987668949
0.05987668947
0.05987668938
0.05987668911
0.05987668821
0.05987668545
0.05987667729
0.05987665448
0.05987659491
0.05987645172
0.05987614007
0.0598766895
0.0598766895
0.0598766895
0.05987668949
0.05987668946
0.05987668935
0.05987668898
0.05987668775
0.05987668381
0.05987667167
0.05987663634
0.05987654042
0.059876302
0.05987577196
0.0598766895
0.0598766895
0.0598766895
0.05987668948
0.05987668944
0.0598766893
0.05987668877
0.05987668693
0.05987668079
0.059876661
0.05987660064
0.05987642903
0.05987598454
0.05987496777
0.0598766895
0.0598766895
0.05987668949
0.05987668948
0.05987668943
0.05987668924
0.05987668854
0.05987668606
0.05987667742
0.05987664856
0.05987655679
0.05987628431
0.05987554793
0.05987380598
0.0598766895
0.0598766895
0.05987668949
0.05987668948
0.05987668942
0.05987668922
0.05987668844
0.05987668565
0.05987667577
0.05987664212
0.0598765326
0.05987619811
0.05987526508
0.05987298973
0.0598766895
0.0598766895
0.05987668949
0.05987668948
0.05987668943
0.05987668924
0.05987668854
0.05987668606
0.05987667742
0.05987664856
0.05987655679
0.05987628431
0.05987554794
0.059873806
0.0598766895
0.0598766895
0.0598766895
0.05987668948
0.05987668944
0.05987668929
0.05987668877
0.05987668693
0.05987668079
0.059876661
0.05987660064
0.05987642904
0.05987598455
0.05987496778
0.0598766895
0.0598766895
0.0598766895
0.05987668949
0.05987668946
0.05987668935
0.05987668898
0.05987668775
0.05987668381
0.05987667167
0.05987663634
0.05987654042
0.05987630201
0.05987577196
0.0598766895
0.0598766895
0.0598766895
0.05987668949
0.05987668947
0.05987668938
0.05987668911
0.05987668821
0.05987668545
0.05987667729
0.05987665448
0.05987659491
0.05987645172
0.05987614007
)
;

boundaryField
{
    top
    {
        type            calculated;
        value           nonuniform List<scalar> 
134
(
0.0598766895
0.0598766895
0.0598766895
0.0598766895
0.0598766895
0.0598766895
0.0598766895
0.0598766895
0.0598766895
0.0598766895
0.0598766895
0.0598766895
0.0598766895
0.0598766895
0.0598766895
0.0598766895
0.0598766895
0.0598766895
0.0598766895
0.0598766895
0.0598766895
0.05987668949
0.05987668949
0.05987668949
0.0598766895
0.0598766895
0.0598766895
0.05987668949
0.05987668949
0.05987668948
0.05987668948
0.05987668948
0.05987668948
0.05987668948
0.05987668949
0.05987668949
0.05987668947
0.05987668946
0.05987668944
0.05987668943
0.05987668942
0.05987668943
0.05987668944
0.05987668946
0.05987668947
0.05987668938
0.05987668935
0.05987668929
0.05987668924
0.05987668922
0.05987668924
0.05987668929
0.05987668935
0.05987668938
0.05987668911
0.05987668898
0.05987668877
0.05987668854
0.05987668844
0.05987668854
0.05987668877
0.05987668898
0.05987668911
0.05987668821
0.05987668775
0.05987668693
0.05987668606
0.05987668565
0.05987668606
0.05987668693
0.05987668775
0.05987668821
0.05987668545
0.05987668381
0.05987668079
0.05987667742
0.05987667577
0.05987667742
0.05987668079
0.05987668381
0.05987668545
0.05987667729
0.05987667167
0.059876661
0.05987664856
0.05987664212
0.05987664856
0.059876661
0.05987667167
0.05987667729
0.05987665448
0.05987663635
0.05987660065
0.0598765568
0.0598765326
0.0598765568
0.05987660065
0.05987663634
0.05987665448
0.05987659491
0.05987654042
0.05987642904
0.05987628432
0.05987619813
0.05987628432
0.05987642904
0.05987654042
0.05987659491
0.05987645173
0.05987630202
0.05987598458
0.05987554798
0.05987526514
0.05987554796
0.05987598456
0.05987630201
0.05987645172
0.0598761401
0.05987577201
0.05987496785
0.05987380611
0.05987298987
0.05987380607
0.0598749678
0.05987577197
0.05987614007
0.05987553517
0.05987474337
0.05987299036
0.05987039502
0.05986847966
0.05987039494
0.05987299026
0.05987474328
)
;
    }
    bottom
    {
        type            calculated;
        value           nonuniform List<scalar> 
127
(
0.0598766895
0.0598766895
0.0598766895
0.0598766895
0.0598766895
0.0598766895
0.0598766895
0.0598766895
0.0598766895
0.0598766895
0.0598766895
0.0598766895
0.0598766895
0.0598766895
0.0598766895
0.0598766895
0.0598766895
0.0598766895
0.0598766895
0.0598766895
0.0598766895
0.05987668949
0.05987668949
0.05987668949
0.0598766895
0.0598766895
0.0598766895
0.05987668949
0.05987668949
0.05987668948
0.05987668948
0.05987668948
0.05987668948
0.05987668948
0.05987668949
0.05987668949
0.05987668947
0.05987668946
0.05987668944
0.05987668943
0.05987668942
0.05987668943
0.05987668944
0.05987668946
0.05987668947
0.05987668938
0.05987668935
0.05987668929
0.05987668924
0.05987668922
0.05987668924
0.05987668929
0.05987668935
0.05987668938
0.05987668911
0.05987668898
0.05987668877
0.05987668854
0.05987668844
0.05987668854
0.05987668877
0.05987668898
0.05987668911
0.05987668821
0.05987668775
0.05987668693
0.05987668606
0.05987668565
0.05987668606
0.05987668693
0.05987668775
0.05987668821
0.05987668545
0.05987668381
0.05987668079
0.05987667742
0.05987667577
0.05987667742
0.05987668079
0.05987668381
0.05987668545
0.05987667729
0.05987667167
0.059876661
0.05987664856
0.05987664212
0.05987664856
0.059876661
0.05987667167
0.05987667729
0.05987665448
0.05987663634
0.05987660065
0.0598765568
0.0598765326
0.0598765568
0.05987660064
0.05987663634
0.05987665448
0.05987659491
0.05987654042
0.05987642904
0.05987628431
0.05987619811
0.05987628431
0.05987642903
0.05987654042
0.05987659491
0.05987645172
0.05987630201
0.05987598455
0.05987554794
0.05987526509
0.05987554794
0.05987598455
0.05987630201
0.05987645172
0.05987614008
0.05987577196
0.05987496776
0.05987380598
0.05987298973
0.05987380599
0.05987496778
0.05987577197
0.05987614007
0.05987553512
)
;
    }
    side-walls
    {
        type            calculated;
        value           nonuniform List<scalar> 
261
(
0.0598766895
0.0598766895
0.0598766895
0.0598766895
0.0598766895
0.0598766895
0.0598766895
0.0598766895
0.0598766895
0.0598766895
0.0598766895
0.0598766895
0.0598766895
0.0598766895
0.0598766895
0.0598766895
0.0598766895
0.0598766895
0.0598766895
0.0598766895
0.0598766895
0.05987668949
0.05987668949
0.05987668949
0.0598766895
0.0598766895
0.0598766895
0.05987668949
0.05987668949
0.05987668948
0.05987668948
0.05987668948
0.05987668948
0.05987668948
0.05987668949
0.05987668949
0.05987668947
0.05987668946
0.05987668944
0.05987668943
0.05987668942
0.05987668943
0.05987668944
0.05987668946
0.05987668947
0.05987668938
0.05987668935
0.05987668929
0.05987668924
0.05987668922
0.05987668924
0.05987668929
0.05987668935
0.05987668938
0.05987668911
0.05987668898
0.05987668877
0.05987668854
0.05987668844
0.05987668854
0.05987668877
0.05987668898
0.05987668911
0.05987668821
0.05987668775
0.05987668693
0.05987668606
0.05987668565
0.05987668606
0.05987668693
0.05987668775
0.05987668821
0.05987668545
0.05987668381
0.05987668079
0.05987667742
0.05987667577
0.05987667742
0.05987668079
0.05987668381
0.05987668545
0.05987667729
0.05987667167
0.059876661
0.05987664856
0.05987664212
0.05987664856
0.059876661
0.05987667167
0.05987667729
0.05987665448
0.05987663634
0.05987660065
0.0598765568
0.0598765326
0.0598765568
0.05987660065
0.05987663635
0.05987665448
0.05987659491
0.05987654042
0.05987642904
0.05987628432
0.05987619813
0.05987628432
0.05987642905
0.05987654042
0.05987659491
0.05987645172
0.05987630201
0.05987598457
0.05987554798
0.05987526514
0.05987554798
0.05987598458
0.05987630202
0.05987645173
0.05987614008
0.05987577198
0.05987496783
0.0598738061
0.05987298988
0.05987380611
0.05987496785
0.05987577201
0.0598761401
0.05987553512
0.05987474331
0.0598729903
0.05987039498
0.05986847966
0.05987039501
0.05987299037
0.05987474337
0.05987553517
0.0598766895
0.0598766895
0.0598766895
0.0598766895
0.0598766895
0.0598766895
0.0598766895
0.0598766895
0.0598766895
0.0598766895
0.0598766895
0.0598766895
0.0598766895
0.0598766895
0.0598766895
0.0598766895
0.0598766895
0.0598766895
0.0598766895
0.0598766895
0.0598766895
0.05987668949
0.05987668949
0.05987668949
0.0598766895
0.0598766895
0.0598766895
0.05987668949
0.05987668949
0.05987668948
0.05987668948
0.05987668948
0.05987668948
0.05987668948
0.05987668949
0.05987668949
0.05987668947
0.05987668946
0.05987668944
0.05987668943
0.05987668942
0.05987668943
0.05987668944
0.05987668946
0.05987668947
0.05987668938
0.05987668935
0.0598766893
0.05987668924
0.05987668922
0.05987668924
0.05987668929
0.05987668935
0.05987668938
0.05987668911
0.05987668898
0.05987668877
0.05987668854
0.05987668844
0.05987668854
0.05987668877
0.05987668898
0.05987668911
0.05987668821
0.05987668775
0.05987668693
0.05987668606
0.05987668565
0.05987668606
0.05987668693
0.05987668775
0.05987668821
0.05987668545
0.05987668381
0.05987668079
0.05987667742
0.05987667577
0.05987667742
0.05987668079
0.05987668381
0.05987668545
0.05987667729
0.05987667167
0.059876661
0.05987664856
0.05987664212
0.05987664856
0.059876661
0.05987667167
0.05987667729
0.05987665448
0.05987663634
0.05987660064
0.05987655679
0.0598765326
0.05987655679
0.05987660064
0.05987663634
0.05987665448
0.05987659491
0.05987654042
0.05987642903
0.05987628431
0.05987619811
0.05987628431
0.05987642904
0.05987654042
0.05987659491
0.05987645172
0.059876302
0.05987598454
0.05987554793
0.05987526508
0.05987554794
0.05987598455
0.05987630201
0.05987645172
0.05987614007
0.05987577196
0.05987496777
0.05987380598
0.05987298973
0.059873806
0.05987496778
0.05987577196
0.05987614007
)
;
    }
    inlet
    {
        type            calculated;
        value           nonuniform List<scalar> 
81
(
0.0598766895
0.0598766895
0.0598766895
0.0598766895
0.0598766895
0.0598766895
0.0598766895
0.0598766895
0.0598766895
0.0598766895
0.0598766895
0.0598766895
0.0598766895
0.0598766895
0.0598766895
0.0598766895
0.0598766895
0.0598766895
0.0598766895
0.0598766895
0.0598766895
0.0598766895
0.0598766895
0.0598766895
0.0598766895
0.0598766895
0.0598766895
0.0598766895
0.0598766895
0.0598766895
0.0598766895
0.0598766895
0.0598766895
0.0598766895
0.0598766895
0.0598766895
0.0598766895
0.0598766895
0.0598766895
0.0598766895
0.0598766895
0.0598766895
0.0598766895
0.0598766895
0.0598766895
0.0598766895
0.0598766895
0.0598766895
0.0598766895
0.0598766895
0.0598766895
0.0598766895
0.0598766895
0.0598766895
0.0598766895
0.0598766895
0.0598766895
0.0598766895
0.0598766895
0.0598766895
0.0598766895
0.0598766895
0.0598766895
0.0598766895
0.0598766895
0.0598766895
0.0598766895
0.0598766895
0.0598766895
0.0598766895
0.0598766895
0.0598766895
0.0598766895
0.0598766895
0.0598766895
0.0598766895
0.0598766895
0.0598766895
0.0598766895
0.0598766895
0.0598766895
)
;
    }
    outlet
    {
        type            calculated;
        value           nonuniform 0();
    }
    procBoundary0to1
    {
        type            processor;
        value           nonuniform List<scalar> 
97
(
0.05987449514
0.05987474327
0.05987302487
0.05986981274
0.05986517212
0.05986191153
0.05986517217
0.05986981284
0.05987302496
0.05987449521
0.05987474327
0.05987474327
0.05986976414
0.05986839934
0.05986166341
0.05984748834
0.05983434415
0.05984748852
0.05986166368
0.05986976433
0.05987302496
0.05987299024
0.05986839934
0.05986839934
0.05983810963
0.05982145065
0.05978655777
0.05972018758
0.05978655876
0.05983811052
0.0598616637
0.05986981284
0.05987039487
0.05986004496
0.05982145065
0.05982145065
0.05961230804
0.05933196069
0.05927592226
0.05961231187
0.05978655871
0.0598474886
0.0598651722
0.05986847952
0.05985147619
0.05976990324
0.05933196069
0.05933196069
0.05784125177
0.05933196113
0.05927592216
0.05969123218
0.05972018762
0.05983434429
0.05986191158
0.05987039491
0.05986004522
0.05982145186
0.05969123287
0.05933196113
0.05969123218
0.05969123218
0.0597865576
0.05985454565
0.05984748826
0.05986517211
0.0598729903
0.05986839958
0.05985454608
0.05982145177
0.05976990322
0.05982145189
0.05985454565
0.05985454565
0.05986166339
0.0598729539
0.05986981272
0.05987474333
0.05987295398
0.05986839955
0.05986004516
0.0598514762
0.05986004521
0.05986839953
0.0598729539
0.0598729539
0.05987302488
0.05987553513
0.05987553516
0.05987474333
0.05987299028
0.05987039489
0.05986847954
0.05987039493
0.0598729903
0.05987474332
0.05987553513
)
;
    }
}


// ************************************************************************* //
