/*--------------------------------*- C++ -*----------------------------------*\
| =========                 |                                                 |
| \\      /  F ield         | OpenFOAM: The Open Source CFD Toolbox           |
|  \\    /   O peration     | Version:  4.x                                   |
|   \\  /    A nd           | Web:      www.OpenFOAM.org                      |
|    \\/     M anipulation  |                                                 |
\*---------------------------------------------------------------------------*/
FoamFile
{
    version     2.0;
    format      ascii;
    class       volScalarField;
    location    "4000";
    object      X_H2O;
}
// * * * * * * * * * * * * * * * * * * * * * * * * * * * * * * * * * * * * * //

dimensions      [0 0 0 0 0 0 0];

internalField   nonuniform List<scalar> 
1175
(
1.504112119e-05
1.504112289e-05
1.504112515e-05
1.504113067e-05
1.50411554e-05
1.504123816e-05
1.504151581e-05
1.504240762e-05
1.504516896e-05
1.505333269e-05
1.50761547e-05
1.513574891e-05
1.527899874e-05
1.55908111e-05
1.619617182e-05
1.504112263e-05
1.504112243e-05
1.504112412e-05
1.504113262e-05
1.504116236e-05
1.504127031e-05
1.504163952e-05
1.504286748e-05
1.504681478e-05
1.505895366e-05
1.509429268e-05
1.519024613e-05
1.542873591e-05
1.595899345e-05
1.698823272e-05
1.504112291e-05
1.504112123e-05
1.504112447e-05
1.504113703e-05
1.504117821e-05
1.504132647e-05
1.504185683e-05
1.504368843e-05
1.504983756e-05
1.506962681e-05
1.512999571e-05
1.530163723e-05
1.574622221e-05
1.676328831e-05
1.874169312e-05
1.504112264e-05
1.504112314e-05
1.504112613e-05
1.504113986e-05
1.504119137e-05
1.50413821e-05
1.504207818e-05
1.504456531e-05
1.505320197e-05
1.508207175e-05
1.517384432e-05
1.544636297e-05
1.618283722e-05
1.792512254e-05
2.133746101e-05
1.5041122e-05
1.504112287e-05
1.50411267e-05
1.504114121e-05
1.504119564e-05
1.504140572e-05
1.504217769e-05
1.50449744e-05
1.505485007e-05
1.508850391e-05
1.519803931e-05
1.5532555e-05
1.646566525e-05
1.874133416e-05
2.32528987e-05
1.504112395e-05
1.504112354e-05
1.50411272e-05
1.504113967e-05
1.504118989e-05
1.504138047e-05
1.504207736e-05
1.504456559e-05
1.505320247e-05
1.508207069e-05
1.517384286e-05
1.544635926e-05
1.618282892e-05
1.792508923e-05
2.133737021e-05
1.504112426e-05
1.504112423e-05
1.504112695e-05
1.504113739e-05
1.504117745e-05
1.504132748e-05
1.504185639e-05
1.504368845e-05
1.504983571e-05
1.506962395e-05
1.512999244e-05
1.530163011e-05
1.574619729e-05
1.676322144e-05
1.874153555e-05
1.504112268e-05
1.504112316e-05
1.504112478e-05
1.504113308e-05
1.504116483e-05
1.504127212e-05
1.504163939e-05
1.5042867e-05
1.504681338e-05
1.505895341e-05
1.509429118e-05
1.519023902e-05
1.542871116e-05
1.595892493e-05
1.698807789e-05
1.50411223e-05
1.504112286e-05
1.504112442e-05
1.504113229e-05
1.504115683e-05
1.504123948e-05
1.504151517e-05
1.504240697e-05
1.504516743e-05
1.505333286e-05
1.507615301e-05
1.513574205e-05
1.527897844e-05
1.55907478e-05
1.61960188e-05
1.504112297e-05
1.504112335e-05
1.504112497e-05
1.504113315e-05
1.504116363e-05
1.504127277e-05
1.504163922e-05
1.504286646e-05
1.504681256e-05
1.505895384e-05
1.509429474e-05
1.519025482e-05
1.54287647e-05
1.595910183e-05
1.504112254e-05
1.504112467e-05
1.504112669e-05
1.50411363e-05
1.504117627e-05
1.504131845e-05
1.504182906e-05
1.504360452e-05
1.504959591e-05
1.506900137e-05
1.512867837e-05
1.529981386e-05
1.574677086e-05
1.677555716e-05
1.877839108e-05
1.504112463e-05
1.5041125e-05
1.504112713e-05
1.50411414e-05
1.504119394e-05
1.504139962e-05
1.504216688e-05
1.504497409e-05
1.505496096e-05
1.508928921e-05
1.520166503e-05
1.554535707e-05
1.649975323e-05
1.880365132e-05
2.333359348e-05
1.50411237e-05
1.504112561e-05
1.504112849e-05
1.504114436e-05
1.504121548e-05
1.504148692e-05
1.504253402e-05
1.504651997e-05
1.506136356e-05
1.511508634e-05
1.530148415e-05
1.590948355e-05
1.77160235e-05
2.235185299e-05
3.168847828e-05
1.504112462e-05
1.504112365e-05
1.50411293e-05
1.504114766e-05
1.504122384e-05
1.504152638e-05
1.504270855e-05
1.504728722e-05
1.506475986e-05
1.51299024e-05
1.53646534e-05
1.616803344e-05
1.870034702e-05
2.564129451e-05
4.025677587e-05
1.504112393e-05
1.504112468e-05
1.504112966e-05
1.504114674e-05
1.50412166e-05
1.504148711e-05
1.504253564e-05
1.504651957e-05
1.50613658e-05
1.511508505e-05
1.530148257e-05
1.590947713e-05
1.77159812e-05
2.235169031e-05
3.168803018e-05
1.504112471e-05
1.504112456e-05
1.50411289e-05
1.504114248e-05
1.50411963e-05
1.504140154e-05
1.504216779e-05
1.504497168e-05
1.505496045e-05
1.508928984e-05
1.520166082e-05
1.554533866e-05
1.649968207e-05
1.880341201e-05
2.333299336e-05
1.504112362e-05
1.5041124e-05
1.504112653e-05
1.504113687e-05
1.504117726e-05
1.504131889e-05
1.504182802e-05
1.504360331e-05
1.504959249e-05
1.506899974e-05
1.512867282e-05
1.529979748e-05
1.574670895e-05
1.677535299e-05
1.877784254e-05
1.504112351e-05
1.504112421e-05
1.504112594e-05
1.504113399e-05
1.504116267e-05
1.504126954e-05
1.504163947e-05
1.504286716e-05
1.504681307e-05
1.505895108e-05
1.509429096e-05
1.519024036e-05
1.542871655e-05
1.595893127e-05
1.698808352e-05
1.504112254e-05
1.504112239e-05
1.504112545e-05
1.504113798e-05
1.50411786e-05
1.504132643e-05
1.504185562e-05
1.504368931e-05
1.504983839e-05
1.506962823e-05
1.513000153e-05
1.530166214e-05
1.574630873e-05
1.676356641e-05
1.504112301e-05
1.504112367e-05
1.504112686e-05
1.504114007e-05
1.50411964e-05
1.504140131e-05
1.504216915e-05
1.504497286e-05
1.505496173e-05
1.508929239e-05
1.520167397e-05
1.554538587e-05
1.649986401e-05
1.880410268e-05
1.504112315e-05
1.504112381e-05
1.504112922e-05
1.504114745e-05
1.504122576e-05
1.504153423e-05
1.504274999e-05
1.504746719e-05
1.506541895e-05
1.513180749e-05
1.536721955e-05
1.615123795e-05
1.852437306e-05
2.470006926e-05
3.71907113e-05
1.504112403e-05
1.504112555e-05
1.504113154e-05
1.504115445e-05
1.504125761e-05
1.504167863e-05
1.504341019e-05
1.505046293e-05
1.507889069e-05
1.519131002e-05
1.562226785e-05
1.719238834e-05
2.244730546e-05
3.760028793e-05
7.02843887e-05
1.504112338e-05
1.504112509e-05
1.504113255e-05
1.504115989e-05
1.504127394e-05
1.504174843e-05
1.504373841e-05
1.505206316e-05
1.508673819e-05
1.522992935e-05
1.581125431e-05
1.809677494e-05
2.655077756e-05
5.420033391e-05
0.0001218238172
1.50411233e-05
1.50411244e-05
1.504113114e-05
1.504115546e-05
1.504125912e-05
1.504168122e-05
1.504341203e-05
1.505046498e-05
1.507889282e-05
1.519130906e-05
1.562225999e-05
1.719234379e-05
2.244708609e-05
3.759935339e-05
7.02814976e-05
1.504112438e-05
1.50411253e-05
1.504112952e-05
1.504114932e-05
1.504122699e-05
1.504153721e-05
1.504275151e-05
1.504746767e-05
1.506541874e-05
1.51318055e-05
1.536720593e-05
1.615118029e-05
1.852412027e-05
2.469907561e-05
3.71876467e-05
1.504112207e-05
1.504112472e-05
1.504112765e-05
1.504114333e-05
1.50411956e-05
1.504140286e-05
1.504216884e-05
1.504497264e-05
1.505496302e-05
1.50892912e-05
1.520166553e-05
1.554534557e-05
1.649969586e-05
1.880343199e-05
2.333299829e-05
1.504112313e-05
1.504112376e-05
1.504112634e-05
1.5041136e-05
1.504117863e-05
1.504132782e-05
1.504185635e-05
1.504368706e-05
1.504983593e-05
1.506962678e-05
1.512999505e-05
1.530163904e-05
1.574621349e-05
1.676324319e-05
1.874155523e-05
1.504112381e-05
1.504112398e-05
1.504112686e-05
1.504114059e-05
1.504119213e-05
1.504138191e-05
1.504207803e-05
1.504456631e-05
1.50532031e-05
1.508207562e-05
1.517385906e-05
1.544641698e-05
1.618301824e-05
1.792566752e-05
1.50411243e-05
1.504112489e-05
1.504112765e-05
1.504114647e-05
1.504121631e-05
1.50414879e-05
1.504253544e-05
1.504651855e-05
1.50613661e-05
1.511509296e-05
1.530150768e-05
1.5909579e-05
1.771637901e-05
2.235312729e-05
1.504112283e-05
1.504112351e-05
1.50411301e-05
1.504115511e-05
1.504125663e-05
1.504167887e-05
1.504341062e-05
1.505046435e-05
1.507889346e-05
1.519131852e-05
1.562229667e-05
1.719252207e-05
2.244792753e-05
3.760321984e-05
1.504112321e-05
1.504112471e-05
1.504113346e-05
1.504116397e-05
1.504130334e-05
1.504189339e-05
1.504444506e-05
1.505547873e-05
1.510320275e-05
1.530869461e-05
1.618133645e-05
1.977649736e-05
3.370321003e-05
8.118274104e-05
0.0002005091683
1.504112445e-05
1.504112611e-05
1.50411342e-05
1.504116938e-05
1.504132387e-05
1.504200202e-05
1.504499005e-05
1.505835387e-05
1.511882036e-05
1.539562924e-05
1.667488413e-05
2.260107454e-05
4.9622212e-05
0.0001652019616
0.0005596907602
1.504112568e-05
1.504112857e-05
1.504113498e-05
1.504116655e-05
1.504130504e-05
1.504189531e-05
1.504444662e-05
1.505547903e-05
1.510320308e-05
1.530868961e-05
1.618130537e-05
1.977633104e-05
3.370228534e-05
8.117793706e-05
0.000200489057
1.504112482e-05
1.50411274e-05
1.504113247e-05
1.504115631e-05
1.504125778e-05
1.504167895e-05
1.504341107e-05
1.505046614e-05
1.507889346e-05
1.51913136e-05
1.562227387e-05
1.719239154e-05
2.24472216e-05
3.759964078e-05
7.02817034e-05
1.504112534e-05
1.5041127e-05
1.504113019e-05
1.504114846e-05
1.504121746e-05
1.504148871e-05
1.504253559e-05
1.504652025e-05
1.506136638e-05
1.511508852e-05
1.530149271e-05
1.590950033e-05
1.771604304e-05
2.235179434e-05
3.168806882e-05
1.504112434e-05
1.504112477e-05
1.504112791e-05
1.504114301e-05
1.504119329e-05
1.504138088e-05
1.504207832e-05
1.504456535e-05
1.505320139e-05
1.508207317e-05
1.517384963e-05
1.544637478e-05
1.618286195e-05
1.792514387e-05
2.133740511e-05
1.504112334e-05
1.504112471e-05
1.504112721e-05
1.504114149e-05
1.504119672e-05
1.504140609e-05
1.504217664e-05
1.504497594e-05
1.50548507e-05
1.508850979e-05
1.519806064e-05
1.553263138e-05
1.646591903e-05
1.874209086e-05
1.504112277e-05
1.504112436e-05
1.504112756e-05
1.504114687e-05
1.504122416e-05
1.504152533e-05
1.504270761e-05
1.504728871e-05
1.506476364e-05
1.512991036e-05
1.536468902e-05
1.616818574e-05
1.870094362e-05
2.564340718e-05
1.504112407e-05
1.504112336e-05
1.50411312e-05
1.504115812e-05
1.50412735e-05
1.504174782e-05
1.504373845e-05
1.505206447e-05
1.508674184e-05
1.522994363e-05
1.581132684e-05
1.809712206e-05
2.655242342e-05
5.420776764e-05
1.504112211e-05
1.504112488e-05
1.504113335e-05
1.504116966e-05
1.50413231e-05
1.504199952e-05
1.504498911e-05
1.505835396e-05
1.51188224e-05
1.539564594e-05
1.667498054e-05
2.260163552e-05
4.962568279e-05
0.0001652249397
1.504112577e-05
1.504112777e-05
1.50411357e-05
1.504117599e-05
1.504134835e-05
1.504212654e-05
1.50456688e-05
1.506215557e-05
1.514112481e-05
1.553353192e-05
1.757732424e-05
2.886094612e-05
9.559192619e-05
0.0005214652562
0.003480234126
1.504112644e-05
1.504112804e-05
1.504113488e-05
1.504117265e-05
1.504132689e-05
1.504200275e-05
1.504499107e-05
1.505835577e-05
1.511882517e-05
1.539564277e-05
1.66749396e-05
2.260133401e-05
4.962334313e-05
0.0001652060823
0.0005596949257
1.504112575e-05
1.504112569e-05
1.504113356e-05
1.504116189e-05
1.504127226e-05
1.504174893e-05
1.50437409e-05
1.505206557e-05
1.508674062e-05
1.522993707e-05
1.581129388e-05
1.809692384e-05
2.655127832e-05
5.420160215e-05
0.000121824764
1.504112664e-05
1.504112651e-05
1.50411305e-05
1.504115094e-05
1.504122632e-05
1.504152647e-05
1.504270672e-05
1.504728823e-05
1.506476285e-05
1.512990694e-05
1.536467234e-05
1.616809017e-05
1.87005028e-05
2.564160645e-05
4.025695771e-05
1.504112449e-05
1.504112463e-05
1.504112945e-05
1.50411452e-05
1.50411987e-05
1.504140678e-05
1.504217906e-05
1.504497552e-05
1.505485058e-05
1.508850644e-05
1.519804779e-05
1.553258326e-05
1.64657334e-05
1.874144968e-05
2.32529829e-05
1.504112236e-05
1.504112334e-05
1.504112908e-05
1.504114074e-05
1.504119154e-05
1.504138174e-05
1.504207782e-05
1.504456534e-05
1.505320396e-05
1.508207714e-05
1.517386389e-05
1.54464273e-05
1.618304329e-05
1.792568753e-05
1.504112524e-05
1.504112489e-05
1.504112993e-05
1.504114642e-05
1.504121582e-05
1.504148572e-05
1.504253328e-05
1.504651889e-05
1.506136809e-05
1.511509747e-05
1.530151884e-05
1.590960994e-05
1.771645054e-05
2.235317238e-05
1.504112402e-05
1.504112426e-05
1.504113075e-05
1.504115578e-05
1.504125678e-05
1.504167918e-05
1.504341033e-05
1.505046496e-05
1.507889529e-05
1.519132497e-05
1.562232985e-05
1.719264582e-05
2.244831421e-05
3.760385819e-05
1.504112293e-05
1.504112516e-05
1.504113341e-05
1.504116417e-05
1.504130333e-05
1.504189477e-05
1.504444688e-05
1.505547957e-05
1.510320888e-05
1.530871381e-05
1.618141824e-05
1.977689085e-05
3.370498945e-05
8.119017404e-05
1.504112481e-05
1.504112742e-05
1.504113523e-05
1.504116967e-05
1.504132431e-05
1.504200001e-05
1.504499061e-05
1.505835523e-05
1.511882712e-05
1.53956594e-05
1.667503265e-05
2.260187182e-05
4.962668473e-05
0.0001652281751
1.504112621e-05
1.504112727e-05
1.504113399e-05
1.504116725e-05
1.504130288e-05
1.50418951e-05
1.50444473e-05
1.505547893e-05
1.510321017e-05
1.530871122e-05
1.618140461e-05
1.977679649e-05
3.370446892e-05
8.118816896e-05
1.504112667e-05
1.504112675e-05
1.504113297e-05
1.504115627e-05
1.504125779e-05
1.504168058e-05
1.504341185e-05
1.505046583e-05
1.507889856e-05
1.519132501e-05
1.562231434e-05
1.719255343e-05
2.244785252e-05
3.760185471e-05
7.028860218e-05
1.504112464e-05
1.504112642e-05
1.504112931e-05
1.504114792e-05
1.504121638e-05
1.504148757e-05
1.50425354e-05
1.504652085e-05
1.506136884e-05
1.511509375e-05
1.530150477e-05
1.590955257e-05
1.771621277e-05
2.235229104e-05
3.168917969e-05
1.504112311e-05
1.504112331e-05
1.504112829e-05
1.504114176e-05
1.504119298e-05
1.50413825e-05
1.504207793e-05
1.504456515e-05
1.505320196e-05
1.508207626e-05
1.517385382e-05
1.544639251e-05
1.618291367e-05
1.792527079e-05
2.133764383e-05
1.504112287e-05
1.504112338e-05
1.504112596e-05
1.504113665e-05
1.504117883e-05
1.504132731e-05
1.504185672e-05
1.504368859e-05
1.504983827e-05
1.506962946e-05
1.513000633e-05
1.530167718e-05
1.57463367e-05
1.67635834e-05
1.504112405e-05
1.50411237e-05
1.504112842e-05
1.504114247e-05
1.504119621e-05
1.504140203e-05
1.504216897e-05
1.504497421e-05
1.505496444e-05
1.508929569e-05
1.520168662e-05
1.554542214e-05
1.649995341e-05
1.880419025e-05
1.504112364e-05
1.504112454e-05
1.504113084e-05
1.504115051e-05
1.504122675e-05
1.504153588e-05
1.504275183e-05
1.504746912e-05
1.506542047e-05
1.513181655e-05
1.53672518e-05
1.615135415e-05
1.852473395e-05
2.470102174e-05
1.504112603e-05
1.504112819e-05
1.50411332e-05
1.504115661e-05
1.504125897e-05
1.504167926e-05
1.504340966e-05
1.505046518e-05
1.507889753e-05
1.519132968e-05
1.562234431e-05
1.71926888e-05
2.244841809e-05
3.760398396e-05
1.504112575e-05
1.504112794e-05
1.504113253e-05
1.504115821e-05
1.504127162e-05
1.504174874e-05
1.504373987e-05
1.505206458e-05
1.508674395e-05
1.522995377e-05
1.58113664e-05
1.809725613e-05
2.655281427e-05
5.420830781e-05
1.504112492e-05
1.504112562e-05
1.504113208e-05
1.504115681e-05
1.504125778e-05
1.504167909e-05
1.504340988e-05
1.505046455e-05
1.507889739e-05
1.519132967e-05
1.562233573e-05
1.719265038e-05
2.244826856e-05
3.760352138e-05
1.504112351e-05
1.504112523e-05
1.504112927e-05
1.504114792e-05
1.504122611e-05
1.504153421e-05
1.504275154e-05
1.504746927e-05
1.506542217e-05
1.513181518e-05
1.536724466e-05
1.615132427e-05
1.852463194e-05
2.47008482e-05
1.504112404e-05
1.504112388e-05
1.504112664e-05
1.504114007e-05
1.504119529e-05
1.504140128e-05
1.504216813e-05
1.504497255e-05
1.505496287e-05
1.508929634e-05
1.520168179e-05
1.554540088e-05
1.649986866e-05
1.880392225e-05
2.333421124e-05
1.504112208e-05
1.504112346e-05
1.504112517e-05
1.504113705e-05
1.50411792e-05
1.504132653e-05
1.50418555e-05
1.504368868e-05
1.504983678e-05
1.50696278e-05
1.513000233e-05
1.530165797e-05
1.574627636e-05
1.676339869e-05
1.874185694e-05
1.504112175e-05
1.504112287e-05
1.504112406e-05
1.50411337e-05
1.504116374e-05
1.504127129e-05
1.50416402e-05
1.50428687e-05
1.504681636e-05
1.505895482e-05
1.509429918e-05
1.519026592e-05
1.54287881e-05
1.595911754e-05
1.504112271e-05
1.504112321e-05
1.504112607e-05
1.504113676e-05
1.504117599e-05
1.504131998e-05
1.504182972e-05
1.504360612e-05
1.50495963e-05
1.506900672e-05
1.512868822e-05
1.529984423e-05
1.574684534e-05
1.677571485e-05
1.504112357e-05
1.504112562e-05
1.50411289e-05
1.504114257e-05
1.504119775e-05
1.504140213e-05
1.504216944e-05
1.504497356e-05
1.505496341e-05
1.508929764e-05
1.520168984e-05
1.554543131e-05
1.649996944e-05
1.880420807e-05
1.504112504e-05
1.50411252e-05
1.504112876e-05
1.504114659e-05
1.504121646e-05
1.504148686e-05
1.504253475e-05
1.504652067e-05
1.506136804e-05
1.511509814e-05
1.530152765e-05
1.59096374e-05
1.771650749e-05
2.23532328e-05
1.504112686e-05
1.5041128e-05
1.504113003e-05
1.504115033e-05
1.504122459e-05
1.504152728e-05
1.504270892e-05
1.504728889e-05
1.506476461e-05
1.512991668e-05
1.536470862e-05
1.616823829e-05
1.870105491e-05
2.564349523e-05
1.50411258e-05
1.504112502e-05
1.504112757e-05
1.504114565e-05
1.504121609e-05
1.504148849e-05
1.504253489e-05
1.504651949e-05
1.506137016e-05
1.511509794e-05
1.530152481e-05
1.590962444e-05
1.771646416e-05
2.235310996e-05
1.504112245e-05
1.50411229e-05
1.504112684e-05
1.50411419e-05
1.504119732e-05
1.504140136e-05
1.504216981e-05
1.504497424e-05
1.505496328e-05
1.508929543e-05
1.520168455e-05
1.554541739e-05
1.649993004e-05
1.880413405e-05
1.50411221e-05
1.504112288e-05
1.504112618e-05
1.50411367e-05
1.50411773e-05
1.504131893e-05
1.50418294e-05
1.504360356e-05
1.504959455e-05
1.506900435e-05
1.512868401e-05
1.529983414e-05
1.574681967e-05
1.677568893e-05
1.504112159e-05
1.504112252e-05
1.50411251e-05
1.504113354e-05
1.504116484e-05
1.504127106e-05
1.504164135e-05
1.504286864e-05
1.504681528e-05
1.505895565e-05
1.509429732e-05
1.519025802e-05
1.542876681e-05
1.595905781e-05
1.698836704e-05
1.50411218e-05
1.504112303e-05
1.504112469e-05
1.504113047e-05
1.50411562e-05
1.504124062e-05
1.504151701e-05
1.504240947e-05
1.504516855e-05
1.505333328e-05
1.507615789e-05
1.513575967e-05
1.527902472e-05
1.559086312e-05
1.504112197e-05
1.504112317e-05
1.504112627e-05
1.504113342e-05
1.50411645e-05
1.504127306e-05
1.504164015e-05
1.504286849e-05
1.504681515e-05
1.505895456e-05
1.509430012e-05
1.519026911e-05
1.542879232e-05
1.595912473e-05
1.504112194e-05
1.504112364e-05
1.50411273e-05
1.504113775e-05
1.504117926e-05
1.504132606e-05
1.504185345e-05
1.504368767e-05
1.504983693e-05
1.506962864e-05
1.513000797e-05
1.530168301e-05
1.574634821e-05
1.67635996e-05
1.504112327e-05
1.504112428e-05
1.504112815e-05
1.504114252e-05
1.504119094e-05
1.504138226e-05
1.504207867e-05
1.504456613e-05
1.505320487e-05
1.50820803e-05
1.517386982e-05
1.544644181e-05
1.618306549e-05
1.792571032e-05
1.504112485e-05
1.504112714e-05
1.504113038e-05
1.504114397e-05
1.504119801e-05
1.504140549e-05
1.504217805e-05
1.504497767e-05
1.505485352e-05
1.508851376e-05
1.519807001e-05
1.553265261e-05
1.646595751e-05
1.874211255e-05
1.504112239e-05
1.504112395e-05
1.50411286e-05
1.504114039e-05
1.504119069e-05
1.504138213e-05
1.504207945e-05
1.504456623e-05
1.50532042e-05
1.508207932e-05
1.517386701e-05
1.544643491e-05
1.618304826e-05
1.792566141e-05
1.50411228e-05
1.504112414e-05
1.5041127e-05
1.504113761e-05
1.50411778e-05
1.504132759e-05
1.504185717e-05
1.504368958e-05
1.504983669e-05
1.506962992e-05
1.513000743e-05
1.5301675e-05
1.574632865e-05
1.676355819e-05
1.504112076e-05
1.504112267e-05
1.504112444e-05
1.504113239e-05
1.504116418e-05
1.504127167e-05
1.504164081e-05
1.504286683e-05
1.50468138e-05
1.505895458e-05
1.509429881e-05
1.519026395e-05
1.542878024e-05
1.595910924e-05
1.504111958e-05
1.504112139e-05
1.504112322e-05
1.50411306e-05
1.504115474e-05
1.504123871e-05
1.504151678e-05
1.504240734e-05
1.504516866e-05
1.505333222e-05
1.507615582e-05
1.51357567e-05
1.527901887e-05
1.559086152e-05
)
;

boundaryField
{
    top
    {
        type            calculated;
        value           nonuniform List<scalar> 
134
(
1.50411223e-05
1.504112351e-05
1.504112313e-05
1.504112434e-05
1.504112449e-05
1.504112311e-05
1.504112208e-05
1.504112159e-05
1.504111958e-05
1.504112286e-05
1.504112421e-05
1.504112376e-05
1.504112477e-05
1.504112463e-05
1.504112331e-05
1.504112346e-05
1.504112252e-05
1.504112139e-05
1.504112442e-05
1.504112594e-05
1.504112634e-05
1.504112791e-05
1.504112945e-05
1.504112829e-05
1.504112517e-05
1.50411251e-05
1.504112322e-05
1.504113229e-05
1.504113399e-05
1.5041136e-05
1.504114301e-05
1.50411452e-05
1.504114176e-05
1.504113705e-05
1.504113354e-05
1.50411306e-05
1.504115683e-05
1.504116267e-05
1.504117863e-05
1.504119329e-05
1.50411987e-05
1.504119298e-05
1.50411792e-05
1.504116484e-05
1.504115474e-05
1.504123948e-05
1.504126954e-05
1.504132782e-05
1.504138088e-05
1.504140678e-05
1.50413825e-05
1.504132653e-05
1.504127106e-05
1.504123871e-05
1.504151517e-05
1.504163947e-05
1.504185635e-05
1.504207832e-05
1.504217906e-05
1.504207793e-05
1.50418555e-05
1.504164135e-05
1.504151678e-05
1.504240697e-05
1.504286716e-05
1.504368706e-05
1.504456535e-05
1.504497552e-05
1.504456515e-05
1.504368868e-05
1.504286864e-05
1.504240734e-05
1.504516743e-05
1.504681307e-05
1.504983593e-05
1.505320139e-05
1.505485058e-05
1.505320196e-05
1.504983678e-05
1.504681528e-05
1.504516866e-05
1.505333286e-05
1.505895108e-05
1.506962678e-05
1.508207317e-05
1.508850644e-05
1.508207626e-05
1.50696278e-05
1.505895565e-05
1.505333222e-05
1.507615301e-05
1.509429096e-05
1.512999505e-05
1.517384963e-05
1.519804779e-05
1.517385382e-05
1.513000233e-05
1.509429732e-05
1.507615582e-05
1.513574205e-05
1.519024036e-05
1.530163904e-05
1.544637478e-05
1.553258326e-05
1.544639251e-05
1.530165797e-05
1.519025802e-05
1.51357567e-05
1.527897844e-05
1.542871655e-05
1.574621349e-05
1.618286195e-05
1.64657334e-05
1.618291367e-05
1.574627636e-05
1.542876681e-05
1.527901887e-05
1.55907478e-05
1.595893127e-05
1.676324319e-05
1.792514387e-05
1.874144968e-05
1.792527079e-05
1.676339869e-05
1.595905781e-05
1.559086152e-05
1.61960188e-05
1.698808352e-05
1.874155523e-05
2.133740511e-05
2.32529829e-05
2.133764383e-05
1.874185694e-05
1.698836704e-05
)
;
    }
    bottom
    {
        type            calculated;
        value           nonuniform List<scalar> 
127
(
1.504112119e-05
1.504112297e-05
1.504112254e-05
1.504112381e-05
1.504112334e-05
1.504112236e-05
1.504112287e-05
1.504112175e-05
1.50411218e-05
1.504112289e-05
1.504112335e-05
1.504112239e-05
1.504112398e-05
1.504112471e-05
1.504112334e-05
1.504112338e-05
1.504112287e-05
1.504112303e-05
1.504112515e-05
1.504112497e-05
1.504112545e-05
1.504112686e-05
1.504112721e-05
1.504112908e-05
1.504112596e-05
1.504112406e-05
1.504112469e-05
1.504113067e-05
1.504113315e-05
1.504113798e-05
1.504114059e-05
1.504114149e-05
1.504114074e-05
1.504113665e-05
1.50411337e-05
1.504113047e-05
1.50411554e-05
1.504116363e-05
1.50411786e-05
1.504119213e-05
1.504119672e-05
1.504119154e-05
1.504117883e-05
1.504116374e-05
1.50411562e-05
1.504123816e-05
1.504127277e-05
1.504132643e-05
1.504138191e-05
1.504140609e-05
1.504138174e-05
1.504132731e-05
1.504127129e-05
1.504124062e-05
1.504151581e-05
1.504163922e-05
1.504185562e-05
1.504207803e-05
1.504217664e-05
1.504207782e-05
1.504185672e-05
1.50416402e-05
1.504151701e-05
1.504240762e-05
1.504286646e-05
1.504368931e-05
1.504456631e-05
1.504497594e-05
1.504456534e-05
1.504368859e-05
1.50428687e-05
1.504240947e-05
1.504516896e-05
1.504681256e-05
1.504983839e-05
1.50532031e-05
1.50548507e-05
1.505320396e-05
1.504983827e-05
1.504681636e-05
1.504516855e-05
1.505333269e-05
1.505895384e-05
1.506962823e-05
1.508207562e-05
1.508850979e-05
1.508207714e-05
1.506962946e-05
1.505895482e-05
1.505333328e-05
1.50761547e-05
1.509429474e-05
1.513000153e-05
1.517385906e-05
1.519806064e-05
1.517386389e-05
1.513000633e-05
1.509429918e-05
1.507615789e-05
1.513574891e-05
1.519025482e-05
1.530166214e-05
1.544641698e-05
1.553263138e-05
1.54464273e-05
1.530167718e-05
1.519026592e-05
1.513575967e-05
1.527899874e-05
1.54287647e-05
1.574630873e-05
1.618301824e-05
1.646591903e-05
1.618304329e-05
1.57463367e-05
1.54287881e-05
1.527902472e-05
1.55908111e-05
1.595910183e-05
1.676356641e-05
1.792566752e-05
1.874209086e-05
1.792568753e-05
1.67635834e-05
1.595911754e-05
1.559086312e-05
1.619617182e-05
)
;
    }
    side-walls
    {
        type            calculated;
        value           nonuniform List<scalar> 
261
(
1.504112119e-05
1.504112263e-05
1.504112291e-05
1.504112264e-05
1.5041122e-05
1.504112395e-05
1.504112426e-05
1.504112268e-05
1.50411223e-05
1.504112289e-05
1.504112243e-05
1.504112123e-05
1.504112314e-05
1.504112287e-05
1.504112354e-05
1.504112423e-05
1.504112316e-05
1.504112286e-05
1.504112515e-05
1.504112412e-05
1.504112447e-05
1.504112613e-05
1.50411267e-05
1.50411272e-05
1.504112695e-05
1.504112478e-05
1.504112442e-05
1.504113067e-05
1.504113262e-05
1.504113703e-05
1.504113986e-05
1.504114121e-05
1.504113967e-05
1.504113739e-05
1.504113308e-05
1.504113229e-05
1.50411554e-05
1.504116236e-05
1.504117821e-05
1.504119137e-05
1.504119564e-05
1.504118989e-05
1.504117745e-05
1.504116483e-05
1.504115683e-05
1.504123816e-05
1.504127031e-05
1.504132647e-05
1.50413821e-05
1.504140572e-05
1.504138047e-05
1.504132748e-05
1.504127212e-05
1.504123948e-05
1.504151581e-05
1.504163952e-05
1.504185683e-05
1.504207818e-05
1.504217769e-05
1.504207736e-05
1.504185639e-05
1.504163939e-05
1.504151517e-05
1.504240762e-05
1.504286748e-05
1.504368843e-05
1.504456531e-05
1.50449744e-05
1.504456559e-05
1.504368845e-05
1.5042867e-05
1.504240697e-05
1.504516896e-05
1.504681478e-05
1.504983756e-05
1.505320197e-05
1.505485007e-05
1.505320247e-05
1.504983571e-05
1.504681338e-05
1.504516743e-05
1.505333269e-05
1.505895366e-05
1.506962681e-05
1.508207175e-05
1.508850391e-05
1.508207069e-05
1.506962395e-05
1.505895341e-05
1.505333286e-05
1.50761547e-05
1.509429268e-05
1.512999571e-05
1.517384432e-05
1.519803931e-05
1.517384286e-05
1.512999244e-05
1.509429118e-05
1.507615301e-05
1.513574891e-05
1.519024613e-05
1.530163723e-05
1.544636297e-05
1.5532555e-05
1.544635926e-05
1.530163011e-05
1.519023902e-05
1.513574205e-05
1.527899874e-05
1.542873591e-05
1.574622221e-05
1.618283722e-05
1.646566525e-05
1.618282892e-05
1.574619729e-05
1.542871116e-05
1.527897844e-05
1.55908111e-05
1.595899345e-05
1.676328831e-05
1.792512254e-05
1.874133416e-05
1.792508923e-05
1.676322144e-05
1.595892493e-05
1.55907478e-05
1.619617182e-05
1.698823272e-05
1.874169312e-05
2.133746101e-05
2.32528987e-05
2.133737021e-05
1.874153555e-05
1.698807789e-05
1.61960188e-05
1.50411218e-05
1.504112197e-05
1.504112194e-05
1.504112327e-05
1.504112485e-05
1.504112239e-05
1.50411228e-05
1.504112076e-05
1.504111958e-05
1.504112303e-05
1.504112317e-05
1.504112364e-05
1.504112428e-05
1.504112714e-05
1.504112395e-05
1.504112414e-05
1.504112267e-05
1.504112139e-05
1.504112469e-05
1.504112627e-05
1.50411273e-05
1.504112815e-05
1.504113038e-05
1.50411286e-05
1.5041127e-05
1.504112444e-05
1.504112322e-05
1.504113047e-05
1.504113342e-05
1.504113775e-05
1.504114252e-05
1.504114397e-05
1.504114039e-05
1.504113761e-05
1.504113239e-05
1.50411306e-05
1.50411562e-05
1.50411645e-05
1.504117926e-05
1.504119094e-05
1.504119801e-05
1.504119069e-05
1.50411778e-05
1.504116418e-05
1.504115474e-05
1.504124062e-05
1.504127306e-05
1.504132606e-05
1.504138226e-05
1.504140549e-05
1.504138213e-05
1.504132759e-05
1.504127167e-05
1.504123871e-05
1.504151701e-05
1.504164015e-05
1.504185345e-05
1.504207867e-05
1.504217805e-05
1.504207945e-05
1.504185717e-05
1.504164081e-05
1.504151678e-05
1.504240947e-05
1.504286849e-05
1.504368767e-05
1.504456613e-05
1.504497767e-05
1.504456623e-05
1.504368958e-05
1.504286683e-05
1.504240734e-05
1.504516855e-05
1.504681515e-05
1.504983693e-05
1.505320487e-05
1.505485352e-05
1.50532042e-05
1.504983669e-05
1.50468138e-05
1.504516866e-05
1.505333328e-05
1.505895456e-05
1.506962864e-05
1.50820803e-05
1.508851376e-05
1.508207932e-05
1.506962992e-05
1.505895458e-05
1.505333222e-05
1.507615789e-05
1.509430012e-05
1.513000797e-05
1.517386982e-05
1.519807001e-05
1.517386701e-05
1.513000743e-05
1.509429881e-05
1.507615582e-05
1.513575967e-05
1.519026911e-05
1.530168301e-05
1.544644181e-05
1.553265261e-05
1.544643491e-05
1.5301675e-05
1.519026395e-05
1.51357567e-05
1.527902472e-05
1.542879232e-05
1.574634821e-05
1.618306549e-05
1.646595751e-05
1.618304826e-05
1.574632865e-05
1.542878024e-05
1.527901887e-05
1.559086312e-05
1.595912473e-05
1.67635996e-05
1.792571032e-05
1.874211255e-05
1.792566141e-05
1.676355819e-05
1.595910924e-05
1.559086152e-05
)
;
    }
    inlet
    {
        type            calculated;
        value           nonuniform List<scalar> 
81
(
1.504112119e-05
1.504112263e-05
1.504112291e-05
1.504112264e-05
1.5041122e-05
1.504112395e-05
1.504112426e-05
1.504112268e-05
1.50411223e-05
1.504112297e-05
1.504112254e-05
1.504112463e-05
1.50411237e-05
1.504112462e-05
1.504112393e-05
1.504112471e-05
1.504112362e-05
1.504112351e-05
1.504112254e-05
1.504112301e-05
1.504112315e-05
1.504112403e-05
1.504112338e-05
1.50411233e-05
1.504112438e-05
1.504112207e-05
1.504112313e-05
1.504112381e-05
1.50411243e-05
1.504112283e-05
1.504112321e-05
1.504112445e-05
1.504112568e-05
1.504112482e-05
1.504112534e-05
1.504112434e-05
1.504112334e-05
1.504112277e-05
1.504112407e-05
1.504112211e-05
1.504112577e-05
1.504112644e-05
1.504112575e-05
1.504112664e-05
1.504112449e-05
1.504112236e-05
1.504112524e-05
1.504112402e-05
1.504112293e-05
1.504112481e-05
1.504112621e-05
1.504112667e-05
1.504112464e-05
1.504112311e-05
1.504112287e-05
1.504112405e-05
1.504112364e-05
1.504112603e-05
1.504112575e-05
1.504112492e-05
1.504112351e-05
1.504112404e-05
1.504112208e-05
1.504112175e-05
1.504112271e-05
1.504112357e-05
1.504112504e-05
1.504112686e-05
1.50411258e-05
1.504112245e-05
1.50411221e-05
1.504112159e-05
1.50411218e-05
1.504112197e-05
1.504112194e-05
1.504112327e-05
1.504112485e-05
1.504112239e-05
1.50411228e-05
1.504112076e-05
1.504111958e-05
)
;
    }
    outlet
    {
        type            calculated;
        value           nonuniform 0();
    }
    procBoundary0to1
    {
        type            processor;
        value           nonuniform List<scalar> 
97
(
1.723667161e-05
1.698836857e-05
1.870748567e-05
2.19205638e-05
2.656220027e-05
2.982320796e-05
2.656209199e-05
2.192036914e-05
1.870731061e-05
1.723654603e-05
1.698836857e-05
1.698836857e-05