/*--------------------------------*- C++ -*----------------------------------*\
| =========                 |                                                 |
| \\      /  F ield         | OpenFOAM: The Open Source CFD Toolbox           |
|  \\    /   O peration     | Version:  4.x                                   |
|   \\  /    A nd           | Web:      www.OpenFOAM.org                      |
|    \\/     M anipulation  |                                                 |
\*---------------------------------------------------------------------------*/
FoamFile
{
    version     2.0;
    format      ascii;
    class       volScalarField;
    location    "11000";
    object      CO2;
}
// * * * * * * * * * * * * * * * * * * * * * * * * * * * * * * * * * * * * * //

dimensions      [0 0 0 0 0 0 0];

internalField   nonuniform List<scalar> 
1175
(
0.06314985554
0.06314985554
0.06314985554
0.06314985554
0.06314985556
0.06314985561
0.06314985577
0.06314985629
0.06314985795
0.06314986292
0.06314987703
0.06314991442
0.06315000553
0.06315020641
0.063150601
0.06314985554
0.06314985554
0.06314985554
0.06314985555
0.06314985556
0.06314985562
0.06314985584
0.06314985657
0.06314985897
0.06314986647
0.06314988865
0.06314994977
0.06315010386
0.06315045104
0.06315113301
0.06314985554
0.06314985554
0.06314985554
0.06314985555
0.06314985557
0.06314985566
0.06314985597
0.06314985708
0.06314986087
0.06314987327
0.0631499117
0.06315002268
0.06315031436
0.06315099077
0.06315232269
0.06314985554
0.06314985554
0.06314985554
0.06314985555
0.06314985558
0.06314985569
0.06314985611
0.06314985763
0.063149863
0.06314988127
0.06314994032
0.06315011851
0.06315060741
0.0631517804
0.06315410665
0.06314985554
0.06314985554
0.06314985554
0.06314985555
0.06314985558
0.06314985571
0.06314985617
0.06314985789
0.06314986405
0.06314988545
0.0631499563
0.06315017631
0.06315079985
0.06315234318
0.06315544243
0.06314985554
0.06314985554
0.06314985554
0.06314985555
0.06314985558
0.06314985569
0.06314985611
0.06314985763
0.063149863
0.06314988127
0.06314994032
0.0631501185
0.0631506074
0.06315178037
0.0631541066
0.06314985554
0.06314985554
0.06314985554
0.06314985555
0.06314985557
0.06314985566
0.06314985597
0.06314985708
0.06314986087
0.06314987327
0.0631499117
0.06315002267
0.06315031436
0.06315099076
0.06315232265
0.06314985554
0.06314985554
0.06314985554
0.06314985555
0.06314985556
0.06314985562
0.06314985584
0.06314985657
0.06314985897
0.06314986647
0.06314988865
0.06314994977
0.06315010386
0.06315045103
0.06315113299
0.06314985554
0.06314985554
0.06314985554
0.06314985554
0.06314985556
0.06314985561
0.06314985577
0.06314985629
0.06314985795
0.06314986292
0.06314987703
0.06314991442
0.06315000553
0.0631502064
0.06315060098
0.06314985554
0.06314985554
0.06314985554
0.06314985555
0.06314985556
0.06314985562
0.06314985584
0.06314985657
0.06314985897
0.06314986647
0.06314988865
0.06314994977
0.06315010387
0.06315045105
0.06314985554
0.06314985554
0.06314985554
0.06314985555
0.06314985557
0.06314985565
0.06314985596
0.06314985703
0.06314986073
0.06314987291
0.06314991097
0.06315002185
0.06315031575
0.06315100156
0.06315235311
0.06314985554
0.06314985554
0.06314985554
0.06314985555
0.06314985558
0.0631498557
0.06314985617
0.06314985789
0.06314986414
0.06314988602
0.06314995883
0.06315018511
0.06315082304
0.06315238478
0.06315549443
0.06314985554
0.06314985554
0.06314985554
0.06314985555
0.06314985559
0.06314985576
0.06314985639
0.06314985887
0.06314986827
0.06314990288
0.0631500251
0.06315043041
0.06315165372
0.06315483893
0.06316133807
0.06314985554
0.06314985554
0.06314985554
0.06314985555
0.0631498556
0.06314985578
0.0631498565
0.06314985936
0.06314987048
0.06314991269
0.06315006762
0.06315060716
0.06315233636
0.06315715002
0.06316742388
0.06314985554
0.06314985554
0.06314985554
0.06314985555
0.06314985559
0.06314985576
0.06314985639
0.06314985887
0.06314986827
0.06314990288
0.0631500251
0.06315043041
0.06315165371
0.0631548389
0.063161338
0.06314985554
0.06314985554
0.06314985554
0.06314985555
0.06314985558
0.0631498557
0.06314985617
0.06314985789
0.06314986414
0.06314988602
0.06314995883
0.06315018511
0.06315082304
0.06315238476
0.06315549437
0.06314985554
0.06314985554
0.06314985554
0.06314985555
0.06314985557
0.06314985565
0.06314985596
0.06314985703
0.06314986073
0.0631498729
0.06314991097
0.06315002185
0.06315031574
0.06315100154
0.06315235304
0.06314985554
0.06314985554
0.06314985554
0.06314985555
0.06314985556
0.06314985562
0.06314985584
0.06314985657
0.06314985897
0.06314986647
0.06314988865
0.06314994977
0.06315010386
0.06315045103
0.06315113299
0.06314985554
0.06314985554
0.06314985554
0.06314985555
0.06314985557
0.06314985566
0.06314985597
0.06314985708
0.06314986087
0.06314987327
0.0631499117
0.06315002268
0.06315031437
0.06315099079
0.06314985554
0.06314985554
0.06314985554
0.06314985555
0.06314985558
0.0631498557
0.06314985617
0.06314985789
0.06314986414
0.06314988602
0.06314995883
0.06315018511
0.06315082305
0.06315238481
0.06314985554
0.06314985554
0.06314985554
0.06314985555
0.0631498556
0.06314985579
0.06314985653
0.06314985948
0.06314987089
0.06314991387
0.06315006889
0.06315059361
0.06315220638
0.06315646373
0.06316518685
0.06314985554
0.06314985554
0.06314985554
0.06314985556
0.06314985562
0.06314985588
0.06314985695
0.0631498614
0.06314987969
0.06314995336
0.06315024077
0.06315130557
0.06315492591
0.06316551999
0.06318867852
0.06314985554
0.06314985554
0.06314985554
0.06314985556
0.06314985563
0.06314985592
0.06314985716
0.06314986244
0.06314988488
0.06314997935
0.06315037008
0.06315193382
0.06315781625
0.06317735897
0.0632258114
0.06314985554
0.06314985554
0.06314985554
0.06314985556
0.06314985562
0.06314985588
0.06314985695
0.0631498614
0.06314987969
0.06314995336
0.06315024077
0.06315130556
0.06315492585
0.0631655198
0.06318867804
0.06314985554
0.06314985554
0.06314985554
0.06314985555
0.0631498556
0.06314985579
0.06314985653
0.06314985948
0.06314987089
0.06314991387
0.06315006888
0.0631505936
0.06315220634
0.06315646361
0.0631651865
0.06314985554
0.06314985554
0.06314985554
0.06314985555
0.06314985558
0.0631498557
0.06314985617
0.06314985789
0.06314986414
0.06314988602
0.06314995883
0.0631501851
0.06315082303
0.06315238474
0.06315549434
0.06314985554
0.06314985554
0.06314985554
0.06314985555
0.06314985557
0.06314985566
0.06314985597
0.06314985708
0.06314986087
0.06314987327
0.0631499117
0.06315002267
0.06315031436
0.06315099076
0.06315232265
0.06314985554
0.06314985554
0.06314985554
0.06314985555
0.06314985558
0.06314985569
0.06314985611
0.06314985763
0.063149863
0.06314988127
0.06314994032
0.06315011851
0.06315060741
0.06315178041
0.06314985554
0.06314985554
0.06314985554
0.06314985555
0.06314985559
0.06314985576
0.06314985639
0.06314985887
0.06314986827
0.06314990288
0.0631500251
0.06315043041
0.06315165374
0.06315483901
0.06314985554
0.06314985554
0.06314985554
0.06314985556
0.06314985562
0.06314985588
0.06314985695
0.0631498614
0.06314987969
0.06314995336
0.06315024077
0.06315130558
0.06315492594
0.06316552021
0.06314985554
0.06314985554
0.06314985555
0.06314985556
0.06314985565
0.06314985601
0.06314985761
0.06314986465
0.06314989575
0.0631500322
0.06315062223
0.06315309522
0.06316283018
0.0631965159
0.06328232232
0.06314985554
0.06314985554
0.06314985555
0.06314985557
0.06314985566
0.06314985608
0.06314985796
0.06314986655
0.06314990622
0.06315009152
0.06315096462
0.06315508434
0.06317419349
0.06325721339
0.06354427062
0.06314985554
0.06314985554
0.06314985555
0.06314985556
0.06314985565
0.06314985601
0.06314985761
0.06314986465
0.06314989575
0.06315003219
0.06315062223
0.06315309518
0.06316283001
0.06319651517
0.06328231975
0.06314985554
0.06314985554
0.06314985554
0.06314985556
0.06314985562
0.06314985588
0.06314985695
0.0631498614
0.06314987969
0.06314995336
0.06315024077
0.06315130557
0.06315492587
0.06316551986
0.06318867812
0.06314985554
0.06314985554
0.06314985554
0.06314985555
0.06314985559
0.06314985576
0.06314985639
0.06314985887
0.06314986827
0.06314990288
0.0631500251
0.06315043041
0.06315165371
0.06315483891
0.063161338
0.06314985554
0.06314985554
0.06314985554
0.06314985555
0.06314985558
0.06314985569
0.06314985611
0.06314985763
0.063149863
0.06314988127
0.06314994032
0.06315011851
0.0631506074
0.06315178038
0.06315410661
0.06314985554
0.06314985554
0.06314985554
0.06314985555
0.06314985558
0.06314985571
0.06314985617
0.06314985789
0.06314986405
0.06314988545
0.0631499563
0.06315017632
0.06315079987
0.06315234323
0.06314985554
0.06314985554
0.06314985554
0.06314985555
0.0631498556
0.06314985578
0.0631498565
0.06314985936
0.06314987048
0.06314991269
0.06315006762
0.06315060717
0.06315233642
0.06315715021
0.06314985554
0.06314985554
0.06314985554
0.06314985556
0.06314985563
0.06314985592
0.06314985716
0.06314986244
0.06314988488
0.06314997935
0.06315037009
0.06315193387
0.06315781646
0.06317735974
0.06314985554
0.06314985554
0.06314985555
0.06314985557
0.06314985566
0.06314985608
0.06314985796
0.06314986655
0.06314990622
0.06315009153
0.06315096464
0.06315508442
0.06317419393
0.06325721602
0.06314985554
0.06314985554
0.06314985555
0.06314985557
0.06314985568
0.06314985616
0.0631498584
0.06314986907
0.0631499213
0.06315018655
0.06315159729
0.06315954184
0.06320738299
0.06351746808
0.06569034876
0.06314985554
0.06314985554
0.06314985555
0.06314985557
0.06314985566
0.06314985608
0.06314985796
0.06314986655
0.06314990622
0.06315009152
0.06315096462
0.06315508433
0.06317419348
0.06325721339
0.06354427058
0.06314985554
0.06314985554
0.06314985554
0.06314985556
0.06314985563
0.06314985592
0.06314985716
0.06314986244
0.06314988488
0.06314997935
0.06315037008
0.06315193382
0.06315781626
0.06317735899
0.06322581137
0.06314985554
0.06314985554
0.06314985554
0.06314985555
0.0631498556
0.06314985578
0.0631498565
0.06314985936
0.06314987048
0.06314991269
0.06315006762
0.06315060716
0.06315233636
0.06315715003
0.06316742387
0.06314985554
0.06314985554
0.06314985554
0.06314985555
0.06314985558
0.06314985571
0.06314985617
0.06314985789
0.06314986405
0.06314988545
0.0631499563
0.06315017631
0.06315079985
0.06315234318
0.0631554424
0.06314985554
0.06314985554
0.06314985554
0.06314985555
0.06314985558
0.06314985569
0.06314985611
0.06314985763
0.063149863
0.06314988127
0.06314994032
0.06315011851
0.06315060741
0.06315178041
0.06314985554
0.06314985554
0.06314985554
0.06314985555
0.06314985559
0.06314985576
0.06314985639
0.06314985887
0.06314986827
0.06314990288
0.0631500251
0.06315043041
0.06315165373
0.06315483899
0.06314985554
0.06314985554
0.06314985554
0.06314985556
0.06314985562
0.06314985588
0.06314985695
0.0631498614
0.06314987969
0.06314995336
0.06315024077
0.06315130559
0.06315492596
0.06316552016
0.06314985554
0.06314985554
0.06314985555
0.06314985556
0.06314985565
0.06314985601
0.06314985761
0.06314986465
0.06314989575
0.0631500322
0.06315062223
0.06315309522
0.06316283023
0.06319651609
0.06314985554
0.06314985554
0.06314985555
0.06314985557
0.06314985566
0.06314985608
0.06314985796
0.06314986655
0.06314990622
0.06315009152
0.06315096463
0.06315508438
0.06317419382
0.0632572156
0.06314985554
0.06314985554
0.06314985555
0.06314985556
0.06314985565
0.06314985601
0.06314985761
0.06314986465
0.06314989575
0.06315003219
0.06315062223
0.0631530952
0.06316283013
0.06319651588
0.06314985554
0.06314985554
0.06314985554
0.06314985556
0.06314985562
0.06314985588
0.06314985695
0.0631498614
0.06314987969
0.06314995336
0.06315024077
0.06315130557
0.06315492592
0.06316552003
0.06318867867
0.06314985554
0.06314985554
0.06314985554
0.06314985555
0.06314985559
0.06314985576
0.06314985639
0.06314985887
0.06314986827
0.06314990288
0.0631500251
0.06315043041
0.06315165371
0.06315483893
0.06316133806
0.06314985554
0.06314985554
0.06314985554
0.06314985555
0.06314985558
0.06314985569
0.06314985611
0.06314985763
0.063149863
0.06314988127
0.06314994032
0.06315011851
0.0631506074
0.06315178038
0.06315410662
0.06314985554
0.06314985554
0.06314985554
0.06314985555
0.06314985557
0.06314985566
0.06314985597
0.06314985708
0.06314986087
0.06314987327
0.0631499117
0.06315002268
0.06315031437
0.06315099078
0.06314985554
0.06314985554
0.06314985554
0.06314985555
0.06314985558
0.0631498557
0.06314985617
0.06314985789
0.06314986414
0.06314988602
0.06314995883
0.06315018511
0.06315082305
0.06315238481
0.06314985554
0.06314985554
0.06314985554
0.06314985555
0.0631498556
0.06314985579
0.06314985653
0.06314985948
0.06314987089
0.06314991387
0.06315006889
0.06315059362
0.06315220641
0.06315646379
0.06314985554
0.06314985554
0.06314985554
0.06314985556
0.06314985562
0.06314985588
0.06314985695
0.0631498614
0.06314987969
0.06314995336
0.06315024077
0.06315130559
0.06315492596
0.06316552014
0.06314985554
0.06314985554
0.06314985554
0.06314985556
0.06314985563
0.06314985592
0.06314985716
0.06314986244
0.06314988488
0.06314997935
0.06315037008
0.06315193384
0.06315781635
0.0631773594
0.06314985554
0.06314985554
0.06314985554
0.06314985556
0.06314985562
0.06314985588
0.06314985695
0.0631498614
0.06314987969
0.06314995336
0.06315024077
0.06315130558
0.06315492593
0.06316552006
0.06314985554
0.06314985554
0.06314985554
0.06314985555
0.0631498556
0.06314985579
0.06314985653
0.06314985948
0.06314987089
0.06314991387
0.06315006889
0.06315059361
0.06315220639
0.06315646376
0.06314985554
0.06314985554
0.06314985554
0.06314985555
0.06314985558
0.0631498557
0.06314985617
0.06314985789
0.06314986414
0.06314988602
0.06314995883
0.06315018511
0.06315082304
0.06315238478
0.06315549443
0.06314985554
0.06314985554
0.06314985554
0.06314985555
0.06314985557
0.06314985566
0.06314985597
0.06314985708
0.06314986087
0.06314987327
0.0631499117
0.06315002268
0.06315031436
0.06315099077
0.06315232268
0.06314985554
0.06314985554
0.06314985554
0.06314985555
0.06314985556
0.06314985562
0.06314985584
0.06314985657
0.06314985897
0.06314986647
0.06314988865
0.06314994977
0.06315010387
0.06315045104
0.06314985554
0.06314985554
0.06314985554
0.06314985555
0.06314985557
0.06314985565
0.06314985596
0.06314985703
0.06314986073
0.06314987291
0.06314991097
0.06315002185
0.06315031576
0.06315100157
0.06314985554
0.06314985554
0.06314985554
0.06314985555
0.06314985558
0.0631498557
0.06314985617
0.06314985789
0.06314986414
0.06314988602
0.06314995883
0.06315018511
0.06315082305
0.06315238481
0.06314985554
0.06314985554
0.06314985554
0.06314985555
0.06314985559
0.06314985576
0.06314985639
0.06314985887
0.06314986827
0.06314990288
0.0631500251
0.06315043042
0.06315165374
0.063154839
0.06314985554
0.06314985554
0.06314985554
0.06314985555
0.0631498556
0.06314985578
0.0631498565
0.06314985936
0.06314987048
0.06314991269
0.06315006762
0.06315060717
0.0631523364
0.06315715015
0.06314985554
0.06314985554
0.06314985554
0.06314985555
0.06314985559
0.06314985576
0.06314985639
0.06314985887
0.06314986827
0.06314990288
0.0631500251
0.06315043041
0.06315165373
0.06315483897
0.06314985554
0.06314985554
0.06314985554
0.06314985555
0.06314985558
0.0631498557
0.06314985617
0.06314985789
0.06314986414
0.06314988602
0.06314995883
0.06315018511
0.06315082304
0.06315238479
0.06314985554
0.06314985554
0.06314985554
0.06314985555
0.06314985557
0.06314985565
0.06314985596
0.06314985703
0.06314986073
0.0631498729
0.06314991097
0.06315002185
0.06315031575
0.06315100156
0.06314985554
0.06314985554
0.06314985554
0.06314985555
0.06314985556
0.06314985562
0.06314985584
0.06314985657
0.06314985897
0.06314986647
0.06314988865
0.06314994977
0.06315010386
0.06315045104
0.06315113302
0.06314985554
0.06314985554
0.06314985554
0.06314985554
0.06314985556
0.06314985561
0.06314985577
0.06314985629
0.06314985795
0.06314986292
0.06314987703
0.06314991442
0.06315000553
0.06315020641
0.06314985554
0.06314985554
0.06314985554
0.06314985555
0.06314985556
0.06314985562
0.06314985584
0.06314985657
0.06314985897
0.06314986647
0.06314988865
0.06314994977
0.06315010387
0.06315045104
0.06314985554
0.06314985554
0.06314985554
0.06314985555
0.06314985557
0.06314985566
0.06314985597
0.06314985708
0.06314986087
0.06314987327
0.0631499117
0.06315002268
0.06315031437
0.06315099079
0.06314985554
0.06314985554
0.06314985554
0.06314985555
0.06314985558
0.06314985569
0.06314985611
0.06314985763
0.063149863
0.06314988127
0.06314994032
0.06315011851
0.06315060742
0.06315178042
0.06314985554
0.06314985554
0.06314985554
0.06314985555
0.06314985558
0.06314985571
0.06314985617
0.06314985789
0.06314986405
0.06314988545
0.0631499563
0.06315017632
0.06315079987
0.06315234322
0.06314985554
0.06314985554
0.06314985554
0.06314985555
0.06314985558
0.06314985569
0.06314985611
0.06314985763
0.063149863
0.06314988127
0.06314994032
0.06315011851
0.06315060741
0.06315178041
0.06314985554
0.06314985554
0.06314985554
0.06314985555
0.06314985557
0.06314985566
0.06314985597
0.06314985708
0.06314986087
0.06314987327
0.0631499117
0.06315002268
0.06315031436
0.06315099078
0.06314985554
0.06314985554
0.06314985554
0.06314985555
0.06314985556
0.06314985562
0.06314985584
0.06314985657
0.06314985897
0.06314986647
0.06314988865
0.06314994977
0.06315010386
0.06315045104
0.06314985554
0.06314985554
0.06314985554
0.06314985554
0.06314985556
0.06314985561
0.06314985577
0.06314985629
0.06314985795
0.06314986292
0.06314987703
0.06314991442
0.06315000553
0.06315020641
)
;

boundaryField
{
    top
    {
        type            zeroGradient;
    }
    bottom
    {
        type            zeroGradient;
    }
    side-walls
    {
        type            zeroGradient;
    }
    inlet
    {
        type            zeroGradient;
    }
    outlet
    {
        type            zeroGradient;
    }
    procBoundary0to1
    {
        type            processor;
        value           nonuniform List<scalar> 
97
(
0.06315128674
0.06315113302
0.0631522846
0.06315448619
0.06315770704
0.0631600024
0.06315770697
0.06315448614
0.06315228456
0.06315128671
0.06315113302
0.06315113302
0.06315453019
0.06315549448
0.0631601724
0.06317018292
0.06317960838
0.06317018283
0.06316017232
0.06315453011
0.06315228456
0.06315232269
0.06315549448
0.06315549448
0.06317681066
0.06318867892
0.06321375274
0.06326203964
0.0632137522
0.06317681029
0.06316017226
0.06315448613
0.06315410665
0.06316133815
0.06318867892
0.06318867892
0.06334020559
0.06354427325
0.06358788048
0.06334020374
0.06321375227
0.06317018281
0.06315770697
0.06315544247
0.0631674241
0.06322581234
0.06354427325
0.06354427325
0.06465214184
0.0635442721
0.06358788014
0.0632823203
0.06326203946
0.06317960831
0.06316000235
0.06315410663
0.06316133806
0.06318867842
0.06328232044
0.0635442721
0.0632823203
0.0632823203
0.06321375255
0.06316518677
0.06317018284
0.06315770697
0.06315232267
0.06315549441
0.06316518671
0.06318867835
0.0632258115
0.06318867818
0.06316518677
0.06316518677
0.06316017232
0.06315235308
0.06315448616
0.063151133
0.06315235307
0.06315549441
0.06316133807
0.06316742393
0.063161338
0.06315549438
0.06315235308
0.06315235308
0.06315228459
0.06315060099
0.06315060099
0.063151133
0.06315232268
0.06315410664
0.06315544243
0.06315410662
0.06315232266
0.063151133
0.06315060099
)
;
    }
}


// ************************************************************************* //
