/*--------------------------------*- C++ -*----------------------------------*\
| =========                 |                                                 |
| \\      /  F ield         | OpenFOAM: The Open Source CFD Toolbox           |
|  \\    /   O peration     | Version:  4.x                                   |
|   \\  /    A nd           | Web:      www.OpenFOAM.org                      |
|    \\/     M anipulation  |                                                 |
\*---------------------------------------------------------------------------*/
FoamFile
{
    version     2.0;
    format      ascii;
    class       volScalarField;
    location    "11000";
    object      Cpv;
}
// * * * * * * * * * * * * * * * * * * * * * * * * * * * * * * * * * * * * * //

dimensions      [0 2 -2 -1 0 0 0];

internalField   nonuniform List<scalar> 
1175
(
1245.091152
1245.091158
1245.091147
1245.091155
1245.091159
1245.091136
1245.091131
1245.091132
1245.091138
1245.091134
1245.091134
1245.091119
1245.091116
1245.091115
1245.091099
1245.09137
1245.091362
1245.09136
1245.091357
1245.091354
1245.091323
1245.091325
1245.091347
1245.091359
1245.091366
1245.09138
1245.091383
1245.091395
1245.091426
1245.091423
1245.090866
1245.090879
1245.090862
1245.090858
1245.09085
1245.090851
1245.09085
1245.090873
1245.090847
1245.090848
1245.090843
1245.090826
1245.090813
1245.090804
1245.09078
1245.092174
1245.092175
1245.092184
1245.092187
1245.092165
1245.092175
1245.092187
1245.092193
1245.092201
1245.092208
1245.092197
1245.092239
1245.092249
1245.09221
1245.09219
1245.091226
1245.091254
1245.091246
1245.091209
1245.091216
1245.091227
1245.091204
1245.091205
1245.091192
1245.091222
1245.09121
1245.091194
1245.091197
1245.091191
1245.091146
1245.089892
1245.089898
1245.089896
1245.089908
1245.089925
1245.089948
1245.089955
1245.089947
1245.089928
1245.089906
1245.089903
1245.089909
1245.089914
1245.089887
1245.089849
1245.090168
1245.090156
1245.090154
1245.090145
1245.090135
1245.090138
1245.090126
1245.090144
1245.090134
1245.090135
1245.090163
1245.090156
1245.090143
1245.090148
1245.090124
1245.091366
1245.091351
1245.091339
1245.091325
1245.091313
1245.091274
1245.091291
1245.091269
1245.091251
1245.091247
1245.09128
1245.091292
1245.091293
1245.091272
1245.09127
1245.090982
1245.090986
1245.09097
1245.090966
1245.090958
1245.090967
1245.090958
1245.090964
1245.090956
1245.090984
1245.090962
1245.090941
1245.090916
1245.090911
1245.090915
1245.090746
1245.090725
1245.090721
1245.090727
1245.09072
1245.090733
1245.090732
1245.090713
1245.090711
1245.090707
1245.090728
1245.09071
1245.090711
1245.090698
1245.091052
1245.091066
1245.091056
1245.09106
1245.091061
1245.091037
1245.091047
1245.091064
1245.09106
1245.09106
1245.091055
1245.091064
1245.091079
1245.091067
1245.091048
1245.091647
1245.091657
1245.091651
1245.091651
1245.091654
1245.091628
1245.091637
1245.091654
1245.091655
1245.091692
1245.091678
1245.091657
1245.091634
1245.091618
1245.091573
1245.090842
1245.090852
1245.090842
1245.090848
1245.090842
1245.090851
1245.090833
1245.090845
1245.090866
1245.09084
1245.090839
1245.090853
1245.090882
1245.090833
1245.090761
1245.090557
1245.090531
1245.090534
1245.09054
1245.090538
1245.090567
1245.090563
1245.090595
1245.090581
1245.090566
1245.090559
1245.090571
1245.090554
1245.09049
1245.090353
1245.09188
1245.091873
1245.091879
1245.091902
1245.091888
1245.091895
1245.091871
1245.091877
1245.091913
1245.09191
1245.091896
1245.091888
1245.091858
1245.091808
1245.091723
1245.092622
1245.092614
1245.092611
1245.092612
1245.092607
1245.092596
1245.092612
1245.092587
1245.092598
1245.092586
1245.092597
1245.092601
1245.092595
1245.092556
1245.09255
1245.089779
1245.089764
1245.089817
1245.089826
1245.089832
1245.089837
1245.089825
1245.089846
1245.089861
1245.089855
1245.089843
1245.08983
1245.089851
1245.08984
1245.089806
1245.091115
1245.09111
1245.091135
1245.091164
1245.091165
1245.091149
1245.091159
1245.091169
1245.091166
1245.091153
1245.091142
1245.09114
1245.091151
1245.091158
1245.091158
1245.090919
1245.090909
1245.090904
1245.090926
1245.090916
1245.090929
1245.090944
1245.090928
1245.090915
1245.090906
1245.090888
1245.090886
1245.090873
1245.090865
1245.09086
1245.090866
1245.090876
1245.090904
1245.090869
1245.090896
1245.090898
1245.090898
1245.090887
1245.090887
1245.090878
1245.090866
1245.090863
1245.090858
1245.090493
1245.090487
1245.090514
1245.09052
1245.090522
1245.090498
1245.090495
1245.090507
1245.090543
1245.090555
1245.090551
1245.090538
1245.090514
1245.090476
1245.090379
1245.090781
1245.090791
1245.090782
1245.09077
1245.090756
1245.090782
1245.090793
1245.090826
1245.09081
1245.090837
1245.090823
1245.090799
1245.090743
1245.090617
1245.090375
1245.090936
1245.090947
1245.090939
1245.09095
1245.090947
1245.090942
1245.090953
1245.090945
1245.090956
1245.090958
1245.090999
1245.090981
1245.09091
1245.090706
1245.090168
1245.090107
1245.090088
1245.090102
1245.090101
1245.090103
1245.090063
1245.090072
1245.090053
1245.090044
1245.090034
1245.090038
1245.090045
1245.090007
1245.089909
1245.089676
1245.090099
1245.090123
1245.090121
1245.090135
1245.090123
1245.090134
1245.090149
1245.090153
1245.090165
1245.090179
1245.090186
1245.090147
1245.090115
1245.090089
1245.090013
1245.090519
1245.090525
1245.090507
1245.090495
1245.0905
1245.090525
1245.090506
1245.090522
1245.090516
1245.090504
1245.090496
1245.090518
1245.090487
1245.090447
1245.090401
1245.090568
1245.090581
1245.0906
1245.090592
1245.090605
1245.090596
1245.090596
1245.090591
1245.090575
1245.090601
1245.090596
1245.090592
1245.090592
1245.090571
1245.090589
1245.090044
1245.090049
1245.090072
1245.090082
1245.09006
1245.090046
1245.090033
1245.090048
1245.090072
1245.090065
1245.090052
1245.09007
1245.090069
1245.090073
1245.090405
1245.090417
1245.090411
1245.090406
1245.090408
1245.090385
1245.090369
1245.090364
1245.090378
1245.090386
1245.090388
1245.090406
1245.090373
1245.090337
1245.089148
1245.089157
1245.089133
1245.089139
1245.089144
1245.089188
1245.089197
1245.089196
1245.089172
1245.089162
1245.089162
1245.089157
1245.089094
1245.088991
1245.091419
1245.091396
1245.091384
1245.091363
1245.091347
1245.09135
1245.091332
1245.09134
1245.091336
1245.091322
1245.091325
1245.091299
1245.091191
1245.090806
1245.089852
1245.090924
1245.090913
1245.090927
1245.090912
1245.090892
1245.090911
1245.090896
1245.090893
1245.090897
1245.0909
1245.090874
1245.090817
1245.090616
1245.089679
1245.086317
1245.091065
1245.091074
1245.091086
1245.091083
1245.091083
1245.091056
1245.091055
1245.091054
1245.091058
1245.091076
1245.091055
1245.091046
1245.090945
1245.090577
1245.089603
1245.091136
1245.091116
1245.091116
1245.091118
1245.091094
1245.091096
1245.091089
1245.091088
1245.091079
1245.091073
1245.091052
1245.091033
1245.090987
1245.090877
1245.090601
1245.091303
1245.091297
1245.091278
1245.09127
1245.091295
1245.091298
1245.091288
1245.091291
1245.091273
1245.091274
1245.091258
1245.091252
1245.091214
1245.091201
1245.091125
1245.091055
1245.09106
1245.091063
1245.091079
1245.091081
1245.091069
1245.091065
1245.091069
1245.091076
1245.091064
1245.091018
1245.09102
1245.091043
1245.091018
1245.091008
1245.090837
1245.090832
1245.090828
1245.090837
1245.090833
1245.090829
1245.090834
1245.090836
1245.090823
1245.090828
1245.090833
1245.090853
1245.09085
1245.090816
1245.090543
1245.090534
1245.090551
1245.090526
1245.090535
1245.090534
1245.09054
1245.090509
1245.090536
1245.090541
1245.090537
1245.090534
1245.09053
1245.090492
1245.092083
1245.0921
1245.092091
1245.092116
1245.092132
1245.092134
1245.092146
1245.092139
1245.092135
1245.092138
1245.092127
1245.092101
1245.092025
1245.091807
1245.091793
1245.091794
1245.09179
1245.091794
1245.091797
1245.091784
1245.091794
1245.091803
1245.091808
1245.0918
1245.091807
1245.091754
1245.091536
1245.090624
1245.091413
1245.0914
1245.091413
1245.091412
1245.091392
1245.091401
1245.091387
1245.09138
1245.091402
1245.091389
1245.091359
1245.091268
1245.090698
1245.087175
1244.648619
1245.090726
1245.090718
1245.090675
1245.090688
1245.09069
1245.090702
1245.090715
1245.090746
1245.090753
1245.090745
1245.090724
1245.090671
1245.090452
1245.089541
1245.086144
1245.091003
1245.090968
1245.090983
1245.090987
1245.091012
1245.091032
1245.091048
1245.091045
1245.091034
1245.091005
1245.09099
1245.090967
1245.090897
1245.090672
1245.090092
1245.09047
1245.090501
1245.090505
1245.090487
1245.09048
1245.090465
1245.090482
1245.090467
1245.090483
1245.090511
1245.09054
1245.090509
1245.090507
1245.090445
1245.090347
1245.09038
1245.090369
1245.090385
1245.090414
1245.090446
1245.090441
1245.090443
1245.090425
1245.090413
1245.090407
1245.090391
1245.090397
1245.090388
1245.09036
1245.090309
1245.090579
1245.090562
1245.090565
1245.090578
1245.090604
1245.090628
1245.090619
1245.09059
1245.090569
1245.09058
1245.090582
1245.090589
1245.090583
1245.090574
1245.089643
1245.089647
1245.089639
1245.089641
1245.089641
1245.089635
1245.089603
1245.089595
1245.089608
1245.089618
1245.089627
1245.089613
1245.089607
1245.089539
1245.090039
1245.090043
1245.090022
1245.090039
1245.090051
1245.090033
1245.090024
1245.090045
1245.090043
1245.090045
1245.090035
1245.09003
1245.089998
1245.089887
1245.090312
1245.090314
1245.090304
1245.090301
1245.090318
1245.090301
1245.090322
1245.090308
1245.090321
1245.090326
1245.09031
1245.090279
1245.09018
1245.089827
1245.090929
1245.090952
1245.090967
1245.090977
1245.090972
1245.090986
1245.090975
1245.090982
1245.090981
1245.090958
1245.090942
1245.090877
1245.090668
1245.089718
1245.090288
1245.090282
1245.090276
1245.09027
1245.090246
1245.090248
1245.090265
1245.090245
1245.090261
1245.090263
1245.090252
1245.090229
1245.090108
1245.089742
1245.091119
1245.091131
1245.09113
1245.091103
1245.091102
1245.091092
1245.091113
1245.09113
1245.091121
1245.091102
1245.091074
1245.091083
1245.091061
1245.090925
1245.090682
1245.090148
1245.090161
1245.090148
1245.090143
1245.090144
1245.090178
1245.090186
1245.090191
1245.09019
1245.090192
1245.090182
1245.090181
1245.090164
1245.090134
1245.090067
1245.090493
1245.090498
1245.09049
1245.090488
1245.090487
1245.090485
1245.090491
1245.090521
1245.09053
1245.090522
1245.090539
1245.090552
1245.090564
1245.090553
1245.090527
1245.089789
1245.089776
1245.089778
1245.089769
1245.089766
1245.089764
1245.08978
1245.08981
1245.089793
1245.0898
1245.089815
1245.0898
1245.089794
1245.089785
1245.091081
1245.091113
1245.091125
1245.091159
1245.091151
1245.091178
1245.091174
1245.091163
1245.091196
1245.091204
1245.091194
1245.091168
1245.091183
1245.09116
1245.092508
1245.092483
1245.092491
1245.09247
1245.092459
1245.092471
1245.092458
1245.092451
1245.092459
1245.092452
1245.092453
1245.092432
1245.092429
1245.092387
1245.091045
1245.091032
1245.091032
1245.091043
1245.091049
1245.091058
1245.091047
1245.091038
1245.091019
1245.091041
1245.091067
1245.091054
1245.091017
1245.090917
1245.090046
1245.090071
1245.090065
1245.090069
1245.090063
1245.090059
1245.090038
1245.090029
1245.090016
1245.090013
1245.089974
1245.089959
1245.089895
1245.089659
1245.090542
1245.090562
1245.090548
1245.090548
1245.090553
1245.090543
1245.090549
1245.090526
1245.090524
1245.090513
1245.090518
1245.090516
1245.090483
1245.090361
1245.09078
1245.090784
1245.0908
1245.090774
1245.090794
1245.090803
1245.090833
1245.09086
1245.090901
1245.090914
1245.090899
1245.090901
1245.090856
1245.090825
1245.089889
1245.089866
1245.089878
1245.089882
1245.089872
1245.089889
1245.08986
1245.089857
1245.089856
1245.089857
1245.089898
1245.089882
1245.089864
1245.089837
1245.08981
1245.091451
1245.09147
1245.091488
1245.091476
1245.091464
1245.091459
1245.091451
1245.091456
1245.091437
1245.091437
1245.091436
1245.091447
1245.091438
1245.091449
1245.091471
1245.09135
1245.091369
1245.091374
1245.091371
1245.091382
1245.091383
1245.091415
1245.091427
1245.091433
1245.091435
1245.091425
1245.091421
1245.091422
1245.091396
1245.091298
1245.0913
1245.091316
1245.09132
1245.091309
1245.091334
1245.091331
1245.091329
1245.091343
1245.091333
1245.091347
1245.091331
1245.091346
1245.091358
1245.090685
1245.09067
1245.090698
1245.090682
1245.090665
1245.090659
1245.090664
1245.090661
1245.090656
1245.090646
1245.090658
1245.090645
1245.090627
1245.090631
1245.091178
1245.091214
1245.091208
1245.091209
1245.091174
1245.091147
1245.09117
1245.091157
1245.091157
1245.091124
1245.09112
1245.09111
1245.091077
1245.091048
1245.091415
1245.091433
1245.091445
1245.091452
1245.091433
1245.091415
1245.091427
1245.091424
1245.09143
1245.091425
1245.091443
1245.091433
1245.091421
1245.091364
1245.090411
1245.0904
1245.090404
1245.090398
1245.090433
1245.090427
1245.090412
1245.090407
1245.0904
1245.090389
1245.090389
1245.090371
1245.09037
1245.090345
1245.090579
1245.090562
1245.090553
1245.090564
1245.090561
1245.090565
1245.090534
1245.090511
1245.090496
1245.090499
1245.0905
1245.090479
1245.09046
1245.090442
1245.090465
1245.090489
1245.090469
1245.090467
1245.090468
1245.090476
1245.090504
1245.090476
1245.090496
1245.090485
1245.090501
1245.090511
1245.090505
1245.090514
1245.092152
1245.092148
1245.092141
1245.092151
1245.092143
1245.092144
1245.092148
1245.092116
1245.092109
1245.092107
1245.092091
1245.09209
1245.092101
1245.092081
1245.092072
1245.09049
1245.090484
1245.090479
1245.090475
1245.090457
1245.090458
1245.090441
1245.090454
1245.090457
1245.090462
1245.090468
1245.090466
1245.090447
1245.09044
1245.090953
1245.090944
1245.090956
1245.090961
1245.090953
1245.090971
1245.090982
1245.090971
1245.090939
1245.090944
1245.090948
1245.090956
1245.090972
1245.090957
1245.090756
1245.090762
1245.090751
1245.090727
1245.090733
1245.090728
1245.090716
1245.09074
1245.090742
1245.090756
1245.090779
1245.090774
1245.090776
1245.090759
1245.091412
1245.091396
1245.091388
1245.091391
1245.091407
1245.091402
1245.091414
1245.091422
1245.091403
1245.091392
1245.091398
1245.091387
1245.091376
1245.091337
1245.090603
1245.09062
1245.090632
1245.090608
1245.090606
1245.090614
1245.090603
1245.090596
1245.090614
1245.090623
1245.090611
1245.090594
1245.090575
1245.090556
1245.091694
1245.09169
1245.091689
1245.091696
1245.091707
1245.091689
1245.091682
1245.091666
1245.091684
1245.091683
1245.091676
1245.091663
1245.091668
1245.091663
1245.090782
1245.090772
1245.090786
1245.090795
1245.090792
1245.090798
1245.090796
1245.090797
1245.09081
1245.090791
1245.090786
1245.090793
1245.090795
1245.090764
1245.090164
1245.090164
1245.090175
1245.090172
1245.090189
1245.090194
1245.090215
1245.090229
1245.09021
1245.09021
1245.090211
1245.090205
1245.090206
1245.090191
1245.090815
1245.090807
1245.090793
1245.090778
1245.090785
1245.090773
1245.090767
1245.090781
1245.090778
1245.090774
1245.09078
1245.090773
1245.090769
1245.090775
)
;

boundaryField
{
    top
    {
        type            calculated;
        value           nonuniform List<scalar> 
134
(
1245.090982
1245.091115
1245.090568
1245.091055
1245.09038
1245.090493
1245.091451
1245.092152
1245.090815
1245.090986
1245.09111
1245.090581
1245.09106
1245.090369
1245.090498
1245.09147
1245.092148
1245.090807
1245.09097
1245.091135
1245.0906
1245.091063
1245.090385
1245.09049
1245.091488
1245.092141
1245.090793
1245.090966
1245.091164
1245.090592
1245.091079
1245.090414
1245.090488
1245.091476
1245.092151
1245.090778
1245.090958
1245.091165
1245.090605
1245.091081
1245.090446
1245.090487
1245.091464
1245.092143
1245.090785
1245.090967
1245.091149
1245.090596
1245.091069
1245.090441
1245.090485
1245.091459
1245.092144
1245.090773
1245.090958
1245.091159
1245.090596
1245.091065
1245.090443
1245.090491
1245.091451
1245.092148
1245.090767
1245.090964
1245.091169
1245.090591
1245.091069
1245.090425
1245.090521
1245.091456
1245.092116
1245.090781
1245.090956
1245.091166
1245.090575
1245.091076
1245.090413
1245.09053
1245.091437
1245.092109
1245.090778
1245.090984
1245.091153
1245.090601
1245.091064
1245.090407
1245.090522
1245.091437
1245.092107
1245.090774
1245.090962
1245.091142
1245.090596
1245.091018
1245.090391
1245.090539
1245.091436
1245.092091
1245.09078
1245.090941
1245.09114
1245.090592
1245.09102
1245.090397
1245.090552
1245.091447
1245.09209
1245.090773
1245.090916
1245.091151
1245.090592
1245.091043
1245.090388
1245.090564
1245.091438
1245.092101
1245.090769
1245.090911
1245.091158
1245.090571
1245.091018
1245.09036
1245.090553
1245.091449
1245.092081
1245.090775
1245.090915
1245.091158
1245.090589
1245.091008
1245.090309
1245.090527
1245.091471
1245.092072
)
;
    }
    bottom
    {
        type            calculated;
        value           nonuniform List<scalar> 
127
(
1245.091152
1245.090746
1245.090919
1245.090044
1245.090837
1245.090579
1245.089789
1245.09135
1245.09049
1245.091158
1245.090725
1245.090909
1245.090049
1245.090832
1245.090562
1245.089776
1245.091369
1245.090484
1245.091147
1245.090721
1245.090904
1245.090072
1245.090828
1245.090565
1245.089778
1245.091374
1245.090479
1245.091155
1245.090727
1245.090926
1245.090082
1245.090837
1245.090578
1245.089769
1245.091371
1245.090475
1245.091159
1245.09072
1245.090916
1245.09006
1245.090833
1245.090604
1245.089766
1245.091382
1245.090457
1245.091136
1245.090733
1245.090929
1245.090046
1245.090829
1245.090628
1245.089764
1245.091383
1245.090458
1245.091131
1245.090732
1245.090944
1245.090033
1245.090834
1245.090619
1245.08978
1245.091415
1245.090441
1245.091132
1245.090713
1245.090928
1245.090048
1245.090836
1245.09059
1245.08981
1245.091427
1245.090454
1245.091138
1245.090711
1245.090915
1245.090072
1245.090823
1245.090569
1245.089793
1245.091433
1245.090457
1245.091134
1245.090707
1245.090906
1245.090065
1245.090828
1245.09058
1245.0898
1245.091435
1245.090462
1245.091134
1245.090728
1245.090888
1245.090052
1245.090833
1245.090582
1245.089815
1245.091425
1245.090468
1245.091119
1245.09071
1245.090886
1245.09007
1245.090853
1245.090589
1245.0898
1245.091421
1245.090466
1245.091116
1245.090711
1245.090873
1245.090069
1245.09085
1245.090583
1245.089794
1245.091422
1245.090447
1245.091115
1245.090698
1245.090865
1245.090073
1245.090816
1245.090574
1245.089785
1245.091396
1245.09044
1245.091099
)
;
    }
    side-walls
    {
        type            calculated;
        value           nonuniform List<scalar> 
261
(
1245.091152
1245.09137
1245.090866
1245.092174
1245.091226
1245.089892
1245.090168
1245.091366
1245.090982
1245.091158
1245.091362
1245.090879
1245.092175
1245.091254
1245.089898
1245.090156
1245.091351
1245.090986
1245.091147
1245.09136
1245.090862
1245.092184
1245.091246
1245.089896
1245.090154
1245.091339
1245.09097
1245.091155
1245.091357
1245.090858
1245.092187
1245.091209
1245.089908
1245.090145
1245.091325
1245.090966
1245.091159
1245.091354
1245.09085
1245.092165
1245.091216
1245.089925
1245.090135
1245.091313
1245.090958
1245.091136
1245.091323
1245.090851
1245.092175
1245.091227
1245.089948
1245.090138
1245.091274
1245.090967
1245.091131
1245.091325
1245.09085
1245.092187
1245.091204
1245.089955
1245.090126
1245.091291
1245.090958
1245.091132
1245.091347
1245.090873
1245.092193
1245.091205
1245.089947
1245.090144
1245.091269
1245.090964
1245.091138
1245.091359
1245.090847
1245.092201
1245.091192
1245.089928
1245.090134
1245.091251
1245.090956
1245.091134
1245.091366
1245.090848
1245.092208
1245.091222
1245.089906
1245.090135
1245.091247
1245.090984
1245.091134
1245.09138
1245.090843
1245.092197
1245.09121
1245.089903
1245.090163
1245.09128
1245.090962
1245.091119
1245.091383
1245.090826
1245.092239
1245.091194
1245.089909
1245.090156
1245.091292
1245.090941
1245.091116
1245.091395
1245.090813
1245.092249
1245.091197
1245.089914
1245.090143
1245.091293
1245.090916
1245.091115
1245.091426
1245.090804
1245.09221
1245.091191
1245.089887
1245.090148
1245.091272
1245.090911
1245.091099
1245.091423
1245.09078
1245.09219
1245.091146
1245.089849
1245.090124
1245.09127
1245.090915
1245.09049
1245.090953
1245.090756
1245.091412
1245.090603
1245.091694
1245.090782
1245.090164
1245.090815
1245.090484
1245.090944
1245.090762
1245.091396
1245.09062
1245.09169
1245.090772
1245.090164
1245.090807
1245.090479
1245.090956
1245.090751
1245.091388
1245.090632
1245.091689
1245.090786
1245.090175
1245.090793
1245.090475
1245.090961
1245.090727
1245.091391
1245.090608
1245.091696
1245.090795
1245.090172
1245.090778
1245.090457
1245.090953
1245.090733
1245.091407
1245.090606
1245.091707
1245.090792
1245.090189
1245.090785
1245.090458
1245.090971
1245.090728
1245.091402
1245.090614
1245.091689
1245.090798
1245.090194
1245.090773
1245.090441
1245.090982
1245.090716
1245.091414
1245.090603
1245.091682
1245.090796
1245.090215
1245.090767
1245.090454
1245.090971
1245.09074
1245.091422
1245.090596
1245.091666
1245.090797
1245.090229
1245.090781
1245.090457
1245.090939
1245.090742
1245.091403
1245.090614
1245.091684
1245.09081
1245.09021
1245.090778
1245.090462
1245.090944
1245.090756
1245.091392
1245.090623
1245.091683
1245.090791
1245.09021
1245.090774
1245.090468
1245.090948
1245.090779
1245.091398
1245.090611
1245.091676
1245.090786
1245.090211
1245.09078
1245.090466
1245.090956
1245.090774
1245.091387
1245.090594
1245.091663
1245.090793
1245.090205
1245.090773
1245.090447
1245.090972
1245.090776
1245.091376
1245.090575
1245.091668
1245.090795
1245.090206
1245.090769
1245.09044
1245.090957
1245.090759
1245.091337
1245.090556
1245.091663
1245.090764
1245.090191
1245.090775
)
;
    }
    inlet
    {
        type            calculated;
        value           nonuniform List<scalar> 
81
(
1245.091152
1245.09137
1245.090866
1245.092174
1245.091226
1245.089892
1245.090168
1245.091366
1245.090982
1245.090746
1245.091052
1245.091647
1245.090842
1245.090557
1245.09188
1245.092622
1245.089779
1245.091115
1245.090919
1245.09086
1245.090493
1245.090781
1245.090936
1245.090107
1245.090099
1245.090519
1245.090568
1245.090044
1245.090405
1245.089148
1245.091419
1245.090924
1245.091065
1245.091136
1245.091303
1245.091055
1245.090837
1245.090543
1245.092083
1245.091793
1245.091413
1245.090726
1245.091003
1245.09047
1245.09038
1245.090579
1245.089643
1245.090039
1245.090312
1245.090929
1245.090288
1245.091119
1245.090148
1245.090493
1245.089789
1245.091081
1245.092508
1245.091045
1245.090046
1245.090542
1245.09078
1245.089889
1245.091451
1245.09135
1245.091298
1245.090685
1245.091178
1245.091415
1245.090411
1245.090579
1245.090465
1245.092152
1245.09049
1245.090953
1245.090756
1245.091412
1245.090603
1245.091694
1245.090782
1245.090164
1245.090815
)
;
    }
    outlet
    {
        type            calculated;
        value           nonuniform 0();
    }
    procBoundary0to1
    {
        type            processor;
        value           nonuniform List<scalar> 
97
(
1245.091081
1245.090694
1245.091383
1245.090749
1245.092137
1245.091104
1245.089817
1245.090089
1245.091261
1245.0909
1245.090694
1245.090694
1245.091017
1245.090854
1245.091533
1245.090673
1245.090236
1245.091634
1245.092498
1245.089764
1245.091137
1245.090828
1245.090854
1245.090854
1245.090229
1245.088741
1245.090103
1245.089759
1245.089368
1245.089864
1245.09037
1245.09053
1245.090032
1245.090273
1245.088741
1245.088741
1245.089222
1245.087225
1245.085809
1245.088921
1245.090304
1245.090998
1245.090965
1245.090789
1245.090392
1245.091244
1245.087225
1245.087225
1244.660948
1245.086339
1245.08563
1245.088769
1245.089718
1245.090193
1245.090288
1245.090544
1245.089483
1245.089645
1245.088884
1245.086339
1245.088769
1245.088769
1245.090398
1245.090711
1245.089998
1245.090478
1245.089783
1245.091096
1245.092292
1245.090637
1245.089128
1245.090149
1245.090711
1245.090711
1245.089767
1245.090479
1245.091424
1245.091387
1245.091316
1245.090608
1245.091004
1245.091232
1245.090265
1245.090401
1245.090479
1245.090479
1245.092029
1245.090765
1245.090439
1245.090962
1245.090748
1245.091302
1245.090519
1245.091629
1245.090753
1245.090182
1245.090765
)
;
    }
}


// ************************************************************************* //
