/*--------------------------------*- C++ -*----------------------------------*\
| =========                 |                                                 |
| \\      /  F ield         | OpenFOAM: The Open Source CFD Toolbox           |
|  \\    /   O peration     | Version:  4.x                                   |
|   \\  /    A nd           | Web:      www.OpenFOAM.org                      |
|    \\/     M anipulation  |                                                 |
\*---------------------------------------------------------------------------*/
FoamFile
{
    version     2.0;
    format      ascii;
    class       volScalarField;
    location    "11000";
    object      H2;
}
// * * * * * * * * * * * * * * * * * * * * * * * * * * * * * * * * * * * * * //

dimensions      [0 0 0 0 0 0 0];

internalField   nonuniform List<scalar> 
1175
(
0.002172513339
0.002172513339
0.002172513339
0.002172513339
0.002172513339
0.002172513338
0.002172513334
0.002172513321
0.002172513282
0.002172513164
0.002172512829
0.002172511942
0.002172509779
0.00217250501
0.002172495643
0.002172513339
0.002172513339
0.002172513339
0.002172513339
0.002172513339
0.002172513337
0.002172513332
0.002172513315
0.002172513258
0.00217251308
0.002172512553
0.002172511102
0.002172507444
0.002172499202
0.002172483013
0.002172513339
0.002172513339
0.002172513339
0.002172513339
0.002172513338
0.002172513336
0.002172513329
0.002172513303
0.002172513213
0.002172512918
0.002172512006
0.002172509371
0.002172502447
0.002172486389
0.002172454768
0.002172513339
0.002172513339
0.002172513339
0.002172513339
0.002172513338
0.002172513336
0.002172513326
0.00217251329
0.002172513162
0.002172512728
0.002172511327
0.002172507096
0.002172495489
0.002172467641
0.002172412413
0.002172513339
0.002172513339
0.002172513339
0.002172513339
0.002172513338
0.002172513335
0.002172513324
0.002172513283
0.002172513137
0.002172512629
0.002172510947
0.002172505724
0.00217249092
0.002172454279
0.002172380698
0.002172513339
0.002172513339
0.002172513339
0.002172513339
0.002172513338
0.002172513336
0.002172513326
0.00217251329
0.002172513162
0.002172512728
0.002172511327
0.002172507096
0.00217249549
0.002172467642
0.002172412414
0.002172513339
0.002172513339
0.002172513339
0.002172513339
0.002172513338
0.002172513336
0.002172513329
0.002172513303
0.002172513213
0.002172512918
0.002172512006
0.002172509372
0.002172502447
0.002172486389
0.002172454769
0.002172513339
0.002172513339
0.002172513339
0.002172513339
0.002172513339
0.002172513337
0.002172513332
0.002172513315
0.002172513258
0.00217251308
0.002172512553
0.002172511102
0.002172507444
0.002172499203
0.002172483013
0.002172513339
0.002172513339
0.002172513339
0.002172513339
0.002172513339
0.002172513338
0.002172513334
0.002172513321
0.002172513282
0.002172513164
0.002172512829
0.002172511942
0.002172509779
0.00217250501
0.002172495644
0.002172513339
0.002172513339
0.002172513339
0.002172513339
0.002172513339
0.002172513337
0.002172513332
0.002172513315
0.002172513258
0.00217251308
0.002172512553
0.002172511102
0.002172507444
0.002172499202
0.002172513339
0.002172513339
0.002172513339
0.002172513339
0.002172513339
0.002172513337
0.002172513329
0.002172513304
0.002172513216
0.002172512927
0.002172512023
0.002172509391
0.002172502414
0.002172486132
0.002172454046
0.002172513339
0.002172513339
0.002172513339
0.002172513339
0.002172513338
0.002172513335
0.002172513324
0.002172513283
0.002172513135
0.002172512616
0.002172510887
0.002172505515
0.00217249037
0.002172453291
0.002172379463
0.002172513339
0.002172513339
0.002172513339
0.002172513339
0.002172513338
0.002172513334
0.002172513319
0.00217251326
0.002172513037
0.002172512215
0.002172509314
0.002172499691
0.002172470647
0.002172395023
0.002172240716
0.002172513339
0.002172513339
0.002172513339
0.002172513339
0.002172513338
0.002172513334
0.002172513316
0.002172513249
0.002172512985
0.002172511982
0.002172508304
0.002172495495
0.002172454439
0.002172340148
0.002172096214
0.002172513339
0.002172513339
0.002172513339
0.002172513339
0.002172513338
0.002172513334
0.002172513319
0.00217251326
0.002172513037
0.002172512215
0.002172509314
0.002172499691
0.002172470648
0.002172395023
0.002172240718
0.002172513339
0.002172513339
0.002172513339
0.002172513339
0.002172513338
0.002172513335
0.002172513324
0.002172513283
0.002172513135
0.002172512616
0.002172510887
0.002172505515
0.00217249037
0.002172453292
0.002172379465
0.002172513339
0.002172513339
0.002172513339
0.002172513339
0.002172513339
0.002172513337
0.002172513329
0.002172513304
0.002172513216
0.002172512927
0.002172512023
0.002172509391
0.002172502414
0.002172486133
0.002172454047
0.002172513339
0.002172513339
0.002172513339
0.002172513339
0.002172513339
0.002172513337
0.002172513332
0.002172513315
0.002172513258
0.00217251308
0.002172512553
0.002172511102
0.002172507444
0.002172499203
0.002172483013
0.002172513339
0.002172513339
0.002172513339
0.002172513339
0.002172513338
0.002172513336
0.002172513329
0.002172513303
0.002172513213
0.002172512918
0.002172512006
0.002172509371
0.002172502447
0.002172486388
0.002172513339
0.002172513339
0.002172513339
0.002172513339
0.002172513338
0.002172513335
0.002172513324
0.002172513283
0.002172513135
0.002172512616
0.002172510887
0.002172505515
0.00217249037
0.002172453291
0.002172513339
0.002172513339
0.002172513339
0.002172513339
0.002172513338
0.002172513333
0.002172513316
0.002172513246
0.002172512975
0.002172511954
0.002172508274
0.002172495816
0.002172457526
0.002172356445
0.002172149333
0.002172513339
0.002172513339
0.002172513339
0.002172513339
0.002172513337
0.002172513331
0.002172513306
0.0021725132
0.002172512766
0.002172511017
0.002172504193
0.002172478912
0.002172392955
0.002172141414
0.002171591544
0.002172513339
0.002172513339
0.002172513339
0.002172513339
0.002172513337
0.00217251333
0.002172513301
0.002172513175
0.002172512643
0.0021725104
0.002172501123
0.002172463995
0.002172324326
0.002171860302
0.002170709824
0.002172513339
0.002172513339
0.002172513339
0.002172513339
0.002172513337
0.002172513331
0.002172513306
0.0021725132
0.002172512766
0.002172511017
0.002172504193
0.002172478913
0.002172392956
0.002172141419
0.002171591556
0.002172513339
0.002172513339
0.002172513339
0.002172513339
0.002172513338
0.002172513333
0.002172513316
0.002172513246
0.002172512975
0.002172511954
0.002172508274
0.002172495817
0.002172457526
0.002172356448
0.002172149342
0.002172513339
0.002172513339
0.002172513339
0.002172513339
0.002172513338
0.002172513335
0.002172513324
0.002172513283
0.002172513135
0.002172512616
0.002172510887
0.002172505515
0.00217249037
0.002172453292
0.002172379465
0.002172513339
0.002172513339
0.002172513339
0.002172513339
0.002172513338
0.002172513336
0.002172513329
0.002172513303
0.002172513213
0.002172512918
0.002172512006
0.002172509372
0.002172502447
0.002172486389
0.002172454769
0.002172513339
0.002172513339
0.002172513339
0.002172513339
0.002172513338
0.002172513336
0.002172513326
0.00217251329
0.002172513162
0.002172512728
0.002172511327
0.002172507096
0.002172495489
0.002172467641
0.002172513339
0.002172513339
0.002172513339
0.002172513339
0.002172513338
0.002172513334
0.002172513319
0.00217251326
0.002172513037
0.002172512215
0.002172509314
0.002172499691
0.002172470647
0.002172395021
0.002172513339
0.002172513339
0.002172513339
0.002172513339
0.002172513337
0.002172513331
0.002172513306
0.0021725132
0.002172512766
0.002172511017
0.002172504193
0.002172478912
0.002172392954
0.002172141409
0.002172513339
0.002172513339
0.002172513339
0.002172513339
0.002172513337
0.002172513328
0.00217251329
0.002172513123
0.002172512385
0.002172509145
0.002172495136
0.00217243642
0.002172205275
0.00217140543
0.002169367981
0.002172513339
0.002172513339
0.002172513339
0.002172513339
0.002172513336
0.002172513326
0.002172513282
0.002172513078
0.002172512136
0.002172507737
0.002172487007
0.002172389189
0.002171935455
0.00216996415
0.002163147839
0.002172513339
0.002172513339
0.002172513339
0.002172513339
0.002172513337
0.002172513328
0.00217251329
0.002172513123
0.002172512385
0.002172509145
0.002172495136
0.002172436421
0.002172205279
0.002171405448
0.002169368044
0.002172513339
0.002172513339
0.002172513339
0.002172513339
0.002172513337
0.002172513331
0.002172513306
0.0021725132
0.002172512766
0.002172511017
0.002172504193
0.002172478912
0.002172392955
0.002172141418
0.002171591554
0.002172513339
0.002172513339
0.002172513339
0.002172513339
0.002172513338
0.002172513334
0.002172513319
0.00217251326
0.002172513037
0.002172512215
0.002172509314
0.002172499691
0.002172470647
0.002172395023
0.002172240718
0.002172513339
0.002172513339
0.002172513339
0.002172513339
0.002172513338
0.002172513336
0.002172513326
0.00217251329
0.002172513162
0.002172512728
0.002172511327
0.002172507096
0.00217249549
0.002172467642
0.002172412414
0.002172513339
0.002172513339
0.002172513339
0.002172513339
0.002172513338
0.002172513335
0.002172513324
0.002172513283
0.002172513137
0.002172512629
0.002172510947
0.002172505724
0.00217249092
0.002172454278
0.002172513339
0.002172513339
0.002172513339
0.002172513339
0.002172513338
0.002172513334
0.002172513316
0.002172513249
0.002172512985
0.002172511982
0.002172508304
0.002172495494
0.002172454438
0.002172340144
0.002172513339
0.002172513339
0.002172513339
0.002172513339
0.002172513337
0.00217251333
0.002172513301
0.002172513175
0.002172512643
0.0021725104
0.002172501123
0.002172463994
0.002172324321
0.002171860282
0.002172513339
0.002172513339
0.002172513339
0.002172513339
0.002172513336
0.002172513326
0.002172513282
0.002172513078
0.002172512136
0.002172507736
0.002172487006
0.002172389187
0.002171935444
0.002169964084
0.002172513339
0.002172513339
0.002172513339
0.002172513339
0.002172513336
0.002172513325
0.002172513271
0.002172513018
0.002172511778
0.00217250548
0.002172471984
0.002172283347
0.002171147358
0.002163784192
0.00211218661
0.002172513339
0.002172513339
0.002172513339
0.002172513339
0.002172513336
0.002172513326
0.002172513282
0.002172513078
0.002172512136
0.002172507737
0.002172487007
0.002172389189
0.002171935455
0.002169964149
0.002163147839
0.002172513339
0.002172513339
0.002172513339
0.002172513339
0.002172513337
0.00217251333
0.002172513301
0.002172513175
0.002172512643
0.0021725104
0.002172501123
0.002172463995
0.002172324325
0.002171860301
0.002170709824
0.002172513339
0.002172513339
0.002172513339
0.002172513339
0.002172513338
0.002172513334
0.002172513316
0.002172513249
0.002172512985
0.002172511982
0.002172508304
0.002172495495
0.002172454439
0.002172340148
0.002172096214
0.002172513339
0.002172513339
0.002172513339
0.002172513339
0.002172513338
0.002172513335
0.002172513324
0.002172513283
0.002172513137
0.002172512629
0.002172510947
0.002172505724
0.00217249092
0.002172454279
0.002172380698
0.002172513339
0.002172513339
0.002172513339
0.002172513339
0.002172513338
0.002172513336
0.002172513326
0.00217251329
0.002172513162
0.002172512728
0.002172511327
0.002172507096
0.002172495489
0.002172467641
0.002172513339
0.002172513339
0.002172513339
0.002172513339
0.002172513338
0.002172513334
0.002172513319
0.00217251326
0.002172513037
0.002172512215
0.002172509314
0.002172499691
0.002172470647
0.002172395021
0.002172513339
0.002172513339
0.002172513339
0.002172513339
0.002172513337
0.002172513331
0.002172513306
0.0021725132
0.002172512766
0.002172511017
0.002172504193
0.002172478912
0.002172392953
0.00217214141
0.002172513339
0.002172513339
0.002172513339
0.002172513339
0.002172513337
0.002172513328
0.00217251329
0.002172513123
0.002172512385
0.002172509145
0.002172495136
0.002172436419
0.002172205273
0.002171405424
0.002172513339
0.002172513339
0.002172513339
0.002172513339
0.002172513336
0.002172513326
0.002172513282
0.002172513078
0.002172512136
0.002172507737
0.002172487006
0.002172389188
0.002171935446
0.002169964093
0.002172513339
0.002172513339
0.002172513339
0.002172513339
0.002172513337
0.002172513328
0.00217251329
0.002172513123
0.002172512385
0.002172509145
0.002172495136
0.00217243642
0.002172205276
0.002171405429
0.002172513339
0.002172513339
0.002172513339
0.002172513339
0.002172513337
0.002172513331
0.002172513306
0.0021725132
0.002172512766
0.002172511017
0.002172504193
0.002172478912
0.002172392954
0.002172141413
0.00217159154
0.002172513339
0.002172513339
0.002172513339
0.002172513339
0.002172513338
0.002172513334
0.002172513319
0.00217251326
0.002172513037
0.002172512215
0.002172509314
0.002172499691
0.002172470647
0.002172395023
0.002172240716
0.002172513339
0.002172513339
0.002172513339
0.002172513339
0.002172513338
0.002172513336
0.002172513326
0.00217251329
0.002172513162
0.002172512728
0.002172511327
0.002172507096
0.00217249549
0.002172467642
0.002172412414
0.002172513339
0.002172513339
0.002172513339
0.002172513339
0.002172513338
0.002172513336
0.002172513329
0.002172513303
0.002172513213
0.002172512918
0.002172512006
0.002172509371
0.002172502447
0.002172486388
0.002172513339
0.002172513339
0.002172513339
0.002172513339
0.002172513338
0.002172513335
0.002172513324
0.002172513283
0.002172513135
0.002172512616
0.002172510887
0.002172505515
0.002172490369
0.002172453291
0.002172513339
0.002172513339
0.002172513339
0.002172513339
0.002172513338
0.002172513333
0.002172513316
0.002172513246
0.002172512975
0.002172511954
0.002172508274
0.002172495816
0.002172457525
0.002172356443
0.002172513339
0.002172513339
0.002172513339
0.002172513339
0.002172513337
0.002172513331
0.002172513306
0.0021725132
0.002172512766
0.002172511017
0.002172504193
0.002172478912
0.002172392953
0.00217214141
0.002172513339
0.002172513339
0.002172513339
0.002172513339
0.002172513337
0.00217251333
0.002172513301
0.002172513175
0.002172512643
0.0021725104
0.002172501123
0.002172463995
0.002172324323
0.00217186029
0.002172513339
0.002172513339
0.002172513339
0.002172513339
0.002172513337
0.002172513331
0.002172513306
0.0021725132
0.002172512766
0.002172511017
0.002172504193
0.002172478912
0.002172392954
0.002172141412
0.002172513339
0.002172513339
0.002172513339
0.002172513339
0.002172513338
0.002172513333
0.002172513316
0.002172513246
0.002172512975
0.002172511954
0.002172508274
0.002172495816
0.002172457525
0.002172356444
0.002172513339
0.002172513339
0.002172513339
0.002172513339
0.002172513338
0.002172513335
0.002172513324
0.002172513283
0.002172513135
0.002172512616
0.002172510887
0.002172505515
0.00217249037
0.002172453292
0.002172379463
0.002172513339
0.002172513339
0.002172513339
0.002172513339
0.002172513338
0.002172513336
0.002172513329
0.002172513303
0.002172513213
0.002172512918
0.002172512006
0.002172509371
0.002172502447
0.002172486389
0.002172454768
0.002172513339
0.002172513339
0.002172513339
0.002172513339
0.002172513339
0.002172513337
0.002172513332
0.002172513315
0.002172513258
0.00217251308
0.002172512553
0.002172511102
0.002172507444
0.002172499202
0.002172513339
0.002172513339
0.002172513339
0.002172513339
0.002172513339
0.002172513337
0.002172513329
0.002172513304
0.002172513216
0.002172512927
0.002172512023
0.002172509391
0.002172502414
0.002172486132
0.002172513339
0.002172513339
0.002172513339
0.002172513339
0.002172513338
0.002172513335
0.002172513324
0.002172513283
0.002172513135
0.002172512616
0.002172510887
0.002172505515
0.002172490369
0.002172453291
0.002172513339
0.002172513339
0.002172513339
0.002172513339
0.002172513338
0.002172513334
0.002172513319
0.00217251326
0.002172513037
0.002172512215
0.002172509314
0.002172499691
0.002172470647
0.002172395021
0.002172513339
0.002172513339
0.002172513339
0.002172513339
0.002172513338
0.002172513334
0.002172513316
0.002172513249
0.002172512985
0.002172511982
0.002172508304
0.002172495494
0.002172454438
0.002172340145
0.002172513339
0.002172513339
0.002172513339
0.002172513339
0.002172513338
0.002172513334
0.002172513319
0.00217251326
0.002172513037
0.002172512215
0.002172509314
0.002172499691
0.002172470647
0.002172395022
0.002172513339
0.002172513339
0.002172513339
0.002172513339
0.002172513338
0.002172513335
0.002172513324
0.002172513283
0.002172513135
0.002172512616
0.002172510887
0.002172505515
0.00217249037
0.002172453291
0.002172513339
0.002172513339
0.002172513339
0.002172513339
0.002172513339
0.002172513337
0.002172513329
0.002172513304
0.002172513216
0.002172512927
0.002172512023
0.002172509391
0.002172502414
0.002172486132
0.002172513339
0.002172513339
0.002172513339
0.002172513339
0.002172513339
0.002172513337
0.002172513332
0.002172513315
0.002172513258
0.00217251308
0.002172512553
0.002172511102
0.002172507444
0.002172499202
0.002172483013
0.002172513339
0.002172513339
0.002172513339
0.002172513339
0.002172513339
0.002172513338
0.002172513334
0.002172513321
0.002172513282
0.002172513164
0.002172512829
0.002172511942
0.002172509779
0.00217250501
0.002172513339
0.002172513339
0.002172513339
0.002172513339
0.002172513339
0.002172513337
0.002172513332
0.002172513315
0.002172513258
0.00217251308
0.002172512553
0.002172511102
0.002172507444
0.002172499202
0.002172513339
0.002172513339
0.002172513339
0.002172513339
0.002172513338
0.002172513336
0.002172513329
0.002172513303
0.002172513213
0.002172512918
0.002172512006
0.002172509371
0.002172502447
0.002172486388
0.002172513339
0.002172513339
0.002172513339
0.002172513339
0.002172513338
0.002172513336
0.002172513326
0.00217251329
0.002172513162
0.002172512728
0.002172511326
0.002172507096
0.002172495489
0.002172467641
0.002172513339
0.002172513339
0.002172513339
0.002172513339
0.002172513338
0.002172513335
0.002172513324
0.002172513283
0.002172513137
0.002172512629
0.002172510947
0.002172505724
0.00217249092
0.002172454278
0.002172513339
0.002172513339
0.002172513339
0.002172513339
0.002172513338
0.002172513336
0.002172513326
0.00217251329
0.002172513162
0.002172512728
0.002172511326
0.002172507096
0.002172495489
0.002172467641
0.002172513339
0.002172513339
0.002172513339
0.002172513339
0.002172513338
0.002172513336
0.002172513329
0.002172513303
0.002172513213
0.002172512918
0.002172512006
0.002172509371
0.002172502447
0.002172486388
0.002172513339
0.002172513339
0.002172513339
0.002172513339
0.002172513339
0.002172513337
0.002172513332
0.002172513315
0.002172513258
0.00217251308
0.002172512553
0.002172511102
0.002172507444
0.002172499202
0.002172513339
0.002172513339
0.002172513339
0.002172513339
0.002172513339
0.002172513338
0.002172513334
0.002172513321
0.002172513282
0.002172513164
0.002172512829
0.002172511942
0.002172509779
0.00217250501
)
;

boundaryField
{
    top
    {
        type            zeroGradient;
    }
    bottom
    {
        type            zeroGradient;
    }
    side-walls
    {
        type            zeroGradient;
    }
    inlet
    {
        type            zeroGradient;
    }
    outlet
    {
        type            zeroGradient;
    }
    procBoundary0to1
    {
        type            processor;
        value           nonuniform List<scalar> 
97
(
0.002172479365
0.002172483013
0.002172455675
0.002172403406
0.002172326937
0.002172272438
0.002172326939
0.002172403408
0.002172455676
0.002172479366
0.002172483013
0.002172483013
0.002172402361
0.002172379462
0.002172268402
0.002172030722
0.002171806924
0.002172030724
0.002172268404
0.002172402363
0.002172455676
0.002172454768
0.002172379462
0.002172379462
0.002171873359
0.002171591534
0.00217099621
0.00216984965
0.002170996223
0.002171873368
0.002172268406
0.002172403408
0.002172412413
0.002172240714
0.002171591534
0.002171591534
0.002167993638
0.002163147754
0.002162112503
0.002167993681
0.002170996221
0.002172030725
0.002172326938
0.002172380696
0.002172096208
0.002170709798
0.002163147754
0.002163147754
0.00213684068
0.002163147782
0.002162112511
0.002169368026
0.002169849654
0.002171806926
0.00217227244
0.002172412414
0.002172240716
0.002171591546
0.002169368023
0.002163147782
0.002169368026
0.002169368026
0.002170996214
0.002172149335
0.002172030724
0.002172326939
0.002172454769
0.002172379464
0.002172149337
0.002171591548
0.002170709818
0.002171591552
0.002172149335
0.002172149335
0.002172268404
0.002172454046
0.002172403407
0.002172483013
0.002172454046
0.002172379464
0.002172240716
0.002172096212
0.002172240718
0.002172379464
0.002172454046
0.002172454046
0.002172455675
0.002172495643
0.002172495644
0.002172483013
0.002172454768
0.002172412413
0.002172380697
0.002172412414
0.002172454769
0.002172483013
0.002172495643
)
;
    }
}


// ************************************************************************* //
