/*--------------------------------*- C++ -*----------------------------------*\
| =========                 |                                                 |
| \\      /  F ield         | OpenFOAM: The Open Source CFD Toolbox           |
|  \\    /   O peration     | Version:  4.x                                   |
|   \\  /    A nd           | Web:      www.OpenFOAM.org                      |
|    \\/     M anipulation  |                                                 |
\*---------------------------------------------------------------------------*/
FoamFile
{
    version     2.0;
    format      ascii;
    class       volScalarField;
    location    "11000";
    object      H2O;
}
// * * * * * * * * * * * * * * * * * * * * * * * * * * * * * * * * * * * * * //

dimensions      [0 0 0 0 0 0 0];

internalField   nonuniform List<scalar> 
1175
(
9.999350466e-07
9.999349889e-07
9.99935233e-07
9.99936022e-07
9.999387537e-07
9.999483953e-07
9.999807332e-07
1.0000865e-06
1.000419098e-06
1.001418457e-06
1.004254678e-06
1.011769427e-06
1.030083204e-06
1.070463667e-06
1.14979323e-06
9.999351333e-07
9.999351349e-07
9.999354458e-07
9.999363675e-07
9.999398193e-07
9.999523351e-07
9.999958328e-07
1.000143217e-06
1.000625059e-06
1.002132091e-06
1.006588869e-06
1.018873907e-06
1.049847036e-06
1.119633824e-06
1.256732808e-06
9.999351637e-07
9.999352384e-07
9.999355198e-07
9.999368591e-07
9.999414967e-07
9.999589738e-07
1.000022268e-06
1.000245008e-06
1.00100633e-06
1.003497687e-06
1.011221845e-06
1.033526836e-06
1.092153739e-06
1.228116075e-06
1.49586382e-06
9.999352678e-07
9.999353889e-07
9.999356648e-07
9.999372854e-07
9.99943219e-07
9.999657357e-07
1.000049625e-06
1.000355089e-06
1.001434739e-06
1.005106322e-06
1.016974412e-06
1.052786291e-06
1.151049695e-06
1.386819616e-06
1.854440302e-06
9.999353221e-07
9.999353543e-07
9.999357331e-07
9.999374641e-07
9.999439129e-07
9.999686687e-07
1.000062205e-06
1.000406927e-06
1.001646271e-06
1.005946202e-06
1.020185417e-06
1.064403086e-06
1.189726088e-06
1.49992836e-06
2.122919453e-06
9.999353505e-07
9.999353932e-07
9.999357244e-07
9.999372674e-07
9.99943192e-07
9.999657164e-07
1.000049545e-06
1.000355091e-06
1.001434572e-06
1.005106293e-06
1.016974129e-06
1.052785495e-06
1.151047242e-06
1.386812764e-06
1.854424691e-06
9.999351595e-07
9.999351569e-07
9.999354924e-07
9.999367152e-07
9.999415407e-07
9.999589571e-07
1.000022138e-06
1.000245179e-06
1.00100637e-06
1.003497754e-06
1.011221693e-06
1.033526156e-06
1.092151438e-06
1.228109148e-06
1.495847783e-06
9.999349432e-07
9.999350777e-07
9.999352953e-07
9.999362089e-07
9.99939801e-07
9.99952269e-07
9.999957701e-07
1.000143157e-06
1.000625219e-06
1.002132074e-06
1.006588692e-06
1.018873222e-06
1.049844758e-06
1.119627406e-06
1.256717951e-06
9.999350212e-07
9.999351336e-07
9.999352286e-07
9.999360238e-07
9.999386956e-07
9.999482879e-07
9.999806587e-07
1.000086344e-06
1.000419033e-06
1.001418376e-06
1.00425459e-06
1.011768948e-06
1.030081325e-06
1.070457845e-06
1.149778998e-06
9.999350979e-07
9.999352514e-07
9.999355506e-07
9.999363669e-07
9.999398508e-07
9.999523696e-07
9.999957371e-07
1.00014316e-06
1.000625143e-06
1.002132208e-06
1.006589005e-06
1.018874428e-06
1.049849265e-06
1.119643275e-06
9.999351314e-07
9.999352486e-07
9.999354943e-07
9.999366715e-07
9.999411654e-07
9.99958046e-07
1.000019118e-06
1.000235313e-06
1.000977728e-06
1.003425202e-06
1.011075351e-06
1.033361915e-06
1.09243689e-06
1.230296095e-06
1.502009612e-06
9.999353447e-07
9.999353746e-07
9.999356702e-07
9.999373465e-07
9.999435896e-07
9.99968207e-07
1.000061239e-06
1.000407599e-06
1.001664398e-06
1.006060152e-06
1.020693711e-06
1.066173049e-06
1.194394181e-06
1.508312991e-06
2.133428566e-06
9.999353244e-07
9.999354344e-07
9.999358708e-07
9.999378559e-07
9.999461223e-07
9.99978698e-07
1.00010705e-06
1.000604473e-06
1.002492604e-06
1.009449952e-06
1.034012416e-06
1.115472268e-06
1.36134169e-06
2.001559034e-06
3.307977135e-06
9.99935279e-07
9.99935419e-07
9.999359711e-07
9.999381458e-07
9.999472112e-07
9.999834425e-07
1.000128871e-06
1.00070318e-06
1.002936654e-06
1.011420958e-06
1.04255691e-06
1.150993324e-06
1.49853347e-06
2.466031127e-06
4.531129961e-06
9.999352974e-07
9.999354457e-07
9.999358313e-07
9.999379735e-07
9.999460551e-07
9.999785998e-07
1.00010701e-06
1.000604492e-06
1.002492634e-06
1.009449899e-06
1.034012097e-06
1.11547142e-06
1.361337523e-06
2.001542813e-06
3.307932377e-06
9.999352272e-07
9.999353074e-07
9.99935618e-07
9.999372201e-07
9.999436063e-07
9.999679936e-07
1.000061057e-06
1.000407737e-06
1.00166454e-06
1.006060176e-06
1.020693499e-06
1.066171811e-06
1.194388641e-06
1.508292729e-06
2.133374443e-06
9.999351205e-07
9.999352527e-07
9.999354413e-07
9.999365924e-07
9.999411453e-07
9.99957957e-07
1.000018974e-06
1.000235213e-06
1.000977625e-06
1.003425152e-06
1.011075017e-06
1.03336038e-06
1.092431159e-06
1.230276898e-06
1.501957579e-06
9.999352067e-07
9.999351855e-07
9.999353567e-07
9.999362277e-07
9.999397517e-07
9.999521883e-07
9.999956632e-07
1.000143056e-06
1.000625024e-06
1.002132019e-06
1.006588727e-06
1.018873307e-06
1.049845083e-06
1.119627902e-06
1.256718218e-06
9.999352103e-07
9.999352753e-07
9.9993556e-07
9.999367042e-07
9.999415897e-07
9.999589591e-07
1.00002203e-06
1.000245167e-06
1.001006359e-06
1.003497933e-06
1.011222404e-06
1.033528769e-06
1.092161021e-06
1.228140532e-06
9.999352639e-07
9.999353877e-07
9.999356053e-07
9.999372412e-07
9.999436469e-07
9.999681555e-07
1.000061001e-06
1.000407739e-06
1.001664605e-06
1.006060445e-06
1.020694206e-06
1.066175415e-06
1.19440371e-06
1.508353882e-06
9.999353675e-07
9.999354967e-07
9.999360208e-07
9.999381828e-07
9.999472995e-07
9.999846123e-07
1.000134276e-06
1.000726085e-06
1.003020424e-06
1.011657835e-06
1.042813659e-06
1.14827564e-06
1.4724347e-06
2.328191065e-06
4.081781804e-06
9.999354617e-07
9.999354778e-07
9.999362517e-07
9.999390509e-07
9.999513405e-07
1.00000273e-06
1.000217993e-06
1.001112794e-06
1.004788568e-06
1.019593866e-06
1.077357456e-06
1.291362718e-06
2.019000581e-06
4.148348999e-06
8.803426896e-06
9.999354169e-07
9.999356428e-07
9.999362969e-07
9.999393982e-07
9.999530051e-07
1.000011272e-06
1.00025998e-06
1.001321688e-06
1.005831838e-06
1.024818002e-06
1.103343585e-06
1.417618977e-06
2.599869335e-06
6.527648964e-06
1.626632962e-05
9.999353572e-07
9.999355358e-07
9.999360943e-07
9.999390152e-07
9.999512314e-07
1.000002686e-06
1.000217946e-06
1.001112852e-06
1.004788633e-06
1.019593781e-06
1.077356463e-06
1.291357637e-06
2.018976249e-06
4.148249102e-06
8.803122899e-06
9.999353094e-07
9.999353747e-07
9.999359098e-07
9.999380709e-07
9.999472919e-07
9.999844882e-07
1.000134162e-06
1.000726085e-06
1.003020346e-06
1.011657654e-06
1.042812641e-06
1.148270804e-06
1.472412059e-06
2.328097657e-06
4.081486145e-06
9.999352159e-07
9.999352463e-07
9.99935569e-07
9.999372937e-07
9.999435628e-07
9.999680205e-07
1.000061114e-06
1.000407671e-06
1.001664548e-06
1.006060291e-06
1.020693496e-06
1.066171901e-06
1.194388789e-06
1.508291855e-06
2.133369816e-06
9.999352845e-07
9.999353041e-07
9.999355778e-07
9.999366859e-07
9.99941384e-07
9.999588695e-07
1.000022004e-06
1.000245084e-06
1.001006297e-06
1.003497709e-06
1.011221884e-06
1.033526638e-06
1.092152597e-06
1.228110913e-06
1.495848534e-06
9.999354251e-07
9.999354011e-07
9.999357388e-07
9.999372069e-07
9.999431526e-07
9.999657936e-07
1.000049694e-06
1.000355126e-06
1.001434765e-06
1.005106705e-06
1.016975563e-06
1.052790483e-06
1.151064276e-06
1.386866646e-06
9.999354279e-07
9.999354983e-07
9.999358848e-07
9.999379833e-07
9.999461752e-07
9.999786971e-07
1.000107057e-06
1.000604506e-06
1.002492835e-06
1.009450308e-06
1.034014129e-06
1.115480027e-06
1.3613728e-06
2.001675687e-06
9.999353815e-07
9.999355123e-07
9.999360866e-07
9.9993901e-07
9.999511851e-07
1.000002553e-06
1.000217879e-06
1.001112839e-06
1.004788728e-06
1.019594419e-06
1.077359656e-06
1.291373737e-06
2.019055898e-06
4.148626579e-06
9.999353943e-07
9.999356016e-07
9.999364078e-07
9.999401712e-07
9.999568395e-07
1.00002983e-06
1.000350744e-06
1.001767073e-06
1.008016341e-06
1.035438605e-06
1.154023368e-06
1.651048579e-06
3.607644689e-06
1.037826423e-05
2.762604793e-05
9.999354316e-07
9.99935653e-07
9.999364679e-07
9.999407793e-07
9.999594454e-07
1.00004304e-06
1.000421112e-06
1.002147362e-06
1.010120466e-06
1.047361038e-06
1.222831359e-06
2.05079411e-06
5.891302544e-06
2.257661996e-05
8.027067061e-05
9.99935243e-07
9.999355497e-07
9.999363566e-07
9.999401691e-07
9.999567528e-07
1.000029738e-06
1.000350699e-06
1.001767047e-06
1.008016185e-06
1.035438035e-06
1.154020757e-06
1.651033262e-06
3.607556109e-06
1.037778578e-05
2.762399971e-05
9.999352493e-07
9.999354601e-07
9.999361204e-07
9.99939024e-07
9.999512411e-07
1.000002655e-06
1.000217832e-06
1.001112783e-06
1.004788683e-06
1.01959414e-06
1.077357919e-06
1.291362816e-06
2.01899174e-06
4.148283042e-06
8.803154074e-06
9.999352128e-07
9.999353591e-07
9.99935799e-07
9.999378357e-07
9.999459616e-07
9.999785717e-07
1.000106849e-06
1.000604255e-06
1.002492733e-06
1.00945025e-06
1.034013168e-06
1.115474056e-06
1.361344089e-06
2.001554498e-06
3.307938428e-06
9.999353568e-07
9.999353019e-07
9.999356519e-07
9.999371945e-07
9.999431323e-07
9.999656515e-07
1.000049457e-06
1.000355015e-06
1.001434595e-06
1.005106448e-06
1.016974853e-06
1.052787158e-06
1.151051072e-06
1.386819121e-06
1.85443032e-06
9.99935427e-07
9.999355374e-07
9.999357991e-07
9.999374514e-07
9.999439909e-07
9.999687086e-07
1.000062228e-06
1.00040714e-06
1.001646465e-06
1.005946807e-06
1.020187343e-06
1.064410046e-06
1.189749674e-06
1.500000935e-06
9.99935387e-07
9.999355614e-07
9.999360089e-07
9.99938199e-07
9.999471868e-07
9.999834695e-07
1.000128893e-06
1.000703383e-06
1.002936985e-06
1.011421921e-06
1.042560457e-06
1.151008521e-06
1.498593663e-06
2.466246834e-06
9.999354424e-07
9.999353828e-07
9.999362907e-07
9.999393654e-07
9.999528987e-07
1.000011146e-06
1.000260012e-06
1.001321728e-06
1.005832113e-06
1.024819476e-06
1.103351067e-06
1.417655668e-06
2.600043161e-06
6.528429229e-06
9.999354418e-07
9.999356082e-07
9.999366186e-07
9.999408239e-07
9.999594597e-07
1.000043121e-06
1.000421206e-06
1.002147524e-06
1.010120777e-06
1.04736289e-06
1.222841226e-06
2.050852217e-06
5.891664669e-06
2.257901154e-05
9.999354422e-07
9.999356142e-07
9.999365502e-07
9.999412943e-07
9.999625697e-07
1.000059245e-06
1.00050986e-06
1.002653962e-06
1.013151976e-06
1.066458956e-06
1.349983967e-06
2.946649754e-06
1.256160301e-05
7.488160915e-05
0.0005115825456
9.999353986e-07
9.999356262e-07
9.999365518e-07
9.999407552e-07
9.999594702e-07
1.000043079e-06
1.000421089e-06
1.002147397e-06
1.010120603e-06
1.047361919e-06
1.222835884e-06
2.050815672e-06
5.891402747e-06
2.257699498e-05
8.027099872e-05
9.99935424e-07
9.99935579e-07
9.999362959e-07
9.999394834e-07
9.999530118e-07
1.000011242e-06
1.000260037e-06
1.001321778e-06
1.005831992e-06
1.024818817e-06
1.103347144e-06
1.4176327e-06
2.59991588e-06
6.527766996e-06
1.626640523e-05
9.999354001e-07
9.999355609e-07
9.999359804e-07
9.999381374e-07
9.999471299e-07
9.999834056e-07
1.000128729e-06
1.000703253e-06
1.002936877e-06
1.011421497e-06
1.042558616e-06
1.150998966e-06
1.49854921e-06
2.466063045e-06
4.531151351e-06
9.999353216e-07
9.999354333e-07
9.999357736e-07
9.999373231e-07
9.999437539e-07
9.999686286e-07
1.000062122e-06
1.000407059e-06
1.001646334e-06
1.005946508e-06
1.020186215e-06
1.064405445e-06
1.189731602e-06
1.499937628e-06
2.122924283e-06
9.999353398e-07
9.9993544e-07
9.999357302e-07
9.99937282e-07
9.99943179e-07
9.999656339e-07
1.000049597e-06
1.000355172e-06
1.00143482e-06
1.005106812e-06
1.016976039e-06
1.052791762e-06
1.151066886e-06
1.386869089e-06
9.999353914e-07
9.999354768e-07
9.9993596e-07
9.999380246e-07
9.999459762e-07
9.999786918e-07
1.00010698e-06
1.000604473e-06
1.002492907e-06
1.00945066e-06
1.034015284e-06
1.115483323e-06
1.361380897e-06
2.001683286e-06
9.999354413e-07
9.999355037e-07
9.999361801e-07
9.999390237e-07
9.999512298e-07
1.000002704e-06
1.000218037e-06
1.001112914e-06
1.004788874e-06
1.019595197e-06
1.077362993e-06
1.291386509e-06
2.019096328e-06
4.148695301e-06
9.999354431e-07
9.999356261e-07
9.99936482e-07
9.999402615e-07
9.999567628e-07
1.000029689e-06
1.0003507e-06
1.001767127e-06
1.008016533e-06
1.03543989e-06
1.154030482e-06
1.651083281e-06
3.607809887e-06
1.037898076e-05
9.99935523e-07
9.999356628e-07
9.999364597e-07
9.999406709e-07
9.999593766e-07
1.000043064e-06
1.000421202e-06
1.002147445e-06
1.010120835e-06
1.047363405e-06
1.222844293e-06
2.050867124e-06
5.89173275e-06
2.257923888e-05
9.999354269e-07
9.999355248e-07
9.999363597e-07
9.999401771e-07
9.999569098e-07
1.000029716e-06
1.00035062e-06
1.001767142e-06
1.008016409e-06
1.035439445e-06
1.154028175e-06
1.651070122e-06
3.607744658e-06
1.037873782e-05
9.999353489e-07
9.999355039e-07
9.999362096e-07
9.999390846e-07
9.999513118e-07
1.000002747e-06
1.000217949e-06
1.001112732e-06
1.004788804e-06
1.019594894e-06
1.077361177e-06
1.291376269e-06
2.019046771e-06
4.148484692e-06
8.803810849e-06
9.99935302e-07
9.9993534e-07
9.999358175e-07
9.999378681e-07
9.999460904e-07
9.999785827e-07
1.00010689e-06
1.00060438e-06
1.00249276e-06
1.009450387e-06
1.034014011e-06
1.115477632e-06
1.361357007e-06
2.001594349e-06
3.308032421e-06
9.999353139e-07
9.999352743e-07
9.999357166e-07
9.99937176e-07
9.999431125e-07
9.999656012e-07
1.000049585e-06
1.000355009e-06
1.001434668e-06
1.005106581e-06
1.016975186e-06
1.052788463e-06
1.151054855e-06
1.386828741e-06
1.854448183e-06
9.999352563e-07
9.999353707e-07
9.999355912e-07
9.999368933e-07
9.999416131e-07
9.999589555e-07
1.000022216e-06
1.000245137e-06
1.001006404e-06
1.00349807e-06
1.011222951e-06
1.033530257e-06
1.092163815e-06
1.228142395e-06
9.999354042e-07
9.999354487e-07
9.999357895e-07
9.999372299e-07
9.999436538e-07
9.99968151e-07
1.000061204e-06
1.00040787e-06
1.001664648e-06
1.006060731e-06
1.020695634e-06
1.066179378e-06
1.194413581e-06
1.508365351e-06
9.999352718e-07
9.999354735e-07
9.999358471e-07
9.999380928e-07
9.999473153e-07
9.999844966e-07
1.000134383e-06
1.000726291e-06
1.003020726e-06
1.011658795e-06
1.042817159e-06
1.148288121e-06
1.472474021e-06
2.328294685e-06
9.999354266e-07
9.999355165e-07
9.999361704e-07
9.99939082e-07
9.99951259e-07
1.000002649e-06
1.000217954e-06
1.001112962e-06
1.004789064e-06
1.019595458e-06
1.077364061e-06
1.291389439e-06
2.019102992e-06
4.148698039e-06
9.999354426e-07
9.999355414e-07
9.999361684e-07
9.999393625e-07
9.999528685e-07
1.000011239e-06
1.000260053e-06
1.001321692e-06
1.005832263e-06
1.02481986e-06
1.103352649e-06
1.417660936e-06
2.600054467e-06
6.528405079e-06
9.999354316e-07
9.99935538e-07
9.999360641e-07
9.999391246e-07
9.999513332e-07
1.000002724e-06
1.000217994e-06
1.001113037e-06
1.004789037e-06
1.019595376e-06
1.077362881e-06
1.291384787e-06
2.019084229e-06
4.148642123e-06
9.99935329e-07
9.999354491e-07
9.999359053e-07
9.999381411e-07
9.9994738e-07
9.999847396e-07
1.000134239e-06
1.000726173e-06
1.003020531e-06
1.01165852e-06
1.042815968e-06
1.148283322e-06
1.472458156e-06
2.328263326e-06
9.999352377e-07
9.999352978e-07
9.999356522e-07
9.999373555e-07
9.999436636e-07
9.999680816e-07
1.000061151e-06
1.00040774e-06
1.001664564e-06
1.00606065e-06
1.02069471e-06
1.066176084e-06
1.194402853e-06
1.508333488e-06
2.133477409e-06
9.999350747e-07
9.999351803e-07
9.9993546e-07
9.999367445e-07
9.999415113e-07
9.999589301e-07
1.000022134e-06
1.000245184e-06
1.001006401e-06
1.00349798e-06
1.011222601e-06
1.033528573e-06
1.092158049e-06
1.228124285e-06
1.495874576e-06
9.999353168e-07
9.999352809e-07
9.999355308e-07
9.999365e-07
9.999398972e-07
9.999524228e-07
9.999958015e-07
1.000143257e-06
1.000625187e-06
1.002132286e-06
1.006589542e-06
1.01887565e-06
1.049851719e-06
1.119645373e-06
9.999353579e-07
9.999354054e-07
9.999355124e-07
9.999366789e-07
9.999413467e-07
9.999581178e-07
1.000019074e-06
1.000235268e-06
1.000977878e-06
1.003425596e-06
1.01107633e-06
1.033364817e-06
1.092444291e-06
1.230311647e-06
9.999353736e-07
9.999353424e-07
9.999356625e-07
9.999373594e-07
9.999437248e-07
9.999682079e-07
1.000061165e-06
1.000407721e-06
1.001664627e-06
1.006060834e-06
1.020695896e-06
1.066179889e-06
1.194414525e-06
1.508365902e-06
9.999353001e-07
9.999352535e-07
9.999357569e-07
9.999377898e-07
9.999461244e-07
9.99978681e-07
1.000106857e-06
1.000604404e-06
1.002492877e-06
1.009450964e-06
1.034016167e-06
1.115485879e-06
1.361386178e-06
2.00168848e-06
9.999353057e-07
9.999353082e-07
9.999358953e-07
9.999380822e-07
9.999471215e-07
9.999833885e-07
1.000128699e-06
1.000703228e-06
1.00293711e-06
1.011422428e-06
1.042561785e-06
1.15101195e-06
1.498599657e-06
2.466241211e-06
9.999352481e-07
9.999352947e-07
9.999358706e-07
9.999379123e-07
9.999459574e-07
9.999786692e-07
1.000106945e-06
1.000604564e-06
1.002492993e-06
1.009450894e-06
1.034015619e-06
1.115484085e-06
1.361380153e-06
2.001671563e-06
9.999351708e-07
9.999352848e-07
9.999356526e-07
9.999372334e-07
9.999436197e-07
9.999679368e-07
1.000060974e-06
1.000407731e-06
1.001664583e-06
1.006060753e-06
1.020695355e-06
1.066178295e-06
1.194409496e-06
1.508355835e-06
9.999351758e-07
9.99935198e-07
9.999355142e-07
9.999366934e-07
9.999412245e-07
9.999579825e-07
1.000019045e-06
1.00023533e-06
1.000977907e-06
1.003425459e-06
1.011075968e-06
1.033363469e-06
1.092440789e-06
1.230306804e-06
9.999351263e-07
9.999351628e-07
9.999354863e-07
9.999363247e-07
9.999398573e-07
9.999523065e-07
9.999957196e-07
1.00014323e-06
1.000625122e-06
1.002132254e-06
1.006589349e-06
1.01887503e-06
1.049849522e-06
1.119639361e-06
1.256744045e-06
9.999351629e-07
9.999352679e-07
9.999354508e-07
9.999361428e-07
9.99938929e-07
9.999484982e-07
9.99980799e-07
1.000086569e-06
1.000419306e-06
1.001418615e-06
1.004255135e-06
1.011770548e-06
1.030085604e-06
1.070468372e-06
9.999352294e-07
9.999353178e-07
9.999355921e-07
9.999365371e-07
9.999399635e-07
9.999523448e-07
9.999957784e-07
1.000143241e-06
1.000625348e-06
1.002132419e-06
1.006589573e-06
1.018875925e-06
1.049852016e-06
1.1196456e-06
9.999351521e-07
9.999353067e-07
9.999355769e-07
9.999368915e-07
9.999415535e-07
9.999589871e-07
1.000022239e-06
1.00024517e-06
1.001006411e-06
1.003498171e-06
1.011223273e-06
1.033530787e-06
1.092164817e-06
1.228143883e-06
9.999351718e-07
9.999352677e-07
9.999356842e-07
9.999371854e-07
9.999431257e-07
9.999656233e-07
1.000049625e-06
1.000355084e-06
1.00143475e-06
1.005106939e-06
1.016976571e-06
1.05279302e-06
1.151069559e-06
1.386871975e-06
9.999352193e-07
9.999353035e-07
9.999357108e-07
9.999373481e-07
9.999438461e-07
9.99968578e-07
1.000062107e-06
1.000407032e-06
1.001646463e-06
1.005947075e-06
1.020188008e-06
1.064411716e-06
1.189752319e-06
1.50000013e-06
9.999352586e-07
9.999353427e-07
9.999356772e-07
9.999372324e-07
9.999431776e-07
9.999656902e-07
1.000049662e-06
1.000355101e-06
1.001434858e-06
1.005106951e-06
1.016976416e-06
1.052792481e-06
1.15106772e-06
1.386866794e-06
9.999352295e-07
9.999352916e-07
9.999355402e-07
9.999367649e-07
9.999415278e-07
9.999588235e-07
1.000022092e-06
1.000245147e-06
1.001006356e-06
1.003498068e-06
1.011223035e-06
1.033530102e-06
1.09216308e-06
1.228139841e-06
9.999352457e-07
9.999352403e-07
9.999354829e-07
9.999364007e-07
9.999398616e-07
9.999521916e-07
9.999957016e-07
1.000143202e-06
1.000625121e-06
1.002132254e-06
1.006589413e-06
1.018875214e-06
1.049850583e-06
1.11964339e-06
9.999350474e-07
9.999350723e-07
9.999353054e-07
9.999361742e-07
9.99938786e-07
9.999483613e-07
9.9998077e-07
1.000086462e-06
1.00041918e-06
1.001418565e-06
1.004255056e-06
1.011770256e-06
1.030084788e-06
1.070467702e-06
)
;

boundaryField
{
    top
    {
        type            zeroGradient;
    }
    bottom
    {
        type            zeroGradient;
    }
    side-walls
    {
        type            zeroGradient;
    }
    inlet
    {
        type            zeroGradient;
    }
    outlet
    {
        type            zeroGradient;
    }
    procBoundary0to1
    {
        type            processor;
        value           nonuniform List<scalar> 
97
(
1.287635999e-06
1.256744276e-06
1.488223074e-06
1.930766084e-06
2.578175845e-06
3.039543273e-06
2.578154823e-06
1.930745376e-06
1.488205824e-06
1.287624228e-06
1.256744276e-06
1.256744276e-06
1.939623138e-06
2.133489875e-06
3.07376957e-06
5.085926708e-06
6.980413917e-06
5.08588024e-06
3.073718845e-06
1.939587071e-06
1.488206595e-06
1.495880182e-06
2.133489875e-06
2.133489875e-06
6.418226358e-06
8.80395563e-06
1.384370942e-05
2.354913164e-05
1.384345803e-05
6.418052918e-06
3.073710458e-06
1.93074689e-06
1.854469606e-06
3.308089612e-06
8.80395563e-06
8.80395563e-06
3.926109772e-05
8.027819863e-05
8.904247041e-05
3.926022982e-05
1.384348875e-05
5.085886513e-06
2.578162864e-06
2.122976335e-06
4.531354002e-06
1.626751505e-05
8.027819863e-05
8.027819863e-05
0.0003029558969
8.027780819e-05
8.904244731e-05
2.762588932e-05
2.354915779e-05
6.980430075e-06
3.039547335e-06
1.854466106e-06
3.308048578e-06
8.803598483e-06
2.762571594e-05
8.027780819e-05
2.762588932e-05
2.762588932e-05
1.384367486e-05
4.0817726e-06
5.08594548e-06
2.578178542e-06
1.495870639e-06
2.133430911e-06
4.081670712e-06
8.803589796e-06
1.626735524e-05
8.803548191e-06
4.0817726e-06
4.0817726e-06
3.073754224e-06
1.502004915e-06
1.930769457e-06
1.256730648e-06
1.501984605e-06
2.133431594e-06
3.308054062e-06
4.531323875e-06
3.308029812e-06
2.133432455e-06
1.502004915e-06
1.502004915e-06
1.488221223e-06
1.149792387e-06
1.149786038e-06
1.256731206e-06
1.495873676e-06
1.854470188e-06
2.122970774e-06
1.854461623e-06
1.495869106e-06
1.256731982e-06
1.149792387e-06
)
;
    }
}


// ************************************************************************* //
