/*--------------------------------*- C++ -*----------------------------------*\
| =========                 |                                                 |
| \\      /  F ield         | OpenFOAM: The Open Source CFD Toolbox           |
|  \\    /   O peration     | Version:  4.x                                   |
|   \\  /    A nd           | Web:      www.OpenFOAM.org                      |
|    \\/     M anipulation  |                                                 |
\*---------------------------------------------------------------------------*/
FoamFile
{
    version     2.0;
    format      ascii;
    class       volScalarField;
    location    "11000";
    object      molarConc;
}
// * * * * * * * * * * * * * * * * * * * * * * * * * * * * * * * * * * * * * //

dimensions      [0 -3 0 0 1 0 0];

internalField   nonuniform List<scalar> 
1175
(
9.963258703
9.9632584
9.963258955
9.963258568
9.963258358
9.963259531
9.963259813
9.963259773
9.963259444
9.963259628
9.96325961
9.963260369
9.963260413
9.963260184
9.963260499
9.963247263
9.963247706
9.963247819
9.963247957
9.963248114
9.963249724
9.963249655
9.963248458
9.963247863
9.963247481
9.9632467
9.96324648
9.963245604
9.963243529
9.963242792
9.963273749
9.963273037
9.963273957
9.963274168
9.96327456
9.963274513
9.963274585
9.963273344
9.963274726
9.963274675
9.963274873
9.963275621
9.963275886
9.963275463
9.963275013
9.963205082
9.963205006
9.963204543
9.963204356
9.96320555
9.963204994
9.963204365
9.963204084
9.96320362
9.963203241
9.963203738
9.963201309
9.963200145
9.963200616
9.963198621
9.963254809
9.963253365
9.963253803
9.963255718
9.963255355
9.963254788
9.963255974
9.963255939
9.963256621
9.963255019
9.963255544
9.963256065
9.963255091
9.963253411
9.96325166
9.96332488
9.963324551
9.963324642
9.963324007
9.963323115
9.963321908
9.963321544
9.963321975
9.963322959
9.963324118
9.963324178
9.963323637
9.963322729
9.96332257
9.963321538
9.963310383
9.963310995
9.963311081
9.963311596
9.963312089
9.963311948
9.963312573
9.963311612
9.963312124
9.963312101
9.963310539
9.963310774
9.963311061
9.963309947
9.963309412
9.963247455
9.963248277
9.963248886
9.963249607
9.96325027
9.963252313
9.963251429
9.963252549
9.963253487
9.9632537
9.963251924
9.963251239
9.963250999
9.963251641
9.963250819
9.963267622
9.963267439
9.96326829
9.963268474
9.963268909
9.963268407
9.96326888
9.963268579
9.963268997
9.963267535
9.963268662
9.96326969
9.963270885
9.963270919
9.963270164
9.963280033
9.963281112
9.963281339
9.963281016
9.963281369
9.963280699
9.963280754
9.963281749
9.963281862
9.963282063
9.963280924
9.963281775
9.963281527
9.963281748
9.963263953
9.963263242
9.96326374
9.963263542
9.963263491
9.963264742
9.96326422
9.963263342
9.963263543
9.963263532
9.963263742
9.963263107
9.963261917
9.96326166
9.9632609
9.963232724
9.963232224
9.963232518
9.963232496
9.963232367
9.963233736
9.963233237
9.963232361
9.963232286
9.963230306
9.963230985
9.963231747
9.96323214
9.963230932
9.963229172
9.963275012
9.963274483
9.96327501
9.963274685
9.963274983
9.96327449
9.963275483
9.963274807
9.963273706
9.963275036
9.963274911
9.963273632
9.963270541
9.963268876
9.963264118
9.963289975
9.963291335
9.963291133
9.963290851
9.963290925
9.963289434
9.963289612
9.963287958
9.963288648
9.963289417
9.963289542
9.963288215
9.963286852
9.963283824
9.963277511
9.963220472
9.963220878
9.96322055
9.963219338
9.963220068
9.963219722
9.963220957
9.963220627
9.963218759
9.963218842
9.963219434
9.963219322
9.963219253
9.963217726
9.963213583
9.963181532
9.96318197
9.963182128
9.963182068
9.963182309
9.9631829
9.963182049
9.963183397
9.963182802
9.963183399
9.963182708
9.963182206
9.963181695
9.963181682
9.963177916
9.963330815
9.963331556
9.963328774
9.963328323
9.963328001
9.963327723
9.963328389
9.963327249
9.963326493
9.963326779
9.963327373
9.96332791
9.963326399
9.963326073
9.963326103
9.963260673
9.963260936
9.963259608
9.963258064
9.96325803
9.963258891
9.963258351
9.963257827
9.96325796
9.963258621
9.963259174
9.963259226
9.963258458
9.963257623
9.963256702
9.963270933
9.963271457
9.963271754
9.963270564
9.963271122
9.963270426
9.963269616
9.963270493
9.963271133
9.963271615
9.963272514
9.963272457
9.963272769
9.963272265
9.963274027
9.963273718
9.963273226
9.963271753
9.963273565
9.963272155
9.963272071
9.963272057
9.963272606
9.963272568
9.963272952
9.963273287
9.963272599
9.963270829
9.963293329
9.963293601
9.963292182
9.963291907
9.963291808
9.963293043
9.963293205
9.963292546
9.963290664
9.963289991
9.963289977
9.96329
9.963289088
9.963285478
9.963279102
9.963278167
9.963277647
9.963278146
9.963278784
9.963279525
9.963278141
9.963277581
9.963275812
9.963276642
9.963275123
9.963275482
9.963275342
9.963273488
9.963266141
9.963248318
9.963270038
9.963269466
9.963269869
9.963269324
9.963269494
9.963269719
9.963269146
9.963269576
9.963268938
9.963268754
9.963266072
9.963264921
9.963260933
9.963245838
9.963210117
9.963313573
9.963314596
9.963313853
9.963313895
9.963313763
9.963315894
9.963315388
9.963316424
9.963316862
9.963317293
9.963316694
9.963314892
9.963312155
9.963303285
9.963284997
9.963313994
9.963312744
9.96331283
9.96331211
9.963312723
9.963312167
9.963311355
9.963311134
9.963310525
9.963309718
9.963309125
9.963310518
9.963310068
9.963305799
9.963298327
9.963291955
9.963291619
9.963292595
9.963293205
9.963292922
9.963291613
9.963292649
9.96329178
9.963292087
9.963292673
9.963293041
9.963291546
9.963292355
9.963292369
9.963290735
9.963289396
9.963288687
9.963287688
9.963288092
9.963287433
9.963287878
9.963287893
9.963288173
9.96328898
9.963287632
9.963287838
9.963287872
9.963287528
9.96328774
9.963285017
9.963316865
9.963316638
9.963315418
9.963314878
9.963316037
9.963316791
9.963317457
9.963316673
9.96331541
9.963315725
9.963316344
9.963315157
9.963314587
9.963312829
9.963297912
9.963297275
9.963297601
9.963297872
9.963297785
9.963298967
9.963299844
9.963300084
9.963299344
9.963298851
9.963298593
9.963297142
9.963297232
9.963294917
9.963363946
9.963363431
9.963364713
9.963364381
9.96336411
9.963361836
9.963361367
9.963361406
9.963362638
9.963363044
9.963362697
9.963361516
9.963360078
9.963351513
9.963244711
9.963245918
9.963246548
9.963247617
9.963248478
9.963248325
9.963249263
9.963248848
9.963248985
9.963249565
9.963248596
9.963246714
9.963239561
9.963215305
9.963152197
9.963270661
9.963271245
9.963270505
9.963271313
9.963272354
9.963271342
9.963272132
9.963272285
9.963272035
9.963271627
9.963271825
9.963269412
9.963254694
9.963194214
9.962991507
9.963263288
9.963262824
9.963262153
9.963262331
9.963262325
9.963263744
9.963263817
9.963263843
9.963263608
9.963262469
9.963262777
9.963260025
9.963252475
9.963227277
9.963165163
9.963259553
9.963260621
9.963260577
9.963260501
9.963261742
9.963261666
9.963262018
9.963262059
9.963262514
9.963262736
9.963263431
9.963263027
9.963260672
9.963252467
9.963236462
9.963250774
9.963251122
9.963252102
9.963252518
9.963251202
9.963251029
9.963251589
9.963251416
9.963252364
9.963252266
9.963252913
9.9632527
9.963253068
9.96324958
9.963245014
9.963263806
9.963263563
9.96326339
9.96326255
9.96326243
9.963263087
9.963263274
9.963263084
9.963262711
9.963263284
9.96326562
9.963265313
9.96326342
9.963263201
9.963260688
9.963275275
9.963275529
9.963275704
9.963275265
9.963275464
9.963275664
9.963275415
9.96327528
9.963275991
9.963275708
9.963275335
9.963273997
9.963273337
9.963273075
9.963290659
9.963291181
9.963290238
9.963291585
9.9632911
9.963291164
9.963290837
9.963292465
9.963291024
9.963290728
9.963290707
9.963290182
9.963288087
9.963283733
9.963209835
9.96320893
9.963209416
9.963208099
9.963207267
9.963207168
9.963206501
9.963206868
9.963207064
9.963206787
9.963206866
9.963206166
9.963202407
9.963188039
9.963225043
9.963225004
9.963225208
9.963224991
9.963224835
9.963225533
9.963225031
9.963224508
9.963224225
9.963224366
9.963222851
9.963220211
9.96320642
9.963144717
9.963245018
9.963245715
9.963245003
9.963245066
9.963246115
9.963245636
9.963246388
9.96324672
9.96324551
9.963245827
9.963245565
9.963239804
9.963206537
9.962981686
9.983118582
9.963281056
9.963281503
9.963283731
9.963283088
9.963282973
9.963282325
9.963281632
9.963280029
9.963279607
9.963279771
9.963279744
9.96327705
9.963263324
9.96320147
9.963000614
9.963266527
9.963268379
9.963267575
9.963267364
9.963266054
9.963265027
9.963264187
9.963264296
9.963264848
9.963266274
9.963266558
9.963265689
9.963261594
9.96324763
9.963214109
9.963294523
9.963292875
9.963292659
9.963293649
9.96329401
9.963294768
9.963293898
9.963294685
9.963293835
9.963292308
9.963290562
9.963291488
9.96328928
9.963286211
9.963277821
9.96329926
9.963299799
9.963298997
9.963297457
9.963295777
9.963296015
9.963295956
9.963296901
9.963297512
9.963297766
9.963298516
9.963297916
9.963297579
9.963297017
9.963295633
9.963288793
9.963289676
9.963289531
9.963288856
9.963287487
9.963286236
9.963286717
9.963288223
9.963289322
9.963288695
9.96328854
9.963287945
9.963287609
9.963286519
9.963337916
9.963337745
9.963338125
9.963338049
9.963338042
9.963338362
9.963340008
9.963340463
9.963339755
9.963339194
9.963338565
9.963338738
9.963337465
9.963336824
9.963317138
9.963316949
9.963318036
9.963317122
9.963316493
9.963317455
9.963317945
9.963316803
9.963316884
9.963316714
9.963316838
9.963315679
9.963312624
9.963304473
9.96330281
9.963302722
9.963303234
9.963303375
9.963302521
9.963303404
9.963302259
9.963303011
9.96330229
9.963301856
9.963301905
9.963300286
9.963292612
9.963266713
9.963270395
9.963269208
9.963268422
9.963267921
9.963268148
9.963267419
9.963267977
9.963267622
9.963267629
9.963268611
9.96326826
9.963266226
9.963252003
9.963192318
9.963304065
9.963304407
9.963304718
9.963305012
9.963306273
9.963306197
9.963305282
9.963306324
9.963305424
9.963305152
9.963304961
9.963302875
9.963296386
9.96327118
9.963260466
9.963259813
9.963259875
9.963261308
9.963261362
9.963261846
9.963260735
9.963259867
9.963260294
9.963261194
9.963262305
9.963260431
9.963256824
9.963249991
9.963232228
9.963311397
9.963310742
9.963311447
9.963311701
9.963311637
9.963309835
9.963309421
9.963309173
9.963309184
9.963309055
9.963309405
9.963308955
9.9633082
9.963305613
9.963300531
9.963293317
9.963293027
9.963293446
9.963293556
9.963293633
9.963293753
9.963293392
9.963291851
9.963291378
9.963291776
9.963290788
9.963289851
9.963288584
9.96328764
9.963285908
9.963330259
9.963330977
9.963330866
9.9633313
9.963331495
9.963331567
9.963330725
9.963329147
9.963330039
9.963329683
9.963328846
9.963329486
9.9633294
9.963328981
9.963262414
9.963260773
9.963260104
9.963258361
9.963258741
9.963257331
9.963257553
9.963258145
9.963256403
9.963255966
9.963256395
9.963257463
9.963255827
9.963254975
9.963187504
9.963188831
9.963188406
9.963189516
9.963190106
9.963189471
9.963190146
9.963190521
9.963190052
9.96319041
9.963190113
9.963190535
9.963188598
9.963185191
9.963264349
9.963264991
9.963265019
9.963264454
9.963264135
9.963263655
9.963264245
9.963264714
9.963265645
9.963264406
9.963262654
9.963261971
9.963259095
9.963250412
9.963316768
9.963315452
9.963315759
9.963315573
9.963315895
9.963316085
9.963317195
9.963317639
9.963318298
9.963318341
9.963319891
9.963318578
9.963314191
9.963300818
9.963290752
9.963289713
9.963290403
9.963290448
9.963290183
9.963290702
9.963290363
9.963291553
9.963291657
9.963292112
9.963291463
9.963290182
9.963287145
9.963279586
9.963278229
9.963278027
9.963277172
9.963278576
9.963277487
9.963277028
9.963275468
9.963274046
9.96327185
9.963271115
9.963271731
9.963270928
9.963271137
9.963267179
9.963325007
9.963326232
9.96332561
9.963325361
9.963325912
9.963325008
9.963326557
9.963326694
9.963326756
9.963326638
9.963324422
9.96332497
9.963325036
9.963324398
9.963321765
9.963243019
9.963242041
9.963241053
9.963241703
9.96324232
9.963242615
9.963243037
9.963242728
9.963243761
9.963243728
9.96324373
9.963242981
9.963243073
9.963241629
9.963238721
9.963248294
9.963247337
9.963247073
9.963247196
9.96324666
9.963246586
9.963244902
9.963244259
9.963243931
9.963243842
9.963244349
9.963244444
9.963244186
9.96324513
9.96325106
9.963250927
9.963250129
9.963249898
9.963250479
9.96324915
9.963249312
9.963249421
9.963248664
9.963249161
9.963248382
9.963249086
9.963247923
9.963246393
9.963283216
9.963284003
9.963282562
9.96328338
9.963284305
9.963284584
9.963284312
9.963284481
9.963284761
9.963285239
9.963284499
9.963284913
9.963285019
9.963282737
9.96325735
9.963255432
9.963255784
9.963255707
9.963257554
9.963258968
9.963257765
9.963258432
9.963258415
9.963260108
9.963260188
9.963260159
9.963260308
9.963257595
9.963244886
9.963243941
9.963243345
9.963242943
9.963243948
9.963244921
9.963244274
9.963244434
9.963244119
9.963244318
9.963243176
9.963242984
9.963241307
9.963237975
9.963297623
9.963298205
9.963297981
9.963298289
9.963296456
9.963296748
9.96329755
9.963297806
9.963298165
9.963298721
9.963298547
9.963298947
9.963297403
9.963294518
9.963288792
9.963289684
9.963290156
9.963289561
9.963289724
9.963289511
9.963291135
9.963292345
9.963293134
9.963292931
9.963292808
9.96329362
9.96329379
9.963292658
9.963294796
9.963293528
9.963294555
9.963294675
9.963294634
9.963294177
9.963292707
9.963294204
9.963293128
9.963293724
9.963292827
9.963292138
9.963292098
9.963290709
9.963206234
9.963206436
9.9632068
9.963206275
9.96320671
9.963206648
9.963206404
9.963208103
9.963208477
9.963208563
9.963209389
9.963209367
9.96320858
9.963209137
9.963208723
9.963293487
9.963293795
9.963294049
9.96329425
9.963295211
9.96329514
9.963296039
9.963295356
9.963295212
9.96329495
9.963294615
9.963294637
9.963295522
9.963295645
9.96326918
9.963269658
9.963269003
9.96326872
9.963269185
9.96326823
9.963267629
9.963268225
9.963269886
9.963269608
9.963269389
9.963268864
9.963267841
9.96326816
9.963279496
9.96327918
9.963279743
9.963281018
9.963280706
9.963280979
9.96328161
9.963280354
9.963280251
9.963279482
9.963278218
9.96327836
9.963277829
9.963277853
9.963245055
9.963245887
9.963246318
9.963246184
9.963245302
9.963245589
9.963244933
9.963244549
9.963245505
9.963246062
9.963245678
9.96324602
9.963245974
9.963246444
9.963287534
9.963286637
9.96328603
9.963287298
9.96328739
9.963286962
9.96328754
9.963287892
9.963286951
9.963286427
9.963286996
9.963287595
9.963287758
9.963286737
9.963230258
9.963230449
9.96323051
9.963230129
9.963229593
9.963230529
9.963230872
9.963231701
9.963230784
9.963230795
9.963231104
9.963231558
9.963230648
9.963229365
9.963278121
9.963278642
9.96327791
9.963277443
9.963277596
9.963277309
9.963277415
9.963277358
9.963276652
9.963277633
9.963277833
9.963277358
9.963276857
9.963277611
9.963310591
9.96331058
9.963310007
9.963310137
9.963309245
9.963309004
9.963307909
9.963307186
9.963308178
9.963308177
9.963308069
9.963308307
9.963308055
9.963308377
9.963276424
9.963276847
9.963277542
9.963278355
9.963277974
9.963278624
9.963278927
9.963278168
9.963278343
9.96327853
9.963278194
9.963278543
9.963278597
9.963278055
)
;

boundaryField
{
    top
    {
        type            calculated;
        value           nonuniform List<scalar> 
134
(
9.963267622
9.963260673
9.963289396
9.963263806
9.96329926
9.963293317
9.963243019
9.963206234
9.963276424
9.963267439
9.963260936
9.963288687
9.963263563
9.963299799
9.963293027
9.963242041
9.963206436
9.963276847
9.96326829
9.963259608
9.963287688
9.96326339
9.963298997
9.963293446
9.963241053
9.9632068
9.963277542
9.963268474
9.963258064
9.963288092
9.96326255
9.963297457
9.963293556
9.963241703
9.963206275
9.963278355
9.963268909
9.96325803
9.963287433
9.96326243
9.963295777
9.963293633
9.96324232
9.96320671
9.963277974
9.963268407
9.963258891
9.963287878
9.963263087
9.963296015
9.963293753
9.963242615
9.963206648
9.963278624
9.96326888
9.963258351
9.963287893
9.963263274
9.963295956
9.963293392
9.963243037
9.963206404
9.963278927
9.963268579
9.963257827
9.963288173
9.963263084
9.963296901
9.963291851
9.963242728
9.963208103
9.963278168
9.963268997
9.96325796
9.96328898
9.963262711
9.963297512
9.963291378
9.963243761
9.963208477
9.963278343
9.963267535
9.963258621
9.963287632
9.963263284
9.963297766
9.963291776
9.963243728
9.963208563
9.96327853
9.963268662
9.963259174
9.963287838
9.96326562
9.963298516
9.963290788
9.96324373
9.963209389
9.963278194
9.96326969
9.963259226
9.963287872
9.963265313
9.963297916
9.963289851
9.963242981
9.963209367
9.963278543
9.963270885
9.963258458
9.963287528
9.96326342
9.963297579
9.963288584
9.963243073
9.96320858
9.963278597
9.963270919
9.963257623
9.96328774
9.963263201
9.963297017
9.96328764
9.963241629
9.963209137
9.963278055
9.963270164
9.963256702
9.963285017
9.963260688
9.963295633
9.963285908
9.963238721
9.963208723
)
;
    }
    bottom
    {
        type            calculated;
        value           nonuniform List<scalar> 
127
(
9.963258703
9.963280033
9.963270933
9.963316865
9.963275275
9.963288793
9.963330259
9.963248294
9.963293487
9.9632584
9.963281112
9.963271457
9.963316638
9.963275529
9.963289676
9.963330977
9.963247337
9.963293795
9.963258955
9.963281339
9.963271754
9.963315418
9.963275704
9.963289531
9.963330866
9.963247073
9.963294049
9.963258568
9.963281016
9.963270564
9.963314878
9.963275265
9.963288856
9.9633313
9.963247196
9.96329425
9.963258358
9.963281369
9.963271122
9.963316037
9.963275464
9.963287487
9.963331495
9.96324666
9.963295211
9.963259531
9.963280699
9.963270426
9.963316791
9.963275664
9.963286236
9.963331567
9.963246586
9.96329514
9.963259813
9.963280754
9.963269616
9.963317457
9.963275415
9.963286717
9.963330725
9.963244902
9.963296039
9.963259773
9.963281749
9.963270493
9.963316673
9.96327528
9.963288223
9.963329147
9.963244259
9.963295356
9.963259444
9.963281862
9.963271133
9.96331541
9.963275991
9.963289322
9.963330039
9.963243931
9.963295212
9.963259628
9.963282063
9.963271615
9.963315725
9.963275708
9.963288695
9.963329683
9.963243842
9.96329495
9.96325961
9.963280924
9.963272514
9.963316344
9.963275335
9.96328854
9.963328846
9.963244349
9.963294615
9.963260369
9.963281775
9.963272457
9.963315157
9.963273997
9.963287945
9.963329486
9.963244444
9.963294637
9.963260413
9.963281527
9.963272769
9.963314587
9.963273337
9.963287609
9.9633294
9.963244186
9.963295522
9.963260184
9.963281748
9.963272265
9.963312829
9.963273075
9.963286519
9.963328981
9.96324513
9.963295645
9.963260499
)
;
    }
    side-walls
    {
        type            calculated;
        value           nonuniform List<scalar> 
261
(
9.963258703
9.963247263
9.963273749
9.963205082
9.963254809
9.96332488
9.963310383
9.963247455
9.963267622
9.9632584
9.963247706
9.963273037
9.963205006
9.963253365
9.963324551
9.963310995
9.963248277
9.963267439
9.963258955
9.963247819
9.963273957
9.963204543
9.963253803
9.963324642
9.963311081
9.963248886
9.96326829
9.963258568
9.963247957
9.963274168
9.963204356
9.963255718
9.963324007
9.963311596
9.963249607
9.963268474
9.963258358
9.963248114
9.96327456
9.96320555
9.963255355
9.963323115
9.963312089
9.96325027
9.963268909
9.963259531
9.963249724
9.963274513
9.963204994
9.963254788
9.963321908
9.963311948
9.963252313
9.963268407
9.963259813
9.963249655
9.963274585
9.963204365
9.963255974
9.963321544
9.963312573
9.963251429
9.96326888
9.963259773
9.963248458
9.963273344
9.963204084
9.963255939
9.963321975
9.963311612
9.963252549
9.963268579
9.963259444
9.963247863
9.963274726
9.96320362
9.963256621
9.963322959
9.963312124
9.963253487
9.963268997
9.963259628
9.963247481
9.963274675
9.963203241
9.963255019
9.963324118
9.963312101
9.9632537
9.963267535
9.96325961
9.9632467
9.963274873
9.963203738
9.963255544
9.963324178
9.963310539
9.963251924
9.963268662
9.963260369
9.96324648
9.963275621
9.963201309
9.963256065
9.963323637
9.963310774
9.963251239
9.96326969
9.963260413
9.963245604
9.963275886
9.963200145
9.963255091
9.963322729
9.963311061
9.963250999
9.963270885
9.963260184
9.963243529
9.963275463
9.963200616
9.963253411
9.96332257
9.963309947
9.963251641
9.963270919
9.963260499
9.963242792
9.963275013
9.963198621
9.96325166
9.963321538
9.963309412
9.963250819
9.963270164
9.963293487
9.96326918
9.963279496
9.963245055
9.963287534
9.963230258
9.963278121
9.963310591
9.963276424
9.963293795
9.963269658
9.96327918
9.963245887
9.963286637
9.963230449
9.963278642
9.96331058
9.963276847
9.963294049
9.963269003
9.963279743
9.963246318
9.96328603
9.96323051
9.96327791
9.963310007
9.963277542
9.96329425
9.96326872
9.963281018
9.963246184
9.963287298
9.963230129
9.963277443
9.963310137
9.963278355
9.963295211
9.963269185
9.963280706
9.963245302
9.96328739
9.963229593
9.963277596
9.963309245
9.963277974
9.96329514
9.96326823
9.963280979
9.963245589
9.963286962
9.963230529
9.963277309
9.963309004
9.963278624
9.963296039
9.963267629
9.96328161
9.963244933
9.96328754
9.963230872
9.963277415
9.963307909
9.963278927
9.963295356
9.963268225
9.963280354
9.963244549
9.963287892
9.963231701
9.963277358
9.963307186
9.963278168
9.963295212
9.963269886
9.963280251
9.963245505
9.963286951
9.963230784
9.963276652
9.963308178
9.963278343
9.96329495
9.963269608
9.963279482
9.963246062
9.963286427
9.963230795
9.963277633
9.963308177
9.96327853
9.963294615
9.963269389
9.963278218
9.963245678
9.963286996
9.963231104
9.963277833
9.963308069
9.963278194
9.963294637
9.963268864
9.96327836
9.96324602
9.963287595
9.963231558
9.963277358
9.963308307
9.963278543
9.963295522
9.963267841
9.963277829
9.963245974
9.963287758
9.963230648
9.963276857
9.963308055
9.963278597
9.963295645
9.96326816
9.963277853
9.963246444
9.963286737
9.963229365
9.963277611
9.963308377
9.963278055
)
;
    }
    inlet
    {
        type            calculated;
        value           nonuniform List<scalar> 
81
(
9.963258703
9.963247263
9.963273749
9.963205082
9.963254809
9.96332488
9.963310383
9.963247455
9.963267622
9.963280033
9.963263953
9.963232724
9.963275012
9.963289975
9.963220472
9.963181532
9.963330815
9.963260673
9.963270933
9.963274027
9.963293329
9.963278167
9.963270038
9.963313573
9.963313994
9.963291955
9.963289396
9.963316865
9.963297912
9.963363946
9.963244711
9.963270661
9.963263288
9.963259553
9.963250774
9.963263806
9.963275275
9.963290659
9.963209835
9.963225043
9.963245018
9.963281056
9.963266527
9.963294523
9.96329926
9.963288793
9.963337916
9.963317138
9.96330281
9.963270395
9.963304065
9.963260466
9.963311397
9.963293317
9.963330259
9.963262414
9.963187504
9.963264349
9.963316768
9.963290752
9.963278229
9.963325007
9.963243019
9.963248294
9.96325106
9.963283216
9.96325735
9.963244886
9.963297623
9.963288792
9.963294796
9.963206234
9.963293487
9.96326918
9.963279496
9.963245055
9.963287534
9.963230258
9.963278121
9.963310591
9.963276424
)
;
    }
    outlet
    {
        type            calculated;
        value           nonuniform 0();
    }
    procBoundary0to1
    {
        type            processor;
        value           nonuniform List<scalar> 
97
(
9.963260537
9.963281057
9.963243386
9.963273753
9.96319667
9.963247879
9.963318471
9.963308433
9.963249795
9.963270058
9.963281057
9.963281057
9.96325963
9.963266949
9.963225146
9.963257099
9.963267617
9.963206617
9.963174473
9.963325453
9.963256301
9.963272486
9.963266949
9.963266949
9.963271688
9.963334124
9.963229541
9.963183887
9.963268153
9.963290806
9.963286197
9.96328528
9.963311933
9.963289744
9.963334124
9.963334124
9.963109006
9.96294438
9.962961216
9.96312478
9.963219022
9.963240015
9.963258211
9.963270414
9.96327546
9.963153722
9.96294438
9.96294438
9.983859742
9.962990865
9.962970638
9.96320906
9.963186031
9.963269845
9.963290705
9.963285013
9.963331222
9.963286644
9.963203049
9.962990865
9.96320906
9.96320906
9.963214079
9.96326169
9.963292515
9.963283757
9.963327322
9.963254252
9.96317866
9.963234576
9.963264799
9.96326018
9.96326169
9.96326169
9.963317833
9.963290778
9.963238323
9.963244701
9.963246815
9.963279825
9.963251351
9.963231374
9.96329014
9.963290705
9.963290778
9.963290778
9.963209484
9.96327805
9.963295162
9.963267029
9.963276671
9.963245223
9.963284585
9.963228057
9.963276392
9.963307974
9.96327805
)
;
    }
}


// ************************************************************************* //
