/*--------------------------------*- C++ -*----------------------------------*\
| =========                 |                                                 |
| \\      /  F ield         | OpenFOAM: The Open Source CFD Toolbox           |
|  \\    /   O peration     | Version:  4.x                                   |
|   \\  /    A nd           | Web:      www.OpenFOAM.org                      |
|    \\/     M anipulation  |                                                 |
\*---------------------------------------------------------------------------*/
FoamFile
{
    version     2.0;
    format      ascii;
    class       volScalarField;
    location    "11000";
    object      T;
}
// * * * * * * * * * * * * * * * * * * * * * * * * * * * * * * * * * * * * * //

dimensions      [0 0 0 1 0 0 0];

internalField   nonuniform List<scalar> 
1175
(
1223.152534
1223.152648
1223.152607
1223.152578
1223.152641
1223.152507
1223.152452
1223.1524
1223.152519
1223.152458
1223.15253
1223.152446
1223.152356
1223.152349
1223.152401
1223.153929
1223.153954
1223.153812
1223.153848
1223.153827
1223.153695
1223.15367
1223.153709
1223.153869
1223.153908
1223.153972
1223.154027
1223.154139
1223.154409
1223.154416
1223.150749
1223.150745
1223.150775
1223.150631
1223.150695
1223.150681
1223.150548
1223.150849
1223.150581
1223.150651
1223.150615
1223.150474
1223.150576
1223.150613
1223.150626
1223.159182
1223.159131
1223.159273
1223.159177
1223.159106
1223.159116
1223.159224
1223.159249
1223.15921
1223.159317
1223.159352
1223.159514
1223.159609
1223.159709
1223.159926
1223.153066
1223.153151
1223.153166
1223.152976
1223.152991
1223.153002
1223.152805
1223.153007
1223.152872
1223.153027
1223.152887
1223.152931
1223.15296
1223.153185
1223.153405
1223.14442
1223.144457
1223.144521
1223.144525
1223.144618
1223.144654
1223.144856
1223.144725
1223.144748
1223.144493
1223.144526
1223.144555
1223.144592
1223.144673
1223.144907
1223.146148
1223.146186
1223.146157
1223.146149
1223.145991
1223.146028
1223.14601
1223.146
1223.145992
1223.14601
1223.146141
1223.146083
1223.146188
1223.146363
1223.146284
1223.153995
1223.153882
1223.153844
1223.153789
1223.153592
1223.153447
1223.153406
1223.153394
1223.153139
1223.153236
1223.153368
1223.153425
1223.153522
1223.153445
1223.153434
1223.151485
1223.151384
1223.151454
1223.151366
1223.151415
1223.151377
1223.151305
1223.15136
1223.151409
1223.151388
1223.151312
1223.151221
1223.151121
1223.151086
1223.151067
1223.149943
1223.149781
1223.149647
1223.14977
1223.149758
1223.149701
1223.149855
1223.149808
1223.149718
1223.149625
1223.14976
1223.149758
1223.14975
1223.149644
1223.152001
1223.151965
1223.152037
1223.152028
1223.152071
1223.15196
1223.1519
1223.151978
1223.152029
1223.151991
1223.151986
1223.152007
1223.152169
1223.152236
1223.152328
1223.155594
1223.155686
1223.1558
1223.155726
1223.155823
1223.155609
1223.155619
1223.155912
1223.155903
1223.155947
1223.155878
1223.155855
1223.155914
1223.155972
1223.156099
1223.15056
1223.150577
1223.150587
1223.150629
1223.150528
1223.150545
1223.15052
1223.150514
1223.150724
1223.150625
1223.150562
1223.150817
1223.151039
1223.151302
1223.151909
1223.148708
1223.148571
1223.148513
1223.148609
1223.148536
1223.148743
1223.148684
1223.148883
1223.148995
1223.14897
1223.148908
1223.148994
1223.149082
1223.149503
1223.150345
1223.157311
1223.157209
1223.157366
1223.157244
1223.157347
1223.157407
1223.157218
1223.157192
1223.157428
1223.157457
1223.157528
1223.157427
1223.157425
1223.15763
1223.15811
1223.161993
1223.162016
1223.16205
1223.162024
1223.161924
1223.161974
1223.161995
1223.161828
1223.161777
1223.161893
1223.161853
1223.161938
1223.162057
1223.161997
1223.162494
1223.143732
1223.143614
1223.143887
1223.143994
1223.144034
1223.144051
1223.144132
1223.144207
1223.144317
1223.144163
1223.144155
1223.144198
1223.144363
1223.144377
1223.144322
1223.152287
1223.15236
1223.152504
1223.152654
1223.152605
1223.152594
1223.15261
1223.152654
1223.152614
1223.152532
1223.152508
1223.152534
1223.152553
1223.152572
1223.152757
1223.151035
1223.151036
1223.151007
1223.151175
1223.151003
1223.151089
1223.151256
1223.151074
1223.151047
1223.150962
1223.15099
1223.150989
1223.150937
1223.150997
1223.150751
1223.150701
1223.150941
1223.150961
1223.150834
1223.15082
1223.151096
1223.150875
1223.150791
1223.150736
1223.150899
1223.150693
1223.150921
1223.151018
1223.148348
1223.148297
1223.148308
1223.148442
1223.14855
1223.148503
1223.148449
1223.148528
1223.148516
1223.148708
1223.148607
1223.148696
1223.148859
1223.149376
1223.150026
1223.150117
1223.150265
1223.150067
1223.150106
1223.14999
1223.15011
1223.150201
1223.150431
1223.150487
1223.15064
1223.150531
1223.150561
1223.150724
1223.151594
1223.153726
1223.151146
1223.151082
1223.151126
1223.151209
1223.151249
1223.151225
1223.151437
1223.151307
1223.151306
1223.151335
1223.151523
1223.151862
1223.152412
1223.154183
1223.158516
1223.145759
1223.14568
1223.14582
1223.145777
1223.145745
1223.145547
1223.145522
1223.145438
1223.145389
1223.145444
1223.145425
1223.145508
1223.145985
1223.14705
1223.149328
1223.145827
1223.145907
1223.145913
1223.146043
1223.145991
1223.146168
1223.146216
1223.146142
1223.146131
1223.146278
1223.146402
1223.146364
1223.146255
1223.146904
1223.147566
1223.148455
1223.148519
1223.148551
1223.148306
1223.148376
1223.148431
1223.148391
1223.148519
1223.14844
1223.14836
1223.148446
1223.148489
1223.148397
1223.148374
1223.148621
1223.148817
1223.14884
1223.148892
1223.149043
1223.1491
1223.149025
1223.14912
1223.148982
1223.148919
1223.148952
1223.148981
1223.148956
1223.149011
1223.149043
1223.149328
1223.145343
1223.145486
1223.145579
1223.145636
1223.145523
1223.14535
1223.145346
1223.145482
1223.14555
1223.145489
1223.14554
1223.145557
1223.145754
1223.145846
1223.147696
1223.147767
1223.147838
1223.147651
1223.147625
1223.147667
1223.147526
1223.147529
1223.147545
1223.147736
1223.147719
1223.147716
1223.147819
1223.148187
1223.139629
1223.139626
1223.13972
1223.139676
1223.139743
1223.139911
1223.139942
1223.139876
1223.139813
1223.139778
1223.139829
1223.13993
1223.14018
1223.141074
1223.154258
1223.154133
1223.154078
1223.154067
1223.153894
1223.15372
1223.153676
1223.153789
1223.153619
1223.153574
1223.15377
1223.153949
1223.15501
1223.157937
1223.165664
1223.15099
1223.150933
1223.151112
1223.150919
1223.150884
1223.151043
1223.151019
1223.150935
1223.150934
1223.151024
1223.151044
1223.151224
1223.152998
1223.160413
1223.185256
1223.152239
1223.152051
1223.152093
1223.15208
1223.152137
1223.151905
1223.15185
1223.151927
1223.15188
1223.151973
1223.152122
1223.152368
1223.153271
1223.156442
1223.164109
1223.152474
1223.152331
1223.152293
1223.15227
1223.152205
1223.152179
1223.152277
1223.152171
1223.152069
1223.152067
1223.152051
1223.15207
1223.15243
1223.153304
1223.155314
1223.1535
1223.153427
1223.15342
1223.153369
1223.153454
1223.153419
1223.153423
1223.153534
1223.153282
1223.153174
1223.153195
1223.153295
1223.153336
1223.153649
1223.154401
1223.15182
1223.152005
1223.152005
1223.152013
1223.15197
1223.151968
1223.152086
1223.15203
1223.152064
1223.151954
1223.151779
1223.151864
1223.151839
1223.152125
1223.152406
1223.150456
1223.15039
1223.150508
1223.15048
1223.150381
1223.15046
1223.15045
1223.150456
1223.150468
1223.150545
1223.150517
1223.150641
1223.15083
1223.150847
1223.148666
1223.148482
1223.148599
1223.148545
1223.148544
1223.148621
1223.148536
1223.148413
1223.148588
1223.14859
1223.148798
1223.148828
1223.149044
1223.149551
1223.158491
1223.158732
1223.158491
1223.158738
1223.158927
1223.158923
1223.158936
1223.158901
1223.158909
1223.158984
1223.159
1223.159034
1223.159536
1223.161228
1223.156696
1223.156751
1223.156657
1223.156578
1223.156621
1223.156654
1223.156634
1223.156663
1223.156844
1223.156779
1223.157033
1223.157353
1223.15895
1223.16645
1223.154263
1223.154235
1223.154333
1223.154291
1223.154048
1223.154103
1223.154024
1223.154223
1223.154286
1223.154284
1223.154229
1223.154861
1223.159027
1223.186672
1220.719717
1223.149822
1223.149714
1223.149607
1223.149534
1223.149487
1223.149652
1223.149798
1223.149835
1223.149941
1223.149985
1223.149969
1223.150347
1223.152008
1223.159538
1223.184114
1223.151526
1223.151461
1223.151458
1223.151486
1223.151696
1223.151774
1223.151877
1223.151741
1223.151795
1223.151727
1223.15162
1223.151754
1223.152218
1223.153814
1223.158174
1223.14825
1223.148219
1223.148308
1223.148285
1223.148212
1223.14825
1223.148251
1223.148088
1223.148238
1223.148406
1223.148545
1223.148587
1223.148748
1223.149246
1223.150114
1223.147612
1223.147539
1223.147648
1223.147841
1223.147985
1223.147965
1223.147948
1223.147872
1223.147823
1223.147824
1223.14773
1223.147745
1223.147759
1223.147826
1223.148031
1223.148856
1223.14881
1223.148913
1223.148932
1223.149026
1223.149175
1223.149123
1223.149005
1223.148975
1223.148912
1223.148886
1223.14889
1223.14908
1223.149206
1223.142829
1223.14286
1223.142805
1223.142717
1223.14294
1223.142722
1223.142706
1223.14268
1223.142551
1223.142694
1223.142665
1223.142808
1223.142908
1223.143052
1223.145272
1223.14537
1223.145326
1223.145396
1223.145428
1223.145351
1223.145316
1223.145408
1223.145483
1223.145483
1223.145507
1223.14554
1223.145884
1223.146963
1223.147229
1223.147179
1223.147129
1223.147098
1223.147245
1223.147223
1223.147207
1223.147209
1223.147174
1223.147251
1223.147236
1223.147531
1223.148367
1223.151514
1223.151168
1223.151246
1223.151405
1223.151431
1223.151465
1223.151452
1223.151368
1223.151471
1223.151516
1223.151389
1223.151399
1223.151705
1223.153473
1223.160854
1223.146949
1223.146993
1223.146995
1223.146932
1223.146706
1223.146842
1223.146927
1223.146766
1223.146853
1223.146914
1223.146799
1223.147229
1223.147901
1223.150916
1223.152425
1223.152424
1223.152315
1223.152277
1223.152213
1223.152131
1223.152265
1223.15249
1223.152363
1223.152313
1223.152233
1223.152444
1223.152907
1223.153888
1223.155867
1223.146104
1223.146221
1223.146164
1223.146104
1223.146033
1223.146259
1223.146314
1223.146379
1223.146371
1223.146336
1223.146317
1223.146426
1223.146469
1223.146842
1223.147416
1223.148274
1223.148382
1223.148294
1223.148361
1223.148345
1223.14837
1223.148323
1223.148503
1223.148551
1223.14854
1223.148639
1223.148695
1223.148756
1223.14899
1223.149175
1223.143825
1223.143718
1223.143785
1223.143625
1223.143574
1223.143703
1223.143659
1223.14384
1223.143827
1223.14381
1223.143911
1223.143799
1223.143799
1223.143914
1223.152192
1223.152303
1223.152401
1223.152702
1223.152641
1223.152619
1223.152635
1223.152581
1223.152777
1223.1529
1223.152831
1223.152822
1223.15289
1223.153011
1223.161338
1223.161102
1223.161222
1223.161125
1223.161036
1223.161221
1223.160974
1223.160937
1223.160885
1223.16102
1223.161005
1223.160998
1223.161037
1223.161512
1223.151695
1223.151761
1223.15178
1223.151793
1223.151861
1223.151945
1223.151857
1223.151745
1223.151671
1223.151952
1223.151987
1223.152222
1223.152502
1223.153463
1223.145506
1223.145557
1223.145671
1223.145602
1223.145677
1223.145475
1223.145372
1223.145383
1223.145196
1223.145277
1223.145105
1223.145066
1223.145727
1223.147374
1223.148577
1223.148644
1223.148794
1223.14856
1223.148603
1223.148609
1223.148633
1223.148444
1223.148455
1223.148442
1223.148659
1223.1486
1223.149205
1223.149966
1223.150156
1223.150154
1223.15026
1223.150262
1223.15026
1223.150233
1223.150575
1223.150652
1223.150886
1223.151038
1223.15099
1223.151074
1223.151114
1223.151623
1223.144259
1223.144275
1223.14436
1223.144297
1223.144303
1223.144399
1223.144249
1223.144222
1223.144262
1223.14412
1223.144427
1223.144613
1223.144484
1223.144508
1223.144805
1223.154631
1223.154642
1223.154758
1223.15466
1223.154569
1223.154521
1223.154513
1223.154442
1223.154402
1223.154462
1223.154431
1223.154457
1223.154424
1223.154668
1223.154899
1223.15379
1223.153942
1223.153969
1223.153985
1223.154159
1223.154093
1223.154255
1223.15424
1223.154324
1223.15438
1223.154311
1223.154423
1223.154431
1223.154288
1223.153443
1223.153433
1223.153679
1223.153759
1223.153585
1223.153661
1223.153766
1223.153861
1223.153792
1223.153729
1223.153881
1223.153792
1223.153815
1223.153944
1223.149404
1223.14949
1223.14961
1223.149451
1223.14944
1223.149376
1223.149494
1223.149534
1223.149456
1223.149349
1223.149232
1223.149335
1223.149313
1223.149543
1223.152787
1223.152987
1223.152958
1223.15292
1223.152623
1223.152603
1223.152776
1223.152663
1223.152662
1223.152484
1223.152394
1223.152374
1223.152432
1223.152603
1223.154292
1223.154423
1223.154375
1223.154405
1223.154294
1223.154312
1223.154419
1223.154392
1223.154351
1223.154254
1223.154506
1223.154529
1223.154692
1223.155195
1223.14776
1223.147783
1223.147692
1223.147675
1223.147909
1223.147807
1223.14784
1223.147704
1223.147616
1223.147626
1223.147766
1223.147636
1223.14771
1223.148136
1223.148922
1223.148824
1223.148768
1223.148794
1223.148701
1223.148855
1223.148743
1223.148396
1223.148372
1223.148263
1223.148241
1223.148106
1223.14821
1223.148305
1223.14814
1223.148212
1223.148178
1223.148176
1223.148169
1223.148227
1223.148282
1223.148282
1223.148254
1223.148292
1223.148358
1223.148461
1223.148582
1223.148528
1223.158944
1223.158943
1223.158834
1223.159007
1223.158909
1223.158873
1223.15896
1223.158779
1223.158812
1223.158695
1223.158578
1223.158503
1223.158667
1223.158605
1223.158702
1223.148315
1223.148197
1223.148164
1223.1482
1223.148075
1223.148033
1223.148021
1223.148023
1223.148051
1223.148161
1223.148184
1223.148077
1223.147976
1223.148003
1223.151354
1223.151291
1223.151279
1223.151269
1223.151295
1223.151361
1223.151495
1223.151391
1223.151152
1223.151178
1223.151292
1223.15125
1223.151441
1223.151485
1223.150088
1223.149963
1223.149984
1223.149824
1223.149851
1223.149897
1223.14981
1223.149923
1223.149983
1223.150045
1223.150083
1223.150205
1223.150336
1223.150328
1223.15427
1223.154182
1223.154097
1223.154145
1223.154173
1223.154202
1223.154167
1223.154285
1223.154307
1223.154139
1223.154058
1223.154169
1223.154118
1223.154077
1223.149063
1223.149089
1223.149126
1223.149107
1223.149036
1223.149149
1223.149033
1223.149016
1223.149071
1223.149062
1223.149045
1223.148985
1223.149094
1223.149159
1223.156061
1223.156039
1223.156088
1223.156088
1223.156079
1223.156008
1223.155957
1223.156017
1223.155943
1223.155954
1223.155938
1223.156016
1223.156075
1223.156309
1223.15013
1223.150125
1223.150229
1223.150231
1223.150161
1223.150368
1223.150315
1223.150281
1223.150365
1223.150311
1223.15021
1223.150264
1223.150269
1223.150301
1223.146117
1223.14619
1223.146225
1223.146265
1223.146299
1223.146504
1223.14655
1223.146511
1223.146539
1223.146485
1223.146419
1223.14651
1223.146521
1223.146453
1223.150397
1223.150415
1223.150329
1223.150138
1223.15027
1223.150191
1223.150049
1223.150102
1223.150155
1223.150131
1223.15015
1223.150069
1223.150151
1223.150195
)
;

boundaryField
{
    top
    {
        type            zeroGradient;
    }
    bottom
    {
        type            zeroGradient;
    }
    side-walls
    {
        type            zeroGradient;
    }
    inlet
    {
        type            zeroGradient;
    }
    outlet
    {
        type            zeroGradient;
    }
    procBoundary0to1
    {
        type            processor;
        value           nonuniform List<scalar> 
97
(
1223.152303
1223.149807
1223.15452
1223.150708
1223.160285
1223.153917
1223.145206
1223.146525
1223.153668
1223.151158
1223.149807
1223.149807
1223.152525
1223.151338
1223.156629
1223.152721
1223.151352
1223.158779
1223.162859
1223.144516
1223.152836
1223.150956
1223.151338
1223.151338
1223.151093
1223.143347
1223.156036
1223.161778
1223.151474
1223.148641
1223.149133
1223.149334
1223.146077
1223.148691
1223.143347
1223.143347
1223.171006
1223.191214
1223.189204
1223.169025
1223.157668
1223.154889
1223.152662
1223.151115
1223.150477
1223.165475
1223.191214
1223.191214
1220.628903
1223.18554
1223.188008
1223.15876
1223.161338
1223.151247
1223.148471
1223.149303
1223.143754
1223.149141
1223.159439
1223.18554
1223.15876
1223.15876
1223.158053
1223.152283
1223.148418
1223.149461
1223.144179
1223.153263
1223.16233
1223.155668
1223.15168
1223.152261
1223.152283
1223.152283
1223.145232
1223.148768
1223.155169
1223.154287
1223.15398
1223.149778
1223.153498
1223.155958
1223.148746
1223.148608
1223.148768
1223.148768
1223.158614
1223.150158
1223.14806
1223.151526
1223.150226
1223.154264
1223.149375
1223.156341
1223.150417
1223.146419
1223.150158
)
;
    }
}


// ************************************************************************* //
