/*--------------------------------*- C++ -*----------------------------------*\
| =========                 |                                                 |
| \\      /  F ield         | OpenFOAM: The Open Source CFD Toolbox           |
|  \\    /   O peration     | Version:  4.x                                   |
|   \\  /    A nd           | Web:      www.OpenFOAM.org                      |
|    \\/     M anipulation  |                                                 |
\*---------------------------------------------------------------------------*/
FoamFile
{
    version     2.0;
    format      ascii;
    class       volVectorField;
    location    "11000";
    object      U;
}
// * * * * * * * * * * * * * * * * * * * * * * * * * * * * * * * * * * * * * //

dimensions      [0 1 -1 0 0 0 0];

internalField   nonuniform List<vector> 
1175
(
(0.01099999894 4.675321866e-10 -1.299652784e-10)
(0.01100000011 -7.227637022e-10 5.245292106e-10)
(0.0110000019 1.445111106e-09 6.728364235e-10)
(0.01100000186 -2.673709406e-09 2.542465371e-09)
(0.01100000403 -4.088018279e-10 1.515333021e-09)
(0.01100000542 -5.796463384e-10 -3.138694556e-10)
(0.01100000877 -3.691903952e-10 -7.688661804e-10)
(0.01100000814 -1.837864898e-09 -2.512166976e-09)
(0.0110000152 -1.179626595e-10 -3.234015849e-09)
(0.01100002006 -4.456139177e-10 -5.945652203e-09)
(0.01100003361 -2.42855939e-09 -2.668466727e-09)
(0.01100004972 -3.176509672e-09 -4.138763487e-09)
(0.01100007946 -5.68641956e-09 -6.071528638e-09)
(0.01100010233 -5.521096871e-09 -6.537848848e-09)
(0.0110001408 -9.167827747e-09 -9.878833027e-09)
(0.01099999814 -5.280023461e-10 -5.313682627e-12)
(0.01100000012 1.535940872e-09 -2.180378216e-10)
(0.01100000033 -6.885100869e-10 -7.179293584e-10)
(0.01100000079 -4.688645208e-11 -1.600638933e-10)
(0.01100000204 -9.396291387e-10 -1.167100545e-09)
(0.01100000275 -6.597738092e-10 -1.649769013e-09)
(0.01100000614 -2.041304899e-09 -7.341356466e-10)
(0.01100000754 -3.572073285e-09 -3.239257799e-09)
(0.01100001238 -6.032552373e-09 -3.426431719e-09)
(0.01100001768 -9.829321415e-09 -4.506520204e-09)
(0.01100003033 -1.086542448e-08 -4.346477972e-09)
(0.01100004599 -1.684614845e-08 -7.151663001e-09)
(0.01100007781 -2.361356256e-08 -7.343677269e-09)
(0.01100009757 -2.81368949e-08 -7.355526367e-09)
(0.01100014565 -4.334730522e-08 -1.416422111e-08)
(0.01100000043 5.135356963e-10 -9.348798516e-10)
(0.01099999914 2.710873104e-09 -1.77850322e-09)
(0.01100000079 3.556195203e-10 4.330766701e-10)
(0.01100000099 5.416063927e-10 6.012440175e-10)
(0.01100000266 1.016519491e-09 -1.476518697e-09)
(0.01100000152 -1.34331385e-09 -2.788393532e-09)
(0.0110000012 -8.875533223e-10 -1.591867375e-09)
(0.01100000562 -6.254746789e-09 -5.039413768e-09)
(0.01100000924 -5.959152445e-09 -6.13378567e-09)
(0.01100001353 -1.000506984e-08 -4.219957959e-09)
(0.01100002276 -1.268673467e-08 -6.638559224e-09)
(0.01100003499 -1.816813104e-08 -1.513576757e-08)
(0.01100006678 -2.454766907e-08 -1.398899359e-08)
(0.01100007951 -2.627438553e-08 -1.742091332e-08)
(0.01100015489 -4.885936027e-08 -3.378540025e-08)
(0.01100000001 -2.288773778e-10 1.062746584e-09)
(0.0109999993 5.65997227e-10 2.424418614e-09)
(0.01100000129 5.215424927e-10 3.124970618e-10)
(0.01100000005 -1.637053095e-09 -4.163898467e-09)
(0.0110000001 -1.663958597e-09 -1.902278802e-09)
(0.01099999981 -8.63660313e-10 -1.723653433e-09)
(0.0110000011 -3.666123642e-09 -1.912355616e-09)
(0.01100000472 -3.008857492e-09 -1.674023723e-09)
(0.01100000517 -4.636448033e-09 -3.417786187e-09)
(0.01100001134 -6.915088241e-09 -6.512961936e-09)
(0.01100001814 -1.268562799e-08 -4.828887584e-09)
(0.01100003285 -2.655215311e-08 -1.267844969e-08)
(0.01100006708 -3.634098616e-08 -1.202158179e-08)
(0.01100006961 -5.266741128e-08 -1.533238215e-08)
(0.01100016872 -8.722086637e-08 -3.914279155e-08)
(0.01099999942 -4.422346858e-10 -1.794153451e-09)
(0.01100000034 -1.226978347e-09 -1.231276974e-09)
(0.01100000025 -4.615547138e-10 -1.121626441e-09)
(0.01099999796 -2.057937278e-09 -1.0488535e-09)
(0.01100000142 -1.229104727e-09 -1.124785809e-09)
(0.01100000129 -3.879160516e-10 -4.411514159e-09)
(0.01099999739 -1.200668294e-09 -2.020281806e-09)
(0.01100000147 -1.743049753e-09 -3.187915075e-09)
(0.01100000164 -1.335084919e-09 -3.573936844e-09)
(0.01100000509 -7.25238379e-10 -7.52277444e-09)
(0.01100000549 1.981045218e-09 -1.234590516e-08)
(0.01100001031 3.327525373e-10 -2.730045227e-08)
(0.01100003624 1.894864024e-09 -2.948024276e-08)
(0.0110000253 1.646544313e-09 -6.277851388e-08)
(0.01100020459 -2.162874626e-10 -1.175883966e-07)
(0.0109999997 -1.359560996e-09 -1.156203239e-11)
(0.01100000112 3.614002998e-10 1.183051606e-09)
(0.01099999867 3.751429081e-10 -1.575378876e-09)
(0.01099999885 -1.42731174e-09 1.940947499e-09)
(0.01100000243 1.416592933e-10 -9.76602646e-11)
(0.01100000091 3.858847846e-10 -2.877720392e-09)
(0.01100000229 2.402184115e-09 -2.961306659e-10)
(0.01100000374 3.680180385e-09 -1.284754171e-09)
(0.01100000756 4.756220489e-09 -1.187966807e-09)
(0.0110000111 9.609977534e-09 -5.929955069e-09)
(0.01100002157 1.496348986e-08 -5.669041081e-09)
(0.01100003231 2.87656963e-08 -1.352838991e-08)
(0.01100006542 3.889831977e-08 -1.161746357e-08)
(0.01100006965 5.399163321e-08 -1.581499384e-08)
(0.01100016866 8.800416551e-08 -3.808790714e-08)
(0.01099999984 -5.821873734e-10 -1.22661873e-09)
(0.01099999995 -2.747534715e-09 9.035491865e-10)
(0.01099999959 -2.273079475e-09 7.220832722e-10)
(0.01100000152 5.955536551e-10 1.14055312e-09)
(0.01100000204 -1.346692978e-10 4.724543763e-10)
(0.01100000151 1.359925121e-10 -2.54649395e-09)
(0.01100000338 2.139054889e-09 -3.313107312e-09)
(0.01100000376 3.89203955e-09 -3.448703703e-09)
(0.01100000915 5.857034696e-09 6.620382888e-10)
(0.01100001454 1.159389408e-08 -4.082076756e-09)
(0.01100002443 1.330379868e-08 -7.043166154e-09)
(0.01100003323 2.244764288e-08 -1.259123073e-08)
(0.01100006273 2.412639634e-08 -1.451179993e-08)
(0.01100007822 2.663347163e-08 -1.680264383e-08)
(0.0110001536 4.762588475e-08 -3.221803537e-08)
(0.01100000088 3.608560779e-10 -8.249771543e-12)
(0.0109999996 1.809868753e-09 1.792963769e-09)
(0.01100000132 1.140700793e-09 8.627951664e-10)
(0.0110000008 1.39513633e-09 -1.374665995e-09)
(0.01100000317 -1.900034439e-10 9.471926284e-10)
(0.011000003 6.872609136e-10 -7.975048103e-10)
(0.01100000488 2.361936076e-09 -2.311801374e-09)
(0.01100000602 4.254166474e-09 -1.787368578e-09)
(0.01100001111 4.050405382e-09 -7.511626788e-10)
(0.01100002063 7.460062695e-09 -1.905765277e-09)
(0.01100003326 1.217588209e-08 -2.396165078e-09)
(0.01100004438 1.769799987e-08 -8.132430445e-09)
(0.01100007484 2.329504174e-08 -1.036247105e-08)
(0.01100009313 2.710273625e-08 -8.217981194e-09)
(0.01100014017 4.268939322e-08 -1.504127449e-08)
(0.01100000093 7.202319935e-10 -9.199410353e-10)
(0.01099999843 1.017218878e-09 -3.634846864e-09)
(0.01100000058 6.395943235e-10 -2.638616634e-09)
(0.01100000158 1.054090548e-09 9.232329687e-10)
(0.01100000334 -2.846711931e-10 3.720556829e-09)
(0.01100000461 1.540626064e-09 -9.640875947e-10)
(0.0110000057 2.272444313e-09 2.311461648e-10)
(0.01100000795 3.043123519e-09 -1.412073952e-09)
(0.01100001672 2.887414683e-09 -6.565481349e-10)
(0.01100002379 3.714745017e-09 2.151418145e-09)
(0.0110000354 4.094489338e-09 -2.137700978e-09)
(0.01100004808 5.055173609e-09 -3.89364188e-09)
(0.01100007749 7.299674924e-09 -8.327909042e-09)
(0.01100009809 5.466442299e-09 -6.409830905e-09)
(0.01100013725 1.045860046e-08 -1.103159357e-08)
(0.01099999932 -5.425225801e-10 3.938428837e-10)
(0.01099999962 3.502771949e-09 1.496077432e-11)
(0.01099999842 4.470006256e-10 -6.677314373e-10)
(0.01099999977 -1.003583596e-09 1.018088289e-10)
(0.0110000032 -2.596108619e-09 -7.08265679e-10)
(0.01100000279 -1.253830996e-09 1.668475813e-10)
(0.01100000679 -4.452240989e-10 -2.571414097e-09)
(0.01100000778 -2.016371772e-09 -3.658093947e-09)
(0.01100001297 -3.361246738e-09 -5.636778426e-09)
(0.01100001895 -4.414730252e-09 -9.339748528e-09)
(0.01100003052 -5.451514277e-09 -1.228634438e-08)
(0.01100004424 -5.143407994e-09 -1.773379973e-08)
(0.01100007712 -8.704776422e-09 -2.41803523e-08)
(0.01100009496 -7.447893038e-09 -2.581984535e-08)
(0.0110000003 4.294620016e-10 -4.350063337e-10)
(0.01099999975 9.978621273e-11 9.622383056e-10)
(0.01100000081 2.708690974e-10 -1.171754875e-09)
(0.01100000021 -6.547721779e-10 -1.511357537e-10)
(0.01100000285 -1.179387323e-09 -3.795781955e-10)
(0.01100000338 -1.252157825e-09 -4.75032251e-10)
(0.01100000457 -2.712157736e-09 -4.280420222e-09)
(0.01100000692 -3.286775286e-09 -4.466623758e-09)
(0.01100000948 -5.503898485e-09 -5.049675165e-09)
(0.01100001703 -8.853866096e-09 -9.441508104e-09)
(0.0110000261 -1.276005837e-08 -1.504688029e-08)
(0.01100004038 -2.191568027e-08 -2.321629584e-08)
(0.01100007651 -2.984299295e-08 -3.171847403e-08)
(0.011000087 -3.631874237e-08 -3.728532192e-08)
(0.01100015594 -6.409619773e-08 -6.79231168e-08)
(0.01100000059 1.794033957e-09 -1.105461524e-10)
(0.01099999841 -5.384837955e-11 -7.247300512e-10)
(0.01100000148 1.186719373e-10 -4.436662433e-11)
(0.01100000081 -7.518172728e-10 -3.283094332e-10)
(0.01100000166 1.233831738e-09 -8.227064216e-10)
(0.01100000068 1.670928245e-11 -1.265667061e-09)
(0.01100000094 -2.350303143e-09 -3.154299088e-09)
(0.0110000045 -5.023307663e-09 -3.569657938e-09)
(0.01100000763 -6.339992348e-09 -5.861264858e-09)
(0.011000012 -1.291107535e-08 -1.175888846e-08)
(0.01100001462 -1.409796073e-08 -2.004182659e-08)
(0.0110000249 -2.630927054e-08 -3.905043289e-08)
(0.01100005853 -2.84841363e-08 -5.196318584e-08)
(0.01100006014 -3.468031973e-08 -7.887301373e-08)
(0.01100017263 -7.338660279e-08 -1.506611033e-07)
(0.01099999995 -1.388160982e-10 2.466730692e-10)
(0.01099999801 -3.017886373e-10 -3.361578878e-10)
(0.01099999938 -3.626120965e-10 4.830181518e-10)
(0.01100000096 -1.424139867e-09 -1.262993984e-09)
(0.01099999994 -3.154390314e-10 7.25783356e-10)
(0.01099999977 -2.710706418e-09 -9.21884682e-10)
(0.01099999956 -1.260878707e-09 -2.362439813e-09)
(0.01100000235 -3.089244854e-09 -5.319872551e-09)
(0.0110000017 -6.035841399e-09 -7.942253134e-09)
(0.01100000804 -1.304833258e-08 -1.641133974e-08)
(0.01100000917 -1.865039413e-08 -2.103798842e-08)
(0.01100002595 -4.078208872e-08 -5.143635824e-08)
(0.01100006007 -5.313924558e-08 -5.506930797e-08)
(0.01100005007 -9.737000886e-08 -1.015750505e-07)
(0.01100019144 -1.739709075e-07 -2.146159416e-07)
(0.01100000045 -2.131967528e-09 -1.422944364e-10)
(0.01099999812 4.637916723e-11 8.465250223e-10)
(0.01099999785 -2.227797362e-09 4.510454414e-10)
(0.01099999981 -6.625191786e-10 -3.345558608e-10)
(0.01100000008 -3.368074026e-10 -4.386342684e-11)
(0.01100000003 -1.195341629e-09 -1.657082305e-09)
(0.01099999871 -7.285999225e-10 -3.026038551e-09)
(0.0109999987 -1.296841375e-09 -7.452330773e-09)
(0.01099999536 6.897995886e-10 -8.907556256e-09)
(0.01099999787 -1.070281813e-09 -2.473269096e-08)
(0.01099998537 3.670075921e-10 -3.244608877e-08)
(0.01099999107 9.978207907e-12 -9.819426773e-08)
(0.01099998873 8.659475457e-11 -1.205483271e-07)
(0.01099994999 4.712925567e-10 -3.150202992e-07)
(0.01100028333 9.883905312e-10 -5.723839902e-07)
(0.01100000017 -1.619310933e-09 -7.967345124e-11)
(0.01099999905 4.684600631e-10 -6.310724974e-10)
(0.01099999967 1.204082908e-10 -4.65718921e-10)
(0.01099999977 7.513257235e-10 -2.156920235e-10)
(0.01099999906 1.212111404e-10 -1.627944639e-09)
(0.01100000085 5.190193e-10 -1.612863691e-09)
(0.01100000117 -2.690014253e-10 -1.284306536e-09)
(0.01100000042 2.328826782e-09 -5.938931428e-09)
(0.01100000327 6.485231832e-09 -7.092746366e-09)
(0.01100000667 1.371375715e-08 -1.714081857e-08)
(0.01100001177 1.901724253e-08 -2.106206838e-08)
(0.01100002608 4.223373368e-08 -5.016002084e-08)
(0.01100006063 5.372323403e-08 -5.557121628e-08)
(0.01100004967 9.812705436e-08 -1.016882058e-07)
(0.01100019166 1.72877246e-07 -2.134614993e-07)
(0.01099999982 -8.610749801e-10 5.57236555e-11)
(0.01100000059 7.133430313e-10 -2.117363506e-10)
(0.01100000016 1.14009217e-09 -5.029244112e-10)
(0.01100000084 7.235592726e-10 -8.652711089e-10)
(0.01100000039 6.776823823e-10 -1.559759512e-09)
(0.01100000178 1.674066656e-09 -1.237067344e-09)
(0.01100000169 3.063115789e-09 -2.466385477e-09)
(0.01100000415 5.148340802e-09 -4.59599088e-09)
(0.011000005 6.638304597e-09 -6.707387896e-09)
(0.0110000114 1.278512997e-08 -1.41499552e-08)
(0.01100001526 1.555422901e-08 -1.947854433e-08)
(0.01100002456 2.69227321e-08 -4.157078805e-08)
(0.0110000589 3.009286428e-08 -5.290185565e-08)
(0.01100005691 3.41135194e-08 -7.790037156e-08)
(0.01100017376 7.461735649e-08 -1.489503091e-07)
(0.01100000104 3.041613273e-10 -2.828866182e-12)
(0.01099999888 -1.125419137e-09 -2.57472608e-10)
(0.01100000184 -3.280253307e-10 -5.556944767e-10)
(0.01100000095 -6.948149191e-11 5.152441841e-11)
(0.01100000225 1.650916741e-10 -1.255859363e-09)
(0.01100000189 1.291804713e-09 -1.624810018e-09)
(0.01100000296 2.671505345e-09 -1.875604487e-09)
(0.01100000838 3.780551749e-09 -3.369341148e-09)
(0.01100001162 3.826367725e-09 -4.915465349e-09)
(0.01100001802 1.003921527e-08 -9.829102362e-09)
(0.01100002661 1.490744641e-08 -1.620330435e-08)
(0.01100004156 2.50208277e-08 -2.491591471e-08)
(0.01100007348 3.291871388e-08 -3.207210278e-08)
(0.01100008809 3.92158336e-08 -3.683017655e-08)
(0.01100015252 6.551743057e-08 -6.449641856e-08)
(0.01099999897 8.761889575e-10 1.205079692e-09)
(0.01100000136 7.288986679e-11 -3.199579931e-10)
(0.01100000229 6.546103513e-10 -6.389384871e-10)
(0.01100000275 3.430157422e-10 -6.676483614e-10)
(0.01100000145 8.581313612e-10 -1.067438628e-09)
(0.01100000303 7.398337108e-10 -1.028168225e-09)
(0.01100000522 9.549905521e-10 -2.212150796e-09)
(0.01100000932 1.684582005e-09 -4.209426763e-09)
(0.01100001484 1.975715767e-09 -5.569025886e-09)
(0.0110000183 4.28780249e-09 -8.167092692e-09)
(0.01100003287 3.841677274e-09 -1.132757499e-08)
(0.01100004752 6.719823198e-09 -1.867282568e-08)
(0.01100007538 9.603469342e-09 -2.344683956e-08)
(0.01100009274 8.015400652e-09 -2.548638744e-08)
(0.01100014278 1.532329072e-08 -4.131243083e-08)
(0.0109999997 2.334983381e-10 -4.980662202e-10)
(0.01100000011 1.029999212e-10 4.51932274e-10)
(0.01099999996 -3.360552069e-10 -7.444072428e-10)
(0.0110000029 -1.520468685e-09 -6.951249379e-10)
(0.01100000142 -1.798513125e-09 -2.056089471e-09)
(0.0110000029 2.379912093e-09 -2.841501637e-09)
(0.01100000574 -2.158854295e-09 -3.845918819e-09)
(0.01100000438 -7.609596243e-13 -5.083114952e-09)
(0.0110000099 -1.138739196e-09 -6.435438116e-09)
(0.01100001154 -3.981222703e-09 -1.037915838e-08)
(0.01100002235 -3.693973164e-09 -1.468016591e-08)
(0.01100003428 -8.496508494e-09 -1.996026633e-08)
(0.01100006709 -1.463022698e-08 -2.672460714e-08)
(0.01100007824 -1.425278887e-08 -2.817852096e-08)
(0.01099999942 9.203743896e-11 -8.124526287e-10)
(0.0109999991 6.682093446e-10 6.572121224e-10)
(0.01100000168 2.963606942e-10 -1.037942373e-09)
(0.01100000132 -1.022905829e-09 -8.123481724e-10)
(0.01100000019 -4.431861423e-10 2.169052854e-10)
(0.01100000175 -1.109221106e-09 -7.020701426e-10)
(0.01100000412 -2.695297239e-09 -1.599245944e-09)
(0.01100000428 -4.483030222e-09 -6.618109345e-09)
(0.0110000037 -6.055499735e-09 -7.362376374e-09)
(0.01100000759 -1.303788074e-08 -1.274379171e-08)
(0.01100001383 -1.644074796e-08 -1.471979122e-08)
(0.01100002521 -3.803398772e-08 -2.739283435e-08)
(0.01100005764 -4.914307139e-08 -3.180352609e-08)
(0.01100006077 -7.732731191e-08 -3.46153369e-08)
(0.01099999912 1.995329041e-09 -1.888963783e-09)
(0.01100000032 2.570418511e-11 -1.009892135e-09)
(0.01099999899 2.825465564e-09 -1.424337317e-09)
(0.01099999909 5.3233029e-11 -2.249728576e-09)
(0.01100000216 5.487306703e-10 -9.894806273e-10)
(0.01100000002 -9.441701511e-10 -3.156503595e-09)
(0.01100000101 -1.447011339e-09 -2.90794984e-09)
(0.01100000181 -5.957320521e-09 -6.517083399e-09)
(0.01099999686 -8.693790743e-09 -7.922848855e-09)
(0.01100000057 -1.850786624e-08 -2.048667706e-08)
(0.01099999205 -1.938884802e-08 -2.196916737e-08)
(0.01099999738 -4.606715734e-08 -4.92952509e-08)
(0.01100001329 -4.81169233e-08 -4.99763828e-08)
(0.0109999887 -9.197321209e-08 -9.249686709e-08)
(0.01100021161 -1.966154593e-07 -2.023989116e-07)
(0.01099999888 2.832266213e-10 -1.466361379e-09)
(0.01100000141 1.614037423e-09 -1.271002054e-09)
(0.01099999851 5.558729026e-10 -7.782788807e-10)
(0.01099999969 -3.742748378e-10 1.798076763e-10)
(0.01099999821 -6.589810754e-10 -2.509960704e-09)
(0.01099999877 -2.395114877e-09 -2.123154311e-09)
(0.01099999634 -3.071860874e-09 -3.722951909e-09)
(0.01099999926 -4.83788984e-09 -8.082204139e-09)
(0.01099999029 -7.967256993e-09 -8.829773308e-09)
(0.01099999996 -2.026283498e-08 -2.287148479e-08)
(0.01099998137 -2.663234448e-08 -1.833442334e-08)
(0.01099999812 -8.569313374e-08 -5.97950111e-08)
(0.01099998863 -1.065940586e-07 -2.445091699e-08)
(0.01099995738 -2.916502334e-07 -8.557339518e-08)
(0.01100020858 -5.20029534e-07 -2.405155462e-07)
(0.01099999991 -1.323954775e-09 1.313927688e-10)
(0.01099999933 8.161349634e-11 3.664089987e-13)
(0.01099999873 -2.900681694e-09 -2.439910661e-10)
(0.01099999837 -1.16153573e-09 9.422961909e-10)
(0.01099999908 -1.623025576e-09 -2.544460954e-09)
(0.01099999749 -6.297849252e-10 -1.659626268e-09)
(0.01099999579 1.869933077e-10 -4.145798622e-09)
(0.01099999426 -6.6205658e-10 -9.916854844e-09)
(0.01099997927 3.899320227e-10 -1.282417129e-08)
(0.01099997957 3.615197356e-10 -3.427888914e-08)
(0.01099992194 6.776917296e-10 -3.851790486e-08)
(0.01099992008 4.618215071e-10 -1.492607572e-07)
(0.01099976212 8.464129805e-10 -1.251037189e-07)
(0.01099966452 -4.298534223e-10 -5.875055315e-07)
(0.01100036577 1.801139521e-10 -9.958122706e-07)
(0.01100000014 -5.486277298e-10 -5.551809135e-10)
(0.01099999784 -2.102307319e-09 4.957234862e-10)
(0.01100000025 2.639724867e-10 -3.310654577e-10)
(0.01099999974 6.551958742e-10 1.464857443e-10)
(0.01099999958 3.704486247e-10 -8.761950648e-10)
(0.01099999974 1.346717565e-09 -7.082276641e-10)
(0.01099999709 2.482943325e-09 -2.400700076e-09)
(0.01099999756 5.300184615e-09 -7.115917787e-09)
(0.01099999157 7.564475568e-09 -8.557109438e-09)
(0.01099999567 2.001376442e-08 -2.013992039e-08)
(0.01099998292 2.694494425e-08 -1.982945052e-08)
(0.01099999654 8.668195665e-08 -6.051044931e-08)
(0.01099998794 1.044648597e-07 -2.336683404e-08)
(0.0109999577 2.920400466e-07 -8.755383204e-08)
(0.01100020926 5.227357997e-07 -2.405809543e-07)
(0.01100000003 -1.492608355e-09 2.637917635e-11)
(0.0110000013 4.631159326e-10 -1.862211478e-09)
(0.01100000032 -1.998830788e-09 9.545715489e-10)
(0.01099999882 -1.148059581e-09 6.871035617e-10)
(0.01100000187 -7.355918491e-10 -1.08940406e-09)
(0.01100000125 1.848839737e-09 2.426563293e-10)
(0.01100000132 2.501344762e-09 -2.375755465e-09)
(0.01100000095 6.619151576e-09 -4.815101323e-09)
(0.01099999819 9.14024082e-09 -7.214110747e-09)
(0.01099999845 1.959726927e-08 -1.807340031e-08)
(0.01099999403 2.10197432e-08 -2.183280453e-08)
(0.01099999797 4.77302456e-08 -4.785499644e-08)
(0.01100001261 5.124079515e-08 -5.007023629e-08)
(0.01099998838 9.249789892e-08 -9.395069388e-08)
(0.01100021222 1.987317463e-07 -2.024150857e-07)
(0.01099999973 1.203129514e-09 -4.060239726e-10)
(0.01099999954 -5.132930771e-10 -5.504657307e-10)
(0.01100000298 5.792591897e-10 -2.592141344e-10)
(0.01099999947 2.250189075e-09 -7.094060463e-10)
(0.01100000428 2.338586663e-09 -6.691052785e-10)
(0.01100000153 2.251604449e-09 -5.753929462e-10)
(0.01100000299 3.320748858e-09 -1.610464407e-09)
(0.01100000318 4.524291506e-09 -3.588087242e-09)
(0.01100000395 7.796578849e-09 -6.261639627e-09)
(0.01100000749 1.323485449e-08 -1.164943928e-08)
(0.01100001591 1.817901876e-08 -1.477819569e-08)
(0.01100002674 4.102992473e-08 -2.685773531e-08)
(0.01100005564 5.269040931e-08 -3.102763183e-08)
(0.01100005717 7.850016135e-08 -3.45982247e-08)
(0.01100017435 1.506523408e-07 -7.381093427e-08)
(0.0109999984 8.350170004e-10 -3.298992913e-10)
(0.01100000113 8.374284027e-11 -5.671313548e-10)
(0.01100000023 2.072033931e-09 3.726210533e-10)
(0.01100000189 6.204054149e-10 -1.90743643e-11)
(0.01100000167 1.508323953e-09 7.041392035e-11)
(0.01100000279 6.500553766e-10 5.586689738e-10)
(0.01100000482 6.738019366e-10 -6.633077508e-10)
(0.01100000694 3.272807545e-09 -3.48369944e-09)
(0.0110000082 2.362237147e-09 -4.732409038e-09)
(0.01100001354 4.395740788e-09 -9.509876739e-09)
(0.01100002296 6.624912756e-09 -1.427475203e-08)
(0.01100003675 1.142056544e-08 -2.158372805e-08)
(0.01100006643 1.487271643e-08 -2.661448511e-08)
(0.01100007608 1.7459681e-08 -2.844344783e-08)
(0.01100015563 3.289531911e-08 -4.834437392e-08)
(0.01099999899 -3.521485988e-10 6.448749037e-10)
(0.01099999819 -1.175633036e-09 -4.690757104e-10)
(0.01100000174 -9.398202754e-10 -1.901009843e-10)
(0.01100000129 1.901261813e-09 -1.274620562e-09)
(0.01100000029 2.505588391e-09 9.135822649e-10)
(0.01099999815 -1.011494773e-09 -9.973997924e-10)
(0.01100000461 7.369673852e-10 -1.730962123e-09)
(0.01100000531 -2.082323949e-09 -3.71925679e-09)
(0.0110000066 -2.982972638e-09 -3.384346119e-09)
(0.01100000945 -6.968789777e-09 -9.689994887e-09)
(0.01100001725 -6.068878222e-09 -1.295197327e-08)
(0.01100003116 -1.2942577e-08 -2.563542624e-08)
(0.01100006541 -9.189088477e-09 -3.755116801e-08)
(0.01100007192 -1.485494274e-08 -5.41718541e-08)
(0.01099999985 2.781647924e-10 3.596762787e-10)
(0.01099999933 5.748063338e-10 -1.327525231e-09)
(0.01100000102 -7.746808459e-10 5.810250599e-10)
(0.01100000057 -3.379549482e-10 4.581996015e-10)
(0.01099999774 -1.295322333e-10 8.563050435e-10)
(0.01099999906 -2.873318624e-10 -2.422549948e-09)
(0.0110000002 -1.782679988e-09 -2.032219477e-09)
(0.01100000279 -5.609755578e-09 -3.410227627e-09)
(0.01100000087 -8.341409313e-09 -3.169884294e-09)
(0.0110000077 -1.762407221e-08 -1.329376673e-08)
(0.01100000902 -1.985939911e-08 -1.870183987e-08)
(0.01100002435 -4.974997391e-08 -4.176510951e-08)
(0.01100005777 -5.435106073e-08 -5.472307041e-08)
(0.01100005236 -9.946527355e-08 -1.009139026e-07)
(0.01099999996 -4.796543681e-10 -2.358385799e-10)
(0.0110000011 -2.120822306e-09 -5.40372123e-10)
(0.01100000009 -4.729164708e-10 2.223736134e-10)
(0.0110000011 -2.110409573e-09 -7.147060606e-11)
(0.01100000017 -2.735631329e-09 -5.552100672e-10)
(0.01100000212 -9.301621449e-10 -1.847608558e-09)
(0.01099999975 -2.452149791e-09 -3.837479941e-09)
(0.01099999997 -6.347400773e-09 -5.068304911e-09)
(0.01099999055 -8.378114251e-09 -7.675384639e-09)
(0.01099999576 -2.028073291e-08 -2.027497356e-08)
(0.01099998019 -1.803216558e-08 -2.821293255e-08)
(0.01099999772 -5.953736403e-08 -8.566289334e-08)
(0.01099998848 -2.189049879e-08 -1.066418301e-07)
(0.01099995894 -8.423808742e-08 -2.92327625e-07)
(0.01100000033 8.798617212e-10 -1.639807736e-09)
(0.01099999929 1.025107989e-09 6.852621474e-12)
(0.01099999957 2.915590999e-10 -7.429478973e-10)
(0.01100000092 -3.442467479e-10 3.420645233e-10)
(0.01099999949 -1.222262997e-09 -1.300676752e-09)
(0.01099999797 -1.284629817e-09 -1.49429652e-09)
(0.01099999455 -2.257908908e-09 -1.794206323e-09)
(0.01099999749 -5.724203797e-09 -6.156630592e-09)
(0.01099998402 -8.943242951e-09 -1.050879322e-08)
(0.01099999435 -2.867910146e-08 -2.742260939e-08)
(0.01099996531 -3.476750738e-08 -3.568234556e-08)
(0.01100003053 -1.41193214e-07 -1.42608883e-07)
(0.01099997007 -1.276416275e-07 -1.273903853e-07)
(0.01100006378 -5.955686539e-07 -5.951791044e-07)
(0.01099978572 -9.680697717e-07 -9.712781596e-07)
(0.0110000019 -1.066472944e-09 -1.673714706e-09)
(0.01099999804 -4.6208995e-10 -1.771120671e-09)
(0.01100000164 -9.656230625e-10 -1.087381419e-09)
(0.01099999916 9.568113429e-10 1.246004913e-09)
(0.01099999694 4.686728924e-10 1.273685631e-10)
(0.01099999784 -1.048760133e-09 -1.311926089e-09)
(0.01099999153 6.498531488e-10 -2.597768421e-09)
(0.01099999187 -5.732219376e-10 -7.423768891e-09)
(0.01099996764 -4.827755447e-10 -1.506174626e-08)
(0.01099996732 1.163854234e-09 -4.9323071e-08)
(0.01099985779 -6.343702061e-10 -6.901697247e-08)
(0.01099991293 -4.471959946e-10 -3.582992625e-07)
(0.01099940028 2.604204566e-09 -4.497166377e-07)
(0.0109996429 -1.934801359e-09 -3.371778953e-06)
(0.01099895456 5.774268138e-11 -4.997438051e-06)
(0.01100000134 -1.047564475e-09 -7.309229994e-10)
(0.01100000035 -1.132583201e-09 -1.133731861e-09)
(0.011 -6.526118646e-10 1.017514402e-09)
(0.01099999879 4.156772275e-12 -8.434365319e-10)
(0.01100000006 6.783375231e-10 -8.600118593e-10)
(0.0109999978 2.075150163e-09 -1.185162329e-09)
(0.01099999681 3.106853817e-09 -2.16036194e-09)
(0.01099999723 7.63112831e-09 -4.82432945e-09)
(0.01099998512 9.546983536e-09 -8.629614772e-09)
(0.01099999542 2.953536899e-08 -2.968629917e-08)
(0.01099996474 3.565769782e-08 -3.644838574e-08)
(0.011000034 1.432647361e-07 -1.433402611e-07)
(0.01099996761 1.270306446e-07 -1.283905732e-07)
(0.01100006468 5.958453962e-07 -5.962419814e-07)
(0.01099978626 9.68813377e-07 -9.724696229e-07)
(0.01100000018 3.866937133e-10 7.632526556e-11)
(0.01100000042 7.902243706e-10 -8.653985553e-10)
(0.01100000082 6.008346154e-10 -1.95511504e-10)
(0.01099999924 -9.323087106e-10 6.256625892e-10)
(0.01099999989 1.575083421e-09 -8.887137967e-10)
(0.01099999787 2.308114851e-09 -1.128672823e-09)
(0.01099999998 1.185436254e-09 -1.301829237e-09)
(0.01099999963 6.267388345e-09 -4.95781471e-09)
(0.01099999119 8.066447376e-09 -6.543160712e-09)
(0.01099999533 2.168558074e-08 -2.055045762e-08)
(0.0109999825 2.071261036e-08 -2.636009394e-08)
(0.01099999758 6.017692445e-08 -8.588162366e-08)
(0.01099998873 2.285495247e-08 -1.048946702e-07)
(0.01099995807 8.711682564e-08 -2.923942799e-07)
(0.011000208 2.393108031e-07 -5.23810932e-07)
(0.01100000017 1.477946874e-09 1.478047314e-10)
(0.01099999844 1.115113277e-09 -3.725764695e-10)
(0.01099999961 5.232757152e-10 1.77843314e-10)
(0.01100000116 1.127049423e-09 -4.183943469e-10)
(0.01100000247 1.61904341e-09 3.395216882e-10)
(0.01100000086 2.507154847e-09 -4.699688726e-11)
(0.01100000205 3.140355816e-09 -1.613692395e-09)
(0.01100000327 6.051445796e-09 -3.835744798e-09)
(0.01100000337 7.525341626e-09 -6.052783402e-09)
(0.01100000593 1.736095722e-08 -1.226734909e-08)
(0.01100000752 2.019372871e-08 -1.732528418e-08)
(0.01100002402 5.109869335e-08 -4.291385769e-08)
(0.01100005802 5.684091681e-08 -5.296791095e-08)
(0.01100005027 1.020990919e-07 -1.000871119e-07)
(0.01100019204 2.150790969e-07 -1.747504132e-07)
(0.01099999879 1.904578106e-10 -2.388971214e-10)
(0.01100000056 -7.156675744e-10 -5.413846007e-10)
(0.01100000009 9.823795584e-10 -9.15116742e-10)
(0.0110000019 1.654718651e-09 1.983827196e-10)
(0.01100000223 1.121649367e-09 -3.741660176e-10)
(0.01099999984 1.894833093e-10 -1.426754751e-09)
(0.01100000284 1.674798135e-09 -1.805648406e-09)
(0.01100000515 1.861130758e-09 -2.514779451e-09)
(0.01100000877 3.305418601e-09 -4.279181649e-09)
(0.01100001073 5.252478559e-09 -8.411311678e-09)
(0.01100001763 4.720242246e-09 -1.329958418e-08)
(0.01100003296 1.252472958e-08 -2.638008702e-08)
(0.01100006522 1.243568033e-08 -3.622477636e-08)
(0.01100006994 1.4173706e-08 -5.286066466e-08)
(0.01100017012 3.932863921e-08 -8.810902835e-08)
(0.01099999984 8.420138474e-10 -8.774393529e-10)
(0.01099999705 2.375348224e-10 1.378941563e-09)
(0.01100000057 1.385863731e-09 -3.611204753e-10)
(0.01100000072 1.412533984e-09 -1.734601325e-09)
(0.01100000035 -4.098912951e-10 -1.574430097e-09)
(0.01100000052 -2.863064562e-10 5.122768904e-10)
(0.01099999966 -2.007300679e-09 9.800600359e-10)
(0.01100000082 -4.513993871e-10 -1.077504736e-09)
(0.01099999994 -2.286581143e-09 -2.375031431e-09)
(0.01100000389 -8.743254199e-09 -4.033536864e-10)
(0.01100000521 -1.00552515e-08 1.085562694e-09)
(0.01100000853 -2.454261548e-08 1.357470086e-09)
(0.01100003435 -2.88143058e-08 1.106192824e-09)
(0.01100002763 -5.81251254e-08 -8.166353858e-10)
(0.01099999951 -4.66412889e-10 -1.323348289e-10)
(0.01099999888 5.199263234e-10 -1.083435336e-09)
(0.01100000161 -4.77998716e-10 -1.092163135e-09)
(0.01099999895 -5.74402918e-10 -1.625005796e-09)
(0.01099999918 -1.718982801e-09 -2.846646875e-09)
(0.01100000025 -2.736281344e-09 -1.239281152e-10)
(0.01100000027 -4.055740008e-09 -3.645054176e-13)
(0.0109999968 -7.595623203e-09 -3.112307003e-10)
(0.01099999404 -1.04060858e-08 3.531347409e-10)
(0.01099999449 -2.456868237e-08 1.012368751e-09)
(0.01099998475 -3.306203204e-08 1.413378174e-09)
(0.01099999035 -9.650953127e-08 7.908147086e-10)
(0.01099998912 -1.172338285e-07 1.237512809e-09)
(0.01099995391 -3.118784403e-07 -5.188082277e-10)
(0.01099999915 -5.997624954e-10 2.32293537e-10)
(0.01100000298 -6.490217613e-10 -1.250747889e-09)
(0.01100000077 -4.605745113e-10 -4.392711661e-11)
(0.01099999927 -8.108219501e-10 -3.188331488e-10)
(0.01099999983 -1.194262273e-09 -3.697853751e-10)
(0.011000001 -9.641621791e-10 -1.602200262e-09)
(0.01099999635 -2.084685156e-09 6.181290921e-10)
(0.01099999445 -8.746884865e-09 1.337650638e-10)
(0.01099997958 -1.402522246e-08 -1.813616098e-09)
(0.01099997765 -3.564637742e-08 -6.867650869e-10)
(0.0109999251 -3.71689949e-08 -5.833743298e-10)
(0.01099992057 -1.483587885e-07 3.16838157e-10)
(0.01099976099 -1.213611346e-07 2.617263796e-09)
(0.01099966735 -5.853022335e-07 1.522922428e-09)
(0.01099999852 8.104104395e-11 -1.295155334e-09)
(0.01100000016 -4.831356554e-10 -1.675923724e-09)
(0.01100000056 2.747131364e-11 -6.824034053e-10)
(0.01099999881 8.517229882e-11 7.809174296e-11)
(0.01099999797 -3.645086335e-10 -2.753694933e-10)
(0.0109999976 9.397697694e-11 -2.659147931e-09)
(0.01099999051 -3.009654564e-09 1.826373895e-10)
(0.01099998918 -9.210248374e-09 -1.536977955e-09)
(0.01099996579 -1.320703936e-08 -9.226173439e-10)
(0.01099996809 -4.788479698e-08 -1.425884417e-09)
(0.01099985991 -6.791028072e-08 -8.884949962e-11)
(0.01099991525 -3.573204327e-07 1.247261557e-09)
(0.01099939999 -4.496541812e-07 1.312797685e-09)
(0.01099964264 -3.37132992e-06 5.549718863e-10)
(0.01099999968 -1.936613595e-10 -2.617225529e-09)
(0.01100000141 -1.917242075e-10 -1.912415079e-09)
(0.01100000291 -8.120657794e-10 3.272604604e-11)