/*--------------------------------*- C++ -*----------------------------------*\
| =========                 |                                                 |
| \\      /  F ield         | OpenFOAM: The Open Source CFD Toolbox           |
|  \\    /   O peration     | Version:  4.x                                   |
|   \\  /    A nd           | Web:      www.OpenFOAM.org                      |
|    \\/     M anipulation  |                                                 |
\*---------------------------------------------------------------------------*/
FoamFile
{
    version     2.0;
    format      ascii;
    class       volScalarField;
    location    "11000";
    object      X_H2O;
}
// * * * * * * * * * * * * * * * * * * * * * * * * * * * * * * * * * * * * * //

dimensions      [0 0 0 0 0 0 0];

internalField   nonuniform List<scalar> 
1175
(
1.547100673e-06
1.547100704e-06
1.547101048e-06
1.547102199e-06
1.547106435e-06
1.54712137e-06
1.547171469e-06
1.547334994e-06
1.547849737e-06
1.549396084e-06
1.553784898e-06
1.565413164e-06
1.593751692e-06
1.656235894e-06
1.778989711e-06
1.547100818e-06
1.547100805e-06
1.547101368e-06
1.547102732e-06
1.547108144e-06
1.54712748e-06
1.547194753e-06
1.547422749e-06
1.548168485e-06
1.55050037e-06
1.55739683e-06
1.576406522e-06
1.624333971e-06
1.732321374e-06
1.944466974e-06
1.547100903e-06
1.547100918e-06
1.547101469e-06
1.547103523e-06
1.547110745e-06
1.547137818e-06
1.547235618e-06
1.547580466e-06
1.548758476e-06
1.5526135e-06
1.56456583e-06
1.599080297e-06
1.689798939e-06
1.900185813e-06
2.314496608e-06
1.547101116e-06
1.5471012e-06
1.547101685e-06
1.54710419e-06
1.547113395e-06
1.547148163e-06
1.547277855e-06
1.547750662e-06
1.549421278e-06
1.555102739e-06
1.573467289e-06
1.628882141e-06
1.780933868e-06
2.145762178e-06
2.869355942e-06
1.547101053e-06
1.547101161e-06
1.547101701e-06
1.547104484e-06
1.547114435e-06
1.547152714e-06
1.547297425e-06
1.54783094e-06
1.549748682e-06
1.5564024e-06
1.578435885e-06
1.646857892e-06
1.840781481e-06
2.320785972e-06
3.284800129e-06
1.547101181e-06
1.547101346e-06
1.547101871e-06
1.547104199e-06
1.547113271e-06
1.547148104e-06
1.547277862e-06
1.547750636e-06
1.549421094e-06
1.555102562e-06
1.573466951e-06
1.628880869e-06
1.780930067e-06
2.145751627e-06
2.869331793e-06
1.547100814e-06
1.547100971e-06
1.547101453e-06
1.54710333e-06
1.547110749e-06
1.547137722e-06
1.547235595e-06
1.547580642e-06
1.548758409e-06
1.552613588e-06
1.564565391e-06
1.599079088e-06
1.689795421e-06
1.900175042e-06
2.314471552e-06
1.547100634e-06
1.547100794e-06
1.547101138e-06
1.547102537e-06
1.547108062e-06
1.547127352e-06
1.547194652e-06
1.547422837e-06
1.548168765e-06
1.550500396e-06
1.557396466e-06
1.576405354e-06
1.624330388e-06
1.732311422e-06
1.944443971e-06
1.547100654e-06
1.547100758e-06
1.547101065e-06
1.547102304e-06
1.547106425e-06
1.547121272e-06
1.547171286e-06
1.547334904e-06
1.547849745e-06
1.549395943e-06
1.553784712e-06
1.565412285e-06
1.593748814e-06
1.656226995e-06
1.778967593e-06
1.547100663e-06
1.547101018e-06
1.547101493e-06
1.54710278e-06
1.547108078e-06
1.547127388e-06
1.547194596e-06
1.547422796e-06
1.548168563e-06
1.550500605e-06
1.557396966e-06
1.576407344e-06
1.624337449e-06
1.732335963e-06
1.547100894e-06
1.547101002e-06
1.547101445e-06
1.547103326e-06
1.54711033e-06
1.547136436e-06
1.547230818e-06
1.547565313e-06
1.548714205e-06
1.552501349e-06
1.564339112e-06
1.598825048e-06
1.69023705e-06
1.903559036e-06
2.324006568e-06
1.547101122e-06
1.547101101e-06
1.547101766e-06
1.547104194e-06
1.547114057e-06
1.547151976e-06
1.547295889e-06
1.54783206e-06
1.549776816e-06
1.556578717e-06
1.579222402e-06
1.649596624e-06
1.84800495e-06
2.333760114e-06
3.301061727e-06
1.547101106e-06
1.54710117e-06
1.547101927e-06
1.547105013e-06
1.547117791e-06
1.547168248e-06
1.547366836e-06
1.548136585e-06
1.551058312e-06
1.561823944e-06
1.599831646e-06
1.725881788e-06
2.106337905e-06
3.097007035e-06
5.118562637e-06
1.547101052e-06
1.547101379e-06
1.547102131e-06
1.547105505e-06
1.547119585e-06
1.547175519e-06
1.547400453e-06
1.54828919e-06
1.551745335e-06
1.564873895e-06
1.613053317e-06
1.780846815e-06
2.318627442e-06
3.815730972e-06
7.011287325e-06
1.547101101e-06
1.547101289e-06
1.547101915e-06
1.547105204e-06
1.54711778e-06
1.547168173e-06
1.547366964e-06
1.548136694e-06
1.551058374e-06
1.561823812e-06
1.599831209e-06
1.725880516e-06
2.106331602e-06
3.096982144e-06
5.118493275e-06
1.54710095e-06
1.547101101e-06
1.547101674e-06
1.547104087e-06
1.547113955e-06
1.5471518e-06
1.547295795e-06
1.547832177e-06
1.549776869e-06
1.556578667e-06
1.579222135e-06
1.64959483e-06
1.847996115e-06
2.333728893e-06
3.300978152e-06
1.547100867e-06
1.547101038e-06
1.547101321e-06
1.547103114e-06
1.547110137e-06
1.547136164e-06
1.547230615e-06
1.54756523e-06
1.548714126e-06
1.552501223e-06
1.564338539e-06
1.598822705e-06
1.690228259e-06
1.903529439e-06
2.323925992e-06
1.547100968e-06
1.547100963e-06
1.547101134e-06
1.547102534e-06
1.547108039e-06
1.547127328e-06
1.547194504e-06
1.547422586e-06
1.54816838e-06
1.550500359e-06
1.557396551e-06
1.576405644e-06
1.624330846e-06
1.732312144e-06
1.944444235e-06
1.547100993e-06
1.547101095e-06
1.547101576e-06
1.547103331e-06
1.547110772e-06
1.547137773e-06
1.547235385e-06
1.547580558e-06
1.548758562e-06
1.552613943e-06
1.564566661e-06
1.599083426e-06
1.689810465e-06
1.900223796e-06
1.547101127e-06
1.547101224e-06
1.547101565e-06
1.547104101e-06
1.547114071e-06
1.54715198e-06
1.547295693e-06
1.54783211e-06
1.54977685e-06
1.556579063e-06
1.579223263e-06
1.649600341e-06
1.848019595e-06
2.333823444e-06
1.547101237e-06
1.547101397e-06
1.547102189e-06
1.547105594e-06
1.547119744e-06
1.547177563e-06
1.54740912e-06
1.548324771e-06
1.551874916e-06
1.565240413e-06
1.613450435e-06
1.776641353e-06
2.278242488e-06
3.602437088e-06
6.315957392e-06
1.547101289e-06
1.547101366e-06
1.547102537e-06
1.547106852e-06
1.547125883e-06
1.547205425e-06
1.547538603e-06
1.548923087e-06
1.55461107e-06
1.577520586e-06
1.666903325e-06
1.998052999e-06
3.123996118e-06
6.418964469e-06
1.36223982e-05
1.547101196e-06
1.547101506e-06
1.54710264e-06
1.547107446e-06
1.547128533e-06
1.54721865e-06
1.54760354e-06
1.549246426e-06
1.556225284e-06
1.585604248e-06
1.707113898e-06
2.193421122e-06
4.022833e-06
1.010075547e-05
2.517115041e-05
1.547101176e-06
1.547101396e-06
1.547102348e-06
1.54710677e-06
1.547125654e-06
1.547205474e-06
1.547538474e-06
1.548923259e-06
1.554611109e-06
1.577520461e-06
1.666901834e-06
1.998045199e-06
3.123958336e-06
6.418809744e-06
1.362192865e-05
1.547101191e-06
1.547101277e-06
1.547102121e-06
1.547105385e-06
1.54711967e-06
1.547177324e-06
1.547408864e-06
1.548324725e-06
1.551874834e-06
1.565240178e-06
1.613449022e-06
1.77663412e-06
2.278207531e-06
3.602292632e-06
6.315499782e-06
1.547100954e-06
1.547101008e-06
1.54710159e-06
1.547104227e-06
1.547113841e-06
1.547151788e-06
1.547295861e-06
1.547832067e-06
1.549776879e-06
1.556578698e-06
1.579222163e-06
1.649594822e-06
1.847996423e-06
2.333727611e-06
3.300970727e-06
1.547101047e-06
1.547101116e-06
1.547101473e-06
1.54710334e-06
1.547110531e-06
1.547137622e-06
1.547235329e-06
1.547580424e-06
1.548758338e-06
1.552613614e-06
1.564565819e-06
1.599079944e-06
1.689797139e-06
1.9001779e-06
2.314472941e-06
1.547101245e-06
1.547101255e-06
1.547101751e-06
1.547104042e-06
1.547113283e-06
1.547148198e-06
1.547278118e-06
1.547750743e-06
1.549421332e-06
1.555103266e-06
1.573468993e-06
1.62888856e-06
1.78095655e-06
2.145835123e-06
1.547101327e-06
1.547101266e-06
1.547101946e-06
1.547105275e-06
1.547117806e-06
1.547168291e-06
1.547366819e-06
1.548136608e-06
1.551058553e-06
1.561824528e-06
1.599834309e-06
1.725893691e-06
2.106386114e-06
3.09718766e-06
1.547101214e-06
1.547101393e-06
1.547102438e-06
1.547106842e-06
1.547125682e-06
1.547205185e-06
1.547538351e-06
1.54892317e-06
1.554611251e-06
1.577521496e-06
1.666906805e-06
1.998070136e-06
3.124081559e-06
6.419393719e-06
1.547101174e-06
1.547101535e-06
1.54710303e-06
1.5471088e-06
1.547134565e-06
1.547247189e-06
1.54774389e-06
1.549935601e-06
1.559605556e-06
1.602038534e-06
1.785535348e-06
2.554628434e-06
5.582271159e-06
1.605940061e-05
4.275108717e-05
1.547101263e-06
1.547101579e-06
1.547102884e-06
1.547109479e-06
1.54713846e-06
1.547267837e-06
1.547852822e-06
1.550524068e-06
1.562861397e-06
1.620487049e-06
1.892008276e-06
3.173193322e-06
9.116050575e-06
3.493661106e-05
0.0001242366168
1.547101055e-06
1.547101432e-06
1.547102877e-06
1.547108652e-06
1.547134277e-06
1.547247303e-06
1.547743852e-06
1.549935546e-06
1.559605378e-06
1.602037688e-06
1.785531341e-06
2.554604693e-06
5.582133701e-06
1.605865972e-05
4.274791843e-05
1.547101027e-06
1.547101392e-06
1.547102344e-06
1.547106759e-06
1.547125819e-06
1.547205221e-06
1.547538316e-06
1.5489231e-06
1.554611124e-06
1.577521064e-06
1.666904102e-06
1.998053111e-06
3.123982353e-06
6.418862424e-06
1.36219782e-05
1.547100964e-06
1.547101141e-06
1.547101956e-06
1.547105136e-06
1.547117557e-06
1.547168037e-06
1.547366507e-06
1.548136158e-06
1.551058471e-06
1.561824428e-06
1.599832721e-06
1.725884644e-06
2.106341679e-06
3.097000022e-06
5.118503061e-06
1.547101155e-06
1.547101073e-06
1.547101667e-06
1.547103966e-06
1.547113194e-06
1.547148032e-06
1.547277882e-06
1.547750565e-06
1.549421197e-06
1.555102882e-06
1.573468044e-06
1.62888356e-06
1.78093601e-06
2.145761476e-06
2.869340432e-06
1.547101295e-06
1.547101399e-06
1.547101879e-06
1.547104369e-06
1.547114459e-06
1.54715285e-06
1.547297469e-06
1.547831251e-06
1.549749054e-06
1.556403351e-06
1.578438885e-06
1.646868589e-06
1.840817996e-06
2.32089842e-06
1.547101248e-06
1.547101597e-06
1.54710218e-06
1.547105642e-06
1.547119407e-06
1.547175723e-06
1.54740054e-06
1.54828959e-06
1.551745897e-06
1.564875362e-06
1.613058851e-06
1.780870378e-06
2.318720768e-06
3.81606475e-06
1.547101206e-06
1.547101403e-06
1.54710261e-06
1.547107244e-06
1.547128249e-06
1.54721847e-06
1.547603587e-06
1.549246417e-06
1.556225692e-06
1.585606556e-06
1.707125728e-06
2.193477795e-06
4.023101269e-06
1.01019627e-05
1.547101351e-06
1.547101565e-06
1.547102974e-06
1.547109554e-06
1.547138523e-06
1.547267971e-06
1.547853052e-06
1.550524189e-06
1.562862056e-06
1.620490093e-06
1.892023659e-06
3.173283134e-06
9.116611342e-06
3.494031094e-05
1.547101298e-06
1.547101558e-06
1.547103198e-06
1.547110364e-06
1.547143183e-06
1.54729292e-06
1.547990169e-06
1.551308002e-06
1.567552501e-06
1.650039231e-06
2.088763179e-06
4.559441661e-06
1.94380687e-05
0.0001158941126
0.00079273233
1.547101283e-06
1.547101564e-06
1.547103029e-06
1.547109551e-06
1.547138418e-06
1.547267802e-06
1.547852857e-06
1.550524027e-06
1.562861598e-06
1.620488507e-06
1.892015074e-06
3.173226713e-06
9.1162055e-06
3.493719444e-05
0.0001242371152
1.547101311e-06
1.547101629e-06
1.547102728e-06
1.54710762e-06
1.547128475e-06
1.547218516e-06
1.547603632e-06
1.549246434e-06
1.55622556e-06
1.585605679e-06
1.70711953e-06
2.193442327e-06
4.022904708e-06
1.010093829e-05
2.517127117e-05
1.547101307e-06
1.54710142e-06
1.547102143e-06
1.547105457e-06
1.547119368e-06
1.547175482e-06
1.547400477e-06
1.548289484e-06
1.551745647e-06
1.564874626e-06
1.613055927e-06
1.780855455e-06
2.318651829e-06
3.815780391e-06
7.011319378e-06
1.547101173e-06
1.547101315e-06
1.54710187e-06
1.547104232e-06
1.54711423e-06
1.547152626e-06
1.54729727e-06
1.547831081e-06
1.549748847e-06
1.556402751e-06
1.578437161e-06
1.646861555e-06
1.840789942e-06
2.320800411e-06
3.284807152e-06
1.547101172e-06
1.547101344e-06
1.547101885e-06
1.547104261e-06
1.547113265e-06
1.547147992e-06
1.547278057e-06
1.547750764e-06
1.549421482e-06
1.555103446e-06
1.573469669e-06
1.628890599e-06
1.780960635e-06
2.145839031e-06
1.547101192e-06
1.547101348e-06
1.547102111e-06
1.547105319e-06
1.547117723e-06
1.547168299e-06
1.547366807e-06
1.548136746e-06
1.551058772e-06
1.561825097e-06
1.599836026e-06
1.725898795e-06
2.106398586e-06
3.097199631e-06
1.547101302e-06
1.547101404e-06
1.547102443e-06
1.547106892e-06
1.547125716e-06
1.547205398e-06
1.547538545e-06
1.548923286e-06
1.554611481e-06
1.577522601e-06
1.666911933e-06
1.998089759e-06
3.124144005e-06
6.419499998e-06
1.547101358e-06
1.547101592e-06
1.547102945e-06
1.547108745e-06
1.547134274e-06
1.547247196e-06
1.547743878e-06
1.549935796e-06
1.55960597e-06
1.602040592e-06
1.78554636e-06
2.554682287e-06
5.582526548e-06
1.606050736e-05
1.547101588e-06
1.547101659e-06
1.547102991e-06
1.547109337e-06
1.547138347e-06
1.547267853e-06
1.54785293e-06
1.550524157e-06
1.562862111e-06
1.620490873e-06
1.892028262e-06
3.173306076e-06
9.116717166e-06
3.494066647e-05
1.547101305e-06
1.547101478e-06
1.547102759e-06
1.547108591e-06
1.547134527e-06
1.547247226e-06
1.547743743e-06
1.549935713e-06
1.55960581e-06
1.602039931e-06
1.785542739e-06
2.554661941e-06
5.582425603e-06
1.606013259e-05
1.547101174e-06
1.547101384e-06
1.547102538e-06
1.547106938e-06
1.54712591e-06
1.547205575e-06
1.547538432e-06
1.548923107e-06
1.554611249e-06
1.57752214e-06
1.666909034e-06
1.998074088e-06
3.124067526e-06
6.419175097e-06
1.362299426e-05
1.547101081e-06
1.547101139e-06
1.547102004e-06
1.547105124e-06
1.54711788e-06
1.547168023e-06
1.54736659e-06
1.54813636e-06
1.551058465e-06
1.561824697e-06
1.599833995e-06
1.725890136e-06
2.106361583e-06
3.097061821e-06
5.118648147e-06
1.547101091e-06
1.54710109e-06
1.547101734e-06
1.547104047e-06
1.547113114e-06
1.54714791e-06
1.547277885e-06
1.547750566e-06
1.549421301e-06
1.555103106e-06
1.573468496e-06
1.62888555e-06
1.780941827e-06
2.145776515e-06
2.869368054e-06
1.547101093e-06
1.547101242e-06
1.547101585e-06
1.547103574e-06
1.547110938e-06
1.547137758e-06
1.547235605e-06
1.547580604e-06
1.54875846e-06
1.552614158e-06
1.56456743e-06
1.599085606e-06
1.689814519e-06
1.900226568e-06
1.547101337e-06
1.547101363e-06
1.547101981e-06
1.54710416e-06
1.547114046e-06
1.547151958e-06
1.547295946e-06
1.547832316e-06
1.549777134e-06
1.556579463e-06
1.579225372e-06
1.649606547e-06
1.848034819e-06
2.333841432e-06
1.54710106e-06
1.547101314e-06
1.54710195e-06
1.547105415e-06
1.547119783e-06
1.547177406e-06
1.547409168e-06
1.548325091e-06
1.551875385e-06
1.565242005e-06
1.613456083e-06
1.776660833e-06
2.27830313e-06
3.602597275e-06
1.547101271e-06
1.547101503e-06
1.547102421e-06
1.547106976e-06
1.547125759e-06
1.547205204e-06
1.547538472e-06
1.54892337e-06
1.554611834e-06
1.577523079e-06
1.666913538e-06
1.998094411e-06
3.124154009e-06
6.419503404e-06
1.547101279e-06
1.547101457e-06
1.547102479e-06
1.547107496e-06
1.547128419e-06
1.547218582e-06
1.547603657e-06
1.549246393e-06
1.556225981e-06
1.585607259e-06
1.707128079e-06
2.193485751e-06
4.023118717e-06
1.010192449e-05
1.547101322e-06
1.547101505e-06
1.547102431e-06
1.547107003e-06
1.547125868e-06
1.547205465e-06
1.547538548e-06
1.548923466e-06
1.554611768e-06
1.577522934e-06
1.66691168e-06
1.998087102e-06
3.124125435e-06
6.419417951e-06
1.547101109e-06
1.547101312e-06
1.547102038e-06
1.547105547e-06
1.547119798e-06
1.54717763e-06
1.547409029e-06
1.548325019e-06
1.551875101e-06
1.565241476e-06
1.613454221e-06
1.776653255e-06
2.278278771e-06
3.602548893e-06
1.547100939e-06
1.547101111e-06
1.547101684e-06
1.547104265e-06
1.547114096e-06
1.547151727e-06
1.547295937e-06
1.547832084e-06
1.549776911e-06
1.556579326e-06
1.579223996e-06
1.649601458e-06
1.848018273e-06
2.333792012e-06
3.301137162e-06
1.547100816e-06
1.547100846e-06
1.547101323e-06
1.547103318e-06
1.547110644e-06
1.547137765e-06
1.547235494e-06
1.547580536e-06
1.548758563e-06
1.552613982e-06
1.564566918e-06
1.59908298e-06
1.689805663e-06
1.90019842e-06
2.314513119e-06
1.547101156e-06
1.547101048e-06
1.547101402e-06
1.547102942e-06
1.547108317e-06
1.547127563e-06
1.547194744e-06
1.547422777e-06
1.548168624e-06
1.550500794e-06
1.557397904e-06
1.576409356e-06
1.62434138e-06
1.732339259e-06
1.547101052e-06
1.547101278e-06
1.547101578e-06
1.547103334e-06
1.547110432e-06
1.54713632e-06
1.547230655e-06
1.547565343e-06
1.54871443e-06
1.552501892e-06
1.56434058e-06
1.598829575e-06
1.690248391e-06
1.903583043e-06
1.547101075e-06
1.547101287e-06
1.547101593e-06
1.547104281e-06
1.547114109e-06
1.547152014e-06
1.54729589e-06
1.547832124e-06
1.549777134e-06
1.556579724e-06
1.579225775e-06
1.64960727e-06
1.848036307e-06
2.333842071e-06
1.547101083e-06
1.547101035e-06
1.547101792e-06
1.54710496e-06
1.547117756e-06
1.547168218e-06
1.547366632e-06
1.54813656e-06
1.551058699e-06
1.561825704e-06
1.599837537e-06
1.725902782e-06
2.106406886e-06
3.097207272e-06
1.547101092e-06
1.547101138e-06
1.547101939e-06
1.547105303e-06
1.547119392e-06
1.547175631e-06
1.547400404e-06
1.548289502e-06
1.551746018e-06
1.564876068e-06
1.613060978e-06
1.780875579e-06
2.318729875e-06
3.81605593e-06
1.547101073e-06
1.547101137e-06
1.547101984e-06
1.547105118e-06
1.547117629e-06
1.54716817e-06
1.547366825e-06
1.548136751e-06
1.551058873e-06
1.561825403e-06
1.599836733e-06
1.725900195e-06
2.106397471e-06
3.097181037e-06
1.547100839e-06
1.547101071e-06
1.54710173e-06
1.547104078e-06
1.547113865e-06
1.547151638e-06
1.547295613e-06
1.547832224e-06
1.549776959e-06
1.556579476e-06
1.579225054e-06
1.649604669e-06
1.84802848e-06
2.333826424e-06
1.54710093e-06
1.547101054e-06
1.547101478e-06
1.547103302e-06
1.547110289e-06
1.547136178e-06
1.547230695e-06
1.547565489e-06
1.548714377e-06
1.552501846e-06
1.564340164e-06
1.598827463e-06
1.690243167e-06
1.903575619e-06
1.547100766e-06
1.547100969e-06
1.547101333e-06
1.547102684e-06
1.547108202e-06
1.547127367e-06
1.547194654e-06
1.547422955e-06
1.548168581e-06
1.550500659e-06
1.557397461e-06
1.576408229e-06
1.624337797e-06
1.732329946e-06
1.944484335e-06
1.547100898e-06
1.547101065e-06
1.547101266e-06
1.54710238e-06
1.547106726e-06
1.547121561e-06
1.547171509e-06
1.547335175e-06
1.547850044e-06
1.549396363e-06
1.553785529e-06
1.565414826e-06
1.593755293e-06
1.65624313e-06
1.547101017e-06
1.54710126e-06
1.547101598e-06
1.547103059e-06
1.547108329e-06
1.547127498e-06
1.547194537e-06
1.547422856e-06
1.548168887e-06
1.550500896e-06
1.557397979e-06
1.576409532e-06
1.624341738e-06
1.732339661e-06
1.54710084e-06
1.547101181e-06
1.547101566e-06
1.547103584e-06
1.547110833e-06
1.547137848e-06
1.547235707e-06
1.547580683e-06
1.548758585e-06
1.552614232e-06
1.564567962e-06
1.599086413e-06
1.689816114e-06
1.900228989e-06
1.547100866e-06
1.547101104e-06
1.547101654e-06
1.547104072e-06
1.547113201e-06
1.547148102e-06
1.547278026e-06
1.547750591e-06
1.549421396e-06
1.555103683e-06
1.57347054e-06
1.62889261e-06
1.780964744e-06
2.145843551e-06
1.547100946e-06
1.547101071e-06
1.547101783e-06
1.547104381e-06
1.547114376e-06
1.547152594e-06
1.547297309e-06
1.54783115e-06
1.549748951e-06
1.556403571e-06
1.578439925e-06
1.64687126e-06
1.84082216e-06
2.320897061e-06
1.547101096e-06
1.547101187e-06
1.547101785e-06
1.547104126e-06
1.547113201e-06
1.547148115e-06
1.54727799e-06
1.547750862e-06
1.54942146e-06
1.555103634e-06
1.573470307e-06
1.62889177e-06
1.780961938e-06
2.145835421e-06
1.547101009e-06
1.547101037e-06
1.547101415e-06
1.54710337e-06
1.547110675e-06
1.547137512e-06
1.547235423e-06
1.547580563e-06
1.548758436e-06
1.552614127e-06
1.564567589e-06
1.599085337e-06
1.68981335e-06
1.900222646e-06
1.547100966e-06
1.547100999e-06
1.547101443e-06
1.54710289e-06
1.547108153e-06
1.547127331e-06
1.547194604e-06
1.547422799e-06
1.548168633e-06
1.550500614e-06
1.557397496e-06
1.576408561e-06
1.624339528e-06
1.732336001e-06
1.547100711e-06
1.547100767e-06
1.547101185e-06
1.547102431e-06
1.547106517e-06
1.54712138e-06
1.547171384e-06
1.547334979e-06
1.547849815e-06
1.549396419e-06
1.553785528e-06
1.565414313e-06
1.593754047e-06
1.656242155e-06
)
;

boundaryField
{
    top
    {
        type            calculated;
        value           nonuniform List<scalar> 
134
(
1.547100654e-06
1.547100968e-06
1.547101047e-06
1.547101155e-06
1.547101173e-06
1.547101091e-06
1.547100816e-06
1.547100766e-06
1.547100711e-06
1.547100758e-06
1.547100963e-06
1.547101116e-06
1.547101073e-06
1.547101315e-06
1.54710109e-06
1.547100846e-06
1.547100969e-06
1.547100767e-06
1.547101065e-06
1.547101134e-06
1.547101473e-06
1.547101667e-06
1.54710187e-06
1.547101734e-06
1.547101323e-06
1.547101333e-06
1.547101185e-06
1.547102304e-06
1.547102534e-06
1.54710334e-06
1.547103966e-06
1.547104232e-06
1.547104047e-06
1.547103318e-06
1.547102684e-06
1.547102431e-06
1.547106425e-06
1.547108039e-06
1.547110531e-06
1.547113194e-06
1.54711423e-06
1.547113114e-06
1.547110644e-06
1.547108202e-06
1.547106517e-06
1.547121272e-06
1.547127328e-06
1.547137622e-06
1.547148032e-06
1.547152626e-06
1.54714791e-06
1.547137765e-06
1.547127367e-06
1.54712138e-06
1.547171286e-06
1.547194504e-06
1.547235329e-06
1.547277882e-06
1.54729727e-06
1.547277885e-06
1.547235494e-06
1.547194654e-06
1.547171384e-06
1.547334904e-06
1.547422586e-06
1.547580424e-06
1.547750565e-06
1.547831081e-06
1.547750566e-06
1.547580536e-06
1.547422955e-06
1.547334979e-06
1.547849745e-06
1.54816838e-06
1.548758338e-06
1.549421197e-06
1.549748847e-06
1.549421301e-06
1.548758563e-06
1.548168581e-06
1.547849815e-06
1.549395943e-06
1.550500359e-06
1.552613614e-06
1.555102882e-06
1.556402751e-06
1.555103106e-06
1.552613982e-06
1.550500659e-06
1.549396419e-06
1.553784712e-06
1.557396551e-06
1.564565819e-06
1.573468044e-06
1.578437161e-06
1.573468496e-06
1.564566918e-06
1.557397461e-06
1.553785528e-06
1.565412285e-06
1.576405644e-06
1.599079944e-06
1.62888356e-06
1.646861555e-06
1.62888555e-06
1.59908298e-06
1.576408229e-06
1.565414313e-06
1.593748814e-06
1.624330846e-06
1.689797139e-06
1.78093601e-06
1.840789942e-06
1.780941827e-06
1.689805663e-06
1.624337797e-06
1.593754047e-06
1.656226995e-06
1.732312144e-06
1.9001779e-06
2.145761476e-06
2.320800411e-06
2.145776515e-06
1.90019842e-06
1.732329946e-06
1.656242155e-06
1.778967593e-06
1.944444235e-06
2.314472941e-06
2.869340432e-06
3.284807152e-06
2.869368054e-06
2.314513119e-06
1.944484335e-06
)
;
    }
    bottom
    {
        type            calculated;
        value           nonuniform List<scalar> 
127
(
1.547100673e-06
1.547100663e-06
1.547100993e-06
1.547101245e-06
1.547101295e-06
1.547101172e-06
1.547101093e-06
1.547101156e-06
1.547100898e-06
1.547100704e-06
1.547101018e-06
1.547101095e-06
1.547101255e-06
1.547101399e-06
1.547101344e-06
1.547101242e-06
1.547101048e-06
1.547101065e-06
1.547101048e-06
1.547101493e-06
1.547101576e-06
1.547101751e-06
1.547101879e-06
1.547101885e-06
1.547101585e-06
1.547101402e-06
1.547101266e-06
1.547102199e-06
1.54710278e-06
1.547103331e-06
1.547104042e-06
1.547104369e-06
1.547104261e-06
1.547103574e-06
1.547102942e-06
1.54710238e-06
1.547106435e-06
1.547108078e-06
1.547110772e-06
1.547113283e-06
1.547114459e-06
1.547113265e-06
1.547110938e-06
1.547108317e-06
1.547106726e-06
1.54712137e-06
1.547127388e-06
1.547137773e-06
1.547148198e-06
1.54715285e-06
1.547147992e-06
1.547137758e-06
1.547127563e-06
1.547121561e-06
1.547171469e-06
1.547194596e-06
1.547235385e-06
1.547278118e-06
1.547297469e-06
1.547278057e-06
1.547235605e-06
1.547194744e-06
1.547171509e-06
1.547334994e-06
1.547422796e-06
1.547580558e-06
1.547750743e-06
1.547831251e-06
1.547750764e-06
1.547580604e-06
1.547422777e-06
1.547335175e-06
1.547849737e-06
1.548168563e-06
1.548758562e-06
1.549421332e-06
1.549749054e-06
1.549421482e-06
1.54875846e-06
1.548168624e-06
1.547850044e-06
1.549396084e-06
1.550500605e-06
1.552613943e-06
1.555103266e-06
1.556403351e-06
1.555103446e-06
1.552614158e-06
1.550500794e-06
1.549396363e-06
1.553784898e-06
1.557396966e-06
1.564566661e-06
1.573468993e-06
1.578438885e-06
1.573469669e-06
1.56456743e-06
1.557397904e-06
1.553785529e-06
1.565413164e-06
1.576407344e-06
1.599083426e-06
1.62888856e-06
1.646868589e-06
1.628890599e-06
1.599085606e-06
1.576409356e-06
1.565414826e-06
1.593751692e-06
1.624337449e-06
1.689810465e-06
1.78095655e-06
1.840817996e-06
1.780960635e-06
1.689814519e-06
1.62434138e-06
1.593755293e-06
1.656235894e-06
1.732335963e-06
1.900223796e-06
2.145835123e-06
2.32089842e-06
2.145839031e-06
1.900226568e-06
1.732339259e-06
1.65624313e-06
1.778989711e-06
)
;
    }
    side-walls
    {
        type            calculated;
        value           nonuniform List<scalar> 
261
(
1.547100673e-06
1.547100818e-06
1.547100903e-06
1.547101116e-06
1.547101053e-06
1.547101181e-06
1.547100814e-06
1.547100634e-06
1.547100654e-06
1.547100704e-06
1.547100805e-06
1.547100918e-06
1.5471012e-06
1.547101161e-06
1.547101346e-06
1.547100971e-06
1.547100794e-06
1.547100758e-06
1.547101048e-06
1.547101368e-06
1.547101469e-06
1.547101685e-06
1.547101701e-06
1.547101871e-06
1.547101453e-06
1.547101138e-06
1.547101065e-06
1.547102199e-06
1.547102732e-06
1.547103523e-06
1.54710419e-06
1.547104484e-06
1.547104199e-06
1.54710333e-06
1.547102537e-06
1.547102304e-06
1.547106435e-06
1.547108144e-06
1.547110745e-06
1.547113395e-06
1.547114435e-06
1.547113271e-06
1.547110749e-06
1.547108062e-06
1.547106425e-06
1.54712137e-06
1.54712748e-06
1.547137818e-06
1.547148163e-06
1.547152714e-06
1.547148104e-06
1.547137722e-06
1.547127352e-06
1.547121272e-06
1.547171469e-06
1.547194753e-06
1.547235618e-06
1.547277855e-06
1.547297425e-06
1.547277862e-06
1.547235595e-06
1.547194652e-06
1.547171286e-06
1.547334994e-06
1.547422749e-06
1.547580466e-06
1.547750662e-06
1.54783094e-06
1.547750636e-06
1.547580642e-06
1.547422837e-06
1.547334904e-06
1.547849737e-06
1.548168485e-06
1.548758476e-06
1.549421278e-06
1.549748682e-06
1.549421094e-06
1.548758409e-06
1.548168765e-06
1.547849745e-06
1.549396084e-06
1.55050037e-06
1.5526135e-06
1.555102739e-06
1.5564024e-06
1.555102562e-06
1.552613588e-06
1.550500396e-06
1.549395943e-06
1.553784898e-06
1.55739683e-06
1.56456583e-06
1.573467289e-06
1.578435885e-06
1.573466951e-06
1.564565391e-06
1.557396466e-06
1.553784712e-06
1.565413164e-06
1.576406522e-06
1.599080297e-06
1.628882141e-06
1.646857892e-06
1.628880869e-06
1.599079088e-06
1.576405354e-06
1.565412285e-06
1.593751692e-06
1.624333971e-06
1.689798939e-06
1.780933868e-06
1.840781481e-06
1.780930067e-06
1.689795421e-06
1.624330388e-06
1.593748814e-06
1.656235894e-06
1.732321374e-06
1.900185813e-06
2.145762178e-06
2.320785972e-06
2.145751627e-06
1.900175042e-06
1.732311422e-06
1.656226995e-06
1.778989711e-06
1.944466974e-06
2.314496608e-06
2.869355942e-06
3.284800129e-06
2.869331793e-06
2.314471552e-06
1.944443971e-06
1.778967593e-06
1.547100898e-06
1.547101017e-06
1.54710084e-06
1.547100866e-06
1.547100946e-06
1.547101096e-06
1.547101009e-06
1.547100966e-06
1.547100711e-06
1.547101065e-06
1.54710126e-06
1.547101181e-06
1.547101104e-06
1.547101071e-06
1.547101187e-06
1.547101037e-06
1.547100999e-06
1.547100767e-06
1.547101266e-06
1.547101598e-06
1.547101566e-06
1.547101654e-06
1.547101783e-06
1.547101785e-06
1.547101415e-06
1.547101443e-06
1.547101185e-06
1.54710238e-06
1.547103059e-06
1.547103584e-06
1.547104072e-06
1.547104381e-06
1.547104126e-06
1.54710337e-06
1.54710289e-06
1.547102431e-06
1.547106726e-06
1.547108329e-06
1.547110833e-06
1.547113201e-06
1.547114376e-06
1.547113201e-06
1.547110675e-06
1.547108153e-06
1.547106517e-06
1.547121561e-06
1.547127498e-06
1.547137848e-06
1.547148102e-06
1.547152594e-06
1.547148115e-06
1.547137512e-06
1.547127331e-06
1.54712138e-06
1.547171509e-06
1.547194537e-06
1.547235707e-06
1.547278026e-06
1.547297309e-06
1.54727799e-06
1.547235423e-06
1.547194604e-06
1.547171384e-06
1.547335175e-06
1.547422856e-06
1.547580683e-06
1.547750591e-06
1.54783115e-06
1.547750862e-06
1.547580563e-06
1.547422799e-06
1.547334979e-06
1.547850044e-06
1.548168887e-06
1.548758585e-06
1.549421396e-06
1.549748951e-06
1.54942146e-06
1.548758436e-06
1.548168633e-06
1.547849815e-06
1.549396363e-06
1.550500896e-06
1.552614232e-06
1.555103683e-06
1.556403571e-06
1.555103634e-06
1.552614127e-06
1.550500614e-06
1.549396419e-06
1.553785529e-06
1.557397979e-06
1.564567962e-06
1.57347054e-06
1.578439925e-06
1.573470307e-06
1.564567589e-06
1.557397496e-06
1.553785528e-06
1.565414826e-06
1.576409532e-06
1.599086413e-06
1.62889261e-06
1.64687126e-06
1.62889177e-06
1.599085337e-06
1.576408561e-06
1.565414313e-06
1.593755293e-06
1.624341738e-06
1.689816114e-06
1.780964744e-06
1.84082216e-06
1.780961938e-06
1.68981335e-06
1.624339528e-06
1.593754047e-06
1.65624313e-06
1.732339661e-06
1.900228989e-06
2.145843551e-06
2.320897061e-06
2.145835421e-06
1.900222646e-06
1.732336001e-06
1.656242155e-06
)
;
    }
    inlet
    {
        type            calculated;
        value           nonuniform List<scalar> 
81
(
1.547100673e-06
1.547100818e-06
1.547100903e-06
1.547101116e-06
1.547101053e-06
1.547101181e-06
1.547100814e-06
1.547100634e-06
1.547100654e-06
1.547100663e-06
1.547100894e-06
1.547101122e-06
1.547101106e-06
1.547101052e-06
1.547101101e-06
1.54710095e-06
1.547100867e-06
1.547100968e-06
1.547100993e-06
1.547101127e-06
1.547101237e-06
1.547101289e-06
1.547101196e-06
1.547101176e-06
1.547101191e-06
1.547100954e-06
1.547101047e-06
1.547101245e-06
1.547101327e-06
1.547101214e-06
1.547101174e-06
1.547101263e-06
1.547101055e-06
1.547101027e-06
1.547100964e-06
1.547101155e-06
1.547101295e-06
1.547101248e-06
1.547101206e-06
1.547101351e-06
1.547101298e-06
1.547101283e-06
1.547101311e-06
1.547101307e-06
1.547101173e-06
1.547101172e-06
1.547101192e-06
1.547101302e-06
1.547101358e-06
1.547101588e-06
1.547101305e-06
1.547101174e-06
1.547101081e-06
1.547101091e-06
1.547101093e-06
1.547101337e-06
1.54710106e-06
1.547101271e-06
1.547101279e-06
1.547101322e-06
1.547101109e-06
1.547100939e-06
1.547100816e-06
1.547101156e-06
1.547101052e-06
1.547101075e-06
1.547101083e-06
1.547101092e-06
1.547101073e-06
1.547100839e-06
1.54710093e-06
1.547100766e-06
1.547100898e-06
1.547101017e-06
1.54710084e-06
1.547100866e-06
1.547100946e-06
1.547101096e-06
1.547101009e-06
1.547100966e-06
1.547100711e-06
)
;
    }
    outlet
    {
        type            calculated;
        value           nonuniform 0();
    }
    procBoundary0to1
    {
        type            processor;
        value           nonuniform List<scalar> 
97
(
1.992286418e-06
1.944484837e-06
2.302673424e-06
2.987462298e-06
3.989264214e-06
4.703186063e-06
3.989231454e-06
2.987430281e-06
2.302646607e-06
1.992268241e-06
1.944484837e-06