/*--------------------------------*- C++ -*----------------------------------*\
| =========                 |                                                 |
| \\      /  F ield         | OpenFOAM: The Open Source CFD Toolbox           |
|  \\    /   O peration     | Version:  4.x                                   |
|   \\  /    A nd           | Web:      www.OpenFOAM.org                      |
|    \\/     M anipulation  |                                                 |
\*---------------------------------------------------------------------------*/
FoamFile
{
    version     2.0;
    format      ascii;
    class       volScalarField;
    location    "8000";
    object      CO;
}
// * * * * * * * * * * * * * * * * * * * * * * * * * * * * * * * * * * * * * //

dimensions      [0 0 0 0 0 0 0];

internalField   nonuniform List<scalar> 
1175
(
0.3101816123
0.3101816123
0.3101816123
0.3101816123
0.3101816123
0.3101816123
0.3101816121
0.3101816114
0.3101816095
0.3101816037
0.3101815875
0.3101815452
0.3101814436
0.3101812224
0.3101807931
0.3101816123
0.3101816123
0.3101816123
0.3101816123
0.3101816123
0.3101816122
0.310181612
0.3101816111
0.3101816083
0.3101815997
0.3101815746
0.3101815065
0.3101813373
0.3101809611
0.3101802311
0.3101816123
0.3101816123
0.3101816123
0.3101816123
0.3101816123
0.3101816122
0.3101816118
0.3101816105
0.3101816062
0.3101815921
0.3101815493
0.3101814274
0.3101811119
0.3101803903
0.3101789869
0.3101816123
0.3101816123
0.3101816123
0.3101816123
0.3101816123
0.3101816122
0.3101816117
0.3101816099
0.3101816038
0.3101815833
0.3101815181
0.3101813247
0.3101808019
0.3101795656
0.3101771451
0.3101816123
0.3101816123
0.3101816123
0.3101816123
0.3101816123
0.3101816121
0.3101816116
0.3101816096
0.3101816026
0.3101815787
0.3101815009
0.3101812635
0.3101806011
0.3101789863
0.3101757862
0.3101816123
0.3101816123
0.3101816123
0.3101816123
0.3101816123
0.3101816122
0.3101816117
0.3101816099
0.3101816038
0.3101815833
0.3101815181
0.3101813247
0.3101808019
0.3101795656
0.3101771451
0.3101816123
0.3101816123
0.3101816123
0.3101816123
0.3101816123
0.3101816122
0.3101816118
0.3101816105
0.3101816062
0.3101815921
0.3101815493
0.3101814274
0.3101811119
0.3101803903
0.310178987
0.3101816123
0.3101816123
0.3101816123
0.3101816123
0.3101816123
0.3101816122
0.310181612
0.3101816111
0.3101816083
0.3101815997
0.3101815746
0.3101815065
0.3101813373
0.3101809611
0.3101802311
0.3101816123
0.3101816123
0.3101816123
0.3101816123
0.3101816123
0.3101816123
0.3101816121
0.3101816114
0.3101816095
0.3101816037
0.3101815875
0.3101815452
0.3101814436
0.3101812224
0.3101807931
0.3101816123
0.3101816123
0.3101816123
0.3101816123
0.3101816123
0.3101816122
0.310181612
0.3101816111
0.3101816083
0.3101815997
0.3101815746
0.3101815065
0.3101813373
0.3101809611
0.3101816123
0.3101816123
0.3101816123
0.3101816123
0.3101816123
0.3101816122
0.3101816118
0.3101816106
0.3101816063
0.3101815926
0.3101815502
0.3101814287
0.3101811115
0.3101803816
0.310178961
0.3101816123
0.3101816123
0.3101816123
0.3101816123
0.3101816123
0.3101816121
0.3101816116
0.3101816096
0.3101816025
0.3101815781
0.3101814984
0.3101812544
0.3101805769
0.3101789421
0.3101757287
0.3101816123
0.3101816123
0.3101816123
0.3101816123
0.3101816123
0.3101816121
0.3101816113
0.3101816085
0.310181598
0.3101815598
0.3101814275
0.3101809958
0.3101797133
0.3101764231
0.3101697999
0.3101816123
0.3101816123
0.3101816123
0.3101816123
0.3101816123
0.3101816121
0.3101816112
0.310181608
0.3101815956
0.3101815493
0.3101813826
0.3101808121
0.3101790142
0.3101740876
0.3101637217
0.3101816123
0.3101816123
0.3101816123
0.3101816123
0.3101816123
0.3101816121
0.3101816113
0.3101816085
0.310181598
0.3101815598
0.3101814275
0.3101809958
0.3101797133
0.3101764232
0.3101698001
0.3101816123
0.3101816123
0.3101816123
0.3101816123
0.3101816123
0.3101816121
0.3101816116
0.3101816096
0.3101816025
0.3101815781
0.3101814984
0.3101812544
0.310180577
0.3101789421
0.3101757289
0.3101816123
0.3101816123
0.3101816123
0.3101816123
0.3101816123
0.3101816122
0.3101816118
0.3101816106
0.3101816063
0.3101815926
0.3101815502
0.3101814287
0.3101811116
0.3101803817
0.3101789612
0.3101816123
0.3101816123
0.3101816123
0.3101816123
0.3101816123
0.3101816122
0.310181612
0.3101816111
0.3101816083
0.3101815997
0.3101815746
0.3101815065
0.3101813373
0.3101809611
0.3101802311
0.3101816123
0.3101816123
0.3101816123
0.3101816123
0.3101816123
0.3101816122
0.3101816118
0.3101816105
0.3101816062
0.3101815921
0.3101815493
0.3101814274
0.3101811119
0.3101803902
0.3101816123
0.3101816123
0.3101816123
0.3101816123
0.3101816123
0.3101816121
0.3101816116
0.3101816096
0.3101816025
0.3101815781
0.3101814984
0.3101812544
0.3101805769
0.310178942
0.3101816123
0.3101816123
0.3101816123
0.3101816123
0.3101816123
0.3101816121
0.3101816112
0.3101816078
0.3101815951
0.3101815479
0.3101813808
0.3101808241
0.3101791393
0.3101747564
0.3101658961
0.3101816123
0.3101816123
0.3101816123
0.3101816123
0.3101816122
0.3101816119
0.3101816107
0.3101816057
0.3101815855
0.3101815057
0.3101811996
0.3101800845
0.310176353
0.3101655963
0.3101424104
0.3101816123
0.3101816123
0.3101816123
0.3101816123
0.3101816122
0.3101816119
0.3101816105
0.3101816046
0.3101815799
0.3101814782
0.3101810653
0.3101794418
0.3101734373
0.3101538056
0.3101058478
0.3101816123
0.3101816123
0.3101816123
0.3101816123
0.3101816122
0.3101816119
0.3101816107
0.3101816057
0.3101815855
0.3101815057
0.3101811996
0.3101800845
0.3101763531
0.3101655967
0.3101424113
0.3101816123
0.3101816123
0.3101816123
0.3101816123
0.3101816123
0.3101816121
0.3101816112
0.3101816078
0.3101815951
0.3101815479
0.3101813808
0.3101808241
0.3101791394
0.3101747567
0.310165897
0.3101816123
0.3101816123
0.3101816123
0.3101816123
0.3101816123
0.3101816121
0.3101816116
0.3101816096
0.3101816025
0.3101815781
0.3101814984
0.3101812544
0.310180577
0.3101789421
0.3101757289
0.3101816123
0.3101816123
0.3101816123
0.3101816123
0.3101816123
0.3101816122
0.3101816118
0.3101816105
0.3101816062
0.3101815921
0.3101815493
0.3101814274
0.3101811119
0.3101803903
0.310178987
0.3101816123
0.3101816123
0.3101816123
0.3101816123
0.3101816123
0.3101816122
0.3101816117
0.3101816099
0.3101816038
0.3101815833
0.3101815181
0.3101813247
0.3101808019
0.3101795655
0.3101816123
0.3101816123
0.3101816123
0.3101816123
0.3101816123
0.3101816121
0.3101816113
0.3101816085
0.310181598
0.3101815598
0.3101814275
0.3101809957
0.3101797132
0.3101764229
0.3101816123
0.3101816123
0.3101816123
0.3101816123
0.3101816122
0.3101816119
0.3101816107
0.3101816057
0.3101815855
0.3101815057
0.3101811996
0.3101800844
0.3101763528
0.3101655956
0.3101816123
0.3101816123
0.3101816123
0.3101816123
0.3101816122
0.3101816118
0.31018161
0.3101816021
0.3101815682
0.3101814223
0.3101808023
0.3101782484
0.3101683563
0.3101346434
0.3100499942
0.3101816123
0.3101816123
0.3101816123
0.3101816123
0.3101816122
0.3101816117
0.3101816096
0.3101816001
0.3101815571
0.3101813605
0.3101804515
0.3101762404
0.3101570406
0.3100749415
0.3097951676
0.3101816123
0.3101816123
0.3101816123
0.3101816123
0.3101816122
0.3101816118
0.31018161
0.3101816021
0.3101815682
0.3101814223
0.3101808023
0.3101782485
0.3101683567
0.3101346449
0.3100499995
0.3101816123
0.3101816123
0.3101816123
0.3101816123
0.3101816122
0.3101816119
0.3101816107
0.3101816057
0.3101815855
0.3101815057
0.3101811996
0.3101800845
0.3101763531
0.3101655966
0.3101424113
0.3101816123
0.3101816123
0.3101816123
0.3101816123
0.3101816123
0.3101816121
0.3101816113
0.3101816085
0.310181598
0.3101815598
0.3101814275
0.3101809958
0.3101797133
0.3101764232
0.3101698001
0.3101816123
0.3101816123
0.3101816123
0.3101816123
0.3101816123
0.3101816122
0.3101816117
0.3101816099
0.3101816038
0.3101815833
0.3101815181
0.3101813247
0.3101808019
0.3101795656
0.3101771451
0.3101816123
0.3101816123
0.3101816123
0.3101816123
0.3101816123
0.3101816121
0.3101816116
0.3101816096
0.3101816026
0.3101815787
0.3101815009
0.3101812634
0.3101806011
0.3101789861
0.3101816123
0.3101816123
0.3101816123
0.3101816123
0.3101816123
0.3101816121
0.3101816112
0.310181608
0.3101815956
0.3101815493
0.3101813826
0.3101808121
0.310179014
0.3101740873
0.3101816123
0.3101816123
0.3101816123
0.3101816123
0.3101816122
0.3101816119
0.3101816105
0.3101816046
0.3101815799
0.3101814782
0.3101810653
0.3101794417
0.310173437
0.3101538043
0.3101816123
0.3101816123
0.3101816123
0.3101816123
0.3101816122
0.3101816117
0.3101816096
0.3101816001
0.3101815571
0.3101813605
0.3101804515
0.3101762403
0.3101570399
0.3100749369
0.3101816123
0.3101816123
0.3101816123
0.3101816123
0.3101816122
0.3101816116
0.3101816091
0.3101815974
0.3101815413
0.3101812624
0.3101798098
0.3101717891
0.3101243517
0.3098217473
0.3077296714
0.3101816123
0.3101816123
0.3101816123
0.3101816123
0.3101816122
0.3101816117
0.3101816096
0.3101816001
0.3101815571
0.3101813605
0.3101804515
0.3101762404
0.3101570405
0.3100749411
0.3097951673
0.3101816123
0.3101816123
0.3101816123
0.3101816123
0.3101816122
0.3101816119
0.3101816105
0.3101816046
0.3101815799
0.3101814782
0.3101810653
0.3101794418
0.3101734373
0.3101538056
0.310105848
0.3101816123
0.3101816123
0.3101816123
0.3101816123
0.3101816123
0.3101816121
0.3101816112
0.310181608
0.3101815956
0.3101815493
0.3101813826
0.3101808121
0.3101790142
0.3101740877
0.3101637218
0.3101816123
0.3101816123
0.3101816123
0.3101816123
0.3101816123
0.3101816121
0.3101816116
0.3101816096
0.3101816026
0.3101815787
0.3101815009
0.3101812635
0.3101806011
0.3101789863
0.3101757862
0.3101816123
0.3101816123
0.3101816123
0.3101816123
0.3101816123
0.3101816122
0.3101816117
0.3101816099
0.3101816038
0.3101815833
0.3101815181
0.3101813247
0.3101808019
0.3101795655
0.3101816123
0.3101816123
0.3101816123
0.3101816123
0.3101816123
0.3101816121
0.3101816113
0.3101816085
0.310181598
0.3101815598
0.3101814275
0.3101809957
0.3101797132
0.3101764229
0.3101816123
0.3101816123
0.3101816123
0.3101816123
0.3101816122
0.3101816119
0.3101816107
0.3101816057
0.3101815855
0.3101815057
0.3101811996
0.3101800844
0.3101763528
0.3101655957
0.3101816123
0.3101816123
0.3101816123
0.3101816123
0.3101816122
0.3101816118
0.31018161
0.3101816021
0.3101815682
0.3101814223
0.3101808023
0.3101782483
0.3101683561
0.3101346425
0.3101816123
0.3101816123
0.3101816123
0.3101816123
0.3101816122
0.3101816117
0.3101816096
0.3101816001
0.3101815571
0.3101813605
0.3101804514
0.3101762402
0.3101570397
0.3100749362
0.3101816123
0.3101816123
0.3101816123
0.3101816123
0.3101816122
0.3101816118
0.31018161
0.3101816021
0.3101815682
0.3101814223
0.3101808023
0.3101782483
0.3101683561
0.3101346425
0.3101816123
0.3101816123
0.3101816123
0.3101816123
0.3101816122
0.3101816119
0.3101816107
0.3101816057
0.3101815855
0.3101815057
0.3101811996
0.3101800844
0.3101763529
0.310165596
0.3101424097
0.3101816123
0.3101816123
0.3101816123
0.3101816123
0.3101816123
0.3101816121
0.3101816113
0.3101816085
0.310181598
0.3101815598
0.3101814275
0.3101809958
0.3101797133
0.3101764231
0.3101697999
0.3101816123
0.3101816123
0.3101816123
0.3101816123
0.3101816123
0.3101816122
0.3101816117
0.3101816099
0.3101816038
0.3101815833
0.3101815181
0.3101813247
0.3101808019
0.3101795656
0.310177145
0.3101816123
0.3101816123
0.3101816123
0.3101816123
0.3101816123
0.3101816122
0.3101816118
0.3101816105
0.3101816062
0.3101815921
0.3101815493
0.3101814274
0.3101811119
0.3101803902
0.3101816123
0.3101816123
0.3101816123
0.3101816123
0.3101816123
0.3101816121
0.3101816116
0.3101816096
0.3101816025
0.3101815781
0.3101814984
0.3101812544
0.3101805769
0.310178942
0.3101816123
0.3101816123
0.3101816123
0.3101816123
0.3101816123
0.3101816121
0.3101816112
0.3101816078
0.3101815951
0.3101815479
0.3101813808
0.3101808241
0.3101791393
0.3101747563
0.3101816123
0.3101816123
0.3101816123
0.3101816123
0.3101816122
0.3101816119
0.3101816107
0.3101816057
0.3101815855
0.3101815057
0.3101811996
0.3101800844
0.3101763528
0.3101655958
0.3101816123
0.3101816123
0.3101816123
0.3101816123
0.3101816122
0.3101816119
0.3101816105
0.3101816046
0.3101815799
0.3101814782
0.3101810653
0.3101794417
0.3101734369
0.3101538041
0.3101816123
0.3101816123
0.3101816123
0.3101816123
0.3101816122
0.3101816119
0.3101816107
0.3101816057
0.3101815855
0.3101815057
0.3101811996
0.3101800844
0.3101763528
0.3101655957
0.3101816123
0.3101816123
0.3101816123
0.3101816123
0.3101816123
0.3101816121
0.3101816112
0.3101816078
0.3101815951
0.3101815479
0.3101813808
0.3101808241
0.3101791393
0.3101747563
0.3101816123
0.3101816123
0.3101816123
0.3101816123
0.3101816123
0.3101816121
0.3101816116
0.3101816096
0.3101816025
0.3101815781
0.3101814984
0.3101812544
0.3101805769
0.310178942
0.3101757286
0.3101816123
0.3101816123
0.3101816123
0.3101816123
0.3101816123
0.3101816122
0.3101816118
0.3101816105
0.3101816062
0.3101815921
0.3101815493
0.3101814274
0.3101811119
0.3101803903
0.3101789869
0.3101816123
0.3101816123
0.3101816123
0.3101816123
0.3101816123
0.3101816122
0.310181612
0.3101816111
0.3101816083
0.3101815997
0.3101815746
0.3101815065
0.3101813373
0.3101809611
0.3101816123
0.3101816123
0.3101816123
0.3101816123
0.3101816123
0.3101816122
0.3101816118
0.3101816106
0.3101816063
0.3101815926
0.3101815502
0.3101814287
0.3101811115
0.3101803816
0.3101816123
0.3101816123
0.3101816123
0.3101816123
0.3101816123
0.3101816121
0.3101816116
0.3101816096
0.3101816025
0.3101815781
0.3101814984
0.3101812544
0.3101805769
0.310178942
0.3101816123
0.3101816123
0.3101816123
0.3101816123
0.3101816123
0.3101816121
0.3101816113
0.3101816085
0.310181598
0.3101815598
0.3101814275
0.3101809957
0.3101797132
0.3101764229
0.3101816123
0.3101816123
0.3101816123
0.3101816123
0.3101816123
0.3101816121
0.3101816112
0.310181608
0.3101815956
0.3101815493
0.3101813826
0.3101808121
0.310179014
0.3101740872
0.3101816123
0.3101816123
0.3101816123
0.3101816123
0.3101816123
0.3101816121
0.3101816113
0.3101816085
0.310181598
0.3101815598
0.3101814275
0.3101809957
0.3101797132
0.3101764229
0.3101816123
0.3101816123
0.3101816123
0.3101816123
0.3101816123
0.3101816121
0.3101816116
0.3101816096
0.3101816025
0.3101815781
0.3101814984
0.3101812544
0.3101805769
0.310178942
0.3101816123
0.3101816123
0.3101816123
0.3101816123
0.3101816123
0.3101816122
0.3101816118
0.3101816106
0.3101816063
0.3101815926
0.3101815502
0.3101814287
0.3101811115
0.3101803816
0.3101816123
0.3101816123
0.3101816123
0.3101816123
0.3101816123
0.3101816122
0.310181612
0.3101816111
0.3101816083
0.3101815997
0.3101815746
0.3101815065
0.3101813373
0.3101809611
0.3101802311
0.3101816123
0.3101816123
0.3101816123
0.3101816123
0.3101816123
0.3101816123
0.3101816121
0.3101816114
0.3101816095
0.3101816037
0.3101815875
0.3101815452
0.3101814436
0.3101812224
0.3101816123
0.3101816123
0.3101816123
0.3101816123
0.3101816123
0.3101816122
0.310181612
0.3101816111
0.3101816083
0.3101815997
0.3101815746
0.3101815065
0.3101813373
0.3101809611
0.3101816123
0.3101816123
0.3101816123
0.3101816123
0.3101816123
0.3101816122
0.3101816118
0.3101816105
0.3101816062
0.3101815921
0.3101815493
0.3101814274
0.3101811119
0.3101803902
0.3101816123
0.3101816123
0.3101816123
0.3101816123
0.3101816123
0.3101816122
0.3101816117
0.3101816099
0.3101816038
0.3101815833
0.3101815181
0.3101813247
0.3101808019
0.3101795655
0.3101816123
0.3101816123
0.3101816123
0.3101816123
0.3101816123
0.3101816121
0.3101816116
0.3101816096
0.3101816026
0.3101815787
0.3101815009
0.3101812634
0.3101806011
0.3101789861
0.3101816123
0.3101816123
0.3101816123
0.3101816123
0.3101816123
0.3101816122
0.3101816117
0.3101816099
0.3101816038
0.3101815833
0.3101815181
0.3101813247
0.3101808019
0.3101795655
0.3101816123
0.3101816123
0.3101816123
0.3101816123
0.3101816123
0.3101816122
0.3101816118
0.3101816105
0.3101816062
0.3101815921
0.3101815493
0.3101814274
0.3101811119
0.3101803902
0.3101816123
0.3101816123
0.3101816123
0.3101816123
0.3101816123
0.3101816122
0.310181612
0.3101816111
0.3101816083
0.3101815997
0.3101815746
0.3101815065
0.3101813373
0.3101809611
0.3101816123
0.3101816123
0.3101816123
0.3101816123
0.3101816123
0.3101816123
0.3101816121
0.3101816114
0.3101816095
0.3101816037
0.3101815875
0.3101815452
0.3101814436
0.3101812224
)
;

boundaryField
{
    top
    {
        type            zeroGradient;
    }
    bottom
    {
        type            zeroGradient;
    }
    side-walls
    {
        type            zeroGradient;
    }
    inlet
    {
        type            zeroGradient;
    }
    outlet
    {
        type            zeroGradient;
    }
    procBoundary0to1
    {
        type            processor;
        value           nonuniform List<scalar> 
97
(
0.310180055
0.310180231
0.3101790116
0.310176732
0.3101734388
0.3101711253
0.3101734388
0.3101767321
0.3101790117
0.3101800551
0.310180231
0.310180231
0.3101766975
0.3101757285
0.3101709485
0.3101608889
0.3101515626
0.3101608891
0.3101709487
0.3101766976
0.3101790117
0.3101789869
0.3101757285
0.3101757285
0.3101542325
0.3101424092
0.3101176478
0.3100705587
0.3101176487
0.3101542333
0.3101709487
0.3101767321
0.310177145
0.3101697996
0.3101424092
0.3101424092
0.3099940061
0.3097951586
0.3097554472
0.3099940094
0.3101176487
0.3101608891
0.3101734389
0.3101757861
0.3101637213
0.3101058463
0.3097951586
0.3097951586
0.3087410552
0.3097951584
0.3097554475
0.3100499957
0.3100705591
0.3101515629
0.3101711254
0.310177145
0.3101697998
0.3101424104
0.3100499967
0.3097951584
0.3100499957
0.3100499957
0.3101176478
0.3101658962
0.3101608889
0.3101734388
0.3101789869
0.3101757287
0.3101658966
0.3101424104
0.3101058461
0.3101424103
0.3101658962
0.3101658962
0.3101709485
0.3101789611
0.310176732
0.3101802311
0.3101789611
0.3101757287
0.3101697998
0.3101637213
0.3101697998
0.3101757287
0.3101789611
0.3101789611
0.3101790116
0.3101807931
0.3101807931
0.3101802311
0.3101789869
0.310177145
0.3101757861
0.310177145
0.3101789869
0.3101802311
0.3101807931
)
;
    }
}


// ************************************************************************* //
