/*--------------------------------*- C++ -*----------------------------------*\
| =========                 |                                                 |
| \\      /  F ield         | OpenFOAM: The Open Source CFD Toolbox           |
|  \\    /   O peration     | Version:  4.x                                   |
|   \\  /    A nd           | Web:      www.OpenFOAM.org                      |
|    \\/     M anipulation  |                                                 |
\*---------------------------------------------------------------------------*/
FoamFile
{
    version     2.0;
    format      ascii;
    class       volScalarField;
    location    "8000";
    object      H2;
}
// * * * * * * * * * * * * * * * * * * * * * * * * * * * * * * * * * * * * * //

dimensions      [0 0 0 0 0 0 0];

internalField   nonuniform List<scalar> 
1175
(
0.004463823173
0.004463823173
0.004463823173
0.004463823172
0.004463823171
0.004463823168
0.004463823156
0.004463823119
0.004463823002
0.004463822659
0.004463821699
0.004463819192
0.004463813167
0.004463800056
0.004463774606
0.004463823173
0.004463823173
0.004463823173
0.004463823172
0.004463823171
0.004463823166
0.004463823151
0.004463823099
0.004463822933
0.004463822422
0.004463820935
0.004463816899
0.004463806866
0.004463784564
0.004463741287
0.004463823173
0.004463823173
0.004463823173
0.004463823172
0.00446382317
0.004463823164
0.004463823142
0.004463823065
0.004463822806
0.004463821973
0.004463819433
0.00446381221
0.004463793504
0.004463750719
0.004463667519
0.004463823173
0.004463823173
0.004463823172
0.004463823172
0.00446382317
0.004463823162
0.004463823132
0.004463823028
0.004463822664
0.004463821449
0.004463817586
0.004463806117
0.004463775124
0.004463701822
0.004463558305
0.004463823173
0.004463823173
0.004463823172
0.004463823172
0.00446382317
0.004463823161
0.004463823128
0.00446382301
0.004463822595
0.004463821178
0.004463816567
0.004463802487
0.004463763216
0.004463667466
0.004463477725
0.004463823173
0.004463823173
0.004463823172
0.004463823172
0.00446382317
0.004463823162
0.004463823132
0.004463823028
0.004463822664
0.004463821449
0.004463817586
0.004463806117
0.004463775124
0.004463701822
0.004463558306
0.004463823173
0.004463823173
0.004463823173
0.004463823172
0.00446382317
0.004463823164
0.004463823142
0.004463823065
0.004463822806
0.004463821973
0.004463819433
0.00446381221
0.004463793504
0.00446375072
0.004463667521
0.004463823173
0.004463823173
0.004463823173
0.004463823172
0.004463823171
0.004463823166
0.004463823151
0.004463823099
0.004463822933
0.004463822422
0.004463820936
0.004463816899
0.004463806867
0.004463784565
0.004463741289
0.004463823173
0.004463823173
0.004463823173
0.004463823172
0.004463823171
0.004463823168
0.004463823156
0.004463823119
0.004463823002
0.004463822659
0.004463821699
0.004463819192
0.004463813168
0.004463800056
0.004463774608
0.004463823173
0.004463823173
0.004463823173
0.004463823172
0.004463823171
0.004463823166
0.004463823151
0.004463823099
0.004463822933
0.004463822422
0.004463820935
0.004463816898
0.004463806866
0.004463784563
0.004463823173
0.004463823173
0.004463823173
0.004463823172
0.00446382317
0.004463823164
0.004463823143
0.004463823068
0.004463822816
0.004463821999
0.004463819488
0.004463812287
0.004463793481
0.004463750206
0.004463665984
0.004463823173
0.004463823173
0.004463823172
0.004463823172
0.00446382317
0.004463823161
0.004463823129
0.004463823011
0.00446382259
0.004463821145
0.004463816415
0.004463801948
0.004463761783
0.004463664846
0.004463474319
0.004463823173
0.004463823173
0.004463823172
0.004463823172
0.004463823169
0.004463823157
0.004463823113
0.004463822945
0.00446382232
0.004463820059
0.004463812211
0.004463786614
0.004463710569
0.004463515476
0.004463122746
0.004463823173
0.004463823173
0.004463823172
0.004463823172
0.004463823168
0.004463823156
0.004463823106
0.004463822913
0.004463822177
0.004463819435
0.00446380955
0.004463775722
0.004463669109
0.004463376971
0.00446276228
0.004463823173
0.004463823173
0.004463823172
0.004463823172
0.004463823169
0.004463823157
0.004463823113
0.004463822945
0.00446382232
0.004463820059
0.004463812211
0.004463786614
0.00446371057
0.004463515479
0.004463122754
0.004463823173
0.004463823173
0.004463823172
0.004463823172
0.00446382317
0.004463823161
0.004463823129
0.004463823011
0.00446382259
0.004463821145
0.004463816415
0.004463801949
0.004463761784
0.00446366485
0.004463474328
0.004463823173
0.004463823173
0.004463823173
0.004463823172
0.00446382317
0.004463823164
0.004463823143
0.004463823068
0.004463822816
0.004463821999
0.004463819488
0.004463812287
0.004463793482
0.004463750208
0.004463665991
0.004463823173
0.004463823173
0.004463823173
0.004463823172
0.004463823171
0.004463823166
0.004463823151
0.004463823099
0.004463822933
0.004463822422
0.004463820936
0.004463816899
0.004463806867
0.004463784565
0.004463741289
0.004463823173
0.004463823173
0.004463823172
0.004463823172
0.00446382317
0.004463823164
0.004463823142
0.004463823065
0.004463822806
0.004463821973
0.004463819433
0.00446381221
0.004463793503
0.004463750717
0.004463823173
0.004463823173
0.004463823172
0.004463823172
0.00446382317
0.004463823161
0.004463823129
0.004463823011
0.00446382259
0.004463821145
0.004463816415
0.004463801948
0.004463761782
0.004463664842
0.004463823173
0.004463823173
0.004463823172
0.004463823172
0.004463823168
0.004463823155
0.004463823104
0.004463822906
0.00446382215
0.004463819354
0.004463809443
0.004463776434
0.004463676536
0.00446341664
0.004462891261
0.004463823173
0.004463823173
0.004463823172
0.004463823171
0.004463823167
0.004463823149
0.004463823076
0.004463822779
0.004463821582
0.004463816848
0.004463798698
0.004463732575
0.004463511301
0.004462873422
0.004461498481
0.004463823173
0.004463823173
0.004463823172
0.004463823171
0.004463823166
0.004463823146
0.004463823062
0.004463822712
0.004463821252
0.00446381522
0.004463790734
0.004463694462
0.004463338388
0.004462174157
0.004459330037
0.004463823173
0.004463823173
0.004463823172
0.004463823171
0.004463823167
0.004463823149
0.004463823076
0.004463822779
0.004463821582
0.004463816848
0.004463798699
0.004463732577
0.004463511307
0.00446287344
0.004461498526
0.004463823173
0.004463823173
0.004463823172
0.004463823172
0.004463823168
0.004463823155
0.004463823104
0.004463822906
0.00446382215
0.004463819355
0.004463809443
0.004463776436
0.004463676541
0.004463416656
0.004462891301
0.004463823173
0.004463823173
0.004463823172
0.004463823172
0.00446382317
0.004463823161
0.004463823129
0.004463823011
0.00446382259
0.004463821145
0.004463816415
0.004463801949
0.004463761784
0.00446366485
0.004463474328
0.004463823173
0.004463823173
0.004463823173
0.004463823172
0.00446382317
0.004463823164
0.004463823142
0.004463823065
0.004463822806
0.004463821973
0.004463819433
0.00446381221
0.004463793504
0.00446375072
0.004463667521
0.004463823173
0.004463823173
0.004463823172
0.004463823172
0.00446382317
0.004463823162
0.004463823132
0.004463823028
0.004463822664
0.004463821449
0.004463817586
0.004463806116
0.004463775123
0.004463701818
0.004463823173
0.004463823173
0.004463823172
0.004463823172
0.004463823169
0.004463823157
0.004463823113
0.004463822945
0.00446382232
0.004463820059
0.004463812211
0.004463786613
0.004463710565
0.004463515466
0.004463823173
0.004463823173
0.004463823172
0.004463823171
0.004463823167
0.004463823149
0.004463823076
0.004463822779
0.004463821582
0.004463816848
0.004463798698
0.004463732574
0.004463511295
0.004462873395
0.004463823173
0.004463823172
0.004463823172
0.004463823171
0.004463823165
0.00446382314
0.004463823033
0.004463822568
0.004463820558
0.004463811902
0.004463775141
0.004463623691
0.004463037068
0.004461037754
0.004456017654
0.004463823173
0.004463823172
0.004463823172
0.004463823171
0.004463823164
0.004463823136
0.00446382301
0.004463822447
0.0044638199
0.004463808237
0.004463754334
0.004463504607
0.004462365958
0.004457496878
0.004440903735
0.004463823173
0.004463823173
0.004463823172
0.004463823171
0.004463823165
0.00446382314
0.004463823033
0.004463822568
0.004463820558
0.004463811902
0.004463775142
0.004463623696
0.004463037088
0.004461037829
0.004456017894
0.004463823173
0.004463823173
0.004463823172
0.004463823171
0.004463823167
0.004463823149
0.004463823076
0.004463822779
0.004463821582
0.004463816848
0.004463798698
0.004463732576
0.004463511305
0.004462873437
0.004461498521
0.004463823173
0.004463823173
0.004463823172
0.004463823172
0.004463823169
0.004463823157
0.004463823113
0.004463822945
0.00446382232
0.004463820059
0.004463812211
0.004463786614
0.00446371057
0.00446351548
0.004463122756
0.004463823173
0.004463823173
0.004463823172
0.004463823172
0.00446382317
0.004463823162
0.004463823132
0.004463823028
0.004463822664
0.004463821449
0.004463817586
0.004463806117
0.004463775125
0.004463701823
0.004463558308
0.004463823173
0.004463823173
0.004463823172
0.004463823172
0.00446382317
0.004463823161
0.004463823128
0.00446382301
0.004463822595
0.004463821178
0.004463816567
0.004463802487
0.004463763215
0.004463667462
0.004463823173
0.004463823173
0.004463823172
0.004463823172
0.004463823168
0.004463823156
0.004463823106
0.004463822913
0.004463822177
0.004463819434
0.004463809549
0.004463775721
0.004463669105
0.004463376959
0.004463823173
0.004463823173
0.004463823172
0.004463823171
0.004463823166
0.004463823146
0.004463823062
0.004463822712
0.004463821252
0.00446381522
0.004463790733
0.00446369446
0.004463338377
0.004462174109
0.004463823173
0.004463823172
0.004463823172
0.004463823171
0.004463823164
0.004463823136
0.00446382301
0.004463822447
0.0044638199
0.004463808237
0.004463754334
0.004463504604
0.004462365932
0.004457496694
0.004463823173
0.004463823172
0.004463823172
0.00446382317
0.004463823163
0.00446382313
0.004463822981
0.004463822287
0.00446381896
0.004463802424
0.004463716282
0.004463240613
0.004460427213
0.004442479699
0.004318394059
0.004463823173
0.004463823172
0.004463823172
0.004463823171
0.004463823164
0.004463823136
0.00446382301
0.004463822447
0.0044638199
0.004463808237
0.004463754335
0.004463504608
0.004462365958
0.004457496873
0.004440903732
0.004463823173
0.004463823173
0.004463823172
0.004463823171
0.004463823166
0.004463823146
0.004463823062
0.004463822712
0.004463821252
0.00446381522
0.004463790734
0.004463694462
0.004463338389
0.004462174161
0.004459330052
0.004463823173
0.004463823173
0.004463823172
0.004463823172
0.004463823168
0.004463823156
0.004463823106
0.004463822913
0.004463822177
0.004463819435
0.00446380955
0.004463775723
0.004463669111
0.004463376975
0.00446276229
0.004463823173
0.004463823173
0.004463823172
0.004463823172
0.00446382317
0.004463823161
0.004463823128
0.00446382301
0.004463822595
0.004463821178
0.004463816567
0.004463802487
0.004463763217
0.004463667467
0.004463477727
0.004463823173
0.004463823173
0.004463823172
0.004463823172
0.00446382317
0.004463823162
0.004463823132
0.004463823028
0.004463822664
0.004463821449
0.004463817586
0.004463806116
0.004463775123
0.004463701818
0.004463823173
0.004463823173
0.004463823172
0.004463823172
0.004463823169
0.004463823157
0.004463823113
0.004463822945
0.00446382232
0.004463820059
0.004463812211
0.004463786613
0.004463710566
0.004463515469
0.004463823173
0.004463823173
0.004463823172
0.004463823171
0.004463823167
0.004463823149
0.004463823076
0.004463822779
0.004463821582
0.004463816848
0.004463798698
0.004463732574
0.004463511296
0.004462873405
0.004463823173
0.004463823173
0.004463823172
0.004463823171
0.004463823165
0.00446382314
0.004463823033
0.004463822568
0.004463820558
0.004463811902
0.004463775141
0.00446362369
0.004463037064
0.004461037733
0.004463823173
0.004463823172
0.004463823172
0.004463823171
0.004463823164
0.004463823136
0.00446382301
0.004463822447
0.0044638199
0.004463808237
0.004463754333
0.004463504601
0.004462365923
0.004457496669
0.004463823173
0.004463823173
0.004463823172
0.004463823171
0.004463823165
0.00446382314
0.004463823033
0.004463822568
0.004463820558
0.004463811902
0.004463775141
0.00446362369
0.004463037062
0.004461037727
0.004463823173
0.004463823173
0.004463823172
0.004463823171
0.004463823167
0.004463823149
0.004463823076
0.004463822779
0.004463821582
0.004463816848
0.004463798698
0.004463732574
0.004463511298
0.004462873414
0.004461498456
0.004463823173
0.004463823173
0.004463823172
0.004463823172
0.004463823169
0.004463823157
0.004463823113
0.004463822945
0.00446382232
0.004463820059
0.004463812211
0.004463786614
0.004463710568
0.004463515475
0.004463122745
0.004463823173
0.004463823173
0.004463823172
0.004463823172
0.00446382317
0.004463823162
0.004463823132
0.004463823028
0.004463822664
0.004463821449
0.004463817586
0.004463806117
0.004463775124
0.004463701821
0.004463558305
0.004463823173
0.004463823173
0.004463823173
0.004463823172
0.00446382317
0.004463823164
0.004463823142
0.004463823065
0.004463822806
0.004463821973
0.004463819433
0.00446381221
0.004463793503
0.004463750718
0.004463823173
0.004463823173
0.004463823172
0.004463823172
0.00446382317
0.004463823161
0.004463823129
0.004463823011
0.00446382259
0.004463821145
0.004463816415
0.004463801948
0.004463761782
0.004463664844
0.004463823173
0.004463823173
0.004463823172
0.004463823172
0.004463823168
0.004463823155
0.004463823104
0.004463822906
0.00446382215
0.004463819354
0.004463809443
0.004463776434
0.004463676536
0.004463416641
0.004463823173
0.004463823173
0.004463823172
0.004463823171
0.004463823167
0.004463823149
0.004463823076
0.004463822779
0.004463821582
0.004463816848
0.004463798698
0.004463732574
0.004463511296
0.004462873406
0.004463823173
0.004463823173
0.004463823172
0.004463823171
0.004463823166
0.004463823146
0.004463823062
0.004463822712
0.004463821251
0.00446381522
0.004463790733
0.004463694458
0.004463338372
0.004462174098
0.004463823173
0.004463823173
0.004463823172
0.004463823171
0.004463823167
0.004463823149
0.004463823076
0.004463822779
0.004463821582
0.004463816848
0.004463798698
0.004463732573
0.004463511294
0.004462873402
0.004463823173
0.004463823173
0.004463823172
0.004463823172
0.004463823168
0.004463823155
0.004463823104
0.004463822906
0.00446382215
0.004463819354
0.004463809443
0.004463776434
0.004463676536
0.004463416637
0.004463823173
0.004463823173
0.004463823172
0.004463823172
0.00446382317
0.004463823161
0.004463823129
0.004463823011
0.00446382259
0.004463821145
0.004463816415
0.004463801948
0.004463761782
0.004463664845
0.004463474315
0.004463823173
0.004463823173
0.004463823173
0.004463823172
0.00446382317
0.004463823164
0.004463823142
0.004463823065
0.004463822806
0.004463821973
0.004463819433
0.00446381221
0.004463793504
0.004463750719
0.004463667518
0.004463823173
0.004463823173
0.004463823173
0.004463823172
0.004463823171
0.004463823166
0.004463823151
0.004463823099
0.004463822933
0.004463822422
0.004463820935
0.004463816898
0.004463806866
0.004463784564
0.004463823173
0.004463823173
0.004463823173
0.004463823172
0.00446382317
0.004463823164
0.004463823143
0.004463823068
0.004463822816
0.004463821999
0.004463819488
0.004463812286
0.004463793481
0.004463750206
0.004463823173
0.004463823173
0.004463823172
0.004463823172
0.00446382317
0.004463823161
0.004463823129
0.004463823011
0.00446382259
0.004463821145
0.004463816415
0.004463801948
0.004463761782
0.004463664844
0.004463823173
0.004463823173
0.004463823172
0.004463823172
0.004463823169
0.004463823157
0.004463823113
0.004463822945
0.00446382232
0.004463820059
0.004463812211
0.004463786613
0.004463710566
0.004463515468
0.004463823173
0.004463823173
0.004463823172
0.004463823172
0.004463823168
0.004463823156
0.004463823106
0.004463822913
0.004463822177
0.004463819434
0.004463809549
0.004463775721
0.004463669104
0.004463376958
0.004463823173
0.004463823173
0.004463823172
0.004463823172
0.004463823169
0.004463823157
0.004463823113
0.004463822945
0.00446382232
0.004463820059
0.004463812211
0.004463786613
0.004463710565
0.004463515468
0.004463823173
0.004463823173
0.004463823172
0.004463823172
0.00446382317
0.004463823161
0.004463823129
0.004463823011
0.00446382259
0.004463821145
0.004463816415
0.004463801948
0.004463761782
0.004463664843
0.004463823173
0.004463823173
0.004463823173
0.004463823172
0.00446382317
0.004463823164
0.004463823143
0.004463823068
0.004463822816
0.004463821999
0.004463819488
0.004463812286
0.004463793481
0.004463750205
0.004463823173
0.004463823173
0.004463823173
0.004463823172
0.004463823171
0.004463823166
0.004463823151
0.004463823099
0.004463822933
0.004463822422
0.004463820935
0.004463816898
0.004463806866
0.004463784564
0.004463741286
0.004463823173
0.004463823173
0.004463823173
0.004463823172
0.004463823171
0.004463823168
0.004463823156
0.004463823119
0.004463823002
0.004463822659
0.004463821699
0.004463819192
0.004463813167
0.004463800056
0.004463823173
0.004463823173
0.004463823173
0.004463823172
0.004463823171
0.004463823166
0.004463823151
0.004463823099
0.004463822933
0.004463822422
0.004463820935
0.004463816898
0.004463806866
0.004463784564
0.004463823173
0.004463823173
0.004463823173
0.004463823172
0.00446382317
0.004463823164
0.004463823142
0.004463823065
0.004463822806
0.004463821973
0.004463819433
0.004463812209
0.004463793503
0.004463750717
0.004463823173
0.004463823173
0.004463823172
0.004463823172
0.00446382317
0.004463823162
0.004463823132
0.004463823028
0.004463822664
0.004463821449
0.004463817586
0.004463806116
0.004463775123
0.004463701818
0.004463823173
0.004463823173
0.004463823172
0.004463823172
0.00446382317
0.004463823161
0.004463823128
0.00446382301
0.004463822595
0.004463821178
0.004463816567
0.004463802486
0.004463763214
0.004463667462
0.004463823173
0.004463823173
0.004463823172
0.004463823172
0.00446382317
0.004463823162
0.004463823132
0.004463823028
0.004463822664
0.004463821449
0.004463817586
0.004463806116
0.004463775123
0.004463701818
0.004463823173
0.004463823173
0.004463823173
0.004463823172
0.00446382317
0.004463823164
0.004463823142
0.004463823065
0.004463822806
0.004463821973
0.004463819433
0.00446381221
0.004463793503
0.004463750718
0.004463823173
0.004463823173
0.004463823173
0.004463823172
0.004463823171
0.004463823166
0.004463823151
0.004463823099
0.004463822933
0.004463822422
0.004463820935
0.004463816898
0.004463806866
0.004463784564
0.004463823173
0.004463823173
0.004463823173
0.004463823172
0.004463823171
0.004463823168
0.004463823156
0.004463823119
0.004463823002
0.004463822659
0.004463821699
0.004463819192
0.004463813167
0.004463800055
)
;

boundaryField
{
    top
    {
        type            zeroGradient;
    }
    bottom
    {
        type            zeroGradient;
    }
    side-walls
    {
        type            zeroGradient;
    }
    inlet
    {
        type            zeroGradient;
    }
    outlet
    {
        type            zeroGradient;
    }
    procBoundary0to1
    {
        type            processor;
        value           nonuniform List<scalar> 
97
(
0.004463730858
0.004463741285
0.004463668994
0.004463533835
0.004463338564
0.004463201379
0.004463338566
0.004463533839
0.004463668997
0.004463730861
0.004463741285
0.004463741285
0.004463531785
0.004463474312
0.004463190898
0.004462594378
0.00446204131
0.004462594388
0.004463190911
0.004463531793
0.004463668997
0.004463667516
0.004463474312
0.004463474312
0.004462199669
0.004461498432
0.004460030126
0.004457237477
0.004460030175
0.004462199712
0.004463190912
0.004463533839
0.004463558301
0.004463122734
0.004461498432
0.004461498432
0.0044526976
0.004440903507
0.004438549109
0.004452697767
0.004460030173
0.004462594393
0.004463338569
0.004463477721
0.00446276227
0.004459329993
0.004440903507
0.004440903507
0.004378385507
0.004440903487
0.004438549128
0.004456017749
0.004457237504
0.004462041327
0.004463201385
0.004463558303
0.004463122744
0.004461498487
0.004456017795
0.004440903487
0.004456017749
0.004456017749
0.004460030129
0.004462891268
0.004462594382
0.004463338566
0.004463667519
0.004463474322
0.004462891286
0.00446149849
0.004459329979
0.004461498482
0.004462891268
0.004462891268
0.0044631909
0.004463665985
0.004463533835
0.004463741288
0.004463665988
0.004463474322
0.004463122744
0.00446276227
0.004463122743
0.00446347432
0.004463665985
0.004463665985
0.004463668994
0.004463774606
0.004463774607
0.004463741288
0.004463667518
0.004463558303
0.004463477722
0.004463558303
0.004463667519
0.004463741287
0.004463774606
)
;
    }
}


// ************************************************************************* //
