/*--------------------------------*- C++ -*----------------------------------*\
| =========                 |                                                 |
| \\      /  F ield         | OpenFOAM: The Open Source CFD Toolbox           |
|  \\    /   O peration     | Version:  4.x                                   |
|   \\  /    A nd           | Web:      www.OpenFOAM.org                      |
|    \\/     M anipulation  |                                                 |
\*---------------------------------------------------------------------------*/
FoamFile
{
    version     2.0;
    format      ascii;
    class       volScalarField;
    location    "8000";
    object      H2O;
}
// * * * * * * * * * * * * * * * * * * * * * * * * * * * * * * * * * * * * * //

dimensions      [0 0 0 0 0 0 0];

internalField   nonuniform List<scalar> 
1175
(
1.000039695e-05
1.000039695e-05
1.000039782e-05
1.000039927e-05
1.000040793e-05
1.000043748e-05
1.000053418e-05
1.000084635e-05
1.000181586e-05
1.000468174e-05
1.001269312e-05
1.003361059e-05
1.008388727e-05
1.019331387e-05
1.040573547e-05
1.00003965e-05
1.000039654e-05
1.000039835e-05
1.000040046e-05
1.00004113e-05
1.000044903e-05
1.000057896e-05
1.000100788e-05
1.00023934e-05
1.000665515e-05
1.001906172e-05
1.00527465e-05
1.01364599e-05
1.032256569e-05
1.068375417e-05
1.000039799e-05
1.000039737e-05
1.000039786e-05
1.000040081e-05
1.000041694e-05
1.000046893e-05
1.000065374e-05
1.000129695e-05
1.0003456e-05
1.001040484e-05
1.003159996e-05
1.009186329e-05
1.024793727e-05
1.06049346e-05
1.129924806e-05
1.000039712e-05
1.000039704e-05
1.000039814e-05
1.000040313e-05
1.00004203e-05
1.00004868e-05
1.000073178e-05
1.000160493e-05
1.00046381e-05
1.001477588e-05
1.004700217e-05
1.014269132e-05
1.040126158e-05
1.101285633e-05
1.22104161e-05
1.000039631e-05
1.000039637e-05
1.000039695e-05
1.000040303e-05
1.000042241e-05
1.000049573e-05
1.000076739e-05
1.000174933e-05
1.00052179e-05
1.001703561e-05
1.00555019e-05
1.017296768e-05
1.050059217e-05
1.129943803e-05
1.288262682e-05
1.000039644e-05
1.000039583e-05
1.000039639e-05
1.000040098e-05
1.000041984e-05
1.000048678e-05
1.000073165e-05
1.000160481e-05
1.000463797e-05
1.001477603e-05
1.004700171e-05
1.014269079e-05
1.040125737e-05
1.101284484e-05
1.221038454e-05
1.00003952e-05
1.000039585e-05
1.000039711e-05
1.00004005e-05
1.000041476e-05
1.000046711e-05
1.000065333e-05
1.000129709e-05
1.000345591e-05
1.001040307e-05
1.003159942e-05
1.009186055e-05
1.024792944e-05
1.060491329e-05
1.129919887e-05
1.000039646e-05
1.000039622e-05
1.000039659e-05
1.000040019e-05
1.000041114e-05
1.000044916e-05
1.000057676e-05
1.000100875e-05
1.0002393e-05
1.000665572e-05
1.001906288e-05
1.005274369e-05
1.01364515e-05
1.032254319e-05
1.068370363e-05
1.000039594e-05
1.000039563e-05
1.000039758e-05
1.000039941e-05
1.000040822e-05
1.000043698e-05
1.000053414e-05
1.000084733e-05
1.000181541e-05
1.000468098e-05
1.0012692e-05
1.003360806e-05
1.008388006e-05
1.019329397e-05
1.040568657e-05
1.000039803e-05
1.000039766e-05
1.000039825e-05
1.000040084e-05
1.000041132e-05
1.000044863e-05
1.000057722e-05
1.000100873e-05
1.000239385e-05
1.000665623e-05
1.001906189e-05
1.005274826e-05
1.013646817e-05
1.032260091e-05
1.000039754e-05
1.000039736e-05
1.000039853e-05
1.000040183e-05
1.000041515e-05
1.000046546e-05
1.000064452e-05
1.00012682e-05
1.000337079e-05
1.001018576e-05
1.003113795e-05
1.009122448e-05
1.024813545e-05
1.060925238e-05
1.131214265e-05
1.00003983e-05
1.000039787e-05
1.000039816e-05
1.000040318e-05
1.000042191e-05
1.000049428e-05
1.000076304e-05
1.000174844e-05
1.000525704e-05
1.001731283e-05
1.005677654e-05
1.017746663e-05
1.051257452e-05
1.132137164e-05
1.291122174e-05
1.000039804e-05
1.000039788e-05
1.000039915e-05
1.000040491e-05
1.000043025e-05
1.000052329e-05
1.000089186e-05
1.000229132e-05
1.000750668e-05
1.002637544e-05
1.009184501e-05
1.030538278e-05
1.093978679e-05
1.25673881e-05
1.584415042e-05
1.000039706e-05
1.000039833e-05
1.000039942e-05
1.000040511e-05
1.000043204e-05
1.00005382e-05
1.00009529e-05
1.000256224e-05
1.000869984e-05
1.003158128e-05
1.011404153e-05
1.039622938e-05
1.128559475e-05
1.372264959e-05
1.885090947e-05
1.00003955e-05
1.00003955e-05
1.000039738e-05
1.000040408e-05
1.000042895e-05
1.000052401e-05
1.000089217e-05
1.000229101e-05
1.000750617e-05
1.002637565e-05
1.009184325e-05
1.03053796e-05
1.093976898e-05
1.256732857e-05
1.584399012e-05
1.000039628e-05
1.000039603e-05
1.000039647e-05
1.000040354e-05
1.000042081e-05
1.00004936e-05
1.000076264e-05
1.000174851e-05
1.00052566e-05
1.001731174e-05
1.005677514e-05
1.017746123e-05
1.051255029e-05
1.132129088e-05
1.291101762e-05
1.000039749e-05
1.000039731e-05
1.000039806e-05
1.000040102e-05
1.000041515e-05
1.0000465e-05
1.000064476e-05
1.000126819e-05
1.000337079e-05
1.001018498e-05
1.00311378e-05
1.009121989e-05
1.02481135e-05
1.060918615e-05
1.131196425e-05
1.000039612e-05
1.000039681e-05
1.000039775e-05
1.000040075e-05
1.000041137e-05
1.00004487e-05
1.000057851e-05
1.000100827e-05
1.00023944e-05
1.000665646e-05
1.001906205e-05
1.005274493e-05
1.013645337e-05
1.032254674e-05
1.068370587e-05
1.000039785e-05
1.000039713e-05
1.000039908e-05
1.000040269e-05
1.000041536e-05
1.000046745e-05
1.000065269e-05
1.000129661e-05
1.00034562e-05
1.001040471e-05
1.003160222e-05
1.009187114e-05
1.024796479e-05
1.060502279e-05
1.000039806e-05
1.00003973e-05
1.000039886e-05
1.000040399e-05
1.000042255e-05
1.000049387e-05
1.000076317e-05
1.000174772e-05
1.000525666e-05
1.001731247e-05
1.005677982e-05
1.017747745e-05
1.05126117e-05
1.132151652e-05
1.000039861e-05
1.000039859e-05
1.000039939e-05
1.000040635e-05
1.000043373e-05
1.000054145e-05
1.000096763e-05
1.000262508e-05
1.000893007e-05
1.003225009e-05
1.011493993e-05
1.039031367e-05
1.122373354e-05
1.339208466e-05
1.777593185e-05
1.000039779e-05
1.000039918e-05
1.000040065e-05
1.000040908e-05
1.000044411e-05
1.000059231e-05
1.000120061e-05
1.000367875e-05
1.001366544e-05
1.005316043e-05
1.020456433e-05
1.075615525e-05
1.260201048e-05
1.792327046e-05
2.939411685e-05
1.000039772e-05
1.000039914e-05
1.000040059e-05
1.000040989e-05
1.000044994e-05
1.000061677e-05
1.000131634e-05
1.000424019e-05
1.00164235e-05
1.006673456e-05
1.027099364e-05
1.107404365e-05
1.404418489e-05
2.375544344e-05
4.748027516e-05
1.000039698e-05
1.000039809e-05
1.000039936e-05
1.0000408e-05
1.000044299e-05
1.000059092e-05
1.000119955e-05
1.000367772e-05
1.001366499e-05
1.00531588e-05
1.020456046e-05
1.075613703e-05
1.260192451e-05
1.792293383e-05
2.939312376e-05
1.000039646e-05
1.000039805e-05
1.000039918e-05
1.000040595e-05
1.000043251e-05
1.000054073e-05
1.000096788e-05
1.0002625e-05
1.000892986e-05
1.003224936e-05
1.01149344e-05
1.039029217e-05
1.122364152e-05
1.339174029e-05
1.77749025e-05
1.000039729e-05
1.000039653e-05
1.000039885e-05
1.000040279e-05
1.000042119e-05
1.000049347e-05
1.000076365e-05
1.000174789e-05
1.000525577e-05
1.001731258e-05
1.005677733e-05
1.017746314e-05
1.051255413e-05
1.132129717e-05
1.291102057e-05
1.000039652e-05
1.000039702e-05
1.000039818e-05
1.000040221e-05
1.000041645e-05
1.000046786e-05
1.000065375e-05
1.000129757e-05
1.000345728e-05
1.001040463e-05
1.003160069e-05
1.009186311e-05
1.024793375e-05
1.060491855e-05
1.129920233e-05
1.000039802e-05
1.0000398e-05
1.000039864e-05
1.000040397e-05
1.000042152e-05
1.000048887e-05
1.000073255e-05
1.000160575e-05
1.00046384e-05
1.001477775e-05
1.00470077e-05
1.014270921e-05
1.04013184e-05
1.101302725e-05
1.000039751e-05
1.000039787e-05
1.000040043e-05
1.000040498e-05
1.000042903e-05
1.000052499e-05
1.000089193e-05
1.000229204e-05
1.000750674e-05
1.002637736e-05
1.009185247e-05
1.030541302e-05
1.093989963e-05
1.256779278e-05
1.000039815e-05
1.000039762e-05
1.00004001e-05
1.000040898e-05
1.00004442e-05
1.000059163e-05
1.000120029e-05
1.000367811e-05
1.001366681e-05
1.005316194e-05
1.02045738e-05
1.075620031e-05
1.260221371e-05
1.792420981e-05
1.000039742e-05
1.000039932e-05
1.000040127e-05
1.00004126e-05
1.000046133e-05
1.000066876e-05
1.000156462e-05
1.000544114e-05
1.00222101e-05
1.009441864e-05
1.040106755e-05
1.166440782e-05
1.655777244e-05
3.323549182e-05
7.511462804e-05
1.000039757e-05
1.000039868e-05
1.000040044e-05
1.000041329e-05
1.000046739e-05
1.000070409e-05
1.000175509e-05
1.000645122e-05
1.002770022e-05
1.012498315e-05
1.057460367e-05
1.265759806e-05
2.215491988e-05
6.276652251e-05
0.0002011655568
1.000039807e-05
1.000039772e-05
1.000039988e-05
1.000041128e-05
1.000046023e-05
1.00006674e-05
1.000156305e-05
1.000544009e-05
1.002220943e-05
1.009441486e-05
1.040105427e-05
1.166434219e-05
1.65574415e-05
3.323386871e-05
7.510806306e-05
1.000039652e-05
1.000039696e-05
1.000039954e-05
1.000040784e-05
1.000044341e-05
1.000059228e-05
1.000120051e-05
1.000367814e-05
1.001366526e-05
1.005315978e-05
1.020456476e-05
1.0756152e-05
1.260197063e-05
1.792303229e-05
2.939319647e-05
1.000039764e-05
1.000039699e-05
1.000039831e-05
1.000040417e-05
1.000042852e-05
1.000052447e-05
1.000089299e-05
1.000229219e-05
1.000750653e-05
1.00263757e-05
1.009184616e-05
1.030538659e-05
1.093978691e-05
1.256735723e-05
1.584399343e-05
1.000039712e-05
1.000039713e-05
1.000039834e-05
1.00004028e-05
1.00004206e-05
1.000048772e-05
1.00007323e-05
1.00016054e-05
1.000463841e-05
1.001477689e-05
1.004700313e-05
1.014269451e-05
1.040126802e-05
1.101285936e-05
1.221038865e-05
1.000039814e-05
1.000039805e-05
1.000039828e-05
1.000040426e-05
1.000042343e-05
1.000049631e-05
1.000076859e-05
1.000175116e-05
1.000521861e-05
1.00170393e-05
1.005550963e-05
1.017299166e-05
1.05006716e-05
1.129967332e-05
1.000039665e-05
1.000039765e-05
1.000040032e-05
1.000040641e-05
1.000043226e-05
1.000053731e-05
1.000095337e-05
1.000256278e-05
1.000870003e-05
1.00315855e-05
1.011405319e-05
1.039627725e-05
1.128578149e-05
1.372330621e-05
1.00003982e-05
1.000039817e-05
1.00004006e-05
1.000040903e-05
1.000044994e-05
1.000061683e-05
1.000131582e-05
1.000424094e-05
1.001642451e-05
1.006673888e-05
1.027101533e-05
1.107414916e-05
1.404468485e-05
2.375773399e-05
1.000039678e-05
1.000039691e-05
1.000040104e-05
1.000041446e-05
1.000046845e-05
1.000070595e-05
1.000175525e-05
1.00064511e-05
1.002770142e-05
1.012498701e-05
1.057463032e-05
1.265775983e-05
2.215595862e-05
6.277359399e-05
1.00003972e-05
1.000039746e-05
1.000039986e-05
1.000041395e-05
1.000047574e-05
1.000074914e-05
1.000199355e-05
1.000778695e-05
1.003554247e-05
1.017347707e-05
1.089199534e-05
1.485947563e-05
3.832475396e-05
0.0001880120829
0.001222896885
1.000039846e-05
1.000039711e-05
1.000039925e-05
1.000041225e-05
1.000046701e-05
1.000070495e-05
1.000175572e-05
1.000645168e-05
1.002770123e-05
1.012498429e-05
1.057461717e-05
1.265766473e-05
2.215523192e-05
6.276768419e-05
0.000201166591
1.000039735e-05
1.000039659e-05
1.000040052e-05
1.000040998e-05
1.00004492e-05
1.000061547e-05
1.000131566e-05
1.000424072e-05
1.001642372e-05
1.00667361e-05
1.027100281e-05
1.107408238e-05
1.404431121e-05
2.375575452e-05
4.74803904e-05
1.000039804e-05
1.000039746e-05
1.000039896e-05
1.000040559e-05
1.000043212e-05
1.000053765e-05
1.000095315e-05
1.000256266e-05
1.000870069e-05
1.003158251e-05
1.011404598e-05
1.039624375e-05
1.128563374e-05
1.372271498e-05
1.885090107e-05
1.000039726e-05
1.000039753e-05
1.000039863e-05
1.000040359e-05
1.000042322e-05
1.000049605e-05
1.000076815e-05
1.000175148e-05
1.000521773e-05
1.001703822e-05
1.005550534e-05
1.017297669e-05
1.050060827e-05
1.129946292e-05
1.288263347e-05
1.000039758e-05
1.00003976e-05
1.000039908e-05
1.000040336e-05
1.000042195e-05
1.000048871e-05
1.000073266e-05
1.000160689e-05
1.000463967e-05
1.001477896e-05
1.004700975e-05
1.014271342e-05
1.040132788e-05
1.101303738e-05
1.000039743e-05
1.000039796e-05
1.000040016e-05
1.0000406e-05
1.000042932e-05
1.000052568e-05
1.000089391e-05
1.000229424e-05
1.000750832e-05
1.00263792e-05
1.009185668e-05
1.030542364e-05
1.093992161e-05
1.256780167e-05
1.000039774e-05
1.00003988e-05
1.00004004e-05
1.000040905e-05
1.000044486e-05
1.000059318e-05
1.000120062e-05
1.000367929e-05
1.001366701e-05
1.005316572e-05
1.02045847e-05
1.07562353e-05
1.260232004e-05
1.792437013e-05
1.000039731e-05
1.000039765e-05
1.000040014e-05
1.000041167e-05
1.000046019e-05
1.000066884e-05
1.000156638e-05
1.000544113e-05
1.00222113e-05
1.009442323e-05
1.040108901e-05
1.166451523e-05
1.655828174e-05
3.323769409e-05
1.000039794e-05
1.000039874e-05
1.000040091e-05
1.000041295e-05
1.000046758e-05
1.000070492e-05
1.000175542e-05
1.000645236e-05
1.002770274e-05
1.012499107e-05
1.057464937e-05
1.265784338e-05
2.21563127e-05
6.277473828e-05
1.000039818e-05
1.000039782e-05
1.000039937e-05
1.000041078e-05
1.000045908e-05
1.000066698e-05
1.000156413e-05
1.000543977e-05
1.002221123e-05
1.009442224e-05
1.040108593e-05
1.16644944e-05
1.655814966e-05
3.32371458e-05
1.000039726e-05
1.000039846e-05
1.000039944e-05
1.000040866e-05
1.000044359e-05
1.000059262e-05
1.00011998e-05
1.00036781e-05
1.001366628e-05
1.005316417e-05
1.020457707e-05
1.075620493e-05
1.260217339e-05
1.792373806e-05
2.939539212e-05
1.00003971e-05
1.000039768e-05
1.000039961e-05
1.000040568e-05
1.000042862e-05
1.000052397e-05
1.000089219e-05
1.000229142e-05
1.000750632e-05
1.002637651e-05
1.00918506e-05
1.030540322e-05
1.093984029e-05
1.256751164e-05
1.584434103e-05
1.000039738e-05
1.000039748e-05
1.000039848e-05
1.000040295e-05
1.000042204e-05
1.000048782e-05
1.00007319e-05
1.000160683e-05
1.000463895e-05
1.001477721e-05
1.004700511e-05
1.014270126e-05
1.040128483e-05
1.101289926e-05
1.221046361e-05
1.000039713e-05
1.000039756e-05
1.000039815e-05
1.000040211e-05
1.000041711e-05
1.000046946e-05
1.000065402e-05
1.000129876e-05
1.000345746e-05
1.001040654e-05
1.003160616e-05
1.009187756e-05
1.024797486e-05
1.060502814e-05
1.000039657e-05
1.000039759e-05
1.000039915e-05
1.000040489e-05
1.000042386e-05
1.000049528e-05
1.000076379e-05
1.000174926e-05
1.00052579e-05
1.001731509e-05
1.005678458e-05
1.017749042e-05
1.051263858e-05
1.13215383e-05
1.000039675e-05
1.000039761e-05
1.000039888e-05
1.00004071e-05
1.00004334e-05
1.000054254e-05
1.000096848e-05
1.000262609e-05
1.000893271e-05
1.003225363e-05
1.011495076e-05
1.039035041e-05
1.122384056e-05
1.339236316e-05
1.000039764e-05
1.00003982e-05
1.000040001e-05
1.000040852e-05
1.000044437e-05
1.000059198e-05
1.000120018e-05
1.000367891e-05
1.001366733e-05
1.005316595e-05
1.020458619e-05
1.075624399e-05
1.260234149e-05
1.792438419e-05
1.000039847e-05
1.000039836e-05
1.000040058e-05
1.000040999e-05
1.00004489e-05
1.000061625e-05
1.000131693e-05
1.000424223e-05
1.00164265e-05
1.006674275e-05
1.027102782e-05
1.107419476e-05
1.404482089e-05
2.375794505e-05
1.00003971e-05
1.000039699e-05
1.00003996e-05
1.000040762e-05
1.000044378e-05
1.000059295e-05
1.000119999e-05
1.000367799e-05
1.001366665e-05
1.005316509e-05
1.020458543e-05
1.075623879e-05
1.260231143e-05
1.79242864e-05
1.000039619e-05
1.000039708e-05
1.000039956e-05
1.000040616e-05
1.000043293e-05
1.000054171e-05
1.000096938e-05
1.000262511e-05
1.000893034e-05
1.003225262e-05
1.011494816e-05
1.03903404e-05
1.122381006e-05
1.339231449e-05
1.000039716e-05
1.000039699e-05
1.000039796e-05
1.000040337e-05
1.000042267e-05
1.000049492e-05
1.000076383e-05
1.000174845e-05
1.000525651e-05
1.001731405e-05
1.005678232e-05
1.017748111e-05
1.051261041e-05
1.132145141e-05
1.291140487e-05
1.000039694e-05
1.000039688e-05
1.00003986e-05
1.000040184e-05
1.000041613e-05
1.00004675e-05
1.000065404e-05
1.000129841e-05
1.000345596e-05
1.001040519e-05
1.003160244e-05
1.009186976e-05
1.024795429e-05
1.060496685e-05
1.129929592e-05
1.000039712e-05
1.000039731e-05
1.000039711e-05
1.000040052e-05
1.000041167e-05
1.00004506e-05
1.000058006e-05
1.000101036e-05
1.000239597e-05
1.000665768e-05
1.001906676e-05
1.005275422e-05
1.013647696e-05
1.032260504e-05
1.000039658e-05
1.000039713e-05
1.00003987e-05
1.000040207e-05
1.000041766e-05
1.000046698e-05
1.0000645e-05
1.000126874e-05
1.000337216e-05
1.001018827e-05
1.003114369e-05
1.009123609e-05
1.024815893e-05
1.060930074e-05
1.000039773e-05
1.000039881e-05
1.000039895e-05
1.000040472e-05
1.000042383e-05
1.000049526e-05
1.000076445e-05
1.000174859e-05
1.000525705e-05
1.001731429e-05
1.005678419e-05
1.017749037e-05
1.051264029e-05
1.132154151e-05
1.000039781e-05
1.000039817e-05
1.000039832e-05
1.000040498e-05
1.000042903e-05
1.000052502e-05
1.000089215e-05
1.000229279e-05
1.000750784e-05
1.002637986e-05
1.009185816e-05
1.030542915e-05
1.093993449e-05
1.256781343e-05
1.000039601e-05
1.000039749e-05
1.000039834e-05
1.000040547e-05
1.000043131e-05
1.000053707e-05
1.000095341e-05
1.000256318e-05
1.000870229e-05
1.00315864e-05
1.011405898e-05
1.039629207e-05
1.128581466e-05
1.372333421e-05
1.000039532e-05
1.000039736e-05
1.000039873e-05
1.000040556e-05
1.000042974e-05
1.000052417e-05
1.000089236e-05
1.000229247e-05
1.000750655e-05
1.002638009e-05
1.009185786e-05
1.030542753e-05
1.093992539e-05
1.256778719e-05
1.000039607e-05
1.000039634e-05
1.000039768e-05
1.000040427e-05
1.000042252e-05
1.000049455e-05
1.000076329e-05
1.000174835e-05
1.000525612e-05
1.001731513e-05
1.005678296e-05
1.017748676e-05
1.051263077e-05
1.132152387e-05
1.000039564e-05
1.000039618e-05
1.000039746e-05
1.000040085e-05
1.000041466e-05
1.000046554e-05
1.00006444e-05
1.000126815e-05
1.000337105e-05
1.001018524e-05
1.003114087e-05
1.009123034e-05
1.024814988e-05
1.060929267e-05
1.000039652e-05
1.000039673e-05
1.00003971e-05
1.00004003e-05
1.000041099e-05
1.000044884e-05
1.000057845e-05
1.00010092e-05
1.000239579e-05
1.000665795e-05
1.0019064e-05
1.005275164e-05
1.013646995e-05
1.03225874e-05
1.068379626e-05
1.000039703e-05
1.000039825e-05
1.000039802e-05
1.000040111e-05
1.000040947e-05
1.000043878e-05
1.000053608e-05
1.00008498e-05
1.000181785e-05
1.000468388e-05
1.001269541e-05
1.00336149e-05
1.008389734e-05
1.019333208e-05
1.000039774e-05
1.000039794e-05
1.000039849e-05
1.00004013e-05
1.000041259e-05
1.000045008e-05
1.000057856e-05
1.000100888e-05
1.000239518e-05
1.000665753e-05
1.001906584e-05
1.005275445e-05
1.013647743e-05
1.032260787e-05
1.000039813e-05
1.000039728e-05
1.000039826e-05
1.000040248e-05
1.000041756e-05
1.000046944e-05
1.000065546e-05
1.000129774e-05
1.000345741e-05
1.001040723e-05
1.003160538e-05
1.009187691e-05
1.024797636e-05
1.060503155e-05
1.00003979e-05
1.000039874e-05
1.000039855e-05
1.00004027e-05
1.000042122e-05
1.000048861e-05
1.000073325e-05
1.000160664e-05
1.000464012e-05
1.001477945e-05
1.004701042e-05
1.014271637e-05
1.040133389e-05
1.101304083e-05
1.000039672e-05
1.000039822e-05
1.00003987e-05
1.000040418e-05
1.00004232e-05
1.000049666e-05
1.000076871e-05
1.000175138e-05
1.00052179e-05
1.001703861e-05
1.005551098e-05
1.01729983e-05
1.050068289e-05
1.129967984e-05
1.000039718e-05
1.000039698e-05
1.000039852e-05
1.000040252e-05
1.000042112e-05
1.000048875e-05
1.000073324e-05
1.000160658e-05
1.000463932e-05
1.001477868e-05
1.00470102e-05
1.014271525e-05
1.040132767e-05
1.101302709e-05
1.000039707e-05
1.000039729e-05
1.000039759e-05
1.000040012e-05
1.000041569e-05
1.000046848e-05
1.000065355e-05
1.000129719e-05
1.000345648e-05
1.001040645e-05
1.003160519e-05
1.009187584e-05
1.024797096e-05
1.060501906e-05
1.000039567e-05
1.000039613e-05
1.000039741e-05
1.000039964e-05
1.000041065e-05
1.000044823e-05
1.00005786e-05
1.000100915e-05
1.000239444e-05
1.000665646e-05
1.001906458e-05
1.005275294e-05
1.013647398e-05
1.032260186e-05
1.000039597e-05
1.000039491e-05
1.000039704e-05
1.000039998e-05
1.00004084e-05
1.00004374e-05
1.00005351e-05
1.000084856e-05
1.00018174e-05
1.000468277e-05
1.001269385e-05
1.003361441e-05
1.008389477e-05
1.019333135e-05
)
;

boundaryField
{
    top
    {
        type            zeroGradient;
    }
    bottom
    {
        type            zeroGradient;
    }
    side-walls
    {
        type            zeroGradient;
    }
    inlet
    {
        type            zeroGradient;
    }
    outlet
    {
        type            zeroGradient;
    }
    procBoundary0to1
    {
        type            processor;
        value           nonuniform List<scalar> 
97
(
1.077083252e-05
1.068379835e-05
1.128705456e-05
1.241481171e-05
1.40440232e-05
1.518851255e-05
1.404398384e-05
1.241474919e-05
1.128699717e-05
1.077079053e-05
1.068379835e-05
1.068379835e-05
1.243193919e-05
1.291143832e-05
1.52761335e-05
2.025278751e-05
2.486649924e-05
2.025261275e-05
1.527592411e-05
1.243181217e-05
1.128700207e-05
1.129931428e-05
1.291143832e-05
1.291143832e-05
2.354606063e-05
2.939587879e-05
4.164524538e-05
6.494035141e-05
4.164439568e-05
2.354538657e-05
1.527592505e-05
1.241475558e-05
1.221053875e-05
1.584455411e-05
2.939587879e-05
2.939587879e-05
0.0001028136251
0.0002011877915
0.0002208304511
0.000102810729
4.164446968e-05
2.025260991e-05
1.404398924e-05
1.288280487e-05
1.8851538e-05
4.748357923e-05
0.0002011877915
0.0002011877915
0.000722666924
0.0002011875162
0.0002208303876
7.51145128e-05
6.494031836e-05
2.486644935e-05
1.518851111e-05
1.221052792e-05
1.584439231e-05
2.939464264e-05
7.511351109e-05
0.0002011875162
7.51145128e-05
7.51145128e-05
4.164522329e-05
1.777589708e-05
2.025286443e-05
1.404406807e-05
1.129928183e-05
1.291121526e-05
1.777546776e-05
2.939463798e-05
4.748370057e-05
2.939466552e-05
1.777589708e-05
1.777589708e-05
1.527611971e-05
1.131213482e-05
1.241484188e-05
1.068374671e-05
1.13120503e-05
1.291122207e-05
1.584440734e-05
1.885154755e-05
1.58443851e-05
1.291125649e-05
1.131213482e-05
1.131213482e-05
1.128705443e-05
1.040573617e-05
1.040571173e-05
1.068374946e-05
1.129928779e-05
1.221053282e-05
1.288280372e-05
1.221051268e-05
1.129927609e-05
1.068375892e-05
1.040573617e-05
)
;
    }
}


// ************************************************************************* //
