/*--------------------------------*- C++ -*----------------------------------*\
| =========                 |                                                 |
| \\      /  F ield         | OpenFOAM: The Open Source CFD Toolbox           |
|  \\    /   O peration     | Version:  4.x                                   |
|   \\  /    A nd           | Web:      www.OpenFOAM.org                      |
|    \\/     M anipulation  |                                                 |
\*---------------------------------------------------------------------------*/
FoamFile
{
    version     2.0;
    format      ascii;
    class       volScalarField;
    location    "8000";
    object      molarConc;
}
// * * * * * * * * * * * * * * * * * * * * * * * * * * * * * * * * * * * * * //

dimensions      [0 -3 0 0 1 0 0];

internalField   nonuniform List<scalar> 
1175
(
9.963285729
9.963285716
9.963285754
9.963285077
9.963286073
9.963285037
9.963284923
9.963284372
9.963284477
9.963284587
9.963285485
9.963285676
9.963284359
9.963283107
9.963282171
9.963268216
9.963268407
9.96326995
9.963270487
9.963269506
9.963269371
9.963269201
9.96326901
9.96326867
9.963269005
9.963269879
9.963270059
9.963269119
9.963267957
9.963267828
9.963314392
9.96331447
9.963313022
9.963313843
9.963314134
9.963314218
9.963314521
9.96331277
9.963313786
9.963312761
9.963312103
9.963311958
9.96331161
9.963311351
9.963308938
9.963287309
9.963287813
9.963288866
9.963289038
9.963288219
9.963289845
9.96328937
9.96328975
9.963290411
9.963290154
9.963289411
9.963288863
9.963289461
9.963286804
9.963282955
9.96328621
9.96328534
9.963285751
9.963285541
9.963286138
9.9632868
9.963286396
9.963285867
9.963286925
9.963285436
9.963284805
9.963285288
9.963285314
9.963283764
9.963277562
9.963264144
9.963262952
9.963263232
9.96326176
9.963264169
9.963264105
9.963264241
9.963265225
9.963266205
9.963265773
9.963266443
9.963266463
9.963265229
9.963262876
9.96325947
9.96328471
9.963285429
9.963285188
9.963284909
9.963284924
9.963286291
9.963287679
9.963287779
9.963287335
9.963286767
9.963286412
9.963285659
9.963285903
9.963284158
9.963283568
9.963291221
9.963290188
9.963289187
9.963290139
9.963289691
9.963290149
9.963288099
9.963288705
9.963289127
9.963289024
9.963289884
9.963289027
9.963290527
9.963288508
9.963287464
9.963281122
9.963281301
9.963282209
9.963282328
9.963282409
9.963281333
9.963280623
9.963281383
9.963280069
9.963279342
9.963279613
9.963279647
9.963278795
9.96327896
9.963279521
9.963254125
9.963253552
9.963254008
9.963253126
9.963252452
9.963252794
9.963252227
9.963252582
9.963253581
9.963252973
9.963251118
9.963251093
9.963250762
9.963250024
9.963269136
9.963268371
9.963268232
9.963268976
9.963269132
9.963269397
9.963268854
9.963268947
9.963267933
9.963267007
9.963267174
9.96326642
9.963266631
9.963266749
9.963264283
9.963279227
9.963279281
9.963277515
9.963276866
9.963276741
9.963275748
9.963276497
9.963277661
9.963277956
9.963276994
9.963276491
9.963275679
9.963273895
9.96327276
9.963266307
9.963290758
9.963291283
9.963290827
9.963290741
9.963291027
9.963289565
9.963289348
9.963288068
9.963288094
9.963287199
9.963285959
9.963284696
9.96328222
9.963274886
9.963263689
9.963217227
9.963217546
9.963217565
9.963217307
9.96321846
9.963218594
9.963219172
9.963218246
9.96321822
9.963218067
9.963217823
9.963215608
9.963211981
9.96320457
9.963185806
9.963246969
9.963247032
9.963248793
9.963248818
9.963249379
9.963249469
9.963248422
9.963247023
9.963247473
9.963247658
9.963247464
9.963246951
9.963244475
9.963239069
9.963227951
9.963267669
9.963267406
9.963266436
9.963266202
9.963265809
9.963266344
9.963265464
9.963266049
9.963264849
9.963264975
9.963264798
9.963265855
9.963263255
9.963260723
9.963255771
9.963272003
9.963272354
9.963273433
9.963274206
9.963273872
9.963272281
9.963273791
9.963273098
9.963273393
9.963273076
9.96327388
9.963275265
9.963273292
9.963272538
9.96327077
9.963251905
9.963251567
9.963251958
9.963252169
9.963253045
9.963252541
9.963253121
9.963253038
9.963253975
9.963254237
9.963254161
9.963252737
9.963253327
9.963252587
9.963250668
9.963301317
9.963300912
9.963299455
9.963300498
9.963299374
9.963297602
9.963297409
9.963297332
9.9632983
9.963297374
9.963298026
9.963299135
9.963297859
9.963295955
9.963285733
9.963285697
9.963286432
9.96328552
9.963285455
9.963284834
9.963285371
9.963285236
9.963285989
9.963286421
9.963286185
9.963286281
9.96328463
9.96328014
9.963239032
9.963237497
9.963237619
9.963237371
9.963236565
9.963235921
9.96323599
9.963235801
9.963236565
9.963237896
9.963239073
9.963238431
9.963236001
9.963227278
9.963211338
9.963305787
9.963306215
9.963305996
9.963306157
9.963306693
9.963305929
9.963306036
9.963307713
9.963309066
9.963308725
9.963308645
9.963305486
9.963298726
9.963279243
9.963236862
9.963242353
9.96324248
9.963242424
9.963241818
9.9632419
9.963241607
9.963240246
9.963240905
9.96324101
9.963240484
9.963239194
9.963236458
9.963224003
9.963189666
9.963103347
9.963312815
9.963312768
9.963312443
9.963311876
9.963311212
9.963311248
9.963311029
9.963311348
9.963310857
9.963312553
9.963313288
9.963310921
9.963304136
9.963283616
9.963240657
9.963342901
9.963344184
9.963345039
9.963345609
9.96334528
9.963344877
9.963345447
9.963345753
9.963345721
9.96334534
9.963345181
9.963343919
9.963340563
9.963333984
9.963318524
9.963249839
9.963249347
9.963249379
9.963248912
9.963250108
9.963249657
9.96325016
9.963249106
9.963248802
9.963249029
9.963249836
9.963248466
9.963245801
9.963242448
9.96323602
9.963277365
9.963277861
9.963278305
9.963278256
9.963277254
9.963275992
9.963276971
9.963277523
9.963277893
9.963277461
9.963276997
9.963276506
9.963275872
9.963274113
9.963272055
9.963324595
9.963324503
9.96332377
9.963323899
9.963324797
9.963323294
9.963323659
9.96332367
9.963323713
9.963323487
9.96332245
9.96332343
9.963322446
9.963318749
9.96323725
9.963237286
9.963238277
9.963236627
9.963236288
9.963237264
9.963237883
9.963238374
9.963238193
9.963238628
9.96323799
9.963236841
9.963236328
9.963231268
9.963233505
9.963233682
9.963233763
9.963234184
9.963234264
9.963232776
9.96323183
9.96323147
9.963231554
9.963229641
9.963228211
9.96322541
9.963218706
9.96319868
9.963186081
9.963186751
9.963186637
9.963187332
9.963187421
9.963188853
9.963188236
9.963187424
9.963186726
9.963185963
9.963185404
9.963180713
9.963162657
9.963102349
9.962950196
9.963278761
9.963278998
9.96327909
9.963279991
9.963278659
9.963278104
9.963277493
9.963276716
9.963276051
9.963274844
9.963273983
9.963265054
9.963228657
9.963079076
9.962589413
9.963330069
9.963330079
9.963329455
9.963329574
9.963328774
9.963328638
9.963329737
9.963329951
9.963328848
9.963329572
9.963328937
9.963325577
9.963307408
9.963246847
9.963094838
9.963237943
9.963238521
9.963238212
9.963236441
9.963235971
9.963236365
9.963236373
9.963236086
9.963236995
9.963237872
9.96323812
9.963235681
9.96322901
9.963208883
9.963167585
9.963292673
9.963291675
9.963290744
9.963290435
9.963291177
9.963291461
9.963291423
9.963290962
9.963291622
9.963290491
9.963289726
9.96328878
9.963285176
9.963277835
9.963267682
9.963260921
9.96326006
9.963259378
9.963260664
9.963261402
9.963262735
9.963264018
9.963263796
9.963264946
9.963264652
9.963262597
9.963262518
9.963261341
9.963259048
9.963255245
9.963290457
9.963291029
9.963289466
9.963290504
9.963291092
9.963289451
9.96328864
9.963289687
9.963289237
9.963289943
9.963289331
9.963288925
9.963288459
9.963285167
9.963246318
9.963248472
9.963249431
9.963249558
9.96325107
9.963250372
9.963250724
9.963250468
9.96324987
9.963250621
9.963251162
9.963250873
9.963248652
9.96324153
9.963270951
9.963270564
9.963271108
9.963271661
9.963270823
9.963272285
9.96327284
9.963273447
9.963272531
9.963272761
9.963272851
9.963269345
9.963258603
9.963222897
9.963290001
9.963289915
9.963289725
9.963290505
9.963289803
9.96328895
9.963288142
9.963288183
9.963289264
9.963290336
9.963288941
9.963282331
9.963246934
9.963098249
9.963275161
9.963275438
9.963274844
9.963275495
9.963274899
9.9632747
9.963274475
9.963273799
9.96327477
9.963276071
9.963274013
9.9632586
9.963172343
9.96262548
9.991806065
9.963297324
9.963295696
9.963295066
9.963294606
9.963294369
9.963295556
9.963296917
9.963298076
9.963298028
9.963296778
9.963294912
9.96328744
9.963252541
9.963104199
9.962614048
9.963316427
9.963315223
9.963316197
9.963318186
9.963318557
9.963317768
9.963316438
9.963315852
9.963314341
9.963314672
9.963313763
9.963311161
9.963300239
9.963265396
9.96317991
9.963321668
9.963321767
9.963320393
9.963319975
9.963318983
9.963318375
9.963318143
9.963319719
9.963319576
9.963318068
9.963317318
9.963318071
9.963314966
9.963304733
9.9632869
9.963287394
9.963288568
9.963287753
9.963287707
9.963286939
9.963286873
9.963285769
9.963285636
9.963285021
9.963285102
9.963286653
9.963286844
9.963284123
9.9632806
9.96327495
9.963232633
9.963231304
9.963231423
9.963231096
9.96323096
9.9632312
9.963230152
9.963231504
9.963230893
9.963230525
9.963230353
9.963229687
9.963229598
9.963226263
9.963278452
9.963278664
9.963279234
9.963277929
9.963278934
9.963281143
9.963279797
9.963280468
9.963279843
9.963280177
9.9632792
9.963278447
9.96327659
9.963271054
9.963263471
9.96326358
9.963261887
9.963262299
9.963262482
9.963260661
9.963260614
9.963260819
9.963260352
9.963260726
9.963261782
9.963259303
9.963252573
9.963232167
9.963290382
9.963290006
9.963289695
9.963290723
9.963290547
9.963292059
9.963293634
9.963293183
9.963293307
9.963293659
9.963294193
9.963290286
9.96327271
9.963210477
9.963247568
9.963248346
9.963248499
9.963247657
9.963248474
9.963248253
9.963247416
9.963248605
9.963248297
9.96324596
9.963243338
9.96323609
9.963201541
9.963055031
9.963217685
9.963215501
9.963215275
9.963214752
9.963215197
9.963214847
9.963214124
9.963213537
9.963213869
9.963213685
9.963212633
9.96320853
9.963191369
9.963130159
9.963263236
9.96326291
9.96326116
9.963260978
9.963261232
9.963261616
9.963261389
9.96326206
9.963262942
9.963263483
9.963262279
9.963260211
9.963253542
9.963235478
9.963193736
9.963289282
9.963290339
9.963290419
9.963290479
9.963288975
9.963288913
9.963288708
9.963289607
9.963291019
9.963291313
9.96329003
9.963290642
9.963288076
9.963280962
9.963269279
9.96327176
9.9632729
9.9632725
9.963272481
9.963273423
9.963272971
9.963273898
9.963273231
9.963272654
9.963270355
9.963270347
9.963269866
9.963269134
9.963267166
9.963261979
9.963302255
9.963301955
9.963301484
9.963301463
9.963301287
9.96330175
9.963301207
9.963301395
9.963301739
9.963302673
9.963302631
9.963302193
9.963301212
9.963300492
9.963266837
9.963266733
9.963267883
9.96326813
9.963268586
9.963268374
9.963267942
9.963267534
9.963267847
9.963266743
9.963265628
9.963265851
9.96326387
9.963260787
9.963313184
9.963312687
9.963312754
9.963313441
9.963312056
9.963313864
9.963313245
9.963313672
9.963314271
9.963313462
9.963313591
9.963312784
9.963309432
9.963301429
9.963313993
9.963313079
9.963312468
9.963313224
9.963313624
9.963311988
9.963310892
9.963310692
9.963311384
9.963310497
9.963309848
9.963307551
9.963300755
9.963283434
9.963218096
9.963218571
9.963218113
9.963217966
9.963216086
9.963216991
9.963217906
9.963218731
9.963219831
9.963220312
9.963219587
9.963216013
9.963203881
9.963167408
9.963285214
9.963285627
9.963285952
9.963285398
9.96328728
9.963289382
9.96328982
9.963287577
9.963286987
9.963286682
9.963286994
9.96328371
9.963274781
9.963255276
9.963282838
9.963281879
9.963281917
9.963282893
9.963283729
9.963284743
9.963285295
9.963284402
9.963284621
9.963285435
9.963284518
9.963283641
9.963280076
9.963271432
9.963259758
9.96325997
9.963260442
9.963261045
9.963261402
9.963260002
9.96325933
9.963257966
9.963258087
9.963258244
9.963258213
9.963259489
9.963258099
9.963255856
9.963249729
9.963287393
9.963285417
9.963285667
9.963285841
9.963285956
9.963285531
9.96328622
9.963286824
9.963285923
9.963285241
9.963285463
9.963285731
9.963283953
9.963282326
9.963279748
9.963294634
9.963294617
9.963293476
9.963293539
9.96329368
9.963294761
9.963295104
9.963294022
9.963294254
9.963294423
9.963294692
9.963294299
9.963292636
9.963291461
9.963286533
9.963287359
9.963289378
9.963289283
9.963289551
9.96328999
9.963288969
9.96328919
9.963290063
9.963290458
9.963290278
9.963290741
9.963291178
9.963290453
9.963249173
9.963249394
9.963248695
9.963248716
9.96324955
9.963249313
9.963249334
9.963247615
9.963249393
9.963248714
9.963247585
9.963246258
9.963242858
9.963240722
9.963241438
9.963241618
9.963241323
9.963240315
9.963239718
9.963239519
9.96323916
9.963239567
9.963239006
9.963239052
9.963239964
9.963238638
9.963236037
9.96322853
9.963274871
9.963276466
9.963276147
9.963277
9.963276159
9.963277847
9.963279465
9.963280341
9.96328102
9.963279924
9.963279807
9.963278751
9.963275414
9.963266603
9.963229349
9.96322966
9.963228909
9.963229481
9.963230421
9.963228707
9.963229572
9.963230219
9.963230246
9.963231035
9.963229929
9.963229128
9.963227867
9.963222712
9.963307443
9.963307425
9.963307508
9.963307175
9.963307487
9.963307474
9.963306131
9.963304241
9.963303122
9.963303045
9.963302639
9.963301459
9.963301408
9.963297599
9.963289133
9.963288377
9.963288947
9.963290024
9.963290805
9.963291292
9.963292728
9.963292489
9.96329348
9.963293563
9.963293421
9.963294216
9.963293612
9.963293438
9.963258156
9.963258415
9.9632588
9.963259073
9.963259345
9.963259145
9.963259044
9.963259534
9.963260083
9.963260289
9.963258559
9.963258468
9.963258339
9.963257928
9.963255643
9.963292707
9.963293417
9.963293149
9.963293676
9.963292605
9.963292477
9.963293417
9.963293483
9.963292638
9.963293042
9.963292516
9.963293121
9.963293853
9.963293312
9.963279086
9.963278616
9.963278727
9.963277644
9.963278286
9.96327859
9.963276801
9.96327642
9.963277843
9.963277693
9.963277854
9.963277296
9.963277864
9.963277586
9.963272137
9.963271558
9.963272197
9.963272964
9.963273474
9.963273082
9.963273854
9.96327322
9.963271894
9.963271998
9.963271833
9.963270918
9.963269815
9.963268896
9.963263676
9.963264089
9.963263488
9.963262885
9.963264368
9.963264377
9.963264835
9.963264387
9.96326385
9.963263447
9.963263581
9.963263566
9.96326369
9.963260429
9.963300035
9.963300323
9.963300325
9.963300387
9.963299408
9.963298528
9.963299374
9.963299376
9.963298241
9.96329925
9.96329726
9.963296097
9.963294507
9.963292423
9.963290983
9.963290838
9.963290205
9.963291019
9.963291143
9.96329206
9.963290206
9.96329047
9.963290906
9.963291257
9.963291877
9.963292234
9.96329151
9.963288741
9.963351335
9.963352823
9.963352347
9.963353468
9.963353662
9.963352825
9.963353536
9.963353719
9.963353341
9.963353907
9.963353523
9.963353355
9.963352845
9.963351125
9.963274301
9.9632747
9.963275001
9.963273419
9.963274184
9.963274249
9.963274157
9.96327459
9.963273949
9.963273596
9.963273531
9.963273544
9.963274133
9.963273209
9.963268296
9.963267197
9.96326751
9.963268547
9.963268753
9.963269263
9.963269969
9.963268844
9.963269977
9.963268949
9.963269056
9.963268863
9.963267852
9.963267644
)
;

boundaryField
{
    top
    {
        type            calculated;
        value           nonuniform List<scalar> 
134
(
9.963281122
9.963251905
9.963277365
9.963260921
9.963287394
9.96327176
9.963287393
9.963258156
9.963268296
9.963281301
9.963251567
9.963277861
9.96326006
9.963288568
9.9632729
9.963285417
9.963258415
9.963267197
9.963282209
9.963251958
9.963278305
9.963259378
9.963287753
9.9632725
9.963285667
9.9632588
9.96326751
9.963282328
9.963252169
9.963278256
9.963260664
9.963287707
9.963272481
9.963285841
9.963259073
9.963268547
9.963282409
9.963253045
9.963277254
9.963261402
9.963286939
9.963273423
9.963285956
9.963259345
9.963268753
9.963281333
9.963252541
9.963275992
9.963262735
9.963286873
9.963272971
9.963285531
9.963259145
9.963269263
9.963280623
9.963253121
9.963276971
9.963264018
9.963285769
9.963273898
9.96328622
9.963259044
9.963269969
9.963281383
9.963253038
9.963277523
9.963263796
9.963285636
9.963273231
9.963286824
9.963259534
9.963268844
9.963280069
9.963253975
9.963277893
9.963264946
9.963285021
9.963272654
9.963285923
9.963260083
9.963269977
9.963279342
9.963254237
9.963277461
9.963264652
9.963285102
9.963270355
9.963285241
9.963260289
9.963268949
9.963279613
9.963254161
9.963276997
9.963262597
9.963286653
9.963270347
9.963285463
9.963258559
9.963269056
9.963279647
9.963252737
9.963276506
9.963262518
9.963286844
9.963269866
9.963285731
9.963258468
9.963268863
9.963278795
9.963253327
9.963275872
9.963261341
9.963284123
9.963269134
9.963283953
9.963258339
9.963267852
9.96327896
9.963252587
9.963274113
9.963259048
9.9632806
9.963267166
9.963282326
9.963257928
9.963267644
9.963279521
9.963250668
9.963272055
9.963255245
9.96327495
9.963261979
9.963279748
9.963255643
)
;
    }
    bottom
    {
        type            calculated;
        value           nonuniform List<scalar> 
127
(
9.963285729
9.963254125
9.963301317
9.963324595
9.963290457
9.963232633
9.963302255
9.963294634
9.963292707
9.963285716
9.963253552
9.963300912
9.963324503
9.963291029
9.963231304
9.963301955
9.963294617
9.963293417
9.963285754
9.963254008
9.963299455
9.96332377
9.963289466
9.963231423
9.963301484
9.963293476
9.963293149
9.963285077
9.963253126
9.963300498
9.963323899
9.963290504
9.963231096
9.963301463
9.963293539
9.963293676
9.963286073
9.963252452
9.963299374
9.963324797
9.963291092
9.96323096
9.963301287
9.96329368
9.963292605
9.963285037
9.963252794
9.963297602
9.963323294
9.963289451
9.9632312
9.96330175
9.963294761
9.963292477
9.963284923
9.963252227
9.963297409
9.963323659
9.96328864
9.963230152
9.963301207
9.963295104
9.963293417
9.963284372
9.963252582
9.963297332
9.96332367
9.963289687
9.963231504
9.963301395
9.963294022
9.963293483
9.963284477
9.963253581
9.9632983
9.963323713
9.963289237
9.963230893
9.963301739
9.963294254
9.963292638
9.963284587
9.963252973
9.963297374
9.963323487
9.963289943
9.963230525
9.963302673
9.963294423
9.963293042
9.963285485
9.963251118
9.963298026
9.96332245
9.963289331
9.963230353
9.963302631
9.963294692
9.963292516
9.963285676
9.963251093
9.963299135
9.96332343
9.963288925
9.963229687
9.963302193
9.963294299
9.963293121
9.963284359
9.963250762
9.963297859
9.963322446
9.963288459
9.963229598
9.963301212
9.963292636
9.963293853
9.963283107
9.963250024
9.963295955
9.963318749
9.963285167
9.963226263
9.963300492
9.963291461
9.963293312
9.963282171
)
;
    }
    side-walls
    {
        type            calculated;
        value           nonuniform List<scalar> 
261
(
9.963285729
9.963268216
9.963314392
9.963287309
9.96328621
9.963264144
9.96328471
9.963291221
9.963281122
9.963285716
9.963268407
9.96331447
9.963287813
9.96328534
9.963262952
9.963285429
9.963290188
9.963281301
9.963285754
9.96326995
9.963313022
9.963288866
9.963285751
9.963263232
9.963285188
9.963289187
9.963282209
9.963285077
9.963270487
9.963313843
9.963289038
9.963285541
9.96326176
9.963284909
9.963290139
9.963282328
9.963286073
9.963269506
9.963314134
9.963288219
9.963286138
9.963264169
9.963284924
9.963289691
9.963282409
9.963285037
9.963269371
9.963314218
9.963289845
9.9632868
9.963264105
9.963286291
9.963290149
9.963281333
9.963284923
9.963269201
9.963314521
9.96328937
9.963286396
9.963264241
9.963287679
9.963288099
9.963280623
9.963284372
9.96326901
9.96331277
9.96328975
9.963285867
9.963265225
9.963287779
9.963288705
9.963281383
9.963284477
9.96326867
9.963313786
9.963290411
9.963286925
9.963266205
9.963287335
9.963289127
9.963280069
9.963284587
9.963269005
9.963312761
9.963290154
9.963285436
9.963265773
9.963286767
9.963289024
9.963279342
9.963285485
9.963269879
9.963312103
9.963289411
9.963284805
9.963266443
9.963286412
9.963289884
9.963279613
9.963285676
9.963270059
9.963311958
9.963288863
9.963285288
9.963266463
9.963285659
9.963289027
9.963279647
9.963284359
9.963269119
9.96331161
9.963289461
9.963285314
9.963265229
9.963285903
9.963290527
9.963278795
9.963283107
9.963267957
9.963311351
9.963286804
9.963283764
9.963262876
9.963284158
9.963288508
9.96327896
9.963282171
9.963267828
9.963308938
9.963282955
9.963277562
9.96325947
9.963283568
9.963287464
9.963279521
9.963292707
9.963279086
9.963272137
9.963263676
9.963300035
9.963290983
9.963351335
9.963274301
9.963268296
9.963293417
9.963278616
9.963271558
9.963264089
9.963300323
9.963290838
9.963352823
9.9632747
9.963267197
9.963293149
9.963278727
9.963272197
9.963263488
9.963300325
9.963290205
9.963352347
9.963275001
9.96326751
9.963293676
9.963277644
9.963272964
9.963262885
9.963300387
9.963291019
9.963353468
9.963273419
9.963268547
9.963292605
9.963278286
9.963273474
9.963264368
9.963299408
9.963291143
9.963353662
9.963274184
9.963268753
9.963292477
9.96327859
9.963273082
9.963264377
9.963298528
9.96329206
9.963352825
9.963274249
9.963269263
9.963293417
9.963276801
9.963273854
9.963264835
9.963299374
9.963290206
9.963353536
9.963274157
9.963269969
9.963293483
9.96327642
9.96327322
9.963264387
9.963299376
9.96329047
9.963353719
9.96327459
9.963268844
9.963292638
9.963277843
9.963271894
9.96326385
9.963298241
9.963290906
9.963353341
9.963273949
9.963269977
9.963293042
9.963277693
9.963271998
9.963263447
9.96329925
9.963291257
9.963353907
9.963273596
9.963268949
9.963292516
9.963277854
9.963271833
9.963263581
9.96329726
9.963291877
9.963353523
9.963273531
9.963269056
9.963293121
9.963277296
9.963270918
9.963263566
9.963296097
9.963292234
9.963353355
9.963273544
9.963268863
9.963293853
9.963277864
9.963269815
9.96326369
9.963294507
9.96329151
9.963352845
9.963274133
9.963267852
9.963293312
9.963277586
9.963268896
9.963260429
9.963292423
9.963288741
9.963351125
9.963273209
9.963267644
)
;
    }
    inlet
    {
        type            calculated;
        value           nonuniform List<scalar> 
81
(
9.963285729
9.963268216
9.963314392
9.963287309
9.96328621
9.963264144
9.96328471
9.963291221
9.963281122
9.963254125
9.963269136
9.963279227
9.963290758
9.963217227
9.963246969
9.963267669
9.963272003
9.963251905
9.963301317
9.963285733
9.963239032
9.963305787
9.963242353
9.963312815
9.963342901
9.963249839
9.963277365
9.963324595
9.96323725
9.963233505
9.963186081
9.963278761
9.963330069
9.963237943
9.963292673
9.963260921
9.963290457
9.963246318
9.963270951
9.963290001
9.963275161
9.963297324
9.963316427
9.963321668
9.963287394
9.963232633
9.963278452
9.963263471
9.963290382
9.963247568
9.963217685
9.963263236
9.963289282
9.96327176
9.963302255
9.963266837
9.963313184
9.963313993
9.963218096
9.963285214
9.963282838
9.963259758
9.963287393
9.963294634
9.963286533
9.963249173
9.963241438
9.963274871
9.963229349
9.963307443
9.963289133
9.963258156
9.963292707
9.963279086
9.963272137
9.963263676
9.963300035
9.963290983
9.963351335
9.963274301
9.963268296
)
;
    }
    outlet
    {
        type            calculated;
        value           nonuniform 0();
    }
    procBoundary0to1
    {
        type            processor;
        value           nonuniform List<scalar> 
97
(
9.96328244
9.963248486
9.963265905
9.963307809
9.963273714
9.96327077
9.963252138
9.963279618
9.963284935
9.963277352
9.963248486
9.963248486
9.963258986
9.963272702
9.963258556
9.96324794
9.963163299
9.963212786
9.963247265
9.963266181
9.963248614
9.963293453
9.963272702
9.963272702
9.963189067
9.963157236
9.963194074
9.963039333
9.963195377
9.963295579
9.963227619
9.963269789
9.963314666
9.963218851
9.963157236
9.963157236
9.962848585
9.962609847
9.962519805
9.962994133
9.963122433
9.963253036
9.963247067
9.963279414
9.963222172
9.96313693
9.962609847
9.962609847
9.993623312
9.962564497
9.962542805
9.962977244
9.963116845
9.963265133
9.963265954
9.963220788
9.963259742
9.96319065
9.9630559
9.962564497
9.962977244
9.962977244
9.963149928
9.963254571
9.963252416
9.963255562
9.963298111
9.963254298
9.963286048
9.963241835
9.963081422
9.963213962
9.963254571
9.963254571
9.963242266
9.963290128
9.963274908
9.963290122
9.963288201
9.963235339
9.963217844
9.963247933
9.9632107
9.963292171
9.963290128
9.963290128
9.963253702
9.963265464
9.96329226
9.96327648
9.963266831
9.963256494
9.963286801
9.963285609
9.963349373
9.963272087
9.963265464
)
;
    }
}


// ************************************************************************* //
