/*--------------------------------*- C++ -*----------------------------------*\
| =========                 |                                                 |
| \\      /  F ield         | OpenFOAM: The Open Source CFD Toolbox           |
|  \\    /   O peration     | Version:  4.x                                   |
|   \\  /    A nd           | Web:      www.OpenFOAM.org                      |
|    \\/     M anipulation  |                                                 |
\*---------------------------------------------------------------------------*/
FoamFile
{
    version     2.0;
    format      ascii;
    class       volScalarField;
    location    "8000";
    object      N2;
}
// * * * * * * * * * * * * * * * * * * * * * * * * * * * * * * * * * * * * * //

dimensions      [0 0 0 0 0 0 0];

internalField   nonuniform List<scalar> 
1175
(
0.6203632251
0.6203632251
0.6203632251
0.6203632251
0.6203632251
0.6203632251
0.620363225
0.6203632246
0.6203632236
0.6203632205
0.6203632119
0.6203631893
0.6203631352
0.6203630174
0.6203627888
0.6203632251
0.6203632251
0.6203632251
0.6203632251
0.6203632251
0.620363225
0.6203632249
0.6203632244
0.6203632229
0.6203632184
0.620363205
0.6203631687
0.6203630786
0.6203628783
0.6203624895
0.6203632251
0.6203632251
0.6203632251
0.6203632251
0.6203632251
0.620363225
0.6203632248
0.6203632241
0.6203632218
0.6203632143
0.6203631915
0.6203631266
0.6203629586
0.6203625743
0.620361827
0.6203632251
0.6203632251
0.6203632251
0.6203632251
0.6203632251
0.620363225
0.6203632247
0.6203632238
0.6203632205
0.6203632096
0.6203631749
0.6203630719
0.6203627936
0.6203621352
0.6203608462
0.6203632251
0.6203632251
0.6203632251
0.6203632251
0.6203632251
0.620363225
0.6203632247
0.6203632236
0.6203632199
0.6203632072
0.6203631658
0.6203630393
0.6203626866
0.6203618267
0.6203601226
0.6203632251
0.6203632251
0.6203632251
0.6203632251
0.6203632251
0.620363225
0.6203632247
0.6203632238
0.6203632205
0.6203632096
0.6203631749
0.6203630719
0.6203627936
0.6203621352
0.6203608462
0.6203632251
0.6203632251
0.6203632251
0.6203632251
0.6203632251
0.620363225
0.6203632248
0.6203632241
0.6203632218
0.6203632143
0.6203631915
0.6203631266
0.6203629586
0.6203625744
0.620361827
0.6203632251
0.6203632251
0.6203632251
0.6203632251
0.6203632251
0.620363225
0.6203632249
0.6203632244
0.620363223
0.6203632184
0.620363205
0.6203631687
0.6203630786
0.6203628783
0.6203624896
0.6203632251
0.6203632251
0.6203632251
0.6203632251
0.6203632251
0.6203632251
0.620363225
0.6203632246
0.6203632236
0.6203632205
0.6203632119
0.6203631893
0.6203631352
0.6203630175
0.6203627888
0.6203632251
0.6203632251
0.6203632251
0.6203632251
0.6203632251
0.620363225
0.6203632249
0.6203632244
0.6203632229
0.6203632184
0.620363205
0.6203631687
0.6203630786
0.6203628783
0.6203632251
0.6203632251
0.6203632251
0.6203632251
0.6203632251
0.620363225
0.6203632248
0.6203632242
0.6203632219
0.6203632146
0.620363192
0.6203631273
0.6203629584
0.6203625697
0.6203618132
0.6203632251
0.6203632251
0.6203632251
0.6203632251
0.6203632251
0.620363225
0.6203632247
0.6203632236
0.6203632199
0.6203632069
0.6203631644
0.6203630345
0.6203626738
0.6203618032
0.6203600919
0.6203632251
0.6203632251
0.6203632251
0.6203632251
0.6203632251
0.620363225
0.6203632246
0.6203632231
0.6203632174
0.6203631971
0.6203631267
0.6203628968
0.6203622139
0.6203604619
0.6203569348
0.6203632251
0.6203632251
0.6203632251
0.6203632251
0.6203632251
0.6203632249
0.6203632245
0.6203632228
0.6203632162
0.6203631915
0.6203631028
0.620362799
0.6203618416
0.6203592183
0.6203536982
0.6203632251
0.6203632251
0.6203632251
0.6203632251
0.6203632251
0.620363225
0.6203632246
0.6203632231
0.6203632174
0.6203631971
0.6203631267
0.6203628968
0.6203622139
0.6203604619
0.620356935
0.6203632251
0.6203632251
0.6203632251
0.6203632251
0.6203632251
0.620363225
0.6203632247
0.6203632236
0.6203632199
0.6203632069
0.6203631644
0.6203630345
0.6203626738
0.6203618032
0.6203600921
0.6203632251
0.6203632251
0.6203632251
0.6203632251
0.6203632251
0.620363225
0.6203632248
0.6203632242
0.6203632219
0.6203632146
0.620363192
0.6203631273
0.6203629584
0.6203625698
0.6203618133
0.6203632251
0.6203632251
0.6203632251
0.6203632251
0.6203632251
0.620363225
0.6203632249
0.6203632244
0.6203632229
0.6203632184
0.620363205
0.6203631687
0.6203630786
0.6203628783
0.6203624896
0.6203632251
0.6203632251
0.6203632251
0.6203632251
0.6203632251
0.620363225
0.6203632248
0.6203632241
0.6203632218
0.6203632143
0.6203631915
0.6203631266
0.6203629586
0.6203625743
0.6203632251
0.6203632251
0.6203632251
0.6203632251
0.6203632251
0.620363225
0.6203632247
0.6203632236
0.6203632199
0.6203632069
0.6203631644
0.6203630345
0.6203626737
0.6203618031
0.6203632251
0.6203632251
0.6203632251
0.6203632251
0.6203632251
0.6203632249
0.6203632245
0.6203632227
0.6203632159
0.6203631908
0.6203631018
0.6203628054
0.6203619082
0.6203595742
0.6203548557
0.6203632251
0.6203632251
0.6203632251
0.6203632251
0.620363225
0.6203632249
0.6203632242
0.6203632216
0.6203632108
0.6203631683
0.6203630053
0.6203624115
0.6203604246
0.6203546966
0.6203423496
0.6203632251
0.6203632251
0.6203632251
0.6203632251
0.620363225
0.6203632249
0.6203632241
0.620363221
0.6203632078
0.6203631537
0.6203629338
0.6203620693
0.6203588721
0.6203484184
0.6203228808
0.6203632251
0.6203632251
0.6203632251
0.6203632251
0.620363225
0.6203632249
0.6203632242
0.6203632216
0.6203632108
0.6203631683
0.6203630053
0.6203624116
0.6203604246
0.6203546969
0.6203423504
0.6203632251
0.6203632251
0.6203632251
0.6203632251
0.6203632251
0.6203632249
0.6203632245
0.6203632227
0.6203632159
0.6203631908
0.6203631018
0.6203628054
0.6203619083
0.6203595745
0.6203548565
0.6203632251
0.6203632251
0.6203632251
0.6203632251
0.6203632251
0.620363225
0.6203632247
0.6203632236
0.6203632199
0.6203632069
0.6203631644
0.6203630345
0.6203626738
0.6203618032
0.6203600921
0.6203632251
0.6203632251
0.6203632251
0.6203632251
0.6203632251
0.620363225
0.6203632248
0.6203632241
0.6203632218
0.6203632143
0.6203631915
0.6203631266
0.6203629586
0.6203625744
0.620361827
0.6203632251
0.6203632251
0.6203632251
0.6203632251
0.6203632251
0.620363225
0.6203632247
0.6203632238
0.6203632205
0.6203632096
0.6203631749
0.6203630719
0.6203627935
0.6203621351
0.6203632251
0.6203632251
0.6203632251
0.6203632251
0.6203632251
0.620363225
0.6203632246
0.6203632231
0.6203632174
0.6203631971
0.6203631266
0.6203628968
0.6203622138
0.6203604616
0.6203632251
0.6203632251
0.6203632251
0.6203632251
0.620363225
0.6203632249
0.6203632242
0.6203632216
0.6203632108
0.6203631683
0.6203630053
0.6203624115
0.6203604244
0.6203546959
0.6203632251
0.6203632251
0.6203632251
0.6203632251
0.620363225
0.6203632248
0.6203632238
0.6203632197
0.6203632016
0.6203631239
0.6203627938
0.6203614338
0.6203561664
0.6203382142
0.6202931367
0.6203632251
0.6203632251
0.6203632251
0.6203632251
0.620363225
0.6203632248
0.6203632236
0.6203632186
0.6203631957
0.620363091
0.620362607
0.6203603647
0.6203501412
0.6203064249
0.6201574481
0.6203632251
0.6203632251
0.6203632251
0.6203632251
0.620363225
0.6203632248
0.6203632238
0.6203632197
0.6203632016
0.6203631239
0.6203627938
0.6203614339
0.6203561667
0.6203382155
0.6202931417
0.6203632251
0.6203632251
0.6203632251
0.6203632251
0.620363225
0.6203632249
0.6203632242
0.6203632216
0.6203632108
0.6203631683
0.6203630053
0.6203624115
0.6203604246
0.6203546968
0.6203423504
0.6203632251
0.6203632251
0.6203632251
0.6203632251
0.6203632251
0.620363225
0.6203632246
0.6203632231
0.6203632174
0.6203631971
0.6203631267
0.6203628968
0.6203622139
0.6203604619
0.620356935
0.6203632251
0.6203632251
0.6203632251
0.6203632251
0.6203632251
0.620363225
0.6203632247
0.6203632238
0.6203632205
0.6203632096
0.6203631749
0.6203630719
0.6203627936
0.6203621352
0.6203608462
0.6203632251
0.6203632251
0.6203632251
0.6203632251
0.6203632251
0.620363225
0.6203632247
0.6203632236
0.6203632199
0.6203632072
0.6203631658
0.6203630393
0.6203626866
0.6203618266
0.6203632251
0.6203632251
0.6203632251
0.6203632251
0.6203632251
0.6203632249
0.6203632245
0.6203632228
0.6203632162
0.6203631915
0.6203631028
0.620362799
0.6203618415
0.6203592178
0.6203632251
0.6203632251
0.6203632251
0.6203632251
0.620363225
0.6203632249
0.6203632241
0.620363221
0.6203632078
0.6203631537
0.6203629338
0.6203620693
0.6203588717
0.6203484169
0.6203632251
0.6203632251
0.6203632251
0.6203632251
0.620363225
0.6203632248
0.6203632236
0.6203632186
0.6203631957
0.620363091
0.620362607
0.6203603646
0.6203501404
0.6203064198
0.6203632251
0.6203632251
0.6203632251
0.6203632251
0.620363225
0.6203632247
0.6203632234
0.6203632171
0.6203631873
0.6203630388
0.6203622653
0.6203579945
0.6203327351
0.6201716044
0.619057613
0.6203632251
0.6203632251
0.6203632251
0.6203632251
0.620363225
0.6203632248
0.6203632236
0.6203632186
0.6203631957
0.620363091
0.620362607
0.6203603646
0.620350141
0.6203064242
0.6201574475
0.6203632251
0.6203632251
0.6203632251
0.6203632251
0.620363225
0.6203632249
0.6203632241
0.620363221
0.6203632078
0.6203631537
0.6203629338
0.6203620693
0.620358872
0.6203484183
0.6203228807
0.6203632251
0.6203632251
0.6203632251
0.6203632251
0.6203632251
0.6203632249
0.6203632245
0.6203632228
0.6203632162
0.6203631915
0.6203631028
0.620362799
0.6203618416
0.6203592182
0.6203536983
0.6203632251
0.6203632251
0.6203632251
0.6203632251
0.6203632251
0.620363225
0.6203632247
0.6203632236
0.6203632199
0.6203632072
0.6203631658
0.6203630393
0.6203626866
0.6203618267
0.6203601226
0.6203632251
0.6203632251
0.6203632251
0.6203632251
0.6203632251
0.620363225
0.6203632247
0.6203632238
0.6203632205
0.6203632096
0.6203631749
0.6203630719
0.6203627935
0.6203621351
0.6203632251
0.6203632251
0.6203632251
0.6203632251
0.6203632251
0.620363225
0.6203632246
0.6203632231
0.6203632174
0.6203631971
0.6203631266
0.6203628968
0.6203622138
0.6203604616
0.6203632251
0.6203632251
0.6203632251
0.6203632251
0.620363225
0.6203632249
0.6203632242
0.6203632216
0.6203632108
0.6203631683
0.6203630053
0.6203624115
0.6203604244
0.6203546959
0.6203632251
0.6203632251
0.6203632251
0.6203632251
0.620363225
0.6203632248
0.6203632238
0.6203632197
0.6203632016
0.6203631239
0.6203627938
0.6203614338
0.6203561661
0.6203382128
0.6203632251
0.6203632251
0.6203632251
0.6203632251
0.620363225
0.6203632248
0.6203632236
0.6203632186
0.6203631957
0.620363091
0.6203626069
0.6203603645
0.6203501402
0.620306419
0.6203632251
0.6203632251
0.6203632251
0.6203632251
0.620363225
0.6203632248
0.6203632238
0.6203632197
0.6203632016
0.6203631239
0.6203627938
0.6203614338
0.6203561662
0.6203382131
0.6203632251
0.6203632251
0.6203632251
0.6203632251
0.620363225
0.6203632249
0.6203632242
0.6203632216
0.6203632108
0.6203631683
0.6203630053
0.6203624115
0.6203604245
0.6203546963
0.6203423488
0.6203632251
0.6203632251
0.6203632251
0.6203632251
0.6203632251
0.620363225
0.6203632246
0.6203632231
0.6203632174
0.6203631971
0.6203631267
0.6203628968
0.6203622138
0.6203604618
0.6203569347
0.6203632251
0.6203632251
0.6203632251
0.6203632251
0.6203632251
0.620363225
0.6203632247
0.6203632238
0.6203632205
0.6203632096
0.6203631749
0.6203630719
0.6203627936
0.6203621352
0.6203608462
0.6203632251
0.6203632251
0.6203632251
0.6203632251
0.6203632251
0.620363225
0.6203632248
0.6203632241
0.6203632218
0.6203632143
0.6203631915
0.6203631266
0.6203629586
0.6203625743
0.6203632251
0.6203632251
0.6203632251
0.6203632251
0.6203632251
0.620363225
0.6203632247
0.6203632236
0.6203632199
0.6203632069
0.6203631644
0.6203630345
0.6203626737
0.620361803
0.6203632251
0.6203632251
0.6203632251
0.6203632251
0.6203632251
0.6203632249
0.6203632245
0.6203632227
0.6203632159
0.6203631908
0.6203631018
0.6203628053
0.6203619082
0.6203595741
0.6203632251
0.6203632251
0.6203632251
0.6203632251
0.620363225
0.6203632249
0.6203632242
0.6203632216
0.6203632108
0.6203631683
0.6203630053
0.6203624115
0.6203604243
0.6203546959
0.6203632251
0.6203632251
0.6203632251
0.6203632251
0.620363225
0.6203632249
0.6203632241
0.620363221
0.6203632078
0.6203631537
0.6203629338
0.6203620692
0.6203588716
0.6203484167
0.6203632251
0.6203632251
0.6203632251
0.6203632251
0.620363225
0.6203632249
0.6203632242
0.6203632216
0.6203632108
0.6203631683
0.6203630053
0.6203624115
0.6203604244
0.6203546959
0.6203632251
0.6203632251
0.6203632251
0.6203632251
0.6203632251
0.6203632249
0.6203632245
0.6203632227
0.6203632159
0.6203631908
0.6203631018
0.6203628053
0.6203619082
0.6203595741
0.6203632251
0.6203632251
0.6203632251
0.6203632251
0.6203632251
0.620363225
0.6203632247
0.6203632236
0.6203632199
0.6203632069
0.6203631644
0.6203630345
0.6203626737
0.6203618031
0.6203600918
0.6203632251
0.6203632251
0.6203632251
0.6203632251
0.6203632251
0.620363225
0.6203632248
0.6203632241
0.6203632218
0.6203632143
0.6203631915
0.6203631266
0.6203629586
0.6203625743
0.620361827
0.6203632251
0.6203632251
0.6203632251
0.6203632251
0.6203632251
0.620363225
0.6203632249
0.6203632244
0.6203632229
0.6203632184
0.620363205
0.6203631687
0.6203630786
0.6203628783
0.6203632251
0.6203632251
0.6203632251
0.6203632251
0.6203632251
0.620363225
0.6203632248
0.6203632242
0.6203632219
0.6203632146
0.620363192
0.6203631273
0.6203629584
0.6203625697
0.6203632251
0.6203632251
0.6203632251
0.6203632251
0.6203632251
0.620363225
0.6203632247
0.6203632236
0.6203632199
0.6203632069
0.6203631644
0.6203630345
0.6203626737
0.620361803
0.6203632251
0.6203632251
0.6203632251
0.6203632251
0.6203632251
0.620363225
0.6203632246
0.6203632231
0.6203632174
0.6203631971
0.6203631266
0.6203628968
0.6203622138
0.6203604616
0.6203632251
0.6203632251
0.6203632251
0.6203632251
0.6203632251
0.6203632249
0.6203632245
0.6203632228
0.6203632162
0.6203631915
0.6203631027
0.6203627989
0.6203618415
0.6203592178
0.6203632251
0.6203632251
0.6203632251
0.6203632251
0.6203632251
0.620363225
0.6203632246
0.6203632231
0.6203632174
0.6203631971
0.6203631266
0.6203628968
0.6203622138
0.6203604616
0.6203632251
0.6203632251
0.6203632251
0.6203632251
0.6203632251
0.620363225
0.6203632247
0.6203632236
0.6203632199
0.6203632069
0.6203631644
0.6203630345
0.6203626737
0.6203618031
0.6203632251
0.6203632251
0.6203632251
0.6203632251
0.6203632251
0.620363225
0.6203632248
0.6203632242
0.6203632219
0.6203632146
0.620363192
0.6203631273
0.6203629584
0.6203625697
0.6203632251
0.6203632251
0.6203632251
0.6203632251
0.6203632251
0.620363225
0.6203632249
0.6203632244
0.6203632229
0.6203632184
0.620363205
0.6203631687
0.6203630786
0.6203628783
0.6203624895
0.6203632251
0.6203632251
0.6203632251
0.6203632251
0.6203632251
0.6203632251
0.620363225
0.6203632246
0.6203632236
0.6203632205
0.6203632119
0.6203631893
0.6203631352
0.6203630174
0.6203632251
0.6203632251
0.6203632251
0.6203632251
0.6203632251
0.620363225
0.6203632249
0.6203632244
0.6203632229
0.6203632184
0.620363205
0.6203631687
0.6203630786
0.6203628783
0.6203632251
0.6203632251
0.6203632251
0.6203632251
0.6203632251
0.620363225
0.6203632248
0.6203632241
0.6203632218
0.6203632143
0.6203631915
0.6203631266
0.6203629586
0.6203625743
0.6203632251
0.6203632251
0.6203632251
0.6203632251
0.6203632251
0.620363225
0.6203632247
0.6203632238
0.6203632205
0.6203632096
0.6203631749
0.6203630719
0.6203627935
0.6203621351
0.6203632251
0.6203632251
0.6203632251
0.6203632251
0.6203632251
0.620363225
0.6203632247
0.6203632236
0.6203632199
0.6203632072
0.6203631658
0.6203630393
0.6203626866
0.6203618266
0.6203632251
0.6203632251
0.6203632251
0.6203632251
0.6203632251
0.620363225
0.6203632247
0.6203632238
0.6203632205
0.6203632096
0.6203631749
0.6203630719
0.6203627935
0.6203621351
0.6203632251
0.6203632251
0.6203632251
0.6203632251
0.6203632251
0.620363225
0.6203632248
0.6203632241
0.6203632218
0.6203632143
0.6203631915
0.6203631266
0.6203629586
0.6203625743
0.6203632251
0.6203632251
0.6203632251
0.6203632251
0.6203632251
0.620363225
0.6203632249
0.6203632244
0.6203632229
0.6203632184
0.620363205
0.6203631687
0.6203630786
0.6203628783
0.6203632251
0.6203632251
0.6203632251
0.6203632251
0.6203632251
0.6203632251
0.620363225
0.6203632246
0.6203632236
0.6203632205
0.6203632119
0.6203631893
0.6203631352
0.6203630174
)
;

boundaryField
{
    top
    {
        type            zeroGradient;
    }
    bottom
    {
        type            zeroGradient;
    }
    side-walls
    {
        type            zeroGradient;
    }
    inlet
    {
        type            zeroGradient;
    }
    outlet
    {
        type            zeroGradient;
    }
    procBoundary0to1
    {
        type            processor;
        value           nonuniform List<scalar> 
97
(
0.6203623958
0.6203624895
0.6203618401
0.6203606262
0.6203588725
0.6203576406
0.6203588725
0.6203606263
0.6203618402
0.6203623958
0.6203624895
0.6203624895
0.6203606078
0.6203600917
0.6203575463
0.6203521894
0.6203472232
0.6203521896
0.6203575465
0.6203606079
0.6203618402
0.620361827
0.6203600917
0.6203600917
0.6203486447
0.6203423484
0.6203291628
0.6203040878
0.6203291635
0.6203486453
0.6203575465
0.6203606263
0.6203608461
0.6203569345
0.6203423484
0.6203423484
0.6202633219
0.6201574338
0.6201362884
0.6202633243
0.6203291635
0.6203521896
0.6203588726
0.6203601225
0.6203536978
0.6203228786
0.6201574338
0.6201574338
0.6195961168
0.6201574339
0.6201362885
0.6202931372
0.6203040879
0.6203472233
0.6203576406
0.6203608461
0.6203569347
0.6203423493
0.620293138
0.6201574339
0.6202931372
0.6202931372
0.6203291629
0.6203548558
0.6203521894
0.6203588725
0.620361827
0.6203600919
0.6203548561
0.6203423494
0.6203228785
0.6203423493
0.6203548558
0.6203548558
0.6203575463
0.6203618132
0.6203606262
0.6203624895
0.6203618132
0.6203600919
0.6203569347
0.6203536978
0.6203569347
0.6203600919
0.6203618132
0.6203618132
0.6203618401
0.6203627888
0.6203627888
0.6203624895
0.620361827
0.6203608461
0.6203601225
0.6203608461
0.620361827
0.6203624895
0.6203627888
)
;
    }
}


// ************************************************************************* //
