/*--------------------------------*- C++ -*----------------------------------*\
| =========                 |                                                 |
| \\      /  F ield         | OpenFOAM: The Open Source CFD Toolbox           |
|  \\    /   O peration     | Version:  4.x                                   |
|   \\  /    A nd           | Web:      www.OpenFOAM.org                      |
|    \\/     M anipulation  |                                                 |
\*---------------------------------------------------------------------------*/
FoamFile
{
    version     2.0;
    format      ascii;
    class       surfaceScalarField;
    location    "8000";
    object      phi;
}
// * * * * * * * * * * * * * * * * * * * * * * * * * * * * * * * * * * * * * //

dimensions      [1 0 -1 0 0 0 0];

internalField   nonuniform List<scalar> 
3175
(
9.165420817e-06
1.100295013e-12
-3.553637265e-13
9.165421786e-06
-4.438905685e-13
-1.866695024e-13
9.165420463e-06
-1.061502147e-12
-1.145600842e-12
9.165420274e-06
-1.349970132e-12
-1.372847322e-13
9.165423186e-06
-1.633858118e-12
-2.026316033e-13
9.165423795e-06
-1.577861713e-12
-6.910622728e-13
9.165427092e-06
4.480731487e-14
-2.150080497e-12
9.165431494e-06
-2.502176298e-12
-2.948145331e-12
9.165437763e-06
-2.306276263e-12
-4.37673439e-12
9.165448834e-06
-3.13180147e-12
-4.74713048e-12
9.165465455e-06
-8.561547667e-12
-8.276502234e-12
9.165488203e-06
-1.233710471e-11
-1.119451402e-11
9.165520385e-06
-1.686882938e-11
-1.802503493e-11
9.165554123e-06
-1.772510088e-11
-1.936246463e-11
-3.119810891e-11
9.165404696e-06
-1.306829195e-13
-1.496742675e-12
9.165405401e-06
-5.758816133e-13
-1.710068595e-12
9.165406568e-06
-9.345023001e-13
-1.633325887e-12
9.16540624e-06
-1.231016444e-12
-1.228571397e-12
9.165408879e-06
-6.264660325e-13
-3.049142277e-13
9.165408709e-06
-1.278157012e-12
-1.409110393e-12
9.165410464e-06
-2.832598479e-12
-2.211019213e-12
9.165414315e-06
-3.839391114e-12
-1.922224749e-12
9.165421208e-06
-5.824535431e-12
-3.918707126e-12
9.16542936e-06
-9.001743386e-12
-6.023664774e-12
9.165446777e-06
-1.204645266e-11
-7.833508235e-12
9.165469342e-06
-1.899974781e-11
-1.394052249e-11
9.165500536e-06
-3.071974687e-11
-2.031274227e-11
9.165540116e-06
-3.423783843e-11
-2.184655664e-11
-6.126461414e-11
-4.763052971e-11
9.165446611e-06
-1.827247233e-12
-1.560841327e-12
9.165446365e-06
-1.446275378e-12
-5.702865417e-13
9.1654472e-06
-1.284004288e-12
-1.530980093e-12
9.165446423e-06
-8.476591495e-13
-1.5435567e-12
9.165448562e-06
-2.729103699e-12
-9.593013342e-14
9.165447898e-06
-4.179818522e-12
-1.664512094e-12
9.165449725e-06
-2.659531204e-12
-1.524495075e-12
9.165451788e-06
-2.590530982e-12
-4.382066795e-12
9.165456246e-06
-5.087307541e-12
-4.987743744e-12
9.16546282e-06
-9.132758691e-12
-7.370041743e-12
9.165474202e-06
-1.172551514e-11
-1.148018752e-11
9.165494087e-06
-1.991194916e-11
-2.270216853e-11
9.165525402e-06
-3.019679762e-11
-3.192395798e-11
9.165572393e-06
-3.560052988e-11
-4.176304057e-11
-7.474224443e-11
-1.023735973e-10
9.165422476e-06
-2.486380431e-12
-1.622678619e-12
9.165424271e-06
-1.850775656e-12
3.992020929e-13
9.165423419e-06
-2.090912671e-12
-5.318487309e-13
9.165419979e-06
-2.162586285e-12
-1.883094478e-12
9.165425155e-06
-1.752097144e-12
4.0609665e-13
9.165426719e-06
-2.06831189e-12
-3.806977615e-13
9.165426878e-06
-2.212910484e-12
-2.4323141e-12
9.165428669e-06
-3.272509605e-12
-3.589552074e-12
9.165431048e-06
-4.249460515e-12
-3.927006202e-12
9.165439934e-06
-4.616238494e-12
-7.965828818e-12
9.165448971e-06
-8.477411521e-12
-1.246002142e-11
9.165470241e-06
-1.745772841e-11
-2.604473444e-11
9.165500298e-06
-2.604923823e-11
-3.272965434e-11
9.16555466e-06
-3.539840248e-11
-4.996410845e-11
-6.568912009e-11
-1.461122219e-10
9.16542092e-06
-1.198958212e-12
-5.353960599e-13
9.16542174e-06
-5.480776808e-13
3.920751593e-13
9.165420597e-06
-4.554099766e-13
7.724395334e-13
9.16541974e-06
-1.476895696e-12
-9.025726978e-13
9.1654207e-06
-1.352453783e-12
-1.241751868e-12
9.165421873e-06
-3.629230718e-13
-2.879685644e-13
9.165423184e-06
-7.564979154e-13
-2.554639296e-12
9.165423285e-06
5.697655686e-13
-4.232398139e-12
9.165424263e-06
2.911531116e-12
-5.66294273e-12
9.165425086e-06
6.208870736e-12
-1.262697072e-11
9.165424652e-06
9.237760236e-12
-1.781638258e-11
9.165442655e-06
1.576412756e-11
-4.60798634e-11
9.165459111e-06
2.517138324e-11
-6.704275585e-11
9.16553003e-06
3.687195163e-11
-1.426734822e-10
6.645329185e-11
-3.662223499e-10
9.165401489e-06
-2.241232951e-12
-1.137708251e-12
9.165400551e-06
-2.521423687e-12
-2.793657267e-13
9.165399702e-06
-1.103256591e-12
2.366454812e-14
9.165399634e-06
-3.493401057e-13
-1.107524435e-12
9.16540059e-06
5.118941258e-13
-4.494863558e-13
9.165402009e-06
1.782928612e-12
-8.219615505e-13
9.165404652e-06
1.600018978e-12
-7.485495839e-13
9.165408282e-06
2.622048356e-12
-3.155183498e-12
9.165412757e-06
5.451721235e-12
-3.762120321e-12
9.165417148e-06
7.096158386e-12
-8.709488192e-12
9.165425353e-06
1.162952353e-11
-1.34163847e-11
9.165449971e-06
2.058638357e-11
-2.601657041e-11
9.165480101e-06
2.968060291e-11
-3.295386651e-11
9.165533665e-06
3.493600522e-11
-5.155074118e-11
7.271081061e-11
-1.486086993e-10
9.165421276e-06
1.187587134e-12
-3.157625181e-13
9.165421543e-06
6.725576434e-13
-5.742583632e-13
9.165420667e-06
2.575229715e-12
-7.093048861e-14
9.165419996e-06
1.490178701e-12
-4.525712108e-13
9.165422797e-06
2.920636543e-12
6.797758359e-13
9.165423833e-06
2.49958905e-12
3.405093434e-13
9.165427065e-06
3.575065043e-12
-1.038282755e-12
9.165430734e-06
4.434646408e-12
-2.34962549e-12
9.165433516e-06
6.120742719e-12
-4.185756898e-12
9.165440562e-06
8.342247817e-12
-7.187107844e-12
9.165449557e-06
1.367614074e-11
-1.236301464e-11
9.165472057e-06
2.058852706e-11
-2.040093338e-11
9.16550301e-06
2.916201817e-11
-3.131044566e-11
9.165547795e-06
3.147078463e-11
-4.1674116e-11
5.961821634e-11
-1.022829994e-10
9.165423667e-06
5.027109711e-13
-1.095011955e-14
9.165426684e-06
2.181357622e-13
2.811907083e-13
9.165424348e-06
-1.1651352e-12
-2.599364319e-13
9.165426315e-06
-2.307981799e-13
-1.47130836e-12
9.165425194e-06
9.137917235e-15
-8.218423298e-13
9.165427503e-06
9.742970334e-13
-3.743740811e-13
9.165430202e-06
3.98465707e-12
-4.157741034e-13
9.165435044e-06
4.380099279e-12
-1.048202784e-12
9.165439978e-06
5.452199311e-12
-2.807515556e-12
9.165449139e-06
6.823276884e-12
-5.019192576e-12
9.16546182e-06
7.876808062e-12
-8.380745364e-12
9.165485324e-06
1.0668785e-11
-1.270328126e-11
9.165521172e-06
1.691867964e-11
-1.884187022e-11
9.165558833e-06
1.717892186e-11
-2.064168478e-11
3.121018432e-11
-4.669170975e-11
9.165416671e-06
2.740493014e-13
9.165417979e-06
-1.817112274e-13
9.165417186e-06
-1.026721706e-12
9.165419654e-06
-6.164983515e-13
9.16542075e-06
-1.64343879e-13
9.165422328e-06
-4.132792772e-13
9.165423056e-06
-1.509481352e-12
9.165429399e-06
-1.350531172e-12
9.165434099e-06
-3.176674802e-12
9.165443457e-06
-3.86261735e-12
9.165457642e-06
-6.897727684e-12
9.165480507e-06
-8.98644913e-12
9.165516621e-06
-1.573831967e-11
9.165551395e-06
-1.652431553e-11
-3.107754341e-11
9.1653919e-06
-4.550857216e-13
-1.304227149e-12
9.165391086e-06
-4.635677681e-13
-3.288235915e-12
9.165390656e-06
-3.053407679e-13
-2.259334049e-12
9.165390949e-06
-9.346564099e-13
-2.779731145e-12
9.165391869e-06
-1.415472679e-12
-2.371497263e-12
9.165392292e-06
-1.493020684e-12
-1.3062376e-12
9.165395879e-06
2.109481126e-13
-1.561133081e-12
9.165400474e-06
-1.428098391e-12
-1.322493359e-12
9.165408974e-06
-1.812610469e-12
-4.098293342e-12
9.165413941e-06
-5.888707907e-12
-9.302969496e-12
9.165430475e-06
-9.176895813e-12
-1.157638038e-11
9.165450576e-06
-1.388251571e-11
-2.03396489e-11
9.165485221e-06
-1.886149198e-11
-2.957738501e-11
-2.11743686e-11
-3.119703922e-11
9.165405822e-06
-3.324645601e-13
-3.172859966e-12
9.165404266e-06
1.490404151e-13
-2.559914e-12
9.165405588e-06
-4.505336206e-13
-1.230366106e-12
9.165404717e-06
-1.484583134e-12
-1.119255365e-12
9.165407323e-06
-3.229219689e-13
-1.039314097e-12
9.16540955e-06
-1.04933637e-12
-1.974755371e-12
9.165408738e-06
-3.305987942e-12
-3.476746036e-12
9.165410964e-06
-4.330713123e-12
-3.98770065e-12
9.165416162e-06
-5.275291305e-12
-4.689739238e-12
9.165424001e-06
-9.132162117e-12
-1.153352644e-11
9.16543827e-06
-1.494946805e-11
-1.49618813e-11
9.165462709e-06
-2.536573439e-11
-2.626577167e-11
9.16549316e-06
-3.879293631e-11
-3.835155416e-11
9.165537488e-06
-4.489435941e-11
-4.354564211e-11
-9.624634716e-11
9.165417015e-06
-1.846440612e-12
-2.190807786e-12
9.165414367e-06
-1.439569897e-12
-2.004397008e-12
9.165413204e-06
-9.92349684e-13
-1.542640473e-12
9.165413985e-06
-6.800521478e-14
-2.849918106e-13
9.165413342e-06
-1.151042614e-12
-2.607721257e-12
9.165412816e-06
-3.501709468e-12
-3.606175447e-12
9.165414683e-06
-3.697990001e-12
-3.742230417e-12
9.165417116e-06
-3.513707546e-12
-4.922067412e-12
9.165420471e-06
-4.909415867e-12
-6.733392416e-12
9.165424271e-06
-1.077337943e-11
-1.505878882e-11
9.165432071e-06
-1.476770898e-11
-2.184558466e-11
9.165451765e-06
-2.745389546e-11
-4.200597168e-11
9.165479357e-06
-3.709460751e-11
-5.923716303e-11
9.165539202e-06
-5.249225929e-11
-9.017569527e-11
-1.338465205e-10
-2.244179864e-10
9.165427051e-06
-1.186804529e-12
1.67419557e-13
9.165425044e-06
-2.073746773e-12
-1.473245565e-12
9.16542615e-06
-7.913262876e-13
-7.700740394e-13
9.165425206e-06
-1.550309027e-12
-5.715405852e-13
9.165424078e-06
-3.65463754e-12
-1.233789964e-12
9.165424803e-06
-1.07047275e-12
-2.588508566e-12
9.165425566e-06
-6.754491956e-13
-2.345182452e-12
9.165423755e-06
-2.940919528e-12
-5.35978369e-12
9.165424873e-06
-4.669275348e-12
-7.707351108e-12
9.165428775e-06
-7.453546516e-12
-1.628928921e-11
9.165436578e-06
-1.063652962e-11
-2.070376416e-11
9.165460234e-06
-2.509063373e-11
-5.163937946e-11
9.165484162e-06
-4.04311401e-11
-5.746123006e-11
9.165566335e-06
-6.638686114e-11
-1.220571306e-10
-1.295984095e-10
-3.387557666e-10
9.165358428e-06
-2.185505273e-12
-1.401054481e-15
9.165358019e-06
-1.460371036e-12
-1.037623594e-12
9.165356294e-06
-1.450312047e-12
-1.376240729e-12
9.165356591e-06
-1.444776193e-12
-7.71390669e-13
9.165361267e-06
1.665595692e-13
6.941791108e-13
9.165357849e-06
8.519554932e-14
-1.776711346e-12
9.165357849e-06
1.153985311e-13
-1.787294234e-12
9.165355537e-06
1.597650698e-12
-5.352562862e-12
9.165353998e-06
3.918579213e-12
-8.675124817e-12
9.165351545e-06
7.822195242e-12
-2.392458014e-11
9.165343376e-06
9.748910532e-12
-3.49522916e-11
9.165349637e-06
2.3553623e-11
-1.015052034e-10
9.165337408e-06
3.870546328e-11
-1.307118125e-10
9.165471536e-06
6.483382807e-11
-4.03065682e-10
1.277494248e-10
-1.010244261e-09
9.165387318e-06
-7.141766409e-13
7.863365238e-13
9.165387068e-06
-2.160569968e-12
6.325845787e-15
9.165386468e-06
-1.256718705e-12
-2.708173755e-13
9.165387607e-06
-3.359411316e-13
2.638324139e-13
9.165388137e-06
1.498621862e-12
-1.943620667e-13
9.165387321e-06
1.475100659e-12
-2.350940455e-12
9.165386888e-06
1.502679218e-12
-2.752359509e-12
9.165388149e-06
3.864607065e-12
-5.263076816e-12
9.165390188e-06
4.992091933e-12
-6.442078733e-12
9.165390571e-06
8.967971304e-12
-1.71826556e-11
9.16540095e-06
1.464354586e-11
-2.030020208e-11
9.165425226e-06
2.724280858e-11
-5.247222422e-11
9.165449567e-06
3.831679795e-11
-5.666563006e-11
9.165533359e-06
5.396894355e-11
-1.20594496e-10
1.338003331e-10
-3.374858538e-10
9.165404267e-06
1.430768852e-12
8.009992679e-13
9.16540461e-06
1.286712656e-12
1.095003244e-12
9.16540369e-06
2.043651251e-12
2.163172477e-12
9.165402782e-06
7.879054759e-13
1.160365317e-12
9.16540391e-06
1.385937248e-12
-6.687549439e-13
9.165404251e-06
2.376562456e-12
-5.362643907e-13
9.165405406e-06
2.769268807e-12
-1.688202598e-12
9.165406045e-06
4.511098485e-12
-3.943278395e-12
9.165409244e-06
6.578160003e-12
-6.277038035e-12
9.165412069e-06
9.894972686e-12
-1.315217148e-11
9.165422703e-06
1.534593045e-11
-1.841013866e-11
9.165442754e-06
2.605702231e-11
-4.001021622e-11
9.165468227e-06
3.669289931e-11
-5.86092814e-11
9.165528484e-06
4.443227012e-11
-8.931151129e-11
9.65366306e-11
-2.234427785e-10
9.165406631e-06
8.73656067e-13
-7.254718043e-13
9.165410191e-06
1.083974238e-12
8.565082484e-14
9.165408161e-06
5.595575927e-13
3.062237855e-13
9.165411361e-06
6.67582847e-13
5.367305764e-13
9.165411251e-06
4.772875228e-13
-1.006418885e-12
9.16541218e-06
1.151387737e-12
-3.402221776e-13
9.165413919e-06
2.459385266e-12
1.772897402e-13
9.165417022e-06
3.45062165e-12
-3.966994638e-12
9.165422147e-06
4.53521713e-12
-5.401460984e-12
9.165430181e-06
6.002495878e-12
-9.433349379e-12
9.165442731e-06
8.67346024e-12
-1.287999751e-11
9.165467765e-06
1.433366209e-11
-2.285294436e-11
9.165501598e-06
2.031490255e-11
-3.491554677e-11
9.165543709e-06
2.185585407e-11
-4.246985109e-11
4.751481016e-11
-9.724164728e-11
9.165388349e-06
-1.398853328e-12
9.16538963e-06
-1.134101771e-12
9.165388745e-06
3.82615338e-13
9.165391137e-06
6.989827201e-13
9.165392733e-06
-3.47055891e-13
9.165393707e-06
1.398632293e-13
9.165398358e-06
1.328139995e-12
9.165401579e-06
-2.896451246e-12
9.165405889e-06
-5.630837945e-12
9.16541709e-06
-8.489292635e-12
9.165430242e-06
-1.159342794e-11
9.165453087e-06
-1.828682341e-11
9.165487757e-06
-2.850674212e-11
9.165523653e-06
-3.308904878e-11
-5.981642491e-11
9.165434347e-06
-1.698439389e-12
-2.345057023e-12
9.165435965e-06
-2.444485108e-14
-8.864176854e-13
9.165433864e-06
-8.711233394e-13
-2.621509483e-12
9.165434279e-06
-3.839072621e-13
-8.063895814e-13
9.165434585e-06
-3.423316327e-13
-4.142217906e-13
9.165434505e-06
-1.224536102e-12
4.859427376e-13
9.165436886e-06
-1.839318039e-12
-6.08205842e-13
9.165437103e-06
-3.859720254e-12
-1.278529127e-12
9.165443705e-06
-1.979796743e-12
-2.833411191e-12
9.16545073e-06
-8.725742171e-12
-7.373701059e-12
9.165460759e-06
-1.199577483e-11
-1.103693201e-11
9.165481232e-06
-2.123657063e-11
-1.806337529e-11
9.165514736e-06
-3.206526492e-11
-2.683862191e-11
-4.103881672e-11
-3.357038469e-11
9.1654216e-06
5.484455941e-13
6.628142171e-14
9.165423296e-06
1.223586935e-12
-1.259444047e-12
9.165421471e-06
-5.004728343e-13
-1.167679504e-12
9.165420275e-06
-2.223718509e-12
-1.203557186e-12
9.165420344e-06
-2.639895684e-12
-1.6514301e-12
9.16542161e-06
-2.351489728e-12
-2.00547532e-13
9.165423275e-06
-2.674251508e-12
-2.078924507e-12
9.165425481e-06
-4.731625298e-12
-2.892740897e-12
9.165424191e-06
-7.215370704e-12
-5.694409131e-12
9.165434293e-06
-1.273701665e-11
-8.953834051e-12
9.165439777e-06
-2.102082259e-11
-1.317088807e-11
9.165461177e-06
-4.095930307e-11
-2.615197615e-11
9.16548781e-06
-5.983615778e-11
-3.639379074e-11
-9.1802195e-11
-5.206328022e-11
9.165377967e-06
-1.177743445e-13
3.230646097e-14
9.165375779e-06
-7.529834666e-13
-1.629672614e-12
9.165376726e-06
-5.304748141e-13
-1.942056239e-12
9.165375147e-06
-3.36061565e-13
-1.80869085e-12
9.165374647e-06
-6.296743469e-13
-5.317612097e-13
9.165375448e-06
-1.792389696e-12
-1.19000098e-12
9.165375253e-06
-2.234501767e-12
-2.181166792e-12
9.165375081e-06
-4.286243556e-12
-3.322701382e-12
9.165374054e-06
-6.320065753e-12
-4.31991133e-12
9.165373961e-06
-1.381664489e-11
-1.312501415e-11
9.165375437e-06
-1.74383542e-11
-1.699898653e-11
9.165386877e-06
-4.628582448e-11
-4.738426434e-11
9.16539624e-06
-6.257192862e-11
-6.235580214e-11
9.165490616e-06
-1.372320871e-10
-1.361711703e-10
-3.685345064e-10
9.165438968e-06
-1.775989416e-12
-1.622487431e-12
9.165437851e-06
-1.670945956e-12
-1.213943509e-12
9.165439393e-06
-5.042820303e-13
-5.58213087e-13
9.165437761e-06
-1.474399877e-12
-1.274429861e-12
9.16543795e-06
-1.210025103e-12
-9.70674407e-13
9.165438449e-06
-4.280929505e-13
-1.81828409e-12
9.16543818e-06
3.931254703e-13
-1.900524898e-12
9.165436877e-06
-2.302049046e-12
-4.502964642e-12
9.165434076e-06
-4.129731897e-12
-6.387217675e-12
9.165431331e-06
-1.05818119e-11
-1.654392971e-11
9.165431606e-06
-1.839476559e-11
-1.68684736e-11
9.165443162e-06
-4.913159046e-11
-6.624501349e-11
9.16544763e-06
-7.592774902e-11
-4.972120298e-11
9.165600347e-06
-1.775833936e-10
-2.327237603e-10
-3.770936736e-10
-6.700844252e-10
9.16538113e-06
-1.43514938e-12
-2.030370712e-13
9.165380255e-06
-3.333217964e-13
-1.13152527e-13
9.165380168e-06
-6.497208029e-13
-8.126386351e-13
9.165379463e-06
-1.376284742e-13
-8.29275175e-13
9.165378922e-06
-3.08219803e-13
-2.088188723e-12
9.165376632e-06
-1.72505015e-12
-3.187340318e-12
9.16537322e-06
-1.252823477e-12
-4.155584456e-12
9.165369526e-06
1.406377076e-12
-6.144106406e-12
9.165358589e-06
5.608492836e-12
-9.814740033e-12
9.165338672e-06
1.031956606e-11
-2.708103054e-11
9.165307074e-06
1.806387407e-11
-3.370665863e-11
9.165264599e-06
4.826036694e-11
-1.541570969e-10
9.165148095e-06
7.539727124e-11
-1.703884621e-10
9.165425756e-06
1.767799495e-10
-1.034753255e-09
3.772401391e-10
-2.675925281e-09
9.165445888e-06
-6.198890033e-13
4.193214326e-13
9.165445619e-06
-1.661642265e-12
1.167846964e-13
9.165444465e-06
1.793707445e-13
-7.908005189e-13
9.16544381e-06
8.288284736e-13
-1.116747478e-12
9.165443975e-06
7.289870952e-13
-5.089169337e-13
9.165443603e-06
2.340473989e-12
-5.770343938e-13
9.165442145e-06
1.761035871e-12
-2.33896571e-12
9.165442949e-06
4.871510652e-12
-4.225664939e-12
9.16543749e-06
4.785930284e-12
-7.562719941e-12
9.1654341e-06
1.420532924e-11
-1.696460834e-11
9.165434061e-06
1.969620656e-11
-1.695318637e-11
9.165449402e-06
4.887830814e-11
-6.468709644e-11
9.165453621e-06
6.284661635e-11
-4.919743545e-11
9.165604185e-06
1.378047306e-10
-2.315912126e-10
3.688248483e-10
-6.659824693e-10
9.165473318e-06
-1.615163853e-13
3.409139562e-13
9.165475222e-06
-1.14756093e-12
-4.195451198e-13
9.165473934e-06
-5.381179311e-13
-1.293868285e-12
9.165473386e-06
-1.802479087e-13
-3.808658291e-13
9.16547639e-06
1.672008393e-12
4.216359895e-14
9.165475851e-06
1.677659259e-12
-3.581065398e-13
9.165476484e-06
3.928207709e-12
-4.368329812e-13
9.165475584e-06
4.410358981e-12
-2.793833399e-12
9.165474276e-06
7.497320235e-12
-5.886704486e-12
9.165473565e-06
1.376257441e-11
-1.454258346e-11
9.165471444e-06
2.095413418e-11
-1.790188144e-11
9.165483815e-06
4.268992385e-11
-4.68093416e-11
9.165493719e-06
6.083348211e-11
-6.227126672e-11
9.165587707e-06
9.221736861e-11
-1.362463837e-10
2.239709343e-10
-3.67790511e-10
9.165387739e-06
6.064901903e-13
-6.507797584e-13
9.165388379e-06
1.301334916e-13
-1.248087589e-12
9.165386212e-06
1.39151645e-13
-9.720588559e-13
9.165388156e-06
1.335112243e-12
-1.016201576e-12
9.165389304e-06
1.027743667e-12
-5.8182652e-13
9.16539088e-06
2.949635114e-12
-6.727448209e-13
9.165389027e-06
2.170389259e-12
-1.402563243e-12
9.16539243e-06
3.545614778e-12
-2.242263689e-12
9.165394106e-06
4.815170808e-12
-5.774933336e-12
9.165401044e-06
6.908512309e-12
-9.591821859e-12
9.165405277e-06
1.041947538e-11
-1.363193569e-11
9.165425881e-06
2.0772246e-11
-2.760575284e-11
9.165454328e-06
3.079265145e-11
-3.801076734e-11
9.165509682e-06
3.957158163e-11
-5.305183146e-11
1.022970826e-10
-1.337957493e-10
9.165412422e-06
-1.389817236e-12
9.165415573e-06
-4.664212915e-13
9.165414081e-06
-1.172840198e-12
9.165414073e-06
-1.561767591e-12
9.165413613e-06
-1.075755685e-12
9.165415623e-06
-1.659551913e-12
9.16541662e-06
-2.035011098e-12
9.16541973e-06
-4.137702897e-12
9.165423503e-06
-6.470264672e-12
9.165431654e-06
-6.911819583e-12
9.165441246e-06
-1.083876664e-11
9.165461073e-06
-2.075498953e-11
9.165493765e-06
-2.80738677e-11
9.165538663e-06
-3.374139022e-11
-7.311560234e-11
9.165456714e-06
3.480162342e-13
-1.711642104e-12
9.165455889e-06
-8.045686445e-13
-1.367347632e-12
9.165457366e-06
4.906553206e-13
-7.228255787e-13
9.165458217e-06
-3.706517787e-14
-5.433331922e-13
9.165457033e-06
-1.90169547e-12
2.168220832e-13
9.165456338e-06
-1.743310814e-12
-2.292140866e-13
9.165458651e-06
-3.105456605e-12
3.304410537e-14
9.16545893e-06
-4.830056492e-12
-2.04631443e-12
9.16546276e-06
-4.849815057e-12
-9.010611909e-13
9.165470999e-06
-9.572602221e-12
-3.275870702e-12
9.165479282e-06
-1.336979894e-11
-7.7371561e-12
9.165501031e-06
-2.671194617e-11
-1.596361043e-11
9.165530102e-06
-3.368071485e-11
-2.623189064e-11
-5.033779218e-11
-3.550320899e-11
9.165375843e-06
4.455664243e-13
-2.083286509e-12
9.165378295e-06
1.185218893e-12
-1.209344973e-12
9.165376363e-06
-9.598588253e-13
-1.869214278e-12
9.165375434e-06
-1.683438271e-12
1.040105264e-13
9.165377273e-06
-7.750332096e-13
3.452647556e-13
9.165375571e-06
-4.079218339e-12
-1.164715095e-12
9.165379276e-06
-3.689125159e-12
-3.272497972e-13
9.16537857e-06
-5.98993453e-12
-2.157001054e-12
9.165380219e-06
-6.18130617e-12
-3.133673598e-12
9.165386993e-06
-1.504190729e-11
-6.179862069e-12
9.165391281e-06
-2.152131878e-11
-1.14279427e-11
9.165416008e-06
-5.323463285e-11
-2.532553794e-11
9.165443267e-06
-5.808053068e-11
-4.004906753e-11
-1.238759298e-10
-6.562691878e-11
9.165372235e-06
-9.400353357e-13
-1.861262946e-12
9.165372305e-06
-6.812256662e-13
-2.316560081e-12
9.165372184e-06
-1.066450568e-13
-1.056763644e-12
9.165373661e-06
9.12306712e-13
5.726935419e-14
9.165372293e-06
-8.427346942e-13
2.673815484e-13
9.165369854e-06
-2.767585578e-12
-9.703885228e-13
9.165370522e-06
-1.131742684e-12
2.098617917e-13
9.165368609e-06
-4.191215472e-12
-2.03062246e-12
9.165361863e-06
-8.281058933e-12
-3.94075652e-12
9.165359104e-06
-1.71019363e-11
-1.123923408e-11
9.165355246e-06
-1.773786409e-11
-1.829374816e-11
9.165370328e-06
-6.58419578e-11
-4.852628572e-11
9.165374164e-06
-4.975689001e-11
-7.75547237e-11
-2.322993633e-10
-1.758296908e-10
9.16532962e-06
-1.242355778e-13
-2.918011856e-12
9.165329237e-06
-4.021509064e-13
-2.412456351e-12
9.16533087e-06
-1.174454609e-12
1.159876851e-13
9.165328103e-06
-2.28547934e-12
2.634224613e-13
9.165327352e-06
-2.846269469e-12
2.114641047e-13
9.165329743e-06
-9.432274709e-13
7.75070636e-13
9.165325887e-06
-1.9003698e-12
2.518383805e-14
9.165321695e-06
-2.888728868e-12
-3.05534218e-12
9.165317979e-06
-6.27589865e-12
-4.699987232e-12
9.165312316e-06
-1.554321611e-11
-1.736173189e-11
9.165321296e-06
-2.419383156e-11
-2.521528468e-11
9.165350247e-06
-8.039412816e-11
-7.980383538e-11
9.165455089e-06
-1.025994489e-10
-1.030303714e-10
9.165677053e-06
-3.427431862e-10
-3.427677698e-10
-6.533940642e-10
9.165415272e-06
-9.167484424e-13
-1.215280568e-12
9.165414044e-06
-3.385714308e-13
-1.879696203e-12
9.165415855e-06
-5.243347892e-13
-1.143719858e-14
9.165412466e-06
-3.53769219e-13
2.813709056e-13
9.165413105e-06
6.911339247e-13
3.928912108e-13
9.165409378e-06
1.694341253e-12
3.310382048e-13
9.165406539e-06
2.172164888e-13
-1.276061996e-12
9.165395303e-06
2.462289402e-12
-4.014765657e-12
9.165382115e-06
6.634809815e-12
-7.761571871e-12
9.165345474e-06
1.45244975e-11
-2.769129918e-11
9.165307145e-06
2.269891093e-11
-4.537509575e-11
9.165189e-06
7.958513834e-11
-1.959769306e-10
9.165165777e-06
1.017412304e-10
-3.507770154e-10
9.165593077e-06
3.433543985e-10
-2.148617556e-09
6.558243721e-10
-4.667309319e-09
9.165461302e-06
-1.028999223e-12
-1.121851129e-12
9.165459222e-06
-1.146875031e-12
2.94488183e-13
9.165462106e-06
9.868267581e-13
9.948002607e-13
9.165460368e-06
1.67365965e-12
5.46319875e-13
9.165459666e-06
1.017433345e-12
-3.568281292e-13
9.165457846e-06
1.921984581e-12
-2.264304237e-13
9.165459767e-06
4.305991522e-12
8.187363564e-13
9.165453995e-06
5.838610466e-12
-3.276495655e-12
9.165450425e-06
7.226475115e-12
-6.005328801e-12
9.165445364e-06
1.675529499e-11
-1.625055796e-11
9.165454481e-06
1.944660801e-11
-2.504919043e-11
9.165483416e-06
6.722959475e-11
-8.009602254e-11
9.165589838e-06
5.076174701e-11
-1.001086817e-10
9.16581245e-06
2.329111828e-10
-3.427124526e-10
6.673771782e-10
-6.550878469e-10
9.165377127e-06
-1.323078677e-12
-2.260446999e-12
9.165377729e-06
-1.926853818e-12
-2.118911114e-13
9.165376229e-06
-6.021335351e-13
9.264908254e-13
9.16537544e-06
-6.10113747e-13
2.842465267e-13
9.165375139e-06
3.506003238e-13
-7.21472795e-14
9.165375272e-06
1.711062593e-12
-8.824580858e-13
9.165373007e-06
3.950684361e-12
-1.012795922e-12
9.165370218e-06
5.385310666e-12
-2.095702966e-12
9.165368786e-06
6.829205452e-12
-5.046231649e-12
9.165368796e-06
1.672735723e-11
-1.096065285e-11
9.165365083e-06
2.225180818e-11
-1.915009164e-11
9.165379743e-06
5.330479671e-11
-4.799483803e-11
9.165385861e-06
5.733689916e-11
-7.594943432e-11
9.165534221e-06
1.218209779e-10
-1.768329485e-10
3.382374419e-10
-3.76191424e-10
9.165425699e-06
-6.211878976e-14
-1.754712883e-12
9.16542835e-06
1.197894166e-12
1.897339494e-13
9.165425177e-06
5.169174981e-13
2.86890213e-13
9.165427829e-06
6.986123144e-13
-1.573754601e-13
9.16542727e-06
1.990917363e-13
-1.245964721e-12
9.165427381e-06
1.4319039e-12
-1.67808625e-12
9.165425588e-06
1.229941679e-12
-1.716036498e-12
9.165426426e-06
1.241811482e-12
-1.977076365e-12
9.165429641e-06
2.787442021e-12
-4.041933891e-12
9.165434704e-06
9.695108552e-12
-7.466112803e-12
9.165437011e-06
1.210485681e-11
-1.356766643e-11
9.16546318e-06
2.523330122e-11
-2.507306737e-11
9.165487687e-06
3.320380769e-11
-3.956969381e-11
9.165568306e-06
4.978758974e-11
-6.477663328e-11
1.468973511e-10
-1.26563623e-10
9.165397982e-06
-1.046296275e-12
9.165397397e-06
-3.80578916e-13
9.165397524e-06
-1.913240149e-13
9.165399833e-06
-7.908677227e-13
9.165400469e-06
-8.732840629e-13
9.165402734e-06
-1.426449974e-12
9.165402225e-06
-1.960170661e-12
9.165405161e-06
-7.606182504e-13
9.165411491e-06
-1.31869638e-12
9.165416961e-06
-4.063278285e-12
9.165421864e-06
-8.47204061e-12
9.165446696e-06
-1.520993585e-11
9.165475356e-06
-2.560496352e-11
9.165529708e-06
-3.586247041e-11
-6.479981789e-11
9.165425519e-06
3.164303925e-13
-5.968798612e-13
9.165426086e-06
-9.111967635e-13
-7.101075747e-13
9.165427252e-06
-1.02148959e-12
1.73631141e-13
9.165427725e-06
-5.039280317e-13
-5.147540266e-13
9.165427521e-06
-1.436358117e-12
6.413118408e-13
9.165425189e-06
-2.640737622e-12
5.30867095e-13
9.165423501e-06
-4.054968822e-12
1.401387553e-12
9.165425841e-06
-4.744370658e-12
1.142040451e-12
9.165424451e-06
-7.092452659e-12
1.596132774e-12
9.165428241e-06
-1.394554181e-11
4.750088421e-12
9.16543022e-06
-1.981474402e-11
8.072753747e-12
9.165445046e-06
-4.73038663e-11
1.494271512e-11
9.165460653e-06
-6.816505451e-11
2.435887858e-11
-1.422655236e-10
3.609622122e-11
9.16538447e-06
-1.563026199e-14
3.171785506e-13
9.165386006e-06
-9.799759062e-13
1.466091626e-13
9.16538909e-06
-3.612908841e-13
3.308170508e-13
9.165388464e-06
-1.776594056e-12
9.410894967e-13
9.165389679e-06
-6.523502966e-13
1.408259487e-12
9.165388793e-06
-2.948319244e-12
1.309112001e-12
9.16538787e-06
-3.563659368e-12
2.399145746e-12
9.165386093e-06
-7.117392698e-12
3.277094965e-12
9.165383935e-06
-9.504097622e-12
4.875903396e-12
9.165380962e-06
-2.432413616e-11
6.577748614e-12
9.165375004e-06
-3.383958798e-11
1.072784727e-11
9.165382644e-06
-1.014997806e-10
2.402855311e-11
9.165369369e-06
-1.331253576e-10
3.965285489e-11
-4.045481742e-10
6.539642805e-11
9.165405476e-06
-1.859739149e-12
-1.132111579e-12
9.165407119e-06
3.796132802e-14
2.032123629e-13
9.165407485e-06
1.88607121e-12
1.665121757e-12
9.165409347e-06
1.080156423e-12
4.413605506e-13
9.165405213e-06
-1.231945682e-12
1.180891483e-12
9.165406421e-06
-9.923785925e-13
2.563618785e-12
9.16540392e-06
-1.857666046e-12
2.102403103e-12
9.165399764e-06
-6.073513173e-12
4.462802485e-12
9.165387811e-06
-9.608661407e-12
4.434602495e-12
9.165370517e-06
-2.944225109e-11
1.082469975e-11
9.165336015e-06
-3.529661666e-11
1.868938118e-11
9.165293972e-06
-1.533286614e-10
4.844080286e-11
9.165180851e-06
-1.699208153e-10
7.61939778e-11
-1.035509111e-09
1.776774946e-10
9.165425316e-06
1.173395251e-12
4.892202656e-14
9.165426984e-06
9.573486834e-14
1.874009852e-12
9.165425376e-06
-1.616850466e-12
3.470775203e-13
9.16542182e-06
-1.821359527e-12
-7.042933419e-13
9.165421756e-06
-2.059917075e-12
9.545134479e-13
9.165418838e-06
-2.307244438e-12
1.50282676e-12
9.165416403e-06
-2.121246799e-12
3.560174919e-12
9.165406878e-06
-4.913069099e-12
5.010174688e-12
9.165390883e-06
-8.560664421e-12
5.471610015e-12
9.16536273e-06
-2.585721784e-11
1.55350805e-11
9.165323512e-06
-4.478553614e-11
2.37180983e-11
9.165203835e-06
-1.962364674e-10
7.937422928e-11
9.16518458e-06
-3.509061189e-10
1.021668575e-10
-2.149060745e-09
3.445779001e-10
9.165410236e-06
-1.098488441e-12
1.334159613e-13
9.16541295e-06
1.329334017e-12
2.455956085e-12
9.165412347e-06
2.956540813e-13
1.485936853e-12
9.165409735e-06
-4.416791446e-13
7.83659412e-14
9.165409082e-06
2.396784863e-13
4.792386194e-14
9.165404457e-06
1.404461051e-12
2.189798179e-13
9.165396381e-06
1.601303322e-12
3.150804225e-12
9.165380637e-06
3.71241275e-12
5.206591873e-12
9.16534826e-06
8.019710993e-12
8.137925137e-12
9.165249616e-06
2.545614468e-11
2.371735252e-11
9.165069246e-06
4.374302374e-11
4.429731347e-11
9.164283623e-06
1.953079192e-10
1.970083041e-10
9.162874209e-06
3.518212571e-10
3.525427797e-10
9.154282869e-06
2.149561431e-09
2.150233794e-09
4.66883767e-09
9.16543188e-06
-1.169779985e-12
2.965487811e-13
9.165429865e-06
-1.415893728e-12
1.130634013e-13
9.165429384e-06
8.552535569e-13
-1.073916976e-12
9.165429028e-06
1.796580051e-12
6.649941352e-13
9.165427767e-06
1.322303213e-12
-1.260922593e-13
9.165425912e-06
3.634139314e-13
-2.061326257e-13
9.165421411e-06
2.393754979e-12
9.836286264e-13
9.165415048e-06
7.041840602e-12
3.418580338e-12
9.16540092e-06
9.10377319e-12
5.235658235e-12
9.165368029e-06
2.813979707e-11
1.460766811e-11
9.165329426e-06
3.532277107e-11
2.30023053e-11
9.165211919e-06
1.549174943e-10
7.93573151e-11
9.165189197e-06
1.703812373e-10
1.015475397e-10
9.165613558e-06
1.036102401e-09
3.417547858e-10
2.675567886e-09
9.165449586e-06
-6.662497654e-13
-8.516055004e-13
9.165449386e-06
-9.400305607e-13
-2.537295545e-13
9.165447862e-06
-1.119599075e-12
-1.211730913e-12
9.165449876e-06
-1.194261146e-12
-2.732812749e-15
9.165448363e-06
9.042833828e-14
-4.951846774e-13
9.165449014e-06
1.173656469e-12
-1.096975693e-13
9.165444224e-06
3.071751943e-12
1.034991101e-12
9.165435984e-06
5.991833958e-12
1.662241201e-12
9.165426574e-06
9.171240622e-12
3.264580991e-12
9.165410182e-06
2.561314156e-11
9.756017467e-12
9.165375968e-06