/*--------------------------------*- C++ -*----------------------------------*\
| =========                 |                                                 |
| \\      /  F ield         | OpenFOAM: The Open Source CFD Toolbox           |
|  \\    /   O peration     | Version:  4.x                                   |
|   \\  /    A nd           | Web:      www.OpenFOAM.org                      |
|    \\/     M anipulation  |                                                 |
\*---------------------------------------------------------------------------*/
FoamFile
{
    version     2.0;
    format      ascii;
    class       volScalarField;
    location    "8000";
    object      T;
}
// * * * * * * * * * * * * * * * * * * * * * * * * * * * * * * * * * * * * * //

dimensions      [0 0 0 1 0 0 0];

internalField   nonuniform List<scalar> 
1175
(
1223.149228
1223.149212
1223.149183
1223.149295
1223.149258
1223.149257
1223.149344
1223.149451
1223.149417
1223.149341
1223.149204
1223.149276
1223.149403
1223.149569
1223.149674
1223.15137
1223.151393
1223.151179
1223.15121
1223.151213
1223.151248
1223.151137
1223.151348
1223.151345
1223.151336
1223.151316
1223.151236
1223.151252
1223.151431
1223.151508
1223.14563
1223.145722
1223.145837
1223.145951
1223.145693
1223.145696
1223.145802
1223.145897
1223.145855
1223.145855
1223.146013
1223.145979
1223.146055
1223.146136
1223.146396
1223.148981
1223.148964
1223.148904
1223.148818
1223.148923
1223.14889
1223.148811
1223.148827
1223.148747
1223.148747
1223.148711
1223.148806
1223.148877
1223.149249
1223.149636
1223.149177
1223.149223
1223.149311
1223.149183
1223.149173
1223.149202
1223.149167
1223.149318
1223.149114
1223.14928
1223.149268
1223.149298
1223.149293
1223.149472
1223.150202
1223.151869
1223.152012
1223.152101
1223.152105
1223.151919
1223.15188
1223.151804
1223.151796
1223.151718
1223.151661
1223.151628
1223.151613
1223.151798
1223.151995
1223.15246
1223.149426
1223.149336
1223.149275
1223.149359
1223.149349
1223.149228
1223.149085
1223.149028
1223.148996
1223.149203
1223.149168
1223.149231
1223.149334
1223.149391
1223.149566
1223.148575
1223.148678
1223.148843
1223.148746
1223.148739
1223.148673
1223.148939
1223.148807
1223.148914
1223.148769
1223.148645
1223.148877
1223.148806
1223.148896
1223.149013
1223.149842
1223.14989
1223.149696
1223.149747
1223.149694
1223.1498
1223.149849
1223.149799
1223.149973
1223.150016
1223.149981
1223.150031
1223.150082
1223.150057
1223.150088
1223.153046
1223.153129
1223.153157
1223.153212
1223.153239
1223.153272
1223.153368
1223.15334
1223.15335
1223.153371
1223.153613
1223.153603
1223.153626
1223.153605
1223.151286
1223.151401
1223.151352
1223.151388
1223.151343
1223.151252
1223.15127
1223.151267
1223.151381
1223.151424
1223.151604
1223.15166
1223.15157
1223.15167
1223.15181
1223.149948
1223.150026
1223.150218
1223.15025
1223.150393
1223.150406
1223.150498
1223.150359
1223.150212
1223.150305
1223.150394
1223.15053
1223.150634
1223.151005
1223.151666
1223.148511
1223.148591
1223.148633
1223.148711
1223.148529
1223.148881
1223.148847
1223.148976
1223.14894
1223.149104
1223.149185
1223.149375
1223.149531
1223.150577
1223.151952
1223.157674
1223.157542
1223.157552
1223.157671
1223.157613
1223.157506
1223.15756
1223.157491
1223.157486
1223.157558
1223.157609
1223.157842
1223.158302
1223.1592
1223.161479
1223.154041
1223.154081
1223.153925
1223.15384
1223.153716
1223.153754
1223.153814
1223.153984
1223.153898
1223.15387
1223.154004
1223.153959
1223.154298
1223.154984
1223.156394
1223.151496
1223.151564
1223.151743
1223.151503
1223.151797
1223.151721
1223.151795
1223.151714
1223.151695
1223.151779
1223.151772
1223.151747
1223.151892
1223.152284
1223.153065
1223.150764
1223.150788
1223.15074
1223.150795
1223.150738
1223.150843
1223.150724
1223.15072
1223.150748
1223.150827
1223.150683
1223.150628
1223.150906
1223.150829
1223.151058
1223.153448
1223.153379
1223.15335
1223.153327
1223.153317
1223.153347
1223.153216
1223.153343
1223.153208
1223.153127
1223.15319
1223.153191
1223.15321
1223.153247
1223.153576
1223.147321
1223.147429
1223.147375
1223.147424
1223.147673
1223.147736
1223.147832
1223.147788
1223.147653
1223.14773
1223.14776
1223.147684
1223.147754
1223.147991
1223.149198
1223.149307
1223.149218
1223.149171
1223.149211
1223.149368
1223.149334
1223.149379
1223.149222
1223.149281
1223.149123
1223.149158
1223.149336
1223.149893
1223.155015
1223.155088
1223.155222
1223.155255
1223.155231
1223.15534
1223.155482
1223.155387
1223.155371
1223.155207
1223.155067
1223.155172
1223.155448
1223.156424
1223.158382
1223.146804
1223.146658
1223.146699
1223.146724
1223.146837
1223.146764
1223.146647
1223.146512
1223.146451
1223.146452
1223.14647
1223.146887
1223.147627
1223.150037
1223.155185
1223.154598
1223.154507
1223.154601
1223.154639
1223.154591
1223.154627
1223.154662
1223.154793
1223.154714
1223.154736
1223.154856
1223.155365
1223.156669
1223.161023
1223.171639
1223.145932
1223.145854
1223.145928
1223.14597
1223.146121
1223.146171
1223.146129
1223.146073
1223.14606
1223.146044
1223.145849
1223.146094
1223.14701
1223.149574
1223.154736
1223.142168
1223.141939
1223.141934
1223.141834
1223.141871
1223.141943
1223.141933
1223.141881
1223.141926
1223.141856
1223.141976
1223.142065
1223.142448
1223.143353
1223.145339
1223.153558
1223.153734
1223.153632
1223.153722
1223.153744
1223.153721
1223.153616
1223.153751
1223.153811
1223.153737
1223.153571
1223.15376
1223.154042
1223.154541
1223.155361
1223.150242
1223.150201
1223.150172
1223.150179
1223.150227
1223.150356
1223.150344
1223.15027
1223.150146
1223.150331
1223.150352
1223.150376
1223.150463
1223.150681
1223.150872
1223.144451
1223.144515
1223.144627
1223.144544
1223.144542
1223.144505
1223.144557
1223.144589
1223.144638
1223.144624
1223.144583
1223.144604
1223.144726
1223.145212
1223.155184
1223.155155
1223.155004
1223.155278
1223.155336
1223.155188
1223.155219
1223.155085
1223.155075
1223.155067
1223.155122
1223.155195
1223.155331
1223.15594
1223.155598
1223.155734
1223.155655
1223.155521
1223.155608
1223.155796
1223.155811
1223.155917
1223.155804
1223.156142
1223.156242
1223.156601
1223.157401
1223.159979
1223.161487
1223.161289
1223.161364
1223.161351
1223.161223
1223.161167
1223.161192
1223.161223
1223.161393
1223.161399
1223.161478
1223.162122
1223.164416
1223.171776
1223.190462
1223.150183
1223.150079
1223.150177
1223.150094
1223.150162
1223.15032
1223.150298
1223.150371
1223.150381
1223.15042
1223.150802
1223.151744
1223.156254
1223.174631
1223.234748
1223.143707
1223.143836
1223.143887
1223.143904
1223.14384
1223.143942
1223.143989
1223.14383
1223.143866
1223.143908
1223.143912
1223.144534
1223.146604
1223.154062
1223.172802
1223.155238
1223.155161
1223.155108
1223.155274
1223.155414
1223.155318
1223.155297
1223.155304
1223.155248
1223.155308
1223.155144
1223.155415
1223.156195
1223.158541
1223.163785
1223.148373
1223.148478
1223.148563
1223.148627
1223.148641
1223.148495
1223.14843
1223.148478
1223.148528
1223.148689
1223.148783
1223.148856
1223.149217
1223.150034
1223.151533
1223.15227
1223.152322
1223.15233
1223.152302
1223.152257
1223.152101
1223.151993
1223.151987
1223.151894
1223.151851
1223.152039
1223.152189
1223.152222
1223.15254
1223.153109
1223.148602
1223.14863
1223.14878
1223.148663
1223.148678
1223.148806
1223.148738
1223.148764
1223.14875
1223.148629
1223.14866
1223.148862
1223.148887
1223.149337
1223.1541
1223.153892
1223.153679
1223.153688
1223.153697
1223.153797
1223.153672
1223.153585
1223.15368
1223.15341
1223.153584
1223.153625
1223.153738
1223.154692
1223.150995
1223.151093
1223.151004
1223.151141
1223.151024
1223.150889
1223.150919
1223.150811
1223.150783
1223.15084
1223.15088
1223.151151
1223.152579
1223.156858
1223.148799
1223.148847
1223.148739
1223.148642
1223.148733
1223.148801
1223.148932
1223.148955
1223.148783
1223.148799
1223.148938
1223.149696
1223.154069
1223.172245
1223.150566
1223.150558
1223.15064
1223.150639
1223.150543
1223.150501
1223.150559
1223.150726
1223.150571
1223.150464
1223.150743
1223.152647
1223.163141
1223.23025
1219.658645
1223.147775
1223.148022
1223.148182
1223.148152
1223.148139
1223.147994
1223.14784
1223.147778
1223.147695
1223.147914
1223.148097
1223.149051
1223.153243
1223.17151
1223.231591
1223.145491
1223.145676
1223.145378
1223.145293
1223.145305
1223.145435
1223.145467
1223.14549
1223.145618
1223.145717
1223.145844
1223.146074
1223.147416
1223.151667
1223.162182
1223.144774
1223.144899
1223.144993
1223.145032
1223.145139
1223.145261
1223.145237
1223.145094
1223.145026
1223.145186
1223.145235
1223.14539
1223.145611
1223.146823
1223.149093
1223.149078
1223.14901
1223.149008
1223.149044
1223.149077
1223.149185
1223.149183
1223.149155
1223.149301
1223.149141
1223.149142
1223.149096
1223.149529
1223.149929
1223.150621
1223.155772
1223.155873
1223.155882
1223.155961
1223.155931
1223.155918
1223.156031
1223.155903
1223.155983
1223.156035
1223.156045
1223.156177
1223.156188
1223.156505
1223.150191
1223.150201
1223.150057
1223.150096
1223.150192
1223.149941
1223.149893
1223.149852
1223.149967
1223.150047
1223.150002
1223.150044
1223.15025
1223.151027
1223.152046
1223.151949
1223.152119
1223.152119
1223.152113
1223.152262
1223.152384
1223.152319
1223.152349
1223.152285
1223.152155
1223.152484
1223.153367
1223.155816
1223.14877
1223.148767
1223.148795
1223.148696
1223.148661
1223.148422
1223.14814
1223.148362
1223.148358
1223.148199
1223.148336
1223.148899
1223.150933
1223.158451
1223.153957
1223.153845
1223.153858
1223.153928
1223.153864
1223.153913
1223.153934
1223.153797
1223.153858
1223.154132
1223.154339
1223.155307
1223.159597
1223.177616
1223.157611
1223.15783
1223.157953
1223.157949
1223.157982
1223.158033
1223.157994
1223.158134
1223.158035
1223.158068
1223.158228
1223.15875
1223.160714
1223.168312
1223.152116
1223.152035
1223.152257
1223.152249
1223.152374
1223.152212
1223.152276
1223.152163
1223.152039
1223.152018
1223.15221
1223.15239
1223.153094
1223.155452
1223.160523
1223.148855
1223.148784
1223.148699
1223.148636
1223.148845
1223.148841
1223.148845
1223.148846
1223.148742
1223.148768
1223.148707
1223.148686
1223.149028
1223.149847
1223.151306
1223.150949
1223.150916
1223.150902
1223.150928
1223.150722
1223.150802
1223.150816
1223.150684
1223.150866
1223.151033
1223.151166
1223.15119
1223.151235
1223.151609
1223.152147
1223.147306
1223.147283
1223.147365
1223.147384
1223.147324
1223.147274
1223.147395
1223.147234
1223.147258
1223.147253
1223.14719
1223.147223
1223.147298
1223.14753
1223.151662
1223.151531
1223.151423
1223.151255
1223.15128
1223.151407
1223.151525
1223.151513
1223.151515
1223.151697
1223.151723
1223.151649
1223.151853
1223.152404
1223.145941
1223.145961
1223.146018
1223.14581
1223.145989
1223.145794
1223.145889
1223.145822
1223.145698
1223.145818
1223.145837
1223.145825
1223.146274
1223.147315
1223.145827
1223.145806
1223.145847
1223.145824
1223.145778
1223.146017
1223.146157
1223.146164
1223.146101
1223.146243
1223.146354
1223.146551
1223.147337
1223.149503
1223.157428
1223.157493
1223.157514
1223.157546
1223.157742
1223.157768
1223.157535
1223.157422
1223.157286
1223.157296
1223.157459
1223.15787
1223.159398
1223.163777
1223.149274
1223.149332
1223.149199
1223.149248
1223.149076
1223.148804
1223.148939
1223.14909
1223.14907
1223.149235
1223.149218
1223.149505
1223.150673
1223.15296
1223.149737
1223.149719
1223.149567
1223.149528
1223.149534
1223.149406
1223.149253
1223.149429
1223.14954
1223.149351
1223.149355
1223.149475
1223.149926
1223.150991
1223.152392
1223.152432
1223.152448
1223.152326
1223.152215
1223.152299
1223.152464
1223.152621
1223.152615
1223.152581
1223.152469
1223.152473
1223.152486
1223.152975
1223.153453
1223.149107
1223.14922
1223.149157
1223.149236
1223.149224
1223.149352
1223.149197
1223.149045
1223.149271
1223.149299
1223.149369
1223.149371
1223.149403
1223.149755
1223.149889
1223.14813
1223.148138
1223.148309
1223.148329
1223.148339
1223.1482
1223.148152
1223.148266
1223.148194
1223.148288
1223.148159
1223.148261
1223.148388
1223.148571
1223.149124
1223.149026
1223.148894
1223.148888
1223.148661
1223.14875
1223.148887
1223.148809
1223.14879
1223.148668
1223.148648
1223.1486
1223.148608
1223.148608
1223.153763
1223.15362
1223.153765
1223.153683
1223.153643
1223.153735
1223.153767
1223.153912
1223.153807
1223.153903
1223.153961
1223.154094
1223.154429
1223.154793
1223.154616
1223.154624
1223.154781
1223.154857
1223.154957
1223.154908
1223.155034
1223.154896
1223.154964
1223.154927
1223.154944
1223.155074
1223.155368
1223.156148
1223.150661
1223.150529
1223.150533
1223.150379
1223.150469
1223.150338
1223.150048
1223.149882
1223.149751
1223.149897
1223.149962
1223.150228
1223.150567
1223.151579
1223.156304
1223.156107
1223.156176
1223.156058
1223.156025
1223.156172
1223.156115
1223.156013
1223.156131
1223.155902
1223.156042
1223.15611
1223.156412
1223.156998
1223.146585
1223.146575
1223.146585
1223.14643
1223.146548
1223.146581
1223.146841
1223.146998
1223.147142
1223.147002
1223.147136
1223.147231
1223.147336
1223.147837
1223.148968
1223.148907
1223.148789
1223.148726
1223.148673
1223.148559
1223.148503
1223.148397
1223.14834
1223.14843
1223.148295
1223.148358
1223.148345
1223.148335
1223.152567
1223.152543
1223.15256
1223.152516
1223.15253
1223.152493
1223.15246
1223.152475
1223.152284
1223.152284
1223.152589
1223.152544
1223.152639
1223.15267
1223.152873
1223.148435
1223.148307
1223.148408
1223.14831
1223.148345
1223.148359
1223.148307
1223.148205
1223.148393
1223.148365
1223.148379
1223.148431
1223.148267
1223.148287
1223.150059
1223.150094
1223.150122
1223.15015
1223.150112
1223.150142
1223.150334
1223.150422
1223.150303
1223.150268
1223.15026
1223.150243
1223.150301
1223.150167
1223.150852
1223.150974
1223.150953
1223.150866
1223.150746
1223.150793
1223.15069
1223.150839
1223.150851
1223.150849
1223.150998
1223.151133
1223.151222
1223.151342
1223.151944
1223.151843
1223.151992
1223.152073
1223.151965
1223.151828
1223.151803
1223.151873
1223.151869
1223.151929
1223.151969
1223.152038
1223.151987
1223.152337
1223.147533
1223.147376
1223.14747
1223.147426
1223.147549
1223.147657
1223.147557
1223.147549
1223.147725
1223.147714
1223.147854
1223.147924
1223.1481
1223.14841
1223.148547
1223.148625
1223.148626
1223.14872
1223.148642
1223.148513
1223.148555
1223.148609
1223.148626
1223.148624
1223.148476
1223.148468
1223.148652
1223.14888
1223.14112
1223.141033
1223.141061
1223.141147
1223.141005
1223.140961
1223.141027
1223.14096
1223.140917
1223.140831
1223.140873
1223.140902
1223.140992
1223.141153
1223.150668
1223.150618
1223.150591
1223.150741
1223.150686
1223.150712
1223.150615
1223.150704
1223.150764
1223.150818
1223.150777
1223.150648
1223.150717
1223.150793
1223.15138
1223.151547
1223.15139
1223.151301
1223.151308
1223.151308
1223.151229
1223.15118
1223.151207
1223.151292
1223.151348
1223.151262
1223.151312
1223.151395
)
;

boundaryField
{
    top
    {
        type            zeroGradient;
    }
    bottom
    {
        type            zeroGradient;
    }
    side-walls
    {
        type            zeroGradient;
    }
    inlet
    {
        type            zeroGradient;
    }
    outlet
    {
        type            zeroGradient;
    }
    procBoundary0to1
    {
        type            processor;
        value           nonuniform List<scalar> 
97
(
1223.149645
1223.153836
1223.151765
1223.146635
1223.150601
1223.151047
1223.153414
1223.150094
1223.149209
1223.150262
1223.153836
1223.153836
1223.152588
1223.150783
1223.152636
1223.153845
1223.164307
1223.158234
1223.153962
1223.151646
1223.153734
1223.148288
1223.150783
1223.150783
1223.161114
1223.165092
1223.160534
1223.179518
1223.160293
1223.148001
1223.156446
1223.151239
1223.145773
1223.15748
1223.165092
1223.165092
1223.202958
1223.232289
1223.243351
1223.185148
1223.169301
1223.15319
1223.153866
1223.149891
1223.157038
1223.167616
1223.232289
1223.232289
1219.436506
1223.237737
1223.240496
1223.187131
1223.169985
1223.151825
1223.151647
1223.15721
1223.15262
1223.160897
1223.177436
1223.237737
1223.187131
1223.187131
1223.165934
1223.15296
1223.153381
1223.152885
1223.147714
1223.153203
1223.149261
1223.154663
1223.174377
1223.158253
1223.15296
1223.15296
1223.154523
1223.148722
1223.150513
1223.148709
1223.148909
1223.155402
1223.1576
1223.153898
1223.158373
1223.148572
1223.148722
1223.148722
1223.153224
1223.151719
1223.148433
1223.150392
1223.151606
1223.15275
1223.149197
1223.149305
1223.141416
1223.150833
1223.151719
)
;
    }
}


// ************************************************************************* //
