/*--------------------------------*- C++ -*----------------------------------*\
| =========                 |                                                 |
| \\      /  F ield         | OpenFOAM: The Open Source CFD Toolbox           |
|  \\    /   O peration     | Version:  4.x                                   |
|   \\  /    A nd           | Web:      www.OpenFOAM.org                      |
|    \\/     M anipulation  |                                                 |
\*---------------------------------------------------------------------------*/
FoamFile
{
    version     2.0;
    format      ascii;
    class       volScalarField;
    location    "8000";
    object      X_H2;
}
// * * * * * * * * * * * * * * * * * * * * * * * * * * * * * * * * * * * * * //

dimensions      [0 0 0 0 0 0 0];

internalField   nonuniform List<scalar> 
1175
(
0.05987668932
0.05987668932
0.05987668932
0.05987668932
0.05987668931
0.05987668926
0.05987668912
0.05987668865
0.05987668719
0.05987668288
0.05987667083
0.05987663937
0.05987656377
0.05987639923
0.05987607986
0.05987668932
0.05987668932
0.05987668932
0.05987668932
0.0598766893
0.05987668925
0.05987668905
0.0598766884
0.05987668632
0.05987667991
0.05987666125
0.05987661059
0.0598764847
0.05987620483
0.05987566174
0.05987668932
0.05987668932
0.05987668932
0.05987668932
0.0598766893
0.05987668922
0.05987668894
0.05987668797
0.05987668472
0.05987667427
0.05987664239
0.05987655175
0.05987631701
0.05987578011
0.05987473603
0.05987668932
0.05987668932
0.05987668932
0.05987668932
0.05987668929
0.05987668919
0.05987668882
0.05987668751
0.05987668294
0.0598766677
0.05987661922
0.05987647529
0.05987608637
0.0598751665
0.0598733655
0.05987668932
0.05987668932
0.05987668932
0.05987668931
0.05987668929
0.05987668917
0.05987668877
0.05987668729
0.05987668207
0.0598766643
0.05987660644
0.05987642974
0.05987593694
0.05987473537
0.05987235429
0.05987668932
0.05987668932
0.05987668932
0.05987668932
0.05987668929
0.05987668919
0.05987668882
0.05987668751
0.05987668294
0.0598766677
0.05987661922
0.05987647529
0.05987608637
0.0598751665
0.05987336552
0.05987668932
0.05987668932
0.05987668932
0.05987668932
0.0598766893
0.05987668922
0.05987668894
0.05987668797
0.05987668472
0.05987667427
0.05987664239
0.05987655175
0.05987631702
0.05987578012
0.05987473605
0.05987668932
0.05987668932
0.05987668932
0.05987668932
0.0598766893
0.05987668925
0.05987668905
0.0598766884
0.05987668632
0.05987667991
0.05987666125
0.05987661059
0.0598764847
0.05987620484
0.05987566177
0.05987668932
0.05987668932
0.05987668932
0.05987668932
0.05987668931
0.05987668926
0.05987668912
0.05987668865
0.05987668719
0.05987668288
0.05987667083
0.05987663938
0.05987656377
0.05987639924
0.05987607989
0.05987668932
0.05987668932
0.05987668932
0.05987668932
0.0598766893
0.05987668925
0.05987668905
0.0598766884
0.05987668632
0.05987667991
0.05987666125
0.05987661059
0.05987648469
0.05987620482
0.05987668932
0.05987668932
0.05987668932
0.05987668932
0.0598766893
0.05987668922
0.05987668895
0.05987668801
0.05987668485
0.0598766746
0.05987664309
0.05987655272
0.05987631673
0.05987577366
0.05987471676
0.05987668932
0.05987668932
0.05987668932
0.05987668931
0.05987668929
0.05987668918
0.05987668877
0.05987668729
0.05987668201
0.05987666388
0.05987660452
0.05987642298
0.05987591895
0.05987470248
0.05987231154
0.05987668932
0.05987668932
0.05987668932
0.05987668931
0.05987668928
0.05987668913
0.05987668858
0.05987668647
0.05987667863
0.05987665025
0.05987655177
0.05987623055
0.05987527626
0.05987282804
0.05986789961
0.05987668932
0.05987668932
0.05987668932
0.05987668931
0.05987668927
0.05987668911
0.05987668849
0.05987668607
0.05987667684
0.05987664242
0.05987651837
0.05987609387
0.05987475599
0.05987108994
0.05986337602
0.05987668932
0.05987668932
0.05987668932
0.05987668931
0.05987668928
0.05987668913
0.05987668858
0.05987668647
0.05987667863
0.05987665025
0.05987655177
0.05987623056
0.05987527628
0.05987282808
0.05986789971
0.05987668932
0.05987668932
0.05987668932
0.05987668931
0.05987668929
0.05987668918
0.05987668877
0.05987668729
0.05987668201
0.05987666388
0.05987660452
0.05987642299
0.05987591896
0.05987470254
0.05987231166
0.05987668932
0.05987668932
0.05987668932
0.05987668932
0.0598766893
0.05987668922
0.05987668895
0.05987668801
0.05987668485
0.0598766746
0.05987664309
0.05987655272
0.05987631674
0.0598757737
0.05987471685
0.05987668932
0.05987668932
0.05987668932
0.05987668932
0.0598766893
0.05987668925
0.05987668905
0.0598766884
0.05987668632
0.05987667991
0.05987666125
0.05987661059
0.0598764847
0.05987620484
0.05987566177
0.05987668932
0.05987668932
0.05987668932
0.05987668932
0.0598766893
0.05987668922
0.05987668894
0.05987668797
0.05987668472
0.05987667427
0.05987664239
0.05987655175
0.059876317
0.05987578008
0.05987668932
0.05987668932
0.05987668932
0.05987668931
0.05987668929
0.05987668918
0.05987668877
0.05987668729
0.05987668201
0.05987666388
0.05987660452
0.05987642298
0.05987591893
0.05987470243
0.05987668932
0.05987668932
0.05987668932
0.05987668931
0.05987668927
0.05987668911
0.05987668846
0.05987668597
0.05987667649
0.05987664141
0.05987651703
0.05987610281
0.05987484919
0.05987158773
0.05986499462
0.05987668932
0.05987668932
0.05987668932
0.05987668931
0.05987668925
0.05987668903
0.05987668812
0.05987668439
0.05987666937
0.05987660995
0.0598763822
0.05987555242
0.05987277565
0.05986477079
0.05984751584
0.05987668932
0.05987668932
0.05987668932
0.05987668931
0.05987668925
0.05987668899
0.05987668794
0.05987668354
0.05987666522
0.05987658953
0.05987628225
0.05987507414
0.05987060575
0.05985599541
0.05982030145
0.05987668932
0.05987668932
0.05987668932
0.05987668931
0.05987668925
0.05987668903
0.05987668812
0.05987668439
0.05987666937
0.05987660996
0.0598763822
0.05987555244
0.05987277572
0.05986477102
0.05984751642
0.05987668932
0.05987668932
0.05987668932
0.05987668931
0.05987668927
0.05987668911
0.05987668846
0.05987668597
0.05987667649
0.05987664141
0.05987651703
0.05987610283
0.05987484925
0.05987158794
0.05986499514
0.05987668932
0.05987668932
0.05987668932
0.05987668931
0.05987668929
0.05987668918
0.05987668877
0.05987668729
0.05987668201
0.05987666388
0.05987660452
0.05987642299
0.05987591896
0.05987470254
0.05987231166
0.05987668932
0.05987668932
0.05987668932
0.05987668932
0.0598766893
0.05987668922
0.05987668894
0.05987668797
0.05987668472
0.05987667427
0.05987664239
0.05987655175
0.05987631702
0.05987578012
0.05987473606
0.05987668932
0.05987668932
0.05987668932
0.05987668932
0.05987668929
0.05987668919
0.05987668882
0.05987668751
0.05987668294
0.0598766677
0.05987661922
0.05987647529
0.05987608635
0.05987516644
0.05987668932
0.05987668932
0.05987668932
0.05987668931
0.05987668928
0.05987668913
0.05987668858
0.05987668647
0.05987667863
0.05987665025
0.05987655176
0.05987623054
0.05987527622
0.0598728279
0.05987668932
0.05987668932
0.05987668932
0.05987668931
0.05987668925
0.05987668903
0.05987668812
0.05987668439
0.05987666937
0.05987660995
0.05987638219
0.0598755524
0.05987277556
0.05986477043
0.05987668932
0.05987668932
0.05987668932
0.0598766893
0.05987668923
0.05987668892
0.05987668757
0.05987668174
0.05987665651
0.05987654789
0.05987608658
0.05987418603
0.05986682443
0.0598417338
0.05977872689
0.05987668932
0.05987668932
0.05987668932
0.0598766893
0.05987668922
0.05987668886
0.05987668728
0.05987668022
0.05987664825
0.0598765019
0.05987582548
0.05987269165
0.05985840244
0.05979729369
0.05958897864
0.05987668932
0.05987668932
0.05987668932
0.0598766893
0.05987668923
0.05987668892
0.05987668757
0.05987668174
0.05987665651
0.05987654789
0.05987608659
0.05987418609
0.05986682468
0.05984173477
0.05977873006
0.05987668932
0.05987668932
0.05987668932
0.05987668931
0.05987668925
0.05987668903
0.05987668812
0.05987668439
0.05987666937
0.05987660995
0.0598763822
0.05987555244
0.0598727757
0.05986477097
0.05984751637
0.05987668932
0.05987668932
0.05987668932
0.05987668931
0.05987668928
0.05987668913
0.05987668858
0.05987668647
0.05987667863
0.05987665025
0.05987655177
0.05987623056
0.05987527628
0.05987282809
0.05986789973
0.05987668932
0.05987668932
0.05987668932
0.05987668932
0.05987668929
0.05987668919
0.05987668882
0.05987668751
0.05987668294
0.0598766677
0.05987661922
0.05987647529
0.05987608637
0.05987516651
0.05987336553
0.05987668932
0.05987668932
0.05987668932
0.05987668931
0.05987668929
0.05987668917
0.05987668877
0.05987668729
0.05987668207
0.0598766643
0.05987660643
0.05987642974
0.05987593691
0.05987473531
0.05987668932
0.05987668932
0.05987668932
0.05987668931
0.05987668927
0.05987668911
0.05987668849
0.05987668607
0.05987667683
0.05987664241
0.05987651837
0.05987609386
0.05987475594
0.05987108976
0.05987668932
0.05987668932
0.05987668932
0.05987668931
0.05987668925
0.05987668899
0.05987668794
0.05987668354
0.05987666522
0.05987658953
0.05987628225
0.05987507411
0.0598706056
0.05985599475
0.05987668932
0.05987668932
0.05987668932
0.0598766893
0.05987668922
0.05987668886
0.05987668728
0.05987668022
0.05987664825
0.0598765019
0.05987582547
0.0598726916
0.05985840209
0.0597972912
0.05987668932
0.05987668932
0.05987668932
0.0598766893
0.05987668921
0.05987668879
0.05987668692
0.05987667821
0.05987663645
0.05987642895
0.05987534796
0.05986937876
0.05983407151
0.05960876825
0.05804785429
0.05987668932
0.05987668932
0.05987668932
0.0598766893
0.05987668922
0.05987668886
0.05987668728
0.05987668022
0.05987664825
0.0598765019
0.05987582548
0.05987269165
0.05985840242
0.05979729359
0.05958897854
0.05987668932
0.05987668932
0.05987668932
0.05987668931
0.05987668925
0.05987668899
0.05987668794
0.05987668354
0.05987666522
0.05987658953
0.05987628225
0.05987507414
0.05987060577
0.05985599546
0.05982030163
0.05987668932
0.05987668932
0.05987668932
0.05987668931
0.05987668927
0.05987668911
0.05987668849
0.05987668607
0.05987667684
0.05987664242
0.05987651837
0.05987609388
0.059874756
0.05987108998
0.05986337613
0.05987668932
0.05987668932
0.05987668932
0.05987668931
0.05987668929
0.05987668917
0.05987668877
0.05987668729
0.05987668207
0.0598766643
0.05987660644
0.05987642974
0.05987593694
0.05987473538
0.05987235433
0.05987668932
0.05987668932
0.05987668932
0.05987668932
0.05987668929
0.05987668919
0.05987668882
0.05987668751
0.05987668294
0.05987666769
0.05987661922
0.05987647528
0.05987608635
0.05987516645
0.05987668932
0.05987668932
0.05987668932
0.05987668931
0.05987668928
0.05987668913
0.05987668858
0.05987668647
0.05987667863
0.05987665025
0.05987655176
0.05987623054
0.05987527623
0.05987282794
0.05987668932
0.05987668932
0.05987668932
0.05987668931
0.05987668925
0.05987668903
0.05987668812
0.05987668439
0.05987666937
0.05987660995
0.05987638219
0.0598755524
0.05987277557
0.05986477054
0.05987668932
0.05987668932
0.05987668932
0.0598766893
0.05987668923
0.05987668892
0.05987668757
0.05987668174
0.05987665651
0.05987654789
0.05987608658
0.05987418602
0.05986682436
0.05984173346
0.05987668932
0.05987668932
0.05987668932
0.0598766893
0.05987668922
0.05987668886
0.05987668728
0.05987668022
0.05987664825
0.0598765019
0.05987582546
0.05987269157
0.05985840196
0.05979729084
0.05987668932
0.05987668932
0.05987668932
0.0598766893
0.05987668923
0.05987668892
0.05987668757
0.05987668174
0.05987665651
0.05987654789
0.05987608658
0.05987418602
0.05986682435
0.0598417334
0.05987668932
0.05987668932
0.05987668932
0.05987668931
0.05987668925
0.05987668903
0.05987668812
0.05987668439
0.05987666937
0.05987660995
0.05987638219
0.05987555241
0.05987277561
0.05986477067
0.05984751549
0.05987668932
0.05987668932
0.05987668932
0.05987668931
0.05987668928
0.05987668913
0.05987668858
0.05987668647
0.05987667863
0.05987665025
0.05987655177
0.05987623055
0.05987527625
0.05987282802
0.05986789958
0.05987668932
0.05987668932
0.05987668932
0.05987668932
0.05987668929
0.05987668919
0.05987668882
0.05987668751
0.05987668294
0.0598766677
0.05987661922
0.05987647529
0.05987608637
0.05987516649
0.0598733655
0.05987668932
0.05987668932
0.05987668932
0.05987668932
0.0598766893
0.05987668922
0.05987668894
0.05987668797
0.05987668472
0.05987667427
0.05987664239
0.05987655175
0.059876317
0.05987578009
0.05987668932
0.05987668932
0.05987668932
0.05987668931
0.05987668929
0.05987668918
0.05987668877
0.05987668729
0.05987668201
0.05987666388
0.05987660452
0.05987642298
0.05987591893
0.05987470246
0.05987668932
0.05987668932
0.05987668932
0.05987668931
0.05987668927
0.05987668911
0.05987668846
0.05987668597
0.05987667649
0.05987664141
0.05987651703
0.0598761028
0.05987484918
0.05987158773
0.05987668932
0.05987668932
0.05987668932
0.05987668931
0.05987668925
0.05987668903
0.05987668812
0.05987668439
0.05987666937
0.05987660995
0.05987638219
0.0598755524
0.05987277557
0.05986477055
0.05987668932
0.05987668932
0.05987668932
0.05987668931
0.05987668925
0.05987668899
0.05987668794
0.05987668354
0.05987666522
0.05987658953
0.05987628224
0.05987507409
0.05987060553
0.05985599461
0.05987668932
0.05987668932
0.05987668932
0.05987668931
0.05987668925
0.05987668903
0.05987668812
0.05987668439
0.05987666937
0.05987660995
0.05987638219
0.0598755524
0.05987277556
0.05986477051
0.05987668932
0.05987668932
0.05987668932
0.05987668931
0.05987668927
0.05987668911
0.05987668846
0.05987668597
0.05987667649
0.05987664141
0.05987651703
0.0598761028
0.05987484918
0.05987158769
0.05987668932
0.05987668932
0.05987668932
0.05987668931
0.05987668929
0.05987668918
0.05987668877
0.05987668729
0.05987668201
0.05987666388
0.05987660452
0.05987642298
0.05987591894
0.05987470247
0.0598723115
0.05987668932
0.05987668932
0.05987668932
0.05987668932
0.0598766893
0.05987668922
0.05987668894
0.05987668797
0.05987668472
0.05987667427
0.05987664239
0.05987655175
0.05987631701
0.0598757801
0.05987473601
0.05987668932
0.05987668932
0.05987668932
0.05987668932
0.0598766893
0.05987668925
0.05987668905
0.0598766884
0.05987668632
0.05987667991
0.05987666125
0.05987661059
0.05987648469
0.05987620482
0.05987668932
0.05987668932
0.05987668932
0.05987668932
0.0598766893
0.05987668922
0.05987668895
0.05987668801
0.05987668485
0.0598766746
0.05987664309
0.05987655271
0.05987631673
0.05987577366
0.05987668932
0.05987668932
0.05987668932
0.05987668931
0.05987668929
0.05987668918
0.05987668877
0.05987668729
0.05987668201
0.05987666388
0.05987660452
0.05987642298
0.05987591893
0.05987470245
0.05987668932
0.05987668932
0.05987668932
0.05987668931
0.05987668928
0.05987668913
0.05987668858
0.05987668647
0.05987667863
0.05987665025
0.05987655176
0.05987623054
0.05987527622
0.05987282793
0.05987668932
0.05987668932
0.05987668932
0.05987668931
0.05987668927
0.05987668911
0.05987668849
0.05987668607
0.05987667683
0.05987664241
0.05987651837
0.05987609386
0.05987475592
0.05987108974
0.05987668932
0.05987668932
0.05987668932
0.05987668931
0.05987668928
0.05987668913
0.05987668858
0.05987668647
0.05987667863
0.05987665025
0.05987655176
0.05987623054
0.05987527622
0.05987282792
0.05987668932
0.05987668932
0.05987668932
0.05987668931
0.05987668929
0.05987668918
0.05987668877
0.05987668729
0.05987668201
0.05987666388
0.05987660452
0.05987642298
0.05987591893
0.05987470245
0.05987668932
0.05987668932
0.05987668932
0.05987668932
0.0598766893
0.05987668922
0.05987668895
0.05987668801
0.05987668485
0.0598766746
0.05987664309
0.05987655271
0.05987631673
0.05987577366
0.05987668932
0.05987668932
0.05987668932
0.05987668932
0.0598766893
0.05987668925
0.05987668905
0.0598766884
0.05987668632
0.05987667991
0.05987666125
0.05987661059
0.05987648469
0.05987620483
0.05987566173
0.05987668932
0.05987668932
0.05987668932
0.05987668932
0.05987668931
0.05987668926
0.05987668912
0.05987668865
0.05987668719
0.05987668288
0.05987667083
0.05987663937
0.05987656377
0.05987639923
0.05987668932
0.05987668932
0.05987668932
0.05987668932
0.0598766893
0.05987668925
0.05987668905
0.0598766884
0.05987668632
0.05987667991
0.05987666125
0.05987661059
0.05987648469
0.05987620482
0.05987668932
0.05987668932
0.05987668932
0.05987668932
0.0598766893
0.05987668922
0.05987668894
0.05987668797
0.05987668472
0.05987667427
0.05987664239
0.05987655175
0.059876317
0.05987578009
0.05987668932
0.05987668932
0.05987668932
0.05987668932
0.05987668929
0.05987668919
0.05987668882
0.05987668751
0.05987668294
0.05987666769
0.05987661922
0.05987647528
0.05987608635
0.05987516644
0.05987668932
0.05987668932
0.05987668932
0.05987668931
0.05987668929
0.05987668917
0.05987668877
0.05987668729
0.05987668207
0.0598766643
0.05987660643
0.05987642974
0.05987593691
0.0598747353
0.05987668932
0.05987668932
0.05987668932
0.05987668932
0.05987668929
0.05987668919
0.05987668882
0.05987668751
0.05987668294
0.05987666769
0.05987661922
0.05987647528
0.05987608635
0.05987516645
0.05987668932
0.05987668932
0.05987668932
0.05987668932
0.0598766893
0.05987668922
0.05987668894
0.05987668797
0.05987668472
0.05987667427
0.05987664239
0.05987655175
0.05987631701
0.05987578009
0.05987668932
0.05987668932
0.05987668932
0.05987668932
0.0598766893
0.05987668925
0.05987668905
0.0598766884
0.05987668632
0.05987667991
0.05987666125
0.05987661059
0.05987648469
0.05987620482
0.05987668932
0.05987668932
0.05987668932
0.05987668932
0.05987668931
0.05987668926
0.05987668912
0.05987668865
0.05987668719
0.05987668288
0.05987667083
0.05987663937
0.05987656377
0.05987639923
)
;

boundaryField
{
    top
    {
        type            calculated;
        value           nonuniform List<scalar> 
134
(
0.05987668932
0.05987668932
0.05987668932
0.05987668932
0.05987668932
0.05987668932
0.05987668932
0.05987668932
0.05987668932
0.05987668932
0.05987668932
0.05987668932
0.05987668932
0.05987668932
0.05987668932
0.05987668932
0.05987668932
0.05987668932
0.05987668932
0.05987668932
0.05987668932
0.05987668932
0.05987668932
0.05987668932
0.05987668932
0.05987668932
0.05987668932
0.05987668932
0.05987668932
0.05987668932
0.05987668932
0.05987668931
0.05987668932
0.05987668932
0.05987668932
0.05987668932
0.05987668931
0.0598766893
0.0598766893
0.05987668929
0.05987668929
0.05987668929
0.0598766893
0.0598766893
0.05987668931
0.05987668926
0.05987668925
0.05987668922
0.05987668919
0.05987668917
0.05987668919
0.05987668922
0.05987668925
0.05987668926
0.05987668912
0.05987668905
0.05987668894
0.05987668882
0.05987668877
0.05987668882
0.05987668894
0.05987668905
0.05987668912
0.05987668865
0.0598766884
0.05987668797
0.05987668751
0.05987668729
0.05987668751
0.05987668797
0.0598766884
0.05987668865
0.05987668719
0.05987668632
0.05987668472
0.05987668294
0.05987668207
0.05987668294
0.05987668472
0.05987668632
0.05987668719
0.05987668288
0.05987667991
0.05987667427
0.0598766677
0.0598766643
0.0598766677
0.05987667427
0.05987667991
0.05987668288
0.05987667083
0.05987666125
0.05987664239
0.05987661922
0.05987660644
0.05987661922
0.05987664239
0.05987666125
0.05987667083
0.05987663938
0.05987661059
0.05987655175
0.05987647529
0.05987642974
0.05987647529
0.05987655175
0.05987661059
0.05987663937
0.05987656377
0.0598764847
0.05987631702
0.05987608637
0.05987593694
0.05987608637
0.05987631701
0.05987648469
0.05987656377
0.05987639924
0.05987620484
0.05987578012
0.05987516651
0.05987473538
0.05987516649
0.0598757801
0.05987620483
0.05987639923
0.05987607989
0.05987566177
0.05987473606
0.05987336553
0.05987235433
0.0598733655
0.05987473601
0.05987566173
)
;
    }
    bottom
    {
        type            calculated;
        value           nonuniform List<scalar> 
127
(
0.05987668932
0.05987668932
0.05987668932
0.05987668932
0.05987668932
0.05987668932
0.05987668932
0.05987668932
0.05987668932
0.05987668932
0.05987668932
0.05987668932
0.05987668932
0.05987668932
0.05987668932
0.05987668932
0.05987668932
0.05987668932
0.05987668932
0.05987668932
0.05987668932
0.05987668932
0.05987668932
0.05987668932
0.05987668932
0.05987668932
0.05987668932
0.05987668932
0.05987668932
0.05987668932
0.05987668932
0.05987668931
0.05987668932
0.05987668932
0.05987668932
0.05987668932
0.05987668931
0.0598766893
0.0598766893
0.05987668929
0.05987668929
0.05987668929
0.0598766893
0.0598766893
0.05987668931
0.05987668926
0.05987668925
0.05987668922
0.05987668919
0.05987668917
0.05987668919
0.05987668922
0.05987668925
0.05987668926
0.05987668912
0.05987668905
0.05987668894
0.05987668882
0.05987668877
0.05987668882
0.05987668894
0.05987668905
0.05987668912
0.05987668865
0.0598766884
0.05987668797
0.05987668751
0.05987668729
0.05987668751
0.05987668797
0.0598766884
0.05987668865
0.05987668719
0.05987668632
0.05987668472
0.05987668294
0.05987668207
0.05987668294
0.05987668472
0.05987668632
0.05987668719
0.05987668288
0.05987667991
0.05987667427
0.0598766677
0.0598766643
0.05987666769
0.05987667427
0.05987667991
0.05987668288
0.05987667083
0.05987666125
0.05987664239
0.05987661922
0.05987660643
0.05987661922
0.05987664239
0.05987666125
0.05987667083
0.05987663937
0.05987661059
0.05987655175
0.05987647529
0.05987642974
0.05987647528
0.05987655175
0.05987661059
0.05987663937
0.05987656377
0.05987648469
0.059876317
0.05987608635
0.05987593691
0.05987608635
0.059876317
0.05987648469
0.05987656377
0.05987639923
0.05987620482
0.05987578008
0.05987516644
0.05987473531
0.05987516645
0.05987578009
0.05987620482
0.05987639923
0.05987607986
)
;
    }
    side-walls
    {
        type            calculated;
        value           nonuniform List<scalar> 
261
(
0.05987668932
0.05987668932
0.05987668932
0.05987668932
0.05987668932
0.05987668932
0.05987668932
0.05987668932
0.05987668932
0.05987668932
0.05987668932
0.05987668932
0.05987668932
0.05987668932
0.05987668932
0.05987668932
0.05987668932
0.05987668932
0.05987668932
0.05987668932
0.05987668932
0.05987668932
0.05987668932
0.05987668932
0.05987668932
0.05987668932
0.05987668932
0.05987668932
0.05987668932
0.05987668932
0.05987668932
0.05987668931
0.05987668932
0.05987668932
0.05987668932
0.05987668932
0.05987668931
0.0598766893
0.0598766893
0.05987668929
0.05987668929
0.05987668929
0.0598766893
0.0598766893
0.05987668931
0.05987668926
0.05987668925
0.05987668922
0.05987668919
0.05987668917
0.05987668919
0.05987668922
0.05987668925
0.05987668926
0.05987668912
0.05987668905
0.05987668894
0.05987668882
0.05987668877
0.05987668882
0.05987668894
0.05987668905
0.05987668912
0.05987668865
0.0598766884
0.05987668797
0.05987668751
0.05987668729
0.05987668751
0.05987668797
0.0598766884
0.05987668865
0.05987668719
0.05987668632
0.05987668472
0.05987668294
0.05987668207
0.05987668294
0.05987668472
0.05987668632
0.05987668719
0.05987668288
0.05987667991
0.05987667427
0.0598766677
0.0598766643
0.0598766677
0.05987667427
0.05987667991
0.05987668288
0.05987667083
0.05987666125
0.05987664239
0.05987661922
0.05987660644
0.05987661922
0.05987664239
0.05987666125
0.05987667083
0.05987663937
0.05987661059
0.05987655175
0.05987647529
0.05987642974
0.05987647529
0.05987655175
0.05987661059
0.05987663938
0.05987656377
0.0598764847
0.05987631701
0.05987608637
0.05987593694
0.05987608637
0.05987631702
0.0598764847
0.05987656377
0.05987639923
0.05987620483
0.05987578011
0.0598751665
0.05987473537
0.0598751665
0.05987578012
0.05987620484
0.05987639924
0.05987607986
0.05987566174
0.05987473603
0.0598733655
0.05987235429
0.05987336552
0.05987473605
0.05987566177
0.05987607989
0.05987668932
0.05987668932
0.05987668932
0.05987668932
0.05987668932
0.05987668932
0.05987668932
0.05987668932
0.05987668932
0.05987668932
0.05987668932
0.05987668932
0.05987668932
0.05987668932
0.05987668932
0.05987668932
0.05987668932
0.05987668932
0.05987668932
0.05987668932
0.05987668932
0.05987668932
0.05987668932
0.05987668932
0.05987668932
0.05987668932
0.05987668932
0.05987668932
0.05987668932
0.05987668932
0.05987668932
0.05987668931
0.05987668932
0.05987668932
0.05987668932
0.05987668932
0.05987668931
0.0598766893
0.0598766893
0.05987668929
0.05987668929
0.05987668929
0.0598766893
0.0598766893
0.05987668931
0.05987668926
0.05987668925
0.05987668922
0.05987668919
0.05987668917
0.05987668919
0.05987668922
0.05987668925
0.05987668926
0.05987668912
0.05987668905
0.05987668894
0.05987668882
0.05987668877
0.05987668882
0.05987668894
0.05987668905
0.05987668912
0.05987668865
0.0598766884
0.05987668797
0.05987668751
0.05987668729
0.05987668751
0.05987668797
0.0598766884
0.05987668865
0.05987668719
0.05987668632
0.05987668472
0.05987668294
0.05987668207
0.05987668294
0.05987668472
0.05987668632
0.05987668719
0.05987668288
0.05987667991
0.05987667427
0.05987666769
0.0598766643
0.05987666769
0.05987667427
0.05987667991
0.05987668288
0.05987667083
0.05987666125
0.05987664239
0.05987661922
0.05987660643
0.05987661922
0.05987664239
0.05987666125
0.05987667083
0.05987663937
0.05987661059
0.05987655175
0.05987647528
0.05987642974
0.05987647528
0.05987655175
0.05987661059
0.05987663937
0.05987656377
0.05987648469
0.059876317
0.05987608635
0.05987593691
0.05987608635
0.05987631701
0.05987648469
0.05987656377
0.05987639923
0.05987620482
0.05987578009
0.05987516644
0.0598747353
0.05987516645
0.05987578009
0.05987620482
0.05987639923
)
;
    }
    inlet
    {
        type            calculated;
        value           nonuniform List<scalar> 
81
(
0.05987668932
0.05987668932
0.05987668932
0.05987668932
0.05987668932
0.05987668932
0.05987668932
0.05987668932
0.05987668932
0.05987668932
0.05987668932
0.05987668932
0.05987668932
0.05987668932
0.05987668932
0.05987668932
0.05987668932
0.05987668932
0.05987668932
0.05987668932
0.05987668932
0.05987668932
0.05987668932
0.05987668932
0.05987668932
0.05987668932
0.05987668932
0.05987668932
0.05987668932
0.05987668932
0.05987668932
0.05987668932
0.05987668932
0.05987668932
0.05987668932
0.05987668932
0.05987668932
0.05987668932
0.05987668932
0.05987668932
0.05987668932
0.05987668932
0.05987668932
0.05987668932
0.05987668932
0.05987668932
0.05987668932
0.05987668932
0.05987668932
0.05987668932
0.05987668932
0.05987668932
0.05987668932
0.05987668932
0.05987668932
0.05987668932
0.05987668932
0.05987668932
0.05987668932
0.05987668932
0.05987668932
0.05987668932
0.05987668932
0.05987668932
0.05987668932
0.05987668932
0.05987668932
0.05987668932
0.05987668932
0.05987668932
0.05987668932
0.05987668932
0.05987668932
0.05987668932
0.05987668932
0.05987668932
0.05987668932
0.05987668932
0.05987668932
0.05987668932
0.05987668932
)
;
    }
    outlet
    {
        type            calculated;
        value           nonuniform 0();
    }
    procBoundary0to1
    {
        type            processor;
        value           nonuniform List<scalar> 
97
(
0.05987553087
0.05987566172
0.05987475454
0.05987305842
0.05987060795
0.05986888639
0.05987060798
0.05987305847
0.05987475458
0.0598755309
0.05987566172
0.05987566172
0.0598730327
0.05987231145
0.05986875486
0.05986126894
0.0598543282
0.05986126907
0.05986875502
0.0598730328
0.05987475458
0.05987473599
0.05987231145
0.05987231145
0.05985631552
0.05984751519
0.05982908783
0.05979403767
0.05982908846
0.05985631608
0.05986875503
0.05987305847
0.05987336545
0.05986789944
0.05984751519
0.05984751519
0.05973705216
0.05958897508
0.05955940934
0.0597370543
0.05982908843
0.05986126913
0.05987060801
0.05987235424
0.05986337587
0.05982030079
0.05958897508
0.05958897508
0.05880320485
0.05958897482
0.05955940957
0.05977872805
0.05979403801
0.05985432841
0.05986888646
0.05987336547
0.05986789958
0.0598475159
0.05977872865
0.05958897482
0.05977872805
0.05977872805
0.05982908787
0.05986499471
0.05986126898
0.05987060796
0.05987473603
0.05987231159
0.05986499494
0.05984751593
0.05982030062
0.05984751584
0.05986499471
0.05986499471
0.05986875489
0.05987471678
0.05987305842
0.05987566176
0.05987471682
0.05987231158
0.05986789957
0.05986337587
0.05986789955
0.05987231156
0.05987471678
0.05987471678
0.05987475455
0.05987607987
0.05987607988
0.05987566175
0.05987473602
0.05987336547
0.05987235425
0.05987336548
0.05987473603
0.05987566175
0.05987607987
)
;
    }
}


// ************************************************************************* //
