/*--------------------------------*- C++ -*----------------------------------*\
| =========                 |                                                 |
| \\      /  F ield         | OpenFOAM: The Open Source CFD Toolbox           |
|  \\    /   O peration     | Version:  4.x                                   |
|   \\  /    A nd           | Web:      www.OpenFOAM.org                      |
|    \\/     M anipulation  |                                                 |
\*---------------------------------------------------------------------------*/
FoamFile
{
    version     2.0;
    format      ascii;
    class       volScalarField;
    location    "8000";
    object      X_H2O;
}
// * * * * * * * * * * * * * * * * * * * * * * * * * * * * * * * * * * * * * //

dimensions      [0 0 0 0 0 0 0];

internalField   nonuniform List<scalar> 
1175
(
1.504129164e-05
1.504129218e-05
1.504129281e-05
1.504129498e-05
1.504130894e-05
1.504135235e-05
1.504149841e-05
1.504196828e-05
1.504342624e-05
1.504773721e-05
1.5059789e-05
1.509125525e-05
1.516688773e-05
1.533150021e-05
1.5651051e-05
1.504129034e-05
1.504129026e-05
1.504129347e-05
1.50412972e-05
1.504131323e-05
1.504137031e-05
1.504156478e-05
1.504221038e-05
1.504429418e-05
1.505070671e-05
1.506937e-05
1.512004274e-05
1.524597441e-05
1.552593682e-05
1.60692823e-05
1.504129274e-05
1.504129226e-05
1.504129192e-05
1.504129792e-05
1.504132164e-05
1.50413993e-05
1.504167848e-05
1.504264516e-05
1.504589401e-05
1.505634614e-05
1.508823129e-05
1.517888702e-05
1.541367195e-05
1.595071156e-05
1.69951861e-05
1.504129244e-05
1.504129179e-05
1.504129241e-05
1.504130054e-05
1.504132717e-05
1.504142797e-05
1.504179479e-05
1.504310848e-05
1.504767206e-05
1.506292285e-05
1.511140068e-05
1.525534792e-05
1.564432227e-05
1.65643604e-05
1.836588432e-05
1.504129138e-05
1.504129088e-05
1.504129192e-05
1.504130027e-05
1.504133088e-05
1.504144075e-05
1.504184975e-05
1.504332632e-05
1.504854406e-05
1.506632169e-05
1.512418732e-05
1.530089304e-05
1.579374651e-05
1.699547235e-05
1.937711365e-05
1.504129063e-05
1.504129042e-05
1.504129179e-05
1.5041299e-05
1.50413269e-05
1.504142744e-05
1.504179504e-05
1.504310807e-05
1.504767113e-05
1.506292212e-05
1.511139981e-05
1.52553473e-05
1.564431522e-05
1.656434171e-05
1.836583593e-05
1.504128979e-05
1.504129038e-05
1.504129299e-05
1.504129747e-05
1.504131883e-05
1.504139795e-05
1.504167802e-05
1.50426464e-05
1.504589365e-05
1.505634435e-05
1.50882303e-05
1.51788818e-05
1.541366076e-05
1.595068014e-05
1.699511261e-05
1.504129138e-05
1.504129081e-05
1.504129091e-05
1.504129633e-05
1.504131229e-05
1.504136971e-05
1.504156308e-05
1.504221229e-05
1.504429588e-05
1.505070669e-05
1.506937083e-05
1.512003719e-05
1.524596285e-05
1.552590429e-05
1.60692053e-05
1.504129008e-05
1.504129013e-05
1.504129299e-05
1.504129607e-05
1.504130938e-05
1.504135237e-05
1.504149823e-05
1.504196915e-05
1.504342534e-05
1.504773662e-05
1.505978714e-05
1.509125213e-05
1.516687755e-05
1.533147119e-05
1.565097768e-05
1.504129362e-05
1.504129218e-05
1.504129284e-05
1.504129701e-05
1.504131241e-05
1.504136985e-05
1.504156364e-05
1.504221254e-05
1.504429627e-05
1.505070781e-05
1.506937145e-05
1.512004539e-05
1.524598776e-05
1.552599043e-05
1.504129228e-05
1.504129286e-05
1.504129433e-05
1.504129912e-05
1.504131941e-05
1.50413951e-05
1.504166422e-05
1.50426031e-05
1.504576629e-05
1.505601735e-05
1.508753654e-05
1.517792541e-05
1.541397019e-05
1.595720809e-05
1.70145828e-05
1.504129336e-05
1.504129262e-05
1.504129358e-05
1.504130156e-05
1.504132925e-05
1.504143703e-05
1.504184178e-05
1.504332477e-05
1.504860315e-05
1.506673782e-05
1.512610459e-05
1.530766194e-05
1.58117725e-05
1.702846779e-05
1.94201299e-05
1.504129374e-05
1.504129352e-05
1.504129544e-05
1.504130353e-05
1.504134135e-05
1.504148256e-05
1.504203681e-05
1.5044142e-05
1.505198725e-05
1.508037187e-05
1.517885922e-05
1.550008912e-05
1.645443792e-05
1.890288881e-05
2.383226583e-05
1.504129161e-05
1.504129292e-05
1.504129515e-05
1.504130411e-05
1.504134646e-05
1.504150564e-05
1.504212923e-05
1.504454891e-05
1.505378265e-05
1.508820348e-05
1.521224962e-05
1.56367517e-05
1.697464724e-05
2.06407923e-05
2.835551409e-05
1.504129073e-05
1.504128961e-05
1.504129281e-05
1.504130202e-05
1.504134006e-05
1.504148386e-05
1.504203602e-05
1.504414116e-05
1.505198612e-05
1.508037078e-05
1.517885791e-05
1.550008379e-05
1.645441173e-05
1.890279972e-05
2.383202535e-05
1.504129157e-05
1.50412915e-05
1.504129181e-05
1.504130126e-05
1.504132756e-05
1.504143741e-05
1.504184193e-05
1.504332574e-05
1.504860288e-05
1.506673793e-05
1.512610292e-05
1.530765306e-05
1.581173468e-05
1.702834449e-05
1.941982452e-05
1.504129199e-05
1.504129207e-05
1.504129364e-05
1.504129969e-05
1.504131906e-05
1.504139401e-05
1.504166499e-05
1.504260245e-05
1.504576592e-05
1.505601621e-05
1.508753642e-05
1.517791911e-05
1.541393767e-05
1.595710625e-05
1.701431489e-05
1.504129064e-05
1.504129136e-05
1.504129296e-05
1.50412975e-05
1.504131369e-05
1.504136997e-05
1.50415652e-05
1.50422122e-05
1.504429638e-05
1.505070698e-05
1.506937031e-05
1.512003968e-05
1.524596493e-05
1.552590915e-05
1.606920952e-05
1.504129267e-05
1.504129285e-05
1.504129432e-05
1.504130056e-05
1.50413192e-05
1.504139703e-05
1.504167601e-05
1.504264453e-05
1.504589407e-05
1.505634692e-05
1.508823462e-05
1.517889929e-05
1.541371469e-05
1.595084353e-05
1.50412937e-05
1.504129252e-05
1.504129439e-05
1.50413016e-05
1.504133019e-05
1.504143726e-05
1.504184382e-05
1.504332523e-05
1.504860193e-05
1.506673898e-05
1.512610911e-05
1.530767722e-05
1.581182797e-05
1.702868505e-05
1.50412949e-05
1.504129345e-05
1.504129502e-05
1.504130575e-05
1.504134818e-05
1.504150967e-05
1.504215041e-05
1.504464412e-05
1.505412913e-05
1.508921003e-05
1.521360308e-05
1.562785349e-05
1.688158831e-05
2.014351142e-05
2.673835322e-05
1.504129288e-05
1.504129482e-05
1.504129795e-05
1.50413092e-05
1.504136306e-05
1.504158657e-05
1.504250043e-05
1.504622918e-05
1.506125251e-05
1.512066524e-05
1.534842552e-05
1.617819638e-05
1.895497257e-05
2.696000239e-05
4.421666331e-05
1.504129375e-05
1.504129595e-05
1.504129799e-05
1.504131048e-05
1.504137137e-05
1.504162199e-05
1.504267362e-05
1.504707362e-05
1.506540117e-05
1.514108497e-05
1.544835703e-05
1.665640446e-05
2.11244896e-05
3.57337984e-05
7.142674695e-05
1.50412912e-05
1.504129325e-05
1.504129587e-05
1.504130789e-05
1.504136132e-05
1.504158458e-05
1.504249915e-05
1.504622719e-05
1.506125018e-05
1.512066332e-05
1.534841981e-05
1.617816911e-05
1.895484307e-05
2.695949828e-05
4.421517084e-05
1.504129002e-05
1.504129237e-05
1.504129499e-05
1.504130546e-05
1.504134547e-05
1.504150778e-05
1.504215096e-05
1.504464366e-05
1.505412801e-05
1.508920708e-05
1.521359287e-05
1.562781962e-05
1.688144894e-05
2.0142993e-05
2.673680761e-05
1.50412919e-05
1.504129112e-05
1.504129334e-05
1.50413003e-05
1.504132927e-05
1.504143657e-05
1.50418429e-05
1.504332461e-05
1.504860128e-05
1.506673783e-05
1.512610578e-05
1.530765679e-05
1.581174039e-05
1.702835415e-05
1.941982741e-05
1.504129125e-05
1.504129096e-05
1.504129418e-05
1.50412998e-05
1.504132001e-05
1.504139797e-05
1.504167794e-05
1.504264678e-05
1.504589598e-05
1.505634731e-05
1.508823187e-05
1.517888544e-05
1.541366719e-05
1.595068818e-05
1.699511778e-05
1.504129397e-05
1.504129335e-05
1.504129477e-05
1.504130227e-05
1.504133015e-05
1.504142934e-05
1.504179564e-05
1.504310951e-05
1.50476722e-05
1.506292535e-05
1.511140847e-05
1.525537466e-05
1.564440619e-05
1.656461615e-05
1.504129208e-05
1.50412933e-05
1.504129646e-05
1.504130384e-05
1.504134008e-05
1.504148358e-05
1.504203736e-05
1.504414238e-05
1.505198688e-05
1.508037613e-05
1.51788702e-05
1.550013443e-05
1.645460844e-05
1.890349671e-05
1.504129307e-05
1.504129264e-05
1.504129612e-05
1.504131109e-05
1.504136339e-05
1.504158595e-05
1.504250016e-05
1.504622814e-05
1.506125242e-05
1.512066697e-05
1.534843962e-05
1.617826398e-05
1.89552778e-05
2.696141886e-05
1.504129239e-05
1.504129423e-05
1.504129785e-05
1.504131505e-05
1.504138839e-05
1.504170092e-05
1.504304813e-05
1.504887949e-05
1.507410636e-05
1.518272926e-05
1.564402868e-05
1.75445063e-05
2.490580485e-05
4.99957542e-05
0.0001130050948
1.504129259e-05
1.504129392e-05
1.504129758e-05
1.504131716e-05
1.504139788e-05
1.504175494e-05
1.504333493e-05
1.505039832e-05
1.508236505e-05
1.522870845e-05
1.590508387e-05
1.903859396e-05
3.332598556e-05
9.44257803e-05
0.0003027105831
1.504129316e-05
1.504129227e-05
1.50412964e-05
1.50413142e-05
1.504138706e-05
1.504169878e-05
1.504304707e-05
1.504887783e-05
1.507410352e-05
1.518272565e-05
1.564400935e-05
1.754440897e-05
2.490530612e-05
4.999331044e-05
0.0001129952247
1.504129068e-05
1.50412928e-05
1.504129554e-05
1.504130732e-05
1.504136179e-05
1.504158543e-05
1.504249971e-05
1.504622817e-05
1.506125208e-05
1.512066501e-05
1.534842509e-05
1.617819135e-05
1.895491213e-05
2.695964317e-05
4.421527748e-05
1.504129222e-05
1.504129277e-05
1.504129403e-05
1.504130268e-05
1.504133833e-05
1.50414841e-05
1.504203655e-05
1.50441426e-05
1.505198733e-05
1.508037226e-05
1.517886091e-05
1.550009432e-05
1.645443684e-05
1.890284063e-05
2.38320287e-05
1.504129104e-05
1.504129223e-05
1.504129396e-05
1.504130055e-05
1.504132721e-05
1.504142874e-05
1.504179636e-05
1.504310977e-05
1.504767355e-05
1.506292401e-05
1.511140234e-05
1.525535428e-05
1.564433102e-05
1.656436376e-05
1.836584376e-05
1.504129373e-05
1.504129363e-05
1.50412943e-05
1.504130297e-05
1.504133203e-05
1.504144178e-05
1.504184915e-05
1.504332909e-05
1.504854469e-05
1.506632658e-05
1.512419858e-05
1.530092914e-05
1.579386554e-05
1.699582476e-05
1.504129098e-05
1.504129278e-05
1.504129729e-05
1.504130622e-05
1.504134564e-05
1.504150414e-05
1.504212902e-05
1.504455055e-05
1.505378259e-05
1.508820896e-05
1.521226718e-05
1.563682355e-05
1.697492855e-05
2.064177997e-05
1.504129337e-05
1.504129314e-05
1.50412977e-05
1.504131077e-05
1.504136973e-05
1.504162378e-05
1.504267391e-05
1.504707494e-05
1.506540255e-05
1.514109104e-05
1.544838922e-05
1.665656303e-05
2.112524439e-05
3.573724238e-05
1.504129269e-05
1.50412929e-05
1.504129746e-05
1.50413178e-05
1.504139892e-05
1.504175574e-05
1.504333438e-05
1.505039871e-05
1.508236629e-05
1.522871645e-05
1.590512505e-05
1.903883756e-05
3.332754869e-05
9.44364108e-05
1.504129255e-05
1.504129402e-05
1.50412971e-05
1.504131838e-05
1.504141113e-05
1.504182139e-05
1.504369372e-05
1.505240914e-05
1.509416193e-05
1.530166039e-05
1.638254451e-05
2.23509688e-05
5.765231796e-05
0.0002829108263
0.001843476738
1.504129382e-05
1.504129212e-05
1.504129542e-05
1.504131478e-05
1.504139592e-05
1.504175449e-05
1.504333552e-05
1.505040023e-05
1.508236648e-05
1.522871203e-05
1.590510399e-05
1.903869532e-05
3.332645333e-05
9.442751089e-05
0.000302712097
1.504129343e-05
1.504129101e-05
1.504129656e-05
1.504131186e-05
1.5041371e-05
1.504162163e-05
1.504267331e-05
1.504707392e-05
1.506540061e-05
1.514108784e-05
1.544837e-05
1.665646298e-05
2.11246801e-05
3.57342635e-05
7.14269172e-05
1.504129433e-05
1.504129335e-05
1.504129481e-05
1.504130578e-05
1.504134473e-05
1.504150422e-05
1.504212822e-05
1.504454954e-05
1.505378276e-05
1.508820577e-05
1.521225679e-05
1.563677376e-05
1.697470591e-05
2.064088886e-05
2.83555e-05
1.504129255e-05
1.504129354e-05
1.504129445e-05
1.504130135e-05
1.504133121e-05
1.504144153e-05
1.504184909e-05
1.504332879e-05
1.504854421e-05
1.506632417e-05
1.512419236e-05
1.530090681e-05
1.579377196e-05
1.699550963e-05
1.93771235e-05
1.504129325e-05
1.504129257e-05
1.504129524e-05
1.50413022e-05
1.504132936e-05
1.504143036e-05
1.504179578e-05
1.504311278e-05
1.504767352e-05
1.506292832e-05
1.511141238e-05
1.525538207e-05
1.56444215e-05
1.656463113e-05
1.504129233e-05
1.504129335e-05
1.504129694e-05
1.504130525e-05
1.504134128e-05
1.504148625e-05
1.504203923e-05
1.504414445e-05
1.505198894e-05
1.508037797e-05
1.517887703e-05
1.550015027e-05
1.645464036e-05
1.890351089e-05
1.504129332e-05
1.504129531e-05
1.504129647e-05
1.50413104e-05
1.504136469e-05
1.50415863e-05
1.504250115e-05
1.504622986e-05
1.50612544e-05
1.512067325e-05
1.534845664e-05
1.617831806e-05
1.895543864e-05
2.696165803e-05
1.504129289e-05
1.504129354e-05
1.50412963e-05
1.504131436e-05
1.504138651e-05
1.504170053e-05
1.504305011e-05
1.504887968e-05
1.507410804e-05
1.518273777e-05
1.564406141e-05
1.754466873e-05
2.490657212e-05
4.999906061e-05
1.504129287e-05
1.504129414e-05
1.504129826e-05
1.504131602e-05
1.504139915e-05
1.504175605e-05
1.504333536e-05
1.505040166e-05
1.508236854e-05
1.522872142e-05
1.590515314e-05
1.903896271e-05
3.332808067e-05
9.443813255e-05
1.504129388e-05
1.504129201e-05
1.504129557e-05
1.50413121e-05
1.504138551e-05
1.504169952e-05
1.504304726e-05
1.504887862e-05
1.507410705e-05
1.518273488e-05
1.56440573e-05
1.754463672e-05
2.490637144e-05
4.99982384e-05
1.50412935e-05
1.504129323e-05
1.504129565e-05
1.504130956e-05
1.504136219e-05
1.504158611e-05
1.504249982e-05
1.50462286e-05
1.506125356e-05
1.512067138e-05
1.534844481e-05
1.617827037e-05
1.895521768e-05
2.696070666e-05
4.421857669e-05
1.504129291e-05
1.504129442e-05
1.504129591e-05
1.504130608e-05
1.504133989e-05
1.504148261e-05
1.504203671e-05
1.504414287e-05
1.505198776e-05
1.508037353e-05
1.517886783e-05
1.550011909e-05
1.64545192e-05
1.890307482e-05
2.383255248e-05
1.504129268e-05
1.504129286e-05
1.504129482e-05
1.504130152e-05
1.504132865e-05
1.504142871e-05
1.504179711e-05
1.504311208e-05
1.504767254e-05
1.506292429e-05
1.511140528e-05
1.525536323e-05
1.564435686e-05
1.656442325e-05
1.836595612e-05
1.504129308e-05
1.504129301e-05
1.504129422e-05
1.504130017e-05
1.504132168e-05
1.504140083e-05
1.504167876e-05
1.504264858e-05
1.504589552e-05
1.505635021e-05
1.508824108e-05
1.517890798e-05
1.541372848e-05
1.595085252e-05
1.504129084e-05
1.504129227e-05
1.504129494e-05
1.504130301e-05
1.504133147e-05
1.50414398e-05
1.504184442e-05
1.504332703e-05
1.504860552e-05
1.506674248e-05
1.512611741e-05
1.53076978e-05
1.581186867e-05
1.702871717e-05
1.504129185e-05
1.504129221e-05
1.504129581e-05
1.504130711e-05
1.504134662e-05
1.504151082e-05
1.504215208e-05
1.504464407e-05
1.50541318e-05
1.508921406e-05
1.521361745e-05
1.562790618e-05
1.68817471e-05
2.014392896e-05
1.50412931e-05
1.504129413e-05
1.504129525e-05
1.504130966e-05
1.504136327e-05
1.504158454e-05
1.504249955e-05
1.504622874e-05
1.506125524e-05
1.512067328e-05
1.534845824e-05
1.617833116e-05
1.895547034e-05
2.696167836e-05
1.504129323e-05
1.504129384e-05
1.504129676e-05
1.504131106e-05
1.504137003e-05
1.504162173e-05
1.504267474e-05
1.504707622e-05
1.506540507e-05
1.514109708e-05
1.544840899e-05
1.665663291e-05
2.11254484e-05
3.573756076e-05
1.504129228e-05
1.504129225e-05
1.504129583e-05
1.504130744e-05
1.50413626e-05
1.504158712e-05
1.504250095e-05
1.504622775e-05
1.50612535e-05
1.512067247e-05
1.534845747e-05
1.617832162e-05
1.895542557e-05
2.696153111e-05
1.504129134e-05
1.504129145e-05
1.504129463e-05
1.504130506e-05
1.504134561e-05
1.504151096e-05
1.50421534e-05
1.504464389e-05
1.505412894e-05
1.50892142e-05
1.521361289e-05
1.562789254e-05
1.688170273e-05
2.014385666e-05
1.504129182e-05
1.50412926e-05
1.504129385e-05
1.50413017e-05
1.504133149e-05
1.504143956e-05
1.504184387e-05
1.504332449e-05
1.504860247e-05
1.506674012e-05
1.512611269e-05
1.530768426e-05
1.581182487e-05
1.702858735e-05
1.942040492e-05
1.504129231e-05
1.504129118e-05
1.504129352e-05
1.504129874e-05
1.504132038e-05
1.504139755e-05
1.504167895e-05
1.504264777e-05
1.50458937e-05
1.505634694e-05
1.508823574e-05
1.517889718e-05
1.541369723e-05
1.59507616e-05
1.699525748e-05
1.504129197e-05
1.504129235e-05
1.504129227e-05
1.504129804e-05
1.504131461e-05
1.504137271e-05
1.504156751e-05
1.504221463e-05
1.504429909e-05
1.505071056e-05
1.506937731e-05
1.51200547e-05
1.524600058e-05
1.552599714e-05
1.504129129e-05
1.504129215e-05
1.50412939e-05
1.504130035e-05
1.50413225e-05
1.50413973e-05
1.504166505e-05
1.504260356e-05
1.504576762e-05
1.505602158e-05
1.508754517e-05
1.517794265e-05
1.541400576e-05
1.595728051e-05
1.504129261e-05
1.504129355e-05
1.504129448e-05
1.504130279e-05
1.50413316e-05
1.50414394e-05
1.504184408e-05
1.504332461e-05
1.504860358e-05
1.506674172e-05
1.512611665e-05
1.53076967e-05
1.581186983e-05
1.702872274e-05
1.504129261e-05
1.504129269e-05
1.504129593e-05
1.504130227e-05
1.504134093e-05
1.504148389e-05
1.504203777e-05
1.504414487e-05
1.50519885e-05
1.508037805e-05
1.517888009e-05
1.550015968e-05
1.645466025e-05
1.890352721e-05
1.50412917e-05
1.50412928e-05
1.504129526e-05
1.504130448e-05
1.504134303e-05
1.504150311e-05
1.504212884e-05
1.504454962e-05
1.505378426e-05
1.508821023e-05
1.521227536e-05
1.563684671e-05
1.697497955e-05
2.064182318e-05
1.504129008e-05
1.504129285e-05
1.504129462e-05
1.504130503e-05
1.504134049e-05
1.504148323e-05
1.504203666e-05
1.504414293e-05
1.505198752e-05
1.508037877e-05
1.517887821e-05
1.550015499e-05
1.645464716e-05
1.890348924e-05
1.504129073e-05
1.504129195e-05
1.504129294e-05
1.504130222e-05
1.504133089e-05
1.504144043e-05
1.504184416e-05
1.504332504e-05
1.504860183e-05
1.50667408e-05
1.512611532e-05
1.530769111e-05
1.581185669e-05
1.702869665e-05
1.504129056e-05
1.504129035e-05
1.504129231e-05
1.504129877e-05
1.504131907e-05
1.504139356e-05
1.504166321e-05
1.504260239e-05
1.504576638e-05
1.50560176e-05
1.508754105e-05
1.517793459e-05
1.54139921e-05
1.595726774e-05
1.504129115e-05
1.504129128e-05
1.504129184e-05
1.504129748e-05
1.504131322e-05
1.504136975e-05
1.504156454e-05
1.504221343e-05
1.504429779e-05
1.505071001e-05
1.506937289e-05
1.512004934e-05
1.524598895e-05
1.552597036e-05
1.606934521e-05
1.504129204e-05
1.504129425e-05
1.504129385e-05
1.504129807e-05
1.504131043e-05
1.504135384e-05
1.504150147e-05
1.504197328e-05
1.504342882e-05
1.504774066e-05
1.505979246e-05
1.50912618e-05
1.516690259e-05
1.533152801e-05
1.504129264e-05
1.504129338e-05
1.504129377e-05
1.504129928e-05
1.504131511e-05
1.504137224e-05
1.504156464e-05
1.504221273e-05
1.504429729e-05
1.505071012e-05
1.506937577e-05
1.512005449e-05
1.524600108e-05
1.552600063e-05
1.504129267e-05
1.504129194e-05
1.504129284e-05
1.504130013e-05
1.504132255e-05
1.504140103e-05
1.504168004e-05
1.504264744e-05
1.504589566e-05
1.505634976e-05
1.508823968e-05
1.517890819e-05
1.541373068e-05
1.595085835e-05
1.504129243e-05
1.504129406e-05
1.504129491e-05
1.504130082e-05
1.50413284e-05
1.504142946e-05
1.504179777e-05
1.504311192e-05
1.504767406e-05
1.506292597e-05
1.511141328e-05
1.525538737e-05
1.564443138e-05
1.656463628e-05
1.504129101e-05
1.504129314e-05
1.504129421e-05
1.504130323e-05
1.504133168e-05
1.504144067e-05
1.504185104e-05
1.504332899e-05
1.504854374e-05
1.506632772e-05
1.512420142e-05
1.530093963e-05
1.579388272e-05
1.699583468e-05
1.504129186e-05
1.50412927e-05
1.504129381e-05
1.504130043e-05
1.504132885e-05
1.504143059e-05
1.504179688e-05
1.504311118e-05
1.504767374e-05
1.506292635e-05
1.511141354e-05
1.525538432e-05
1.564442204e-05
1.656461688e-05
1.504129108e-05
1.504129189e-05
1.504129309e-05
1.50412991e-05
1.504132035e-05
1.504140001e-05
1.504167814e-05
1.504264572e-05
1.504589416e-05
1.505634887e-05
1.508823828e-05
1.517890444e-05
1.541372173e-05
1.595083873e-05
1.504128996e-05
1.504129092e-05
1.504129253e-05
1.50412954e-05
1.504131376e-05
1.504137008e-05
1.504156498e-05
1.504221269e-05
1.504429628e-05
1.505070871e-05
1.506937358e-05
1.512005136e-05
1.524599609e-05
1.55259922e-05
1.504129037e-05
1.504128911e-05
1.504129116e-05
1.504129618e-05
1.504130841e-05
1.504135202e-05
1.50414991e-05
1.504197062e-05
1.504342915e-05
1.504773885e-05
1.505979018e-05
1.50912609e-05
1.516689942e-05
1.533152696e-05
)
;

boundaryField
{
    top
    {
        type            calculated;
        value           nonuniform List<scalar> 
134
(
1.504129008e-05
1.504129064e-05
1.504129125e-05
1.504129104e-05
1.504129255e-05
1.504129268e-05
1.504129231e-05
1.504129115e-05
1.504129037e-05
1.504129013e-05
1.504129136e-05
1.504129096e-05
1.504129223e-05
1.504129354e-05
1.504129286e-05
1.504129118e-05
1.504129128e-05
1.504128911e-05
1.504129299e-05
1.504129296e-05
1.504129418e-05
1.504129396e-05
1.504129445e-05
1.504129482e-05
1.504129352e-05
1.504129184e-05
1.504129116e-05
1.504129607e-05
1.50412975e-05
1.50412998e-05
1.504130055e-05
1.504130135e-05
1.504130152e-05
1.504129874e-05
1.504129748e-05
1.504129618e-05
1.504130938e-05
1.504131369e-05
1.504132001e-05
1.504132721e-05
1.504133121e-05
1.504132865e-05
1.504132038e-05
1.504131322e-05
1.504130841e-05
1.504135237e-05
1.504136997e-05
1.504139797e-05
1.504142874e-05
1.504144153e-05
1.504142871e-05
1.504139755e-05
1.504136975e-05
1.504135202e-05
1.504149823e-05
1.50415652e-05
1.504167794e-05
1.504179636e-05
1.504184909e-05
1.504179711e-05
1.504167895e-05
1.504156454e-05
1.50414991e-05
1.504196915e-05
1.50422122e-05
1.504264678e-05
1.504310977e-05
1.504332879e-05
1.504311208e-05
1.504264777e-05
1.504221343e-05
1.504197062e-05
1.504342534e-05
1.504429638e-05
1.504589598e-05
1.504767355e-05
1.504854421e-05
1.504767254e-05
1.50458937e-05
1.504429779e-05
1.504342915e-05
1.504773662e-05
1.505070698e-05
1.505634731e-05
1.506292401e-05
1.506632417e-05
1.506292429e-05
1.505634694e-05
1.505071001e-05
1.504773885e-05
1.505978714e-05
1.506937031e-05
1.508823187e-05
1.511140234e-05
1.512419236e-05
1.511140528e-05
1.508823574e-05
1.506937289e-05
1.505979018e-05
1.509125213e-05
1.512003968e-05
1.517888544e-05
1.525535428e-05
1.530090681e-05
1.525536323e-05
1.517889718e-05
1.512004934e-05
1.50912609e-05
1.516687755e-05
1.524596493e-05
1.541366719e-05
1.564433102e-05
1.579377196e-05
1.564435686e-05
1.541369723e-05
1.524598895e-05
1.516689942e-05
1.533147119e-05
1.552590915e-05
1.595068818e-05
1.656436376e-05
1.699550963e-05
1.656442325e-05
1.59507616e-05
1.552597036e-05
1.533152696e-05
1.565097768e-05
1.606920952e-05
1.699511778e-05
1.836584376e-05
1.93771235e-05
1.836595612e-05
1.699525748e-05
1.606934521e-05
)
;
    }
    bottom
    {
        type            calculated;
        value           nonuniform List<scalar> 
127
(
1.504129164e-05
1.504129362e-05
1.504129267e-05
1.504129397e-05
1.504129373e-05
1.504129325e-05
1.504129308e-05
1.504129197e-05
1.504129204e-05
1.504129218e-05
1.504129218e-05
1.504129285e-05
1.504129335e-05
1.504129363e-05
1.504129257e-05
1.504129301e-05
1.504129235e-05
1.504129425e-05
1.504129281e-05
1.504129284e-05
1.504129432e-05
1.504129477e-05
1.50412943e-05
1.504129524e-05
1.504129422e-05
1.504129227e-05
1.504129385e-05
1.504129498e-05
1.504129701e-05
1.504130056e-05
1.504130227e-05
1.504130297e-05
1.50413022e-05
1.504130017e-05
1.504129804e-05
1.504129807e-05
1.504130894e-05
1.504131241e-05
1.50413192e-05
1.504133015e-05
1.504133203e-05
1.504132936e-05
1.504132168e-05
1.504131461e-05
1.504131043e-05
1.504135235e-05
1.504136985e-05
1.504139703e-05
1.504142934e-05
1.504144178e-05
1.504143036e-05
1.504140083e-05
1.504137271e-05
1.504135384e-05
1.504149841e-05
1.504156364e-05
1.504167601e-05
1.504179564e-05
1.504184915e-05
1.504179578e-05
1.504167876e-05
1.504156751e-05
1.504150147e-05
1.504196828e-05
1.504221254e-05
1.504264453e-05
1.504310951e-05
1.504332909e-05
1.504311278e-05
1.504264858e-05
1.504221463e-05
1.504197328e-05
1.504342624e-05
1.504429627e-05
1.504589407e-05
1.50476722e-05
1.504854469e-05
1.504767352e-05
1.504589552e-05
1.504429909e-05
1.504342882e-05
1.504773721e-05
1.505070781e-05
1.505634692e-05
1.506292535e-05
1.506632658e-05
1.506292832e-05
1.505635021e-05
1.505071056e-05
1.504774066e-05
1.5059789e-05
1.506937145e-05
1.508823462e-05
1.511140847e-05
1.512419858e-05
1.511141238e-05
1.508824108e-05
1.506937731e-05
1.505979246e-05
1.509125525e-05
1.512004539e-05
1.517889929e-05
1.525537466e-05
1.530092914e-05
1.525538207e-05
1.517890798e-05
1.51200547e-05
1.50912618e-05
1.516688773e-05
1.524598776e-05
1.541371469e-05
1.564440619e-05
1.579386554e-05
1.56444215e-05
1.541372848e-05
1.524600058e-05
1.516690259e-05
1.533150021e-05
1.552599043e-05
1.595084353e-05
1.656461615e-05
1.699582476e-05
1.656463113e-05
1.595085252e-05
1.552599714e-05
1.533152801e-05
1.5651051e-05
)
;
    }
    side-walls
    {
        type            calculated;
        value           nonuniform List<scalar> 
261
(
1.504129164e-05
1.504129034e-05
1.504129274e-05
1.504129244e-05
1.504129138e-05
1.504129063e-05
1.504128979e-05
1.504129138e-05
1.504129008e-05
1.504129218e-05
1.504129026e-05
1.504129226e-05
1.504129179e-05
1.504129088e-05
1.504129042e-05
1.504129038e-05
1.504129081e-05
1.504129013e-05
1.504129281e-05
1.504129347e-05
1.504129192e-05
1.504129241e-05
1.504129192e-05
1.504129179e-05
1.504129299e-05
1.504129091e-05
1.504129299e-05
1.504129498e-05
1.50412972e-05
1.504129792e-05
1.504130054e-05
1.504130027e-05
1.5041299e-05
1.504129747e-05
1.504129633e-05
1.504129607e-05
1.504130894e-05
1.504131323e-05
1.504132164e-05
1.504132717e-05
1.504133088e-05
1.50413269e-05
1.504131883e-05
1.504131229e-05
1.504130938e-05
1.504135235e-05
1.504137031e-05
1.50413993e-05
1.504142797e-05
1.504144075e-05
1.504142744e-05
1.504139795e-05
1.504136971e-05
1.504135237e-05
1.504149841e-05
1.504156478e-05
1.504167848e-05
1.504179479e-05
1.504184975e-05
1.504179504e-05
1.504167802e-05
1.504156308e-05
1.504149823e-05
1.504196828e-05
1.504221038e-05
1.504264516e-05
1.504310848e-05
1.504332632e-05
1.504310807e-05
1.50426464e-05
1.504221229e-05
1.504196915e-05
1.504342624e-05
1.504429418e-05
1.504589401e-05
1.504767206e-05
1.504854406e-05
1.504767113e-05
1.504589365e-05
1.504429588e-05
1.504342534e-05
1.504773721e-05
1.505070671e-05
1.505634614e-05
1.506292285e-05
1.506632169e-05
1.506292212e-05
1.505634435e-05
1.505070669e-05
1.504773662e-05
1.5059789e-05
1.506937e-05
1.508823129e-05
1.511140068e-05
1.512418732e-05
1.511139981e-05
1.50882303e-05
1.506937083e-05
1.505978714e-05
1.509125525e-05
1.512004274e-05
1.517888702e-05
1.525534792e-05
1.530089304e-05
1.52553473e-05
1.51788818e-05
1.512003719e-05
1.509125213e-05
1.516688773e-05
1.524597441e-05
1.541367195e-05
1.564432227e-05
1.579374651e-05
1.564431522e-05
1.541366076e-05
1.524596285e-05
1.516687755e-05
1.533150021e-05
1.552593682e-05
1.595071156e-05
1.65643604e-05
1.699547235e-05
1.656434171e-05
1.595068014e-05
1.552590429e-05
1.533147119e-05
1.5651051e-05
1.60692823e-05
1.69951861e-05
1.836588432e-05
1.937711365e-05
1.836583593e-05
1.699511261e-05
1.60692053e-05
1.565097768e-05
1.504129204e-05
1.504129264e-05
1.504129267e-05
1.504129243e-05
1.504129101e-05
1.504129186e-05
1.504129108e-05
1.504128996e-05
1.504129037e-05
1.504129425e-05
1.504129338e-05
1.504129194e-05
1.504129406e-05
1.504129314e-05
1.50412927e-05
1.504129189e-05
1.504129092e-05
1.504128911e-05
1.504129385e-05
1.504129377e-05
1.504129284e-05
1.504129491e-05
1.504129421e-05
1.504129381e-05
1.504129309e-05
1.504129253e-05
1.504129116e-05
1.504129807e-05
1.504129928e-05
1.504130013e-05
1.504130082e-05
1.504130323e-05
1.504130043e-05
1.50412991e-05
1.50412954e-05
1.504129618e-05
1.504131043e-05
1.504131511e-05
1.504132255e-05
1.50413284e-05
1.504133168e-05
1.504132885e-05
1.504132035e-05
1.504131376e-05
1.504130841e-05
1.504135384e-05
1.504137224e-05
1.504140103e-05
1.504142946e-05
1.504144067e-05
1.504143059e-05
1.504140001e-05
1.504137008e-05
1.504135202e-05
1.504150147e-05
1.504156464e-05
1.504168004e-05
1.504179777e-05
1.504185104e-05
1.504179688e-05
1.504167814e-05
1.504156498e-05
1.50414991e-05
1.504197328e-05
1.504221273e-05
1.504264744e-05
1.504311192e-05
1.504332899e-05
1.504311118e-05
1.504264572e-05
1.504221269e-05
1.504197062e-05
1.504342882e-05
1.504429729e-05
1.504589566e-05
1.504767406e-05
1.504854374e-05
1.504767374e-05
1.504589416e-05
1.504429628e-05
1.504342915e-05
1.504774066e-05
1.505071012e-05
1.505634976e-05
1.506292597e-05
1.506632772e-05
1.506292635e-05
1.505634887e-05
1.505070871e-05
1.504773885e-05
1.505979246e-05
1.506937577e-05
1.508823968e-05
1.511141328e-05
1.512420142e-05
1.511141354e-05
1.508823828e-05
1.506937358e-05
1.505979018e-05
1.50912618e-05
1.512005449e-05
1.517890819e-05
1.525538737e-05
1.530093963e-05
1.525538432e-05
1.517890444e-05
1.512005136e-05
1.50912609e-05
1.516690259e-05
1.524600108e-05
1.541373068e-05
1.564443138e-05
1.579388272e-05
1.564442204e-05
1.541372173e-05
1.524599609e-05
1.516689942e-05
1.533152801e-05
1.552600063e-05
1.595085835e-05
1.656463628e-05
1.699583468e-05
1.656461688e-05
1.595083873e-05
1.55259922e-05
1.533152696e-05
)
;
    }
    inlet
    {
        type            calculated;
        value           nonuniform List<scalar> 
81
(
1.504129164e-05
1.504129034e-05
1.504129274e-05
1.504129244e-05
1.504129138e-05
1.504129063e-05
1.504128979e-05
1.504129138e-05
1.504129008e-05
1.504129362e-05
1.504129228e-05
1.504129336e-05
1.504129374e-05
1.504129161e-05
1.504129073e-05
1.504129157e-05
1.504129199e-05
1.504129064e-05
1.504129267e-05
1.50412937e-05
1.50412949e-05
1.504129288e-05
1.504129375e-05
1.50412912e-05
1.504129002e-05
1.50412919e-05
1.504129125e-05
1.504129397e-05
1.504129208e-05
1.504129307e-05
1.504129239e-05
1.504129259e-05
1.504129316e-05
1.504129068e-05
1.504129222e-05
1.504129104e-05
1.504129373e-05
1.504129098e-05
1.504129337e-05
1.504129269e-05
1.504129255e-05
1.504129382e-05
1.504129343e-05
1.504129433e-05
1.504129255e-05
1.504129325e-05
1.504129233e-05
1.504129332e-05
1.504129289e-05
1.504129287e-05
1.504129388e-05
1.50412935e-05
1.504129291e-05
1.504129268e-05
1.504129308e-05
1.504129084e-05
1.504129185e-05
1.50412931e-05
1.504129323e-05
1.504129228e-05
1.504129134e-05
1.504129182e-05
1.504129231e-05
1.504129197e-05
1.504129129e-05
1.504129261e-05
1.504129261e-05
1.50412917e-05
1.504129008e-05
1.504129073e-05
1.504129056e-05
1.504129115e-05
1.504129204e-05
1.504129264e-05
1.504129267e-05
1.504129243e-05
1.504129101e-05
1.504129186e-05
1.504129108e-05
1.504128996e-05
1.504129037e-05
)
;
    }
    outlet
    {
        type            calculated;
        value           nonuniform 0();
    }
    procBoundary0to1
    {
        type            processor;
        value           nonuniform List<scalar> 
97
(
1.620027597e-05
1.606934846e-05
1.69768448e-05
1.867336467e-05
2.112424648e-05
2.284595565e-05
2.112418886e-05
1.867326953e-05
1.697675651e-05
1.620021405e-05