/*--------------------------------*- C++ -*----------------------------------*\
| =========                 |                                                 |
| \\      /  F ield         | OpenFOAM: The Open Source CFD Toolbox           |
|  \\    /   O peration     | Version:  4.x                                   |
|   \\  /    A nd           | Web:      www.OpenFOAM.org                      |
|    \\/     M anipulation  |                                                 |
\*---------------------------------------------------------------------------*/
FoamFile
{
    version     2.0;
    format      ascii;
    class       volScalarField;
    location    "1000";
    object      CO2;
}
// * * * * * * * * * * * * * * * * * * * * * * * * * * * * * * * * * * * * * //

dimensions      [0 0 0 0 0 0 0];

internalField   nonuniform List<scalar> 
1175
(
0.06314985474
0.06314985474
0.06314985475
0.06314985477
0.06314985486
0.06314985517
0.06314985619
0.06314985955
0.06314987011
0.0631499018
0.06314999171
0.06315022986
0.06315081017
0.06315208974
0.06315460416
0.06314985474
0.06314985475
0.06314985475
0.06314985478
0.06314985489
0.06314985529
0.06314985667
0.06314986134
0.06314987662
0.06314992435
0.06315006543
0.0631504542
0.06315143422
0.06315364248
0.06315798207
0.06314985475
0.06314985475
0.06314985476
0.0631498548
0.06314985495
0.0631498555
0.0631498575
0.06314986457
0.06314988866
0.06314996746
0.06315021165
0.06315091652
0.06315276893
0.06315706526
0.06316552949
0.06314985475
0.06314985475
0.06314985476
0.06314985481
0.063149855
0.06314985571
0.06314985837
0.06314986804
0.06314990218
0.0631500182
0.06315039301
0.06315152352
0.06315462493
0.06316206731
0.06317683667
0.06314985475
0.06314985475
0.06314985476
0.06314985481
0.06314985502
0.06314985581
0.06314985876
0.06314986968
0.06314990885
0.06315004467
0.06315049414
0.06315188923
0.06315584235
0.06316562885
0.06318530027
0.06314985475
0.06314985475
0.06314985476
0.06314985481
0.063149855
0.06314985571
0.06314985837
0.06314986804
0.06314990218
0.0631500182
0.06315039301
0.06315152351
0.06315462487
0.06316206717
0.06317683637
0.06314985475
0.06314985475
0.06314985476
0.0631498548
0.06314985495
0.0631498555
0.0631498575
0.06314986457
0.06314988866
0.06314996746
0.06315021165
0.0631509165
0.06315276886
0.06315706508
0.0631655291
0.06314985474
0.06314985475
0.06314985475
0.06314985478
0.06314985489
0.06314985529
0.06314985667
0.06314986134
0.06314987662
0.06314992435
0.06315006543
0.06315045419
0.06315143416
0.06315364232
0.06315798171
0.06314985474
0.06314985474
0.06314985475
0.06314985477
0.06314985486
0.06314985517
0.06314985619
0.06314985955
0.06314987011
0.0631499018
0.06314999171
0.06315022985
0.06315081012
0.0631520896
0.06315460382
0.06314985474
0.06314985475
0.06314985475
0.06314985478
0.06314985489
0.06314985529
0.06314985667
0.06314986134
0.06314987662
0.06314992435
0.06315006544
0.06315045422
0.06315143427
0.06315364266
0.06314985474
0.06314985475
0.06314985476
0.06314985479
0.06314985494
0.06314985547
0.0631498574
0.06314986425
0.06314988775
0.06314996515
0.06315020695
0.06315091106
0.06315277712
0.06315713218
0.06316571962
0.06314985475
0.06314985475
0.06314985476
0.06314985481
0.06314985501
0.06314985579
0.06314985873
0.0631498697
0.06314990941
0.06315004822
0.06315051004
0.06315194466
0.06315598856
0.06316589044
0.06318562092
0.06314985475
0.06314985475
0.06314985477
0.06314985483
0.06314985509
0.06314985612
0.06314986018
0.0631498759
0.06314993551
0.06315015497
0.06315092921
0.06315349563
0.06316124006
0.06318140951
0.06322260483
0.06314985475
0.06314985475
0.06314985477
0.06314985484
0.06314985512
0.06314985627
0.06314986087
0.06314987901
0.06314994949
0.06315021696
0.06315119775
0.06315461146
0.06316554915
0.06319600516
0.06326112081
0.06314985475
0.06314985475
0.06314985477
0.06314985483
0.06314985509
0.06314985612
0.06314986018
0.0631498759
0.06314993551
0.06315015496
0.0631509292
0.06315349558
0.06316123988
0.06318140898
0.06322260357
0.06314985475
0.06314985475
0.06314985476
0.06314985481
0.06314985501
0.06314985579
0.06314985873
0.0631498697
0.06314990941
0.06315004822
0.06315051002
0.06315194461
0.06315598838
0.06316588989
0.06318561959
0.06314985474
0.06314985475
0.06314985476
0.06314985479
0.06314985494
0.06314985547
0.0631498574
0.06314986425
0.06314988775
0.06314996515
0.06315020694
0.06315091102
0.06315277699
0.06315713175
0.06316571846
0.06314985474
0.06314985475
0.06314985475
0.06314985478
0.06314985489
0.06314985529
0.06314985667
0.06314986134
0.06314987662
0.06314992435
0.06315006543
0.06315045419
0.06315143417
0.06315364233
0.06315798173
0.06314985475
0.06314985475
0.06314985476
0.0631498548
0.06314985495
0.0631498555
0.0631498575
0.06314986457
0.06314988866
0.06314996747
0.06315021166
0.06315091656
0.06315276906
0.06315706568
0.06314985475
0.06314985475
0.06314985476
0.06314985481
0.06314985501
0.06314985579
0.06314985873
0.0631498697
0.06314990941
0.06315004823
0.06315051005
0.0631519447
0.06315598875
0.06316589123
0.06314985475
0.06314985475
0.06314985477
0.06314985484
0.06314985513
0.06314985631
0.06314986104
0.06314987973
0.06314995213
0.06315022446
0.06315120607
0.0631545272
0.06316473311
0.06319168075
0.06324695204
0.06314985475
0.06314985475
0.06314985477
0.06314985487
0.06314985525
0.06314985688
0.06314986368
0.06314989191
0.06315000777
0.06315047398
0.06315229151
0.0631590212
0.06318189614
0.06324885032
0.06339541462
0.06314985475
0.06314985476
0.06314985478
0.06314985488
0.06314985531
0.06314985715
0.06314986501
0.06314989848
0.06315004055
0.06315063798
0.06315310667
0.06316297944
0.06320010289
0.06332345959
0.06363008412
0.06314985475
0.06314985475
0.06314985477
0.06314985487
0.06314985525
0.06314985688
0.06314986368
0.06314989191
0.06315000777
0.06315047397
0.06315229147
0.06315902103
0.06318189544
0.06324884775
0.06339540753
0.06314985475
0.06314985475
0.06314985477
0.06314985484
0.06314985513
0.06314985631
0.06314986104
0.06314987973
0.06314995213
0.06315022445
0.06315120604
0.06315452706
0.06316473254
0.06319167865
0.06324694571
0.06314985475
0.06314985475
0.06314985476
0.06314985481
0.06314985501
0.06314985579
0.06314985873
0.0631498697
0.06314990941
0.06315004822
0.06315051003
0.06315194462
0.06315598841
0.06316588995
0.06318561966
0.06314985475
0.06314985475
0.06314985476
0.0631498548
0.06314985495
0.0631498555
0.0631498575
0.06314986457
0.06314988866
0.06314996746
0.06315021165
0.06315091651
0.06315276888
0.06315706512
0.06316552915
0.06314985475
0.06314985475
0.06314985476
0.06314985481
0.063149855
0.06314985571
0.06314985837
0.06314986804
0.06314990218
0.06315001821
0.06315039304
0.0631515236
0.06315462518
0.06316206806
0.06314985475
0.06314985475
0.06314985477
0.06314985483
0.06314985509
0.06314985612
0.06314986018
0.0631498759
0.06314993551
0.06315015498
0.06315092924
0.06315349577
0.06316124059
0.0631814114
0.06314985475
0.06314985475
0.06314985477
0.06314985487
0.06314985525
0.06314985688
0.06314986368
0.06314989191
0.06315000777
0.06315047399
0.06315229155
0.06315902141
0.06318189716
0.06324885547
0.06314985475
0.06314985476
0.06314985478
0.0631498549
0.06314985543
0.06314985773
0.06314986786
0.06314991249
0.0631501092
0.06315097149
0.06315469698
0.06317030012
0.06323169645
0.06344417144
0.06398624838
0.06314985475
0.06314985476
0.06314985479
0.06314985492
0.06314985551
0.06314985815
0.06314987007
0.06314992444
0.06315017523
0.0631513452
0.06315685165
0.06318280824
0.06330311865
0.06382570137
0.06563665154
0.06314985475
0.06314985476
0.06314985478
0.0631498549
0.06314985543
0.06314985773
0.06314986786
0.06314991249
0.0631501092
0.06315097148
0.06315469691
0.06317029973
0.0632316943
0.06344416064
0.06398620518
0.06314985475
0.06314985475
0.06314985477
0.06314985487
0.06314985525
0.06314985688
0.06314986368
0.06314989191
0.06315000777
0.06315047398
0.06315229149
0.0631590211
0.06318189565
0.06324884829
0.06339540821
0.06314985475
0.06314985475
0.06314985477
0.06314985483
0.06314985509
0.06314985612
0.06314986018
0.0631498759
0.06314993551
0.06315015497
0.06315092921
0.06315349562
0.06316124
0.06318140923
0.06322260387
0.06314985475
0.06314985475
0.06314985476
0.06314985481
0.063149855
0.06314985571
0.06314985837
0.06314986804
0.06314990218
0.0631500182
0.06315039302
0.06315152353
0.06315462493
0.06316206728
0.0631768365
0.06314985475
0.06314985475
0.06314985476
0.06314985481
0.06314985502
0.06314985581
0.06314985876
0.06314986968
0.06314990885
0.06315004468
0.06315049417
0.06315188934
0.06315584272
0.06316562988
0.06314985475
0.06314985475
0.06314985477
0.06314985484
0.06314985512
0.06314985627
0.06314986087
0.06314987901
0.06314994949
0.06315021698
0.06315119781
0.0631546117
0.06316555008
0.06319600821
0.06314985475
0.06314985476
0.06314985478
0.06314985488
0.06314985531
0.06314985715
0.06314986501
0.06314989848
0.06315004055
0.06315063801
0.06315310679
0.06316298003
0.06320010568
0.0633234713
0.06314985475
0.06314985476
0.06314985479
0.06314985492
0.06314985551
0.06314985815
0.06314987008
0.06314992444
0.06315017523
0.06315134522
0.06315685181
0.06318280924
0.06330312523
0.0638257465
0.06314985475
0.06314985476
0.06314985479
0.06314985494
0.06314985561
0.06314985866
0.06314987286
0.06314994034
0.06315027025
0.06315194302
0.0631608271
0.06321078667
0.06351124092
0.06545642598
0.07911486665
0.06314985475
0.06314985476
0.06314985479
0.06314985492
0.06314985551
0.06314985815
0.06314987008
0.06314992444
0.06315017523
0.06315134521
0.06315685171
0.06318280853
0.06330311984
0.06382570574
0.06563666102
0.06314985475
0.06314985476
0.06314985478
0.06314985488
0.06314985531
0.06314985715
0.06314986501
0.06314989848
0.06315004055
0.06315063799
0.06315310671
0.0631629796
0.06320010348
0.06332346127
0.06363008657
0.06314985475
0.06314985475
0.06314985477
0.06314985484
0.06314985512
0.06314985627
0.06314986087
0.06314987901
0.06314994949
0.06315021697
0.06315119778
0.06315461153
0.06316554938
0.06319600571
0.06326112154
0.06314985475
0.06314985475
0.06314985476
0.06314985481
0.06314985502
0.06314985581
0.06314985876
0.06314986968
0.06314990885
0.06315004468
0.06315049415
0.06315188926
0.06315584243
0.06316562904
0.06318530049
0.06314985475
0.06314985475
0.06314985476
0.06314985481
0.063149855
0.06314985571
0.06314985837
0.06314986804
0.06314990218
0.06315001821
0.06315039304
0.06315152361
0.06315462519
0.06316206799
0.06314985475
0.06314985475
0.06314985477
0.06314985483
0.06314985509
0.06314985612
0.06314986018
0.0631498759
0.06314993551
0.06315015498
0.06315092925
0.0631534958
0.06316124062
0.06318141113
0.06314985475
0.06314985475
0.06314985477
0.06314985487
0.06314985525
0.06314985688
0.06314986368
0.06314989191
0.06315000777
0.063150474
0.06315229159
0.06315902154
0.06318189744
0.06324885444
0.06314985475
0.06314985476
0.06314985478
0.0631498549
0.06314985543
0.06314985773
0.06314986786
0.06314991249
0.06315010921
0.06315097151
0.06315469707
0.06317030058
0.06323169858
0.06344417898
0.06314985475
0.06314985476
0.06314985479
0.06314985492
0.06314985551
0.06314985815
0.06314987008
0.06314992444
0.06315017524
0.06315134523
0.06315685185
0.06318280942
0.06330312583
0.06382574732
0.06314985475
0.06314985476
0.06314985478
0.0631498549
0.06314985543
0.06314985773
0.06314986786
0.06314991249
0.06315010921
0.06315097151
0.06315469705
0.06317030043
0.06323169793
0.06344417824
0.06314985475
0.06314985475
0.06314985477
0.06314985487
0.06314985525
0.06314985688
0.06314986368
0.06314989191
0.06315000777
0.06315047399
0.06315229155
0.06315902137
0.06318189678
0.0632488523
0.06339542056
0.06314985475
0.06314985475
0.06314985477
0.06314985483
0.06314985509
0.06314985612
0.06314986018
0.0631498759
0.06314993551
0.06315015497
0.06315092923
0.0631534957
0.06316124028
0.06318141012
0.06322260588
0.06314985475
0.06314985475
0.06314985476
0.06314985481
0.063149855
0.06314985571
0.06314985837
0.06314986804
0.06314990218
0.06315001821
0.06315039303
0.06315152356
0.06315462502
0.06316206752
0.06317683696
0.06314985475
0.06314985475
0.06314985476
0.0631498548
0.06314985495
0.0631498555
0.0631498575
0.06314986457
0.06314988866
0.06314996747
0.06315021167
0.06315091657
0.06315276907
0.06315706559
0.06314985475
0.06314985475
0.06314985476
0.06314985481
0.06314985501
0.06314985579
0.06314985873
0.0631498697
0.06314990942
0.06315004823
0.06315051006
0.06315194474
0.0631559888
0.06316589099
0.06314985475
0.06314985475
0.06314985477
0.06314985484
0.06314985513
0.06314985631
0.06314986104
0.06314987974
0.06314995213
0.06315022447
0.06315120611
0.06315452733
0.06316473348
0.06319168139
0.06314985475
0.06314985475
0.06314985477
0.06314985487
0.06314985525
0.06314985688
0.06314986368
0.06314989191
0.06315000777
0.063150474
0.06315229159
0.06315902155
0.06318189746
0.06324885426
0.06314985475
0.06314985476
0.06314985478
0.06314985488
0.06314985531
0.06314985715
0.06314986501
0.06314989848
0.06315004055
0.06315063801
0.06315310682
0.06316298013
0.06320010598
0.06332347116
0.06314985475
0.06314985475
0.06314985477
0.06314985487
0.06314985525
0.06314985688
0.06314986368
0.06314989191
0.06315000777
0.063150474
0.06315229159
0.06315902153
0.06318189742
0.06324885419
0.06314985475
0.06314985475
0.06314985477
0.06314985484
0.06314985513
0.06314985631
0.06314986104
0.06314987973
0.06314995213
0.06315022446
0.0631512061
0.06315452729
0.06316473342
0.06319168177
0.06314985475
0.06314985475
0.06314985476
0.06314985481
0.06314985501
0.06314985579
0.06314985873
0.0631498697
0.06314990941
0.06315004823
0.06315051005
0.0631519447
0.0631559887
0.06316589082
0.06318562189
0.06314985475
0.06314985475
0.06314985476
0.0631498548
0.06314985495
0.0631498555
0.0631498575
0.06314986457
0.06314988866
0.06314996747
0.06315021166
0.06315091655
0.06315276899
0.06315706542
0.06316552974
0.06314985474
0.06314985475
0.06314985475
0.06314985478
0.06314985489
0.06314985529
0.06314985667
0.06314986134
0.06314987662
0.06314992435
0.06315006544
0.06315045422
0.06315143427
0.06315364258
0.06314985474
0.06314985475
0.06314985476
0.06314985479
0.06314985494
0.06314985547
0.0631498574
0.06314986425
0.06314988775
0.06314996515
0.06315020696
0.06315091109
0.06315277719
0.06315713225
0.06314985475
0.06314985475
0.06314985476
0.06314985481
0.06314985501
0.06314985579
0.06314985873
0.0631498697
0.06314990942
0.06315004823
0.06315051006
0.06315194474
0.0631559888
0.06316589096
0.06314985475
0.06314985475
0.06314985477
0.06314985483
0.06314985509
0.06314985612
0.06314986018
0.0631498759
0.06314993551
0.06315015498
0.06315092926
0.06315349581
0.06316124066
0.06318141109
0.06314985475
0.06314985475
0.06314985477
0.06314985484
0.06314985512
0.06314985627
0.06314986087
0.06314987901
0.06314994949
0.06315021698
0.06315119783
0.06315461174
0.06316555017
0.0631960081
0.06314985475
0.06314985475
0.06314985477
0.06314985483
0.06314985509
0.06314985612
0.06314986018
0.0631498759
0.06314993551
0.06315015498
0.06315092926
0.06315349581
0.06316124065
0.06318141104
0.06314985475
0.06314985475
0.06314985476
0.06314985481
0.06314985501
0.06314985579
0.06314985873
0.0631498697
0.06314990941
0.06315004823
0.06315051006
0.06315194473
0.06315598879
0.06316589104
0.06314985474
0.06314985475
0.06314985476
0.06314985479
0.06314985494
0.06314985547
0.0631498574
0.06314986425
0.06314988775
0.06314996515
0.06315020695
0.06315091108
0.06315277718
0.06315713237
0.06314985474
0.06314985475
0.06314985475
0.06314985478
0.06314985489
0.06314985529
0.06314985667
0.06314986134
0.06314987662
0.06314992435
0.06315006544
0.06315045422
0.06315143426
0.06315364258
0.06315798229
0.06314985474
0.06314985474
0.06314985475
0.06314985477
0.06314985486
0.06314985517
0.06314985619
0.06314985955
0.06314987011
0.0631499018
0.06314999172
0.06315022987
0.06315081018
0.06315208976
0.06314985474
0.06314985475
0.06314985475
0.06314985478
0.06314985489
0.06314985529
0.06314985667
0.06314986134
0.06314987662
0.06314992435
0.06315006544
0.06315045423
0.06315143427
0.06315364258
0.06314985475
0.06314985475
0.06314985476
0.0631498548
0.06314985495
0.0631498555
0.0631498575
0.06314986457
0.06314988866
0.06314996747
0.06315021167
0.06315091657
0.06315276907
0.06315706558
0.06314985475
0.06314985475
0.06314985476
0.06314985481
0.063149855
0.06314985571
0.06314985837
0.06314986804
0.06314990218
0.06315001821
0.06315039304
0.06315152362
0.0631546252
0.06316206799
0.06314985475
0.06314985475
0.06314985476
0.06314985481
0.06314985502
0.06314985581
0.06314985876
0.06314986968
0.06314990885
0.06315004468
0.06315049418
0.06315188935
0.06315584274
0.06316562983
0.06314985475
0.06314985475
0.06314985476
0.06314985481
0.063149855
0.06314985571
0.06314985837
0.06314986804
0.06314990218
0.06315001821
0.06315039304
0.06315152362
0.06315462521
0.06316206797
0.06314985475
0.06314985475
0.06314985476
0.0631498548
0.06314985495
0.0631498555
0.0631498575
0.06314986457
0.06314988866
0.06314996747
0.06315021167
0.06315091657
0.06315276907
0.06315706559
0.06314985474
0.06314985475
0.06314985475
0.06314985478
0.06314985489
0.06314985529
0.06314985667
0.06314986134
0.06314987662
0.06314992435
0.06315006544
0.06315045422
0.06315143428
0.06315364262
0.06314985474
0.06314985474
0.06314985475
0.06314985477
0.06314985486
0.06314985517
0.06314985619
0.06314985955
0.06314987011
0.0631499018
0.06314999172
0.06315022987
0.06315081019
0.06315208981
)
;

boundaryField
{
    top
    {
        type            zeroGradient;
    }
    bottom
    {
        type            zeroGradient;
    }
    side-walls
    {
        type            zeroGradient;
    }
    inlet
    {
        type            zeroGradient;
    }
    outlet
    {
        type            zeroGradient;
    }
    procBoundary0to1
    {
        type            processor;
        value           nonuniform List<scalar> 
97
(
0.06315897566
0.06315798237
0.06316531359
0.06317928575
0.06319970711
0.06321425207
0.06319970665
0.06317928513
0.06316531304
0.0631589752
0.06315798237
0.06315798237
0.06317955922
0.06318562234
0.0632153174
0.06327869005
0.06333832164
0.06327868843
0.06321531558
0.06317955789
0.06316531305
0.06316552997
0.06318562234
0.06318562234
0.06332063224
0.06339542391
0.06355415623
0.06385914161
0.06355414911
0.06332062601
0.06321531562
0.06317928515
0.06317683742
0.06322260708
0.06339542391
0.06339542391
0.06435241243
0.06563669111
0.06591390016
0.06435238585
0.06355414928
0.06327868846
0.06319970666
0.06318530123
0.06326112379
0.06363009501
0.06563669111
0.06563669111
0.07263671744
0.06563668748
0.06591389999
0.06398622407
0.06385914148
0.06333832158
0.06321425202
0.06317683709
0.06322260556
0.06339541415
0.06398621844
0.06563668748
0.06398622407
0.06398622407
0.06355415657
0.06324695116
0.06327869027
0.06319970715
0.06316552953
0.06318562052
0.06324694804
0.0633954132
0.06363009267
0.063395413
0.06324695116
0.06324695116
0.06321531738
0.06316571951
0.0631792858
0.06315798192
0.06316571885
0.06318562041
0.0632226052
0.0632611228
0.0632226051
0.06318562082
0.06316571951
0.06316571951
0.0631653136
0.06315460414
0.06315460394
0.06315798191
0.06316552947
0.06317683694
0.06318530086
0.06317683691
0.06316552953
0.06315798204
0.06315460414
)
;
    }
}


// ************************************************************************* //
