/*--------------------------------*- C++ -*----------------------------------*\
| =========                 |                                                 |
| \\      /  F ield         | OpenFOAM: The Open Source CFD Toolbox           |
|  \\    /   O peration     | Version:  4.x                                   |
|   \\  /    A nd           | Web:      www.OpenFOAM.org                      |
|    \\/     M anipulation  |                                                 |
\*---------------------------------------------------------------------------*/
FoamFile
{
    version     2.0;
    format      ascii;
    class       volScalarField;
    location    "1000";
    object      H2;
}
// * * * * * * * * * * * * * * * * * * * * * * * * * * * * * * * * * * * * * //

dimensions      [0 0 0 0 0 0 0];

internalField   nonuniform List<scalar> 
1175
(
0.002172513355
0.002172513355
0.002172513355
0.002172513355
0.002172513353
0.002172513348
0.002172513332
0.002172513278
0.002172513107
0.002172512595
0.002172511142
0.002172507292
0.002172497908
0.002172477215
0.002172436553
0.002172513355
0.002172513355
0.002172513355
0.002172513355
0.002172513353
0.002172513346
0.002172513324
0.002172513249
0.002172513002
0.00217251223
0.002172509948
0.002172503659
0.002172487799
0.002172452057
0.00217238182
0.002172513355
0.002172513355
0.002172513355
0.002172513354
0.002172513352
0.002172513343
0.002172513311
0.002172513197
0.002172512807
0.002172511532
0.00217250758
0.002172496168
0.002172466167
0.002172396573
0.002172259465
0.002172513355
0.002172513355
0.002172513355
0.002172513354
0.002172513351
0.00217251334
0.002172513297
0.00217251314
0.002172512588
0.00217251071
0.002172504641
0.002172486328
0.00217243607
0.002172315438
0.002172076039
0.002172513355
0.002172513355
0.002172513355
0.002172513354
0.002172513351
0.002172513338
0.00217251329
0.002172513114
0.00217251248
0.002172510281
0.002172503002
0.002172480396
0.002172416315
0.002172257628
0.002171938639
0.002172513355
0.002172513355
0.002172513355
0.002172513354
0.002172513351
0.00217251334
0.002172513297
0.00217251314
0.002172512588
0.00217251071
0.002172504641
0.002172486328
0.00217243607
0.002172315439
0.002172076043
0.002172513355
0.002172513355
0.002172513355
0.002172513354
0.002172513352
0.002172513343
0.002172513311
0.002172513197
0.002172512807
0.002172511532
0.00217250758
0.002172496168
0.002172466168
0.002172396575
0.002172259469
0.002172513355
0.002172513355
0.002172513355
0.002172513355
0.002172513353
0.002172513346
0.002172513324
0.002172513249
0.002172513002
0.00217251223
0.002172509948
0.002172503659
0.0021724878
0.002172452059
0.002172381824
0.002172513355
0.002172513355
0.002172513355
0.002172513355
0.002172513353
0.002172513348
0.002172513332
0.002172513278
0.002172513107
0.002172512595
0.002172511142
0.002172507292
0.002172497909
0.002172477217
0.002172436557
0.002172513355
0.002172513355
0.002172513355
0.002172513355
0.002172513353
0.002172513346
0.002172513324
0.002172513249
0.002172513002
0.00217251223
0.002172509948
0.002172503658
0.002172487798
0.002172452055
0.002172513355
0.002172513355
0.002172513355
0.002172513354
0.002172513352
0.002172513344
0.002172513312
0.002172513202
0.002172512822
0.002172511569
0.002172507656
0.002172496255
0.00217246603
0.002172395476
0.002172256358
0.002172513355
0.002172513355
0.002172513355
0.002172513354
0.002172513351
0.002172513338
0.002172513291
0.002172513113
0.002172512471
0.002172510224
0.002172502743
0.002172479496
0.002172413943
0.002172253392
0.002171933467
0.002172513355
0.002172513355
0.002172513355
0.002172513354
0.00217251335
0.002172513333
0.002172513267
0.002172513013
0.002172512048
0.002172508493
0.002172495946
0.002172454335
0.002172328716
0.002172001458
0.00217133299
0.002172513355
0.002172513355
0.002172513355
0.002172513354
0.002172513349
0.002172513331
0.002172513256
0.002172512963
0.002172511821
0.002172507488
0.002172491589
0.002172436221
0.002172258736
0.002171764342
0.002170707139
0.002172513355
0.002172513355
0.002172513355
0.002172513354
0.00217251335
0.002172513333
0.002172513267
0.002172513013
0.002172512048
0.002172508493
0.002172495946
0.002172454335
0.002172328718
0.002172001464
0.002171333004
0.002172513355
0.002172513355
0.002172513355
0.002172513354
0.002172513351
0.002172513338
0.002172513291
0.002172513113
0.002172512471
0.002172510224
0.002172502744
0.002172479497
0.002172413945
0.002172253398
0.002171933481
0.002172513355
0.002172513355
0.002172513355
0.002172513354
0.002172513352
0.002172513344
0.002172513312
0.002172513202
0.002172512822
0.002172511569
0.002172507656
0.002172496255
0.002172466031
0.002172395481
0.00217225637
0.002172513355
0.002172513355
0.002172513355
0.002172513355
0.002172513353
0.002172513346
0.002172513324
0.002172513249
0.002172513002
0.00217251223
0.002172509948
0.002172503659
0.002172487799
0.002172452059
0.002172381823
0.002172513355
0.002172513355
0.002172513355
0.002172513354
0.002172513352
0.002172513343
0.002172513311
0.002172513197
0.002172512807
0.002172511532
0.00217250758
0.002172496168
0.002172466166
0.002172396568
0.002172513355
0.002172513355
0.002172513355
0.002172513354
0.002172513351
0.002172513338
0.002172513291
0.002172513113
0.002172512471
0.002172510224
0.002172502743
0.002172479496
0.002172413941
0.002172253383
0.002172513355
0.002172513355
0.002172513355
0.002172513354
0.002172513349
0.00217251333
0.002172513253
0.002172512951
0.002172511779
0.002172507367
0.002172491456
0.002172437598
0.002172272026
0.002171834722
0.00217093771
0.002172513355
0.002172513355
0.002172513355
0.002172513353
0.002172513347
0.002172513321
0.002172513211
0.002172512754
0.002172510877
0.00217250332
0.002172473843
0.002172364645
0.002171993305
0.002170906012
0.002168525492
0.002172513355
0.002172513355
0.002172513355
0.002172513353
0.002172513346
0.002172513316
0.002172513189
0.002172512647
0.002172510345
0.002172500658
0.002172460608
0.002172300349
0.002171697438
0.00216969315
0.002164709682
0.002172513355
0.002172513355
0.002172513355
0.002172513353
0.002172513347
0.002172513321
0.002172513211
0.002172512754
0.002172510877
0.00217250332
0.002172473843
0.002172364647
0.002171993313
0.00217090604
0.00216852557
0.002172513355
0.002172513355
0.002172513355
0.002172513354
0.002172513349
0.00217251333
0.002172513253
0.002172512951
0.002172511779
0.002172507367
0.002172491456
0.0021724376
0.002172272032
0.002171834744
0.002170937778
0.002172513355
0.002172513355
0.002172513355
0.002172513354
0.002172513351
0.002172513338
0.002172513291
0.002172513113
0.002172512471
0.002172510224
0.002172502744
0.002172479497
0.002172413945
0.002172253397
0.00217193348
0.002172513355
0.002172513355
0.002172513355
0.002172513354
0.002172513352
0.002172513343
0.002172513311
0.002172513197
0.002172512807
0.002172511532
0.00217250758
0.002172496168
0.002172466168
0.002172396574
0.002172259468
0.002172513355
0.002172513355
0.002172513355
0.002172513354
0.002172513351
0.00217251334
0.002172513297
0.00217251314
0.002172512588
0.00217251071
0.002172504641
0.002172486327
0.002172436067
0.002172315429
0.002172513355
0.002172513355
0.002172513355
0.002172513354
0.00217251335
0.002172513333
0.002172513267
0.002172513013
0.002172512048
0.002172508493
0.002172495946
0.002172454333
0.00217232871
0.002172001437
0.002172513355
0.002172513355
0.002172513355
0.002172513353
0.002172513347
0.002172513321
0.002172513211
0.002172512754
0.002172510877
0.00217250332
0.002172473843
0.002172364643
0.002171993294
0.002170905955
0.002172513355
0.002172513355
0.002172513355
0.002172513353
0.002172513344
0.002172513307
0.002172513143
0.00217251242
0.002172509232
0.002172495247
0.002172434792
0.002172181459
0.002171184144
0.002167731291
0.002158919753
0.002172513355
0.002172513355
0.002172513355
0.002172513352
0.002172513343
0.0021725133
0.002172513107
0.002172512226
0.00217250816
0.00217248918
0.002172399791
0.002171978178
0.002170022921
0.00216152593
0.002132068927
0.002172513355
0.002172513355
0.002172513355
0.002172513353
0.002172513344
0.002172513307
0.002172513143
0.00217251242
0.002172509232
0.002172495247
0.002172434793
0.002172181463
0.002171184166
0.002167731406
0.002158920223
0.002172513355
0.002172513355
0.002172513355
0.002172513353
0.002172513347
0.002172513321
0.002172513211
0.002172512754
0.002172510877
0.00217250332
0.002172473843
0.002172364646
0.00217199331
0.002170906033
0.002168525561
0.002172513355
0.002172513355
0.002172513355
0.002172513354
0.00217251335
0.002172513333
0.002172513267
0.002172513013
0.002172512048
0.002172508493
0.002172495946
0.002172454335
0.002172328717
0.002172001461
0.002171333
0.002172513355
0.002172513355
0.002172513355
0.002172513354
0.002172513351
0.00217251334
0.002172513297
0.00217251314
0.002172512588
0.00217251071
0.002172504641
0.002172486328
0.00217243607
0.002172315438
0.002172076041
0.002172513355
0.002172513355
0.002172513355
0.002172513354
0.002172513351
0.002172513338
0.00217251329
0.002172513114
0.00217251248
0.002172510281
0.002172503001
0.002172480395
0.002172416311
0.002172257616
0.002172513355
0.002172513355
0.002172513355
0.002172513354
0.002172513349
0.002172513331
0.002172513256
0.002172512963
0.002172511821
0.002172507488
0.002172491588
0.002172436218
0.002172258726
0.002171764306
0.002172513355
0.002172513355
0.002172513355
0.002172513353
0.002172513346
0.002172513316
0.002172513189
0.002172512647
0.002172510345
0.002172500658
0.002172460607
0.002172300342
0.002171697406
0.002169693014
0.002172513355
0.002172513355
0.002172513355
0.002172513352
0.002172513343
0.0021725133
0.002172513107
0.002172512226
0.00217250816
0.002172489179
0.002172399789
0.002171978167
0.002170022847
0.002161525424
0.002172513355
0.002172513355
0.002172513354
0.002172513352
0.002172513341
0.002172513292
0.002172513062
0.002172511968
0.002172506618
0.00217247947
0.002172335189
0.002171523305
0.002166637851
0.002134992788
0.001912697498
0.002172513355
0.002172513355
0.002172513355
0.002172513352
0.002172513343
0.0021725133
0.002172513107
0.002172512226
0.00217250816
0.002172489179
0.00217239979
0.002171978174
0.002170022903
0.002161525867
0.002132068798
0.002172513355
0.002172513355
0.002172513355
0.002172513353
0.002172513346
0.002172513316
0.002172513189
0.002172512647
0.002172510345
0.002172500658
0.002172460607
0.002172300347
0.00217169743
0.002169693127
0.002164709649
0.002172513355
0.002172513355
0.002172513355
0.002172513354
0.002172513349
0.002172513331
0.002172513256
0.002172512963
0.002172511821
0.002172507488
0.002172491588
0.00217243622
0.002172258733
0.002171764334
0.00217070713
0.002172513355
0.002172513355
0.002172513355
0.002172513354
0.002172513351
0.002172513338
0.00217251329
0.002172513114
0.00217251248
0.002172510281
0.002172503002
0.002172480396
0.002172416314
0.002172257626
0.002171938636
0.002172513355
0.002172513355
0.002172513355
0.002172513354
0.002172513351
0.00217251334
0.002172513297
0.00217251314
0.002172512588
0.00217251071
0.002172504641
0.002172486327
0.002172436067
0.00217231543
0.002172513355
0.002172513355
0.002172513355
0.002172513354
0.00217251335
0.002172513333
0.002172513267
0.002172513013
0.002172512048
0.002172508493
0.002172495945
0.002172454333
0.00217232871
0.002172001439
0.002172513355
0.002172513355
0.002172513355
0.002172513353
0.002172513347
0.002172513321
0.002172513211
0.002172512754
0.002172510877
0.00217250332
0.002172473842
0.002172364641
0.00217199329
0.002170905962
0.002172513355
0.002172513355
0.002172513355
0.002172513353
0.002172513344
0.002172513307
0.002172513143
0.00217251242
0.002172509232
0.002172495247
0.002172434791
0.002172181454
0.002171184119
0.002167731199
0.002172513355
0.002172513355
0.002172513355
0.002172513352
0.002172513343
0.0021725133
0.002172513107
0.002172512226
0.00217250816
0.002172489179
0.002172399788
0.002171978164
0.002170022837
0.002161525403
0.002172513355
0.002172513355
0.002172513355
0.002172513353
0.002172513344
0.002172513307
0.002172513143
0.00217251242
0.002172509232
0.002172495247
0.002172434791
0.002172181455
0.002171184126
0.002167731208
0.002172513355
0.002172513355
0.002172513355
0.002172513353
0.002172513347
0.002172513321
0.002172513211
0.002172512754
0.002172510877
0.00217250332
0.002172473843
0.002172364643
0.002171993298
0.002170905988
0.002168525423
0.002172513355
0.002172513355
0.002172513355
0.002172513354
0.00217251335
0.002172513333
0.002172513267
0.002172513013
0.002172512048
0.002172508493
0.002172495946
0.002172454334
0.002172328714
0.002172001451
0.002171332978
0.002172513355
0.002172513355
0.002172513355
0.002172513354
0.002172513351
0.00217251334
0.002172513297
0.00217251314
0.002172512588
0.00217251071
0.002172504641
0.002172486328
0.002172436069
0.002172315436
0.002172076036
0.002172513355
0.002172513355
0.002172513355
0.002172513354
0.002172513352
0.002172513343
0.002172513311
0.002172513197
0.002172512807
0.002172511532
0.00217250758
0.002172496167
0.002172466166
0.002172396569
0.002172513355
0.002172513355
0.002172513355
0.002172513354
0.002172513351
0.002172513338
0.002172513291
0.002172513113
0.002172512471
0.002172510223
0.002172502743
0.002172479495
0.002172413941
0.002172253385
0.002172513355
0.002172513355
0.002172513355
0.002172513354
0.002172513349
0.00217251333
0.002172513253
0.002172512951
0.002172511779
0.002172507367
0.002172491455
0.002172437597
0.002172272022
0.002171834713
0.002172513355
0.002172513355
0.002172513355
0.002172513353
0.002172513347
0.002172513321
0.002172513211
0.002172512754
0.002172510877
0.00217250332
0.002172473842
0.002172364641
0.00217199329
0.002170905965
0.002172513355
0.002172513355
0.002172513355
0.002172513353
0.002172513346
0.002172513316
0.002172513189
0.002172512647
0.002172510345
0.002172500658
0.002172460606
0.002172300341
0.002171697402
0.002169693014
0.002172513355
0.002172513355
0.002172513355
0.002172513353
0.002172513347
0.002172513321
0.002172513211
0.002172512754
0.002172510877
0.00217250332
0.002172473842
0.002172364641
0.00217199329
0.002170905965
0.002172513355
0.002172513355
0.002172513355
0.002172513354
0.002172513349
0.00217251333
0.002172513253
0.002172512951
0.002172511779
0.002172507367
0.002172491455
0.002172437597
0.002172272022
0.002171834709
0.002172513355
0.002172513355
0.002172513355
0.002172513354
0.002172513351
0.002172513338
0.002172513291
0.002172513113
0.002172512471
0.002172510224
0.002172502743
0.002172479496
0.002172413942
0.002172253388
0.002171933456
0.002172513355
0.002172513355
0.002172513355
0.002172513354
0.002172513352
0.002172513343
0.002172513311
0.002172513197
0.002172512807
0.002172511532
0.00217250758
0.002172496168
0.002172466167
0.002172396571
0.002172259462
0.002172513355
0.002172513355
0.002172513355
0.002172513355
0.002172513353
0.002172513346
0.002172513324
0.002172513249
0.002172513002
0.00217251223
0.002172509948
0.002172503658
0.002172487798
0.002172452056
0.002172513355
0.002172513355
0.002172513355
0.002172513354
0.002172513352
0.002172513344
0.002172513312
0.002172513202
0.002172512822
0.002172511569
0.002172507656
0.002172496254
0.002172466029
0.002172395475
0.002172513355
0.002172513355
0.002172513355
0.002172513354
0.002172513351
0.002172513338
0.002172513291
0.002172513113
0.002172512471
0.002172510223
0.002172502743
0.002172479495
0.002172413941
0.002172253385
0.002172513355
0.002172513355
0.002172513355
0.002172513354
0.00217251335
0.002172513333
0.002172513267
0.002172513013
0.002172512048
0.002172508493
0.002172495945
0.002172454332
0.002172328709
0.00217200144
0.002172513355
0.002172513355
0.002172513355
0.002172513354
0.002172513349
0.002172513331
0.002172513256
0.002172512963
0.002172511821
0.002172507488
0.002172491588
0.002172436218
0.002172258724
0.002171764307
0.002172513355
0.002172513355
0.002172513355
0.002172513354
0.00217251335
0.002172513333
0.002172513267
0.002172513013
0.002172512048
0.002172508493
0.002172495945
0.002172454332
0.002172328709
0.00217200144
0.002172513355
0.002172513355
0.002172513355
0.002172513354
0.002172513351
0.002172513338
0.002172513291
0.002172513113
0.002172512471
0.002172510223
0.002172502743
0.002172479495
0.002172413941
0.002172253385
0.002172513355
0.002172513355
0.002172513355
0.002172513354
0.002172513352
0.002172513344
0.002172513312
0.002172513202
0.002172512822
0.002172511569
0.002172507656
0.002172496255
0.002172466029
0.002172395474
0.002172513355
0.002172513355
0.002172513355
0.002172513355
0.002172513353
0.002172513346
0.002172513324
0.002172513249
0.002172513002
0.00217251223
0.002172509948
0.002172503658
0.002172487798
0.002172452056
0.002172381817
0.002172513355
0.002172513355
0.002172513355
0.002172513355
0.002172513353
0.002172513348
0.002172513332
0.002172513278
0.002172513107
0.002172512595
0.002172511142
0.002172507292
0.002172497908
0.002172477215
0.002172513355
0.002172513355
0.002172513355
0.002172513355
0.002172513353
0.002172513346
0.002172513324
0.002172513249
0.002172513002
0.00217251223
0.002172509948
0.002172503658
0.002172487798
0.002172452056
0.002172513355
0.002172513355
0.002172513355
0.002172513354
0.002172513352
0.002172513343
0.002172513311
0.002172513197
0.002172512807
0.002172511532
0.00217250758
0.002172496167
0.002172466166
0.002172396569
0.002172513355
0.002172513355
0.002172513355
0.002172513354
0.002172513351
0.00217251334
0.002172513297
0.00217251314
0.002172512588
0.00217251071
0.002172504641
0.002172486327
0.002172436067
0.00217231543
0.002172513355
0.002172513355
0.002172513355
0.002172513354
0.002172513351
0.002172513338
0.00217251329
0.002172513114
0.00217251248
0.002172510281
0.002172503001
0.002172480395
0.002172416311
0.002172257617
0.002172513355
0.002172513355
0.002172513355
0.002172513354
0.002172513351
0.00217251334
0.002172513297
0.00217251314
0.002172512588
0.00217251071
0.002172504641
0.002172486327
0.002172436067
0.00217231543
0.002172513355
0.002172513355
0.002172513355
0.002172513354
0.002172513352
0.002172513343
0.002172513311
0.002172513197
0.002172512807
0.002172511532
0.00217250758
0.002172496167
0.002172466166
0.002172396569
0.002172513355
0.002172513355
0.002172513355
0.002172513355
0.002172513353
0.002172513346
0.002172513324
0.002172513249
0.002172513002
0.00217251223
0.002172509948
0.002172503658
0.002172487798
0.002172452055
0.002172513355
0.002172513355
0.002172513355
0.002172513355
0.002172513353
0.002172513348
0.002172513332
0.002172513278
0.002172513107
0.002172512595
0.002172511142
0.002172507292
0.002172497908
0.002172477214
)
;

boundaryField
{
    top
    {
        type            zeroGradient;
    }
    bottom
    {
        type            zeroGradient;
    }
    side-walls
    {
        type            zeroGradient;
    }
    inlet
    {
        type            zeroGradient;
    }
    outlet
    {
        type            zeroGradient;
    }
    procBoundary0to1
    {
        type            processor;
        value           nonuniform List<scalar> 
97
(
0.00217236587
0.002172381817
0.002172263182
0.002172036693
0.002171705455
0.002171469368
0.00217170546
0.002172036699
0.002172263188
0.002172365875
0.002172381817
0.002172381817
0.00217203221
0.002171933451
0.002171452115
0.002170423346
0.002169454597
0.002170423363
0.002171452134
0.002172032224
0.002172263188
0.00217225946
0.002171933451
0.002171933451
0.002169742483
0.002168525389
0.002165948957
0.002160991093
0.002165949034
0.002169742547
0.002171452133
0.002172036699
0.002172076031
0.002171332965
0.002168525389
0.002168525389
0.002152974251
0.002132068357
0.002127577694
0.002152974521
0.002165949028
0.002170423361
0.00217170546
0.002171938628
0.002170707105
0.002164709546
0.002132068357
0.002132068357
0.002018192431
0.002132068388
0.002127577679
0.002158919986
0.002160991085
0.002169454595
0.002171469368
0.002172076035
0.002171332981
0.002168525492
0.00215892006
0.002132068388
0.002158919986
0.002158919986
0.002165948953
0.002170937717
0.002170423343
0.002171705455
0.002172259464
0.00217193347
0.002170937751
0.002168525504
0.002164709568
0.002168525502
0.002170937717
0.002170937717
0.002171452115
0.002172256359
0.002172036692
0.002172381821
0.002172256366
0.002171933472
0.002171332985
0.002170707115
0.002171332985
0.002171933467
0.002172256359
0.002172256359
0.002172263182
0.002172436553
0.002172436555
0.002172381821
0.002172259465
0.002172076036
0.002171938632
0.002172076036
0.002172259464
0.00217238182
0.002172436553
)
;
    }
}


// ************************************************************************* //
