/*--------------------------------*- C++ -*----------------------------------*\
| =========                 |                                                 |
| \\      /  F ield         | OpenFOAM: The Open Source CFD Toolbox           |
|  \\    /   O peration     | Version:  4.x                                   |
|   \\  /    A nd           | Web:      www.OpenFOAM.org                      |
|    \\/     M anipulation  |                                                 |
\*---------------------------------------------------------------------------*/
FoamFile
{
    version     2.0;
    format      ascii;
    class       volScalarField;
    location    "1000";
    object      H2O;
}
// * * * * * * * * * * * * * * * * * * * * * * * * * * * * * * * * * * * * * //

dimensions      [0 0 0 0 0 0 0];

internalField   nonuniform List<scalar> 
1175
(
9.998037885e-07
9.998040351e-07
9.998048702e-07
9.998081663e-07
9.998198596e-07
9.998607188e-07
9.99998621e-07
1.00044996e-06
1.001870147e-06
1.006135334e-06
1.018240701e-06
1.050316421e-06
1.128501063e-06
1.300945441e-06
1.639863722e-06
9.998039872e-07
9.998042e-07
9.998051739e-07
9.998092138e-07
9.998241513e-07
9.99877311e-07
1.000062834e-06
1.000691719e-06
1.002747363e-06
1.009174809e-06
1.028182585e-06
1.080580387e-06
1.212712315e-06
1.510524519e-06
2.095872882e-06
9.998041612e-07
9.998043918e-07
9.998056523e-07
9.998109215e-07
9.998310763e-07
9.999054672e-07
1.000175046e-06
1.001125825e-06
1.004370397e-06
1.014988825e-06
1.047907207e-06
1.142969834e-06
1.392889109e-06
1.972705245e-06
3.115214454e-06
9.998043684e-07
9.998046703e-07
9.998062615e-07
9.998127212e-07
9.998380033e-07
9.999340569e-07
1.000291886e-06
1.001593919e-06
1.006193429e-06
1.021833561e-06
1.072383255e-06
1.224921979e-06
1.643562662e-06
2.64849749e-06
4.643194675e-06
9.998043957e-07
9.998047039e-07
9.998065102e-07
9.998135025e-07
9.998410293e-07
9.999467166e-07
1.000345033e-06
1.001814577e-06
1.007093444e-06
1.025405697e-06
1.086036956e-06
1.27432085e-06
1.808079302e-06
3.129958957e-06
5.787632651e-06
9.998042423e-07
9.998046643e-07
9.998061816e-07
9.998127973e-07
9.998379109e-07
9.999338505e-07
1.000291806e-06
1.001593756e-06
1.006193404e-06
1.02183358e-06
1.072383123e-06
1.224920386e-06
1.643554095e-06
2.648467289e-06
4.643115095e-06
9.998041552e-07
9.998044218e-07
9.9980564e-07
9.998109314e-07
9.998309196e-07
9.999052706e-07
1.000174785e-06
1.001125664e-06
1.004370336e-06
1.014988744e-06
1.04790667e-06
1.142966345e-06
1.392874522e-06
1.972657858e-06
3.11509955e-06
9.998039537e-07
9.998041104e-07
9.998052609e-07
9.998092073e-07
9.998239797e-07
9.998770809e-07
1.00006262e-06
1.000691475e-06
1.002747275e-06
1.009174496e-06
1.028181563e-06
1.080576191e-06
1.212696379e-06
1.510475637e-06
2.095758797e-06
9.998037871e-07
9.998040582e-07
9.998048375e-07
9.998080426e-07
9.998197648e-07
9.998604834e-07
9.999985151e-07
1.000449855e-06
1.001870034e-06
1.006135096e-06
1.018239678e-06
1.050312463e-06
1.128486336e-06
1.300898851e-06
1.639747975e-06
9.998039282e-07
9.99804127e-07
9.99805111e-07
9.998091235e-07
9.998240581e-07
9.998771703e-07
1.000062677e-06
1.000691624e-06
1.002747411e-06
1.009175195e-06
1.02818417e-06
1.080586243e-06
1.212733931e-06
1.510608241e-06
9.998040797e-07
9.998042415e-07
9.998055529e-07
9.998106278e-07
9.99829972e-07
9.999015201e-07
1.000161762e-06
1.001083771e-06
1.004248624e-06
1.014678853e-06
1.047279044e-06
1.142254683e-06
1.394061942e-06
1.981928275e-06
3.141337647e-06
9.998043356e-07
9.998046636e-07
9.998062456e-07
9.998130992e-07
9.9984002e-07
9.999444302e-07
1.000341078e-06
1.001817519e-06
1.007170119e-06
1.025887767e-06
1.0881922e-06
1.281833008e-06
1.827894614e-06
3.165436382e-06
5.831179795e-06
9.998045445e-07
9.998049238e-07
9.998068593e-07
9.998155268e-07
9.998503349e-07
9.999893702e-07
1.000535984e-06
1.002654144e-06
1.010691337e-06
1.040297053e-06
1.144801959e-06
1.491382672e-06
2.537693464e-06
5.26371814e-06
1.083288849e-05
9.998046339e-07
9.998050306e-07
9.998072315e-07
9.998166185e-07
9.998549789e-07
1.000009781e-06
1.00062877e-06
1.003073849e-06
1.012578312e-06
1.048669553e-06
1.181087383e-06
1.642221068e-06
3.12044636e-06
7.238335415e-06
1.604515772e-05
9.998045355e-07
9.998050109e-07
9.998069209e-07
9.998154548e-07
9.998504139e-07
9.999892371e-07
1.000535915e-06
1.002653976e-06
1.010691315e-06
1.040297097e-06
1.144800952e-06
1.491375315e-06
2.537658276e-06
5.263583108e-06
1.083251652e-05
9.99804279e-07
9.998045951e-07
9.998062529e-07
9.998131048e-07
9.998401306e-07
9.999443974e-07
1.000340897e-06
1.00181747e-06
1.007170126e-06
1.025887575e-06
1.088190402e-06
1.281822379e-06
1.827846633e-06
3.165262862e-06
5.830724558e-06
9.998041064e-07
9.998043353e-07
9.998055387e-07
9.99810583e-07
9.998298575e-07
9.999014758e-07
1.000161739e-06
1.001083796e-06
1.004248457e-06
1.014678469e-06
1.047276871e-06
1.142244186e-06
1.394019047e-06
1.981777336e-06
3.140919127e-06
9.998039053e-07
9.998041422e-07
9.998051316e-07
9.998091113e-07
9.998239257e-07
9.998770845e-07
1.000062733e-06
1.000691631e-06
1.002747372e-06
1.009174771e-06
1.028182172e-06
1.080577486e-06
1.21269933e-06
1.510480841e-06
2.09576482e-06
9.998040704e-07
9.998042617e-07
9.998055959e-07
9.998108124e-07
9.998310046e-07
9.999054601e-07
1.000175107e-06
1.001125817e-06
1.004370743e-06
1.014990371e-06
1.047912669e-06
1.142989244e-06
1.392956026e-06
1.972924441e-06
9.998043717e-07
9.998044948e-07
9.998062067e-07
9.998130275e-07
9.99840034e-07
9.999443968e-07
1.000340946e-06
1.001817494e-06
1.007170572e-06
1.025889156e-06
1.088197718e-06
1.281854791e-06
1.827981894e-06
3.165796482e-06
9.998044451e-07
9.998048733e-07
9.998071036e-07
9.99816789e-07
9.998559043e-07
1.00001491e-06
1.000652136e-06
1.003171313e-06
1.012934404e-06
1.049680947e-06
1.182206402e-06
1.630803729e-06
3.009984125e-06
6.653005487e-06
1.412714071e-05
9.998047576e-07
9.998053169e-07
9.998081378e-07
9.998203962e-07
9.998724712e-07
1.000091378e-06
1.001007743e-06
1.004814694e-06
1.020445804e-06
1.083383705e-06
1.32888094e-06
2.238343796e-06
5.331169205e-06
1.438754462e-05
3.421828337e-05
9.998049683e-07
9.998055435e-07
9.998086016e-07
9.998220921e-07
9.998800118e-07
1.000127916e-06
1.001186636e-06
1.005701293e-06
1.024872985e-06
1.105545605e-06
1.439090191e-06
2.773736821e-06
7.794834475e-06
2.448707986e-05
6.599440159e-05
9.99804837e-07
9.998053808e-07
9.998081583e-07
9.99820339e-07
9.998724312e-07
1.00009137e-06
1.001007717e-06
1.004814716e-06
1.020445664e-06
1.083382955e-06
1.32887604e-06
2.238312992e-06
5.331005514e-06
1.438682013e-05
3.421597553e-05
9.998044749e-07
9.99805048e-07
9.998072263e-07
9.99816818e-07
9.99855935e-07
1.000014778e-06
1.000652125e-06
1.003171455e-06
1.012934386e-06
1.049680213e-06
1.182200508e-06
1.630768647e-06
3.009807999e-06
6.652257298e-06
1.412473444e-05
9.998041858e-07
9.998044969e-07
9.998060764e-07
9.998129788e-07
9.998400863e-07
9.999443932e-07
1.000341058e-06
1.001817576e-06
1.007170356e-06
1.025888256e-06
1.088192558e-06
1.281828494e-06
1.827861214e-06
3.16528791e-06
5.830745242e-06
9.998039502e-07
9.998041895e-07
9.998054617e-07
9.99810819e-07
9.99831044e-07
9.999055054e-07
1.000174978e-06
1.001125794e-06
1.004370505e-06
1.014989534e-06
1.047908671e-06
1.142971805e-06
1.392886363e-06
1.972677702e-06
3.11511935e-06
9.998041435e-07
9.998044638e-07
9.998061079e-07
9.998125534e-07
9.998378671e-07
9.999340489e-07
1.00029184e-06
1.001593992e-06
1.00619418e-06
1.021836471e-06
1.072394483e-06
1.224962492e-06
1.643701023e-06
2.648927271e-06
9.998045014e-07
9.998048254e-07
9.998068717e-07
9.998154228e-07
9.998502672e-07
9.999892305e-07
1.000535881e-06
1.002654204e-06
1.010692233e-06
1.040301094e-06
1.14481879e-06
1.491451597e-06
2.537965884e-06
5.264723688e-06
9.998048224e-07
9.998053853e-07
9.998082313e-07
9.998204674e-07
9.99872452e-07
1.000091419e-06
1.001007756e-06
1.004814889e-06
1.020446675e-06
1.083387954e-06
1.328901965e-06
2.238445231e-06
5.331657782e-06
1.438992838e-05
9.998051127e-07
9.998057683e-07
9.99809328e-07
9.9982538e-07
9.998961836e-07
1.000206447e-06
1.001571633e-06
1.007592988e-06
1.034146108e-06
1.150615067e-06
1.654101842e-06
3.763953555e-06
1.207012517e-05
4.082869092e-05
0.0001142284387
9.998052501e-07
9.998059921e-07
9.998098409e-07
9.998276759e-07
9.999071982e-07
1.000263277e-06
1.001870861e-06
1.009206504e-06
1.043068061e-06
1.201139213e-06
1.945552633e-06
5.456609793e-06
2.173916432e-05
9.249824077e-05
0.0003378098856
9.998050685e-07
9.99805758e-07
9.998093037e-07
9.998253566e-07
9.998960796e-07
1.000206364e-06
1.001571598e-06
1.007593083e-06
1.034146137e-06
1.150613969e-06
1.65408952e-06
3.763859244e-06
1.206949709e-05
4.082505208e-05
0.0001142121266
9.998047041e-07
9.998053353e-07
9.998080491e-07
9.998203147e-07
9.998724264e-07
1.000091375e-06
1.001007742e-06
1.004814809e-06
1.020446528e-06
1.083386132e-06
1.328887295e-06
2.238351401e-06
5.331118012e-06
1.438706239e-05
3.421615553e-05
9.998043952e-07
9.998048019e-07
9.998069131e-07
9.998155826e-07
9.998502834e-07
9.999892993e-07
1.000535901e-06
1.002654198e-06
1.010692079e-06
1.040299413e-06
1.144809002e-06
1.491399656e-06
2.537719931e-06
5.263697155e-06
1.083260516e-05
9.998043613e-07
9.998045653e-07
9.998061188e-07
9.998127045e-07
9.998380187e-07
9.99934087e-07
1.000291845e-06
1.001593899e-06
1.006193936e-06
1.021835347e-06
1.072388234e-06
1.224934294e-06
1.643585941e-06
2.64852196e-06
4.643164751e-06
9.998042191e-07
9.998045644e-07
9.99806228e-07
9.998133525e-07
9.998408853e-07
9.999465803e-07
1.000344969e-06
1.001814864e-06
1.007094402e-06
1.025409886e-06
1.086053189e-06
1.274379984e-06
1.808280157e-06
3.130570416e-06
9.998045967e-07
9.998050813e-07
9.99807153e-07
9.998165274e-07
9.998548461e-07
1.000009689e-06
1.000628639e-06
1.00307429e-06
1.012579816e-06
1.04867622e-06
1.181116802e-06
1.642344397e-06
3.120935141e-06
7.240090592e-06
9.998048662e-07
9.998054743e-07
9.998085594e-07
9.998219226e-07
9.99879994e-07
1.000127888e-06
1.001186722e-06
1.005701837e-06
1.024875357e-06
1.105556986e-06
1.439146151e-06
2.774014147e-06
7.796185452e-06
2.449330149e-05
9.998051732e-07
9.998059204e-07
9.998097731e-07
9.998275716e-07
9.999071916e-07
1.000263264e-06
1.001870901e-06
1.009206784e-06
1.04307021e-06
1.201151211e-06
1.945623347e-06
5.457045333e-06
2.174198821e-05
9.251756239e-05
9.998052596e-07
9.998061356e-07
9.9981038e-07
9.99830137e-07
9.999200833e-07
1.000331775e-06
1.002246932e-06
1.011355153e-06
1.055913928e-06
1.282000476e-06
2.48353227e-06
9.244478849e-06
4.992685488e-05
0.0003134366601
0.002164473308
9.998051787e-07
9.998058548e-07
9.99809847e-07
9.998276195e-07
9.999072212e-07
1.000263244e-06
1.001870756e-06
1.009206844e-06
1.04307023e-06
1.201149052e-06
1.945598979e-06
5.456826788e-06
2.174012936e-05
9.250181638e-05
0.0003378135549
9.998049596e-07
9.998055217e-07
9.998084438e-07
9.998219151e-07
9.998799467e-07
1.000127866e-06
1.001186716e-06
1.005701938e-06
1.024875033e-06
1.105553872e-06
1.439123012e-06
2.773862926e-06
7.795264299e-06
2.448819303e-05
6.599531801e-05
9.998047277e-07
9.998050742e-07
9.998072186e-07
9.998165215e-07
9.99854863e-07
1.000009683e-06
1.000628723e-06
1.003074168e-06
1.012579655e-06
1.048674124e-06
1.181103838e-06
1.642274332e-06
3.120595307e-06
7.238647032e-06
1.60454196e-05
9.998044643e-07
9.998047065e-07
9.998064953e-07
9.998134376e-07
9.998410214e-07
9.999466803e-07
1.000345073e-06
1.001814748e-06
1.007094211e-06
1.025408541e-06
1.086045589e-06
1.274345182e-06
1.808137827e-06
3.130065912e-06
5.787730799e-06
9.998041929e-07
9.998045022e-07
9.99806143e-07
9.998126607e-07
9.998378949e-07
9.999338484e-07
1.000291807e-06
1.001593886e-06
1.006194385e-06
1.021837542e-06
1.072398305e-06
1.224973014e-06
1.643722615e-06
2.648947907e-06
9.998044747e-07
9.9980477e-07
9.998069927e-07
9.99815422e-07
9.998502296e-07
9.999891487e-07
1.000535827e-06
1.00265425e-06
1.010692789e-06
1.040303745e-06
1.144828464e-06
1.491482066e-06
2.538041267e-06
5.264803554e-06
9.998048269e-07
9.998053603e-07
9.998081871e-07
9.998203897e-07
9.99872389e-07
1.00009144e-06
1.001007782e-06
1.004815103e-06
1.020448215e-06
1.083394879e-06
1.328929933e-06
2.23855108e-06
5.331995971e-06
1.439051046e-05
9.998051072e-07
9.998057066e-07
9.998093685e-07
9.998254427e-07
9.998961874e-07
1.000206399e-06
1.00157166e-06
1.007593586e-06
1.034149079e-06
1.150628978e-06
1.654168635e-06
3.764271526e-06
1.207159184e-05
4.083492833e-05
9.998051613e-07
9.998058438e-07
9.998097834e-07
9.99827504e-07
9.999070977e-07
1.000263278e-06
1.001870901e-06
1.009207243e-06
1.043072174e-06
1.201160107e-06
1.945664736e-06
5.457236377e-06
2.174280929e-05
9.252026625e-05
9.998050304e-07
9.998056939e-07
9.998091156e-07
9.998253098e-07
9.998961206e-07
1.000206417e-06
1.001571683e-06
1.007593699e-06
1.034148957e-06
1.150627555e-06
1.654157184e-06
3.764193972e-06
1.207115707e-05
4.083322544e-05
9.99804775e-07
9.998053084e-07
9.998080863e-07
9.998203178e-07
9.998723985e-07
1.00009137e-06
1.001007762e-06
1.004815183e-06
1.020447924e-06
1.083392691e-06
1.328915322e-06
2.238470934e-06
5.331599956e-06
1.438880429e-05
3.42217513e-05
9.998044934e-07
9.998048992e-07
9.998068583e-07
9.998154098e-07
9.998503768e-07
9.999892027e-07
1.00053594e-06
1.00265434e-06
1.010692711e-06
1.040301949e-06
1.144818633e-06
1.49143563e-06
2.537842989e-06
5.264064991e-06
1.083345024e-05
9.998042848e-07
9.998046309e-07
9.998062699e-07
9.998127226e-07
9.998378845e-07
9.999339274e-07
1.000291878e-06
1.001594023e-06
1.006194243e-06
1.021836538e-06
1.072392275e-06
1.224946995e-06
1.643623237e-06
2.648615912e-06
4.64334261e-06
9.998039889e-07
9.998042983e-07
9.998056872e-07
9.998108998e-07
9.998308636e-07
9.999053698e-07
1.000174942e-06
1.001125811e-06
1.004371218e-06
1.014991873e-06
1.047917415e-06
1.14300173e-06
1.392980682e-06
1.972943853e-06
9.998041836e-07
9.998045218e-07
9.998061553e-07
9.998130175e-07
9.998399845e-07
9.999443353e-07
1.000340933e-06
1.001817648e-06
1.007171331e-06
1.025892399e-06
1.088208674e-06
1.281887656e-06
1.828060604e-06
3.165884061e-06
9.998044582e-07
9.998049003e-07
9.998072478e-07
9.998166872e-07
9.998558833e-07
1.000014776e-06
1.000652187e-06
1.003171855e-06
1.012936272e-06
1.049688308e-06
1.182234088e-06
1.630901171e-06
3.010291812e-06
6.653820262e-06
9.998047201e-07
9.998052325e-07
9.998080114e-07
9.998203395e-07
9.998724564e-07
1.000091474e-06
1.001007853e-06
1.004815327e-06
1.020448791e-06
1.083397027e-06
1.328937589e-06
2.238574615e-06
5.332049429e-06
1.439053525e-05
9.998049607e-07
9.998053821e-07
9.99808482e-07
9.998218441e-07
9.998800177e-07
1.000127912e-06
1.001186815e-06
1.005702294e-06
1.024877137e-06
1.105564109e-06
1.439173561e-06
2.774111712e-06
7.796467131e-06
2.449364414e-05
9.998047755e-07
9.998052836e-07
9.998079091e-07
9.998203109e-07
9.998724446e-07
1.000091462e-06
1.001007793e-06
1.004815324e-06
1.020448796e-06
1.083396608e-06
1.328933677e-06
2.238552122e-06
5.331947156e-06
1.439020409e-05
9.998044557e-07
9.998048409e-07
9.998071351e-07
9.998165921e-07
9.998558401e-07
1.000014837e-06
1.000652032e-06
1.003171861e-06
1.012936099e-06
1.04968723e-06
1.182228187e-06
1.6308745e-06
3.010197453e-06
6.653649538e-06
9.998041578e-07
9.998045642e-07
9.998062422e-07
9.998130822e-07
9.998399669e-07
9.999443473e-07
1.000340954e-06
1.001817696e-06
1.007171192e-06
1.025891345e-06
1.088203748e-06
1.281867022e-06
1.82798586e-06
3.165651856e-06
5.831676496e-06
9.998039734e-07
9.998043373e-07
9.998057263e-07
9.998108709e-07
9.998309882e-07
9.999053829e-07
1.000175043e-06
1.001125886e-06
1.004371167e-06
1.014991252e-06
1.047913932e-06
1.142987684e-06
1.392931688e-06
1.972791032e-06
3.115340164e-06
9.998038205e-07
9.998040736e-07
9.998052001e-07
9.998092113e-07
9.998238975e-07
9.998770572e-07
1.00006263e-06
1.000691698e-06
1.002747865e-06
1.00917656e-06
1.028188259e-06
1.080596574e-06
1.212754395e-06
1.510624721e-06
9.998039854e-07
9.998042719e-07
9.998054631e-07
9.998105964e-07
9.998297766e-07
9.999014333e-07
1.000161722e-06
1.001084005e-06
1.004249294e-06
1.014681434e-06
1.047287321e-06
1.142278398e-06
1.394122669e-06
1.982057563e-06
9.998042728e-07
9.998045817e-07
9.998063312e-07
9.998131612e-07
9.998401446e-07
9.999443529e-07
1.000341073e-06
1.00181779e-06
1.007171503e-06
1.025892965e-06
1.088210046e-06
1.281890755e-06
1.828065681e-06
3.165883543e-06
9.998044498e-07
9.998047794e-07
9.998068902e-07
9.998155445e-07
9.998503326e-07
9.999892916e-07
1.000535974e-06
1.002654525e-06
1.010693483e-06
1.040305694e-06
1.144834368e-06
1.491497752e-06
2.538071593e-06
5.264816618e-06
9.998045191e-07
9.998048635e-07
9.998070906e-07
9.998164344e-07
9.998548075e-07
1.000009674e-06
1.000628818e-06
1.003074527e-06
1.012580931e-06
1.048680121e-06
1.181129767e-06
1.642381478e-06
3.121015177e-06
7.240134795e-06
9.998044536e-07
9.99804766e-07
9.998067782e-07
9.998155062e-07
9.998502944e-07
9.999892175e-07
1.000535796e-06
1.002654449e-06
1.010693447e-06
1.040305329e-06
1.144832704e-06
1.491490095e-06
2.538042537e-06
5.26473028e-06
9.998042712e-07
9.998046599e-07
9.99806242e-07
9.998129868e-07
9.998399848e-07
9.999443404e-07
1.000341063e-06
1.001817919e-06
1.007171453e-06
1.025892365e-06
1.088207901e-06
1.281882443e-06
1.828039768e-06
3.16583712e-06
9.998040226e-07
9.99804263e-07
9.998055464e-07
9.99810496e-07
9.998299231e-07
9.999015336e-07
1.00016185e-06
1.001084073e-06
1.004249283e-06
1.014681056e-06
1.047285334e-06
1.142271567e-06
1.394103896e-06
1.982038578e-06
9.99803812e-07
9.99804071e-07
9.998050486e-07
9.998090677e-07
9.998239761e-07
9.99877055e-07
1.000062682e-06
1.000691702e-06
1.002747887e-06
1.009176219e-06
1.028186754e-06
1.080590965e-06
1.212737337e-06
1.510577827e-06
2.095983204e-06
9.998036732e-07
9.998038927e-07
9.998047745e-07
9.998079617e-07
9.998196415e-07
9.998605205e-07
9.9999854e-07
1.000449959e-06
1.001870482e-06
1.006136607e-06
1.018244199e-06
1.050325334e-06
1.12852156e-06
1.300986686e-06
9.998038276e-07
9.99804067e-07
9.998050886e-07
9.998091541e-07
9.998238897e-07
9.998771235e-07
1.000062626e-06
1.000691611e-06
1.002747894e-06
1.009176773e-06
1.028188738e-06
1.080597482e-06
1.212756025e-06
1.510626107e-06
9.998040922e-07
9.998044476e-07
9.998057416e-07
9.998110511e-07
9.998311155e-07
9.999054774e-07
1.000175074e-06
1.001125972e-06
1.004371374e-06
1.014992449e-06
1.04791887e-06
1.143004969e-06
1.392985973e-06
1.972946531e-06
9.998042108e-07
9.998045927e-07
9.998060877e-07
9.998125771e-07
9.998379617e-07
9.999340149e-07
1.000291951e-06
1.001594235e-06
1.006194978e-06
1.021839123e-06
1.07240209e-06
1.224982019e-06
1.643738098e-06
2.648956629e-06
9.998043766e-07
9.998046338e-07
9.99806268e-07
9.998132871e-07
9.998408308e-07
9.999466231e-07
1.000345076e-06
1.001815002e-06
1.007095153e-06
1.025412173e-06
1.086059763e-06
1.274395963e-06
1.808308511e-06
3.130581395e-06
9.998042499e-07
9.998045497e-07
9.998061636e-07
9.99812557e-07
9.99837896e-07
9.999340426e-07
1.000291872e-06
1.001594095e-06
1.006194706e-06
1.021838854e-06
1.072401359e-06
1.224979169e-06
1.64372841e-06
2.6489282e-06
9.998041287e-07
9.998042892e-07
9.998055091e-07
9.998108047e-07
9.998308834e-07
9.999053019e-07
1.000175024e-06
1.001126003e-06
1.004371268e-06
1.014992249e-06
1.047917861e-06
1.143001534e-06
1.392976052e-06
1.972925362e-06
9.99803993e-07
9.998040951e-07
9.998051252e-07
9.998091198e-07
9.998239893e-07
9.99877086e-07
1.000062641e-06
1.00069173e-06
1.002747851e-06
1.009176479e-06
1.028187622e-06
1.080594494e-06
1.21274924e-06
1.510618187e-06
9.998037311e-07
9.998039295e-07
9.99804756e-07
9.998080349e-07
9.998197567e-07
9.998604925e-07
9.999986088e-07
1.000450029e-06
1.0018705e-06
1.006136295e-06
1.01824349e-06
1.050323224e-06
1.12851703e-06
1.300985515e-06
)
;

boundaryField
{
    top
    {
        type            zeroGradient;
    }
    bottom
    {
        type            zeroGradient;
    }
    side-walls
    {
        type            zeroGradient;
    }
    inlet
    {
        type            zeroGradient;
    }
    outlet
    {
        type            zeroGradient;
    }
    procBoundary0to1
    {
        type            processor;
        value           nonuniform List<scalar> 
97
(
2.228846434e-06
2.095980228e-06
3.08445605e-06
4.971442658e-06
7.730910214e-06
9.697512838e-06
7.73081427e-06
4.971304233e-06
3.084331305e-06
2.22875671e-06
2.095980228e-06
2.095980228e-06
5.00887059e-06
5.83172734e-06
9.841712781e-06
1.841164639e-05
2.648070142e-05
1.841125478e-05
9.841280998e-06
5.008598756e-06
3.084342585e-06
3.115379309e-06
5.83172734e-06
5.83172734e-06
2.408418944e-05
3.422282107e-05
5.568378492e-05
9.697729809e-05
5.568196085e-05
2.408282757e-05
9.841307517e-06
4.971335224e-06
4.643507192e-06
1.083388401e-05
3.422282107e-05
3.422282107e-05
0.0001637572387
0.0003378716251
0.0003752750181
0.0001637507917
5.568214716e-05
1.841136501e-05
7.73088589e-06
5.788112619e-06
1.604691994e-05
6.600368062e-05
0.0003378716251
0.0003378716251
0.001286302189
0.0003378701526
0.0003752754559
0.0001142283887
9.697785708e-05
2.648095992e-05
9.69763892e-06
4.643476777e-06
1.083357619e-05
3.421987263e-05
0.0001142262879
0.0003378701526
0.0001142283887
0.0001142283887
5.568385341e-05
1.412714529e-05
1.841195139e-05
7.731064946e-06
3.115308486e-06
5.831218638e-06
1.412611948e-05
3.421983926e-05
6.600352967e-05
3.421974582e-05
1.412714529e-05
1.412714529e-05
9.841720509e-06
3.141340802e-06
4.971533251e-06
2.095862938e-06
3.141127046e-06
5.831211586e-06
1.083357402e-05
1.604687627e-05
1.083347227e-05
5.831296112e-06
3.141340802e-06
3.141340802e-06
3.084467189e-06
1.639867655e-06
1.639806812e-06
2.095865755e-06
3.115310928e-06
4.643484004e-06
5.788104803e-06
4.643439868e-06
3.115299515e-06
2.095893601e-06
1.639867655e-06
)
;
    }
}


// ************************************************************************* //
